/*--------------------------------*- C++ -*----------------------------------*\
| =========                 |                                                 |
| \\      /  F ield         | OpenFOAM: The Open Source CFD Toolbox           |
|  \\    /   O peration     | Version:  2312                                  |
|   \\  /    A nd           | Website:  www.openfoam.com                      |
|    \\/     M anipulation  |                                                 |
\*---------------------------------------------------------------------------*/
FoamFile
{
    version     2.0;
    format      ascii;
    arch        "LSB;label=32;scalar=64";
    class       volScalarField;
    location    "0.005";
    object      alphat;
}
// * * * * * * * * * * * * * * * * * * * * * * * * * * * * * * * * * * * * * //

dimensions      [1 -1 -1 0 0 0 0];

internalField   nonuniform List<scalar> 
48128
(
8.89472e-09
2.35283e-08
3.32617e-08
3.1152e-08
3.01553e-08
2.54325e-08
2.1536e-08
2.27302e-07
1.03573e-06
2.52853e-06
4.12351e-06
5.59054e-06
6.91022e-06
8.09313e-06
9.16926e-06
1.0175e-05
1.1134e-05
1.20642e-05
1.29863e-05
1.39161e-05
1.48597e-05
1.5825e-05
1.68194e-05
1.78534e-05
1.89389e-05
2.00912e-05
2.13224e-05
2.26542e-05
2.41034e-05
2.56948e-05
2.74101e-05
2.92562e-05
3.1259e-05
3.34319e-05
3.57836e-05
3.83348e-05
4.11511e-05
4.41852e-05
4.74664e-05
5.09489e-05
5.46663e-05
5.86153e-05
6.29043e-05
6.73318e-05
7.19441e-05
7.65733e-05
8.15317e-05
8.65267e-05
9.15752e-05
9.62708e-05
0.000101101
0.000105559
0.00011024
0.000114522
0.000119449
0.000125666
0.000131535
0.000137315
0.000142738
0.000147962
0.000152912
0.000157597
0.000162083
0.000166337
0.000170411
0.000174209
0.000177793
0.000181146
0.000175784
0.000169082
0.000162945
0.00015736
0.000152207
0.000147375
0.000142865
0.000138585
0.000134585
0.000130772
0.000127226
0.000123858
0.000120791
0.000117836
0.000115179
0.000112556
0.000110144
0.000107753
0.000105577
0.000103462
0.000101566
9.97169e-05
9.80446e-05
9.63927e-05
9.48915e-05
9.34237e-05
9.20773e-05
9.07855e-05
8.95651e-05
8.83846e-05
8.72545e-05
8.62117e-05
8.52129e-05
8.43082e-05
8.34696e-05
8.26996e-05
8.19671e-05
8.12984e-05
8.06723e-05
8.00956e-05
7.95379e-05
7.90138e-05
7.85099e-05
7.80702e-05
7.76822e-05
7.73167e-05
7.69734e-05
7.65912e-05
7.61178e-05
7.56175e-05
7.494e-05
7.4409e-05
7.4604e-05
7.43353e-05
7.40448e-05
7.41503e-05
7.41058e-05
7.4011e-05
7.38867e-05
7.37211e-05
7.35488e-05
7.33997e-05
7.32787e-05
7.31757e-05
7.30772e-05
7.29567e-05
7.28366e-05
7.27114e-05
7.26031e-05
7.25133e-05
7.24312e-05
7.23366e-05
7.22495e-05
7.21724e-05
7.21e-05
7.20156e-05
7.19269e-05
7.18106e-05
7.16903e-05
7.15318e-05
7.13998e-05
7.14e-05
7.13102e-05
7.12023e-05
7.11534e-05
7.10859e-05
7.10405e-05
7.09894e-05
7.09402e-05
7.08874e-05
7.0838e-05
7.07853e-05
7.07293e-05
7.06633e-05
7.05916e-05
7.05203e-05
7.04352e-05
7.03382e-05
7.02448e-05
7.01488e-05
7.00578e-05
6.99591e-05
6.98712e-05
6.98282e-05
6.97711e-05
6.97253e-05
6.96851e-05
6.96673e-05
6.96497e-05
6.96444e-05
6.96367e-05
6.96188e-05
6.95904e-05
6.95463e-05
6.94972e-05
6.94307e-05
6.93614e-05
6.92905e-05
6.9216e-05
6.91462e-05
6.9088e-05
6.90372e-05
6.89963e-05
6.89614e-05
6.89461e-05
6.89333e-05
6.892e-05
6.89112e-05
6.89043e-05
6.889e-05
6.88632e-05
6.88277e-05
6.87767e-05
6.87216e-05
6.86651e-05
6.86075e-05
6.85513e-05
6.8505e-05
6.84634e-05
6.84271e-05
6.8402e-05
6.83802e-05
6.83642e-05
6.83542e-05
6.83452e-05
6.833e-05
6.8312e-05
6.82807e-05
6.82517e-05
6.82167e-05
6.81374e-05
6.80969e-05
6.80573e-05
6.80085e-05
6.79673e-05
6.79304e-05
6.79011e-05
6.78783e-05
6.78575e-05
6.78373e-05
6.78208e-05
6.78067e-05
6.77935e-05
6.77701e-05
6.77475e-05
6.77167e-05
6.76504e-05
6.76173e-05
6.75768e-05
6.75271e-05
6.74847e-05
6.7432e-05
1.60298e-07
1.32214e-07
7.53793e-08
6.21782e-08
1.1876e-07
2.7413e-07
7.08344e-07
1.96322e-06
4.44622e-06
8.45334e-06
1.38239e-05
1.97779e-05
2.63713e-05
3.33017e-05
4.04052e-05
4.75418e-05
5.47456e-05
6.20955e-05
6.9723e-05
7.77872e-05
8.62803e-05
9.54465e-05
0.00010527
0.000115933
0.00012746
0.000139979
0.000153482
0.000168183
0.000183826
0.000201683
0.000221176
0.000241687
0.000263523
0.000286887
0.000311266
0.000333952
0.000358452
0.000384445
0.000411998
0.000440558
0.00047032
0.000501223
0.000534125
0.000567057
0.000600322
0.000632911
0.00066788
0.000703489
0.000740511
0.000774413
0.000810167
0.000843166
0.000877687
0.0009092
0.000939457
0.000968394
0.000994376
0.00101887
0.00104132
0.0010618
0.00108028
0.00109703
0.00111221
0.00112574
0.00113802
0.00114835
0.00115724
0.00116451
0.00117057
0.00117723
0.00118241
0.00118596
0.00118879
0.0011892
0.0011893
0.00118672
0.00118406
0.00117887
0.00117369
0.0011663
0.00115953
0.00115089
0.00114306
0.00113398
0.00112551
0.00111527
0.00110551
0.00109455
0.00108427
0.00107316
0.00106286
0.00105184
0.00104143
0.00103065
0.00102026
0.00100977
0.000999476
0.00098912
0.000978631
0.000968451
0.000958244
0.000948505
0.000938885
0.000929833
0.000920882
0.000912466
0.000904177
0.000896371
0.00088865
0.000881182
0.000873904
0.000866992
0.000860437
0.00085416
0.000848213
0.000842272
0.000835382
0.000828262
0.0008199
0.000812732
0.000808974
0.000802535
0.000796777
0.000793535
0.000790111
0.00078672
0.000783637
0.000780262
0.000776795
0.000773451
0.00077029
0.000767218
0.000764291
0.000761178
0.000758062
0.000754905
0.000751809
0.000748852
0.000746031
0.000743172
0.000740387
0.000737693
0.000735127
0.000732478
0.000729912
0.000726751
0.000722672
0.000718604
0.000714606
0.000710205
0.000706002
0.000701905
0.000697565
0.000693715
0.000689991
0.000686474
0.000683161
0.000679936
0.00067692
0.000674029
0.000671203
0.000668594
0.000665945
0.000663381
0.000660768
0.000658133
0.000655501
0.000652861
0.000650241
0.000647632
0.000644922
0.000642417
0.00063995
0.000637648
0.000635335
0.000633336
0.000631319
0.000629645
0.000628023
0.000626497
0.000625088
0.000623749
0.000622419
0.000621155
0.000619783
0.000618349
0.000616851
0.000615275
0.000613796
0.00061209
0.000610554
0.000608948
0.000607691
0.000606414
0.000605233
0.000604139
0.000603154
0.000602259
0.00060148
0.000600664
0.000599911
0.000598976
0.000598192
0.000597278
0.000596307
0.000595212
0.000594167
0.000593103
0.000592142
0.000591187
0.00059031
0.000589521
0.000588822
0.000588221
0.000587671
0.000587152
0.000586655
0.000586094
0.000585547
0.000584868
0.000584142
0.000583423
0.00058265
0.000581849
0.000581083
0.000580376
0.000579705
0.000579095
0.000578548
0.00057809
0.000577683
0.000577319
0.000577022
0.000576628
0.000576243
0.000575831
0.00057532
0.000574795
0.000574186
0.000573265
3.22643e-07
4.14504e-07
3.71076e-07
4.6401e-07
1.05608e-06
2.12785e-06
4.69272e-06
1.00778e-05
1.99334e-05
3.56884e-05
5.63032e-05
7.95633e-05
0.000103823
0.000127825
0.000150833
0.000172654
0.00019357
0.000214063
0.000234031
0.000254635
0.00027543
0.000297308
0.000319988
0.00034393
0.00036912
0.00039573
0.000423862
0.000454001
0.000485513
0.000519241
0.000554728
0.000591759
0.000630154
0.000669702
0.000710542
0.000751272
0.000794129
0.000838904
0.000885796
0.000933906
0.000983487
0.00103388
0.00108703
0.00113984
0.00119311
0.00124434
0.00129865
0.00135309
0.00140957
0.00146106
0.00151465
0.00156406
0.00161501
0.00166152
0.00170784
0.00175179
0.00179226
0.00183079
0.00186628
0.00189891
0.00192864
0.00195588
0.00198087
0.00200353
0.00202424
0.00204216
0.00205793
0.00207135
0.00208168
0.00209171
0.00209873
0.00210345
0.00210706
0.00210726
0.00210695
0.0021032
0.00209906
0.00209134
0.00208365
0.00207274
0.00206268
0.00204979
0.00203806
0.00202396
0.00201041
0.00199424
0.00197882
0.00196163
0.00194541
0.00192784
0.00191135
0.00189365
0.00187676
0.00185921
0.00184217
0.00182486
0.00180764
0.00179013
0.0017724
0.00175502
0.00173755
0.00172075
0.00170409
0.00168823
0.00167243
0.00165741
0.00164249
0.00162829
0.00161407
0.00160022
0.00158651
0.00157351
0.00156092
0.00154892
0.00153713
0.00152544
0.00151171
0.0014979
0.00148204
0.00146741
0.0014592
0.00144684
0.00143511
0.00142728
0.00141979
0.00141198
0.00140466
0.0013966
0.00138852
0.00138056
0.00137299
0.00136553
0.00135843
0.0013509
0.00134351
0.00133593
0.0013286
0.00132141
0.00131457
0.00130755
0.0013008
0.00129408
0.00128772
0.0012811
0.00127475
0.0012678
0.00126104
0.00125397
0.0012471
0.00124159
0.00123543
0.00122935
0.001224
0.00121893
0.0012143
0.00120985
0.00120569
0.00120158
0.00119769
0.00119381
0.00119007
0.00118617
0.00118219
0.00117824
0.00117406
0.00116963
0.00116518
0.00116068
0.00115613
0.00115157
0.00114703
0.00114301
0.001139
0.00113517
0.00113175
0.00112854
0.00112572
0.0011232
0.00112088
0.0011187
0.00111652
0.00111418
0.00111171
0.00110902
0.00110606
0.00110301
0.0010998
0.00109653
0.00109334
0.0010902
0.00108719
0.00108449
0.00108212
0.00107997
0.00107802
0.00107631
0.00107483
0.00107343
0.00107197
0.00107041
0.00106862
0.00106665
0.00106461
0.00106241
0.00106013
0.00105783
0.00105559
0.00105342
0.00105155
0.00104981
0.00104832
0.00104705
0.00104598
0.00104494
0.001044
0.00104292
0.00104186
0.00104056
0.00103892
0.00103744
0.00103583
0.00103414
0.00103247
0.0010308
0.00102929
0.00102798
0.00102682
0.00102578
0.00102491
0.00102417
0.00102356
0.00102292
0.00102232
0.00102144
0.00102028
0.00101935
0.00101814
0.00101682
0.0010155
0.00101361
4.81567e-07
8.51362e-07
1.15523e-06
2.12764e-06
3.9696e-06
7.86392e-06
1.65412e-05
3.33255e-05
6.13546e-05
9.88384e-05
0.000142817
0.000187361
0.000229366
0.000267918
0.000303066
0.00033592
0.000365987
0.000395243
0.000423644
0.000452614
0.000481659
0.000511807
0.000542833
0.000575266
0.000609109
0.000644534
0.000681686
0.000720672
0.000761077
0.000803319
0.000847164
0.000892497
0.000938831
0.0009865
0.00103593
0.00108581
0.0011374
0.00119054
0.00124547
0.00130139
0.00135876
0.00141608
0.00147631
0.00153561
0.0015955
0.00165284
0.00171304
0.00177281
0.00183411
0.00189081
0.00194914
0.00200316
0.00205861
0.00210964
0.00216132
0.00220995
0.00225598
0.00230012
0.0023408
0.00237887
0.00241422
0.00244724
0.00247806
0.00250651
0.00253286
0.00255626
0.00257756
0.00259664
0.00261225
0.00262778
0.00263968
0.00264969
0.00265773
0.00266238
0.00266602
0.00266624
0.0026658
0.00266159
0.00265732
0.0026499
0.00264322
0.0026337
0.00262528
0.00261366
0.00260189
0.00258736
0.00257337
0.00255777
0.00254294
0.00252671
0.00251131
0.00249454
0.0024784
0.00246141
0.00244479
0.0024277
0.00241042
0.00239248
0.00237428
0.00235624
0.00233808
0.00232053
0.00230318
0.00228654
0.00226995
0.00225403
0.00223822
0.00222307
0.00220778
0.00219281
0.00217783
0.00216368
0.00214994
0.0021369
0.00212393
0.00211064
0.00209469
0.00207837
0.00205975
0.00204088
0.00203165
0.00201841
0.00200481
0.00199594
0.00198795
0.00197914
0.00197053
0.00196084
0.00195113
0.00194136
0.00193206
0.00192282
0.00191401
0.00190451
0.00189518
0.00188546
0.00187607
0.00186676
0.00185792
0.00184871
0.00183989
0.00183096
0.00182254
0.00181362
0.00180509
0.00179559
0.00178636
0.0017767
0.0017671
0.00175931
0.00175089
0.00174236
0.0017348
0.00172756
0.00172093
0.0017145
0.00170846
0.00170245
0.00169673
0.00169097
0.00168543
0.0016796
0.00167367
0.00166774
0.00166151
0.0016549
0.00164828
0.00164155
0.00163475
0.00162797
0.00162116
0.00161515
0.00160909
0.00160336
0.00159809
0.00159319
0.00158881
0.00158476
0.00158109
0.00157747
0.00157391
0.00157008
0.00156611
0.00156176
0.00155709
0.00155226
0.00154727
0.00154216
0.00153729
0.00153244
0.00152788
0.00152365
0.00151989
0.00151642
0.00151325
0.00151039
0.00150786
0.00150539
0.00150286
0.00150024
0.0014972
0.00149401
0.00149061
0.00148707
0.00148342
0.00147982
0.00147631
0.00147291
0.00146997
0.00146719
0.0014648
0.00146263
0.0014608
0.00145897
0.0014573
0.00145545
0.00145363
0.00145142
0.00144875
0.00144626
0.00144375
0.00144111
0.00143849
0.00143592
0.00143361
0.00143154
0.0014297
0.00142801
0.00142659
0.00142532
0.00142427
0.00142312
0.00142207
0.00142062
0.00141876
0.00141721
0.00141535
0.00141335
0.00141135
0.00140854
6.34433e-07
2.07162e-06
3.3648e-06
5.50269e-06
1.02698e-05
2.07354e-05
4.14958e-05
7.81496e-05
0.000129206
0.000188566
0.000248944
0.000305694
0.000357551
0.000404795
0.000447594
0.000486509
0.000522858
0.000557807
0.000591772
0.000626011
0.000660258
0.000695387
0.000731352
0.000768591
0.000807134
0.000847065
0.000888458
0.000931354
0.000975381
0.0010206
0.0010667
0.00111411
0.0011624
0.0012118
0.00126314
0.00131498
0.00136822
0.00142242
0.00147789
0.00153406
0.00159154
0.00164795
0.0017065
0.00176297
0.00181972
0.00187388
0.00193074
0.00198661
0.00204312
0.00209597
0.00214215
0.00217694
0.00221045
0.00224688
0.00229177
0.0023239
0.00236517
0.00240296
0.00243876
0.00247914
0.00251622
0.0025608
0.00259835
0.00264195
0.00267728
0.00271775
0.00275498
0.00279076
0.00283042
0.00286476
0.00288173
0.00289718
0.00290935
0.00291891
0.00292678
0.0029317
0.00293576
0.00293667
0.00293746
0.00293589
0.00293485
0.00293151
0.00292925
0.00292333
0.00291641
0.00290695
0.00289772
0.00288726
0.00287726
0.00286604
0.00285538
0.00284336
0.00283175
0.00281917
0.00280673
0.00279364
0.0027801
0.00276558
0.00275084
0.00273597
0.00272101
0.00270649
0.00269219
0.00267842
0.0026647
0.00265144
0.00263832
0.00262568
0.00261287
0.00260029
0.00258761
0.00257567
0.0025641
0.00255327
0.00254237
0.00253051
0.00251593
0.00250053
0.00248305
0.00246355
0.0024555
0.00244503
0.00243322
0.00242565
0.00241955
0.00241243
0.00240506
0.00239651
0.00238795
0.0023791
0.00237066
0.00236226
0.00235419
0.00234528
0.00233653
0.00232721
0.00231821
0.0023092
0.00230066
0.00229164
0.00228301
0.00227416
0.00226584
0.00225687
0.00224825
0.00223845
0.00222887
0.00221882
0.00220853
0.00220036
0.00219179
0.00218286
0.0021749
0.0021673
0.00216036
0.00215362
0.00214728
0.00214092
0.00213489
0.00212872
0.00212283
0.00211647
0.00210999
0.00210343
0.00209649
0.00208905
0.0020816
0.00207391
0.00206615
0.00205838
0.00205048
0.0020436
0.00203663
0.00203008
0.00202399
0.00201839
0.00201336
0.00200874
0.00200457
0.00200042
0.00199628
0.00199181
0.00198713
0.00198192
0.00197635
0.00197052
0.00196448
0.00195826
0.00195235
0.00194645
0.00194099
0.00193583
0.00193124
0.00192703
0.00192322
0.00191975
0.00191666
0.00191364
0.00191048
0.00190725
0.00190342
0.00189941
0.00189516
0.00189069
0.00188612
0.00188156
0.00187718
0.00187292
0.00186927
0.00186577
0.00186278
0.00186002
0.00185772
0.00185537
0.00185326
0.00185086
0.00184852
0.00184572
0.00184233
0.00183906
0.00183585
0.00183247
0.00182913
0.00182586
0.00182296
0.00182033
0.00181802
0.00181587
0.00181408
0.00181244
0.00181112
0.00180962
0.00180826
0.00180644
0.00180408
0.00180203
0.00179968
0.00179714
0.0017946
0.00179107
7.8524e-07
5.45468e-06
7.1052e-06
1.15291e-05
2.18524e-05
4.34918e-05
8.26846e-05
0.000141093
0.000209695
0.000281684
0.000351072
0.000414939
0.000473198
0.000525695
0.000572529
0.000615654
0.00065605
0.000694563
0.000731921
0.000769102
0.000806142
0.000843659
0.000881769
0.00092078
0.00096078
0.00100174
0.00104367
0.00108665
0.0011303
0.00117426
0.00121874
0.00126437
0.00131053
0.00135748
0.00140563
0.0014538
0.00150292
0.00155252
0.00160254
0.0016528
0.00170401
0.00175335
0.0017907
0.00180404
0.0018133
0.00183126
0.00185053
0.00186891
0.00188508
0.00191276
0.00194113
0.00196669
0.00200094
0.00202592
0.00208007
0.00210449
0.00213283
0.00217451
0.00219877
0.00224203
0.00226897
0.00231272
0.00234223
0.00238359
0.0024126
0.00245046
0.00248415
0.00251899
0.00255721
0.00259033
0.00262902
0.00266514
0.00269887
0.00273576
0.00276606
0.00279964
0.00283133
0.00286414
0.00289531
0.00293023
0.00295989
0.00299422
0.00301989
0.00302084
0.00302004
0.00301713
0.00301415
0.0030104
0.00300686
0.00300233
0.00299801
0.00299231
0.00298693
0.00298048
0.00297393
0.0029665
0.00295845
0.0029492
0.00293976
0.00292992
0.00292005
0.00291044
0.00290101
0.00289188
0.00288282
0.00287396
0.00286529
0.00285684
0.00284824
0.00283965
0.00283097
0.00282278
0.00281494
0.00280782
0.00280047
0.00279148
0.00278013
0.00276764
0.00275358
0.00273616
0.00273015
0.00272416
0.00271637
0.00271123
0.00270785
0.00270381
0.00269915
0.00269338
0.00268759
0.00268129
0.00267529
0.00266927
0.00266345
0.00265679
0.00265026
0.00264306
0.00263614
0.00262911
0.00262245
0.00261531
0.00260851
0.00260139
0.00259476
0.00258736
0.00258021
0.00257187
0.00256358
0.00255489
0.00254564
0.00253858
0.00253148
0.00252383
0.002517
0.00251055
0.00250474
0.00249912
0.00249386
0.00248857
0.00248359
0.00247837
0.00247343
0.00246789
0.00246225
0.00245637
0.00245008
0.0024432
0.00243625
0.00242897
0.0024216
0.00241417
0.00240648
0.0023999
0.00239329
0.00238713
0.00238134
0.00237614
0.0023715
0.00236736
0.00236362
0.00235995
0.0023562
0.00235206
0.00234764
0.00234257
0.00233708
0.00233129
0.00232518
0.00231886
0.00231283
0.00230681
0.0023013
0.00229606
0.00229148
0.00228734
0.00228364
0.0022803
0.00227733
0.00227443
0.00227135
0.00226818
0.00226427
0.00226015
0.00225575
0.00225103
0.00224621
0.00224136
0.00223678
0.00223229
0.0022285
0.00222483
0.00222176
0.00221895
0.00221666
0.0022143
0.0022122
0.00220974
0.00220731
0.00220442
0.00220081
0.00219724
0.00219378
0.00219012
0.00218651
0.00218297
0.00217989
0.0021771
0.00217468
0.00217244
0.00217062
0.00216895
0.00216768
0.00216617
0.00216478
0.00216295
0.00216044
0.00215819
0.00215567
0.00215293
0.00215016
0.00214635
1.00543e-06
9.49477e-06
1.24411e-05
2.13007e-05
4.07867e-05
7.76726e-05
0.000136889
0.000210008
0.000289085
0.000368308
0.000442625
0.000510784
0.000573056
0.000627779
0.000677434
0.000723216
0.000765943
0.000806438
0.000845458
0.000883734
0.000921585
0.000959404
0.000997372
0.00103577
0.00107472
0.00111408
0.00115379
0.00119404
0.00123437
0.00127454
0.00131461
0.00135525
0.00139571
0.00143656
0.00147821
0.00151935
0.00156073
0.00158847
0.00159625
0.00159836
0.00159821
0.00160394
0.00161027
0.00161266
0.00161419
0.00163097
0.00164714
0.00166294
0.00167949
0.00169715
0.00173556
0.001755
0.00179254
0.00180625
0.00185847
0.00187672
0.00188661
0.00192668
0.00194124
0.00197725
0.0019947
0.00203163
0.00205266
0.00208654
0.00210726
0.00213698
0.0021629
0.0021919
0.00222193
0.00225018
0.00228386
0.00231588
0.00234888
0.00238288
0.00241604
0.00244761
0.00248111
0.00251424
0.00254845
0.00258417
0.00261917
0.00265525
0.00268959
0.00272313
0.00275311
0.0027845
0.00281566
0.00284531
0.00287679
0.00290292
0.00293212
0.00295948
0.0029746
0.00297594
0.00297681
0.00297644
0.00297533
0.00297291
0.00297021
0.00296689
0.00296362
0.00296047
0.00295736
0.00295435
0.00295129
0.00294823
0.00294514
0.00294195
0.00293858
0.00293504
0.00293146
0.00292805
0.00292495
0.00292241
0.00291938
0.00291415
0.00290732
0.0028991
0.00289003
0.00287677
0.00287355
0.00287213
0.00286974
0.00286755
0.0028672
0.00286682
0.00286568
0.0028636
0.00286145
0.00285854
0.00285585
0.00285297
0.00285018
0.00284671
0.00284331
0.00283924
0.00283538
0.00283125
0.00282739
0.00282314
0.00281916
0.00281476
0.00281076
0.00280594
0.0028013
0.00279553
0.00278969
0.00278349
0.00277655
0.00277157
0.00276697
0.00276172
0.0027571
0.00275282
0.0027491
0.00274559
0.00274238
0.00273915
0.00273616
0.00273288
0.00272983
0.00272612
0.00272235
0.00271813
0.00271354
0.00270829
0.00270293
0.00269712
0.00269126
0.00268526
0.00267887
0.00267358
0.0026684
0.00266363
0.00265912
0.00265524
0.00265187
0.00264908
0.00264662
0.00264423
0.00264167
0.00263872
0.00263545
0.00263139
0.00262691
0.00262209
0.00261685
0.0026114
0.00260616
0.00260091
0.00259618
0.00259176
0.00258802
0.00258471
0.00258187
0.00257936
0.00257721
0.00257512
0.00257284
0.00257039
0.00256721
0.00256366
0.00255983
0.00255564
0.00255132
0.00254694
0.00254285
0.00253882
0.00253555
0.00253236
0.00252982
0.00252754
0.00252584
0.00252402
0.00252248
0.00252052
0.00251853
0.00251612
0.00251291
0.00250959
0.00250645
0.00250305
0.00249975
0.00249646
0.00249374
0.00249126
0.00248922
0.00248733
0.00248593
0.00248464
0.00248383
0.00248272
0.00248169
0.00248028
0.00247808
0.00247603
0.00247375
0.00247124
0.00246865
0.00246517
1.28419e-06
1.43975e-05
2.05528e-05
3.59776e-05
6.74621e-05
0.000121567
0.000195104
0.000276733
0.000362115
0.000444989
0.000521923
0.000593055
0.000656358
0.000712624
0.000763952
0.000811124
0.000854904
0.000896103
0.000935375
0.000973237
0.00101027
0.00104671
0.00108277
0.00111869
0.00115463
0.00119039
0.00122587
0.00126128
0.00129625
0.00133045
0.00136406
0.00139765
0.00143048
0.00146303
0.00146228
0.00144836
0.00143349
0.00142938
0.00142856
0.00142209
0.00141406
0.00141979
0.00142582
0.00143149
0.00143813
0.00145503
0.00148359
0.00149637
0.00151618
0.00151957
0.00156516
0.00157814
0.00160859
0.00161539
0.00164508
0.0016623
0.00165951
0.00168865
0.00169501
0.00171963
0.00173081
0.00175532
0.00177123
0.00179573
0.00181447
0.00183687
0.00185937
0.00188267
0.00190711
0.00193185
0.00195753
0.00198474
0.00200951
0.00203537
0.00206417
0.00208443
0.00211543
0.0021381
0.00217227
0.0021967
0.00223412
0.00225784
0.00229674
0.00231818
0.00235985
0.00238587
0.00242849
0.00245584
0.00249805
0.00252589
0.00256647
0.00259687
0.00263593
0.00266431
0.00270081
0.0027242
0.00275643
0.00278247
0.00281337
0.00283826
0.00286579
0.00287677
0.00288146
0.00288589
0.00288993
0.0028937
0.00289714
0.00290022
0.00290308
0.00290565
0.00290803
0.00291054
0.00291329
0.00291613
0.00291807
0.00291768
0.00291659
0.0029138
0.00291096
0.0029038
0.00290384
0.00290707
0.00291051
0.00291198
0.00291488
0.00291835
0.00292132
0.00292344
0.00292548
0.00292651
0.00292765
0.00292834
0.00292909
0.00292937
0.00292963
0.00292929
0.00292907
0.00292838
0.00292785
0.00292707
0.00292648
0.00292537
0.00292453
0.00292287
0.00292136
0.00291883
0.00291615
0.00291311
0.00290934
0.002907
0.0029055
0.00290335
0.00290161
0.00290008
0.00289904
0.00289823
0.00289765
0.00289707
0.00289667
0.00289593
0.00289535
0.00289413
0.0028929
0.00289099
0.00288883
0.00288595
0.00288291
0.00287937
0.00287579
0.00287197
0.0028677
0.00286445
0.00286146
0.00285875
0.00285627
0.00285441
0.00285297
0.00285212
0.00285154
0.00285098
0.00285027
0.00284913
0.00284768
0.00284533
0.00284259
0.00283945
0.00283591
0.00283206
0.00282835
0.00282461
0.00282144
0.00281856
0.00281628
0.00281444
0.00281308
0.00281201
0.00281127
0.00281058
0.00280969
0.00280859
0.00280677
0.00280448
0.00280187
0.00279888
0.00279576
0.00279248
0.00278956
0.00278663
0.00278452
0.0027824
0.00278097
0.00277977
0.00277921
0.00277847
0.002778
0.00277708
0.00277606
0.0027747
0.00277248
0.00276999
0.00276771
0.00276515
0.00276272
0.00276024
0.0027584
0.00275674
0.00275557
0.00275452
0.002754
0.00275354
0.0027536
0.00275334
0.0027531
0.00275257
0.00275114
0.00274972
0.00274814
0.00274632
0.00274437
0.00274187
1.60987e-06
1.94076e-05
3.14937e-05
5.59455e-05
0.000100821
0.000169814
0.000250844
0.000338003
0.000426529
0.000511025
0.000589381
0.00066156
0.000724954
0.00078208
0.000834124
0.000881718
0.000925566
0.000966376
0.0010047
0.00104091
0.00107574
0.00110943
0.00114212
0.001174
0.00120535
0.00123593
0.00126555
0.00129463
0.00132275
0.00134943
0.0013752
0.00136973
0.00133853
0.00131999
0.0013077
0.00128679
0.0012683
0.00126537
0.00126653
0.00126379
0.00125917
0.00127127
0.0012863
0.00129572
0.00130611
0.00130971
0.00135325
0.00135632
0.00137367
0.00136402
0.00139954
0.00140468
0.00141947
0.00142814
0.00143076
0.00145595
0.00145601
0.00146957
0.00147384
0.00148843
0.00150368
0.00151715
0.00153521
0.00155131
0.0015725
0.00158651
0.00160905
0.0016254
0.00164984
0.00166912
0.00169052
0.00171706
0.00173135
0.00175643
0.00177859
0.00179246
0.00182197
0.00183368
0.00186803
0.00188288
0.00191793
0.00193479
0.00196865
0.00198113
0.00201877
0.00203982
0.00207529
0.00209728
0.00213103
0.00215459
0.00218726
0.00221306
0.00224601
0.00227512
0.00230905
0.00233452
0.00236821
0.00239905
0.00243404
0.00246525
0.00249967
0.00253325
0.0025603
0.00258996
0.00261821
0.00264498
0.00266931
0.00269435
0.00271841
0.00274332
0.00276965
0.00278017
0.00279005
0.00279945
0.00280732
0.0028133
0.00281886
0.00282291
0.00282661
0.00282762
0.00283217
0.00284055
0.00284949
0.00285573
0.00286267
0.00287027
0.00287794
0.00288481
0.00289173
0.00289736
0.0029029
0.00290776
0.00291257
0.00291711
0.00292151
0.00292538
0.00292926
0.00293254
0.00293581
0.0029389
0.00294212
0.00294473
0.00294746
0.00294936
0.0029514
0.00295258
0.00295356
0.00295412
0.00295418
0.00295496
0.00295684
0.00295826
0.00295982
0.00296142
0.00296345
0.00296569
0.00296809
0.0029705
0.00297307
0.00297523
0.00297748
0.00297916
0.00298086
0.0029817
0.00298239
0.0029824
0.00298216
0.00298141
0.00298065
0.00297951
0.00297799
0.00297729
0.00297693
0.00297677
0.00297682
0.00297741
0.00297836
0.00297981
0.0029815
0.00298317
0.00298474
0.00298584
0.00298668
0.00298656
0.00298602
0.00298516
0.00298388
0.00298219
0.00298057
0.00297894
0.00297786
0.00297702
0.00297669
0.00297678
0.00297739
0.00297822
0.00297932
0.00298047
0.00298145
0.00298219
0.00298218
0.00298172
0.00298087
0.00297963
0.00297826
0.00297666
0.00297544
0.00297416
0.0029737
0.00297318
0.00297333
0.00297368
0.00297469
0.0029755
0.00297656
0.00297712
0.00297756
0.00297774
0.00297702
0.00297586
0.00297495
0.00297375
0.0029727
0.00297154
0.00297106
0.0029707
0.00297085
0.00297108
0.00297187
0.00297267
0.00297399
0.00297499
0.00297597
0.00297673
0.00297649
0.00297615
0.00297574
0.00297504
0.00297416
0.00297329
2.14589e-06
2.55561e-05
4.52029e-05
8.01643e-05
0.00013847
0.000216022
0.000301986
0.000392093
0.000481806
0.000566627
0.000645661
0.000717334
0.00078057
0.00083788
0.000889924
0.000937198
0.000980271
0.00101969
0.00105594
0.00108945
0.00112086
0.00115051
0.00117848
0.00120493
0.00123032
0.00125426
0.0012768
0.00129857
0.00131119
0.0012729
0.0012475
0.00122226
0.00118554
0.00116727
0.00115695
0.00113874
0.00112606
0.00113616
0.00113893
0.00114077
0.00114025
0.00115115
0.00118338
0.00118841
0.00119887
0.00118449
0.00122632
0.00121695
0.0012332
0.00122045
0.00123909
0.00124042
0.00124843
0.00125994
0.001246
0.00127028
0.00127772
0.00127186
0.00128139
0.0012822
0.00130183
0.00130494
0.00132531
0.00132938
0.00135349
0.00135682
0.00138315
0.00138951
0.0014205
0.00142971
0.00145548
0.00147955
0.00149093
0.0015218
0.00153235
0.00156072
0.00158161
0.00159849
0.00162879
0.00164204
0.00167207
0.00168873
0.00171285
0.00172722
0.00175528
0.00177629
0.00180058
0.00182043
0.00184176
0.00186122
0.00188153
0.00190174
0.00192322
0.00194762
0.00196961
0.00199206
0.00201697
0.0020435
0.00207236
0.0020986
0.0021297
0.00215814
0.00218684
0.00221622
0.00224566
0.0022745
0.0023037
0.00233179
0.00236227
0.00239032
0.00242335
0.00245264
0.00247652
0.00249799
0.00251248
0.00253306
0.00255715
0.00259313
0.00263411
0.00264809
0.00266025
0.00267488
0.0026897
0.00270216
0.00271454
0.00272722
0.00274048
0.00275293
0.0027655
0.00277642
0.00278732
0.00279708
0.00280671
0.00281608
0.00282539
0.00283409
0.00284288
0.00285076
0.00285853
0.00286605
0.00287367
0.00288054
0.00288742
0.00289337
0.00289949
0.00290489
0.00291009
0.00291479
0.00291926
0.00292379
0.00292928
0.00293459
0.00293988
0.00294504
0.00295046
0.00295603
0.00296172
0.00296739
0.00297319
0.00297853
0.00298393
0.00298878
0.0029937
0.00299765
0.00300148
0.00300477
0.00300769
0.00301014
0.00301257
0.0030145
0.00301618
0.00301837
0.00302097
0.00302371
0.0030266
0.00302993
0.00303356
0.00303757
0.00304178
0.00304595
0.00305006
0.00305373
0.00305716
0.00305959
0.00306166
0.00306346
0.0030648
0.00306569
0.00306659
0.00306744
0.00306888
0.00307042
0.0030724
0.00307477
0.00307766
0.00308071
0.00308396
0.00308726
0.00309044
0.00309335
0.00309551
0.0030973
0.00309864
0.00309955
0.00310035
0.00310087
0.00310178
0.00310256
0.00310413
0.00310561
0.00310772
0.00310997
0.00311288
0.00311559
0.00311854
0.00312094
0.00312325
0.00312536
0.00312654
0.00312718
0.00312804
0.00312862
0.0031294
0.00312999
0.00313126
0.00313258
0.00313444
0.00313633
0.0031388
0.00314121
0.00314414
0.00314675
0.00314931
0.00315173
0.00315307
0.00315423
0.00315538
0.00315618
0.0031568
0.00315814
2.80434e-06
3.38526e-05
6.11001e-05
0.000107269
0.000174937
0.000257994
0.0003472
0.000438445
0.000528057
0.000612326
0.000691275
0.000761746
0.000824599
0.000881601
0.00093308
0.000979343
0.00102079
0.00105787
0.00109104
0.00112071
0.00114745
0.00117171
0.0011936
0.00121331
0.00123139
0.00124758
0.00125509
0.00121983
0.00117167
0.00112496
0.00109888
0.00108078
0.00104729
0.00103967
0.00103576
0.00102129
0.00101151
0.00102984
0.00104238
0.0010523
0.00105817
0.00105444
0.00109699
0.00108677
0.00109661
0.00107407
0.00110321
0.00109133
0.00111109
0.00109996
0.00109619
0.00108738
0.00108493
0.00108661
0.00107415
0.00107344
0.00108955
0.0010724
0.00108899
0.00107362
0.00109408
0.00108377
0.00110836
0.00109748
0.00112715
0.00112012
0.00113563
0.00113893
0.00113875
0.00114377
0.00114716
0.00115413
0.00116147
0.00116788
0.00117746
0.00118542
0.00119713
0.00120859
0.0012226
0.00123537
0.00125076
0.001267
0.00128506
0.0013025
0.0013227
0.00134263
0.00136564
0.00138779
0.00141316
0.00143804
0.0014654
0.00149357
0.00152314
0.00155391
0.00158565
0.00161775
0.00165085
0.00168461
0.00171992
0.00175382
0.00178931
0.00182347
0.00185822
0.00189247
0.00192104
0.00194365
0.00196829
0.00199124
0.00201781
0.00204199
0.00207077
0.00209657
0.00211814
0.00213806
0.00215238
0.00217822
0.00220957
0.00224753
0.00228828
0.00234078
0.00237831
0.00238783
0.00240138
0.00242132
0.00243721
0.00245516
0.00247353
0.00249714
0.0025205
0.00254385
0.00256627
0.00258366
0.00260364
0.00262394
0.0026409
0.00265559
0.00267035
0.00268377
0.00269716
0.00270993
0.00272284
0.00273476
0.00274667
0.00275752
0.00276854
0.00277889
0.0027892
0.00279884
0.00280834
0.00281747
0.00282728
0.00283686
0.00284652
0.00285571
0.00286505
0.00287433
0.00288373
0.00289301
0.00290243
0.00291129
0.00292021
0.00292858
0.00293705
0.00294447
0.00295188
0.00295875
0.00296525
0.00297125
0.00297724
0.00298264
0.00298789
0.00299333
0.00299922
0.0030051
0.00301117
0.00301748
0.00302402
0.00303081
0.00303775
0.00304465
0.00305151
0.00305795
0.00306421
0.00306948
0.00307449
0.00307921
0.00308344
0.00308727
0.00309102
0.00309467
0.00309888
0.00310309
0.00310765
0.00311253
0.00311792
0.0031234
0.00312905
0.00313471
0.00314028
0.00314561
0.00315025
0.00315455
0.00315837
0.00316176
0.00316506
0.00316803
0.00317136
0.00317453