/*--------------------------------*- C++ -*----------------------------------*\
| =========                 |                                                 |
| \\      /  F ield         | OpenFOAM: The Open Source CFD Toolbox           |
|  \\    /   O peration     | Version:  2312                                  |
|   \\  /    A nd           | Website:  www.openfoam.com                      |
|    \\/     M anipulation  |                                                 |
\*---------------------------------------------------------------------------*/
FoamFile
{
    version     2.0;
    format      ascii;
    arch        "LSB;label=32;scalar=64";
    class       volScalarField;
    location    "0.005";
    object      cSound;
}
// * * * * * * * * * * * * * * * * * * * * * * * * * * * * * * * * * * * * * //

dimensions      [0 1 -1 0 0 0 0];

internalField   nonuniform List<scalar> 
48128
(
372.853
372.848
372.843
372.843
372.837
372.814
372.73
372.524
372.21
371.799
371.415
371.001
370.52
369.982
369.452
368.96
368.489
368.032
367.594
367.181
366.772
366.376
365.999
365.651
365.339
365.072
364.858
364.705
364.619
364.592
364.626
364.747
364.945
365.211
365.539
365.922
366.353
366.818
367.319
367.845
368.385
368.926
369.466
370.015
370.541
371.032
371.476
371.886
372.251
372.568
372.827
373.027
373.159
373.224
373.224
373.158
373.03
372.839
372.589
372.285
371.932
371.539
371.11
370.649
370.153
369.629
369.076
368.499
367.909
367.292
366.655
366.005
365.327
364.644
363.936
363.237
362.518
361.818
361.112
360.437
359.768
359.131
358.497
357.869
357.223
356.597
355.982
355.395
354.834
354.3
353.776
353.273
352.782
352.309
351.853
351.413
350.981
350.552
350.141
349.748
349.37
349.017
348.693
348.387
348.092
347.817
347.559
347.317
347.079
346.855
346.627
346.426
346.252
346.088
345.919
345.734
345.527
345.3
345.017
344.639
344.71
344.637
344.46
344.554
344.533
344.496
344.442
344.372
344.296
344.215
344.144
344.082
344.015
343.945
343.874
343.8
343.732
343.676
343.625
343.572
343.522
343.479
343.438
343.396
343.35
343.299
343.253
343.199
343.126
343.158
343.155
343.142
343.169
343.185
343.215
343.245
343.278
343.308
343.339
343.365
343.393
343.406
343.418
343.427
343.428
343.426
343.422
343.416
343.411
343.402
343.403
343.415
343.427
343.446
343.471
343.509
343.551
343.602
343.652
343.704
343.74
343.777
343.791
343.806
343.806
343.803
343.796
343.786
343.787
343.79
343.799
343.815
343.846
343.882
343.921
343.965
344.013
344.058
344.094
344.127
344.141
344.158
344.162
344.163
344.163
344.166
344.174
344.189
344.21
344.237
344.271
344.312
344.356
344.398
344.437
344.469
344.497
344.53
344.525
344.532
344.543
344.548
344.558
344.573
344.594
344.62
344.652
344.687
344.726
344.767
344.81
344.848
344.881
344.915
344.922
344.937
344.952
344.957
344.966
344.989
372.838
372.832
372.826
372.833
372.843
372.8
372.629
372.238
371.686
371.118
370.484
369.691
368.809
367.975
367.228
366.553
365.936
365.372
364.867
364.424
364.018
363.656
363.344
363.091
362.903
362.787
362.743
362.752
362.856
363.05
363.32
363.673
364.101
364.597
365.151
365.754
366.388
367.032
367.688
368.345
368.988
369.606
370.193
370.749
371.252
371.69
372.056
372.356
372.586
372.737
372.801
372.774
372.666
372.476
372.199
371.838
371.407
370.908
370.348
369.727
369.053
368.329
367.558
366.748
365.899
365.025
364.123
363.198
362.268
361.323
360.375
359.424
358.453
357.491
356.506
355.539
354.558
353.602
352.649
351.731
350.827
349.956
349.099
348.255
347.4
346.564
345.749
344.96
344.205
343.477
342.769
342.079
341.411
340.756
340.126
339.512
338.911
338.314
337.734
337.176
336.631
336.112
335.624
335.159
334.705
334.276
333.864
333.475
333.088
332.724
332.355
332.014
331.703
331.409
331.112
330.803
330.472
330.117
329.708
329.157
329.091
328.897
328.57
328.543
328.447
328.319
328.173
328.015
327.85
327.683
327.527
327.382
327.234
327.084
326.932
326.778
326.63
326.493
326.364
326.233
326.106
325.987
325.874
325.761
325.644
325.522
325.399
325.265
325.102
325.041
324.956
324.849
324.793
324.724
324.677
324.628
324.586
324.544
324.507
324.47
324.432
324.391
324.347
324.299
324.247
324.191
324.133
324.073
324.014
323.953
323.894
323.862
323.825
323.801
323.773
323.773
323.773
323.783
323.796
323.809
323.816
323.817
323.811
323.8
323.782
323.759
323.732
323.706
323.679
323.666
323.657
323.654
323.663
323.678
323.699
323.725
323.756
323.785
323.808
323.829
323.836
323.845
323.842
323.838
323.831
323.832
323.836
323.846
323.861
323.882
323.909
323.944
323.983
324.021
324.06
324.091
324.12
324.161
324.157
324.165
324.182
324.19
324.203
324.222
324.246
324.275
324.309
324.347
324.389
324.435
324.483
324.528
324.569
324.62
324.633
324.654
324.683
324.697
324.716
324.753
372.819
372.822
372.825
372.84
372.819
372.629
372.2
371.613
370.967
370.246
369.489
368.751
368.066
367.433
366.858
366.344
365.884
365.465
365.097
364.789
364.517
364.288
364.108
363.983
363.914
363.904
363.957
364.084
364.294
364.583
364.941
365.365
365.846
366.37
366.932
367.525
368.131
368.733
369.325
369.9
370.443
370.942
371.388
371.78
372.104
372.347
372.502
372.568
372.544
372.433
372.225
371.921
371.526
371.049
370.479
369.823
369.102
368.318
367.479
366.586
365.65
364.673
363.661
362.619
361.548
360.467
359.371
358.267
357.167
356.059
354.964
353.876
352.775
351.697
350.6
349.53
348.458
347.415
346.387
345.396
344.428
343.496
342.585
341.688
340.787
339.908
339.058
338.233
337.447
336.687
335.949
335.227
334.531
333.845
333.188
332.547
331.918
331.297
330.693
330.11
329.54
328.997
328.484
327.991
327.511
327.053
326.612
326.194
325.778
325.385
324.986
324.618
324.276
323.953
323.625
323.285
322.927
322.545
322.114
321.549
321.445
321.217
320.878
320.796
320.656
320.49
320.308
320.117
319.923
319.727
319.543
319.371
319.197
319.021
318.844
318.666
318.495
318.333
318.178
318.022
317.872
317.728
317.59
317.452
317.311
317.167
317.022
316.868
316.685
316.601
316.494
316.364
316.282
316.188
316.115
316.04
315.972
315.904
315.842
315.781
315.72
315.655
315.59
315.522
315.45
315.375
315.298
315.22
315.143
315.065
314.985
314.933
314.876
314.833
314.785
314.766
314.744
314.74
314.736
314.732
314.724
314.711
314.693
314.669
314.64
314.607
314.569
314.53
314.497
314.468
314.451
314.431
314.434
314.439
314.45
314.466
314.486
314.507
314.524
314.539
314.54
314.543
314.539
314.531
314.521
314.516
314.517
314.522
314.533
314.549
314.572
314.603
314.638
314.673
314.709
314.739
314.768
314.808
314.807
314.816
314.832
314.841
314.855
314.874
314.898
314.927
314.961
314.999
315.042
315.088
315.137
315.184
315.228
315.281
315.301
315.328
315.36
315.379
315.402
315.444
372.799
372.818
372.832
372.816
372.641
372.215
371.638
370.97
370.306
369.691
369.135
368.598
368.077
367.582
367.127
366.728
366.385
366.086
365.833
365.632
365.458
365.321
365.227
365.178
365.178
365.234
365.356
365.55
365.812
366.136
366.515
366.946
367.423
367.932
368.464
369.015
369.562
370.086
370.582
371.043
371.453
371.797
372.067
372.263
372.371
372.381
372.28
372.073
371.759
371.349
370.834
370.22
369.507
368.714
367.822
366.852
365.831
364.75
363.629
362.463
361.271
360.05
358.812
357.559
356.292
355.035
353.774
352.526
351.298
350.074
348.886
347.715
346.542
345.404
344.25
343.135
342.028
340.958
339.913
338.909
337.938
337.004
336.098
335.207
334.319
333.456
332.631
331.832
331.073
330.34
329.628
328.933
328.262
327.601
326.971
326.356
325.754
325.159
324.583
324.028
323.484
322.967
322.479
322.007
321.547
321.108
320.686
320.282
319.883
319.504
319.12
318.765
318.435
318.121
317.8
317.469
317.121
316.748
316.335
315.804
315.691
315.467
315.17
315.057
314.905
314.733
314.548
314.357
314.162
313.966
313.782
313.608
313.432
313.255
313.079
312.9
312.73
312.568
312.411
312.254
312.102
311.956
311.815
311.674
311.53
311.385
311.237
311.084
310.903
310.814
310.705
310.577
310.488
310.39
310.311
310.231
310.158
310.084
310.016
309.95
309.882
309.812
309.741
309.668
309.591
309.512
309.432
309.349
309.268
309.187
309.103
309.045
308.983
308.934
308.881
308.855
308.825
308.814
308.804
308.793
308.779
308.761
308.738
308.71
308.677
308.64
308.599
308.556
308.521
308.487
308.466
308.44
308.439
308.441
308.447
308.459
308.475
308.492
308.504
308.516
308.516
308.517
308.511
308.503
308.492
308.485
308.485
308.489
308.498
308.512
308.534
308.562
308.595
308.629
308.663
308.692
308.721
308.761
308.762
308.772
308.788
308.799
308.814
308.834
308.859
308.888
308.923
308.961
309.004
309.05
309.1
309.148
309.194
309.248
309.271
309.302
309.336
309.358
309.385
309.431
372.781
372.82
372.82
372.669
372.283
371.743
371.106
370.484
369.947
369.505
369.125
368.698
368.284
367.92
367.596
367.315
367.076
366.87
366.699
366.571
366.466
366.391
366.352
366.352
366.399
366.502
366.664
366.891
367.176
367.513
367.895
368.317
368.775
369.249
369.73
370.214
370.675
371.093
371.457
371.764
372
372.144
372.185
372.12
371.948
371.656
371.227
370.666
369.983
369.196
368.291
367.285
366.174
364.995
363.716
362.375
361.01
359.587
358.151
356.687
355.224
353.755
352.292
350.841
349.393
347.989
346.594
345.238
343.928
342.631
341.399
340.193
338.993
337.848
336.686
335.578
334.488
333.444
332.434
331.474
330.55
329.669
328.819
327.99
327.164
326.366
325.609
324.879
324.189
323.525
322.878
322.248
321.64
321.043
320.478
319.928
319.388
318.856
318.341
317.846
317.36
316.901
316.466
316.044
315.635
315.244
314.87
314.509
314.153
313.815
313.471
313.156
312.861
312.58
312.29
311.99
311.677
311.338
310.967
310.498
310.388
310.189
309.96
309.825
309.684
309.528
309.361
309.188
309.012
308.834
308.666
308.506
308.345
308.184
308.023
307.859
307.705
307.556
307.412
307.267
307.128
306.993
306.862
306.731
306.597
306.463
306.325
306.183
306.019
305.934
305.834
305.72
305.634
305.543
305.47
305.396
305.328
305.26
305.197
305.135
305.071
305.006
304.939
304.87
304.798
304.723
304.647
304.569
304.492
304.415
304.336
304.281
304.221
304.175
304.125
304.1
304.071
304.059
304.049
304.038
304.024
304.007
303.984
303.957
303.925
303.89
303.851
303.81
303.776
303.743
303.723
303.698
303.696
303.698
303.704
303.715
303.731
303.746
303.759
303.771
303.771
303.774
303.768
303.762
303.752
303.747
303.748
303.752
303.762
303.777
303.798
303.827
303.86
303.894
303.928
303.958
303.989
304.028
304.032
304.044
304.061
304.075
304.093
304.115
304.141
304.172
304.207
304.247
304.291
304.338
304.389
304.438
304.487
304.541
304.568
304.601
304.638
304.664
304.694
304.744
372.778
372.819
372.72
372.394
371.902
371.305
370.712
370.211
369.828
369.526
369.206
368.889
368.603
368.355
368.138
367.951
367.791
367.653
367.54
367.465
367.408
367.379
367.381
367.421
367.507
367.645
367.836
368.083
368.381
368.721
369.091
369.488
369.905
370.321
370.721
371.103
371.439
371.704
371.886
371.976
371.96
371.822
371.54
371.117
370.548
369.831
368.939
367.886
366.69
365.394
363.957
362.421
360.783
359.096
357.357
355.553
353.768
351.952
350.138
348.361
346.595
344.895
343.207
341.594
339.989
338.491
337.014
335.611
334.285
332.982
331.778
330.604
329.452
328.379
327.281
326.264
325.269
324.331
323.436
322.601
321.799
321.053
320.33
319.634
318.929
318.256
317.62
317.012
316.438
315.89
315.354
314.834
314.331
313.841
313.38
312.932
312.49
312.053
311.63
311.225
310.823
310.449
310.094
309.75
309.419
309.103
308.8
308.506
308.217
307.941
307.661
307.407
307.168
306.938
306.698
306.449
306.192
305.908
305.6
305.219
305.116
304.962
304.811
304.673
304.562
304.44
304.304
304.166
304.023
303.878
303.741
303.608
303.476
303.344
303.211
303.077
302.951
302.827
302.707
302.586
302.471
302.36
302.249
302.139
302.026
301.914
301.796
301.677
301.539
301.466
301.383
301.292
301.219
301.144
301.084
301.025
300.969
300.915
300.864
300.814
300.762
300.71
300.654
300.596
300.535
300.473
300.408
300.341
300.274
300.209
300.141
300.094
300.045
300.007
299.966
299.947
299.925
299.919
299.913
299.907
299.898
299.887
299.869
299.848
299.821
299.794
299.761
299.726
299.698
299.671
299.655
299.638
299.638
299.643
299.652
299.667
299.685
299.703
299.719
299.734
299.737
299.745
299.741
299.74
299.734
299.734
299.737
299.745
299.758
299.776
299.8
299.83
299.866
299.902
299.938
299.97
300.004
300.044
300.053
300.069
300.088
300.107
300.128
300.153
300.182
300.216
300.254
300.296
300.342
300.392
300.444
300.495
300.547
300.603
300.634
300.67
300.709
300.74
300.774
300.829
372.801
372.794
372.552
372.111
371.548
370.97
370.474
370.101
369.836
369.596
369.362
369.151
368.969
368.813
368.675
368.554
368.451
368.367
368.303
368.271
368.255
368.265
368.302
368.375
368.492
368.656
368.865
369.12
369.418
369.743
370.082
370.429
370.776
371.095
371.37
371.598
371.745
371.784
371.688
371.457
371.07
370.508
369.74
368.765
367.588
366.234
364.648
362.871
360.935
358.918
356.776
354.539
352.27
349.916
347.717
345.382
343.068
340.879
338.62
336.578
334.474
332.611
330.704
329.011
327.294
325.786
324.3
322.936
321.664
320.442
319.366
318.319
317.334
316.435
315.516
314.697
313.904
313.175
312.496
311.882
311.298
310.782
310.272
309.798
309.289
308.816
308.373
307.955
307.568
307.197
306.835
306.485
306.141
305.806
305.492
305.188
304.881
304.574
304.28
303.996
303.712
303.454
303.209
302.969
302.742
302.525
302.314
302.108
301.906
301.713
301.515
301.342
301.178
301.016
300.844
300.664
300.482
300.274
300.048
299.776
299.675
299.599
299.52
299.408
299.336
299.259
299.167
299.077
298.98
298.883
298.789
298.696
298.604
298.513
298.42
298.325
298.238
298.151
298.065
297.98
297.899
297.82
297.739
297.66
297.577
297.496
297.407
297.319
297.217
297.162
297.107
297.046
296.995
296.942
296.902
296.864
296.829
296.795
296.763
296.732
296.699
296.665
296.627
296.587
296.544
296.5
296.452
296.403
296.353
296.305
296.253
296.22
296.187
296.163
296.137
296.129
296.12
296.122
296.127
296.13
296.131
296.13
296.122
296.112
296.094
296.079
296.057
296.033
296.013
295.998
295.991
295.984
295.989
296.001
296.017
296.038
296.063
296.086
296.109
296.13
296.139
296.156
296.156
296.163
296.164
296.17
296.18
296.194
296.213
296.235
296.264
296.3
296.339
296.379
296.42
296.456
296.494
296.538
296.554
296.575
296.599
296.623
296.649
296.679
296.712
296.75
296.792
296.838
296.888
296.941
296.997
297.051
297.106
297.165
297.201
297.242
297.284
297.32
297.359
297.42
372.823
372.747
372.375
371.842
371.264
370.75
370.355
370.086
369.885
369.716
369.567
369.444
369.337
369.243
369.163
369.095
369.04
368.999
368.98
368.984
369.001
369.041
369.108
369.207
369.344
369.522
369.735
369.981
370.256
370.542
370.82
371.078
371.31
371.479
371.557
371.537
371.387
371.066
370.533
369.784
368.798
367.567
366.039
364.23
362.162
359.914
357.387
354.663
351.807
348.828
345.961
342.932
340.071
336.993
334.405
331.638
328.737
326.305
323.67
321.464
319.11
317.193
315.178
313.509
311.769
310.313
308.878
307.635
306.487
305.441
304.549
303.702
302.96
302.272
301.635
301.049
300.529
300.059
299.665
299.32
299.035
298.778
298.56
298.35
298.124
297.904
297.742
297.563
297.44
297.292
297.175
297.048
296.93
296.795
296.686
296.565
296.44
296.305
296.188
296.067
295.941
295.834
295.727
295.62
295.522
295.427
295.331
295.237
295.142
295.054
294.959
294.887
294.815
294.739
294.657
294.558
294.467
294.349
294.224
294.072
293.992
294.002
293.988
293.934
293.91
293.885
293.849
293.818
293.782
293.742
293.703
293.662
293.62
293.579
293.536
293.49
293.452
293.411
293.369
293.326
293.289
293.251
293.209
293.168
293.122
293.08
293.028
292.981
292.923
292.893
292.873
292.847
292.824
292.801
292.789
292.778
292.77
292.761
292.756
292.749
292.74
292.73
292.717
292.699
292.679
292.66
292.633
292.609
292.58
292.555
292.527
292.511
292.499
292.493
292.487
292.494
292.502
292.518
292.537
292.554
292.57
292.582
292.59
292.594
292.588
292.592
292.583
292.573
292.567
292.566
292.571
292.576
292.592
292.614
292.641
292.672
292.705
292.738
292.769
292.799
292.819
292.846
292.855
292.871
292.882
292.897
292.916
292.938
292.965
292.996
293.032
293.074
293.12
293.167
293.214
293.256
293.301
293.349
293.374
293.402
293.432
293.463
293.496
293.533
293.572
293.616
293.664
293.715
293.77
293.827
293.888
293.946
294.007
294.069
294.112
294.158
294.205
294.247
294.291
294.361
372.84
372.666
372.194
371.614
371.061
370.623
370.315
370.114
369.976
369.868
369.789
369.729
369.676
369.632
369.595
369.568
369.554
369.551
369.563
369.595
369.639
369.703
369.79
369.903
370.047
370.223
370.419
370.632
370.857
371.067
371.237
371.35
371.394
371.309
371.06
370.626
369.972
369.061
367.839
366.286
364.388
362.196
359.605
356.69
353.497
350.097
346.622
342.875
339.152
335.127
331.766
328.055
324.759
321.16
318.219
315.201
311.921
309.407
306.593
304.395
302.037
300.194
298.295
296.763
295.206
293.905
292.672
291.622
290.684
289.883
289.181
288.593
288.062
287.582
287.236
286.807
286.585
286.279
286.186
286.01
286.03
285.934
286.026
285.955
286.065
286.026
286.178
286.188
286.351
286.399
286.551
286.631
286.776
286.848
286.992
287.059
287.172
287.239
287.335
287.407
287.473
287.551
287.603
287.659
287.715
287.769
287.813
287.859
287.893
287.94
287.97
288.019
288.052
288.092
288.106
288.098
288.109
288.099
288.104
288.064
288.047
288.121
288.191
288.213
288.243
288.274
288.315
288.348
288.391
288.413
288.441
288.457
288.473
288.488
288.507
288.517
288.538
288.547
288.558
288.565
288.58
288.589
288.594
288.596
288.597
288.6
288.593
288.594
288.584
288.589
288.605
288.621
288.635
288.649
288.668
288.689
288.714
288.736
288.762
288.783
288.806
288.822
288.84
288.851
288.856
288.87
288.868
288.872
288.871
288.874
288.872
288.879
288.891
288.909
288.926
288.952
288.981
289.015
289.052
289.087
289.121
289.151
289.177
289.198
289.212
289.234
289.242
289.251
289.263
289.279
289.3
289.321
289.35
289.385
289.426
289.469
289.514
289.559
289.602
289.644
289.676
289.715
289.738
289.765
289.788
289.815
289.846
289.879
289.916
289.957
290.002
290.053
290.108
290.163
290.219
290.269
290.322
290.376
290.414
290.45
290.488
290.528
290.569
290.614
290.662
290.713
290.767
290.826
290.887
290.951
291.017
291.081
291.148
291.214
291.266
291.318
291.371
291.421
291.472
291.55
372.818
372.552
372.019
371.432
370.929
370.559
370.321
370.18
370.089
370.035
370.006
369.988
369.977
369.971
369.969
369.974
369.988
370.014
370.052
370.103
370.165
370.243
370.338
370.451
370.584
370.736
370.89
371.036
371.167
371.246
371.231
371.088
370.79
370.276
369.485
368.384
366.942
365.156
362.938
360.271
357.146
353.743
349.972
345.861
341.57
336.878
332.758
328.125
323.819
318.907
315.322
311.196
307.739
304.02
300.823
297.942
294.737
292.275
289.618
287.55
285.563
283.871
282.354
281.008
279.835
278.719
277.856
276.994
276.385
275.803
275.311
275.018
274.598
274.367
274.223
273.896
273.951
273.679
273.859
273.735
273.969
273.954
274.222
274.219
274.518
274.602
274.919
275.061
275.378
275.572
275.876
276.106
276.405
276.647
276.95
277.185
277.467
277.713
277.987
278.234
278.481
278.738
278.957
279.183
279.407
279.622
279.822
280.02
280.203
280.393
280.571
280.753
280.906
281.065
281.191
281.29
281.407
281.526
281.674
281.755
281.826
281.977
282.138
282.236
282.343
282.443
282.56
282.668
282.791
282.886
282.986
283.068
283.151
283.23
283.316
283.391
283.473
283.541
283.611
283.676
283.746
283.808
283.867
283.918
283.971
284.023
284.071
284.123
284.164
284.212
284.27
284.331
284.389
284.443
284.5
284.558
284.618
284.676
284.738
284.792
284.849
284.898
284.95
284.993
285.032
285.078
285.108
285.143
285.175
285.208
285.238
285.272
285.312
285.356
285.4
285.45
285.503
285.559
285.617
285.672
285.727
285.779
285.827
285.868
285.905
285.947
285.979
286.008
286.041
286.076
286.116
286.156
286.201
286.253
286.309
286.368
286.428
286.487
286.545
286.6
286.647
286.701
286.739
286.78
286.819
286.86
286.904
286.951
287.001
287.054
287.111
287.172
287.237
287.303
287.368
287.429
287.492
287.554
287.607
287.652
287.701
287.751
287.802
287.856
287.913
287.973
288.036
288.103
288.172
288.244
288.317
288.389
288.462
288.535
288.598
288.656
288.715
288.775
288.834
288.923
372.745
372.428
371.867
371.295
370.847
370.536
370.356
370.266
370.214
370.2
370.204
370.217
370.236
370.257
370.282
370.311
370.347
370.391
370.444
370.505
370.574
370.653
370.742
370.836
370.937
371.036
371.108
371.136
371.092
370.93
370.589
370.008
369.145
367.949
366.339
364.259
361.705
358.805
355.312
351.349
346.913
342.131
337.447
332.273
327.135
321.274
316.834
311.616
307.162
301.919
298.352
294.094
290.817
287.309
284.202
281.647
278.962
276.6
274.566
272.669
271.303
269.807
268.873
267.662
267.046
266.032
265.689
264.904
264.747
264.247
264.055
263.964
263.622
263.672
263.5
263.455
263.556
263.375
263.684
263.564
263.898
263.9
264.239
264.241
264.616
264.732
265.102
265.282
265.644
265.877
266.233
266.506
266.866
267.169
267.54
267.846
268.211
268.548
268.919
269.268
269.627
269.992
270.331
270.678
271.022
271.357
271.68
271.997
272.306
272.614
272.92
273.226
273.492
273.761
273.986
274.203
274.435
274.69
274.97
275.215
275.398
275.624
275.864
276.044
276.229
276.41
276.604
276.796
276.998
277.175
277.351
277.504
277.66
277.812
277.967
278.113
278.263
278.394
278.528
278.656
278.787
278.907
279.024
279.13
279.24
279.347
279.451
279.558
279.656
279.754
279.858
279.965
280.07
280.168
280.267
280.365
280.466
280.563
280.663
280.754
280.848
280.934
281.024
281.103
281.179
281.26
281.327
281.396
281.463
281.531
281.594
281.66
281.731
281.805
281.878
281.956
282.035
282.116
282.197
282.277
282.355
282.43
282.503
282.567
282.631
282.696
282.753
282.807
282.862
282.92
282.981
283.043
283.108
283.178
283.253
283.329
283.405
283.48
283.555
283.627
283.691
283.762
283.817
283.875
283.931
283.989
284.048
284.11
284.175
284.243
284.312
284.387
284.464
284.541
284.619
284.691
284.765
284.838
284.907
284.964
285.023
285.085
285.148
285.214
285.282
285.352
285.425
285.502
285.58
285.661
285.743
285.822
285.904
285.983
286.06
286.126
286.193
286.262
286.329
286.431
372.629
372.299
371.735
371.192
370.794
370.544
370.414
370.36
370.339
370.349
370.378
370.414
370.453
370.494
370.535
370.579
370.628
370.682
370.74
370.8
370.864
370.93
370.993
371.046
371.079
371.082
371.007
370.816
370.46
369.877
368.997
367.74
366.033
363.872
361.149
357.805
353.877
349.719
344.961
339.766
334.221
328.059
322.861
316.804
311.268
304.766
300.271
294.824
290.659
285.64
282.272
278.167
275.376
272.172
269.699
267.299
265.466
263.347
262.167
260.429
259.832
258.44
258.217
257.042
257.088
256.124
256.35
255.61
255.933
255.422
255.672
255.505
255.525
255.677
255.466
255.778
255.689
255.83
256.1
255.973
256.371
256.312
256.681
256.642
257.041
257.11
257.472
257.594
257.938
258.103
258.441
258.646
258.991
259.243
259.6
259.871
260.229
260.548
260.919
261.275
261.652
262.033
262.407
262.792
263.175
263.556
263.935
264.309
264.687
265.063
265.443
265.822
266.161
266.51
266.802
267.116
267.447
267.809
268.194
268.573
268.882
269.164
269.471
269.735
269.993
270.249
270.518
270.787
271.067
271.322
271.579
271.805
272.036
272.262
272.491
272.71
272.932
273.131
273.334
273.528
273.724
273.903
274.082
274.248
274.416
274.583
274.745
274.91
275.068
275.217
275.37
275.526
275.681
275.826
275.97
276.111
276.254
276.394
276.535
276.666
276.8
276.926
277.055
277.172
277.288
277.408
277.513
277.621
277.725
277.83
277.929
278.03
278.133
278.24
278.345
278.453
278.562
278.668
278.776
278.882
278.986
279.087
279.187
279.277
279.369
279.458
279.545
279.624
279.706
279.788
279.873
279.958
280.045
280.136
280.23
280.326
280.421
280.514
280.607
280.697
280.781
280.87
280.944
281.021
281.096
281.172
281.25
281.329
281.41
281.493
281.578
281.667
281.757
281.848
281.939
282.025
282.112
282.197
282.283
282.353
282.426
282.501
282.577
282.656
282.735
282.818
282.902
282.989
283.079
283.169
283.26
283.349
283.44
283.529
283.619
283.693
283.77
283.849
283.927
284.042
372.489
372.161
371.611
371.108
370.762
370.567
370.483
370.453
370.452
370.482
370.528
370.579
370.631
370.681
370.731
370.782
370.833
370.886
370.939
370.988
371.031
371.064
371.078
371.053
370.969
370.788
370.445
369.878
369.009
367.773
366.102
363.893
361.035
357.66
353.641
348.984
343.66
338.04
332.434
326.193
319.881
312.602
307.131
300.534
295.107
288.636
284.253
278.884
275.249
270.758
267.748
264.118
262.002
259.114
257.604
255.226
254.501
252.613
252.353
250.781
250.91
249.658
250.043
249.028
249.613
248.808
249.482
248.89
249.581
249.144
249.771
249.453
250.002
249.969
250.153
250.527
250.339
250.814
250.932
250.974
251.423
251.26
251.686
251.619
252.039
252.037
252.39
252.428
252.743
252.803
253.095
253.182
253.471
253.596
253.883
254.032
254.313
254.513
254.8
255.05
255.343
255.638
255.941
256.258
256.576
256.909
257.249
257.599
257.959
258.328
258.706
259.085
259.431
259.801
260.107
260.459
260.841
261.255
261.694
262.136
262.519
262.833
263.181
263.508
263.825
264.143
264.471
264.803
265.145
265.466
265.791
266.084
266.383
266.675
266.972
267.26
267.551
267.816
268.085
268.343
268.603
268.842
269.082
269.307
269.533
269.759
269.98
270.203
270.419
270.622
270.825
271.031
271.237
271.431
271.621
271.807
271.995
272.177
272.362
272.534
272.711
272.877
273.048
273.205
273.363
273.523
273.668
273.817
273.96
274.104
274.241
274.378
274.517
274.658
274.796
274.936
275.076
275.21
275.346
275.479
275.611
275.74
275.868
275.986
276.108
276.225
276.341
276.449
276.558
276.668
276.778
276.888
276.998
277.111
277.227
277.344
277.459
277.572
277.684
277.795
277.899
278.009
278.104
278.201
278.297
278.393
278.49
278.588
278.686
278.787
278.889
278.993
279.098
279.204
279.31
279.409
279.511
279.61
279.713
279.798
279.886
279.976
280.066
280.159
280.252
280.347
280.444
280.543
280.644
280.745
280.847
280.947
281.048
281.147
281.25
281.335
281.422
281.513
281.602
281.733
372.346
372.013
371.488
371.037
370.752
370.604
370.553
370.538
370.554
370.598
370.655
370.713
370.769
370.822
370.872
370.92
370.965
371.007
371.042
371.066
371.07
371.044
370.969
370.803
370.502
369.997
369.207
368.056
366.432
364.278
361.568
358.143
353.907
349.152
343.998
338.154
331.602
324.392
318.352
311.248
304.638
296.809
291.204
284.412
279.426
273.428
269.394
264.487
261.381
257.643
255.065
252.345
250.716
248.382
247.69
245.493
245.713
244.066
244.571
243.251
243.934
242.931
243.81
242.998
244.033
243.44
244.513
244.081
245.099
244.762
245.684
245.391
246.248
246.035
246.735
246.897
247.041
247.654
247.52
247.968
248.374
248.153
248.657
248.609
249.047
249.007
249.401
249.396
249.722
249.719
249.999
250.013
250.273
250.302
250.542
250.581
250.806
250.886
251.094
251.209
251.399
251.555
251.736
251.929
252.108
252.311
252.52
252.746
252.99
253.248
253.52
253.792
254.054
254.327
254.558
254.851
255.192
255.569
255.978
256.407
256.797
257.092
257.418
257.75
258.085
258.424
258.776
259.134
259.505
259.862
260.227
260.564
260.906
261.244
261.587
261.924
262.263
262.579
262.899
263.207
263.518
263.807
264.098
264.375
264.652
264.931
265.206
265.484
265.755
266.012
266.264
266.517
266.771
267.015
267.252
267.483
267.714
267.94
268.168
268.382
268.601
268.809
269.022
269.219
269.418
269.618
269.805
269.996
270.178
270.361
270.539
270.713
270.887
271.064
271.236
271.409
271.581
271.744
271.909
272.071
272.232
272.39
272.547
272.695
272.848
272.993
273.14
273.278
273.416
273.554
273.691
273.827
273.962
274.099
274.238
274.376
274.512
274.646
274.779
274.911
275.038
275.169
275.286
275.405
275.523
275.64
275.758
275.875
275.993
276.112
276.232
276.353
276.474
276.595
276.716
276.832
276.949
277.064
277.183
277.286
277.39
277.495
277.601
277.709
277.816
277.925
278.035
278.148
278.262
278.374
278.488
278.599
278.711
278.822
278.938
279.035
279.134
279.236
279.337
279.485
372.214
371.862
371.371
370.977
370.755
370.647
370.617
370.615
370.645
370.698
370.759
370.817
370.871
370.919
370.962
370.998
371.026
371.046
371.05
371.029
370.967
370.838
370.597
370.177
369.51
368.487
367.023
365.053
362.432
359.105
355.154
350.47
344.848
338.552
332.576
325.66
318.189
309.626
303.262
295.497
288.979
281.199
275.724
269.22
264.896
259.716
256.265
252.094
249.503
246.604
244.436
242.815
241.197
239.994
239.475
238.011
238.712
237.342
238.311
237.382
238.562
237.788
239.133
238.552
239.988
239.525
240.954
240.608
241.936
241.625
242.834
242.573
243.669
243.446
244.431
244.301
245.006
245.587
245.466
246.058
246.423
246.285
246.881
246.847
247.317
247.286
247.742
247.735
248.102
248.082
248.386
248.381
248.644
248.633
248.866
248.861
249.078
249.106
249.286
249.331
249.485
249.546
249.666
249.785
249.863
249.975
250.072
250.189
250.319
250.456
250.602
250.731
250.852
250.951
251.032
251.197
251.412
251.657
251.932
252.225
252.526
252.711
252.933
253.178
253.44
253.718
254.016
254.325
254.656
254.979
255.32
255.649
255.984
256.317
256.66
257
257.344
257.675
258.008
258.335
258.667
258.981
259.298
259.606
259.916
260.231
260.547
260.867
261.179
261.481
261.774
262.066
262.358
262.645
262.925
263.197
263.468
263.734
264.001
264.254
264.513
264.759
265.01
265.245
265.485
265.723
265.951
266.181
266.402
266.625
266.841
267.054
267.263
267.474
267.681
267.887
268.09
268.282
268.477
268.668
268.858
269.045
269.232
269.411
269.594
269.769
269.946
270.116
270.284
270.451
270.614
270.777
270.938
271.1
271.262
271.422
271.58
271.735
271.89
272.044
272.194
272.346
272.487
272.629
272.77
272.909
273.049
273.187
273.324
273.463
273.602
273.739
273.877
274.014
274.152
274.285
274.418
274.55
274.685
274.808
274.927
275.049
275.172
275.295
275.418
275.542
275.666
275.793
275.92
276.045
276.17
276.294
276.418
276.542
276.671
276.78
276.893
277.008
277.121
277.286
372.095
371.719
371.267
370.934
370.764
370.692
370.676
370.687
370.726
370.782
370.841
370.895
370.94
370.976
371.001
371.017
371.018
371.003
370.958
370.863
370.683
370.366
369.835
368.995
367.766
365.995
363.632
360.632
356.83
352.147
346.752
341.118
334.253
326.241
319.576
311.637
303.683
294.344
287.644
279.573
273.525
266.413
261.516
255.875
252.239
248.034
245.11
241.761
239.654
237.476
236.016
235.118
233.703
233.983
232.941
233.485
233.461
232.726
234.139
233.286
234.988
234.273
236.069
235.48
237.27
236.833
238.544
238.199
239.79
239.488
240.943
240.665
241.963
241.731
242.896
242.755
243.71
244.058
244.243
244.921
245.08
245.258
245.912