/*--------------------------------*- C++ -*----------------------------------*\
| =========                 |                                                 |
| \\      /  F ield         | OpenFOAM: The Open Source CFD Toolbox           |
|  \\    /   O peration     | Version:  2312                                  |
|   \\  /    A nd           | Website:  www.openfoam.com                      |
|    \\/     M anipulation  |                                                 |
\*---------------------------------------------------------------------------*/
FoamFile
{
    version     2.0;
    format      ascii;
    arch        "LSB;label=32;scalar=64";
    class       volScalarField;
    location    "0.005";
    object      k;
}
// * * * * * * * * * * * * * * * * * * * * * * * * * * * * * * * * * * * * * //

dimensions      [0 2 -2 0 0 0 0];

internalField   nonuniform List<scalar> 
48128
(
0.530457
1.40343
1.98773
1.86283
1.80457
1.52392
1.29292
13.7062
63.0962
156.564
261.287
362.866
458.558
547.277
629.778
707.415
781.567
853.108
922.655
990.935
1058.47
1125.18
1191.01
1256.04
1320.36
1384.22
1447.92
1511.85
1576.28
1642.13
1707.5
1772.22
1836.91
1901.61
1966.19
2031.38
2101.91
2172.88
2245.79
2318.08
2390.69
2464.14
2541.36
2615.26
2685.05
2746.3
2810.22
2867.18
2914.13
2939.32
2961.19
2963.56
2969.31
2958.7
2969.58
3032.16
3076.9
3116.29
3141.14
3158.69
3167.69
3169.35
3166.65
3159.25
3148.83
3133.56
3115.17
3093.09
3064.47
3033.99
3001.91
2968.98
2936.97
2903.49
2870.99
2836.93
2803.6
2769.04
2734.89
2699.6
2665.63
2630.61
2598.19
2565.51
2536.41
2506.81
2479.27
2451.34
2425.29
2398.99
2374.85
2350.69
2328.44
2306.67
2286.35
2266.8
2248.44
2231.16
2214.59
2199.22
2184.5
2170.89
2157.74
2145.4
2133.63
2122.6
2112.12
2102.16
2092.76
2083.76
2075.48
2067.83
2060.51
2053.37
2046.77
2040.26
2033.66
2027.71
2020.44
2020.81
2019.04
2014.31
2011.88
2008.4
2004.12
1999.49
1994.78
1990.14
1985.9
1982.4
1979.33
1976.52
1973.89
1971.3
1968.89
1966.72
1964.84
1963.17
1961.51
1959.85
1958.32
1956.93
1955.52
1954.13
1952.77
1951.42
1950.1
1948.46
1948.33
1947.57
1946.14
1944.77
1943.14
1941.39
1939.46
1937.39
1935.2
1932.95
1930.66
1928.38
1926.07
1923.88
1921.8
1919.9
1918.05
1916.34
1914.9
1913.6
1912.53
1911.42
1910.76
1910.03
1909.19
1908.25
1907.23
1906.05
1904.7
1903.13
1901.34
1899.37
1897.33
1895.29
1893.4
1891.68
1890.27
1889.09
1888.14
1887.43
1886.9
1886.34
1885.72
1885.05
1884.22
1883.17
1881.91
1880.47
1878.84
1877.05
1875.25
1873.35
1871.79
1870.26
1869.12
1868.13
1867.41
1866.76
1866.1
1865.39
1864.59
1863.66
1862.55
1861.27
1859.78
1858.16
1856.45
1854.72
1853.18
1851.37
1850.08
1849.23
1848.32
1847.51
1846.75
1845.95
1845.09
1844.1
1842.94
1841.65
1840.22
1838.68
1837.01
1835.28
1833.64
1831.75
1830.32
1829.27
1828.12
1827.23
1826.35
1825.08
3.42993
1.66282
0.818648
0.697149
1.43052
4.71867
16.087
51.2293
122.788
229.902
353.287
479.473
609.769
740.95
873.175
1006.32
1142
1281.83
1427.43
1580.94
1741.86
1913.01
2093.07
2284.19
2485.49
2698.15
2921.55
3157.73
3401.78
3662.81
3933.57
4209.4
4491.03
4777.6
5062.88
5341.66
5626.02
5913.54
6203.12
6488.98
6769.55
7044.16
7317.23
7572.11
7805.71
8012.39
8220.28
8415.59
8596.1
8718.65
8831.55
8897.22
8956.88
8978.94
8984.01
8984.66
8956.06
8902.79
8825.45
8729.86
8617.51
8491.75
8355.99
8211.61
8061.98
7905.06
7743.88
7578.6
7410.51
7248.62
7084.78
6919.45
6756.55
6591.65
6430.72
6268.93
6111.16
5953.99
5800.78
5649.06
5503.01
5359.39
5222.07
5088.45
4961.04
4836.41
4716.58
4599.75
4487.99
4379.73
4276.61
4177.17
4082.26
3991.25
3904.42
3821.17
3741.51
3665.07
3591.4
3521.22
3453.62
3389.76
3328.34
3270.64
3215.23
3163.12
3113.19
3066.07
3020.94
2977.94
2936.81
2897.89
2860.96
2826.11
2792.74
2760.68
2728.31
2696.32
2662.9
2631.66
2608.24
2583.38
2557.49
2538.8
2519.94
2501.82
2484.81
2467.93
2451.3
2435.18
2419.78
2405.03
2390.76
2376.78
2362.97
2349.56
2336.46
2323.98
2312.04
2300.47
2289.28
2278.56
2268.34
2258.31
2248.61
2238.79
2228.85
2218.77
2208.45
2199.95
2191.36
2182.6
2175.03
2167.77
2161.09
2154.88
2149.01
2143.41
2138.16
2132.99
2128.12
2123.16
2118.22
2113.34
2108.38
2103.36
2098.34
2093.36
2088.46
2083.56
2078.79
2074.52
2070.61
2066.64
2063.39
2060.2
2057.5
2055.14
2052.98
2050.98
2048.95
2046.82
2044.48
2041.87
2039.03
2035.99
2032.81
2029.6
2026.29
2023.3
2020.3
2017.76
2015.53
2013.55
2011.79
2010.26
2008.99
2007.79
2006.51
2005.09
2003.42
2001.57
1999.5
1997.24
1994.86
1992.48
1990.16
1987.94
1986.01
1984.22
1982.72
1981.46
1980.43
1979.46
1978.48
1977.4
1976.23
1974.78
1972.99
1971.18
1969.31
1967.37
1965.43
1963.53
1961.79
1960.28
1958.92
1957.73
1956.69
1955.82
1955
1954.17
1953.25
1952.08
1950.63
1949.12
1947.47
1945.68
1943.81
1941.27
6.91011
3.8471
2.03821
2.59969
9.39009
27.8272
72.1237
161.765
309.538
508.566
738.714
977.131
1216.6
1453.71
1687.03
1916.46
2143.86
2371.58
2602.43
2841.27
3086.38
3342.63
3608.43
3886.34
4176.08
4479.07
4795.06
5125.65
5463.71
5813.68
6173.13
6541.72
6916.24
7296
7682.86
8069.48
8456.29
8843.71
9233.54
9618.97
9993.7
10350.7
10703.3
11033.6
11338.2
11595.4
11843.4
12068.1
12275.3
12406.9
12513.1
12561.1
12589.1
12570.7
12522.4
12448.6
12339.7
12204.1
12042.8
11861.3
11660.5
11444.5
11217.6
10981.5
10740.2
10492.4
10241.1
9987.53
9729.79
9478.03
9223.84
8970.38
8721.7
8474.4
8233.61
7997.07
7766.17
7540.45
7320.78
7106.58
6899.79
6698.98
6506.02
6319.08
6139.48
5965.39
5797.83
5635.6
5480.16
5330.18
5187.05
5049.24
4917.54
4791.33
4670.64
4554.83
4443.66
4336.86
4233.86
4135.35
4040.46
3950.27
3863.32
3781.15
3701.96
3627.06
3554.84
3486.49
3420.55
3357.67
3297.08
3239.62
3184.39
3132.22
3081.77
3033.62
2985.06
2938.07
2890.16
2842.81
2804.77
2765.68
2725.19
2691.73
2660.45
2630.21
2601.49
2573.29
2545.77
2519.15
2493.47
2468.76
2444.95
2421.62
2398.84
2376.57
2354.94
2333.95
2313.8
2294.12
2275.13
2256.65
2238.97
2221.59
2204.85
2188.11
2171.75
2155.58
2139.22
2124.73
2110.33
2095.72
2082.43
2069.57
2057.53
2046.01
2035.06
2024.49
2014.41
2004.6
1995.19
1985.86
1976.7
1967.74
1958.8
1949.86
1940.98
1932.25
1923.56
1915.09
1906.57
1898.86
1891.27
1884.04
1877.17
1870.76
1864.86
1859.4
1854.25
1849.44
1844.72
1840.03
1835.28
1830.43
1825.48
1820.42
1815.27
1810.08
1804.93
1799.97
1795.17
1790.68
1786.52
1782.66
1779.08
1775.79
1772.81
1770.04
1767.3
1764.52
1761.61
1758.57
1755.39
1752.1
1748.71
1745.33
1742
1738.78
1735.79
1732.99
1730.43
1728.16
1726.18
1724.29
1722.52
1720.73
1718.89
1716.96
1714.69
1712.37
1710.08
1707.69
1705.26
1702.89
1700.65
1698.58
1696.7
1694.99
1693.46
1692.14
1690.95
1689.81
1688.63
1687.38
1685.82
1684.2
1682.51
1680.67
1678.71
1676
10.3196
6.79425
5.25714
12.5015
35.7278
86.0965
189.466
369.604
628.786
940.318
1270.46
1590.59
1896.84
2190.49
2473.42
2749.23
3022.13
3295.03
3570.67
3855.19
4147.46
4451.84
4768.54
5100.1
5447.65
5811.6
6191.28
6587.72
6996.02
7417.26
7852.11
8301.72
8760.26
9225.25
9704.31
10184.9
10660.2
11129.4
11599.3
12064.9
12517.1
12935.9
13342.4
13718.7
14067
14350.7
14608.4
14830.1
15024.4
15136.4
15205.4
15207.2
15176.6
15094.4
14969.8
14809
14611.4
14387.1
14138.4
13870.5
13584.8
13285.9
12978.3
12663.4
12345.5
12024.1
11701.8
11382.3
11060.5
10748.5
10435.6
10127.8
9825.77
9529.89
9241.11
8961.79
8688.8
8425.19
8169.12
7921.89
7683.04
7452.95
7231.27
7016.69
6809.34
6609.72
6417.5
6232.8
6055.57
5885.4
5722.59
5566.27
5416.56
5273.29
5135.87
5004.03
4877.16
4755.07
4637.53
4524.75
4416.3
4312.83
4213.17
4118.59
4027.44
3940.76
3857.14
3777.71
3700.95
3627.63
3556.78
3489.45
3424.47
3363.07
3303.44
3246.49
3189.07
3133.83
3077.92
3021.03
2975.53
2929.19
2880.96
2839.82
2801.52
2764.26
2728.46
2693.42
2659.3
2626.27
2594.34
2563.62
2534.02
2505.02
2476.77
2449.14
2422.29
2396.18
2371.06
2346.47
2322.7
2299.49
2277.19
2255.29
2234.16
2213.09
2192.55
2172.41
2152.04
2133.63
2115.52
2097.16
2080.13
2063.58
2047.9
2032.77
2018.28
2004.25
1990.75
1977.61
1964.98
1952.51
1940.29
1928.36
1916.56
1904.83
1893.25
1881.88
1870.6
1859.63
1848.55
1838.44
1828.31
1818.71
1809.35
1800.58
1792.24
1784.4
1777.03
1769.95
1763.13
1756.4
1749.74
1743.03
1736.35
1729.63
1722.91
1716.12
1709.58
1703.07
1696.91
1690.85
1685.23
1679.91
1674.89
1670.16
1665.76
1661.59
1657.56
1653.55
1649.49
1645.36
1641.19
1636.97
1632.71
1628.48
1624.3
1620.24
1616.44
1612.78
1609.39
1606.23
1603.36
1600.62
1598.05
1595.49
1592.98
1590.44
1587.66
1584.82
1582.06
1579.23
1576.37
1573.56
1570.88
1568.35
1566
1563.8
1561.78
1559.97
1558.31
1556.75
1555.21
1553.64
1551.86
1550.05
1548.19
1546.22
1544.13
1541.22
13.6059
13.0416
16.0899
37.028
87.4433
188.8
375.028
658.942
1017.35
1391.01
1750.78
2095.6
2428.42
2750.51
3063.92
3371.5
3676.98
3983.07
4292.87
4612.92
4943.33
5287.96
5648.76
6028.67
6428.67
6848.76
7289.17
7751.15
8230.54
8724.64
9234.7
9765.15
10309
10856.6
11420.7
11990.9
12550.9
13092.9
13629.1
14158
14672
15135.8
15571.6
15964.1
16322.2
16600.6
16829.9
17007.3
17138.8
17186.9
17173.3
17095.1
16963.7
16780.1
16542.4
16265.7
15959.6
15629.7
15283.7
14921.9
14557
14185
13810.1
13431.7
13054.8
12680
12308.4
11944.4
11583.7
11236.1
10890.3
10555.2
10225.7
9907.8
9596.27
9299.16
9008.32
8730.5
8460.92
8202.97
7953.81
7715.36
7485.42
7263.38
7047.97
6842.04
6643.43
6454.2
6272.05
6098.12
5931.15
5771.3
5617.77
5470.99
5329.62
5194.05
5063.26
4937.29
4816.07
4699.46
4587.5
4480.26
4377.04
4278.73
4183.99
4093.41
4006.09
3922.81
3842.33
3765.33
3690.78
3619.7
3550.89
3485.93
3422.57
3361.93
3300.86
3242.17
3182.85
3121.3
3072.44
3023.25
2971.99
2927.13
2885.3
2844.51
2805.01
2766.44
2728.88
2692.44
2657.1
2623.11
2590.29
2558.16
2526.88
2496.28
2466.49
2437.51
2409.57
2382.22
2355.73
2329.81
2304.88
2280.39
2256.7
2233.17
2210.17
2187.71
2164.95
2144.17
2123.97
2103.5
2084.24
2065.54
2047.68
2030.42
2013.79
1997.65
1982.07
1966.86
1952.23
1937.75
1923.62
1909.78
1896.15
1882.63
1869.31
1856.26
1843.32
1830.74
1818.02
1806.36
1794.61
1783.48
1772.5
1762.18
1752.24
1742.81
1733.89
1725.27
1716.97
1708.78
1700.78
1692.7
1684.79
1676.84
1668.97
1661.01
1653.42
1645.79
1638.61
1631.45
1624.72
1618.35
1612.31
1606.53
1601.09
1595.86
1590.84
1585.85
1580.9
1575.85
1570.92
1565.93
1560.95
1556.01
1551.18
1546.47
1542.03
1537.7
1533.64
1529.81
1526.24
1522.82
1519.58
1516.39
1513.29
1510.23
1506.98
1503.67
1500.49
1497.25
1494.01
1490.83
1487.78
1484.88
1482.14
1479.55
1477.13
1474.91
1472.86
1470.9
1469.02
1467.15
1465.11
1463.05
1461.02
1458.89
1456.65
1453.52
16.8253
27.9782
37.806
78.8591
168.316
337.321
612.577
979.86
1370.04
1750.36
2119.92
2478.97
2828.8
3170.29
3505.46
3836.97
4167.96
4501.05
4839.83
5190.41
5554.53
5935.96
6337.7
6762.58
7212.43
7687.39
8187.42
8715.43
9267.05
9834.67
10419.4
11029
11657
12283.9
12923.2
13573.3
14210.4
14812.8
15394.7
15959.5
16505.3
16980.9
17409.2
17776.9
18091.5
18307.8
18443
18508
18497
18415.1
18250.6
18039.6
17769.3
17458
17081.1
16672
16254.9
15816.7
15376.7
14927.9
14484.1
14036.8
13596.2
13164.2
12738.1
12326.5
11925.7
11538.7
11167.3
10811
10466.9
10141.1
9819.01
9517.16
9217.26
8938.17
8662.78
8404.67
8152.49
7915.75
7685.06
7467.24
7256.02
7051.13
6850.45
6660.24
6475.11
6300.66
6131.09
5970.52
5815.27
5667.1
5524.06
5387.72
5255.43
5128.65
5005.76
4887.29
4773.02
4662.74
4556.89
4454.94
4356.8
4262.93
4172.4
4085.35
4001.47
3921.04
3843.29
3768.56
3696.11
3626.65
3559.2
3495.57
3433.18
3373.26
3313.09
3255.19
3196.66
3135.12
3086.09
3037.51
2987.34
2941.63
2899.06
2857.84
2817.64
2778.52
2740.27
2703.05
2666.82
2631.92
2598.11
2565.08
2532.89
2501.39
2470.66
2440.74
2411.8
2383.52
2356.02
2329.12
2303.17
2277.65
2252.93
2228.42
2204.43
2181.02
2157.24
2135.38
2114.29
2092.94
2072.63
2052.94
2034.02
2015.74
1998.04
1980.87
1964.23
1947.96
1932.28
1916.76
1901.63
1886.75
1872.16
1857.67
1843.42
1829.44
1815.6
1802.14
1788.51
1775.95
1763.29
1751.32
1739.39
1728.18
1717.25
1706.92
1696.99
1687.46
1678.2
1669.08
1660.21
1651.23
1642.54
1633.78
1625.16
1616.44
1608.15
1599.78
1591.9
1584.01
1576.58
1569.52
1562.77
1556.27
1550.1
1544.15
1538.4
1532.74
1527.12
1521.43
1515.92
1510.36
1504.85
1499.41
1494.11
1488.92
1483.99
1479.18
1474.62
1470.3
1466.22
1462.31
1458.56
1454.9
1451.32
1447.86
1444.23
1440.54
1437.02
1433.46
1429.92
1426.45
1423.13
1419.95
1416.92
1414.03
1411.3
1408.76
1406.4
1404.13
1401.95
1399.84
1397.59
1395.3
1393.1
1390.82
1388.45
1385.15
21.5231
51.4386
70.6416
139.571
279.407
520.941
868.168
1259.19
1646.79
2027.14
2399.55
2765.12
3124.58
3478.85
3829.85
4179.67
4530.81
4886.46
5250.11
5627.14
6021.38
6436.31
6875.3
7341.93
7839.71
8368.14
8926.06
9518.75
10141.6
10782.4
11439.3
12122.2
12829.4
13528.3
14228.2
14937.1
15632.4
16272.7
16869.1
17427.9
17952.9
18375.6
18724.3
18986.1
19159.9
19231.5
19200.8
19091.2
18886.9
18617.1
18243.2
17807.4
17297.9
16767.4
16189.1
15588.1
15022.7
14451.7
13892.7
13362.2
12843.9
12363
11884
11446.1
11006.9
10608
10225.5
9866.82
9538.39
9222.64
8933.62
8664.01
8400.03
8163.59
7923.92
7710.12
7493.85
7299.6
7104.56
6929.94
6754.02
6594.57
6434.77
6284.12
6131.69
5990.49
5848.1
5716.81
5585.35
5462.58
5341.32
5226.22
5112.11
5002.69
4893.96
4789.84
4687.62
4588.85
4492.7
4399.39
4309.62
4222.59
4138.83
4058.22
3980.3
3904.73
3831.78
3761.18
3692.92
3626.73
3562.53
3500.37
3439.86
3382.61
3326.03
3271.57
3217.21
3164.76
3111.53
3055.16
3008.97
2964.23
2918.85
2875.44
2834.93
2796.39
2758.4
2721.69
2685.39
2650.01
2615.34
2581.89
2549.31
2517.65
2486.62
2456.33
2426.62
2397.67
2369.51
2342.1
2315.29
2289.06
2263.66
2238.66
2214.42
2190.4
2166.85
2143.85
2120.44
2098.71
2077.87
2056.83
2036.62
2017.02
1998.07
1979.8
1962
1944.8
1927.99
1911.61
1895.73
1880.04
1864.78
1849.65
1834.92
1820.22
1805.8
1791.6
1777.58
1763.9
1750.01
1737.19
1724.27
1712.05
1699.77
1688.26
1676.93
1666.25
1655.86
1645.94
1636.2
1626.68
1617.37
1607.97
1598.92
1589.77
1580.8
1571.75
1563.09
1554.37
1546.11
1537.88
1530.11
1522.65
1515.5
1508.58
1501.99
1495.62
1489.44
1483.39
1477.37
1471.34
1465.42
1459.56
1453.73
1447.99
1442.4
1436.91
1431.68
1426.57
1421.69
1417.07
1412.66
1408.43
1404.35
1400.39
1396.49
1392.76
1388.89
1384.95
1381.18
1377.42
1373.69
1370.04
1366.54
1363.17
1359.95
1356.86
1353.93
1351.17
1348.59
1346.12
1343.72
1341.45
1339.04
1336.59
1334.27
1331.89
1329.43
1326.01
27.4229
82.3889
116.066
219.718
414.667
718.314
1095.17
1478.92
1859.8
2234.89
2604.92
2971.17
3334.49
3696.27
4057.87
4420.85
4787.47
5161.15
5545.37
5944.61
6364.81
6809.12
7281.81
7787.08
8330.16
8910.24
9523.3
10176.9
10868.4
11579.5
12304
13049.7
13823.3
14579.5
15317.6
16050.4
16761.1
17388.3
17939
18416.3
18831.3
19114.3
19295
19352.5
19289.8
19118.1
18770.6
18311.1
17741
17140.1
16444.5
15728.9
14970.1
14217
13487.9
12770.6
12070.9
11455.3
10831.3
10301.9
9764.67
9316.49
8861.3
8484.07
8104.35
7786.6
7480.91
7209.32
6965.74
6734.5
6536.54
6349.12
6175.52
6024.82
5870.74
5743.82
5613.58
5506.91
5397.17
5306.33
5212.28
5132.41
5049.15
4974.75
4896.61
4825.88
4752.14
4685.18
4616.28
4552.18
4487.04
4423.36
4357.97
4293.17
4226.85
4162.18
4096.91
4032.8
3969.25
3906.13
3845.27
3784.12
3724.56
3665.95
3608.57
3551.87
3496.79
3442.43
3389.84
3337.95
3287.49
3237.91
3189.99
3143.74
3097.94
3053.71
3010.12
2967.59
2923.93
2877.87
2837.11
2799.67
2762
2724.38
2688.8
2655.88
2622.85
2591.32
2559.53
2528.65
2497.97
2468.35
2439.3
2411.31
2383.53
2356.58
2329.81
2303.78
2278.21
2253.46
2229.02
2205.15
2181.81
2158.93
2136.63
2114.58
2092.88
2071.59
2049.97
2029.55
2010.13
1990.61
1971.63
1953.16
1935.18
1917.96
1900.98
1884.71
1868.61
1853.07
1837.77
1822.84
1808.22
1793.63
1779.56
1765.38
1751.52
1737.84
1724.32
1711.07
1697.62
1685.12
1672.6
1660.66
1648.68
1637.37
1626.23
1615.67
1605.37
1595.51
1585.79
1576.36
1567.06
1557.74
1548.71
1539.6
1530.7
1521.72
1513.04
1504.37
1496.09
1487.9
1480.07
1472.53
1465.29
1458.27
1451.54
1445.06
1438.74
1432.58
1426.44
1420.36
1414.28
1408.36
1402.44
1396.61
1390.93
1385.36
1380.02
1374.81
1369.8
1365.05
1360.5
1356.14
1351.89
1347.81
1343.75
1339.92
1335.94
1331.91
1328.01
1324.19
1320.39
1316.68
1313.1
1309.66
1306.35
1303.19
1300.15
1297.29
1294.59
1292.02
1289.51
1287.17
1284.68
1282.14
1279.77
1277.36
1274.86
1271.43
34.3294
118.86
173.548
315.829
561.336
903.017
1274.87
1647.94
2018.08
2384.08
2747.53
3109.81
3472.36
3836.78
4203.87
4575
4952.44
5339.39
5739.4
6156.34
6597.68
7067.7
7570.96
8111.39
8696.79
9326.38
9990.96
10700.7
11455.5
12230.6
13013.6
13804.8
14618
15398.6
16131
16829.7
17483.4
18005
18422.2
18723.2
18931.5
18940.4
18774.7
18451.2
17962
17383.4
16629.9
15782.5
14858
13947.6
13019.9
12143.7
11283.2
10505.4
9787.32
9137.35
8473.45
7938.83
7390.74
6955.14
6508.8
6158.9
5802.48
5526.14
5245.74
5024.59
4808.67
4630.89
4468.58
4323.43
4203.93
4089.75
3993.91
3909.81
3828.77
3766.34
3702.57
3657.99
3611.25
3579.18
3545.88
3522.43
3497.38
3479.05
3458.87
3443.22
3425.82
3411.38
3395.8
3381.05
3365.58
3350.05
3333.62
3316.82
3298.61
3279.52
3259.24
3238
3215.76
3192.51
3168.79
3143.77
3117.39
3089.6
3060.68
3030.85
3000.5
2969.7
2939.03
2908.11
2877.46
2846.23
2815.69
2785.03
2754.71
2724.91
2696.02
2666.74
2636.06
2603.78
2572.51
2544.83
2516.79
2488.42
2460.82
2435.62
2410.38
2386.21
2361.7
2337.65
2313.41
2289.88
2266.61
2244.23
2221.82
2200.05
2178.2
2156.9
2135.77
2115.31
2094.92
2075.01
2055.27
2036.01
2017.05
1998.42
1979.9
1961.65
1943.18
1925.33
1908.4
1891.56
1874.89
1858.64
1842.68
1827.44
1812.29
1797.81
1783.37
1769.46
1755.67
1742.28
1729.07
1715.91
1703.12
1690.33
1677.69
1665.28
1652.92
1640.78
1628.48
1616.89
1605.34
1594.27
1583.16
1572.6
1562.15
1552.22
1542.49
1533.19
1523.99
1515.1
1506.26
1497.54
1488.88
1480.32
1471.87
1463.35
1455.06
1446.8
1438.89
1431.04
1423.49
1416.2
1409.19
1402.38
1395.82
1389.52
1383.34
1377.36
1371.37
1365.49
1359.57
1353.79
1348.04
1342.36
1336.82
1331.37
1326.14
1321.04
1316.09
1311.4
1306.89
1302.58
1298.36
1294.32
1290.29
1286.52
1282.58
1278.61
1274.75
1270.99
1267.26
1263.61
1260.09
1256.7
1253.42
1250.29
1247.28
1244.42
1241.71
1239.15
1236.63
1234.32
1231.84
1229.32
1226.99
1224.62
1222.17
1218.82
45.797
159.138
239.818
420.766
706.473
1053.2
1413.21
1772.77
2129.16
2483.08
2836.53
3191
3548.54
3910.97
4278.86
4653.34
5036.7
5432.06
5842.77
6273.13
6731.58
7224.16
7755.32
8327.82
8952.49
9628.83
10342.7
11102.2
11909.3
12735.2
13556.2
14358.3
15169.5
15917.9
16560.3
17140.8
17648.3
17972.2
18104.2
18049.2
17841.7
17477.6
16860.1
16093.3
15169.6
14195.1
13153.2
12074.5
11076.4
10090
9219.39
8411.5
7654.02
6999.45
6372.89
5863.96
5337.97
4927.82
4510.89
4194.26
3874.47
3633.96
3390.52
3209.18
3025.34
2887.77
2751.23
2647.85
2550.38
2471.85
2405.52
2346.8
2302.1
2260.49
2230.4
2205.04
2184.06
2172.93
2162.05
2159.59
2160.2
2163.81
2169.52
2178.32
2188.68
2201.13
2213.84
2227.58
2240.51
2253.77
2266.11
2279.31
2292.11
2305.67
2317.44
2329.21
2339.75
2349.32
2358.36
2364.9
2371.29
2375.02
2377.74
2377.99
2377.25
2375.29
2372.05
2367.53
2361.97
2355.39
2348.04
2339.43
2329.89
2319.13
2307.6
2295.69
2283.85
2271.38
2257.77
2241.57
2223.96
2207.8
2191.46
2174.77
2157.96
2142.3
2126.96
2111.93
2096.61
2081.08
2065.26
2049.59
2033.91
2018.64
2003.33
1988.27
1973.06
1958
1942.91
1928.13
1913.28
1898.65
1884
1869.6
1855.32
1841.31
1827.23
1813.27
1799.12
1785.12
1771.7
1758.51
1745.23
1732.22
1719.31
1706.91
1694.54
1682.68
1670.8
1659.31
1647.88
1636.79
1625.76
1614.82
1604.02
1593.36
1582.65
1572.17
1561.66
1551.29
1540.79
1530.73
1520.74
1511.09
1501.38
1492.11
1482.87
1474.07
1465.4
1457.14
1448.93
1441.05
1433.13
1425.41
1417.61
1410.01
1402.41
1394.75
1387.26
1379.78
1372.58
1365.43
1358.49
1351.78
1345.32
1339.03
1332.94
1327.1
1321.38
1315.85
1310.29
1304.86
1299.39
1294.02
1288.69
1283.4
1278.23
1273.14
1268.22
1263.43
1258.76
1254.31
1250.03
1245.96
1241.97
1238.13
1234.33
1230.77
1227.05
1223.31
1219.65
1216.11
1212.59
1209.14
1205.8
1202.59
1199.47
1196.49
1193.61
1190.88
1188.28
1185.84
1183.44
1181.24
1178.89
1176.49
1174.28
1172.05
1169.75
1166.6
60.0251
201.3
310.354
526.85
829.33
1170.29
1515.37
1858.74
2199.24
2538.62
2879.18
3222.27
3571.28
3927.78
4292.14
4665.34
5049.73
5448.76
5866.01
6306.39
6778.84
7291.7
7849.36
8452.23
9113.34
9834.3
10594.8
11391.9
12229
13083.2
13907.7
14654.7
15394.7
16041.1
16516.2
16837.1
17030.3
16994.6
16749.1
16293.6
15627.7
14840
13836.4
12731
11600.4
10466.5
9460.7
8433.2
7561.07
6675.11
5959.91
5301.39
4710.3
4221.92
3749.68
3392.92
3033.4
2755.5
2485.86
2280.88
2085.58
1937.83
1795.39
1688.71
1584.55
1508.11
1431.04
1376.48
1320.87
1282.11
1243.2
1216.14
1193.74
1172.92
1162.38
1150.22
1147.32
1145.26
1146.79
1151.25
1158.1
1168.04
1180.36
1195.55
1212.55
1231.76
1252.03
1273.8
1296.21
1319.81
1343.75
1368.88
1394.19
1420.66
1446.42
1472.95
1498.74
1524.75
1550.56
1574.47
1598.35
1619.64
1640.9
1660.46
1679.33
1696.18
1712.21
1726.08
1739.6
1750.79
1761.9
1770.57
1778.17
1784.2
1789.27
1794.24
1799.46
1803.87
1808.5
1809.1
1807.74
1805.45
1802.38
1798.4
1793.8
1789.06
1784.28
1779.57
1774.43
1768.88
1762.71
1756.18
1749.41
1742.55
1735.51
1728.29
1720.76
1712.96
1704.94
1696.79
1688.45
1680.03
1671.48
1662.86
1654.29
1645.77
1637.14
1628.41
1619.43
1610.31
1601.4
1592.58
1583.62
1574.66
1565.61
1556.85
1548.04
1539.53
1530.93
1522.6
1514.22
1506.12
1497.95
1489.88
1481.83
1473.86
1465.81
1457.83
1449.82
1441.8
1433.68
1425.76
1417.87
1410.17
1402.4
1394.91
1387.38
1380.19
1373.05
1366.28
1359.51
1353.05
1346.53
1340.16
1333.72
1327.44
1321.11
1314.72
1308.4
1302.08
1295.95
1289.84
1283.85
1278.05
1272.45
1266.98
1261.67
1256.58
1251.6
1246.8
1241.96
1237.24
1232.48
1227.79
1223.12
1218.47
1213.91
1209.41
1205.03
1200.77
1196.58
1192.58
1188.73
1185.08
1181.49
1178.05
1174.65
1171.47
1168.16
1164.82
1161.52
1158.35
1155.19
1152.09
1149.08
1146.18
1143.34
1140.65
1138.03
1135.55
1133.19
1130.97
1128.8
1126.83
1124.71
1122.56
1120.57
1118.58
1116.5
1113.69
75.1496
243.997
381.23
620.945
928.167
1257.31
1585.87
1910.95
2233.55
2555.82
2881.24
3212.84
3551.78
3899.42
4256.37
4623.74
5004.36
5402.61
5822.83
6270.37
6754.45
7286.32
7871
8505.07
9200.88
9958.94
10756.8
11577.4
12412.6
13241.6
14019.3
14658.9
15224.1
15648.1
15815.7
15767.1
15570.1
15206.1
14554
13702.5
12658.6
11553.1
10426.5
9265.22
8214.34
7137.64
6278.64
5412.72
4733.6
4055.2
3535.24
3057.66
2661.3
2334.15
2037.27
1809.4
1600.29
1436.42
1285.18
1170.93
1064.31
985.096
910.289
855.111
801.802
763.061
724.144
696.451
668.189
648.359
627.496
614.673
601.205
591.741
584.992
577.589
575.736
573.201
573.812
575.532
578.207
582.812
589.083
597.316
606.922
618.243
630.718
644.699
659.721
676.246
693.806
712.976
733.18
754.95
777.615
801.593
826.353
852.268
878.835
905.986
933.555
961.013
988.831
1015.73
1042.91
1068.75
1094.63
1118.75
1143.05
1165.26
1187.5
1207.56
1226.67
1244.63
1262.63
1280.62
1298.81
1316.53
1333.42
1348.77
1360.25
1369.58
1377.99
1385.41
1391.37
1397.13
1402.19
1407.48
1411.81
1416.15
1419.37
1422.2
1424.39
1426.62
1428.24
1429.83
1430.64
1430.62
1430.27
1429.57
1428.41
1426.88
1425.03
1422.92
1420.64
1418.21
1415.57
1412.7
1409.41
1405.8
1402.01
1398.07
1393.9
1389.51
1384.93
1380.27
1375.54
1370.87
1366.09
1361.39
1356.61
1351.94
1347.21
1342.46
1337.69
1332.88
1327.99
1323.03
1317.98
1312.83
1307.55
1302.24
1296.92
1291.62
1286.25
1280.95
1275.58
1270.41
1265.23
1260.34
1255.42
1250.74
1246.01
1241.37
1236.67
1232.06
1227.38
1222.64
1217.86
1213.04
1208.32
1203.57
1198.88
1194.29
1189.83
1185.49
1181.25
1177.19
1173.22
1169.41
1165.57
1161.81
1158.02
1154.27
1150.51
1146.75
1143.03
1139.34
1135.73
1132.21
1128.72
1125.37
1122.14
1119.09
1116.11
1113.24
1110.43
1107.79
1105.07
1102.3
1099.54
1096.89
1094.25
1091.65
1089.1
1086.65
1084.25
1081.97
1079.74
1077.62
1075.62
1073.75
1071.93
1070.29
1068.53
1066.75
1065.07
1063.42
1061.67
1059.34
90.3162
282.187
444.323
698.093
1002.62
1317.23
1628.22
1933.47
2236.57
2544.25
2855.62
3172.03
3496.67
3831.37
4176.96
4534.64
4908.02
5302.95
5724.76
6179.3
6675.59
7227.79
7842.65
8508.79
9233.07
10022.9
10843.3
11656.5
12447.9
13192.2
13848.5
14279.6
14570.8
14680.8
14504.3
14112.2
13525.6
12812.6
11838.1
10724.2
9556.3
8357.41
7313.38
6254.91
5387.77
4511.79
3842.82
3207.72
2730.91
2287.48
1954.51
1652.37
1422.06
1227.63
1064.93
938.874
829.351
746.288
672.683
617.731
567.895
531.164
496.767
471.418
446.697
428.322
409.845
396.006
381.994
371.425
360.425
352.676
344.271
338.861
333.065
328.51
325.229
321.445
319.575
318.242
316.786
316.865
317.431
318.831
320.9
323.845
327.427
331.833
336.876
342.785
349.417
357.037
365.48
375.033
385.502
397.146
409.729
423.523
438.298
454.23
471.138
489.053
507.957
527.6
548.092
569.292
591.188
613.602
636.476
659.572
682.919
706.193
729.235
752.365
776.135
800.415
825.029
849.844
873.647
896.91
916.547
933.943
950.109
965.934
980.343
994.728
1008.12
1021.75
1034.35
1047.08
1058.56
1069.77
1079.87
1090.04
1099.25
1108.4
1116.63
1124.36
1131.22
1137.83
1143.66
1149.07
1153.94
1158.57
1162.7
1166.83
1170.42
1173.87
1176.48
1178.53
1180.01
1181.28
1182.06
1182.52
1182.47
1182.29
1181.89
1181.38
1180.69
1179.92
1179.03
1178.12
1177.07
1175.96
1174.74
1173.42
1171.94
1170.31
1168.52
1166.55
1164.37
1162.03
1159.56
1157
1154.32
1151.55
1148.66
1145.8
1142.89
1140.16
1137.39
1134.77
1132.14
1129.51
1126.84
1124.19
1121.46
1118.64
1115.72
1112.72
1109.68
1106.59
1103.47
1100.37
1097.32
1094.34
1091.44
1088.65
1085.94
1083.36
1080.76
1078.21
1075.62
1073.04
1070.42
1067.77
1065.12
1062.46
1059.83
1057.25
1054.65
1052.16
1049.74
1047.48
1045.28
1043.17
1041.11
1039.19
1037.21
1035.19
1033.14
1031.16
1029.18
1027.23
1025.3
1023.44
1021.6
1019.87
1018.15
1016.54
1015.02
1013.61
1012.26
1011.06
1009.78
1008.47
1007.23
1006.01
1004.7
1003
103.907
313.061
496.078
756.72
1053.99
1352.73
1644.85
1931.47
2219.7
2509.48
2802.79
3101.65
3409.66
3729.01
4060.81
4406.58
4770.94
5161.74
5585.71
6049.81
6562.54
7137.91
7782.91
8485.88
9236.62
10042.4
10862.6
11632.2
12317.2
12900.2
13364.3
13510.8
13461.3
13282
12796
12076.8
11159.3
10123.3
8999.14
7820.92
6734.41
5628.68
4745.24
3900.83
3247.93
2632.78
2175.24
1772.82
1477.48
1225.18
1038.81
875.473
760.875
659.244
583.975
522.057
472.375
435.556
404.162
380.412
358.805
342.223
326.098
313.63
301.116
291.289
281.289
273.231
265.017
258.298
251.346
245.713
239.832
235.333
230.384
226.999
223.565
219.993
217.167
214.589
212.133
210.309
208.437
207.356
206.247
205.831
205.437
205.543
205.82
206.418
207.305
208.587
210.223
212.32
214.837
217.889
221.394
225.463
230.039
235.237
240.999
247.433
254.544
262.292
270.771
279.996
290.034
300.895
312.57
325.042
338.3
352.361
367.241
383.111
400.289
418.712
438.167
458.453
479.316
500.662
520.931
540.087
558.654
577.408
595.577
613.945
631.804
649.933
667.558
685.489
702.547
719.697
735.681
751.788
766.87
781.832
795.963
809.986
823.015
835.884
847.92
859.549
870.512
881.254
891.287
901.272
910.523
919.462
927.564
935.057
941.709
948.073
953.753
959.165
963.783
968.262
972.149
976.073
979.509
983.003
986.096
989.212
991.928
994.621
997.026
999.366
1001.4
1003.27
1004.86
1006.26
1007.34
1008.15
1008.71
1009.13
1009.27
1009.19
1008.95
1008.62
1008.19
1007.78
1007.34
1006.96
1006.57
1006.16
1005.71
1005.2
1004.63
1003.92
1003.06
1002.05
1000.93
999.679
998.336
996.925
995.493
994.065
992.683
991.368
990.11
988.949
987.77
986.614
985.416
984.186
982.899
981.551
980.148
978.703
977.235
975.758
974.247
972.778
971.337
970.033
968.781
967.58
966.426
965.383
964.31
963.171
961.989
960.834
959.669
958.496
957.321
956.191
955.052
953.989
952.915
951.922
950.998
950.175
949.408
948.763
948.066
947.337
946.637
945.969
945.187
944.256
116.276
336.727
535.49
797.664
1083.96
1366.09
1641.36
1913.91
2183.42
2453.2
2726.9
3006.87
3296.82
3599.45
3916.46
4249.78
4605.3
4993.39
5423.08
5902.9
6436.55
7039.57
7723.16
8466.43
9234.32
10036.1
10823.2
11498.1
12016.8
12377.2
12576.2
12428.3
12074.6
11580.9
10809
9833.96
8682.45
7452.36
6346.16
5257.4
4350.8
3470.84
2811.82
2230.52
1804.99
1440.86
1177.08
961.151
802.349
677.141
582.413
504.711
450.948
401.41
369.348
339.518
319.447
302.992
288.486
277.48
266.183
256.786
247.128
239.359
231.283
224.727
218.02
212.47
206.718
201.791
196.704
192.389
187.921
184.23
180.331
177.397
174.402
171.561
169.081
166.58
164.229
162.252
160.22
158.555
156.851
155.544
154.208
153.172
152.099
151.294
150.46
149.92
149.394
149.106
148.958
149.045
149.257
149.649
150.208
150.976
151.934
153.134
154.574
156.243
158.188
160.419
162.985
165.905
169.198
172.879
176.984
181.558
186.665
192.437
199.022
206.452
214.721
223.791
233.616
244.091
254.975
266.136
277.718
289.821
302.443
315.64
329.353
343.673
358.53
374.051
390.016
406.415
423.033
439.942
456.899
474.075
490.988
508.069
524.549
541.087
557.092
572.896
588.174
603.326
617.873
632.31
646.08
659.473
672.176
684.427
695.734
706.753
716.906
726.895
735.897
744.788
752.788
760.843
768.174
775.571
782.37
789.244
795.632
802.057
808.076
814.077
819.675
825.119
830.197
835.05
839.524
843.651
847.428
850.93
854.027
856.816
859.209
861.518
863.573
865.649
867.619
869.606
871.588
873.515
875.393
877.159
878.879
880.405
881.727
882.776
883.712
884.399
884.96
885.333
885.657
885.915
886.183
886.464
886.785
887.157
887.521
887.903
888.196
888.458
888.626
888.688
888.654
888.553
888.381
888.152
887.852
887.535
887.21
886.983
886.796
886.637
886.514
886.471
886.418
886.283
886.09
885.881
885.647
885.379
885.086
884.791
884.476
884.184
883.873
883.608
883.389
883.255
883.171
883.185
883.168
883.12
883.069
883.054
882.872
882.882
126.382
351.825
562.298
821.74
1094.41
1362.31
1624.78
1880.25
2130.48
2379.7
2632.87
2893.24
3164.51
3450.16
3752.91
4075.3
4424.59
4814.44
5254.99
5756.43
6324.06
6967.93
7696.47
8484.28
9253.45
10021.8
10731.3
11252.4
11542.9
11622.6
11544.8
11151.8
10473.4
9636.31
8592.37
7419.12
6218.82
5006.45
4055.6
3195.03
2546.51
1976.61
1565.07
1229.45
991.76
803.773
669.423
562.91
482.616
420.922
371.871
334.607
306.133
282.903
267.705
253.436
244.272
234.587
226.501
218.852
210.969
204.31
197.466
191.72
185.927
181.171
176.277
172.141
167.878
164.279
160.563
157.395
154.144
151.412
148.591
146.28
143.861
141.916
140.02
138.031
136.129
134.552
132.932
131.447
129.934
128.696
127.443
126.36
125.254
124.285