/*--------------------------------*- C++ -*----------------------------------*\
| =========                 |                                                 |
| \\      /  F ield         | OpenFOAM: The Open Source CFD Toolbox           |
|  \\    /   O peration     | Version:  2312                                  |
|   \\  /    A nd           | Website:  www.openfoam.com                      |
|    \\/     M anipulation  |                                                 |
\*---------------------------------------------------------------------------*/
FoamFile
{
    version     2.0;
    format      ascii;
    arch        "LSB;label=32;scalar=64";
    class       volScalarField;
    location    "0.005";
    object      nut;
}
// * * * * * * * * * * * * * * * * * * * * * * * * * * * * * * * * * * * * * //

dimensions      [0 2 -1 0 0 0 0];

internalField   nonuniform List<scalar> 
48128
(
2.52654e-07
6.6835e-07
9.45693e-07
8.85996e-07
8.57972e-07
7.24079e-07
6.13742e-07
6.48745e-06
2.9631e-05
7.25612e-05
0.000119061
0.000162561
0.000202263
0.000238174
0.000270964
0.000301493
0.000330424
0.000358219
0.000385307
0.000412061
0.000438672
0.000465228
0.0004918
0.000518532
0.000545571
0.000573127
0.000601366
0.000630576
0.000660931
0.000692811
0.0007255
0.000758926
0.000793364
0.000828813
0.000865162
0.00090259
0.00094252
0.000983234
0.00102509
0.00106697
0.00110914
0.00115152
0.00119527
0.00123736
0.00127779
0.00131464
0.00135205
0.00138633
0.00141691
0.00143959
0.00146071
0.0014748
0.0014894
0.00149794
0.0015127
0.00154261
0.00156615
0.00158724
0.00160319
0.00161629
0.00162622
0.00163341
0.0016388
0.00164232
0.00164453
0.00164488
0.00164395
0.0016416
0.00156304
0.00147622
0.00139824
0.00132844
0.0012649
0.00120717
0.00115395
0.0011053
0.00106018
0.00101877
0.000980351
0.00094505
0.000912573
0.000882406
0.000854872
0.000828821
0.000804836
0.000782098
0.00076126
0.000741549
0.00072361
0.000706584
0.000690958
0.000676039
0.000662316
0.000649276
0.000637225
0.00062587
0.000615208
0.00060513
0.00059562
0.000586841
0.000578515
0.00057089
0.000563769
0.000557172
0.000550891
0.000545091
0.000539622
0.000534528
0.000529649
0.00052507
0.000520689
0.000516717
0.00051307
0.000509604
0.000506274
0.000502893
0.000499361
0.000495889
0.000491766
0.000488729
0.000488227
0.000486206
0.000483932
0.000483227
0.000481798
0.000480113
0.000478308
0.00047644
0.000474637
0.000472996
0.000471528
0.000470185
0.000468871
0.000467552
0.000466272
0.000465043
0.00046392
0.000462915
0.00046195
0.00046098
0.000460061
0.000459216
0.000458393
0.000457569
0.000456733
0.000455876
0.000455035
0.000454075
0.000453302
0.000452984
0.000452378
0.000451655
0.000451162
0.000450563
0.000450023
0.000449443
0.000448859
0.000448256
0.000447662
0.000447064
0.000446455
0.00044583
0.000445219
0.000444631
0.000444031
0.00044344
0.000442899
0.00044238
0.000441921
0.000441442
0.000441072
0.000440822
0.000440523
0.000440253
0.000439979
0.000439769
0.000439527
0.000439295
0.000439019
0.000438696
0.000438312
0.000437898
0.000437473
0.000437037
0.000436642
0.000436277
0.000435942
0.000435657
0.000435437
0.000435254
0.000435099
0.000434947
0.000434838
0.000434708
0.00043455
0.000434377
0.000434184
0.000433946
0.00043366
0.000433344
0.000433017
0.000432705
0.000432425
0.000432171
0.000431962
0.000431806
0.000431669
0.000431552
0.000431444
0.000431335
0.000431224
0.000431105
0.000430961
0.000430777
0.000430569
0.000430316
0.000430093
0.000429846
0.000429505
0.000429339
0.000429189
0.000429025
0.000428896
0.000428787
0.00042869
0.000428593
0.000428486
0.000428363
0.00042823
0.000428087
0.000427925
0.000427725
0.000427525
0.000427298
0.000427007
0.000426847
0.000426684
0.000426516
0.00042638
0.000426229
4.55367e-06
3.75557e-06
2.14325e-06
1.76842e-06
3.37764e-06
7.80127e-06
2.0168e-05
5.59182e-05
0.000126866
0.000241904
0.000397497
0.000571575
0.000765473
0.00097007
0.00117969
0.00139034
0.00160219
0.00181708
0.00203793
0.00226863
0.00250874
0.00276426
0.00303353
0.00332025
0.00362315
0.00394346
0.00427869
0.00463227
0.00499402
0.00539541
0.00581629
0.00623741
0.00666362
0.00709634
0.00751956
0.00786751
0.00822518
0.00858078
0.00893387
0.00927183
0.00959675
0.00990897
0.0102183
0.0104938
0.010737
0.0109401
0.0111485
0.0113408
0.0115218
0.011635
0.0117499
0.0118112
0.011875
0.0118926
0.0118815
0.011853
0.0117856
0.011703
0.0116018
0.0114849
0.011355
0.011216
0.011071
0.0109203
0.0107678
0.010609
0.0104482
0.0102841
0.0101236
0.00997751
0.00983061
0.00968236
0.00953692
0.00938678
0.0092411
0.0090896
0.00894274
0.00879077
0.00864305
0.00849089
0.00834566
0.00819768
0.00805781
0.00791948
0.00778961
0.00765661
0.00752962
0.00740031
0.00727757
0.00715462
0.00703875
0.00692352
0.00681409
0.00670657
0.00660333
0.00650271
0.00640577
0.00631189
0.0062194
0.00613059
0.00604335
0.00595987
0.00587797
0.00580064
0.00572484
0.00565325
0.00558308
0.00551681
0.00545207
0.00539012
0.00533016
0.00527244
0.0052169
0.00516374
0.00511276
0.00506421
0.00501451
0.00496566
0.00491437
0.00487077
0.00482658
0.00478146
0.00473849
0.00470302
0.00466861
0.00463597
0.00460564
0.00457555
0.00454604
0.00451749
0.00449001
0.00446328
0.00443751
0.00441201
0.00438689
0.00436236
0.00433819
0.00431487
0.00429239
0.0042704
0.00424896
0.00422819
0.00420822
0.00418851
0.00416949
0.00414851
0.0041225
0.00409758
0.00407303
0.00404292
0.00401651
0.00399045
0.0039623
0.00393677
0.00391168
0.00388763
0.00386477
0.00384254
0.00382153
0.0038015
0.00378191
0.00376417
0.00374667
0.0037298
0.00371336
0.00369748
0.00368185
0.00366649
0.00365149
0.00363686
0.00362181
0.0036069
0.00359251
0.00357879
0.00356452
0.00355173
0.0035385
0.00352669
0.00351504
0.00350404
0.00349393
0.00348464
0.00347587
0.00346814
0.0034604
0.00345262
0.00344489
0.00343694
0.00342926
0.00342049
0.00341231
0.00340349
0.00339593
0.00338804
0.00338051
0.00337317
0.00336621
0.0033598
0.00335433
0.00334885
0.00334446
0.0033394
0.00333546
0.00333111
0.00332667
0.00332156
0.00331662
0.00331146
0.00330638
0.00330118
0.0032961
0.00329119
0.00328657
0.00328252
0.00327875
0.00327546
0.00327244
0.00326931
0.00326747
0.00326442
0.00326125
0.00325837
0.00325512
0.00325169
0.00324816
0.00324465
0.00324117
0.00323788
0.00323472
0.00323188
0.00322917
0.00322692
0.00322502
0.00322295
0.0032219
0.00322013
0.00321824
0.00321658
0.00321437
0.0032109
9.16471e-06
1.17767e-05
1.05538e-05
1.31958e-05
3.00341e-05
6.05056e-05
0.000133372
0.000286538
0.000567661
0.00101911
0.00161446
0.00229134
0.00300406
0.00371464
0.004399
0.00504723
0.00566602
0.00626891
0.00684997
0.00744163
0.00803066
0.00864057
0.00926015
0.00989885
0.0105514
0.0112193
0.0118991
0.0126016
0.0133015
0.0140183
0.0147322
0.0154317
0.0161084
0.0167529
0.0173632
0.0179064
0.018437
0.0189449
0.0194319
0.0198794
0.0202899
0.0206569
0.0210061
0.0212918
0.0215222
0.0216734
0.0218225
0.0219349
0.0220274
0.022017
0.0220011
0.0219107
0.0218183
0.0216671
0.0214994
0.0213064
0.0210743
0.0208285
0.0205613
0.020278
0.0199822
0.0196802
0.0193761
0.0190704
0.0187671
0.0184616
0.018158
0.017856
0.0175523
0.0172641
0.0169747
0.0166892
0.0164125
0.0161361
0.0158692
0.0156031
0.0153443
0.0150844
0.0148321
0.0145775
0.0143338
0.0140888
0.0138559
0.0136255
0.0134073
0.0131873
0.0129772
0.0127655
0.0125636
0.0123622
0.0121709
0.0119813
0.0117999
0.0116221
0.0114504
0.0112828
0.0111201
0.0109619
0.0108061
0.0106556
0.0105076
0.010365
0.0102248
0.0100911
0.00995945
0.00983397
0.00971027
0.00959242
0.00947639
0.00936472
0.00925545
0.00915042
0.00904779
0.00894978
0.00885343
0.00876232
0.00866714
0.00857568
0.00848006
0.00839416
0.00831014
0.00822371
0.0081397
0.00806657
0.00799727
0.00792951
0.00786582
0.00780153
0.00773898
0.00767771
0.00761878
0.00756092
0.00750542
0.00744989
0.00739584
0.00734222
0.00729011
0.00723885
0.00718966
0.00714067
0.00709348
0.00704673
0.00700211
0.00695734
0.00691451
0.00687079
0.00682861
0.0067863
0.00674527
0.00670632
0.0066675
0.00662904
0.00659333
0.00655873
0.00652609
0.00649417
0.00646389
0.00643408
0.00640554
0.00637757
0.00635042
0.00632358
0.00629706
0.00627103
0.00624503
0.00621884
0.00619295
0.00616734
0.00614191
0.00611696
0.00609227
0.00606874
0.00604564
0.00602322
0.00600211
0.00598171
0.00596265
0.0059447
0.00592751
0.00591118
0.00589533
0.00587947
0.00586366
0.00584789
0.00583173
0.00581557
0.00579929
0.00578299
0.00576691
0.00575099
0.00573546
0.00572086
0.00570722
0.00569433
0.00568212
0.0056707
0.0056601
0.00565006
0.00564026
0.00563029
0.00562044
0.00561011
0.00559999
0.00558957
0.00557909
0.00556843
0.00555802
0.00554775
0.00553822
0.00552918
0.00552087
0.00551321
0.00550628
0.00549957
0.0054934
0.00548704
0.00548112
0.00547432
0.00546773
0.00546123
0.00545426
0.00544727
0.00544034
0.00543327
0.00542661
0.00542045
0.00541478
0.00540954
0.00540484
0.00540058
0.0053967
0.00539306
0.00538969
0.00538537
0.00538131
0.00537752
0.00537293
0.00536824
0.00536343
0.00535647
1.36754e-05
2.42035e-05
3.28622e-05
6.05197e-05
0.000112805
0.000223244
0.000469429
0.000946395
0.00174617
0.00282287
0.00409849
0.00540758
0.00665404
0.00780617
0.00886262
0.00984863
0.0107477
0.0116174
0.0124514
0.0132895
0.0141168
0.0149598
0.0158068
0.0166675
0.0175366
0.0184143
0.0192949
0.0201793
0.0210446
0.0218977
0.0227242
0.0235133
0.0242507
0.0249409
0.0255848
0.0261561
0.0266846
0.0271638
0.0275955
0.027967
0.0282839
0.0285303
0.0287426
0.0288734
0.0289394
0.0289158
0.0288751
0.028787
0.0286638
0.0284508
0.0282208
0.0279236
0.0276227
0.0272759
0.0269257
0.0265495
0.0261573
0.0257587
0.0253427
0.0249226
0.0245009
0.0240833
0.0236723
0.0232678
0.0228719
0.0224824
0.0221007
0.021731
0.0213627
0.021017
0.020674
0.0203421
0.0200189
0.0197036
0.019397
0.0190993
0.0188088
0.0185235
0.0182463
0.0179726
0.0177096
0.0174495
0.0172007
0.0169549
0.0167192
0.0164855
0.0162606
0.0160378
0.0158234
0.0156117
0.0154086
0.0152086
0.0150158
0.0148275
0.0146446
0.0144661
0.0142916
0.0141214
0.013954
0.0137914
0.0136316
0.013477
0.013325
0.0131791
0.0130354
0.0128973
0.0127612
0.0126306
0.0125018
0.0123772
0.0122545
0.0121365
0.0120205
0.0119098
0.0118
0.0116952
0.0115852
0.011479
0.011368
0.0112617
0.0111664
0.0110677
0.0109683
0.0108827
0.0108015
0.0107205
0.0106433
0.0105647
0.0104881
0.0104124
0.0103393
0.0102673
0.010198
0.0101282
0.0100602
0.00999205
0.00992592
0.00986033
0.00979745
0.00973414
0.00967321
0.00961219
0.00955401
0.00949502
0.00943869
0.00938044
0.00932436
0.00926784
0.00921238
0.00915976
0.00910741
0.00905491
0.00900605
0.00895809
0.00891286
0.00886824
0.00882575
0.0087837
0.00874323
0.00870336
0.00866468
0.0086261
0.00858805
0.00855046
0.00851308
0.00847523
0.008438
0.0084009
0.00836411
0.00832804
0.00829214
0.00825818
0.00822428
0.00819175
0.00816045
0.00813048
0.00810211
0.00807488
0.00804914
0.00802387
0.0079996
0.00797512
0.00795088
0.00792645
0.00790179
0.00787692
0.00785219
0.00782726
0.00780341
0.00777939
0.00775643
0.0077341
0.00771337
0.00769345
0.00767456
0.00765661
0.00763985
0.00762358
0.00760778
0.00759195
0.00757591
0.00755962
0.00754328
0.00752682
0.00751036
0.00749398
0.00747791
0.00746221
0.00744769
0.00743364
0.00742087
0.00740855
0.00739744
0.00738647
0.00737639
0.00736605
0.00735643
0.00734539
0.00733448
0.00732386
0.00731314
0.00730236
0.00729169
0.00728102
0.00727103
0.0072616
0.00725299
0.00724478
0.00723749
0.00723057
0.00722445
0.00721834
0.00721297
0.00720608
0.0071995
0.0071934
0.0071865
0.00717952
0.00717245
0.00716243
1.80141e-05
5.89244e-05
9.57235e-05
0.000156423
0.000291442
0.00058799
0.00117687
0.00222015
0.00368249
0.00539913
0.00716892
0.008853
0.0104092
0.0118382
0.0131392
0.0143216
0.0154213
0.0164718
0.0174794
0.0184792
0.0194621
0.0204492
0.021433
0.0224206
0.023406
0.0243851
0.025351
0.0262983
0.0272065
0.028072
0.0288781
0.0296275
0.0303107
0.0309301
0.0314903
0.0319691
0.0323862
0.0327313
0.033004
0.0332045
0.0333382
0.0333849
0.0333602
0.0332388
0.0330424
0.0327696
0.0324685
0.032119
0.0317223
0.0312712
0.0306831
0.0299558
0.0292081
0.0285435
0.027986
0.0273079
0.0267688
0.0262148
0.0256718
0.0252068
0.024741
0.0243762
0.0239735
0.023656
0.0232908
0.0230045
0.0227114
0.0224384
0.0222217
0.0219841
0.0216469
0.0213219
0.021001
0.0206965
0.0203969
0.0201144
0.0198372
0.0195739
0.0193178
0.0190728
0.0188361
0.0186077
0.0183884
0.0181734
0.017964
0.0177598
0.0175613
0.0173683
0.0171807
0.0169981
0.0168215
0.0166493
0.016482
0.0163196
0.0161608
0.0160061
0.015854
0.0157052
0.0155589
0.015416
0.0152759
0.0151396
0.0150059
0.0148768
0.01475
0.014627
0.0145062
0.0143895
0.0142746
0.014163
0.014053
0.0139467
0.013842
0.013742
0.0136425
0.0135464
0.0134455
0.0133473
0.0132444
0.0131395
0.0130541
0.0129646
0.0128717
0.0127918
0.0127166
0.0126408
0.0125676
0.0124932
0.0124204
0.0123479
0.0122776
0.0122082
0.0121412
0.0120732
0.0120071
0.0119402
0.0118753
0.0118104
0.0117482
0.0116851
0.0116244
0.011563
0.0115046
0.0114449
0.0113878
0.0113284
0.011271
0.0112129
0.0111549
0.0111007
0.0110468
0.0109921
0.010941
0.0108905
0.0108428
0.0107955
0.0107503
0.0107055
0.0106622
0.0106192
0.0105776
0.0105357
0.0104944
0.0104533
0.0104124
0.0103707
0.0103297
0.0102886
0.0102477
0.0102075
0.0101673
0.0101294
0.0100913
0.0100549
0.0100194
0.00998567
0.00995347
0.00992255
0.00989329
0.00986448
0.00983656
0.00980841
0.00978035
0.00975192
0.00972333
0.00969418
0.00966522
0.0096359
0.0096079
0.00957964
0.00955289
0.00952644
0.00950187
0.00947837
0.00945607
0.00943475
0.00941476
0.00939527
0.00937616
0.00935712
0.00933763
0.0093178
0.00929807
0.00927796
0.009258
0.009238
0.00921865
0.00919963
0.00918211
0.009165
0.00914955
0.00913444
0.00912094
0.00910738
0.00909505
0.0090822
0.00907036
0.00905684
0.00904331
0.00902998
0.00901682
0.00900354
0.00899041
0.00897743
0.00896536
0.00895389
0.00894347
0.00893346
0.00892464
0.00891614
0.00890882
0.0089012
0.00889469
0.00888641
0.00887833
0.0088708
0.0088625
0.00885409
0.00884559
0.00883376
2.22749e-05
0.000155138
0.000201937
0.000327241
0.00061952
0.00123265
0.00234644
0.00401576
0.00599395
0.00809528
0.0101497
0.0120649
0.0138323
0.0154384
0.0168785
0.0182033
0.0194387
0.0206078
0.0217269
0.0228226
0.0238933
0.0249536
0.0259996
0.0270348
0.0280531
0.0290472
0.0300068
0.030925
0.031784
0.0325677
0.0332741
0.0339088
0.0344625
0.0349396
0.0353233
0.0356117
0.0358247
0.03595
0.0359765
0.035921
0.0357862
0.0355622
0.0349896
0.0339306
0.0327676
0.0317976
0.030812
0.0298325
0.0288076
0.02801
0.0272031
0.0264015
0.0257116
0.0249557
0.0245509
0.0238477
0.0232186
0.0227589
0.0221572
0.0217743
0.0212706
0.0209525
0.0205362
0.0202556
0.0198969
0.0196473
0.0193824
0.0191606
0.0189851
0.0187934
0.0186708
0.0185408
0.0184182
0.0183419
0.0182317
0.0181747
0.0181087
0.0180795
0.0180413
0.0180474
0.0180201
0.0180402
0.0180045
0.0178485
0.0176919
0.0175425
0.0173949
0.0172551
0.0171175
0.0169866
0.0168581
0.0167341
0.0166131
0.0164968
0.0163813
0.016269
0.0161574
0.0160481
0.0159402
0.0158342
0.0157306
0.0156291
0.0155297
0.0154336
0.0153391
0.0152466
0.0151562
0.015068
0.0149814
0.0148964
0.0148128
0.0147309
0.0146505
0.0145738
0.0144971
0.0144222
0.0143438
0.014267
0.0141855
0.0140978
0.0140322
0.0139635
0.013891
0.0138265
0.0137672
0.0137077
0.0136496
0.0135906
0.0135327
0.0134744
0.0134177
0.0133617
0.0133074
0.0132523
0.0131985
0.0131439
0.0130906
0.0130371
0.0129858
0.0129334
0.0128829
0.0128315
0.0127826
0.0127321
0.0126839
0.0126333
0.0125842
0.0125344
0.0124836
0.0124371
0.0123908
0.0123434
0.0122988
0.0122548
0.012213
0.0121717
0.012132
0.0120926
0.0120544
0.0120163
0.0119796
0.011942
0.0119052
0.0118681
0.0118313
0.0117934
0.011756
0.0117182
0.0116807
0.0116434
0.0116058
0.0115707
0.0115352
0.0115014
0.0114681
0.0114366
0.0114064
0.0113777
0.0113503
0.0113237
0.0112974
0.011271
0.0112445
0.0112174
0.0111902
0.0111622
0.0111342
0.0111057
0.0110784
0.0110508
0.0110248
0.0109989
0.0109749
0.0109521
0.0109305
0.0109098
0.0108904
0.0108715
0.0108529
0.0108343
0.0108151
0.0107954
0.010776
0.0107557
0.0107358
0.0107157
0.0106964
0.0106773
0.0106599
0.0106426
0.0106273
0.0106123
0.010599
0.0105856
0.0105735
0.0105607
0.010549
0.0105356
0.010522
0.0105084
0.0104952
0.0104817
0.0104685
0.0104554
0.0104434
0.0104319
0.0104217
0.0104118
0.0104033
0.010395
0.0103882
0.0103808
0.0103747
0.0103669
0.010359
0.0103517
0.0103437
0.0103355
0.0103271
0.0103157
2.84864e-05
0.000269603
0.000353011
0.000603782
0.00115548
0.00220227
0.00389118
0.00599296
0.00829124
0.0106274
0.0128502
0.0149149
0.0168225
0.0185145
0.0200558
0.0214754
0.0227945
0.0240347
0.0252143
0.0263529
0.0274555
0.0285313
0.0295783
0.0305969
0.0315822
0.0325237
0.0334078
0.0342276
0.0349675
0.0356147
0.0361639
0.0366154
0.0369648
0.0372314
0.0373767
0.0374131
0.0373648
0.036899
0.0358936
0.0347315
0.0334851
0.0323843
0.0312348
0.0300235
0.0287728
0.0278372
0.0268485
0.0258822
0.0249193
0.0240318
0.0234109
0.0225945
0.0219997
0.0211801
0.0207941
0.0201125
0.0193658
0.018952
0.0183403
0.0179638
0.0174567
0.0171526
0.0167455
0.016479
0.0161361
0.0159002
0.0156524
0.015463
0.0152962
0.0151411
0.0150488
0.0149523
0.0148892
0.0148493
0.0148151
0.0147982
0.014794
0.0148125
0.0148378
0.0148885
0.0149334
0.0150007
0.0150533
0.0151242
0.0151787
0.0152542
0.0153264
0.0153994
0.0154793
0.0155403
0.0156158
0.0156913
0.0157004
0.0156464
0.0155885
0.0155323
0.0154743
0.0154172
0.0153598
0.0153029
0.0152475
0.0151929
0.0151396
0.0150878
0.0150362
0.0149847
0.0149337
0.0148829
0.014833
0.0147829
0.0147339
0.0146845
0.0146366
0.0145907
0.0145444
0.0144986
0.0144514
0.0144041
0.0143524
0.0142928
0.0142514
0.0142092
0.0141645
0.0141211
0.014083
0.014046
0.0140093
0.0139723
0.0139353
0.0138976
0.0138607
0.013824
0.0137885
0.0137525
0.0137173
0.0136812
0.0136459
0.01361
0.0135755
0.0135402
0.013506
0.0134709
0.0134375
0.0134026
0.0133695
0.0133341
0.0132999
0.0132645
0.0132278
0.0131947
0.0131623
0.0131284
0.0130965
0.0130648
0.0130348
0.0130052
0.0129768
0.0129485
0.0129211
0.0128936
0.0128672
0.0128398
0.0128132
0.0127857
0.0127587
0.0127301
0.0127022
0.0126734
0.0126449
0.0126162
0.0125869
0.0125599
0.0125324
0.0125065
0.0124806
0.0124564
0.0124331
0.0124114
0.0123905
0.0123705
0.0123504
0.0123305
0.01231
0.0122891
0.0122677
0.0122457
0.0122233
0.0122005
0.0121784
0.012156
0.0121349
0.0121141
0.012095
0.0120767
0.0120597
0.0120434
0.0120284
0.0120137
0.0119993
0.0119848
0.0119697
0.0119538
0.0119382
0.0119217
0.0119055
0.0118888
0.0118731
0.0118572
0.0118432
0.011829
0.011817
0.011805
0.0117949
0.0117844
0.0117754
0.0117655
0.0117566
0.0117462
0.0117354
0.0117244
0.0117139
0.0117029
0.0116923
0.0116816
0.0116722
0.0116631
0.0116554
0.0116479
0.0116419
0.0116359
0.0116316
0.0116267
0.0116229
0.0116176
0.0116121
0.0116069
0.0116012
0.0115952
0.011589
0.011581
3.63053e-05
0.000408003
0.000582192
0.00101868
0.00191104
0.0034509
0.00555769
0.00791919
0.0104247
0.0128926
0.0152153
0.0173893
0.0193464
0.0211003
0.0227059
0.0241808
0.025544
0.0268162
0.0280139
0.0291523
0.0302403
0.0312841
0.032282
0.0332322
0.0341307
0.034966
0.035722
0.0363884
0.0369585
0.0374164
0.0377643
0.0379855
0.0380819
0.0381001
0.0371109
0.0357411
0.0343283
0.0331647
0.0320056
0.0307044
0.029338
0.028286
0.0271705
0.0260661
0.0249514
0.0240523
0.023291
0.0223195
0.0214493
0.0204144
0.0199096
0.0190854
0.0184623
0.017654
0.0170851
0.0164894
0.0157177
0.0152855
0.0147005
0.0143153
0.0138521
0.0135354
0.0131806
0.0129277
0.0126571
0.0124474
0.0122504
0.0120955
0.0119568
0.0118473
0.0117622
0.011693
0.0116391
0.0115978
0.0115921
0.0115565
0.0115837
0.0115843
0.0116493
0.0116742
0.0117689
0.0118029
0.0119133
0.0119536
0.0120979
0.0121738
0.0123306
0.0124185
0.0125761
0.0126712
0.0128264
0.0129396
0.0130927
0.0132008
0.0133437
0.0134301
0.0135581
0.0136619
0.013789
0.0138892
0.0140023
0.0140332
0.0140349
0.0140346
0.0140319
0.0140273
0.0140216
0.0140143
0.0140069
0.0139979
0.0139888
0.0139784
0.0139695
0.0139596
0.0139498
0.013939
0.0139294
0.0139169
0.0139002
0.0138765
0.0138611
0.0138492
0.0138348
0.0138171
0.0138036
0.0137925
0.013781
0.0137695
0.0137569
0.0137436
0.0137299
0.0137159
0.0137028
0.0136895
0.0136761
0.0136621
0.0136481
0.0136332
0.0136191
0.0136044
0.01359
0.0135745
0.01356
0.0135442
0.0135297
0.0135132
0.0134975
0.0134803
0.0134618
0.0134453
0.0134305
0.0134136
0.013398
0.013382
0.0133673
0.0133529
0.0133391
0.0133256
0.0133123
0.013299
0.0132862
0.0132729
0.0132598
0.0132456
0.0132321
0.0132167
0.013202
0.013186
0.0131704
0.013154
0.0131369
0.0131217
0.0131062
0.0130916
0.0130768
0.0130635
0.0130507
0.0130391
0.0130281
0.013018
0.0130075
0.0129974
0.0129865
0.0129751
0.0129632
0.0129506
0.0129376
0.0129239
0.0129107
0.0128971
0.0128845
0.0128721
0.012861
0.0128506
0.0128413
0.0128325
0.0128249
0.0128175
0.0128104
0.012803
0.0127952
0.0127864
0.0127776
0.012768
0.0127586
0.0127484
0.0127394
0.0127298
0.0127222
0.012714
0.012708
0.0127017
0.0126975
0.0126927
0.0126893
0.012685
0.0126815
0.0126767
0.0126714
0.0126655
0.0126603
0.0126544
0.012649
0.0126432
0.0126389
0.0126346
0.0126318
0.0126289
0.0126276
0.0126261
0.0126264
0.012626
0.0126267
0.012626
0.0126249
0.0126239
0.0126226
0.0126209
0.0126189
0.0126171
4.54304e-05
0.00054884
0.000890803
0.00158311
0.00285763
0.00482777
0.00716111
0.00970301
0.0123254
0.0148628
0.0172485
0.019472
0.0214472
0.0232398
0.0248786
0.0263773
0.0277533
0.029024
0.030204
0.0313052
0.0323381
0.0333085
0.0342142
0.035051
0.035816
0.0364998
0.037083
0.0375542
0.037913
0.0381378
0.0382525
0.0373794
0.0357272
0.0344287
0.0331818
0.0316828
0.0302183
0.029122
0.0280346
0.0268487
0.0255821
0.024671
0.0237346
0.0227139
0.0216891
0.0205917
0.0200559
0.019012
0.018165
0.017049
0.0164678
0.0156555
0.0149572
0.0142871
0.0135603
0.0131306
0.0125126
0.0120526
0.0115617
0.0111953
0.0108624
0.0105556
0.0103036
0.0100736
0.00989555
0.00970311
0.00957269
0.00943541
0.00935108
0.00926556
0.00919822
0.00917128
0.00910251
0.00909104
0.00908808
0.00905007
0.00909931
0.00907113
0.00915955
0.00915963
0.00926162
0.00928305
0.00938606
0.00940373
0.00954097
0.00961003
0.00974333
0.0098224
0.00995072
0.0100409
0.0101706
0.010275
0.0104114
0.0105361
0.0106786
0.0107893
0.0109365
0.0110744
0.0112304
0.0113714
0.0115265
0.0116762
0.0117969
0.011928
0.0120512
0.0121666
0.0122709
0.0123784
0.0124812
0.0125872
0.0126997
0.012737
0.0127722
0.0128039
0.0128352
0.0128646
0.0128955
0.0129211
0.0129423
0.0129584
0.0129737
0.0129934
0.0130108
0.0130241
0.0130387
0.0130556
0.0130728
0.0130889
0.0131045
0.013118
0.0131304
0.0131419
0.0131536
0.0131651
0.013176
0.0131862
0.0131957
0.013204
0.0132125
0.0132201
0.0132276
0.0132338
0.0132403
0.0132455
0.0132516
0.013256
0.0132609
0.0132639
0.0132661
0.0132682
0.0132725
0.0132749
0.0132775
0.0132793
0.0132818
0.0132846
0.0132873
0.0132903
0.0132932
0.013296
0.0132989
0.0133014
0.0133041
0.0133053
0.0133074
0.0133075
0.0133081
0.0133074
0.0133069
0.0133051
0.0133029
0.0133017
0.0133003
0.0132994
0.013298
0.0132977
0.0132974
0.0132982
0.0132993
0.013301
0.0133025
0.0133042
0.0133053
0.0133058
0.0133056
0.013305
0.0133038
0.0133017
0.0132998
0.0132974
0.0132959
0.0132941
0.0132934
0.0132931
0.0132939
0.0132949
0.0132969
0.013299
0.0133014
0.0133035
0.0133051
0.0133058
0.0133063
0.013306
0.0133058
0.0133047
0.0133047
0.0133038
0.0133048
0.013305
0.0133071
0.0133089
0.0133127
0.0133157
0.0133201
0.0133234
0.0133275
0.0133306
0.013333
0.0133344
0.0133367
0.0133381
0.0133402
0.0133415
0.0133444
0.013347
0.0133511
0.0133548
0.0133602
0.0133651
0.0133719
0.0133778
0.0133849
0.0133907
0.0133959
0.013401
0.0134061
0.0134106
0.0134146
0.0134219
6.04716e-05
0.000721515
0.00127717
0.00226818
0.00392795
0.00615161
0.00864132
0.0112928
0.0139704
0.0165373
0.0189607
0.021184
0.0231667
0.0249753
0.0266235
0.0281214
0.0294828
0.030722
0.0318512
0.0328803
0.0338202
0.0346774
0.0354497
0.0361308
0.036719
0.0372054
0.0375811
0.0378229
0.0377232
0.0360893
0.0347808
0.0333832
0.0316172
0.0303575
0.0291794
0.0277746
0.0264686
0.0256781
0.0246211
0.0235351
0.0223616
0.021414
0.0207698
0.019703
0.0187176
0.0174071
0.0168553
0.0157556
0.0149957
0.0139752
0.0133164
0.0125849
0.0119429
0.0114218
0.0106892
0.0103397
0.00991007
0.00941611
0.00907417
0.00870613
0.00849579
0.00820442
0.00804949
0.00781568
0.00772283
0.00752913
0.00747886
0.00733519
0.0073313
0.00723465
0.00722282
0.0072175
0.00716357
0.00720623
0.00717085
0.00722059
0.00724515
0.00725907
0.0073365
0.00734449
0.00742837
0.00745966
0.00752351
0.00756135
0.00765477
0.00772994
0.00781306
0.00788888
0.00796427
0.0080413
0.00811934
0.00820239
0.00829043
0.00839632
0.00848911
0.00859121
0.00870214
0.00882363
0.00895382
0.00907582
0.0092181
0.00934826
0.00948125
0.00961562
0.00974916
0.0098795
0.0100115
0.0101386
0.0102755
0.0104012
0.0105477
0.0106759
0.0107819
0.0108758
0.0109481
0.0110498
0.011168
0.0113374
0.0115281
0.0116021
0.0116586
0.0117137
0.0117662
0.0118153
0.0118629
0.0119107
0.0119596
0.0120058
0.0120517
0.012094
0.0121354
0.0121747
0.0122136
0.0122516
0.0122892
0.0123254
0.012361
0.0123946
0.0124279
0.0124596
0.0124909
0.0125204
0.0125498
0.0125776
0.0126061
0.012633
0.0126602
0.012685
0.0127096
0.0127322
0.0127566
0.0127794
0.0128016
0.0128227
0.0128437
0.0128646
0.0128852
0.0129057
0.0129259
0.0129458
0.0129657
0.0129851
0.0130047
0.0130227
0.0130414
0.0130585
0.0130757
0.0130915
0.0131075
0.0131218
0.0131359
0.01315
0.013164
0.0131779
0.0131914
0.0132052
0.0132189
0.0132331
0.0132475
0.0132624
0.0132772
0.013292
0.0133064
0.0133202
0.0133333
0.0133461
0.0133582
0.0133692
0.0133803
0.0133905
0.0134016
0.013412
0.0134232
0.0134345
0.0134468
0.0134589
0.013472
0.013485
0.0134985
0.0135115
0.0135242
0.013536
0.0135475
0.0135581
0.0135689
0.0135785
0.0135891
0.0135987
0.0136099
0.0136201
0.013632
0.0136434
0.0136566
0.013669
0.0136828
0.0136954
0.0137088
0.0137213
0.0137333
0.0137438
0.0137553
0.0137657
0.0137769
0.0137871
0.0137989
0.01381
0.0138226
0.0138346
0.0138482
0.0138611
0.0138759
0.0138897
0.0139047
0.0139186
0.0139317
0.0139446
0.0139577
0.0139699
0.0139816
0.0140003
7.89662e-05
0.000954828
0.00172549
0.00303585
0.00496755
0.00736036
0.00995959
0.0126658
0.0153576
0.0179253
0.0203599
0.0225588
0.0245391
0.0263464
0.0279849
0.0294597
0.0307804
0.0319581
0.0330028
0.0339233
0.0347303
0.0354319
0.0360273
0.0365108
0.0368774
0.0371252
0.037062
0.0356187
0.0337639
0.0319072
0.0306055
0.0294146
0.0277459
0.0267769
0.0257494
0.0244347
0.0231945
0.0225616
0.0216947
0.0207569
0.0197178
0.01851
0.0180058
0.0167777
0.0158536
0.0145551
0.0139103
0.0129131
0.0123086
0.0114615
0.0107218
0.0100215
0.00942599
0.00894001
0.00837232
0.00793583
0.00768404
0.00722374
0.00703635
0.00665852
0.00653889
0.00624825
0.00618509
0.00593572
0.0059256
0.00573411
0.00567386
0.00556199
0.0054444
0.00536512
0.00528272
0.00522869
0.00518309
0.00514224
0.00512482
0.00510343
0.00510518
0.00510923
0.00512655
0.00514626
0.0051753
0.00521367
0.00525951
0.00531413
0.00537585
0.00544493
0.00552257
0.00560545
0.00569735
0.00579355
0.00589889
0.00601103
0.00612868
0.00625544
0.00638476
0.00652221
0.006662
0.00680793
0.00695905
0.00710793
0.00726311
0.007413
0.00756792
0.00771993
0.00784845
0.00795249
0.00806517
0.00817082
0.00829096
0.0084006
0.00852845
0.00864265
0.00874215
0.00883437
0.00891055
0.00903647
0.00918411
0.00935767
0.00954183
0.0097773
0.00994324
0.00998494
0.01004
0.0101263
0.0101949
0.0102711
0.0103474
0.0104448
0.0105401
0.0106387
0.0107328
0.0108092
0.0108963
0.0109843
0.0110583
0.0111234
0.011188
0.0112493
0.0113101
0.0113679
0.0114255
0.0114805
0.0115352
0.0115877
0.0116408
0.0116919
0.0117436
0.0117921
0.0118406
0.0118862
0.0119324
0.0119764
0.0120203
0.0120616
0.0121026
0.0121426
0.0121823
0.0122212
0.0122599
0.0122978
0.0123357
0.0123729
0.0124102
0.0124462
0.0124826
0.0125174
0.0125523
0.0125856
0.012619
0.0126503
0.0126817
0.0127119
0.0127423
0.0127718
0.0128009
0.0128297
0.012858
0.0128866
0.0129151
0.0129439
0.0129726
0.0130013
0.0130298
0.0130577
0.013085
0.0131121
0.0131383
0.0131635
0.0131884
0.0132124
0.0132369
0.0132604
0.0132843
0.0133081
0.0133327
0.0133569
0.0133818
0.0134067
0.013432
0.0134569
0.0134817
0.0135055
0.0135291
0.0135517
0.0135745
0.013596
0.0136183
0.0136394
0.0136618
0.0136832
0.0137059
0.0137279
0.0137516
0.0137745
0.0137987
0.0138215
0.0138455
0.0138684
0.0138911
0.0139121
0.0139339
0.0139546
0.0139762
0.0139965
0.0140182
0.0140391
0.0140614
0.0140828
0.0141059
0.0141279
0.0141519
0.0141747
0.0141988
0.0142219
0.0142443
0.0142662
0.0142885
0.0143097
0.0143304
0.0143624
9.84345e-05
0.00122393
0.00221811
0.00379079
0.00593022
0.00842944
0.0110919
0.0138178
0.0164923
0.0190357
0.0214586
0.0236431
0.0256209
0.0274152
0.0290253
0.0304517
0.0316996
0.0327775
0.0336943
0.034459
0.0350831
0.0355781
0.0359497
0.0361909
0.036301
0.0345461
0.0329433
0.0313327
0.0295476
0.0279202
0.0269174
0.0259949
0.0244471
0.0236995
0.022814
0.021717
0.0205961
0.0198824
0.0193946
0.018361
0.0173668
0.0159368
0.015333
0.0141261
0.0134183
0.0123305
0.0115112
0.0105553
0.00997754
0.00927076
0.00851644
0.00787413
0.00735301
0.00685864
0.00652186
0.00598557
0.00589347
0.00551945
0.00532241
0.00505076
0.00479323
0.00459968
0.00441527
0.00428129
0.00414999
0.0040593
0.00396465
0.00390194
0.00383536
0.0037918
0.00374382
0.0037174
0.00368758
0.00366867
0.00365483
0.00363865
0.00363687
0.00363327
0.00363658
0.00364292
0.00365177
0.00366593
0.00368473
0.0037091
0.00373773
0.00377174
0.0038101
0.00385391
0.00390249
0.0039567
0.00401725
0.00408388
0.00415725
0.00423595
0.0043232
0.00441512
0.00451608
0.00462293
0.00473659
0.00485784
0.00498351
0.00511606
0.00525285
0.00539442
0.00554175
0.00568682
0.00583753
0.00598452
0.00613794
0.00628587
0.00643937
0.0065871
0.00673477
0.0068805
0.00702958
0.00718157
0.00733765
0.00749462
0.00765124
0.00780516
0.0079432
0.00807266
0.00819798
0.00831234
0.00839468
0.0084833
0.00857034
0.00867234
0.00877153
0.00887943
0.00898824
0.00908781
0.00919136
0.00929813
0.00940566
0.00952217
0.00963246
0.00973374
0.00983908
0.00994089
0.0100394
0.0101259
0.010217
0.0103035
0.0103836
0.0104616
0.0105396
0.0106147
0.0106887
0.0107598
0.0108298
0.0108969
0.0109634
0.0110268
0.0110898
0.01115
0.0112105
0.0112689
0.0113276
0.0113847
0.0114421
0.0114983
0.0115548
0.0116098
0.0116651
0.0117187