/*--------------------------------*- C++ -*----------------------------------*\
| =========                 |                                                 |
| \\      /  F ield         | OpenFOAM: The Open Source CFD Toolbox           |
|  \\    /   O peration     | Version:  2312                                  |
|   \\  /    A nd           | Website:  www.openfoam.com                      |
|    \\/     M anipulation  |                                                 |
\*---------------------------------------------------------------------------*/
FoamFile
{
    version     2.0;
    format      ascii;
    arch        "LSB;label=32;scalar=64";
    class       volScalarField;
    location    "0.005";
    object      omega;
}
// * * * * * * * * * * * * * * * * * * * * * * * * * * * * * * * * * * * * * //

dimensions      [0 0 -1 0 0 0 0];

internalField   nonuniform List<scalar> 
48128
(
2.09954e+06
2.09984e+06
2.10188e+06
2.10253e+06
2.1033e+06
2.10463e+06
2.10662e+06
2.11273e+06
2.1294e+06
2.15768e+06
2.19458e+06
2.23219e+06
2.26714e+06
2.2978e+06
2.32421e+06
2.34637e+06
2.36534e+06
2.38153e+06
2.3946e+06
2.40483e+06
2.41289e+06
2.41856e+06
2.42173e+06
2.4223e+06
2.42014e+06
2.41521e+06
2.40772e+06
2.39758e+06
2.38494e+06
2.37024e+06
2.35355e+06
2.33517e+06
2.31534e+06
2.29438e+06
2.27263e+06
2.25061e+06
2.2301e+06
2.20994e+06
2.19082e+06
2.17259e+06
2.15545e+06
2.1399e+06
2.12618e+06
2.11359e+06
2.10133e+06
2.08901e+06
2.0785e+06
2.06818e+06
2.05668e+06
2.04178e+06
2.02722e+06
2.00947e+06
1.99362e+06
1.97518e+06
1.9631e+06
1.9656e+06
1.96462e+06
1.96334e+06
1.9593e+06
1.95428e+06
1.94788e+06
1.94033e+06
1.9323e+06
1.92366e+06
1.91473e+06
1.90503e+06
1.89493e+06
1.88419e+06
1.8721e+06
1.85975e+06
1.84725e+06
1.83477e+06
1.82271e+06
1.81051e+06
1.79867e+06
1.78667e+06
1.7749e+06
1.76299e+06
1.75121e+06
1.73926e+06
1.72763e+06
1.71585e+06
1.70476e+06
1.69373e+06
1.68375e+06
1.67375e+06
1.66435e+06
1.65489e+06
1.64597e+06
1.63702e+06
1.6287e+06
1.62044e+06
1.61274e+06
1.60525e+06
1.5982e+06
1.59142e+06
1.58503e+06
1.57903e+06
1.57327e+06
1.56791e+06
1.56277e+06
1.55798e+06
1.55333e+06
1.54894e+06
1.54474e+06
1.54077e+06
1.53698e+06
1.53336e+06
1.52994e+06
1.52666e+06
1.52363e+06
1.52078e+06
1.51804e+06
1.51535e+06
1.51284e+06
1.51041e+06
1.50809e+06
1.50605e+06
1.50373e+06
1.504e+06
1.50283e+06
1.50117e+06
1.50024e+06
1.49863e+06
1.49683e+06
1.49494e+06
1.49304e+06
1.49122e+06
1.48957e+06
1.48818e+06
1.48692e+06
1.48575e+06
1.48464e+06
1.48359e+06
1.48261e+06
1.48174e+06
1.48096e+06
1.48026e+06
1.47955e+06
1.47887e+06
1.47823e+06
1.47765e+06
1.47705e+06
1.47648e+06
1.47593e+06
1.47544e+06
1.47496e+06
1.47442e+06
1.47439e+06
1.47403e+06
1.47353e+06
1.47306e+06
1.47244e+06
1.47179e+06
1.47105e+06
1.47025e+06
1.46942e+06
1.46856e+06
1.46768e+06
1.46682e+06
1.46594e+06
1.46513e+06
1.46436e+06
1.46366e+06
1.46301e+06
1.46243e+06
1.46195e+06
1.46153e+06
1.46121e+06
1.46087e+06
1.46071e+06
1.46047e+06
1.4602e+06
1.45988e+06
1.45953e+06
1.45909e+06
1.45858e+06
1.45797e+06
1.45728e+06
1.45653e+06
1.45576e+06
1.45501e+06
1.45432e+06
1.45372e+06
1.45325e+06
1.45287e+06
1.45258e+06
1.45239e+06
1.45226e+06
1.45211e+06
1.45193e+06
1.45173e+06
1.45144e+06
1.45106e+06
1.4506e+06
1.45006e+06
1.44944e+06
1.44877e+06
1.44811e+06
1.44742e+06
1.44688e+06
1.44636e+06
1.44599e+06
1.44568e+06
1.44548e+06
1.44531e+06
1.44512e+06
1.44491e+06
1.44465e+06
1.44434e+06
1.44395e+06
1.44348e+06
1.44294e+06
1.44234e+06
1.44172e+06
1.44109e+06
1.44054e+06
1.43991e+06
1.43951e+06
1.43925e+06
1.43896e+06
1.43873e+06
1.43851e+06
1.43828e+06
1.43801e+06
1.43768e+06
1.43729e+06
1.43684e+06
1.43633e+06
1.43577e+06
1.43516e+06
1.43454e+06
1.43394e+06
1.43327e+06
1.43282e+06
1.43247e+06
1.4321e+06
1.43184e+06
1.43158e+06
1.4312e+06
753223
442761
381966
394221
423526
604859
797646
916147
967854
950384
888778
838863
796591
763811
740176
723798
712778
705430
700429
696867
694316
692050
689980
687958
686003
684207
682813
681681
681171
678875
676302
674864
673964
673249
673295
678951
683999
689162
694338
699860
705400
710888
716088
721579
726995
732386
737343
742064
746074
749348
751625
753288
754264
755005
756136
758005
759918
760726
760695
760113
758921
757111
754762
751956
748711
745127
741172
736923
732005
726496
720686
714644
708463
702228
695882
689682
683365
677300
671150
665308
659386
653769
648075
642524
636879
631665
626404
621562
616689
612154
607581
603331
599091
595125
591280
587627
584084
580662
577452
574368
571474
568764
566239
563841
561629
559523
557611
555769
554091
552480
550980
549630
548402
547299
546229
545134
544083
542994
541861
540297
540392
540291
539727
539824
539763
539655
539515
539372
539215
539055
538925
538848
538762
538706
538642
538598
538579
538597
538636
538702
538787
538898
539025
539169
539301
539453
539549
539689
539715
539956
540288
540520
540852
541204
541590
542000
542415
542841
543268
543684
544120
544483
544852
545207
545549
545887
546207
546534
546853
547180
547547
547961
548423
548864
549327
549798
550288
550770
551244
551706
552080
552468
552788
553028
553271
553480
553686
553903
554095
554377
554651
554984
555249
555559
555878
556197
556518
556813
557035
557248
557366
557516
557564
557623
557671
557768
557872
558001
558133
558287
558437
558610
558793
558946
559067
559159
559190
559254
559161
559083
559093
559062
559039
559061
559089
559126
559174
559219
559270
559322
559374
559369
559322
559324
559184
559007
558923
558793
558657
558546
753991
326671
193126
197008
312648
459912
540771
564550
545288
499031
457562
426446
404987
391347
383503
379706
378370
378308
379919
381807
384325
386853
389672
392606
395784
399231
402976
406746
410759
414720
419023
423914
429355
435505
442481
450647
458658
466813
475174
483867
492544
501079
509534
518207
526812
535007
542713
550179
557275
563516
568749
573283
576999
580175
582451
584263
585535
585934
585705
584937
583543
581525
578941
575842
572291
568336
563998
559338
554331
549003
543387
537495
531406
525181
518841
512530
506127
499885
493577
487502
481365
475484
469548
463769
457922
452358
446772
441472
436194
431168
426183
421428
416743
412261
407903
403697
399608
395629
391802
388092
384528
381115
377838
374701
371703
368830
366091
363463
360955
358544
356232
354041
351952
349977
348088
346212
344411
342605
340818
338665
337512
336305
334802
333690
332670
331699
330733
329844
328955
328112
327279
326516
325758
325055
324350
323686
323032
322420
321823
321275
320735
320241
319756
319317
318873
318465
318037
317637
317144
316825
316510
316142
315839
315544
315278
315054
314836
314652
314479
314320
314182
314040
313909
313783
313658
313540
313418
313304
313186
313079
312950
312892
312833
312796
312752
312748
312757
312783
312821
312872
312912
312958
312993
313007
313025
313025
313015
313001
312980
312985
312995
313010
313027
313059
313102
313152
313211
313278
313336
313398
313429
313465
313463
313458
313440
313433
313422
313421
313420
313426
313435
313459
313492
313531
313562
313598
313602
313638
313601
313551
313531
313495
313447
313420
313390
313365
313346
313333
313323
313326
313330
313330
313308
313326
313274
313193
313146
313076
312992
312892
754609
280713
159975
206569
316721
385662
403610
390539
360094
333107
309983
294140
285065
280609
279084
279148
281190
283628
286769
290092
293796
297586
301676
305991
310644
315603
320876
326459
332438
338724
345540
353065
361238
369884
379299
389390
399489
409714
420333
431398
442550
453409
464202
475132
486086
496294
505918
515168
524161
532018
538802
544603
549426
553398
555965
557790
558596
558535
557888
556542
554462
551664
548250
544246
539767
534823
529477
523783
517747
511421
504772
497875
490824
483662
476420
469221
461953
454839
447713
440775
433836
427115
420405
413845
407277
400941
394666
388632
382697
376986
371389
365994
360723
355643
350702
345915
341260
336727
332343
328086
323975
320015
316185
312509
308961
305549
302255
299091
296034
293091
290243
287517
284885
282378
279952
277590
275271
273006
270752
268256
266472
264662
262663
260949
259363
257847
256356
254945
253553
252226
250920
249688
248481
247332
246196
245109
244037
243012
242008
241056
240117
239226
238349
237524
236702
235926
235142
234403
233603
232935
232286
231604
230970
230360
229769
229220
228681
228179
227690
227224
226781
226349
225929
225528
225131
224753
224371
224010
223646
223297
222929
222620
222307
222017
221721
221460
221207
220982
220772
220586
220402
220235
220069
219900
219742
219582
219417
219249
219082
218921
218775
218622
218481
218355
218239
218133
218036
217953
217876
217803
217729
217652
217570
217485
217394
217305
217212
217126
217039
216957
216873
216808
216745
216696
216644
216601
216543
216522
216465
216392
216332
216263
216187
216118
216046
215978
215910
215851
215790
215746
215700
215666
215613
215602
215552
215482
215431
215365
215287
215181
755293
221328
168087
236717
300036
321094
318666
296800
276268
257635
244219
236711
233295
232342
233190
235414
238435
241812
245596
249628
253998
258590
263555
268890
274659
280858
287530
294739
302521
310796
319782
329598
340110
351004
362674
375077
387537
400013
412951
426388
440095
453372
466772
480286
493977
506586
518344
529509
540278
549608
557494
564147
569315
573476
575422
576553
576375
575460
573757
571138
567705
563430
558539
552993
546979
540478
533583
526353
518793
511028
503090
495042
486913
478719
470478
462314
454113
446027
437987
430088
422265
414632
407073
399670
392340
385254
378298
371608
365063
358754
352594
346640
340842
335240
329787
324505
319369
314373
309538
304844
300310
295930
291688
287610
283661
279853
276163
272616
269172
265857
262633
259539
256531
253669
250876
248179
245499
242908
240317
237550
235363
233193
230893
228829
226892
225026
223193
221436
219709
218049
216419
214865
213347
211887
210450
209065
207700
206386
205101
203868
202654
201488
200344
199249
198168
197131
196094
195107
194081
193156
192270
191365
190498
189665
188853
188080
187323
186601
185897
185217
184562
183923
183299
182698
182105
181534
180965
180419
179875
179352
178811
178327
177837
177375
176906
176471
176043
175642
175259
174898
174550
174216
173897
173576
173273
172974
172678
172377
172090
171801
171530
171255
170990
170742
170505
170278
170062
169858
169669
169481
169304
169123
168951
168779
168605
168436
168265
168102
167938
167780
167619
167477
167334
167207
167078
166963
166839
166750
166640
166519
166410
166296
166178
166064
165948
165837
165723
165619
165512
165420
165326
165247
165157
165100
165021
164929
164854
164770
164675
164542
755348
180344
187217
240982
271688
273656
261066
244004
228570
216219
208865
205469
204506
205351
207688
210784
214415
218414
222757
227424
232472
237880
243761
250144
257099
264652
272852
281825
291563
301977
313138
325256
338251
351574
365853
381146
396665
412038
427909
444293
461219
477499
493847
510216
526727
541662
555148
567455
578317
587816
594538
600210
603346
605776
605192
603858
601827
598633
594854
590086
584972
579108
572783
565804
558437
550632
542510
534106
525472
516703
507792
498866
489852
480870
471824
462929
454012
445215
436468
427892
419420
411163
403012
395055
387207
379663
372243
365148
358176
351485
344954
338656
332512
326592
320819
315241
309812
304541
299433
294473
289684
285041
280546
276212
272012
267952
264016
260223
256537
252984
249522
246194
242941
239853
236818
233893
230976
228163
225347
222383
219929
217531
215056
212753
210577
208485
206427
204444
202493
200606
198753
196976
195238
193557
191906
190308
188735
187214
185726
184291
182880
181516
180180
178890
177621
176393
175174
174004
172807
171695
170633
169560
168522
167522
166545
165609
164692
163809
162947
162109
161298
160505
159730
158977
158237
157519
156806
156119
155437
154778
154104
153487
152863
152270
151672
151110
150551
150023
149510
149020
148548
148086
147646
147202
146785
146367
145961
145551
145160
144766
144393
144016
143653
143307
142973
142649
142336
142036
141751
141471
141203
140933
140676
140424
140171
139927
139683
139447
139213
138986
138757
138547
138336
138142
137945
137766
137580
137425
137258
137084
136921
136758
136592
136432
136271
136116
135958
135811
135659
135523
135385
135262
135131
135030
134915
134790
134682
134568
134447
134275
755559
190794
200112
231162
241811
236548
223112
210111
198618
190746
186732
185393
185738
187898
190960
194626
198768
203308
208220
213530
219314
225587
232444
239957
248232
257294
267185
278101
290028
302751
316318
331069
347070
363356
380669
399249
418372
437062
456214
475796
496103
515261
533410
550841
567264
582002
593475
603662
610978
617936
620508
623151
622614
621609
618165
613479
608829
603032
596843
589878
582556
574623
566340
557640
548709
539685
530604
521442
512459
503411
494475
485683
476794
468173
459407
450938
442346
434054
425674
417660
409568
401852
394087
386590
379031
371848
364606
357770
350905
344390
337936
331740
325604
319735
313948
308380
302930
297644
292497
287488
282645
277932
273377
268975
264715
260582
256586
252718
248966
245332
241791
238371
235018
231834
228681
225648
222623
219712
216796
213755
211134
208614
206068
203627
201301
199088
196898
194791
192704
190681
188688
186769
184886
183068
181276
179540
177828
176171
174544
172973
171426
169927
168458
167032
165632
164271
162922
161622
160302
159057
157865
156670
155509
154386
153287
152231
151193
150194
149212
148260
147331
146423
145536
144666
143817
142985
142164
141367
140577
139812
139035
138313
137585
136893
136194
135533
134876
134252
133639
133053
132481
131923
131386
130845
130336
129822
129326
128826
128349
127868
127410
126950
126508
126081
125666
125262
124870
124493
124127
123773
123426
123085
122750
122429
122106
121795
121485
121185
120887
120599
120309
120040
119769
119516
119261
119025
118783
118571
118350
118126
117909
117699
117487
117282
117076
116879
116679
116490
116298
116121
115942
115779
115609
115467
115314
115154
115011
114865
114714
114499
755343
201932
199360
215690
216985
208153
197054
186751
178404
173346
171204
170862
172357
175176
178714
182825
187421
192464
197951
203916
210474
217654
225569
234323
244067
254826
266595
279673
294072
309476
325811
343545
362987
382664
403378
425532
448598
470463
491724
512574
533524
552515
568609
583016
594569
605969
612205
617580
619199
621088
618632
614616
608139
600702
592315
582928
574080
564870
555523
546253
536829
527700
518332
509330
500100
491511
482873
474468
466428
458289
450638
442998
435443
428256
420840
413987
406940
400404
393684
387442
381011
375025
368857
363021
357000
351275
345394
339849
334192
328857
323462
318237
312929
307825
302660
297709
292772
287966
283236
278590
274087
269654
265379
261209
257169
253212
249386
245637
242013
238461
235008
231636
228355
225202
222078
219076
216098
213237
210352
207392
204682
202154
199641
197175
194789
192560
190324
188193
186054
183988
181937
179962
178015
176143
174284
172489
170706
168983
167281
165643
164020
162448
160900
159399
157921
156483
155057
153676
152280
150949
149670
148402
147159
145954
144770
143636
142512
141436
140367
139338
138322
137336
136368
135414
134487
133572
132671
131794
130924
130080
129225
128423
127618
126849
126076
125339
124609
123910
123223
122562
121913
121283
120668
120056
119469
118882
118314
117744
117193
116644
116115
115591
115082
114589
114108
113639
113182
112741
112310
111894
111482
111084
110685
110304
109921
109552
109184
108828
108474
108134
107791
107470
107147
106844
106538
106252
105962
105700
105430
105160
104896
104643
104387
104141
103893
103657
103418
103191
102962
102747
102530
102330
102126
101946
101758
101564
101388
101210
101029
100770
755647
205864
194822
199499
196434
187047
178027
169838
163734
160406
159292
159707
161903
165095
168976
173444
178445
183965
190021
196656
204022
212189
221281
231416
242819
255519
269421
284939
302152
320694
340203
361263
384577
408000
431748
456095
480877
502991
522837
541059
557854
572892
583463
592173
597269
602535
600508
596751
590530
583997
575379
565809
555211
544062
533975
523193
511943
501622
490917
481168
470909
461711
452133
443724
434985
427340
419539
412482
405597
398853
392775
386584
380858
375337
369693
364646
359421
354805
349984
345627
341094
336895
332534
328427
324156
320009
315725
311590
307362
303279
299139
295176
291162
287272
283329
279503
275655
271870
268107
264367
260719
257085
253502
249938
246437
242963
239570
236213
232947
229718
226576
223461
220454
217514
214622
211814
209066
206387
203678
200934
198286
195856
193438
191063
188733
186558
184381
182308
180220
178201
176187
174242
172319
170468
168626
166845
165070
163352
161648
160006
158375
156796
155229
153714
152212
150756
149303
147894
146477
145109
143786
142491
141208
139965
138737
137561
136392
135272
134156
133082
132016
130985
129966
128965
127983
127021
126065
125140
124215
123319
122416
121555
120700
119875
119052
118261
117478
116724
115983
115269
114564
113882
113208
112548
111898
111261
110635
110012
109404
108803
108220
107645
107082
106536
106003
105483
104973
104483
104000
103534
103070
102624
102175
101744
101312
100894
100478
100075
99674.2
99289.2
98901.3
98535.4
98168.7
97823
97474.3
97146.2
96814.4
96508.9
96196.2
95887.7
95582.1
95290.3
94995.9
94712.9
94428.3
94156.1
93881.7
93621.1
93357.6
93109.6
92859.6
92627
92390.4
92176.9
91957
91733.2
91524.4
91317.4
91107.9
90808.2
757331
205144
187773
185508
179858
171208
163541
156982
152405
150151
149600
150632
153174
156593
160717
165473
170835
176813
183440
190787
199040
208324
218769
230491
243811
258802
275210
293530
313912
336170
359319
383597
410015
435510
459347
482336
504565
523183
537930
551228
561872
572005
573502
572946
569696
565799
558148
548460
537171
525590
513517
500980
488219
475137
462339
449490
435613
423419
410482
399489
387887
378238
368099
359887
351260
344343
337174
331523
325830
320915
316706
312502
309172
305796
302958
300330
297730
295616
293373
291525
289613
287831
285957
284130
282203
280235
278142
275980
273698
271334
268877
266416
263917
261400
258834
256236
253595
250917
248194
245435
242654
239849
237058
234274
231506
228755
226022
223312
220638
217983
215392
212785
210262
207732
205250
202798
200412
198039
195642
193204
190756
188481
186251
184063
181908
179863
177846
175909
173968
172076
170184
168348
166527
164766
163015
161315
159620
157972
156335
154750
153173
151644
150121
148645
147176
145754
144328
142946
141556
140206
138885
137605
136328
135090
133864
132683
131511
130382
129260
128174
127096
126051
125013
124001
122994
122017
121038
120091
119142
118222
117296
116406
115522
114668
113815
112994
112179
111393
110617
109870
109129
108415
107703
107011
106322
105649
104985
104326
103679
103041
102419
101806
101205
100620
100048
99490.3
98941.8
98412.9
97890.8
97387.3
96884.7
96399.4
95913.3
95442.9
94973.6
94517.1
94062.6
93622.3
93183.9
92762.2
92338.5
91935.6
91533
91152
90768.2
90405
90038.7
89697.4
89349.1
89007.9
88667.9
88343.1
88015.8
87700.6
87384.1
87081.2
86776
86485.6
86192.5
85915.4
85636.4
85375.1
85110.5
84867.8
84619.3
84369.2
84131.4
83898.5
83663.5
83326.6
760136
202790
179865
173543
166949
158999
152152
146753
143202
141622
141414
142839
145534
149082
153374
158364
164057
170497
177743
185902
195185
205795
217873
231500
247126
264895
284318
305913
329797
355748
381885
407094
433712
458006
478438
496609
513558
528091
537082
542862
544645
545675
541254
534495
524869
514523
502471
489108
474355
458043
441657
424907
407816
391615
375077
361154
346291
333523
320173
309271
298019
288961
279603
272166
264490
258448
252217
247479
242610
238971
235334
232589
230313
228096
226815
225381
224736
224156
223697
223707
223775
224035
224425
224975
225555
226222
226711
227243
227511
227806
227798
227727
227486
227108
226543
225836
224968
223966
222813
221508
220064
218486
216823
215087
213294
211453
209568
207647
205697
203723
201732
199709
197700
195674
193683
191704
189766
187829
185869
183849
181780
179774
177848
175935
174038
172209
170406
168671
166931
165228
163512
161837
160171
158554
156941
155374
153804
152273
150744
149262
147779
146338
144903
143503
142112
140762
139407
138094
136770
135478
134206
132976
131746
130551
129361
128214
127073
125972
124874
123811
122752
121727
120703
119706
118712
117745
116776
115834
114891
113973
113052
112159
111272
110413
109555
108725
107900
107103
106314
105554
104799
104070
103342
102634
101927
101238
100554
99876.4
99208.6
98549.9
97904.7
97269.9
96644.2
96035.7
95438
94856.2
94282.4
93727.9
93180
92650.7
92121.9
91609.9
91098
90600.2
90104.1
89620
89138.2
88670
88204.2
87754.5
87304.1
86873
86443
86034.3
85623.9
85232.8
84840
84470.2
84094.4
83727.1
83359.7
83008
82654.2
82312.9
81970.2
81641.8
81311.1
80995.9
80678.1
80376.2
80073.1
79787.6
79499.5
79231.7
78958.6
78687.2
78424.3
78169
77911.6
77542.3
763448
199356
171872
163804
156515
149157
142976
138297
135429
134265
134270
135889
138628
142236
146643
151838
157868
164827
172814
181966
192527
204798
218945
235006
253461
274671
297701
322614
349204
376951
403628
427128
450968
471678
486554
499416
509733
519345
519791
518417
513926
508111
498694
487072
473103
457292
440476
421662
401920
380416
361531
342401
324437
308393
291913
278658
264907
253318
241466
231832
222045
214166
206168
199732
193206
187978
182650
178488
174218
170990
167608
165350
163035
161296
160060
158737
158305
157764
157789
157986
158336
158981
159871
161041
162377
163914
165539
167284
169051
170912
172707
174583
176362
178224
179870
181557
182980
184357
185542
186500
187329
187842
188247
188293
188191
187934
187516
186941
186226
185378
184412
183322
182140
180892
179617
178320
177007
175664
174275
172804
171247
169656
168089
166516
164942
163409
161885
160414
158936
157479
156008
154551
153098
151683
150268
148889
147497
146122
144739
143391
142038
140713
139395
138100
136815
135563
134310
133089
131860
130654
129458
128300
127142
126013
124882
123791
122701
121651
120598
119580
118562
117577
116593
115632
114674
113740
112805
111891
110977
110085
109189
108315
107448
106604
105761
104944
104128
103340
102558
101803
101053
100326
99601.8
98894.9
98189.2
97499.3
96814.7
96135.6
95464.1
94800.8
94148.9
93507.5
92873.2
92255.2
91646.4
91053.9
90468.5
89901.7
89340.8
88798.4
88256.2
87730
87204.1
86691
86179.7
85679.3
85181.1
84695.7
84212.7
83745
83277.4
82827
82379.1
81950.7
81522.8
81111.7
80700.6
80310.2
79915.2
79529.3
79142.1
78770.4
78397
78035.9
77673.5
77325.5
76975.2
76640.7
76303.6
75982.2
75660.3
75355.3
75048.6
74760.3
74467.9
74179.5
73896.2
73622.4
73346.5
72950.2
767181
195498
164583
155416
147877
140980
135341
131135
128674
127726
127883
129544
132262
135888
140397
145814
152248
159863
168812
179275
191530
205986
222868
242097
264074
289132
315463
342468
369768
396857
422292
442405
461025
477242
486883
492510
495379
498380
494542
488023
477870
465890
451825
435355
416499
394421
371742
348009
327165
305365
287275
268820
253195
238920
225289
214135
202862
193654
184350
176685
168946
162601
156195
150946
145632
141285
136873
133306
129683
126806
123841
121623
119294
117664
116015
114639
113659
112620
111977
111572
111140
111145
111275
111616
112137
112878
113785
114889
116136
117564
119125
120858
122710
124723
126833
129070
131358
133728
136096
138483
140865
143106
145373
147415
149381
151148
152797
154225
155519
156567
157475
158135
158645
158903
159122
159166
159104
158930
158621
158140
157462
156640
155733
154764
153751
152710
151650
150585
149506
148411
147293
146155
145002
143852
142692
141542
140381
139220
138049
136895
135732
134578
133429
132291
131158
130050
128942
127853
126755
125661
124567
123500
122431
121385
120332
119312
118289
117302
116310
115350
114389
113458
112527
111615
110707
109820
108931
108059
107187
106333
105475
104635
103799
102984
102171
101379
100588
99820.9
99059.4
98322
97590.5
96878.3
96172.4
95479
94789.4
94111.5
93440.5
92773.6
92112.8
91458.4
90813.9
90178.9
89549.9
88935.2
88328.2
87736.9
87152.3
86585.2
86023.2
85479.3
84935.6
84407
83878.4
83361.7
82846.4
82340.6
81837.1
81344.8
80855
80379.1
79903.9
79443.6
78987.1
78547.6
78111.2
77688.4
77267.7
76864.7
76459.2
76062.2
75663.3
75278.8
74893.3
74519.4
74144.2
73783
73419.7
73071.8
72721.4
72386
72051
71731.7
71411.8
71108.5
70802
70500.9
70202.8
69914.9
69624.9
69207.9
770947
191555
157767
147990
140479
134002
128779
124950
122678
121834
122065
123680
126344
129987
134634
140365
147364
155896
166183
178481
193089
210494
231002
254179
279846
308192
336541
364035
390313
414959
438172
453120
464921
477372
480032
479444
476842
473396
465511
454307
439517
421466
401308
377784
352932
326246
303148
279776
260815
242179
227261
212202
200574
189098
179365
170427
161957
154932
147887
141928
135937
130896
125791
121557
117269
113762
110201
107302
104366
101972
99530.1
97544.4
95505.8
93901.9
92228.3
90934.9
89727.5
88525.6
87518.9
86649.4
85799.9
85190.3
84575.8
84190.2
83838.7
83668.1
83585.4
83643.2
83780.3
84035.9
84401.3
84901.7
85526
86299.4
87210.7
88284.7
89493.4
90857.5
92350.5
93990.3
95749.3
97632.8
99628
101700
103851
106056
108309
110587
112888
115131
117363
119490
121598
123592
125602
127574
129398
131079
132548
133841
134796
135444
135930
136245
136448
136471
136407
136270
136045
135744
135357
134888
134345
133742
133082
132376
131631
130853
130044
129213
128359
127486
126600
125703
124797
123891
122976
122056
121127
120190
119244
118308
117372
116443
115506
114588
113665
112769
111869
110995
110120
109263
108405
107561
106718
105890
105060
104242
103425
102620
101814
101018
100226
99451.2
98678
97920.6
97163.1
96426.7
95694.4
94982.1
94277.7
93588.5
92908.4
92236.7
91571.9
90914.5
90265.9
89620.3
88980
88343.3
87716.2
87096.2
86482
85879
85283.3
84701.7
84126.9
83567.9
83013.7
82477.2
81940.8
81418.9
80896.9
80385.5
79875.4
79373.4
78873.7
78383.3
77895.7
77420.1
76945.8
76483.7
76027
75584.4
75147.5
74720.7
74298.6
73889.8
73482.7
73081.6
72678.7
72288.6
71898.3
71518.4
71137.3
70769.5
70399.7
70044.3
69686.9
69343.4
69001.1
68673
68345.2
68032.7
67717.6
67408.6
67101
66804.1
66504.7
66074
774718
187898
151420
141324
134012
127929
123038
119491
117334
116486
116719
118250
120866
124577
129481
135724
143594
153490
165733
180638
198530
219867
244849
272185
300863
331540
360411
386999
410935
431590
451413
459728
465112
471266
469566
465418
457566
447299
433786
416583
395611
369591
341910
312743
288193
263525
243821
225214
209912
196288
184714
173817
165205
156361
149152
141713
135399
129590
123828
119046
114136
110001
105793
102383
98914.9
96142.4
93343.3
91088.8
88796.8
86877.7
84920
83273.2
81588.5
80192.7
78752.8
77607.7
76466.7
75410.7
74466.6
73553.4
72684
71951.6
71202.8
70581.9
69950.2
69453
68947.5
68557
68160.7
67861.1
67576.8
67371.9
67217.5
67119
67126.2
67192.4
67323.4
67535.3
67824
68203.7
68668.9
69234.3
69899
70660.3
71528.2
72500
73584.8
74781.2
76087.3
77496.1
79009.2
80627.9
82360.9
84224
86235.5
88374.6
90604.7
92885.9
95185.8
97474.1
99644.8
101639
103463
105258
106877
108484
109884
111277
112469
113650
114641
115557
116281
116913
117384
117751
117980
118105
118082
117993
117823
117575
117256
116873
116435
115947
115412
114833
114218
113567
112888
112187
111472
110742
109999
109246
108484
107726
106961
106206
105444
104696
103943
103199
102452
101715
100975
100240
99505.7
98776.4
98046.9
97320.5
96597.9
95883.6
95168.3
94460.2
93750.5
93055.9
92364.1
91688.8
91020.9
90365.2
89719.5
89080.1
88448.8
87822.2
87204.6
86589.7
85977.5
85366.9
84764.5
84166.2
83573.9
82988.7
82411.1
81845.2
81286.3
80741.2
80201.1
79677.7
79155.1
78645.8
78136.8
77636.7
77138.3
76646.1
76156.4
75674.3
75195
74725.7
74258.2
73800.8
73349.7
72910.3
72478.4
72054
71636.1
71227.9
70825.2
70425.7
70025.2
69635.6
69246.6
68866.3
68485.6
68116.5
67746.2
67388.7
67029.8
66683.7
66339
66007.5
65676.9
65359.9
65041.9
64729.5
64417.9
64116.6
63812.7
63375.2
778102
184665
145578
135336
128302
122560
117961
114627
112553
111635
111820
113271
115898
119810
125208
132328
141589
153538
168612
187275
209632
235755
265510
296807
327308
358985
386947
411243
431255
446481
460871
463327
462913
462174
457525
449122
435390
416857
394825
367596
338014
306646
279983
254243
233897
215188
200368
186849
175318
165249
155999
147775
140503
133260
127044
120651
115511
110245
105594
101523
97380.9
94070.6
90726.2
88038.4
85409.5
83292.9
81197.9
79439.9
77639.4
76109.4
74543.4
73226.6
71887.6
70771.7
69634.5
68688.7
67726.5
66895.9
66118.9
65325.7
64573.2
63921.6
63255.9
62653.4
62041.2
61517.4
60987.2
60521.9
60049.1
59632.2
59208.2
58837.8
58461.9
58141.9
57818
57560.7
57300.4
57100.1
56896.6
56754.2
56615.5
56535.2
56475.4
56478.3
56512.5
56586.5
56709.2
56884.8
57115.7
57404.4
57756.9
58182.2
58692
59307.2
60040
60899.5
61877.4
62963.6
64146.7
65411.9
66755.1
68149.1
69596
71102.2
72664.1
74285.2
75952
77672.6
79435.8
81255.4
83098.7
84981.7
86805.6
88651.4
90377.5
92098.1
93683.2
95216.6
96586.7
97851.4
98973.8
99968.9
100836
101571
102194
102677
103069
103308
103490
103491
103431
103299
103097
102832
102509
102135
101717
101265
100780
100272
99740.7
99197.6
98643.3
98080.1
97508.2
96929.7
96342
95746.4
95142.8
94532.1
93913.6
93288.1
92656.8
92025.7
91392.4
90759.9
90124.2
89496.4
88868.5
88253.6
87643.7
87043.2
86451.8
85865.8
85286.7
84711.4
84142.5
83573.2
83002
82430
81862.7
81296.8
80735.8
80178
79627.4
79085.5
78550.9
78027.3
77509.4
77006.3
76504.6
76014.1
75524.2
75040.8
74559.9
74082.9
73608.5
73139.7
72673.6
72215.4
71759.5
71312.1
70870.7
70439.3
70016.2
69599
69189.2
68786.2
68391.3
67998
67604.3
67219.4
66835.9
66459.7
66083.6
65717.6
65351
64995.3
64639.3
64294.5
63951.6
63620.6
63291.3
62973.6
62657.2
62345.7
62034.1
61732.6
61428.1
60989.6
781198
182054
140277
129949
123214
117778
113451
110278
108245
107290
107406
108833
111611
115975
122257
130849
142286
157341
176598
200464
228334
259660
294046
328439
358855
389674
415507
435482
450182
458698
465430
464484
459929
452363
440730
424371
402131
372720
340152
306202
277832
251219
229878
210753
195531
181921
170615
160345
151108
142819
134814
127589
120601
114288
108439
102938
98375.6
93665.2
90155
86758
83590
81176.7
78745.9
76861.3
74967.9
73417.8
71867.3
70455.6
69001.3
67820.1
66629.7
65642.2
64639.3