/*--------------------------------*- C++ -*----------------------------------*\
| =========                 |                                                 |
| \\      /  F ield         | OpenFOAM: The Open Source CFD Toolbox           |
|  \\    /   O peration     | Version:  2312                                  |
|   \\  /    A nd           | Website:  www.openfoam.com                      |
|    \\/     M anipulation  |                                                 |
\*---------------------------------------------------------------------------*/
FoamFile
{
    version     2.0;
    format      ascii;
    arch        "LSB;label=32;scalar=64";
    class       volScalarField;
    location    "0.005";
    object      p;
}
// * * * * * * * * * * * * * * * * * * * * * * * * * * * * * * * * * * * * * //

dimensions      [1 -1 -2 0 0 0 0];

internalField   nonuniform List<scalar> 
48128
(
3495.86
3495.6
3492.36
3491.23
3489.8
3487.06
3482.1
3473.04
3458.96
3440.75
3412.63
3381.12
3350.2
3322.42
3299.22
3281.62
3268.14
3258.32
3253.04
3252.29
3254.88
3261.39
3272.3
3288.14
3309.55
3337.23
3371.45
3413.23
3463.16
3521.4
3587.91
3663.31
3748.25
3842.95
3947.52
4062.1
4185.65
4319.11
4462.54
4615.16
4777.6
4948.69
5131.4
5321.51
5521.8
5727.48
5943.86
6165.58
6397.04
6630.41
6871.86
7114.02
7361.87
7606.85
7856.7
8102.49
8347.73
8589.91
8828.5
9062.59
9290.93
9513.36
9729.51
9938.65
10141.2
10335.7
10522.7
10703
10873.3
11036.8
11190.5
11334.4
11471.3
11594.9
11712.9
11816.5
11916.5
12003
12087.9
12161.9
12237.2
12302.3
12368.4
12423.1
12473.9
12514
12553.5
12587.5
12623
12653.7
12685.3
12710.6
12736.4
12757
12777.7
12795
12810.2
12820.5
12828.5
12836
12842
12849.4
12858.3
12868
12877.6
12888.1
12899.2
12911
12921.5
12931.6
12940.3
12951.6
12965.9
12980.3
12995
13003.5
12999
12986.8
12957.1
12916.9
12969.4
12970.9
12967.6
13012.1
13041.3
13067.5
13090.7
13107.3
13120.4
13133.1
13146.9
13161.1
13175.2
13185.2
13194.1
13200.6
13207.6
13215.6
13224.2
13230.7
13237.3
13244.2
13251.5
13256.6
13260.9
13260.5
13259.1
13253.6
13246.1
13257.9
13258.7
13258.9
13266.4
13272.6
13282.4
13292.3
13302.9
13313.2
13324
13333.9
13343.7
13350.9
13356.6
13361.5
13363.5
13362.7
13360.9
13357.9
13354.1
13349
13343.5
13343.8
13342.8
13343.7
13346.3
13352.2
13359.5
13369.4
13380.3
13390.7
13399.8
13406.8
13411.5
13413.2
13411.9
13409.2
13404.5
13399
13394.5
13390.5
13388.1
13387.3
13390
13394.3
13399.7
13406.7
13415.1
13423.2
13429.6
13435.1
13436.4
13436.6
13434.6
13431.3
13426.7
13422.8
13419.5
13417.1
13417.2
13418.4
13421.4
13426.3
13432.5
13438.5
13444.6
13448.8
13452.2
13455.6
13450.2
13448
13445.7
13441.7
13438.4
13435.6
13434.5
13435.1
13436.8
13439.4
13443.3
13448.2
13454
13458.6
13463
13466.7
13463.2
13462.8
13461.1
13456.9
13453.5
13449.5
3495.27
3495.44
3491.92
3491.01
3491.23
3488.3
3483.42
3474.79
3458.36
3437.81
3409.64
3377.99
3347.16
3320.26
3299.24
3281.72
3268.27
3258.58
3253.33
3252.59
3255.18
3261.62
3272.4
3288.07
3309.34
3337.03
3371.45
3412.55
3461.77
3519.25
3585.44
3660.51
3744.76
3838.61
3942.37
4056
4178.67
4311.11
4453.35
4604.88
4766.12
4935.75
5116.71
5305.49
5504.42
5708.93
5923.38
6143.33
6372.89
6605.18
6844.87
7085.69
7331.92
7576.21
7824.02
8068.69
8313.27
8555.11
8793.28
9027.14
9255.51
9478.11
9694.48
9904.03
10106.9
10301.9
10489.5
10669.3
10839.1
11002.8
11157.5
11302.5
11440.2
11564.9
11683.5
11788.3
11889.1
11976.7
12062.7
12138.1
12214.6
12281.2
12348.7
12404.4
12455.6
12496.4
12536.7
12571.7
12608.3
12640
12672.3
12698.4
12724.8
12745.9
12767.4
12785.3
12801
12811.6
12820.1
12828
12834.5
12842.3
12851.8
12861.8
12871.8
12882.5
12894.1
12906.2
12916.9
12927.3
12936
12947.6
12962.1
12977
12991.9
13000.3
12995.6
12983.7
12954.6
12913
12965.8
12968.7
12966.6
13009
13040.8
13066.1
13088.9
13105.5
13118.9
13131.5
13145.4
13159.7
13173.7
13183.8
13192.8
13199.3
13206.4
13214.4
13223.1
13229.7
13236.3
13243.3
13250.6
13255.7
13260.1
13259.5
13258.2
13252.9
13245.2
13256.7
13258
13258.4
13265.5
13272.2
13281.8
13291.8
13302.5
13312.7
13323.5
13333.5
13343.3
13350.6
13356.2
13361.1
13363.1
13362.3
13360.6
13357.6
13353.8
13348.7
13343.2
13343.6
13342.6
13343.5
13346.1
13352
13359.3
13369.3
13380.2
13390.6
13399.7
13406.8
13411.4
13413.1
13411.9
13409.1
13404.4
13398.9
13394.4
13390.4
13388.1
13387.2
13390
13394.3
13399.7
13406.7
13415.1
13423.2
13429.6
13435.1
13436.4
13436.6
13434.6
13431.3
13426.7
13422.7
13419.5
13417.1
13417.2
13418.4
13421.4
13426.3
13432.5
13438.5
13444.6
13448.8
13452.3
13455.7
13450.3
13448
13445.7
13441.7
13438.4
13435.6
13434.5
13435.1
13436.8
13439.5
13443.4
13448.3
13454.1
13458.7
13463.1
13466.8
13463.3
13462.8
13461.1
13456.9
13453.5
13449.5
3495.19
3494.46
3490.9
3491.46
3491
3487.95
3481.65
3469.29
3451.71
3428.94
3400.81
3372.58
3344.31
3318.38
3296.18
3279.25
3266.77
3257.7
3252.92
3252.42
3255.13
3261.57
3272.26
3287.9
3309.24
3336.43
3370.4
3411.2
3460
3516.73
3582.03
3656.43
3739.93
3832.68
3935.53
4047.93
4169.42
4300.47
4441.28
4591.36
4751.2
4919.15
5098.29
5285.35
5482.68
5685.65
5898.14
6116.12
6343.81
6574.72
6813.17
7052.96
7298.01
7541.19
7787.85
8032.14
8275.85
8517.21
8755.14
8988.87
9217.48
9440.42
9657.3
9867.52
10070.9
10266.6
10454.9
10635.4
10806.7
10971.7
11127.4
11273.8
11412.2
11537.9
11657.2
11762.8
11864.5
11952.8
12039.7
12116.2
12193.8
12261.7
12330.8
12387.4
12438.9
12480
12521.2
12556.9
12594.5
12627
12660
12686.6
12713.7
12735.2
12757.4
12775.9
12792
12802.8
12811.8
12820.1
12826.9
12835.2
12845.1
12855.5
12865.8
12876.9
12888.7
12901.1
12912
12922.6
12931.5
12943.3
12958.1
12973.4
12988.4
12996.3
12991.9
12979.8
12952.5
12910.4
12959.6
12966.4
12966.6
13006.2
13038.7
13064.2
13086.8
13103.3
13117
13129.7
13143.6
13158
13172
13182.1
13191.2
13197.7
13205
13213.1
13221.8
13228.3
13235.1
13242.1
13249.5
13254.6
13258.8
13258.4
13257.1
13252.1
13244.3
13255.3
13257.3
13257.8
13264.7
13271.6
13281.1
13291.2
13301.8
13312.1
13323
13332.9
13342.8
13350
13355.7
13360.5
13362.5
13361.8
13360.1
13357.1
13353.3
13348.3
13342.8
13343.2
13342.3
13343.3
13345.9
13351.8
13359.1
13369.1
13379.9
13390.4
13399.5
13406.5
13411.2
13412.8
13411.6
13408.9
13404.2
13398.8
13394.2
13390.3
13388
13387.1
13390
13394.2
13399.6
13406.6
13415
13423.1
13429.5
13435
13436.3
13436.5
13434.5
13431.2
13426.6
13422.7
13419.5
13417.1
13417.2
13418.4
13421.5
13426.4
13432.6
13438.6
13444.6
13448.8
13452.2
13455.6
13450.5
13447.9
13445.7
13441.8
13438.4
13435.7
13434.6
13435.1
13436.9
13439.5
13443.4
13448.3
13454.1
13458.8
13463.1
13466.8
13463.4
13462.8
13461.1
13457
13453.5
13449.6
3495.73
3492.22
3490.37
3490.3
3490.37
3485.93
3476.24
3461.42
3441.54
3418.1
3391.55
3362.44
3335.74
3312.42
3292.15
3276.59
3265.12
3256.8
3252.53
3252.2
3254.98
3261.38
3272.05
3287.61
3308.49
3335.08
3368.56
3408.76
3456.81
3512.75
3577.13
3650.65
3733.1
3824.64
3926.54
4037.77
4158.13
4287.75
4427.28
4575.96
4734.57
4900.76
5078.84
5264.47
5460.51
5661.64
5872.92
6089.69
6316.67
6546.22
6784.3
7023.25
7268.21
7510.72
7757.07
8001.63
8244.71
8485.76
8723.7
8957.27
9186.14
9409.34
9626.73
9837.42
10041.3
10237.1
10426.2
10606.9
10779.1
10944.9
11101.1
11249.1
11388.1
11514.7
11634.5
11740.4
11843
11931.4
12019.2
12096.4
12175
12244
12314.9
12372.4
12424.2
12465.3
12507.3
12543.7
12582.2
12615.4
12649
12676.1
12703.8
12725.6
12748.4
12767.3
12783.9
12794.8
12804.3
12813
12820
12828.8
12839.1
12849.7
12860.3
12871.7
12883.8
12896.3
12907.4
12918.3
12927.3
12939.4
12954.3
12969.9
12984.9
12992.1
12987.9
12975.4
12950.8
12909.8
12951.8
12963.8
12968.7
13003.5
13036.2
13062.2
13084.4
13100.9
13115
13127.9
13141.8
13156.1
13170
13180.2
13189.4
13196.1
13203.5
13211.7
13220.3
13226.9
13233.8
13240.8
13248.2
13253.3
13257.4
13257.2
13255.7
13251.4
13243.8
13253.5
13256.5
13257.6
13264
13271
13280.5
13290.6
13301.2
13311.5
13322.3
13332.3
13342.1
13349.4
13355
13359.9
13361.8
13361.2
13359.6
13356.6
13352.8
13348
13342.5
13342.8
13342.1
13343.2
13345.7
13351.6
13358.9
13368.8
13379.7
13390.1
13399.2
13406.1
13410.9
13412.4
13411.2
13408.7
13404
13398.6
13394.1
13390.1
13388
13387.2
13389.9
13394.1
13399.6
13406.6
13414.9
13423
13429.4
13434.9
13436.1
13436.4
13434.4
13431.1
13426.5
13422.6
13419.5
13417.1
13417.3
13418.5
13421.5
13426.4
13432.6
13438.6
13444.6
13448.8
13452.1
13455.4
13450.7
13447.9
13445.6
13441.8
13438.4
13435.7
13434.6
13435.2
13436.9
13439.6
13443.5
13448.4
13454.2
13458.8
13463
13466.8
13463.5
13462.8
13461.1
13457
13453.6
13449.6
3495.84
3490.49
3489.87
3489.73
3488.42
3480.96
3468.51
3451.08
3429.98
3406.06
3379.62
3352.82
3327.8
3306.18
3287.98
3273.78
3263.23
3255.67
3251.77
3251.53
3254.34
3260.72
3271.24
3286.37
3306.73
3332.84
3365.51
3405.11
3452.41
3507.54
3571.04
3643.77
3725.23
3815.57
3916.66
4026.85
4146.24
4274.65
4413.3
4560.91
4718.8
4883
5061.37
5246.1
5442.12
5641.91
5853.45
6069.99
6297.44
6525.67
6764.02
7002.37
7248.09
7490.61
7737.98
7982.09
8225.14
8466.02
8703.95
8937.76
9166.62
9390.45
9608.23
9819.18
10023.3
10218.8
10408.5
10588.6
10761.6
10927.1
11082.9
11232.4
11371.3
11498.5
11618.4
11723.9
11827
11915
12003.2
12080.9
12160.2
12230
12302.6
12360.5
12412.2
12453.2
12495.8
12532.7
12572
12605.8
12640
12667.4
12695.6
12717.7
12741
12760.3
12777.1
12788.1
12798.1
12807
12814.4
12823.6
12834.2
12845
12855.8
12867.5
12879.8
12892.4
12903.6
12914.7
12924
12936.4
12951.3
12967.1
12981.8
12987.9
12983.8
12971
12949.6
12911.3
12944.2
12961.3
12972.6
13001.8
13033.8
13060.3
13082
13098.6
13113.3
13126.3
13140.3
13154.5
13168.2
13178.4
13187.8
13194.7
13202.3
13210.5
13218.9
13225.6
13232.7
13239.7
13246.9
13252
13256
13255.9
13254.4
13250.7
13243.6
13251.7
13255.8
13257.6
13263.6
13270.6
13279.9
13290
13300.6
13310.9
13321.8
13331.6
13341.4
13348.7
13354.3
13359.1
13361
13360.6
13359
13356.1
13352.3
13347.8
13342.3
13342.3
13341.9
13343.1
13345.7
13351.5
13358.9
13368.7
13379.4
13389.8
13398.8
13405.7
13410.5
13411.9
13410.7
13408.3
13403.8
13398.5
13393.9
13390
13388
13387.3
13389.9
13394.1
13399.6
13406.7
13414.8
13422.8
13429.2
13434.7
13435.7
13436.3
13434.1
13430.9
13426.4
13422.6
13419.5
13417.2
13417.4
13418.6
13421.6
13426.4
13432.6
13438.5
13444.5
13448.7
13452
13455.1
13450.9
13447.9
13445.5
13441.8
13438.4
13435.7
13434.7
13435.3
13437
13439.7
13443.5
13448.4
13454.2
13458.8
13462.9
13466.7
13463.7
13462.7
13461
13457.1
13453.7
13449.6
3499.11
3490.76
3491.39
3489.84
3484.77
3474.57
3459.08
3439.61
3417.79
3393.84
3367.84
3342.9
3320
3300.17
3283.66
3270.68
3260.94
3254.07
3250.48
3250.29
3253.14
3259.38
3269.58
3284.22
3304.04
3329.5
3361.42
3400.49
3447.08
3501.43
3564.04
3636.09
3716.66
3805.8
3906.4
4015.8
4134.27
4261.93
4400.31
4547.5
4705.69
4868.77
5046.22
5230.54
5427.33
5626.44
5839.26
6056.13
6284.81
6512.43
6751.62
6988.86
7235.48
7477.31
7728.32
7968.59
8211.61
8453.7
8689.9
8925.42
9153.04
9378.47
9596.04
9807.96
10011.6
10207.3
10397.7
10577
10751.3
10916
11071.3
11222.3
11360.4
11488.3
11607.7
11712.4
11815.7
11903
11991.5
12069.5
12149.6
12219.9
12293.6
12351
12402.1
12443.1
12486.2
12523.6
12563.8
12597.9
12632.6
12660.2
12688.8
12711
12734.9
12754.3
12771.3
12782.3
12792.9
12802.1
12809.9
12819.7
12830.5
12841.3
12852.4
12864.3
12876.7
12889.3
12900.5
12911.9
12921.6
12934.4
12949.2
12964.9
12979
12983.4
12979.5
12966.7
12948.9
12914.7
12937.9
12959.9
12977.5
13001.5
13031.8
13058.3
13079.6
13096.4
13111.9
13125.2
13139.3
13153.2
13166.5
13176.7
13186.4
13193.5
13201.5
13209.5
13217.7
13224.5
13231.8
13238.8
13245.9
13250.8
13254.5
13254.7
13253.1
13250.3
13243.9
13250.1
13255.1
13257.8
13263.4
13270.4
13279.6
13289.6
13300.1
13310.4
13321.3
13331
13340.7
13348
13353.7
13358.3
13360.1
13359.9
13358.4
13355.5
13351.9
13347.7
13342.2
13341.9
13341.8
13343.2
13345.9
13351.6
13358.9
13368.6
13379.3
13389.5
13398.3
13405.1
13410
13411.3
13410.2
13408
13403.6
13398.3
13393.8
13390
13388.1
13387.5
13390
13394.1
13399.7
13406.8
13414.8
13422.6
13428.9
13434.4
13435.4
13436.2
13433.8
13430.8
13426.3
13422.5
13419.5
13417.3
13417.6
13418.8
13421.7
13426.5
13432.6
13438.5
13444.4
13448.6
13451.8
13454.8
13451
13447.9
13445.3
13441.8
13438.5
13435.8
13434.9
13435.4
13437.1
13439.8
13443.7
13448.5
13454.2
13458.8
13462.8
13466.6
13463.9
13462.7
13460.9
13457.2
13453.7
13449.7
3503.8
3495.98
3493.96
3489.23
3480.64
3466.95
3448.85
3428.52
3406.41
3381.5
3356.6
3333.46
3312.52
3294.4
3279.34
3267.39
3258.36
3252.1
3248.84
3248.63
3251.44
3257.4
3267.11
3281.25
3300.51
3325.29
3356.5
3395.08
3441.02
3494.6
3556.24
3627.75
3707.66
3795.39
3896.01
4005.46
4123.12
4250.27
4388.47
4535.66
4694.24
4856.46
5034.14
5217.39
5414.63
5613.19
5826.79
6043
6271.47
6498.27
6740.39
6973.88
7222.31
7458.47
7718.61
7950.71
8189.92
8437.77
8669.02
8906.47
9130.86
9359.69
9575.68
9790.11
9992.33
10189.1
10380.6
10559.2
10735.5
10900.1
11056.5
11210
11347.3
11477.2
11596.2
11700.1
11803.9
11891.2
11980.3
12059.3
12140.3
12211.7
12286.1
12343.1
12393.4
12434.5
12478.5
12516.2
12557.8
12591.6
12627
12654.6
12683.3
12705
12729.8
12748.7
12766
12777.1
12788.5
12797.9
12806.2
12816.7
12827.6
12838.3
12849.7
12862
12874.4
12886.8
12898
12909.6
12919.8
12933.3
12947.9
12963.3
12976.2
12978.4
12974.6
12962.3
12948.9
12919.7
12934
12959.5
12982.7
13002.9
13030.2
13056.1
13077
13094.3
13110.8
13124.4
13138.7
13152.1
13164.9
13175.2
13185.1
13192.6
13201.1
13208.9
13216.8
13223.7
13231.3
13238.1
13244.9
13249.6
13253
13253.6
13252
13250
13244.6
13249
13254.7
13258.2
13263.7
13270.6
13279.6
13289.4
13299.8
13310.1
13321
13330.5
13340
13347.2
13353.1
13357.4
13359.2
13359.3
13357.8
13355
13351.5
13347.7
13342.4
13341.6
13342
13343.5
13346.3
13351.9
13359.2
13368.7
13379.2
13389
13397.9
13404.5
13409.4
13410.6
13409.5
13407.6
13403.4
13398.3
13393.8
13390
13388.3
13387.9
13390.1
13394.3
13399.9
13406.9
13414.7
13422.4
13428.6
13434
13435.1
13435.9
13433.4
13430.6
13426.3
13422.5
13419.6
13417.5
13417.8
13419
13421.9
13426.6
13432.7
13438.5
13444.3
13448.5
13451.5
13454.4
13451.1
13447.9
13445.2
13441.8
13438.6
13435.9
13435.1
13435.6
13437.3
13440
13443.8
13448.6
13454.2
13458.8
13462.6
13466.4
13464.1
13462.6
13460.7
13457.3
13453.8
13449.8
3511.84
3502.06
3496.53
3488.06
3475.58
3458.74
3439.39
3418.68
3394.61
3369.9
3346.45
3324.91
3305.66
3289.03
3275.18
3264.11
3255.72
3250.01
3247.05
3246.62
3249.21
3254.8
3264.03
3277.63
3296.34
3320.44
3350.89
3389.05
3434.41
3487.24
3547.72
3618.95
3699.21
3785.03
3885.54
3995.64
4114.04
4238.82
4377.22
4523.7
4682.59
4843.92
5022.18
5203.97
5399.82
5597.42
5811.33
6023.63
6249.11
6469.62
6720.84
6945.98
7197.32
7422.51
7691.09
7919.65
8150.09
8401.93
8628.13
8866.92
9088.39
9319.73
9535.1
9751.95
9952.98
10150.1
10343.3
10521.9
10701.8
10866.2
11025.7
11182.7
11319.2
11453.4
11572.2
11676.4
11781.3
11869.8
11960.8
12041.7
12125.2
12197.6
12274.8
12330.2
12383.4
12423.5
12471.1
12507.3
12552.4
12584.4
12622
12649
12679
12699
12725.7
12743
12761.2
12772.3
12785
12794.6
12803.5
12814.9
12825.1
12835.7
12847.6
12860.3
12872.5
12884.7
12895.8
12907.9
12918.5
12933
12947.2
12962.2
12972.8
12972.3
12968.4
12957.3
12949.2
12926.1
12933.6
12959.9
12987.5
13006
13029.5
13053.3
13074.3
13092
13109.9
13123.7
13138.4
13151.2
13163.3
13173.7
13183.9
13191.8
13200.9
13208.5
13216
13222.9
13230.9
13237.6
13244.1
13248.3
13251.5
13252.5
13250.9
13249.8
13245.5
13248.5
13254.4
13258.9
13264.4
13271.1
13279.8
13289.4
13299.8
13309.8
13320.8
13330
13339.4
13346.3
13352.5
13356.5
13358.1
13358.7
13357.1
13354.6
13351.2
13347.8
13342.7
13341.6
13342.3
13344
13346.9
13352.5
13359.6
13368.9
13379.3
13388.6
13397.4
13403.7
13408.8
13409.8
13408.6
13407.2
13403.1
13398.2
13393.8
13390.2
13388.6
13388.4
13390.5
13394.6
13400.3
13407.2
13414.7
13422.1
13428.3
13433.5
13434.7
13435.5
13433.1
13430.4
13426.3
13422.6
13419.8
13417.8
13418.2
13419.4
13422.1
13426.8
13432.8
13438.6
13444.2
13448.2
13451.1
13453.9
13451.2
13447.9
13445.1
13441.8
13438.7
13436.1
13435.3
13435.9
13437.5
13440.2
13444
13448.7
13454.1
13458.7
13462.4
13466.1
13464.3
13462.6
13460.5
13457.3
13453.9
13449.9
3518.52
3507.84
3498.27
3485.86
3469.85
3451.15
3431.13
3408.46
3383.51
3359.76
3337.54
3317.4
3299.56
3284.2
3271.37
3261.07
3253.27
3247.95
3245.04
3244.3
3246.55
3251.8
3260.52
3273.52
3291.72
3315.14
3344.75
3382.57
3427.47
3479.94
3539.01
3609.46
3691.24
3775.67
3875.87
3984.99
4103.57
4227.31
4366.27
4510.93
4668.2
4828.45
5005.93
5184.08
5375.02
5568.42
5790.56
5990.75
6213.06
6418.21
6681.65
6897.27
7149.42
7364.48
7631.72
7868.83
8086.79
8337.6
8559.01
8799.17
9020.33
9251.68
9469.87
9687.41
9891.76
10088.3
10284.2
10464.4
10648.7
10812.7
10978.1
11137.7
11273.7
11413.4
11533.3
11637.2
11746.5
11833.5
11931
12010.9
12101.5
12171.6
12256.6
12304.9
12367.8
12403.6
12459.9
12491.5
12543.1
12572.1
12613.3
12639.5
12672.4
12691.1
12721.2
12735.6
12755.5
12766.7
12781.5
12791.3
12801.3
12813.8
12822.8
12833.8
12846.2
12859.2
12871
12883.1
12894.1
12906.9
12918.1
12933.5
12946.7
12961.7
12967.9
12965
12960.4
12952.5
12948.6
12933.7
12937.6
12962.9
12992.6
13009.7
13029.5
13050
13071.4
13089.4
13109
13123
13138.3
13150.3
13161.7
13172.2
13182.8
13191
13200.9
13208.2
13215.5
13222.3
13230.7
13237.1
13243.4
13246.9
13250
13251.1
13250
13249.7
13246.7
13248.6
13254.2
13259.6
13265.4
13271.9
13280.4
13289.6
13299.9
13309.6
13320.7
13329.5
13338.8
13345.3
13351.9
13355.5
13357
13358.1
13356.3
13354.1
13351
13347.9
13343.2
13342
13342.8
13344.7
13347.8
13353.3
13360.4
13369.4
13379.3
13388.2
13396.8
13402.9
13408
13408.9
13407.9
13406.7
13403
13398.3
13394
13390.6
13389.2
13389.2
13391.1
13395
13400.7
13407.6
13414.7
13421.8
13427.9
13433
13434.2
13435.1
13432.8
13430.1
13426.2
13422.7
13420
13418.2
13418.6
13419.9
13422.6
13427
13432.9
13438.6
13444.1
13447.9
13450.7
13453.4
13451.2
13447.9
13445
13441.8
13438.8
13436.4
13435.7
13436.2
13437.8
13440.5
13444.3
13448.8
13454.1
13458.6
13462.1
13465.8
13464.4
13462.5
13460.3
13457.4
13454.1
13450
3523.06
3511.52
3498.81
3482.83
3464.51
3444.25
3423.23
3398.48
3374.02
3351.13
3329.97
3311.01
3294.35
3280.03
3268.06
3258.43
3251.07
3245.84
3242.74
3241.83
3243.7
3248.54
3256.7
3269.03
3286.8
3309.65
3338.21
3376.1
3420.33
3472.23
3530.71
3601.32
3682.3
3765.54
3866.37
3974.22
4091.65
4214.1
4352.37
4493.81
4645.79
4804.9
4984.57
5153.56
5337.67
5515.97
5754.35
5940.01
6159.45
6343.99
6608.39
6818.05
7071.21
7282.66
7534.76
7789.76
8000.23
8241.84
8460.55
8698.2
8925.35
9154.98
9375.83
9593.85
9802.84
9999.63
10198.7
10381.6
10572.1
10737.4
10909.8
11074.8
11209.7
11355
11478
11582.4
11702.2
11781.1
11893.3
11966.1
12068
12135.8
12228.6
12269.2
12343.2
12377
12441.5
12470.6
12526.1
12554.9
12597.7
12625.1
12659.5
12680.6
12711.4
12725
12745.8
12758.3
12775.5
12786.1
12798
12811.8
12820.3
12831.8
12844.7
12857.8
12869.5
12881.3
12892.8
12905.6
12918.6
12934.6
12946.2
12960.3
12961
12956.1
12951.6
12948.5
12949.2
12942.3
12945.2
12969.2
12997.6
13012.6
13029.6
13047.1
13067.8
13086.7
13107.7
13122.4
13138.1
13149.2
13160.1
13170.6
13181.5
13190.4
13200.9
13207.9
13215
13221.9
13230.4
13236.6
13242.6
13245.3
13248.3
13249.6
13249.2
13249.6
13248
13249.6
13254.5
13260.4
13266.6
13273.1
13281.1
13290
13300
13309.7
13320.6
13329.1
13338.1
13344.4
13351.2
13354.3
13355.8
13357.3
13355.5
13353.5
13350.9
13348
13343.9
13342.6
13343.5
13345.6
13348.9
13354.3
13361.4
13369.9
13379.3
13387.8
13396.1
13402.1
13407.1
13407.7
13407.1
13406.1
13402.7
13398.4
13394.3
13391
13389.9
13390
13391.8
13395.6
13401.3
13408
13414.7
13421.6
13427.4
13432.3
13433.5
13434.6
13432.5
13429.8
13426.2
13422.8
13420.4
13418.7
13419.1
13420.4
13423.1
13427.4
13433
13438.6
13443.9
13447.6
13450.2
13452.9
13451.2
13447.9
13444.9
13441.8
13439
13436.7
13436
13436.5
13438.1
13440.8
13444.6
13449
13454.1
13458.5
13461.8
13465.4
13464.5
13462.4
13460.1
13457.4
13454.2
13450.2
3524.4
3512.55
3497.66
3479.41
3459.4
3437.5
3415.46
3389.88
3366.17
3343.96
3323.76
3305.83
3290.13
3276.66
3265.37
3256.2
3249.02
3243.72
3240.46
3239.35
3240.76
3245.15
3252.7
3264.28
3281.78
3304.48
3331.33
3369.44
3413.41
3465.01
3522.15
3593.09
3673.96
3754.76
3855.95
3961.25
4075.38
4197.47
4332.75
4470.17
4613.27
4762.89
4955.32
5108.19
5287.51
5440.53
5686.64
5861.85
6083.43
6248.64
6500.51
6703.39
6953.19
7166.45
7401.93
7664.14
7881.7
8112.77
8333.65
8562.79
8796.91
9018.91
9253.37
9461.72
9689.39
9874.99
10091.9
10264
10471.6
10632.9
10815
10985.6
11123.8
11278.4
11394.7
11515.8
11634.5
11720.4
11844
11911
12022.2
12088.8
12185.5
12224.2
12306
12343.8
12413.5
12445.1
12502.4
12533.1
12577.1
12605.6
12642.5
12665.2
12697.4
12710.4
12732.9
12746.8
12766.6
12778.6
12792.7
12807.9
12816.9
12829
12842
12854.9
12866.6
12878.3
12890.3
12903.6
12918.3
12935.3
12944.9
12955.7
12952.2
12945.5
12942.6
12944.8
12951.5
12952.6
12957.9
12976.7
13001.3
13014.6
13029.3
13044.9
13064
13083.8
13105.9
13121.5
13137.7
13147.7
13158.4
13169.1
13180.2
13189.8
13200.8
13207.3
13214.4
13221.7
13230.1
13235.8
13241.5
13243.6
13246.3
13247.9
13248.4
13249.6
13249.5
13250.8
13255.2
13261.4
13268
13274.5
13282.1
13290.6
13300.2
13309.8
13320.5
13328.6
13337.3
13343.4
13350.2
13352.8
13354.7
13356.2
13354.7
13352.9
13350.7
13348.3
13344.6
13343.4
13344.4
13346.8
13350.2
13355.6
13362.5
13370.5
13379.3
13387.4
13395.3
13401
13406
13406.5
13406.3
13405.3
13402.5
13398.5
13394.6
13391.7
13390.8
13391
13392.7
13396.4
13401.9
13408.4
13414.8
13421.3
13426.8
13431.5
13432.8
13434.1
13432
13429.5
13426.2
13423.1
13420.8
13419.3
13419.8
13421.1
13423.7
13427.9
13433.2
13438.6
13443.7
13447.2
13449.6
13452.2
13451.1
13447.9
13444.8
13441.8
13439.3
13437.1
13436.5
13436.9
13438.5
13441.2
13444.9
13449.2
13454
13458.4
13461.4
13465
13464.5
13462.3
13459.9
13457.4
13454.4
13450.4
3523.44
3511.11
3495.05
3475.4
3453.8
3431.64
3408.04
3382.86
3359.72
3338.24
3318.93
3301.85
3286.93
3274.12
3263.31
3254.37
3247.2
3241.81
3238.33
3236.9
3237.8
3241.75
3248.75
3259.62
3276.75
3299.53
3325.33
3362.85
3406.42
3458.35
3514.02
3585.08
3665.02
3742.99
3843.49
3943.45
4049.42
4172.07
4308.48
4436.71
4571.18
4699.08
4903.5
5041.38
5222.74
5348.16
5583.23
5747.14
5973.01
6128.18
6356.63
6557
6798.35
7012.78
7237.79
7484.57
7725.77
7939.05
8175.82
8377.45
8634.72
8832
9098.74
9281.47
9543.92
9707.18
9957.62
10111.5
10347.9
10496.3
10699.4
10855.2
11018.5
11176.9
11293.1
11439.5
11535
11654
11775.8
11847
11970
12027.5
12125.5
12168.3
12258.5
12302.6
12377.5
12413.5
12473.7
12504.8
12552.5
12579.7
12620.1
12644.1
12679
12692
12717.1
12731.5
12754.6
12768.4
12785.4
12801.5
12812.1
12825.6
12837.9
12850.4
12862.2
12874.1
12886.9
12901
12917.2
12935.1
12942
12947.9
12940.7
12933.3
12933.5
12940
12953.3
12964.7
12973.8
12985.9
13004.3
13016.2
13028.8
13042.7
13060.4
13080.5
13103.5
13119.7
13136.7
13145.9
13156.5
13167.3
13178.6
13189
13200.5
13206.7
13213.9
13221.4
13229.8
13234.7
13240
13241.7
13244
13246
13247.5
13249.7
13251
13252.5
13256.4
13262.5
13269.5
13276
13283.3
13291.4
13300.5
13309.9
13320.2
13327.8
13336.3
13342.2
13349
13351.2
13353.3
13355
13353.7
13352.3
13350.5
13348.6
13345.6
13344.4
13345.6
13348.1
13351.7
13357.1
13363.8
13371.3
13379.3
13386.9
13394.4
13399.8
13404.6
13405.2
13405.4
13404.5
13402.1
13398.6
13395.1
13392.5
13391.9
13392.2
13393.8
13397.4
13402.7
13408.9
13414.9
13421
13426.2
13430.6
13432
13433.4
13431.5
13429.2
13426.3
13423.4
13421.4
13420
13420.5
13421.9
13424.5
13428.4
13433.4
13438.6
13443.4
13446.8
13449
13451.6
13450.8
13447.9
13444.8
13441.9
13439.6
13437.5
13437
13437.4
13439
13441.6
13445.3
13449.4
13454
13458.2
13461
13464.6
13464.5
13462.1
13459.7
13457.4
13454.5
13450.6
3519.96
3507.45
3490.98
3470.6
3448.14
3426.44
3401.75
3377.43
3354.69
3333.97
3315.44
3299.06
3284.76
3272.43
3261.89
3253
3245.75
3240.23
3236.4
3234.53
3234.96
3238.63
3245.25
3255.2
3272.42
3294.32
3319.36
3357.92
3400.64
3452.06
3505.8
3576.35
3652.63
3728.29
3828.84
3921.09
4010.9
4123.81
4278.1
4389.76
4522.27
4618.21
4818.61
4944.38
5132.1
5244.96
5452.74
5597.68
5819.81
5975.39
6188.88
6378.08
6610.79
6813.29
7051.76
7258.19
7529.97
7715.24
7990.1
8162.27
8450.97
8619.38
8914.84
9075.56
9365.93
9516.95
9793.64
9939.32
10199
10337.7
10566.4
10695.6
10895.4
11030.5
11182.3
11336.4
11428.7
11580.4
11676.8
11776.1
11914.6
11952.1
12054.9
12103.6
12205.9
12253.3
12335.9
12375
12441
12471.3
12524.1
12549.1
12594.5
12617.2
12655.2
12669.8
12698.9
12713.2
12739.9
12754.9
12775.8
12792
12805.6
12821.3
12832.1
12844.6
12856.6
12869.1
12883
12898.1
12915.4
12932.8
12937.1
12937
12926.1
12920.5
12924.2
12935.6
12955.3
12977.2
12991.3
12995.6
13007.2
13017.5
13028.1
13040.5
13057
13076.7
13099.9
13116.7
13134.7
13143.6
13154.3
13165.1
13176.7
13187.9
13199.8
13205.8
13213.3
13220.8
13229.1
13233.2
13237.9
13239.5
13241.5
13243.9
13246.4
13249.7
13252.5
13254.3
13257.9
13263.9
13271
13277.6
13284.6
13292.3
13300.9
13310
13319.9
13327
13335.1
13340.7
13347.4
13349.4
13351.6
13353.5
13352.7
13351.8
13350.3
13348.9
13346.8
13346
13347
13349.7
13353.4
13358.8
13365.2
13372
13379.4
13386.3
13393.3
13398.3
13403
13403.7
13404.3
13403.5
13401.6
13398.7
13395.7
13393.4
13393.1
13393.5
13395.1
13398.6
13403.7
13409.4
13415
13420.7
13425.3
13429.6
13431.1
13432.6
13430.9
13428.8
13426.3
13423.7
13422
13420.9
13421.3
13422.7
13425.3
13429
13433.6
13438.5
13443.2
13446.3
13448.3
13450.8
13450.5
13447.8
13444.7
13441.9
13439.9
13438
13437.6
13438
13439.5
13442.1
13445.8
13449.7
13453.9
13458
13460.6
13464
13464.4
13462
13459.5
13457.4
13454.7
13450.9
3514.37
3502.15
3485.86
3465.52
3443.28
3421.57
3396.8
3373.36
3351.14
3331.14
3313.29
3297.48
3283.64
3271.6
3261.16
3252.15
3244.77
3239.04
3234.79
3232.4
3232.57
3236.1
3242.01
3250.63
3268.46
3290.99
3314.72
3354.24
3395.46
3444.86
3496.21
3565.64
3632.59
3704.66
3813.01
3894.22
3966.22
4052.68
4223.33
4320.99
4461.02
4532.78
4711.77
4822.4
5006.27
5115.5
5299.38
5430.62
5627.11
5781.93
5984.47
6169.23
6396.82
6585.23
6849.26
7013.2
7310.14
7467.41
7775.59
7935.15
8245.98
8399.37
8704.71
8853.68
9163.52
9310.75
9608.5
9756.08
10036
10170.4
10421.4
10536.9
10762.8
10871.5
11063.1
11191.9
11329.7
11500.5
11567.4
11702.2
11837.2
11866
11981.6
12035.2
12145.7
12193.2
12286.4
12328.1
12402.7
12432.1
12491
12515.1
12566
12586.4
12628.5
12643.2
12678.3
12693.3
12723.8
12739.4
12764.3
12779.9
12797.8
12815.8
12825.2
12838.1
12849.7
12863.1
12878.4
12894.7
12912.2
12927
12928.5
12923
12908.1
12908
12916.5
12933.6
12958.6
12989.8
13008.7
13005.8
13010.9
13018.2
13027.1
13038.6
13054.2
13072.9
13095.4
13112.4
13131.3
13140.8
13151.7
13162.4
13174.4
13186
13198.2
13204.6
13212.4
13219.7
13227.9
13231.1
13235.2
13236.6
13238.6
13241.7
13245.4
13250.1
13254.3
13256.4
13259.8
13265.3
13272.4
13279.1
13286
13293.2
13301.3
13309.9
13319.3
13325.9
13333.8
13339
13345.4
13347.4
13350.1
13351.9
13351.3
13350.9
13350
13349.1
13347.9
13347.6
13348.7
13351.6
13355.5
13360.8
13366.7
13372.8
13379.3
13385.6
13392.1
13396.8
13401.1
13402
13403
13402.4
13401.1
13398.8
13396.4
13394.5
13394.4
13394.9
13396.6
13399.9
13404.7
13410
13415.1
13420.2
13424.4
13428.5
13430
13431.6
13430.2
13428.4
13426.3
13424.2
13422.7
13421.8
13422.2
13423.7
13426.3
13429.7
13433.9
13438.4
13442.8
13445.7
13447.5
13449.9
13450
13447.7
13444.7
13442
13440.2
13438.6
13438.2
13438.6
13440.1
13442.7
13446.2
13449.9
13453.9
13457.7
13460.1
13463.4
13464.1
13461.8
13459.3
13457.4
13454.9
13451.2
3507.53
3496
3480.29
3460.4
3439.42
3417.17
3393.23
3370.54
3349.06
3329.74
3312.44
3297.06
3283.49
3271.58
3261.09
3251.9
3244.3
3238.35
3233.8
3230.9
3230.11
3233.49
3239.43
3247.48
3266.31
3289.05
3310.86
3350.96
3389.23
3433.64
3482.87
3556.34
3605.57
3662.07
3787.79
3858.32
3926.47
3977.2
4140.18
4224.53
4372.59
4439.63
4590.16
4684.05
4846.86
4954.74
5119.49
5239.28
5409.82
5567.02
5748.02
5927.02
6116.38
6297.78
6534.44
6670.08
6969.91
7111.13
7430.21
7582.21
7902.17
8054.31
8385.85
8529.56
8859.95
9013.11
9343.43
9492.12
9800.72
9938.71
10220.3
10339.6
10592.9
10696.2
10922.2
11022
11221.7
11385.7
11464.1
11627.8
11736.9
11784.3
11921
11973.2
12084.3
12130.6
12235.2
12278.6
12362
12391
12456.6
12480.8
12536.6
12554.5
12600.4
12615
12656.9
12673.1
12707.6
12723.2
12751.9
12765.9
12789.4
12808.3
12818
12831.9
12842.8
12857.4
12873.9
12891.1
12907.2
12917.9
12915.9
12905.6
12889.9
12896.2
12911.3
12933.5
12962.6
12999.8
13023.5
13016.1
13015.2
13019.1
13026.2
13037
13051.7
13069
13089.8
13106.3
13126.4
13137.2
13148.9
13159.3
13171.7
13183.4
13196
13203.5
13211.6
13218.3
13226.3
13229
13232.8
13234.2
13235.8
13239.3
13244.1
13250
13255.8
13259
13262.7
13267.9
13274.1
13280.8
13287.4
13294.2
13301.7
13309.6
13318.4
13324.6
13332.2
13337.3
13343.5
13345
13347.8
13349.8
13349.8
13349.9
13349.5
13349.4
13349.1
13349.4
13350.7
13353.6
13357.7
13363
13368.6
13373.7
13379.4
13384.9
13390.8
13394.8
13399
13400.2
13401.6
13401.1
13400.3
13398.8
13397.2
13395.8
13395.8
13396.5
13398.3
13401.4
13405.7
13410.5
13415.1
13419.7
13423.4
13427.2
13428.9
13430.6
13429.4
13427.9
13426.3
13424.6
13423.4
13422.8
13423.3
13424.8
13427.3
13430.5
13434.2
13438.3
13442.4
13445.1
13446.7
13449
13449.5
13447.5
13444.7
13442.2
13440.6
13439.2
13438.9
13439.3
13440.8
13443.4
13446.7
13450.2
13453.8
13457.4
13459.6
13462.8
13463.8
13461.5
13459.1
13457.3
13455.1
13451.6
3500.2
3489.57
3474.75
3455.57
3436.26
3413.88
3391.03
3369.07
3348.39
3329.68
3312.81
3297.71
3284.27
3272.34
3261.66
3252.24
3244.45
3238.22
3233.11
3229.64
3228.04
3232
3238.52
3245.56
3265.1
3287.14
3305.93
3345.96
3379.73
3415.04
3458.83
3549.38
3584.02
3609.61
3741.47
3803.15
3888.39
3909.23
4043.75
4111.52
4249.8
4320.85
4445.92
4527.11
4658.06
4765.07
4908.45
5023.38
5142.4
5265.53
5400.18
5562.84
5716.18
5948.41
6118.83
6352.06
6598.26
6764.45
7080.11
7245.91
7594.87
7739.05
8086.95
8234.76
8589.83
8737.63
9084.09
9236.86
9569.39
9703.92
10008.4
10126
10399.7
10501.9
10751.3
10849.7
11075.6
11214.7
11342.5
11513.7
11590.3
11687.6
11839.9
11887.4
12006.7
12057
12171.2
12214.9
12308
12340.4
12415.3
12441.3
12502.2
12518.6
12568.6
12585
12633.2
12651.7
12690.6
12706.6
12738.7
12752
12779.6
12799.2
12810.3
12826.1
12836.6
12852.5
12869.9
12887.3
12900.3
12906.2
12900.5
12886.5
12874.8
12887.8
12909.4
12936.4
12969.5
13005.9
13030.3
13025.7