/*--------------------------------*- C++ -*----------------------------------*\
| =========                 |                                                 |
| \\      /  F ield         | OpenFOAM: The Open Source CFD Toolbox           |
|  \\    /   O peration     | Version:  2312                                  |
|   \\  /    A nd           | Website:  www.openfoam.com                      |
|    \\/     M anipulation  |                                                 |
\*---------------------------------------------------------------------------*/
FoamFile
{
    version     2.0;
    format      ascii;
    arch        "LSB;label=32;scalar=64";
    class       surfaceScalarField;
    location    "0.005";
    object      phi;
}
// * * * * * * * * * * * * * * * * * * * * * * * * * * * * * * * * * * * * * //

dimensions      [1 0 -1 0 0 0 0];

oriented        oriented;

internalField   nonuniform List<scalar> 
95760
(
4.98998e-09
-4.99019e-09
7.58272e-09
-2.59292e-09
7.60788e-09
-2.53086e-11
7.23054e-09
3.77251e-10
6.77818e-09
4.52332e-10
3.44453e-09
3.33364e-09
-4.46118e-09
7.90574e-09
-1.66733e-08
1.22122e-08
-3.47347e-08
1.80614e-08
-5.41782e-08
1.94436e-08
-7.11305e-08
1.69524e-08
-8.58074e-08
1.46769e-08
-9.83828e-08
1.25756e-08
-1.0914e-07
1.0758e-08
-1.18474e-07
9.33442e-09
-1.26716e-07
8.24272e-09
-1.34169e-07
7.45359e-09
-1.41049e-07
6.88158e-09
-1.47514e-07
6.4648e-09
-1.53617e-07
6.10372e-09
-1.5946e-07
5.84373e-09
-1.65047e-07
5.58681e-09
-1.70391e-07
5.34327e-09
-1.7548e-07
5.0886e-09
-1.80302e-07
4.82045e-09
-1.84797e-07
4.49445e-09
-1.89e-07
4.20211e-09
-1.92839e-07
3.8369e-09
-1.96531e-07
3.69133e-09
-1.99956e-07
3.42346e-09
-2.027e-07
2.7442e-09
-2.04874e-07
2.17398e-09
-2.06533e-07
1.66115e-09
-2.07536e-07
1.00528e-09
-2.07648e-07
1.1541e-10
-2.07207e-07
-4.37753e-10
-2.06005e-07
-1.20096e-09
-2.04047e-07
-1.95806e-09
-2.01087e-07
-2.96402e-09
-1.97156e-07
-3.93862e-09
-1.92197e-07
-4.97019e-09
-1.86261e-07
-5.94845e-09
-1.7871e-07
-7.56044e-09
-1.69739e-07
-8.97431e-09
-1.59335e-07
-1.03982e-08
-1.48042e-07
-1.12758e-08
-1.35182e-07
-1.28338e-08
-1.20724e-07
-1.44252e-08
-1.04208e-07
-1.64859e-08
-8.65263e-08
-1.76654e-08
-6.70153e-08
-1.95182e-08
-4.64505e-08
-2.05971e-08
-2.40358e-08
-2.2465e-08
-3.75453e-10
-2.37196e-08
2.36152e-08
-2.40417e-08
5.01213e-08
-2.65366e-08
7.78575e-08
-2.77382e-08
1.07259e-07
-2.93793e-08
1.37583e-07
-3.0283e-08
1.68887e-07
-3.12481e-08
2.00922e-07
-3.19731e-08
2.33596e-07
-3.26161e-08
2.66899e-07
-3.32552e-08
3.00643e-07
-3.37094e-08
3.35023e-07
-3.43591e-08
3.69541e-07
-3.45009e-08
4.04388e-07
-3.48332e-08
4.39182e-07
-3.47819e-08
4.73707e-07
-3.45208e-08
5.0833e-07
-3.46297e-08
5.42584e-07
-3.42729e-08
5.76697e-07
-3.41359e-08
6.10767e-07
-3.40949e-08
6.44344e-07
-3.35953e-08
6.7779e-07
-3.34609e-08
7.10409e-07
-3.26183e-08
7.42641e-07
-3.22186e-08
7.73764e-07
-3.1102e-08
8.04088e-07
-3.03041e-08
8.33093e-07
-2.89883e-08
8.61278e-07
-2.81794e-08
8.88162e-07
-2.68829e-08
9.14567e-07
-2.64154e-08
9.40323e-07
-2.57751e-08
9.65716e-07
-2.54157e-08
9.89893e-07
-2.41986e-08
1.01326e-06
-2.33849e-08
1.03536e-06
-2.21119e-08
1.05667e-06
-2.13266e-08
1.07698e-06
-2.03066e-08
1.0967e-06
-1.97237e-08
1.11548e-06
-1.87729e-08
1.1337e-06
-1.82157e-08
1.15101e-06
-1.73182e-08
1.16768e-06
-1.66712e-08
1.18365e-06
-1.59727e-08
1.19914e-06
-1.55094e-08
1.21395e-06
-1.48219e-08
1.22801e-06
-1.4085e-08
1.24149e-06
-1.34952e-08
1.25425e-06
-1.27759e-08
1.26635e-06
-1.21061e-08
1.27786e-06
-1.15043e-08
1.28892e-06
-1.10521e-08
1.29945e-06
-1.05265e-08
1.30956e-06
-1.00909e-08
1.31919e-06
-9.62394e-09
1.32853e-06
-9.32598e-09
1.33743e-06
-8.90322e-09
1.34608e-06
-8.65072e-09
1.35434e-06
-8.26255e-09
1.36216e-06
-7.82876e-09
1.36966e-06
-7.51154e-09
1.37691e-06
-7.26183e-09
1.38422e-06
-7.31573e-09
1.39136e-06
-7.15576e-09
1.39799e-06
-6.64171e-09
1.40425e-06
-6.2716e-09
1.41018e-06
-5.93582e-09
1.41702e-06
-6.83847e-09
1.421e-06
-3.97439e-09
1.42402e-06
-3.01767e-09
1.4292e-06
-5.17474e-09
1.43286e-06
-3.65436e-09
1.43745e-06
-4.59259e-09
1.44212e-06
-4.66761e-09
1.4468e-06
-4.67414e-09
1.45122e-06
-4.40843e-09
1.45555e-06
-4.32811e-09
1.45983e-06
-4.27199e-09
1.46397e-06
-4.12605e-09
1.46798e-06
-4.00981e-09
1.47195e-06
-3.96273e-09
1.47569e-06
-3.73332e-09
1.47931e-06
-3.61245e-09
1.48274e-06
-3.42953e-09
1.48599e-06
-3.26028e-09
1.48913e-06
-3.14288e-09
1.49213e-06
-3.01716e-09
1.49499e-06
-2.86206e-09
1.49771e-06
-2.73937e-09
1.50034e-06
-2.63398e-09
1.50285e-06
-2.52658e-09
1.50524e-06
-2.39976e-09
1.50755e-06
-2.31602e-09
1.50953e-06
-1.9922e-09
1.51135e-06
-1.83812e-09
1.51285e-06
-1.50401e-09
1.51469e-06
-1.84714e-09
1.51554e-06
-8.54138e-10
1.51608e-06
-5.4551e-10
1.51712e-06
-1.03136e-09
1.51763e-06
-5.1249e-10
1.51842e-06
-7.78509e-10
1.51906e-06
-6.33252e-10
1.51969e-06
-6.24735e-10
1.52035e-06
-6.51077e-10
1.52099e-06
-6.3657e-10
1.52165e-06
-6.60355e-10
1.52229e-06
-6.33959e-10
1.52291e-06
-6.18853e-10
1.52364e-06
-7.28589e-10
1.52424e-06
-6.08045e-10
1.52481e-06
-5.68941e-10
1.52521e-06
-4.13127e-10
1.5255e-06
-2.99176e-10
1.52573e-06
-2.3852e-10
1.52586e-06
-1.40816e-10
1.52593e-06
-7.75291e-11
1.5259e-06
2.37264e-11
1.52574e-06
1.59136e-10
1.52558e-06
1.54078e-10
1.52533e-06
2.53888e-10
1.52511e-06
2.14111e-10
1.5249e-06
2.17384e-10
1.52466e-06
2.32523e-10
1.52444e-06
2.20318e-10
1.52428e-06
1.67942e-10
1.52413e-06
1.42599e-10
1.52406e-06
6.82216e-11
1.52409e-06
-2.25642e-11
1.52406e-06
3.23385e-11
1.52419e-06
-1.33234e-10
1.52423e-06
-3.16314e-11
1.52418e-06
4.66469e-11
1.52409e-06
9.30113e-11
1.52391e-06
1.80508e-10
1.52366e-06
2.43695e-10
1.5234e-06
2.6169e-10
1.52285e-06
5.42466e-10
1.52238e-06
4.76886e-10
1.5218e-06
5.73207e-10
1.5214e-06
4.03066e-10
1.5209e-06
5.07516e-10
1.52042e-06
4.76035e-10
1.51998e-06
4.44131e-10
1.51957e-06
4.07387e-10
1.51924e-06
3.33306e-10
1.51896e-06
2.86609e-10
1.5187e-06
2.5498e-10
1.51845e-06
2.55311e-10
1.51813e-06
3.17133e-10
1.51786e-06
2.68003e-10
1.5175e-06
3.63321e-10
1.5171e-06
4.01231e-10
1.51653e-06
5.64837e-10
1.51595e-06
5.80544e-10
1.51528e-06
6.63365e-10
1.51465e-06
6.33645e-10
1.51397e-06
6.82375e-10
1.51336e-06
6.0839e-10
1.51273e-06
6.32326e-10
1.51213e-06
5.93751e-10
1.51161e-06
5.28752e-10
1.51111e-06
4.92979e-10
1.51066e-06
4.51973e-10
1.51024e-06
4.23123e-10
1.50967e-06
5.65333e-10
1.5093e-06
3.66229e-10
1.50883e-06
4.75927e-10
1.50819e-06
6.37694e-10
1.50759e-06
5.96603e-10
1.50692e-06
6.74603e-10
1.50613e-06
7.89917e-10
1.50535e-06
7.82118e-10
1.50457e-06
7.75558e-10
1.50379e-06
7.85411e-10
1.50305e-06
7.37685e-10
1.50232e-06
7.27004e-10
1.50162e-06
6.95176e-10
1.50096e-06
6.58984e-10
1.50038e-06
5.84015e-10
1.49984e-06
5.36229e-10
1.49911e-06
7.36184e-10
1.49865e-06
4.63586e-10
1.49815e-06
4.96155e-10
1.49744e-06
7.08515e-10
1.4968e-06
6.45443e-10
1.49607e-06
7.29073e-10
8.40018e-10
7.05611e-09
-1.20465e-08
1.03503e-08
-5.88731e-09
1.01925e-08
1.3238e-10
7.6119e-09
2.95776e-09
4.20036e-10
7.64419e-09
-1.17243e-08
1.5478e-08
-2.97582e-08
2.59397e-08
-5.2179e-08
3.46331e-08
-7.15077e-08
3.73902e-08
-8.81889e-08
3.61248e-08
-1.02978e-07
3.17421e-08
-1.15613e-07
2.73118e-08
-1.26173e-07
2.31357e-08
-1.34989e-07
1.95742e-08
-1.42329e-07
1.66752e-08
-1.48695e-07
1.46096e-08
-1.54267e-07
1.30261e-08
-1.59269e-07
1.18842e-08
-1.63793e-07
1.09895e-08
-1.6792e-07
1.02319e-08
-1.71743e-07
9.66681e-09
-1.75265e-07
9.10869e-09
-1.78495e-07
8.57276e-09
-1.81421e-07
8.0141e-09
-1.84031e-07
7.42953e-09
-1.86375e-07
6.83724e-09
-1.88516e-07
6.34151e-09
-1.90132e-07
5.4518e-09
-1.91075e-07
4.63286e-09
-1.91374e-07
3.72159e-09
-1.91251e-07
2.62138e-09
-1.90489e-07
1.41155e-09
-1.89073e-07
2.46713e-10
-1.86949e-07
-1.11589e-09
-1.84072e-07
-2.75859e-09
-1.80422e-07
-4.08439e-09
-1.75994e-07
-5.62657e-09
-1.70695e-07
-7.25769e-09
-1.64321e-07
-9.34112e-09
-1.56877e-07
-1.13898e-08
-1.48303e-07
-1.35547e-08
-1.38738e-07
-1.55262e-08
-1.27621e-07
-1.86878e-08
-1.15044e-07
-2.15577e-08
-1.00853e-07
-2.45852e-08
-8.55696e-08
-2.65439e-08
-6.85729e-08
-2.98052e-08
-4.99044e-08
-3.30614e-08
-2.91308e-08
-3.72283e-08
-7.10537e-09
-3.96714e-08
1.69429e-08
-4.357e-08
4.25285e-08
-4.62105e-08
7.00887e-08
-5.00691e-08
9.86819e-08
-5.23649e-08
1.29669e-07
-5.50697e-08
1.62262e-07
-5.91532e-08
1.95963e-07
-6.14369e-08
2.30803e-07
-6.41973e-08
2.66678e-07
-6.61194e-08
3.03633e-07
-6.81512e-08
3.41342e-07
-6.96255e-08
3.79787e-07
-7.10067e-08
4.1889e-07
-7.23154e-08
4.58501e-07
-7.32915e-08
4.98741e-07
-7.45838e-08
5.39074e-07
-7.48222e-08
5.79807e-07
-7.55544e-08
6.20635e-07
-7.56003e-08
6.61323e-07
-7.52034e-08
7.02132e-07
-7.54433e-08
7.42443e-07
-7.45961e-08
7.82552e-07
-7.42614e-08
8.22386e-07
-7.39464e-08
8.61639e-07
-7.28605e-08
9.0063e-07
-7.24608e-08
9.3872e-07
-7.07076e-08
9.76306e-07
-6.9797e-08
1.01276e-06
-6.75428e-08
1.04835e-06
-6.58832e-08
1.08267e-06
-6.32896e-08
1.11613e-06
-6.1636e-08
1.14832e-06
-5.90622e-08
1.17988e-06
-5.79925e-08
1.21058e-06
-5.64886e-08
1.2407e-06
-5.55649e-08
1.26961e-06
-5.31317e-08
1.29767e-06
-5.1468e-08
1.32454e-06
-4.89976e-08
1.35059e-06
-4.73839e-08
1.37561e-06
-4.5332e-08
1.39994e-06
-4.40437e-08
1.42332e-06
-4.21415e-08
1.44601e-06
-4.09062e-08
1.46785e-06
-3.91491e-08
1.48898e-06
-3.78066e-08
1.50936e-06
-3.63593e-08
1.52908e-06
-3.52441e-08
1.54807e-06
-3.38388e-08
1.56635e-06
-3.23806e-08
1.58398e-06
-3.11478e-08
1.60094e-06
-2.97475e-08
1.6173e-06
-2.84826e-08
1.63311e-06
-2.73071e-08
1.6484e-06
-2.63425e-08
1.66316e-06
-2.52709e-08
1.67748e-06
-2.43968e-08
1.69132e-06
-2.34492e-08
1.70478e-06
-2.27667e-08
1.71774e-06
-2.18624e-08
1.73031e-06
-2.12234e-08
1.74249e-06
-2.04502e-08
1.75434e-06
-1.96935e-08
1.76588e-06
-1.90585e-08
1.77708e-06
-1.84805e-08
1.78807e-06
-1.8318e-08
1.7986e-06
-1.77018e-08
1.80831e-06
-1.6356e-08
1.81782e-06
-1.579e-08
1.82552e-06
-1.36461e-08
1.83724e-06
-1.8556e-08
1.84466e-06
-1.13898e-08
1.85127e-06
-9.6315e-09
1.86028e-06
-1.41751e-08
1.86891e-06
-1.22896e-08
1.8767e-06
-1.23786e-08
1.88466e-06
-1.26148e-08
1.89254e-06
-1.25539e-08
1.89994e-06
-1.18061e-08
1.90717e-06
-1.15521e-08
1.91426e-06
-1.13454e-08
1.92122e-06
-1.10807e-08
1.92803e-06
-1.0817e-08
1.93462e-06
-1.05461e-08
1.94091e-06
-1.0016e-08
1.94699e-06
-9.69245e-09
1.95283e-06
-9.27709e-09
1.95854e-06
-8.96453e-09
1.96412e-06
-8.72153e-09
1.96952e-06
-8.42991e-09
1.97469e-06
-8.03581e-09
1.97971e-06
-7.76457e-09
1.98458e-06
-7.51201e-09
1.98929e-06
-7.24379e-09
1.99378e-06
-6.90472e-09
1.99803e-06
-6.58277e-09
2.00194e-06
-5.91307e-09
2.00584e-06
-5.75493e-09
2.00913e-06
-4.80773e-09
2.01333e-06
-6.05473e-09
2.01667e-06
-4.20684e-09
2.01967e-06
-3.55553e-09
2.02301e-06
-4.36454e-09
2.0263e-06
-3.81045e-09
2.02953e-06
-3.99662e-09
2.03277e-06
-3.86771e-09
2.03593e-06
-3.77894e-09
2.03906e-06
-3.77362e-09
2.04206e-06
-3.63114e-09
2.04501e-06
-3.61146e-09
2.04787e-06
-3.48155e-09
2.0506e-06
-3.34661e-09
2.05313e-06
-3.26089e-09
2.05555e-06
-3.02586e-09
2.05782e-06
-2.84046e-09
2.05986e-06
-2.46011e-09
2.06168e-06
-2.12389e-09
2.06338e-06
-1.94431e-09
2.06489e-06
-1.65239e-09
2.06628e-06
-1.4715e-09
2.06745e-06
-1.15472e-09
2.0689e-06
-1.29055e-09
2.06998e-06
-9.31074e-10
2.07105e-06
-8.25585e-10
2.07213e-06
-8.62987e-10
2.07336e-06
-1.01238e-09
2.07459e-06
-1.00485e-09
2.07597e-06
-1.15921e-09
2.07733e-06
-1.19317e-09
2.07869e-06
-1.21247e-09
2.08e-06
-1.24635e-09
2.08126e-06
-1.27996e-09
2.08232e-06
-1.01962e-09
2.0832e-06
-1.01468e-09
2.08392e-06
-7.55427e-10
2.08436e-06
-3.8811e-10
2.08468e-06
-2.24798e-10
2.08489e-06
-2.68429e-11
2.08505e-06
7.8421e-11
2.08512e-06
1.96952e-10
2.08516e-06
4.91182e-10
2.08515e-06
4.90445e-10
2.08536e-06
3.57129e-10
2.0856e-06
1.62585e-10
2.08585e-06
2.62521e-10
2.08612e-06
2.01799e-10
2.08648e-06
8.42444e-11
2.08688e-06
1.08614e-11
2.08722e-06
-6.3603e-12
2.08749e-06
2.4702e-11
2.08764e-06
1.07841e-10
2.08765e-06
2.50042e-10
2.08749e-06
4.79628e-10
2.08725e-06
5.03436e-10
2.08686e-06
7.53579e-10
2.08643e-06
8.3372e-10
2.08586e-06
1.13988e-09
2.08529e-06
1.14628e-09
2.08474e-06
1.20777e-09
2.08427e-06
1.10223e-09
2.08386e-06
1.08726e-09
2.08357e-06
9.00575e-10
2.08329e-06
9.14966e-10
2.08303e-06
8.50711e-10
2.08277e-06
7.86725e-10
2.08252e-06
7.45295e-10
2.08216e-06
8.1175e-10
2.08184e-06
7.4585e-10
2.08091e-06
1.49069e-09
2.08032e-06
9.56477e-10
2.07968e-06
1.12038e-09
2.07879e-06
1.531e-09
2.0779e-06
1.48117e-09
2.077e-06
1.57534e-09
2.07601e-06
1.78416e-09
2.0751e-06
1.68603e-09
2.07426e-06
1.62513e-09
2.07347e-06
1.57582e-09
2.07272e-06
1.48305e-09
2.07205e-06
1.4005e-09
2.07138e-06
1.36003e-09
2.07074e-06
1.29432e-09
2.07004e-06
1.28599e-09
2.06942e-06
1.14851e-09
2.06818e-06
1.98216e-09
2.0674e-06
1.24459e-09
2.06658e-06
1.30959e-09
2.06538e-06
1.91271e-09
2.06423e-06
1.79687e-09
2.06308e-06
1.88685e-09
2.06645e-09
6.72569e-09
-1.87724e-08
9.43262e-09
-8.59441e-09
7.85538e-09
1.7095e-09
9.76848e-11
1.07154e-08
-1.31866e-08
2.09284e-08
-3.32051e-08
3.54966e-08
-5.43823e-08
4.71169e-08
-7.23712e-08
5.26221e-08
-8.76011e-08
5.26201e-08
-1.00338e-07
4.8862e-08
-1.11218e-07
4.26219e-08
-1.20036e-07
3.613e-08
-1.27568e-07
3.06678e-08
-1.34061e-07
2.60675e-08
-1.39642e-07
2.22566e-08
-1.44409e-07
1.93778e-08
-1.48521e-07
1.71387e-08
-1.52151e-07
1.55153e-08
-1.55414e-07
1.4253e-08
-1.58332e-07
1.31504e-08
-1.60963e-07
1.22981e-08
-1.6331e-07
1.14558e-08
-1.65366e-07
1.06284e-08
-1.67154e-07
9.80099e-09
-1.68663e-07
8.93807e-09
-1.69762e-07
7.93537e-09
-1.70283e-07
6.86105e-09
-1.70383e-07
5.54965e-09
-1.69989e-07
4.23778e-09
-1.69035e-07
2.76655e-09
-1.67501e-07
1.08668e-09
-1.65313e-07
-7.75903e-10
-1.62449e-07
-2.61575e-09
-1.58876e-07
-4.6872e-09
-1.54384e-07
-7.24678e-09
-1.48918e-07
-9.54754e-09
-1.4255e-07
-1.1992e-08
-1.35228e-07
-1.45802e-08
-1.26718e-07
-1.78527e-08
-1.16991e-07
-2.11231e-08
-1.05956e-07
-2.45997e-08
-9.38358e-08
-2.76596e-08
-8.00731e-08
-3.24627e-08
-6.47324e-08
-3.6906e-08
-4.75704e-08
-4.17457e-08
-2.91654e-08
-4.49359e-08
-8.75678e-09
-5.0191e-08
1.35302e-08
-5.5318e-08
3.81396e-08
-6.18061e-08
6.40305e-08
-6.55406e-08
9.20231e-08
-7.15625e-08
1.21438e-07
-7.56478e-08
1.53009e-07
-8.16761e-08
1.85814e-07
-8.52119e-08
2.20989e-07
-9.0274e-08
2.5782e-07
-9.59972e-08
2.95779e-07
-9.93855e-08
3.35133e-07
-1.03526e-07
3.75504e-07
-1.06454e-07
4.17016e-07
-1.09618e-07
4.59238e-07
-1.11798e-07
5.02219e-07
-1.13944e-07
5.45807e-07
-1.1587e-07
5.89865e-07
-1.1733e-07
6.34399e-07
-1.19111e-07
6.78932e-07
-1.1935e-07
7.23753e-07
-1.20366e-07
7.68401e-07
-1.2024e-07
8.12837e-07
-1.19635e-07
8.57162e-07
-1.19772e-07
9.00725e-07
-1.18168e-07
9.43958e-07
-1.17506e-07
9.86647e-07
-1.16644e-07
1.02862e-06
-1.1484e-07
1.07016e-06
-1.13995e-07
1.11065e-06
-1.11198e-07
1.15043e-06
-1.09566e-07
1.18897e-06
-1.06084e-07
1.22656e-06
-1.03469e-07
1.26282e-06
-9.95473e-08
1.29818e-06
-9.69911e-08
1.33225e-06
-9.31214e-08
1.3656e-06
-9.13519e-08
1.3979e-06
-8.88032e-08
1.42936e-06
-8.70484e-08
1.45956e-06
-8.33528e-08
1.48881e-06
-8.07471e-08
1.51689e-06
-7.70983e-08
1.54414e-06
-7.46501e-08
1.57038e-06
-7.15669e-08
1.59586e-06
-6.95165e-08
1.62037e-06
-6.66445e-08
1.64418e-06
-6.47065e-08
1.6671e-06
-6.20588e-08
1.68932e-06
-6.00261e-08
1.71074e-06
-5.77925e-08
1.73144e-06
-5.59528e-08
1.75134e-06
-5.37583e-08
1.77051e-06
-5.15798e-08
1.78905e-06
-4.97078e-08
1.80692e-06
-4.76358e-08
1.82427e-06
-4.58436e-08
1.84113e-06
-4.41715e-08
1.8575e-06
-4.27045e-08
1.87335e-06
-4.11048e-08
1.88879e-06
-3.98247e-08
1.9038e-06
-3.8434e-08
1.91841e-06
-3.73674e-08
1.93252e-06
-3.59666e-08
1.94623e-06
-3.49309e-08
1.95952e-06
-3.37508e-08
1.97261e-06
-3.27868e-08
1.98541e-06
-3.18764e-08
1.9979e-06
-3.09823e-08
2.0101e-06
-3.05358e-08
2.02166e-06
-2.92725e-08
2.03224e-06
-2.69522e-08
2.04234e-06
-2.58955e-08
2.0508e-06
-2.21136e-08
2.0625e-06
-3.02524e-08
2.07172e-06
-2.06071e-08
2.07987e-06
-1.77774e-08
2.08994e-06
-2.42471e-08
2.10051e-06
-2.28538e-08
2.11032e-06
-2.21882e-08
2.11983e-06
-2.21192e-08
2.12902e-06
-2.17373e-08
2.13769e-06
-2.04705e-08
2.14613e-06
-1.99885e-08
2.15437e-06
-1.9574e-08
2.16251e-06
-1.92165e-08
2.17049e-06
-1.87862e-08
2.17818e-06
-1.82385e-08
2.18551e-06
-1.73464e-08
2.19259e-06
-1.67709e-08
2.1994e-06
-1.60812e-08
2.20608e-06
-1.56507e-08
2.21266e-06
-1.52977e-08
2.21905e-06
-1.48253e-08
2.22518e-06
-1.41637e-08
2.23116e-06
-1.37466e-08
2.23699e-06
-1.33469e-08
2.24264e-06
-1.28961e-08
2.24802e-06
-1.22998e-08
2.2531e-06
-1.16773e-08
2.25779e-06
-1.06165e-08
2.26239e-06
-1.03787e-08
2.26641e-06
-8.83745e-09
2.27125e-06
-1.09125e-08
2.2755e-06
-8.46795e-09
2.27939e-06
-7.45271e-09
2.28356e-06
-8.53893e-09
2.28785e-06
-8.10974e-09
2.29205e-06
-8.19025e-09
2.29632e-06
-8.13199e-09
2.3005e-06
-7.95472e-09
2.30463e-06
-7.90131e-09
2.30862e-06
-7.61483e-09
2.31255e-06
-7.53109e-09
2.31633e-06
-7.26135e-09
2.31996e-06
-6.96917e-09
2.32331e-06
-6.61043e-09
2.3265e-06
-6.21336e-09
2.32949e-06
-5.82614e-09
2.33218e-06
-5.14885e-09
2.3346e-06
-4.55215e-09
2.33687e-06
-4.21318e-09
2.33891e-06
-3.6933e-09
2.34082e-06
-3.3891e-09
2.34253e-06
-2.87878e-09
2.34455e-06
-3.3107e-09
2.34622e-06
-2.61041e-09
2.34791e-06
-2.51612e-09
2.34962e-06
-2.58535e-09
2.35153e-06
-2.9163e-09
2.35349e-06
-2.97116e-09
2.35555e-06
-3.22029e-09
2.35764e-06
-3.28741e-09
2.35975e-06
-3.31856e-09
2.36172e-06
-3.22129e-09
2.36354e-06
-3.09437e-09
2.36513e-06
-2.60563e-09
2.36647e-06
-2.35136e-09
2.36756e-06
-1.84581e-09
2.36836e-06
-1.18353e-09
2.36887e-06
-7.39681e-10
2.36932e-06
-4.68864e-10
2.36969e-06
-2.97483e-10
2.37003e-06
-1.39656e-10
2.37033e-06
1.83345e-10
2.37062e-06
2.03024e-10
2.37121e-06
-2.34149e-10
2.37175e-06
-3.83225e-10
2.3724e-06
-3.89836e-10
2.3731e-06
-4.98321e-10
2.37389e-06
-7.11578e-10
2.37472e-06
-8.14501e-10
2.37541e-06
-6.95724e-10
2.37597e-06
-5.27613e-10
2.37633e-06
-2.45491e-10
2.37643e-06
1.49664e-10
2.37642e-06
4.94609e-10
2.37619e-06
7.44018e-10
2.3758e-06
1.13999e-09
2.37534e-06
1.2923e-09
2.37485e-06
1.63575e-09
2.37431e-06
1.67888e-09
2.37385e-06
1.67199e-09
2.37347e-06
1.47414e-09
2.37325e-06
1.30328e-09
2.37311e-06
1.04414e-09
2.37302e-06
9.99985e-10
2.37297e-06
8.98929e-10
2.37285e-06
9.11216e-10
2.37274e-06
8.55048e-10
2.37243e-06
1.11475e-09
2.3721e-06
1.0818e-09
2.37113e-06
2.45715e-09
2.37034e-06
1.74767e-09
2.36958e-06
1.88e-09
2.36861e-06
2.50428e-09
2.36755e-06
2.53971e-09
2.36652e-06
2.60537e-09
2.36547e-06
2.84056e-09
2.36451e-06
2.64407e-09
2.36363e-06
2.50807e-09
2.36283e-06
2.37272e-09
2.36207e-06
2.23933e-09
2.36143e-06
2.04542e-09
2.36078e-06
2.00408e-09
2.36017e-06
1.90404e-09
2.35938e-06
2.07753e-09
2.35865e-06
1.8747e-09
2.3573e-06
3.32411e-09
2.35623e-06
2.31575e-09
2.35519e-06
2.34867e-09
2.35376e-06
3.3452e-09
2.35234e-06
3.22333e-09
2.35095e-06
3.2834e-09
3.48685e-09
5.46938e-09
-2.4242e-08
6.33293e-09
-9.45814e-09
5.899e-10
7.4524e-09
-1.19812e-08
2.32864e-08
-3.14581e-08
4.04053e-08
-5.11391e-08
5.51777e-08
-6.78078e-08
6.37858e-08
-8.16521e-08
6.64664e-08
-9.30311e-08
6.39992e-08
-1.02094e-07
5.7925e-08
-1.09659e-07
5.01868e-08
-1.16384e-07
4.28547e-08
-1.22027e-07
3.63109e-08
-1.26754e-07
3.07948e-08
-1.30802e-07
2.63058e-08
-1.34266e-07
2.28427e-08
-1.37279e-07
2.01522e-08
-1.3991e-07
1.81471e-08
-1.42291e-07
1.66345e-08
-1.4439e-07
1.52497e-08
-1.46238e-07
1.41468e-08
-1.47839e-07
1.30572e-08
-1.49199e-07
1.19884e-08
-1.50253e-07
1.08539e-08
-1.50892e-07
9.57656e-09
-1.51149e-07
8.19132e-09
-1.50928e-07
6.63805e-09
-1.50159e-07
4.77905e-09
-1.48805e-07
2.88313e-09
-1.46863e-07
8.22881e-10
-1.44279e-07
-1.49757e-09
-1.40914e-07
-4.141e-09
-1.36736e-07
-6.79293e-09
-1.31754e-07
-9.66643e-09
-1.2569e-07
-1.33084e-08
-1.18492e-07
-1.67424e-08
-1.10244e-07
-2.02376e-08
-1.00943e-07
-2.38795e-08
-9.0297e-08
-2.85004e-08
-7.82574e-08
-3.31676e-08
-6.4681e-08
-3.81861e-08
-4.99391e-08
-4.24146e-08
-3.32892e-08
-4.91258e-08
-1.49637e-08
-5.52407e-08
5.50568e-09
-6.22156e-08
2.74493e-08
-6.68691e-08
5.17546e-08
-7.4477e-08
7.80024e-08
-8.15384e-08
1.06729e-07
-9.05021e-08
1.36725e-07
-9.55131e-08
1.69162e-07
-1.03997e-07
2.03118e-07
-1.09622e-07
2.39511e-07
-1.18099e-07
2.77118e-07
-1.22851e-07
3.17282e-07
-1.30454e-07
3.59052e-07
-1.37768e-07
4.01855e-07
-1.42166e-07
4.46269e-07
-1.47911e-07
4.91645e-07
-1.51796e-07
5.38245e-07
-1.56181e-07
5.85389e-07
-1.58906e-07
6.33321e-07
-1.61845e-07
6.8172e-07
-1.64253e-07
7.30446e-07
-1.66052e-07
7.79452e-07
-1.68124e-07
8.28264e-07
-1.68164e-07
8.7721e-07
-1.69304e-07
9.25685e-07
-1.68703e-07
9.7385e-07
-1.67792e-07
1.0215e-06
-1.67425e-07
1.06804e-06
-1.64719e-07
1.11411e-06
-1.63583e-07
1.15925e-06
-1.61792e-07
1.20351e-06
-1.59089e-07
1.24707e-06
-1.57548e-07
1.28936e-06
-1.53475e-07
1.33066e-06
-1.50859e-07
1.37056e-06
-1.45979e-07
1.40932e-06
-1.42245e-07
1.44667e-06
-1.36903e-07
1.48301e-06
-1.33336e-07
1.518e-06
-1.28106e-07
1.55216e-06
-1.2552e-07
1.58499e-06
-1.21643e-07
1.6167e-06
-1.18773e-07
1.64696e-06
-1.13635e-07
1.67625e-06
-1.10062e-07
1.70427e-06
-1.05148e-07
1.73151e-06
-1.01906e-07
1.75769e-06
-9.77488e-08
1.78309e-06
-9.49118e-08
1.80748e-06
-9.10211e-08
1.83118e-06
-8.83936e-08
1.85391e-06
-8.47774e-08
1.87596e-06
-8.20704e-08
1.89715e-06
-7.89896e-08
1.91755e-06
-7.63591e-08
1.93708e-06
-7.33119e-08
1.9559e-06
-7.0421e-08
1.97409e-06
-6.79209e-08
1.99162e-06
-6.51854e-08
2.0087e-06
-6.29493e-08
2.02538e-06
-6.08572e-08
2.04159e-06
-5.89083e-08
2.05731e-06
-5.68079e-08
2.07266e-06
-5.51602e-08
2.08762e-06
-5.33709e-08
2.10221e-06
-5.19319e-08
2.11629e-06
-5.0044e-08
2.13e-06
-4.86314e-08
2.14328e-06
-4.70365e-08
2.15645e-06
-4.59674e-08
2.16939e-06
-4.48341e-08
2.18207e-06
-4.36821e-08
2.1944e-06
-4.28779e-08
2.20593e-06
-4.08123e-08
2.2164e-06
-3.74337e-08
2.22611e-06
-3.56071e-08
2.23468e-06
-3.06891e-08
2.24489e-06
-4.0458e-08
2.25483e-06
-3.05502e-08
2.26405e-06
-2.69936e-08
2.27413e-06
-3.43198e-08
2.28522e-06
-3.39494e-08
2.29592e-06
-3.28884e-08
2.30606e-06
-3.22508e-08
2.31571e-06
-3.13851e-08
2.32478e-06
-2.95423e-08
2.33363e-06
-2.88241e-08
2.34223e-06
-2.81674e-08
2.35076e-06
-2.77388e-08
2.35912e-06
-2.71442e-08
2.36718e-06
-2.62874e-08
2.37483e-06
-2.49995e-08
2.3822e-06
-2.41509e-08
2.38927e-06
-2.31542e-08
2.39626e-06
-2.26353e-08
2.40314e-06
-2.21805e-08
2.40984e-06
-2.15255e-08
2.41627e-06
-2.05843e-08
2.42257e-06
-2.00439e-08
2.42871e-06
-1.94917e-08
2.43467e-06
-1.88545e-08
2.44034e-06
-1.79787e-08
2.44566e-06
-1.70111e-08
2.45058e-06
-1.55537e-08
2.45533e-06
-1.51488e-08
2.4596e-06
-1.31212e-08
2.46433e-06
-1.56679e-08
2.46893e-06
-1.3078e-08
2.4732e-06
-1.17352e-08
2.47754e-06
-1.2888e-08
2.48212e-06
-1.26979e-08
2.48667e-06
-1.27344e-08
2.4913e-06
-1.27629e-08
2.49586e-06
-1.25082e-08
2.50037e-06
-1.24099e-08
2.50474e-06
-1.19742e-08
2.50904e-06
-1.18313e-08
2.51319e-06
-1.14068e-08
2.51716e-06
-1.09353e-08
2.52083e-06
-1.02703e-08
2.52431e-06
-9.68965e-09
2.52755e-06
-9.06402e-09
2.53045e-06
-8.04138e-09
2.53307e-06
-7.17911e-09
2.5355e-06
-6.6445e-09
2.53768e-06
-5.87201e-09
2.53972e-06
-5.43686e-09
2.54159e-06
-4.75336e-09
2.54373e-06
-5.45158e-09
2.54562e-06
-4.51392e-09
2.54754e-06
-4.43825e-09
2.54952e-06
-4.57349e-09
2.5517e-06
-5.0983e-09
2.55399e-06
-5.26299e-09
2.5564e-06
-5.63811e-09
2.55887e-06
-5.75652e-09
2.56134e-06
-5.78906e-09
2.56365e-06
-5.53386e-09
2.56576e-06
-5.20144e-09
2.5676e-06
-4.43998e-09
2.56914e-06
-3.8951e-09
2.57039e-06
-3.09518e-09
2.57131e-06
-2.09882e-09
2.57196e-06
-1.38563e-09
2.57244e-06
-9.43871e-10
2.57287e-06
-7.33549e-10
2.57326e-06
-5.22457e-10
2.5737e-06
-2.66438e-10
2.57417e-06
-2.66239e-10
2.57484e-06
-9.08572e-10
2.5756e-06
-1.14448e-09
2.57642e-06
-1.21329e-09
2.57735e-06
-1.42628e-09
2.57838e-06
-1.74973e-09
2.57944e-06
-1.87659e-09
2.58034e-06
-1.58706e-09
2.58107e-06
-1.2546e-09
2.58154e-06
-7.12433e-10
2.58171e-06
-1.06023e-11
2.58174e-06
4.72549e-10
2.58149e-06
9.95577e-10
2.58108e-06
1.54816e-09
2.58057e-06
1.80261e-09
2.58007e-06
2.13709e-09
2.57953e-06
2.22265e-09
2.57909e-06
2.1099e-09
2.57876e-06
1.79764e-09
2.57862e-06
1.43804e-09
2.57855e-06
1.11401e-09
2.57854e-06
1.0116e-09
2.5786e-06
8.31868e-10
2.57859e-06
9.17907e-10
2.57856e-06
8.85234e-10
2.5783e-06
1.37876e-09
2.57791e-06
1.46883e-09
2.57695e-06
3.41825e-09
2.57602e-06
2.68079e-09
2.57515e-06
2.75455e-09
2.5741e-06
3.55046e-09
2.57291e-06
3.7327e-09
2.57175e-06
3.76072e-09
2.57063e-06
3.96787e-09
2.56961e-06
3.66047e-09
2.56868e-06
3.43684e-09
2.56786e-06
3.19543e-09
2.56708e-06
3.02199e-09
2.56644e-06
2.68303e-09
2.5658e-06
2.64686e-09
2.56519e-06
2.50889e-09
2.56437e-06
2.8971e-09
2.56351e-06
2.73216e-09
2.56215e-06
4.68484e-09
2.56086e-06
3.59725e-09
2.55964e-06
3.57314e-09
2.55806e-06
4.92123e-09
2.55643e-06
4.86246e-09
2.55483e-06
4.87943e-09
5.06665e-09
2.89275e-09
-2.71349e-08
-2.77837e-10
-6.28773e-09
-1.051e-08
1.76844e-08
-2.74634e-08
4.02397e-08
-4.54986e-08
5.84404e-08
-6.103e-08
7.07091e-08
-7.39196e-08
7.66755e-08
-8.43176e-08
7.68644e-08
-9.23914e-08
7.20731e-08
-9.88795e-08
6.44131e-08
-1.04439e-07
5.57467e-08
-1.09197e-07
4.76119e-08
-1.13237e-07
4.03516e-08
-1.1667e-07
3.42278e-08
-1.19649e-07
2.92848e-08
-1.22243e-07
2.54373e-08
-1.24524e-07
2.24338e-08
-1.26512e-07
2.01366e-08
-1.28263e-07
1.83862e-08
-1.29778e-07
1.67648e-08
-1.31049e-07
1.54185e-08
-1.32086e-07
1.40944e-08
-1.32814e-07
1.27163e-08
-1.33171e-07
1.12098e-08
-1.33174e-07
9.57899e-09
-1.3272e-07
7.73654e-09
-1.31676e-07
5.59211e-09
-1.29994e-07
3.09655e-09
-1.27651e-07
5.3873e-10
-1.24635e-07
-2.1949e-09
-1.2089e-07
-5.24337e-09
-1.16214e-07
-8.81708e-09
-1.10569e-07
-1.24366e-08
-1.04039e-07
-1.61958e-08
-9.62407e-08
-2.11037e-08
-8.71197e-08
-2.58603e-08
-7.67653e-08
-3.0589e-08
-6.52514e-08
-3.53915e-08
-5.21609e-08
-4.15908e-08
-3.74421e-08
-4.789e-08
-2.08454e-08
-5.47919e-08
-2.74289e-09
-6.05299e-08
1.71752e-08
-6.90571e-08
3.91111e-08
-7.71868e-08
6.3611e-08
-8.67173e-08
8.97515e-08
-9.30006e-08
1.18786e-07
-1.03497e-07
1.49954e-07
-1.12683e-07
1.84021e-07
-1.24541e-07
2.19379e-07
-1.30851e-07
2.57843e-07
-1.42459e-07
2.97914e-07
-1.49709e-07
3.40896e-07
-1.61106e-07
3.84821e-07
-1.668e-07
4.31718e-07
-1.77353e-07
4.80007e-07
-1.86043e-07
5.29071e-07
-1.91195e-07
5.80218e-07
-1.99023e-07
6.31979e-07
-2.03525e-07
6.85042e-07
-2.09214e-07
7.38277e-07
-2.12117e-07
7.92147e-07
-2.15701e-07
8.46112e-07
-2.18222e-07
9.00249e-07
-2.20204e-07
9.54264e-07
-2.22167e-07
1.00779e-06
-2.217e-07
1.06112e-06
-2.22622e-07
1.11351e-06
-2.2107e-07
1.16526e-06
-2.19532e-07
1.21611e-06
-2.18269e-07
1.26557e-06
-2.14203e-07
1.3144e-06
-2.12427e-07
1.36186e-06
-2.0925e-07
1.40815e-06
-2.05382e-07
1.45342e-06
-2.02796e-07
1.49707e-06
-1.97095e-07
1.53942e-06
-1.93195e-07
1.58007e-06
-1.86626e-07
1.61939e-06
-1.81581e-07
1.65708e-06
-1.74614e-07
1.69369e-06
-1.69962e-07
1.72879e-06
-1.63209e-07
1.76287e-06
-1.59609e-07
1.79517e-06
-1.53944e-07
1.82611e-06
-1.49719e-07
1.8554e-06
-1.42938e-07
1.88378e-06
-1.38474e-07
1.91081e-06
-1.32199e-07
1.93713e-06
-1.28245e-07
1.96231e-06
-1.22946e-07
1.98671e-06
-1.19311e-07
2.01005e-06
-1.14348e-07
2.03271e-06
-1.11045e-07
2.05428e-06
-1.06328e-07
2.07519e-06
-1.02969e-07
2.09515e-06
-9.89574e-08
2.11427e-06
-9.54776e-08
2.13249e-06
-9.15434e-08
2.15002e-06
-8.79694e-08
2.16694e-06
-8.4868e-08
2.18322e-06
-8.14925e-08
2.19918e-06
-7.89318e-08
2.21479e-06
-7.64778e-08
2.22994e-06
-7.40615e-08
2.24464e-06
-7.14931e-08
2.25903e-06
-6.95371e-08
2.27309e-06
-6.73987e-08
2.28678e-06
-6.56048e-08
2.30002e-06
-6.32634e-08
2.31291e-06
-6.15169e-08
2.32539e-06
-5.95156e-08
2.33786e-06
-5.84514e-08
2.35016e-06
-5.71449e-08
2.36229e-06
-5.58303e-08
2.37393e-06
-5.45416e-08
2.38463e-06
-5.15176e-08
2.39421e-06
-4.7023e-08
2.40276e-06
-4.41612e-08
2.41087e-06
-3.88004e-08
2.41915e-06
-4.87277e-08
2.42883e-06
-4.02269e-08
2.43877e-06
-3.69301e-08
2.44813e-06
-4.36809e-08
2.4591e-06
-4.49146e-08
2.46975e-06
-4.35464e-08
2.47977e-06
-4.22687e-08
2.48921e-06
-4.0824e-08
2.49807e-06
-3.8398e-08
2.50672e-06
-3.74745e-08
2.51511e-06
-3.65439e-08
2.52346e-06
-3.60802e-08
2.53163e-06
-3.53091e-08
2.53947e-06
-3.41182e-08
2.54689e-06
-3.24282e-08
2.55404e-06
-3.13083e-08
2.56086e-06
-2.99792e-08
2.56765e-06
-2.94229e-08
2.57432e-06
-2.88579e-08
2.58082e-06
-2.80245e-08
2.58705e-06
-2.68055e-08
2.59319e-06
-2.61768e-08
2.59918e-06
-2.54681e-08
2.60497e-06
-2.46464e-08
2.61047e-06
-2.34733e-08
2.61557e-06
-2.21254e-08
2.62031e-06
-2.0308e-08
2.62478e-06
-1.96418e-08
2.62895e-06
-1.731e-08
2.63321e-06
-1.99531e-08
2.63772e-06
-1.7604e-08
2.64204e-06
-1.6074e-08
2.64619e-06
-1.70469e-08
2.65066e-06
-1.71686e-08
2.65518e-06
-1.72592e-08
2.65979e-06
-1.73777e-08
2.66435e-06
-1.70639e-08
2.66888e-06
-1.69358e-08
2.67327e-06
-1.6355e-08
2.6776e-06
-1.61585e-08
2.68177e-06
-1.55736e-08
2.68575e-06
-1.49121e-08
2.6894e-06
-1.3913e-08
2.69286e-06
-1.31428e-08
2.69605e-06
-1.22503e-08
2.69886e-06
-1.08426e-08
2.70142e-06
-9.73868e-09
2.70374e-06
-8.9687e-09
2.7058e-06
-7.92764e-09
2.70772e-06
-7.35768e-09
2.70951e-06
-6.54634e-09
2.71149e-06
-7.44013e-09
2.71332e-06
-6.35078e-09
2.71523e-06
-6.35166e-09
2.71722e-06
-6.57718e-09
2.71943e-06
-7.30679e-09
2.72177e-06
-7.61485e-09
2.72429e-06
-8.16105e-09
2.72688e-06
-8.34519e-09
2.7295e-06
-8.40658e-09
2.73191e-06
-7.94435e-09
2.73411e-06
-7.4039e-09
2.73599e-06
-6.3211e-09
2.73757e-06
-5.46944e-09
2.7388e-06
-4.32885e-09
2.73967e-06
-2.96882e-09
2.74028e-06
-1.98789e-09
2.74067e-06
-1.33362e-09
2.74103e-06
-1.08944e-09
2.74134e-06
-8.29183e-10
2.74175e-06
-6.80889e-10
2.74223e-06
-7.43465e-10
2.74287e-06
-1.56e-09
2.74365e-06
-1.92491e-09
2.74453e-06
-2.0991e-09
2.74554e-06
-2.44241e-09
2.74668e-06
-2.88431e-09
2.74782e-06
-3.02287e-09
2.74879e-06
-2.55836e-09
2.74958e-06
-2.03566e-09
2.75007e-06
-1.19528e-09
2.75023e-06
-1.63203e-10
2.75021e-06
4.93568e-10
2.74988e-06
1.33507e-09
2.74939e-06
2.03618e-09
2.74879e-06
2.41412e-09
2.74817e-06
2.75423e-09
2.74757e-06
2.82337e-09
2.7471e-06
2.57904e-09
2.74675e-06
2.14688e-09
2.74659e-06
1.59328e-09
2.74653e-06
1.17361e-09
2.74652e-06
1.01531e-09
2.74662e-06
7.23043e-10
2.74663e-06
9.04785e-10
2.74663e-06
8.91359e-10
2.74635e-06
1.65105e-09
2.74586e-06
1.9569e-09
2.7449e-06
4.38062e-09
2.74381e-06
3.77301e-09
2.74278e-06
3.79446e-09
2.74165e-06