/*--------------------------------*- C++ -*----------------------------------*\
| =========                 |                                                 |
| \\      /  F ield         | OpenFOAM: The Open Source CFD Toolbox           |
|  \\    /   O peration     | Version:  2312                                  |
|   \\  /    A nd           | Website:  www.openfoam.com                      |
|    \\/     M anipulation  |                                                 |
\*---------------------------------------------------------------------------*/
FoamFile
{
    version     2.0;
    format      ascii;
    arch        "LSB;label=32;scalar=64";
    class       volScalarField;
    location    "0.005";
    object      rho;
}
// * * * * * * * * * * * * * * * * * * * * * * * * * * * * * * * * * * * * * //

dimensions      [1 -3 0 0 0 0 0];

internalField   nonuniform List<scalar> 
48128
(
0.0352051
0.0352036
0.0351718
0.0351604
0.0351472
0.0351239
0.0350897
0.0350372
0.0349541
0.0348469
0.0346337
0.0343905
0.0341645
0.0339799
0.0338394
0.0337488
0.0336961
0.0336783
0.0337039
0.0337719
0.0338743
0.0340156
0.0341996
0.0344306
0.034714
0.0350555
0.0354566
0.0359262
0.0364689
0.0370877
0.037781
0.0385495
0.0394005
0.040337
0.0413605
0.042472
0.0436607
0.0449387
0.0463046
0.0477512
0.0492872
0.0509024
0.0526277
0.0544158
0.0563037
0.0582465
0.0603025
0.0624141
0.06463
0.0668739
0.0692131
0.0715753
0.0740164
0.0764529
0.0789641
0.0814632
0.0839864
0.0865117
0.0890338
0.0915441
0.0940287
0.0964834
0.0989037
0.101282
0.103623
0.10591
0.10815
0.110348
0.112463
0.114537
0.116536
0.118455
0.120331
0.122084
0.123805
0.125383
0.126946
0.128362
0.129776
0.131059
0.132363
0.133539
0.134733
0.135803
0.136852
0.137774
0.138688
0.139522
0.140359
0.141125
0.141897
0.142585
0.143272
0.143889
0.144497
0.145055
0.145585
0.146059
0.146493
0.146908
0.147296
0.147679
0.148057
0.148427
0.14879
0.149147
0.149498
0.149843
0.150171
0.150483
0.150781
0.151089
0.151407
0.151719
0.152039
0.152301
0.15243
0.152489
0.15239
0.15225
0.152806
0.152889
0.153007
0.153448
0.153811
0.154153
0.154475
0.154733
0.154958
0.15518
0.155407
0.155632
0.155858
0.15604
0.15621
0.156354
0.156499
0.156645
0.156794
0.156919
0.157043
0.157165
0.157289
0.157387
0.157481
0.157522
0.157549
0.157533
0.15751
0.157621
0.157634
0.157648
0.157712
0.157771
0.15786
0.15795
0.158046
0.15814
0.15824
0.158334
0.158424
0.158498
0.158555
0.158604
0.158627
0.15862
0.158602
0.158571
0.15853
0.158479
0.158412
0.158405
0.158382
0.158376
0.158383
0.158418
0.158465
0.158537
0.158619
0.158695
0.158769
0.158819
0.158861
0.158867
0.158852
0.158822
0.158773
0.158717
0.158663
0.158614
0.158576
0.158551
0.158556
0.158574
0.158601
0.158644
0.158698
0.158752
0.158795
0.158829
0.158831
0.158818
0.158791
0.158751
0.158698
0.158648
0.158602
0.15856
0.158542
0.158531
0.158535
0.158556
0.158588
0.15862
0.158655
0.158676
0.15869
0.1587
0.158641
0.158609
0.158572
0.158519
0.158471
0.158425
0.158392
0.158375
0.158366
0.158364
0.158375
0.158395
0.158424
0.158443
0.158464
0.158477
0.158429
0.158411
0.158377
0.158323
0.158274
0.158206
0.0352021
0.0352049
0.0351706
0.0351602
0.0351605
0.0351391
0.0351221
0.0351088
0.0350466
0.034945
0.0347775
0.0346025
0.034451
0.0343292
0.0342508
0.0341945
0.0341693
0.0341731
0.0342126
0.0342881
0.034392
0.0345287
0.0347022
0.034917
0.0351794
0.0354964
0.0358712
0.0363068
0.0368093
0.0373804
0.038027
0.038748
0.0395466
0.0404274
0.0413942
0.042447
0.0435798
0.0448031
0.0461164
0.0475157
0.0490083
0.0505828
0.0522712
0.0540373
0.0559117
0.0578523
0.0599075
0.0620318
0.0642705
0.066559
0.0689507
0.0713872
0.0739105
0.0764511
0.0790691
0.0817002
0.0843725
0.0870604
0.0897551
0.0924517
0.0951371
0.0978091
0.100462
0.103087
0.105687
0.108243
0.11076
0.113234
0.115628
0.117989
0.120278
0.122487
0.124651
0.126689
0.128697
0.130558
0.132405
0.134103
0.135796
0.137359
0.138938
0.140392
0.141857
0.143189
0.144488
0.145662
0.146822
0.147906
0.148987
0.149996
0.151001
0.151923
0.152835
0.153678
0.154507
0.155285
0.156027
0.156708
0.157351
0.15797
0.158562
0.159149
0.15973
0.160298
0.160857
0.161406
0.16195
0.16248
0.162993
0.163481
0.163954
0.164438
0.164932
0.165415
0.165901
0.166319
0.166593
0.166798
0.166837
0.166859
0.167608
0.167843
0.16815
0.168729
0.169239
0.169699
0.170147
0.170528
0.170873
0.171213
0.171557
0.171895
0.172234
0.172524
0.172802
0.17305
0.1733
0.173551
0.173803
0.174029
0.174251
0.17447
0.174688
0.174878
0.17506
0.175184
0.175299
0.175373
0.175448
0.175666
0.175775
0.175896
0.176051
0.176214
0.176393
0.176579
0.176766
0.176949
0.177133
0.177306
0.177477
0.17762
0.177743
0.17786
0.177944
0.177995
0.178036
0.178062
0.178076
0.178075
0.178066
0.178108
0.178135
0.178174
0.178238
0.178318
0.178414
0.178537
0.178668
0.178793
0.178907
0.179
0.179069
0.179103
0.179107
0.179095
0.179062
0.179019
0.178988
0.178948
0.178927
0.178919
0.178947
0.178987
0.179036
0.179101
0.179179
0.179255
0.179315
0.179364
0.179374
0.179367
0.179343
0.179303
0.179251
0.179196
0.179149
0.179106
0.179091
0.179083
0.179094
0.179121
0.17916
0.179198
0.179236
0.179258
0.179271
0.179272
0.179205
0.179165
0.179116
0.179054
0.178995
0.178937
0.178896
0.178872
0.178857
0.17885
0.178856
0.178871
0.178895
0.178907
0.17892
0.178913
0.178852
0.178822
0.178769
0.178697
0.178631
0.178537
0.035205
0.035197
0.0351605
0.0351634
0.0351627
0.0351678
0.0351852
0.0351711
0.0351149
0.0350193
0.0348744
0.0347235
0.0345608
0.0344112
0.034288
0.0342076
0.0341632
0.0341467
0.0341652
0.0342176
0.0342974
0.0344084
0.0345553
0.0347444
0.0349831
0.0352724
0.0356213
0.0360273
0.0365006
0.0370402
0.0376541
0.038347
0.0391196
0.0399752
0.0409224
0.0419554
0.0430725
0.0442813
0.0455846
0.0469786
0.0484717
0.0500502
0.0517484
0.053534
0.0554361
0.0574133
0.0595094
0.0616868
0.0639915
0.0663605
0.0688442
0.0713835
0.0740208
0.0766841
0.0794364
0.082219
0.0850447
0.0878983
0.0907666
0.0936442
0.096518
0.0993833
0.102233
0.10506
0.107861
0.110617
0.113335
0.116003
0.118599
0.12116
0.123639
0.126037
0.128382
0.130592
0.13277
0.134794
0.136797
0.138643
0.140483
0.142187
0.143903
0.145491
0.147089
0.148542
0.149949
0.151224
0.152485
0.153667
0.154845
0.155946
0.157042
0.158051
0.159048
0.159972
0.160883
0.161739
0.162556
0.163305
0.164018
0.164703
0.165361
0.166015
0.166663
0.167299
0.167924
0.168539
0.16915
0.169747
0.170325
0.170877
0.171414
0.17196
0.17252
0.173069
0.17362
0.174091
0.174419
0.174669
0.174768
0.174813
0.175593
0.175935
0.176309
0.176938
0.177535
0.178067
0.178577
0.179016
0.179419
0.179814
0.180211
0.180603
0.180993
0.181332
0.181658
0.181952
0.182247
0.182545
0.182842
0.183113
0.18338
0.183643
0.183905
0.184136
0.184359
0.18452
0.18467
0.18478
0.184885
0.185137
0.185291
0.185449
0.185642
0.185849
0.186068
0.186298
0.186527
0.186752
0.186978
0.187189
0.1874
0.187579
0.187736
0.187886
0.187999
0.188079
0.188146
0.188198
0.188236
0.188258
0.188277
0.188344
0.1884
0.188466
0.188558
0.188665
0.188795
0.188941
0.189099
0.189252
0.189391
0.189504
0.189593
0.189644
0.189663
0.189665
0.189644
0.189613
0.189589
0.189568
0.189556
0.189568
0.189605
0.189658
0.189722
0.189802
0.189896
0.189985
0.190056
0.190116
0.190132
0.190131
0.190109
0.19007
0.190019
0.189969
0.189923
0.189882
0.189871
0.189868
0.189883
0.189916
0.189961
0.190003
0.190046
0.190069
0.190082
0.190081
0.19001
0.189964
0.189913
0.189845
0.189781
0.18972
0.189676
0.189649
0.189632
0.189624
0.189628
0.189641
0.189664
0.189673
0.18968
0.189669
0.189597
0.189557
0.189495
0.189414
0.189337
0.18923
0.0352141
0.0351752
0.0351538
0.0351561
0.0351899
0.0352257
0.0352369
0.0352131
0.0351366
0.0350135
0.0348462
0.0346479
0.0344702
0.0343213
0.034196
0.0341083
0.0340527
0.0340215
0.0340239
0.0340579
0.0341195
0.0342121
0.0343417
0.0345142
0.0347335
0.0350019
0.0353298
0.0357134
0.036165
0.0366852
0.0372803
0.0379571
0.0387136
0.0395535
0.04049
0.0415127
0.0426238
0.043828
0.0451331
0.0465331
0.0480398
0.0496341
0.0513631
0.0531841
0.0551327
0.0571604
0.0593257
0.061584
0.0639871
0.066459
0.0690675
0.0717374
0.0745263
0.0773446
0.0802695
0.0832387
0.0862466
0.0892952
0.0923659
0.0954502
0.0985358
0.101616
0.104682
0.107724
0.110741
0.1137
0.116628
0.11949
0.122281
0.125031
0.127681
0.130256
0.132761
0.135121
0.137445
0.139599
0.141731
0.143687
0.145636
0.147441
0.149254
0.150932
0.152626
0.154154
0.155623
0.156947
0.158258
0.159484
0.160707
0.161847
0.162981
0.164021
0.165052
0.166003
0.166942
0.16782
0.16866
0.169421
0.17015
0.170849
0.171519
0.172185
0.172846
0.173497
0.174137
0.174768
0.175392
0.176006
0.176598
0.177166
0.177717
0.178279
0.178855
0.179424
0.179994
0.18047
0.180808
0.181059
0.181188
0.181223
0.181943
0.18237
0.182783
0.183406
0.184043
0.184612
0.185144
0.185603
0.186032
0.186448
0.186865
0.187276
0.187684
0.188041
0.188385
0.188696
0.189007
0.18932
0.189633
0.189921
0.190204
0.190483
0.190762
0.191008
0.191244
0.191418
0.19158
0.191706
0.191818
0.192069
0.192249
0.192421
0.192626
0.192849
0.193084
0.193331
0.193577
0.193819
0.194062
0.19429
0.194518
0.194712
0.194883
0.195046
0.195171
0.195263
0.19534
0.195401
0.195448
0.19548
0.195506
0.195582
0.195652
0.195729
0.195834
0.195953
0.196098
0.196258
0.19643
0.196597
0.196749
0.196873
0.196973
0.197031
0.197056
0.197065
0.197049
0.197024
0.197002
0.196987
0.196983
0.197004
0.197046
0.197105
0.197177
0.197266
0.197368
0.197465
0.197543
0.197609
0.197626
0.19763
0.197608
0.197569
0.197517
0.197468
0.197422
0.197382
0.197373
0.197372
0.19739
0.197425
0.197474
0.197519
0.197563
0.197588
0.197599
0.197596
0.197526
0.197473
0.197419
0.197348
0.197279
0.197213
0.197167
0.197138
0.197119
0.197109
0.197112
0.197124
0.197145
0.197153
0.197155
0.197141
0.197064
0.197015
0.196946
0.196858
0.196774
0.196657
0.0352187
0.0351573
0.0351512
0.0351782
0.035238
0.0352649
0.0352595
0.0352001
0.0350865
0.0349252
0.0347255
0.03453
0.0343495
0.0341939
0.0340656
0.0339703
0.0339049
0.0338645
0.0338555
0.0338765
0.0339253
0.0340056
0.0341227
0.0342806
0.0344841
0.0347369
0.0350463
0.0354149
0.035851
0.0363567
0.0369381
0.037604
0.0383494
0.0391786
0.040112
0.0411327
0.042247
0.0434575
0.044779
0.0462003
0.0477391
0.049362
0.051154
0.0530394
0.0550721
0.0571836
0.0594651
0.0618516
0.0644065
0.0670255
0.0698153
0.0726719
0.0756793
0.0787175
0.0818899
0.0850999
0.0883555
0.091664
0.0949977
0.098352
0.101703
0.105053
0.108384
0.111682
0.11495
0.11814
0.121304
0.124374
0.127372
0.130311
0.133125
0.135878
0.138534
0.141034
0.143492
0.145752
0.147993
0.15003
0.15206
0.153931
0.15581
0.157543
0.159299
0.160858
0.162348
0.163682
0.165006
0.166238
0.16747
0.16861
0.169746
0.17078
0.171808
0.172747
0.173675
0.174536
0.175357
0.176094
0.176802
0.177477
0.178124
0.178769
0.179409
0.180039
0.180658
0.18127
0.181875
0.182471
0.183043
0.183597
0.184132
0.18468
0.185241
0.1858
0.186357
0.186803
0.18712
0.187344
0.18748
0.187491
0.188102
0.188593
0.189036
0.189626
0.190266
0.190844
0.191369
0.191826
0.19226
0.192673
0.193088
0.193498
0.193901
0.194254
0.194596
0.194905
0.195213
0.195523
0.195831
0.196116
0.196399
0.196675
0.196951
0.197194
0.197425
0.197597
0.197753
0.197881
0.197988
0.198218
0.198409
0.198585
0.198785
0.199009
0.199245
0.199492
0.19974
0.199984
0.20023
0.20046
0.20069
0.200886
0.201059
0.201222
0.201346
0.201438
0.201515
0.201574
0.20162
0.201653
0.201675
0.201748
0.201821
0.2019
0.202006
0.202128
0.202277
0.202442
0.202619
0.20279
0.202945
0.203072
0.203175
0.203233
0.203258
0.203268
0.203252
0.203226
0.203202
0.203186
0.203184
0.203206
0.203248
0.203309
0.203385
0.203477
0.20358
0.203681
0.20376
0.203828
0.203844
0.203848
0.203823
0.203783
0.203728
0.203676
0.203628
0.203587
0.203577
0.203575
0.203592
0.203627
0.203676
0.203722
0.203766
0.20379
0.203798
0.203793
0.203723
0.203661
0.203602
0.203528
0.203453
0.203383
0.203333
0.203301
0.203279
0.203266
0.203266
0.203276
0.203295
0.203301
0.203297
0.203281
0.2032
0.203142
0.203067
0.202973
0.202881
0.202753
0.0352522
0.0351602
0.0351853
0.0352313
0.0352732
0.0352832
0.0352382
0.0351349
0.0349844
0.034796
0.0345893
0.0343922
0.0342096
0.0340511
0.0339206
0.0338209
0.0337496
0.0337038
0.0336872
0.0336991
0.0337392
0.0338091
0.0339146
0.0340591
0.0342486
0.0344866
0.034781
0.0351381
0.0355618
0.036056
0.0366272
0.0372874
0.0380276
0.0388523
0.0397932
0.0408236
0.041952
0.0431857
0.0445442
0.046012
0.0476165
0.0493036
0.051178
0.0531684
0.0553383
0.0575912
0.0600589
0.0626467
0.0654369
0.0682885
0.071357
0.0744915
0.0778223
0.0811804
0.0847246
0.0882472
0.0918584
0.0955453
0.099235
0.102967
0.106671
0.110379
0.114054
0.117675
0.121255
0.124722
0.128165
0.131467
0.134696
0.137832
0.140809
0.143745
0.146533
0.149153
0.151717
0.154041
0.156351
0.15842
0.160482
0.162363
0.164255
0.165975
0.16773
0.169249
0.170701
0.17199
0.173278
0.174464
0.17566
0.176748
0.177838
0.178816
0.179794
0.18067
0.181544
0.182341
0.183102
0.183773
0.184424
0.185038
0.18563
0.18622
0.186803
0.187376
0.187939
0.188499
0.189051
0.189597
0.190118
0.190626
0.191117
0.191623
0.19214
0.192662
0.193174
0.193554
0.19382
0.193989
0.194113
0.194083
0.194563
0.195091
0.195549
0.19609
0.196689
0.197248
0.197746
0.19818
0.1986
0.198992
0.199385
0.199771
0.200148
0.200478
0.200799
0.201087
0.201376
0.201663
0.201949
0.202214
0.202479
0.202735
0.202992
0.203215
0.203424
0.203579
0.203714
0.203831
0.20392
0.204114
0.204303
0.204468
0.204653
0.204863
0.205087
0.205322
0.20556
0.205794
0.206032
0.206251
0.206471
0.206656
0.206821
0.206972
0.207085
0.207167
0.207234
0.207281
0.207316
0.207342
0.207351
0.207411
0.207478
0.207552
0.20765
0.207766
0.207909
0.208069
0.208243
0.208409
0.208561
0.208682
0.208782
0.208832
0.208851
0.208856
0.208833
0.208799
0.208769
0.208745
0.208739
0.208754
0.208792
0.20885
0.208924
0.209014
0.209113
0.209211
0.209286
0.209352
0.209362
0.209362
0.209331
0.209286
0.209225
0.209166
0.209114
0.209069
0.209055
0.209049
0.209061
0.209093
0.209139
0.209181
0.209222
0.209242
0.209245
0.209235
0.209163
0.209093
0.209027
0.208946
0.208865
0.208789
0.208734
0.208696
0.208669
0.208652
0.208648
0.208654
0.208669
0.20867
0.208659
0.208641
0.208557
0.208487
0.208405
0.208305
0.208205
0.208066
0.035295
0.0352176
0.035243
0.0352788
0.0352986
0.0352694
0.0351793
0.0350425
0.0348663
0.0346564
0.0344449
0.0342465
0.0340649
0.0339073
0.0337775
0.0336765
0.0336022
0.033553
0.0335309
0.0335346
0.0335665
0.0336263
0.0337197
0.0338521
0.0340292
0.0342543
0.0345366
0.0348853
0.0353005
0.035787
0.0363515
0.0370132
0.0377577
0.0385845
0.0395489
0.0406101
0.0417699
0.043049
0.0444717
0.0460205
0.047729
0.0495282
0.0515538
0.0537132
0.0561014
0.0585895
0.0613494
0.0642503
0.067397
0.0706212
0.0741346
0.0776737
0.0814802
0.0852805
0.0893749
0.0933112
0.0974198
0.101661
0.105846
0.110068
0.114266
0.118445
0.12258
0.126618
0.130593
0.1344
0.138183
0.141751
0.14526
0.148614
0.151763
0.154884
0.157757
0.16047
0.16308
0.165399
0.167711
0.169738
0.171754
0.173568
0.17539
0.177008
0.178671
0.180051
0.18138
0.182539
0.183713
0.184767
0.185848
0.186799
0.187767
0.188606
0.189461
0.1902
0.190963
0.191629
0.192276
0.19283
0.193375
0.193878
0.194368
0.194859
0.195339
0.195811
0.196279
0.19675
0.197214
0.197673
0.19811
0.198543
0.19896
0.199397
0.199839
0.200293
0.200721
0.200996
0.20118
0.201269
0.201363
0.201274
0.201633
0.202132
0.202601
0.203068
0.203592
0.204102
0.204555
0.204948
0.205339
0.205686
0.20604
0.206379
0.206707
0.206995
0.207279
0.207528
0.207783
0.208028
0.208272
0.2085
0.208733
0.208952
0.209172
0.209358
0.209529
0.209653
0.209753
0.209844
0.209903
0.210051
0.210218
0.210362
0.210521
0.210705
0.210904
0.211114
0.21133
0.211541
0.211759
0.211956
0.212155
0.212317
0.212464
0.212592
0.212682
0.212746
0.212791
0.212818
0.212833
0.212843
0.21283
0.212867
0.21292
0.21298
0.213061
0.213163
0.213291
0.213439
0.213601
0.213753
0.213894
0.213999
0.214089
0.214124
0.214131
0.214123
0.214087
0.214041
0.213998
0.21396
0.213943
0.213946
0.213975
0.214024
0.21409
0.214172
0.21426
0.214349
0.214415
0.214471
0.214475
0.214464
0.214424
0.214369
0.214299
0.21423
0.214169
0.214116
0.214094
0.214079
0.214083
0.214108
0.214147
0.214182
0.214216
0.214229
0.214222
0.214206
0.214131
0.214049
0.213972
0.213883
0.213794
0.213709
0.213647
0.213602
0.213567
0.213544
0.213534
0.213533
0.213541
0.213537
0.213517
0.213493
0.213405
0.213324
0.213232
0.213126
0.213016
0.212864
0.0353719
0.0352877
0.0353024
0.0353179
0.0353011
0.0352277
0.0351053
0.0349447
0.0347364
0.034515
0.0343025
0.0341045
0.0339267
0.0337732
0.0336456
0.0335442
0.0334679
0.0334165
0.0333896
0.0333846
0.0334081
0.0334582
0.033541
0.0336627
0.0338296
0.0340442
0.0343169
0.0346615
0.0350732
0.0355579
0.0361203
0.0367943
0.0375632
0.0383997
0.0394029
0.0405237
0.0417583
0.0430994
0.0446346
0.0463154
0.048199
0.050194
0.0524766
0.0549176
0.0576371
0.0604947
0.063698
0.0670432
0.0706866
0.0744361
0.0786135
0.0826884
0.0871285
0.0915031
0.0962875
0.10081
0.105583
0.110474
0.115303
0.120125
0.124949
0.129683
0.134382
0.138905
0.143356
0.14757
0.15178
0.155651
0.1595
0.163062
0.166426
0.169737
0.172652
0.175495
0.178067
0.180369
0.182621
0.184568
0.186473
0.188168
0.189833
0.191295
0.192788
0.193931
0.195062
0.195984
0.196948
0.197757
0.198635
0.19934
0.200093
0.200693
0.201328
0.20183
0.202403
0.202843
0.203304
0.203666
0.204029
0.20435
0.204666
0.204996
0.205307
0.205627
0.205954
0.20629
0.20662
0.206948
0.207261
0.207578
0.207882
0.208217
0.208547
0.208897
0.209184
0.209317
0.209383
0.209372
0.209419
0.209261
0.209496
0.209908
0.210376
0.210752
0.211168
0.21159
0.211982
0.212314
0.212656
0.212937
0.213232
0.213499
0.213758
0.213987
0.214215
0.214409
0.214614
0.214797
0.214982
0.215157
0.215341
0.215506
0.215673
0.215803
0.215922
0.215999
0.21605
0.216102
0.216118
0.21621
0.216336
0.216448
0.216571
0.216715
0.216876
0.217048
0.21723
0.217406
0.217594
0.217755
0.217922
0.218049
0.218171
0.218261
0.218319
0.218356
0.218369
0.218365
0.218352
0.218335
0.218293
0.218299
0.218328
0.218365
0.218422
0.218503
0.218607
0.218736
0.218875
0.219003
0.219124
0.219208
0.21928
0.219291
0.219281
0.219252
0.219199
0.219133
0.21907
0.219012
0.218979
0.218967
0.218979
0.219012
0.219064
0.219131
0.219203
0.219276
0.219329
0.21937
0.219361
0.219334
0.21928
0.219212
0.219128
0.219045
0.218971
0.218906
0.218872
0.218845
0.218837
0.218849
0.218878
0.218903
0.218924
0.218927
0.218907
0.218882
0.218799
0.218703
0.218613
0.218513
0.218414
0.218318
0.218246
0.21819
0.218146
0.218113
0.218094
0.218084
0.218082
0.21807
0.218039
0.218008
0.217915
0.217819
0.217716
0.217601
0.217481
0.217313
0.0354359
0.0353612
0.0353543
0.0353389
0.0352815
0.0351744
0.0350286
0.0348348
0.0346057
0.0343829
0.0341701
0.033975
0.0338019
0.0336526
0.0335278
0.0334271
0.0333498
0.0332957
0.0332636
0.0332505
0.0332655
0.0333078
0.0333815
0.033494
0.0336539
0.0338612
0.0341275
0.0344737
0.034889
0.035383
0.0359507
0.036644
0.0374655
0.0383399
0.0394103
0.0406148
0.0419712
0.0434505
0.0451775
0.0470709
0.0492209
0.0515287
0.0541952
0.0570452
0.0602196
0.0636037
0.0674739
0.0713405
0.0756215
0.080006
0.084986
0.0897245
0.094902
0.0999603
0.105511
0.110882
0.116363
0.121929
0.127476
0.132952
0.13843
0.143729
0.148998
0.153998
0.15891
0.163506
0.168088
0.172266
0.176433
0.180142
0.183787
0.187221
0.190206
0.193205
0.195706
0.198061
0.200231
0.202144
0.203943
0.205562
0.207083
0.208422
0.209742
0.210675
0.211589
0.212259
0.212995
0.21352
0.214159
0.214581
0.215057
0.215383
0.215725
0.215935
0.216231
0.216373
0.216542
0.216631
0.216737
0.216794
0.216864
0.216959
0.217032
0.217134
0.217258
0.217397
0.217531
0.217666
0.2178
0.217945
0.218087
0.218275
0.218446
0.21864
0.218721
0.218685
0.218592
0.218473
0.218401
0.218208
0.2183
0.218615
0.219009
0.219266
0.219552
0.21985
0.220147
0.220402
0.220666
0.220868
0.221082
0.221259
0.221427
0.221579
0.221729
0.221852
0.221987
0.222094
0.2222
0.222305
0.222422
0.222516
0.222613
0.22267
0.222721
0.222736
0.222727
0.222719
0.222686
0.22271
0.22278
0.222845
0.222921
0.223009
0.22312
0.223244
0.223378
0.223508
0.223653
0.223769
0.22389
0.223974
0.224056
0.224099
0.224116
0.224114
0.224086
0.224042
0.223992
0.223937
0.22386
0.223828
0.223823
0.223828
0.223854
0.223905
0.22398
0.224077
0.224185
0.224282
0.224373
0.224428
0.224473
0.224455
0.224417
0.224363
0.224287
0.224196
0.224105
0.224024
0.223968
0.223935
0.223922
0.223934
0.223966
0.224013
0.224062
0.224113
0.224146
0.224166
0.224137
0.224092
0.224019
0.223932
0.223831
0.22373
0.223639
0.223558
0.223506
0.223464
0.22344
0.223435
0.223448
0.223458
0.223464
0.223451
0.223415
0.223377
0.223282
0.223171
0.223064
0.222951
0.222838
0.222729
0.222644
0.222574
0.222518
0.222473
0.222442
0.22242
0.222405
0.222382
0.222338
0.222297
0.222195
0.222084
0.221969
0.221843
0.221711
0.221525
0.0354859
0.0354201
0.035393
0.035343
0.0352525
0.0351163
0.0349467
0.0347205
0.0344876
0.0342637
0.0340525
0.033862
0.0336937
0.0335483
0.0334262
0.0333269
0.033249
0.0331909
0.0331524
0.033134
0.0331419
0.0331775
0.0332438
0.0333492
0.0335064
0.0337117
0.0339744
0.0343328
0.0347583
0.0352707
0.0358675
0.036613
0.0374965
0.0384507
0.0396494
0.0409995
0.0425434
0.0442462
0.0462583
0.0484713
0.0509914
0.0537571
0.0569757
0.0603161
0.0640503
0.0680463
0.0727556
0.0772392
0.0822368
0.0873296
0.0930497
0.0985644
0.104534
0.11031
0.116567
0.122854
0.128932
0.135073
0.141213
0.147275
0.153232
0.159054
0.164645
0.170091
0.175258
0.18021
0.184941
0.189431
0.193758
0.19762
0.201511
0.204995
0.208127
0.211179
0.213691
0.216149
0.218299
0.220206
0.222011
0.223574
0.225093
0.226382
0.227666
0.228427
0.229305
0.229794
0.230458
0.230759
0.231252
0.231458
0.231735
0.231852
0.231981
0.231961
0.232016
0.231872
0.231779
0.231595
0.231449
0.23123
0.231035
0.23086
0.230649
0.230482
0.230344
0.230225
0.230106
0.22999
0.229894
0.229812
0.229751
0.229737
0.229692
0.229683
0.229489
0.229241
0.228972
0.228723
0.228495
0.228243
0.228178
0.228355
0.228596
0.2287
0.228826
0.228972
0.229145
0.2293
0.22947
0.22957
0.229684
0.229745
0.229801
0.229855
0.229908
0.22994
0.229988
0.23
0.23001
0.230027
0.230061
0.230067
0.230076
0.230041
0.230006
0.229944
0.229861
0.229783
0.22969
0.229638
0.229629
0.229634
0.229649
0.229674
0.22972
0.229781
0.229855
0.229929
0.230018
0.230077
0.230141
0.230171
0.230202
0.230187
0.23015
0.230101
0.230022
0.229931
0.229835
0.229732
0.229613
0.229534
0.229487
0.229452
0.229438
0.229449
0.229488
0.229544
0.229611
0.229668
0.229722
0.229742
0.229751
0.229696
0.229626
0.22954
0.229433
0.22931
0.229188
0.229075
0.228993
0.228931
0.228888
0.228871
0.228877
0.228897
0.228917
0.22894
0.228947
0.228942
0.228887
0.22882
0.228723
0.228613
0.22849
0.228366
0.228254
0.228152
0.22808
0.228017
0.227972
0.227948
0.227939
0.22793
0.227916
0.227883
0.227827
0.227774
0.227662
0.227534
0.227407
0.227276
0.227147
0.227022
0.226921
0.226835
0.226762
0.226703
0.226658
0.22662
0.22659
0.226552
0.226492
0.22644
0.226324
0.226197
0.226067
0.225928
0.225783
0.225576
0.0355132
0.0354541
0.0354104
0.0353342
0.035216
0.0350518
0.0348609
0.0346165
0.0343841
0.0341598
0.0339528
0.0337672
0.0336035
0.033462
0.0333423
0.0332435
0.0331637
0.0331017
0.033059
0.0330367
0.0330388
0.0330694
0.0331306
0.0332316
0.0333915
0.0336045
0.0338646
0.0342468
0.0347019
0.0352572
0.0359046
0.036743
0.0377457
0.0388272
0.0402247
0.0417965
0.0436102
0.0456455
0.0480476
0.0506961
0.0536657
0.0569657
0.0609239
0.0647748
0.0691711
0.0737933
0.0793088
0.0845129
0.0902693
0.0959695
0.102239
0.108505
0.115099
0.121544
0.128298
0.135264
0.141794
0.148455
0.154764
0.16124
0.167321
0.173451
0.179198
0.184895
0.190218
0.195343
0.20015
0.20477
0.209159
0.213186
0.217153
0.220731
0.224088
0.227116
0.229757
0.23228
0.234494
0.23655
0.238484
0.240051
0.24168
0.243016
0.244331
0.245102
0.246045
0.246583
0.247284
0.247579
0.248039
0.248214
0.248419
0.248472
0.248527
0.248409
0.248349
0.248037
0.247801
0.247448
0.247149
0.246741
0.246356
0.245983
0.245538
0.245141
0.244767
0.244408
0.244048
0.243702
0.243375
0.243077
0.242807
0.242584
0.24229
0.242017
0.241554
0.241047
0.240587
0.24018
0.239816
0.23941
0.239189
0.239143
0.239181
0.239113
0.239062
0.239036
0.239049
0.239081
0.239134
0.239113
0.239106
0.239023
0.238948
0.238881
0.238815
0.238739
0.23868
0.238573
0.238472
0.238384
0.238313
0.23821
0.238113
0.23797
0.237831
0.237677
0.237509
0.237349
0.23718
0.237038
0.236941
0.23687
0.23681
0.23676
0.236729
0.236715
0.236715
0.236721
0.236742
0.236733
0.236729
0.236692
0.236663
0.236576
0.23648
0.236371
0.236232
0.236084
0.235933
0.235776
0.235607
0.235474
0.235375
0.235292
0.235231
0.235195
0.235185
0.235192
0.23521
0.23522
0.235228
0.235203
0.235169
0.235071
0.234962
0.234837
0.234691
0.234533
0.234374
0.234225
0.23411
0.234012
0.233933
0.233882
0.233855
0.233842
0.233828
0.233817
0.23379
0.233754
0.233669
0.233575
0.233449
0.233311
0.233162
0.233012
0.232875
0.232747
0.232649
0.232561
0.232493
0.232443
0.232409
0.232376
0.232338
0.23228
0.232201
0.232128
0.231995
0.231848
0.231697
0.231546
0.231399
0.231254
0.231135
0.231029
0.230937
0.230859
0.230797
0.230741
0.230691
0.230636
0.230558
0.230491
0.230359
0.230215
0.230066
0.229913
0.229752
0.229522
0.0355256
0.035464
0.0354089
0.0353131
0.035169
0.0349906
0.0347743
0.0345274
0.0342951
0.034074
0.0338717
0.0336906
0.0335313
0.0333934
0.0332757
0.0331766
0.0330948
0.0330304
0.0329846
0.0329592
0.0329571
0.0329856
0.0330454
0.0331466
0.0333148
0.033546
0.0338218
0.0342388
0.0347491
0.0353902
0.0361315
0.0371146
0.038297
0.0395777
0.0412554
0.0431232
0.0452707
0.0477574
0.0506887
0.0538059
0.0572912
0.0611276
0.0658573
0.0703226
0.075467
0.0806121
0.0866936
0.0925665
0.0989813
0.105153
0.111691
0.118638
0.12551
0.132535
0.139308
0.146656
0.15348
0.160265
0.166534
0.172926
0.179057
0.185127
0.191048
0.196669
0.202158
0.207167
0.212137
0.216666
0.221171
0.22524
0.229149
0.232791
0.236256
0.239369
0.242257
0.244798
0.247013
0.249288
0.251362
0.253133
0.254969
0.25631
0.257657
0.258644
0.259753
0.260548
0.261397
0.261909
0.262478
0.262796
0.263109
0.263261
0.263404
0.263392
0.263394
0.263115
0.262909
0.262564
0.262292
0.261859
0.261452
0.261024
0.260494
0.260006
0.259497
0.259
0.258493
0.258
0.257522
0.257072
0.256658
0.25628
0.255763
0.255211
0.254512
0.253769
0.253145
0.252589
0.252122
0.251633
0.251231
0.250937
0.250722
0.25046
0.250224
0.250015
0.249858
0.249744
0.249666
0.249505
0.249358
0.249118
0.248895
0.248686
0.248481
0.248279
0.24809
0.247845
0.247614
0.247402
0.247204
0.246971
0.246747
0.246483
0.246224
0.245961
0.245698
0.245444
0.245186
0.244949
0.244749
0.244586
0.244438
0.244301
0.244181
0.244079
0.243994
0.24392
0.24386
0.243768
0.243686
0.243573
0.24347
0.243304
0.243138
0.24296
0.242752
0.242537
0.242323
0.242104
0.241879
0.241683
0.241523
0.241384
0.241267
0.241177
0.241111
0.24106
0.24102
0.240973
0.240928
0.24085
0.240764
0.240621
0.240465
0.240295
0.240104
0.239904
0.239703
0.239513
0.239358
0.239219
0.239099
0.239008
0.238941
0.238887
0.238833
0.238783
0.238718
0.238643
0.238524
0.238398
0.238239
0.238068
0.237889
0.237709
0.237542
0.237385
0.237257
0.23714
0.237043
0.236964
0.236899
0.236838
0.23677
0.236685
0.236578
0.236481
0.236324
0.236155
0.235978
0.235802
0.235634
0.235468
0.235326
0.235197
0.235083
0.234984
0.234901
0.234824
0.234751
0.234676
0.234576
0.234491
0.234341
0.234178
0.234008
0.233838
0.23366
0.233403
0.0355172
0.0354535
0.0353915
0.0352803
0.0351174
0.0349331
0.0346973
0.0344546
0.0342228
0.0340061
0.0338086
0.0336322
0.0334772
0.0333424
0.0332261
0.0331265
0.0330434
0.0329779
0.0329295
0.0329018
0.0328986
0.03293
0.0329948
0.0331004
0.0332907
0.0335462
0.0338637
0.0343622
0.0349634
0.0357312
0.0366194
0.0378113
0.0392315
0.0408036
0.0428617
0.0450738
0.0475456
0.0505233
0.0541961
0.057759
0.0618739
0.0661633
0.0715159
0.0766394
0.0825021
0.0881391
0.0944782
0.10076
0.107544
0.114112
0.120861
0.128004
0.134826
0.14207
0.148772
0.155993
0.162759
0.169264
0.175656
0.181697
0.187931
0.193603
0.199623
0.204883
0.210448
0.215227
0.220289
0.224632
0.229225
0.233158
0.237123
0.240634
0.244052
0.247143
0.250178
0.252869
0.255309
0.25772
0.25962
0.261743
0.263875
0.265047
0.266424
0.267645
0.269006
0.270056
0.271115
0.271895
0.272664
0.273197
0.273721
0.274078
0.274443
0.274666
0.274871
0.274867
0.274888
0.274768
0.274724
0.274506
0.274327
0.27404
0.273683
0.273342
0.272894
0.272451
0.271985
0.271511
0.271047
0.270591
0.270162
0.269736
0.269106
0.268337
0.267479
0.266643
0.265938
0.265331
0.264842
0.264398
0.263911
0.263369
0.262908
0.262463
0.262046
0.261665
0.261346
0.261085
0.260872
0.260577
0.260295
0.2599
0.259529
0.259172
0.258824
0.258485
0.258155
0.257763
0.257391
0.257042
0.256706
0.256329
0.255964
0.255566
0.255177
0.254796
0.254427
0.254071
0.253717
0.253372
0.253061
0.252791
0.252543
0.252307
0.252086
0.251886
0.251703
0.251537
0.251383
0.251198
0.251027
0.250826
0.250638
0.250387
0.25014
0.249884
0.249601
0.249313
0.249027
0.248738
0.248449
0.248188
0.247957
0.24775
0.247571
0.247418
0.247286
0.24717
0.247063
0.246951
0.246844
0.246705
0.246562
0.246365
0.246158
0.245936
0.245695
0.245448
0.245201
0.244965
0.244763
0.244577
0.244411
0.244275
0.244163
0.244062
0.243962
0.243866
0.243754
0.243637
0.24348
0.243316
0.24312
0.242912
0.242699
0.242485
0.242284
0.242094
0.241931
0.241782
0.241652
0.241539
0.241439
0.241344
0.241245
0.241128
0.240989
0.240863
0.240681
0.240486
0.24028
0.240076
0.239884
0.239693
0.239525
0.23937
0.239232
0.239109
0.239002
0.2389
0.238801
0.238703
0.238578
0.238471
0.238302
0.238117
0.237924
0.237735
0.237538
0.23725
0.0354882
0.035428
0.0353629
0.0352421
0.0350698
0.0348765
0.0346336
0.0343974
0.0341679
0.0339558
0.0337634
0.0335919
0.0334408
0.0333087
0.0331934
0.0330932
0.03301
0.0329442
0.0328948
0.0328664
0.0328674
0.0329077
0.0329813
0.0330985
0.0333343
0.0336557
0.0340437
0.0346653
0.035403
0.0363441
0.0374409
0.0389181
0.0406037
0.0425448
0.0451112
0.0476783
0.0504976
0.0539176
0.0583402
0.062445
0.0672968
0.0720343
0.0777889
0.0834634
0.0897655
0.0957924
0.10223
0.108685
0.11531
0.121945
0.128782
0.135634
0.142471
0.149437
0.156299
0.162917
0.169511
0.175502
0.181992
0.187748
0.19401
0.199254
0.205012
0.209916
0.215423
0.219952
0.224999
0.229264