/*--------------------------------*- C++ -*----------------------------------*\
| =========                 |                                                 |
| \\      /  F ield         | OpenFOAM: The Open Source CFD Toolbox           |
|  \\    /   O peration     | Version:  2312                                  |
|   \\  /    A nd           | Website:  www.openfoam.com                      |
|    \\/     M anipulation  |                                                 |
\*---------------------------------------------------------------------------*/
FoamFile
{
    version     2.0;
    format      ascii;
    arch        "LSB;label=32;scalar=64";
    class       volScalarField;
    location    "0.005";
    object      T;
}
// * * * * * * * * * * * * * * * * * * * * * * * * * * * * * * * * * * * * * //

dimensions      [0 0 0 1 0 0 0];

internalField   nonuniform List<scalar> 
48128
(
345.992
345.982
345.974
345.973
345.961
345.919
345.764
345.381
344.799
344.038
343.327
342.562
341.676
340.683
339.708
338.803
337.94
337.102
336.301
335.545
334.799
334.074
333.388
332.754
332.187
331.702
331.313
331.034
330.878
330.829
330.892
331.11
331.471
331.955
332.55
333.247
334.034
334.882
335.797
336.76
337.748
338.742
339.735
340.744
341.713
342.619
343.44
344.199
344.876
345.463
345.943
346.314
346.56
346.681
346.68
346.557
346.32
345.965
345.502
344.937
344.284
343.557
342.765
341.912
340.999
340.033
339.018
337.958
336.876
335.748
334.584
333.399
332.165
330.925
329.641
328.375
327.077
325.814
324.544
323.333
322.133
320.994
319.86
318.741
317.592
316.48
315.388
314.35
313.358
312.415
311.492
310.608
309.745
308.914
308.114
307.345
306.589
305.84
305.124
304.44
303.782
303.168
302.605
302.075
301.564
301.087
300.64
300.221
299.81
299.423
299.03
298.683
298.383
298.101
297.81
297.492
297.136
296.744
296.259
295.609
295.731
295.606
295.303
295.463
295.427
295.364
295.271
295.153
295.021
294.882
294.762
294.654
294.541
294.421
294.298
294.173
294.056
293.96
293.872
293.783
293.696
293.623
293.554
293.482
293.402
293.316
293.237
293.144
293.02
293.074
293.069
293.047
293.093
293.12
293.172
293.224
293.28
293.331
293.384
293.429
293.476
293.498
293.519
293.534
293.537
293.532
293.526
293.516
293.508
293.491
293.494
293.514
293.534
293.566
293.61
293.675
293.747
293.833
293.92
294.008
294.07
294.132
294.157
294.183
294.183
294.178
294.165
294.149
294.15
294.154
294.171
294.198
294.25
294.312
294.379
294.455
294.536
294.614
294.675
294.732
294.757
294.785
294.793
294.794
294.793
294.799
294.813
294.838
294.874
294.92
294.979
295.048
295.124
295.196
295.264
295.319
295.367
295.423
295.414
295.426
295.445
295.454
295.472
295.497
295.532
295.578
295.632
295.693
295.76
295.83
295.903
295.969
296.025
296.083
296.095
296.12
296.147
296.155
296.172
296.211
345.964
345.953
345.941
345.953
345.972
345.893
345.575
344.851
343.829
342.78
341.608
340.148
338.527
336.998
335.631
334.398
333.273
332.247
331.329
330.525
329.789
329.132
328.569
328.112
327.772
327.563
327.483
327.499
327.687
328.038
328.525
329.163
329.939
330.838
331.845
332.942
334.096
335.273
336.472
337.675
338.855
339.992
341.073
342.098
343.026
343.837
344.514
345.071
345.496
345.777
345.895
345.844
345.644
345.292
344.779
344.111
343.312
342.391
341.358
340.215
338.976
337.645
336.235
334.754
333.207
331.615
329.979
328.304
326.626
324.924
323.221
321.517
319.783
318.068
316.318
314.604
312.871
311.186
309.511
307.901
306.32
304.801
303.311
301.845
300.366
298.922
297.518
296.16
294.867
293.62
292.411
291.235
290.099
288.987
287.919
286.88
285.865
284.859
283.883
282.945
282.031
281.162
280.347
279.571
278.815
278.1
277.414
276.768
276.127
275.523
274.912
274.349
273.834
273.349
272.861
272.352
271.806
271.223
270.551
269.647
269.539
269.222
268.687
268.642
268.486
268.277
268.038
267.779
267.511
267.237
266.983
266.747
266.507
266.262
266.015
265.764
265.524
265.301
265.09
264.878
264.672
264.479
264.296
264.111
263.922
263.725
263.526
263.309
263.044
262.945
262.808
262.635
262.544
262.434
262.358
262.278
262.211
262.142
262.082
262.023
261.962
261.895
261.824
261.747
261.664
261.573
261.479
261.382
261.287
261.189
261.094
261.042
260.983
260.943
260.898
260.898
260.899
260.914
260.936
260.956
260.967
260.969
260.96
260.941
260.912
260.876
260.833
260.79
260.746
260.726
260.712
260.707
260.72
260.746
260.778
260.821
260.87
260.918
260.955
260.989
260.999
261.014
261.01
261.004
260.992
260.994
261
261.016
261.04
261.074
261.118
261.174
261.238
261.299
261.361
261.411
261.458
261.525
261.517
261.531
261.558
261.571
261.592
261.623
261.661
261.708
261.764
261.824
261.892
261.966
262.044
262.116
262.182
262.265
262.286
262.321
262.366
262.389
262.42
262.48
345.928
345.934
345.94
345.967
345.928
345.576
344.781
343.695
342.5
341.17
339.777
338.42
337.164
336.005
334.955
334.017
333.179
332.415
331.748
331.188
330.694
330.278
329.952
329.725
329.601
329.583
329.678
329.908
330.289
330.814
331.463
332.234
333.11
334.065
335.089
336.173
337.282
338.387
339.475
340.533
341.533
342.454
343.278
344.003
344.603
345.053
345.341
345.463
345.419
345.212
344.826
344.264
343.533
342.652
341.599
340.39
339.065
337.625
336.09
334.459
332.753
330.976
329.141
327.258
325.329
323.387
321.422
319.45
317.492
315.526
313.587
311.667
309.732
307.841
305.924
304.06
302.197
300.392
298.615
296.909
295.247
293.652
292.097
290.569
289.039
287.549
286.113
284.722
283.401
282.126
280.89
279.684
278.523
277.383
276.292
275.23
274.19
273.164
272.169
271.211
270.276
269.385
268.546
267.741
266.957
266.211
265.495
264.814
264.14
263.502
262.858
262.262
261.71
261.188
260.659
260.113
259.536
258.922
258.232
257.326
257.16
256.795
256.254
256.123
255.899
255.634
255.344
255.04
254.731
254.419
254.126
253.853
253.576
253.296
253.016
252.732
252.461
252.205
251.96
251.713
251.474
251.246
251.028
250.81
250.588
250.361
250.132
249.889
249.601
249.467
249.299
249.095
248.966
248.817
248.702
248.584
248.478
248.371
248.273
248.178
248.081
247.98
247.877
247.77
247.657
247.539
247.419
247.296
247.175
247.053
246.928
246.847
246.756
246.689
246.615
246.585
246.55
246.543
246.538
246.531
246.518
246.499
246.47
246.432
246.386
246.335
246.276
246.215
246.163
246.118
246.091
246.06
246.064
246.073
246.089
246.114
246.146
246.18
246.205
246.228
246.231
246.236
246.228
246.217
246.2
246.193
246.194
246.203
246.22
246.245
246.281
246.329
246.384
246.439
246.495
246.542
246.587
246.651
246.648
246.662
246.687
246.703
246.724
246.754
246.791
246.837
246.891
246.95
247.017
247.089
247.166
247.24
247.309
247.393
247.423
247.465
247.515
247.545
247.582
247.648
345.892
345.926
345.953
345.923
345.598
344.808
343.74
342.506
341.281
340.148
339.126
338.139
337.184
336.279
335.446
334.718
334.092
333.546
333.086
332.719
332.402
332.155
331.983
331.895
331.894
331.996
332.217
332.571
333.047
333.637
334.328
335.116
335.988
336.918
337.894
338.905
339.91
340.876
341.79
342.641
343.397
344.034
344.534
344.898
345.098
345.116
344.929
344.544
343.965
343.206
342.255
341.122
339.81
338.353
336.717
334.943
333.082
331.116
329.084
326.977
324.831
322.639
320.424
318.19
315.937
313.713
311.488
309.295
307.144
305.007
302.941
300.911
298.883
296.924
294.943
293.035
291.148
289.329
287.557
285.862
284.225
282.657
281.139
279.651
278.171
276.737
275.369
274.047
272.796
271.59
270.419
269.28
268.182
267.104
266.077
265.078
264.101
263.138
262.206
261.309
260.433
259.601
258.817
258.059
257.323
256.62
255.947
255.303
254.667
254.063
253.453
252.89
252.366
251.869
251.362
250.837
250.288
249.7
249.049
248.213
248.036
247.683
247.217
247.04
246.802
246.533
246.243
245.943
245.64
245.333
245.045
244.773
244.499
244.223
243.948
243.67
243.405
243.152
242.909
242.664
242.428
242.201
241.982
241.763
241.541
241.316
241.087
240.849
240.57
240.431
240.262
240.065
239.927
239.776
239.654
239.53
239.417
239.304
239.198
239.096
238.992
238.884
238.775
238.661
238.543
238.422
238.297
238.17
238.046
237.92
237.792
237.703
237.606
237.531
237.451
237.41
237.365
237.347
237.332
237.315
237.293
237.266
237.23
237.187
237.136
237.08
237.017
236.951
236.897
236.845
236.812
236.773
236.772
236.775
236.784
236.801
236.826
236.852
236.871
236.89
236.889
236.891
236.882
236.869
236.852
236.842
236.842
236.848
236.862
236.884
236.916
236.96
237.01
237.062
237.115
237.16
237.205
237.266
237.267
237.282
237.307
237.325
237.348
237.378
237.416
237.461
237.514
237.573
237.639
237.711
237.787
237.86
237.932
238.015
238.051
238.097
238.15
238.185
238.226
238.297
345.857
345.93
345.929
345.65
344.934
343.934
342.756
341.609
340.619
339.806
339.108
338.323
337.563
336.896
336.303
335.79
335.354
334.976
334.664
334.432
334.239
334.103
334.031
334.031
334.117
334.304
334.601
335.014
335.536
336.153
336.851
337.625
338.464
339.334
340.22
341.112
341.962
342.732
343.405
343.973
344.41
344.677
344.752
344.632
344.314
343.774
342.979
341.944
340.685
339.237
337.576
335.735
333.706
331.561
329.242
326.818
324.36
321.809
319.243
316.638
314.047
311.455
308.885
306.344
303.821
301.384
298.973
296.639
294.391
292.175
290.078
288.032
286.004
284.075
282.123
280.27
278.453
276.716
275.043
273.457
271.935
270.487
269.094
267.739
266.391
265.094
263.865
262.684
261.569
260.498
259.457
258.446
257.471
256.517
255.614
254.738
253.88
253.035
252.218
251.435
250.665
249.94
249.255
248.591
247.948
247.335
246.747
246.182
245.626
245.096
244.56
244.068
243.609
243.172
242.721
242.254
241.769
241.243
240.668
239.942
239.772
239.465
239.111
238.904
238.687
238.447
238.188
237.923
237.652
237.378
237.12
236.874
236.627
236.379
236.132
235.882
235.646
235.418
235.197
234.975
234.762
234.556
234.356
234.156
233.952
233.747
233.537
233.321
233.07
232.941
232.788
232.614
232.485
232.346
232.235
232.123
232.019
231.916
231.819
231.725
231.629
231.53
231.428
231.323
231.214
231.101
230.985
230.867
230.75
230.634
230.514
230.43
230.34
230.27
230.195
230.156
230.112
230.095
230.079
230.062
230.041
230.015
229.981
229.939
229.891
229.839
229.78
229.718
229.666
229.617
229.586
229.549
229.546
229.549
229.557
229.574
229.598
229.621
229.641
229.659
229.658
229.663
229.654
229.644
229.629
229.622
229.623
229.631
229.645
229.667
229.7
229.743
229.793
229.844
229.896
229.941
229.988
230.047
230.054
230.072
230.097
230.119
230.145
230.178
230.218
230.265
230.319
230.379
230.445
230.517
230.594
230.668
230.742
230.825
230.865
230.915
230.971
231.011
231.056
231.133
345.852
345.929
345.745
345.139
344.229
343.124
342.03
341.105
340.4
339.844
339.256
338.674
338.15
337.694
337.297
336.954
336.66
336.408
336.202
336.064
335.959
335.907
335.91
335.983
336.14
336.393
336.743
337.195
337.742
338.365
339.045
339.774
340.543
341.309
342.047
342.751
343.372
343.862
344.2
344.365
344.337
344.08
343.559
342.777
341.726
340.405
338.765
336.834
334.648
332.287
329.678
326.902
323.953
320.931
317.829
314.629
311.478
308.287
305.118
302.029
298.975
296.049
293.158
290.41
287.687
285.157
282.674
280.326
278.115
275.951
273.959
272.024
270.132
268.374
266.583
264.928
263.315
261.798
260.355
259.013
257.727
256.534
255.38
254.27
253.15
252.083
251.076
250.116
249.212
248.349
247.507
246.692
245.903
245.138
244.418
243.72
243.031
242.351
241.696
241.067
240.445
239.867
239.32
238.788
238.278
237.792
237.326
236.873
236.43
236.007
235.577
235.189
234.824
234.473
234.106
233.726
233.334
232.902
232.433
231.854
231.697
231.464
231.235
231.024
230.857
230.671
230.465
230.256
230.04
229.82
229.613
229.413
229.212
229.013
228.813
228.61
228.42
228.234
228.052
227.871
227.698
227.53
227.363
227.197
227.028
226.859
226.682
226.503
226.295
226.186
226.063
225.925
225.817
225.703
225.614
225.525
225.442
225.36
225.284
225.209
225.132
225.053
224.97
224.883
224.792
224.699
224.601
224.502
224.402
224.304
224.202
224.132
224.059
224.003
223.942
223.913
223.881
223.87
223.862
223.854
223.839
223.823
223.797
223.765
223.726
223.684
223.636
223.584
223.541
223.502
223.478
223.451
223.452
223.459
223.473
223.494
223.522
223.548
223.573
223.595
223.599
223.612
223.605
223.604
223.594
223.594
223.599
223.611
223.631
223.657
223.693
223.739
223.792
223.845
223.9
223.948
223.997
224.058
224.072
224.095
224.124
224.151
224.183
224.22
224.264
224.314
224.371
224.434
224.503
224.577
224.656
224.732
224.809
224.893
224.939
224.994
225.052
225.098
225.149
225.232
345.895
345.881
345.433
344.615
343.573
342.506
341.59
340.902
340.416
339.973
339.542
339.155
338.821
338.533
338.28
338.058
337.87
337.715
337.599
337.54
337.511
337.528
337.596
337.731
337.946
338.246
338.63
339.098
339.645
340.243
340.868
341.506
342.147
342.737
343.244
343.666
343.938
344.01
343.833
343.406
342.69
341.653
340.238
338.447
336.289
333.816
330.931
327.714
324.226
320.612
316.798
312.837
308.846
304.732
300.914
296.886
292.921
289.195
285.375
281.943
278.429
275.337
272.189
269.408
266.603
264.152
261.748
259.552
257.511
255.557
253.845
252.183
250.624
249.206
247.761
246.477
245.235
244.099
243.041
242.086
241.182
240.382
239.594
238.862
238.077
237.351
236.67
236.029
235.436
234.868
234.315
233.781
233.255
232.746
232.268
231.805
231.34
230.874
230.429
229.999
229.569
229.18
228.81
228.448
228.106
227.778
227.461
227.151
226.847
226.557
226.26
226.001
225.755
225.511
225.254
224.985
224.713
224.401
224.063
223.657
223.507
223.393
223.276
223.109
223.002
222.887
222.75
222.616
222.472
222.327
222.187
222.049
221.912
221.777
221.639
221.498
221.369
221.24
221.112
220.985
220.866
220.748
220.629
220.511
220.388
220.268
220.136
220.006
219.856
219.774
219.693
219.602
219.527
219.448
219.39
219.334
219.282
219.232
219.185
219.139
219.089
219.04
218.984
218.924
218.861
218.796
218.725
218.653
218.579
218.508
218.432
218.384
218.334
218.299
218.261
218.248
218.235
218.239
218.246
218.251
218.252
218.251
218.239
218.224
218.197
218.176
218.143
218.107
218.078
218.056
218.045
218.034
218.042
218.06
218.084
218.115
218.151
218.186
218.219
218.25
218.264
218.289
218.289
218.299
218.3
218.309
218.324
218.344
218.372
218.406
218.448
218.5
218.559
218.618
218.678
218.732
218.788
218.852
218.875
218.906
218.942
218.977
219.015
219.06
219.109
219.165
219.228
219.295
219.369
219.447
219.53
219.61
219.692
219.778
219.832
219.892
219.955
220.008
220.065
220.157
345.935
345.795
345.105
344.118
343.05
342.1
341.371
340.875
340.505
340.194
339.92
339.693
339.496
339.324
339.176
339.051
338.95
338.877
338.841
338.848
338.879
338.953
339.076
339.258
339.51
339.837
340.228
340.681
341.189
341.715
342.228
342.705
343.134
343.446
343.59
343.554
343.276
342.683
341.7
340.319
338.506
336.251
333.46
330.173
326.434
322.395
317.883
313.056
308.034
302.84
297.882
292.689
287.825
282.639
278.315
273.728
268.96
264.994
260.732
257.191
253.437
250.401
247.231
244.619
241.911
239.657
237.445
235.539
233.784
232.19
230.837
229.555
228.433
227.398
226.44
225.561
224.782
224.081
223.492
222.978
222.554
222.171
221.848
221.535
221.2
220.873
220.633
220.368
220.186
219.966
219.793
219.606
219.431
219.231
219.071
218.891
218.708
218.509
218.336
218.157
217.972
217.815
217.657
217.499
217.355
217.215
217.074
216.936
216.796
216.668
216.528
216.422
216.317
216.205
216.084
215.939
215.806
215.633
215.45
215.227
215.11
215.125
215.104
215.025
214.991
214.953
214.901
214.855
214.804
214.745
214.688
214.628
214.566
214.506
214.443
214.377
214.321
214.261
214.199
214.137
214.083
214.027
213.966
213.906
213.839
213.778
213.703
213.633
213.549
213.505
213.475
213.438
213.405
213.371
213.354
213.338
213.325
213.313
213.305
213.295
213.282
213.268
213.248
213.223
213.193
213.166
213.127
213.091
213.049
213.013
212.971
212.949
212.931
212.922
212.914
212.923
212.935
212.959
212.987
213.011
213.034
213.052
213.064
213.069
213.06
213.066
213.053
213.038
213.03
213.029
213.036
213.044
213.066
213.098
213.137
213.182
213.231
213.279
213.325
213.368
213.397
213.436
213.45
213.473
213.489
213.511
213.538
213.571
213.61
213.655
213.707
213.769
213.836
213.904
213.973
214.035
214.1
214.17
214.207
214.248
214.292
214.337
214.385
214.438
214.497
214.56
214.63
214.705
214.785
214.869
214.958
215.044
215.132
215.223
215.285
215.353
215.421
215.484
215.549
215.65
345.967
345.645
344.77
343.696
342.674
341.865
341.297
340.928
340.673
340.474
340.329
340.217
340.121
340.039
339.971
339.922
339.896
339.89
339.913
339.971
340.052
340.17
340.33
340.538
340.804
341.127
341.49
341.882
342.298
342.685
343
343.208
343.289
343.132
342.671
341.87
340.666
338.99
336.749
333.912
330.459
326.495
321.842
316.644
311
305.048
299.021
292.592
286.272
279.518
273.939
267.845
262.49
256.704
252.024
247.267
242.147
238.26
233.945
230.603
227.044
224.282
221.453
219.185
216.891
214.983
213.183
211.656
210.297
209.14
208.127
207.281
206.519
205.833
205.337
204.725
204.407
203.971
203.839
203.588
203.617
203.48
203.611
203.509
203.666
203.611
203.828
203.841
204.074
204.143
204.36
204.473
204.681
204.783
204.988
205.085
205.246
205.342
205.478
205.582
205.677
205.788
205.862
205.942
206.023
206.1
206.163
206.229
206.277
206.345
206.389
206.458
206.505
206.562
206.584
206.572
206.587
206.573
206.58
206.523
206.499
206.605
206.705
206.736
206.78
206.824
206.883
206.93
206.992
207.023
207.064
207.087
207.109
207.131
207.159
207.173
207.203
207.216
207.232
207.242
207.263
207.276
207.284
207.287
207.287
207.291
207.282
207.283
207.268
207.276
207.299
207.322
207.342
207.362
207.39
207.421
207.455
207.487
207.525
207.554
207.588
207.611
207.637
207.652
207.66
207.68
207.677
207.683
207.681
207.686
207.684
207.693
207.711
207.736
207.761
207.798
207.84
207.889
207.942
207.992
208.041
208.084
208.122
208.153
208.171
208.204
208.216
208.229
208.246
208.268
208.298
208.329
208.37
208.421
208.48
208.542
208.608
208.672
208.735
208.795
208.841
208.897
208.93
208.968
209.003
209.042
209.085
209.133
209.188
209.247
209.312
209.385
209.464
209.544
209.624
209.697
209.773
209.852
209.906
209.958
210.014
210.071
210.131
210.195
210.264
210.338
210.417
210.502
210.59
210.683
210.779
210.872
210.968
211.065
211.14
211.216
211.291
211.365
211.438
211.552
345.926
345.433
344.446
343.359
342.429
341.747
341.309
341.048
340.881
340.781
340.729
340.696
340.675
340.663
340.66
340.669
340.695
340.743
340.813
340.906
341.021
341.164
341.339
341.547
341.794
342.074
342.357
342.628
342.869
343.015
342.988
342.724
342.173
341.225
339.77
337.747
335.108
331.854
327.834
323.034
317.454
311.434
304.829
297.709
290.368
282.446
275.58
267.959
260.972
253.116
247.457
241.023
235.697
230.035
225.223
220.93
216.202
212.605
208.758
205.787
202.952
200.554
198.417
196.53
194.891
193.341
192.145
190.955
190.116
189.316
188.641
188.24
187.665
187.35
187.154
186.708
186.782
186.412
186.657
186.487
186.807
186.786
187.153
187.148
187.556
187.67
188.104
188.299
188.733
188.999
189.416
189.733
190.144
190.477
190.894
191.218
191.608
191.948
192.327
192.669
193.011
193.366
193.671
193.985
194.296
194.595
194.873
195.15
195.405
195.67
195.919
196.173
196.387
196.61
196.786
196.925
197.088
197.255
197.462
197.576
197.675
197.888
198.113
198.251
198.401
198.541
198.706
198.859
199.031
199.166
199.306
199.421
199.538
199.65
199.77
199.877
199.993
200.089
200.187
200.279
200.377
200.465
200.549
200.621
200.696
200.77
200.837
200.911
200.969
201.037
201.119
201.205
201.286
201.363
201.444
201.526
201.612
201.694
201.781
201.857
201.938
202.008
202.082
202.143
202.198
202.263
202.306
202.356
202.401
202.449
202.49
202.539
202.595
202.658
202.72
202.792
202.866
202.946
203.029
203.108
203.186
203.259
203.327
203.386
203.439
203.499
203.543
203.586
203.632
203.682
203.739
203.796
203.861
203.934
204.015
204.099
204.184
204.267
204.35
204.429
204.497
204.574
204.628
204.686
204.741
204.8
204.863
204.93
205.001
205.077
205.158
205.246
205.339
205.433
205.527
205.613
205.703
205.792
205.867
205.933
206.002
206.074
206.147
206.225
206.307
206.393
206.483
206.579
206.678
206.781
206.886
206.989
207.094
207.198
207.289
207.373
207.458
207.543
207.628
207.756
345.791
345.203
344.164
343.106
342.278
341.704
341.373
341.208
341.111
341.085
341.093
341.117
341.151
341.191
341.236
341.289
341.355
341.438
341.535
341.648
341.776
341.921
342.085
342.259
342.445
342.628
342.76
342.812
342.731
342.432
341.802
340.731
339.145
336.949
334.008
330.225
325.611
320.411
314.203
307.233
299.523
291.323
283.401
274.776
266.345
256.887
249.835
241.674
234.815
226.866
221.537
215.26
210.49
205.441
201.022
197.424
193.678
190.411
187.622
185.038
183.189
181.174
179.922
178.305
177.486
176.14
175.685
174.649
174.443
173.785
173.532
173.412
172.964
173.029
172.803
172.744
172.877
172.638
173.044
172.887
173.325
173.327
173.774
173.776
174.269
174.423
174.911
175.148
175.627
175.935
176.406
176.768
177.246
177.649
178.143
178.551
179.037
179.487
179.983
180.451
180.932
181.423
181.878
182.346
182.81
183.261
183.698
184.127
184.547
184.964
185.38
185.795
186.157
186.523
186.83
187.127
187.442
187.791
188.174
188.51
188.761
189.071
189.4
189.647
189.901
190.15
190.418
190.681
190.961
191.204
191.447
191.659
191.875
192.084
192.299
192.501
192.709
192.89
193.076
193.253
193.435
193.601
193.764
193.912
194.064
194.213
194.358
194.507
194.643
194.779
194.924
195.073
195.22
195.356
195.494
195.631
195.772
195.908
196.047
196.175
196.306
196.426
196.552
196.662
196.769
196.882
196.976
197.073
197.167
197.262
197.35
197.443
197.542
197.646
197.748
197.857
197.969
198.082
198.196
198.308
198.419
198.524
198.626
198.717
198.806
198.897
198.978
199.053
199.132
199.213
199.299
199.386
199.478
199.577
199.681
199.79
199.897
200.003
200.108
200.21
200.301
200.4
200.478
200.56
200.639
200.72
200.805
200.893
200.984
201.08
201.179
201.283
201.393
201.502
201.612
201.715
201.82
201.923
202.02
202.101
202.186
202.274
202.364
202.457
202.553
202.653
202.757
202.865
202.977
203.091
203.208
203.321
203.437
203.55
203.659
203.753
203.848
203.947
204.043
204.188
345.576
344.965
343.921
342.915
342.181
341.719
341.479
341.38
341.341
341.36
341.413
341.48
341.552
341.627
341.703
341.785
341.874
341.973
342.08
342.193
342.31
342.431
342.549
342.646
342.708
342.712
342.575
342.221
341.564
340.489
338.873
336.568
333.449
329.523
324.611
318.628
311.669
304.389
296.163
287.309
278.008
267.851
259.43
249.788
241.135
231.165
224.397
216.33
210.261
203.062
198.302
192.576
188.731
184.365
181.029
177.822
175.391
172.603
171.06
168.799
168.026
166.23
165.943
164.437
164.496
163.264
163.553
162.609
163.021
162.371
162.689
162.476
162.502
162.695
162.426
162.824
162.71
162.889
163.233
163.072
163.579
163.503
163.975
163.925
164.435
164.523
164.987
165.144
165.585
165.797
166.231
166.495
166.939
167.265
167.725
168.075
168.54
168.952
169.434
169.897
170.388
170.884
171.372
171.875
172.377
172.876
173.374
173.866
174.363
174.859
175.36
175.862
176.311
176.774
177.161
177.578
178.019
178.5
179.015
179.52
179.934
180.312
180.723
181.077
181.424
181.769
182.13
182.493
182.871
183.215
183.562
183.867
184.18
184.486
184.796
185.094
185.395
185.665
185.941
186.205
186.472
186.718
186.962
187.188
187.417
187.645
187.867
188.092
188.308
188.512
188.722
188.936
189.149
189.348
189.545
189.74
189.936
190.128
190.322
190.503
190.687
190.86
191.039
191.2
191.361
191.526
191.671
191.821
191.964
192.11
192.246
192.386
192.529
192.677
192.822
192.972
193.122
193.27
193.42
193.566
193.711
193.852
193.99
194.115
194.243
194.368
194.488
194.599
194.712
194.827
194.945
195.063
195.184
195.311
195.443
195.577
195.709
195.839
195.968
196.095
196.212
196.337
196.44
196.548
196.652
196.759
196.868
196.978
197.092
197.209
197.328
197.452
197.579
197.706
197.834
197.954
198.076
198.195
198.316
198.415
198.517
198.623
198.73
198.841
198.953
199.069
199.187
199.311
199.436
199.563
199.692
199.818
199.946
200.071
200.198
200.303
200.411
200.523
200.633
200.796
345.317
344.708
343.69
342.761
342.122
341.763
341.606
341.552
341.551
341.605
341.69
341.785
341.879
341.972
342.065
342.158
342.253
342.351
342.448
342.538
342.618
342.679
342.705
342.659
342.503
342.169
341.537
340.492
338.895
336.627
333.575
329.561
324.406
318.368
311.255
303.11
293.933
284.397
275.043
264.813
254.664
243.206
234.767
224.791
216.745
207.344
201.095
193.57
188.556
182.454
178.42
173.614
170.844
167.098
165.156
162.121
161.201
158.819
158.492
156.524
156.684
155.125
155.604
154.343
155.069
154.07
154.906
154.171
155.03
154.486
155.265
154.87
155.553
155.512
155.74
156.206
155.972
156.565
156.712
156.764
157.326
157.123
157.655
157.571
158.098
158.095
158.539
158.586
158.982
159.058
159.425
159.535
159.9
160.057
160.419
160.608
160.964
161.216
161.58
161.898
162.27
162.645
163.031
163.435
163.841
164.267
164.702
165.15
165.612
166.085
166.572
167.06
167.507
167.985
168.382
168.837
169.334
169.871
170.442
171.018
171.519
171.93
172.385
172.813
173.23
173.647
174.079
174.516
174.968
175.391
175.821
176.208
176.604
176.992
177.386
177.77
178.157
178.51
178.869
179.214
179.561
179.881
180.202
180.503
180.806
181.11
181.406
181.706
181.998
182.27
182.544
182.821
183.1
183.362
183.619
183.871
184.124
184.372
184.622
184.856
185.095
185.321
185.553
185.767
185.982
186.199
186.397
186.6
186.794
186.991
187.179
187.366
187.554
187.748
187.937
188.128
188.319
188.504
188.689
188.872
189.053
189.23
189.406
189.568
189.736
189.895
190.055
190.204
190.354
190.505
190.657
190.808
190.96
191.117
191.277
191.438
191.596
191.752
191.908
192.06
192.205
192.357
192.488
192.623
192.755
192.889
193.023
193.158
193.295
193.435
193.576
193.721
193.867
194.014
194.161
194.3
194.441
194.579
194.722
194.841
194.963
195.088
195.214
195.343
195.473
195.606
195.741
195.88
196.021
196.162
196.305
196.444
196.586
196.724
196.868
196.987
197.109
197.236
197.361
197.544
345.05
344.435
343.463
342.63
342.102
341.83
341.736
341.708
341.738
341.82
341.924
342.032
342.135
342.232
342.325
342.413
342.497
342.574
342.639
342.682
342.689
342.643
342.504
342.198
341.641
340.712
339.257
337.146
334.177
330.259
325.364
319.23
311.722
303.403
294.511
284.589
273.669
261.897
252.235
241.104
230.971
219.252
211.05
201.319
194.322
186.07
180.62
174.099
170.035
165.206
161.916
158.482
156.443
153.543
152.689
149.992
150.261
148.254
148.867
147.264
148.093
146.878
147.942
146.959
148.214
147.494
148.797
148.272
149.511
149.1
150.225
149.868
150.917
150.655
151.513
151.712
151.89
152.645
152.479
153.031
153.533
153.26
153.883
153.824
154.367
154.316
154.805
154.799
155.204
155.201
155.549
155.566
155.89
155.926
156.226
156.274
156.554
156.654
156.915
157.058
157.295
157.491
157.717
157.959
158.184
158.44
158.701
158.986
159.293
159.618
159.961
160.305
160.635
160.981
161.273
161.645
162.078
162.558
163.078
163.626
164.124
164.5
164.918
165.344
165.773
166.21
166.663
167.125
167.603
168.065
168.537
168.974
169.418
169.857
170.303
170.742
171.184
171.597
172.015
172.419
172.827
173.206
173.588
173.953
174.317
174.685
175.048
175.415
175.773
176.113
176.447
176.783
177.12
177.444
177.759
178.066
178.374
178.676
178.979
179.266
179.558
179.836
180.121
180.385
180.652
180.92
181.172
181.428
181.672
181.92
182.158
182.394
182.628
182.866
183.099
183.332
183.564
183.786
184.008
184.227
184.446
184.659
184.873
185.074
185.281
185.478
185.678
185.866
186.054
186.242
186.428
186.613
186.798
186.984
187.174
187.363
187.548
187.731
187.914
188.094
188.267
188.446
188.607
188.77
188.932
189.093
189.255
189.416
189.577
189.741
189.906
190.072
190.238
190.405
190.572
190.732
190.893
191.051
191.216
191.358
191.501
191.646
191.793
191.941
192.09
192.241
192.393
192.549
192.707
192.862
193.02
193.174
193.33
193.484
193.645
193.779
193.917
194.059
194.2
194.405
344.806
344.156
343.247
342.519
342.108
341.91
341.855
341.85
341.905
342.004
342.116
342.224
342.323
342.412
342.491
342.557
342.609
342.646
342.654
342.615
342.5
342.262
341.817
341.043
339.814
337.936
335.257
331.667
326.922
320.947
313.924
305.697
295.969
285.26
275.278
263.948
251.977
238.596
228.89
217.318
207.837
196.797
189.208
180.387
174.639
167.876
163.444
158.167
154.933
151.353
148.703
146.738
144.789
143.347
142.729
140.989
141.821
140.197
141.344
140.244
141.642
140.724
142.321
141.63
143.34
142.788
144.497
144.082
145.677
145.303
146.761
146.446
147.771
147.501
148.697
148.539
149.398
150.107
149.959
150.683
151.131
150.961
151.693
151.651
152.229
152.191
152.752
152.744
153.197
153.172
153.548
153.542
153.867
153.854
154.142
154.136
154.404
154.439
154.663
154.719
154.91
154.985
155.135
155.283
155.379
155.519
155.639
155.786
155.947
156.117
156.3
156.461
156.612
156.736
156.837
157.043
157.312
157.619
157.963
158.331
158.709
158.942
159.221
159.53
159.86
160.211
160.588
160.979
161.398
161.807
162.241
162.659
163.085
163.511
163.948
164.382
164.823
165.247
165.675
166.096
166.522
166.926
167.336
167.734
168.134
168.541
168.952
169.367
169.772
170.165
170.546
170.928
171.308
171.684
172.049
172.406
172.762
173.11
173.46
173.794
174.134
174.458
174.789
175.099
175.416
175.732
176.033
176.338
176.631
176.926
177.212
177.496
177.773
178.055
178.33
178.605
178.875
179.133
179.393
179.647
179.903
180.152
180.403
180.643
180.889
181.123
181.361
181.589
181.815
182.04
182.26
182.48
182.696
182.915
183.133
183.35
183.563
183.773
183.983
184.191
184.394
184.601
184.791
184.984
185.176
185.365
185.554
185.742
185.928
186.117
186.306
186.494
186.681
186.869
187.057
187.238
187.42
187.6
187.785
187.953
188.116
188.283
188.451
188.62
188.788
188.958
189.128
189.302
189.477
189.648
189.821
189.991
190.162
190.333
190.51
190.661
190.816
190.974
191.131
191.358
344.585
343.891
343.055
342.439
342.125
341.992
341.964
341.983
342.054
342.159
342.268
342.367
342.451
342.517
342.564
342.591
342.595
342.566
342.483
342.309
341.975
341.391
340.412
338.869
336.615
333.38
329.089
323.682
316.894
308.63
299.246
289.6
278.061
264.891
254.178
241.706
229.525
215.626
205.921
194.527
186.202
176.645
170.21
162.947
158.348
153.113
149.524
145.466
142.942
140.356
138.635
137.582
135.931
136.257
135.045
135.678
135.65
134.797
136.439
135.446
137.43
136.595
138.697
138.006
140.112
139.597
141.621
141.211
143.104
142.743
144.484
144.151
145.71
145.43
146.835
146.666
147.821
148.243
148.468
149.294
149.488
149.705
150.504
150.434
151.116
151.107
151.729
151.711