/*--------------------------------*- C++ -*----------------------------------*\
| =========                 |                                                 |
| \\      /  F ield         | OpenFOAM: The Open Source CFD Toolbox           |
|  \\    /   O peration     | Version:  2312                                  |
|   \\  /    A nd           | Website:  www.openfoam.com                      |
|    \\/     M anipulation  |                                                 |
\*---------------------------------------------------------------------------*/
FoamFile
{
    version     2.0;
    format      ascii;
    arch        "LSB;label=32;scalar=64";
    class       volScalarField;
    location    "0.005";
    object      thermo:psiLiqEff;
}
// * * * * * * * * * * * * * * * * * * * * * * * * * * * * * * * * * * * * * //

dimensions      [-2 4 2 0 0 0 0];

internalField   nonuniform List<scalar> 
48128
(
4.16855e-13
4.16867e-13
4.16877e-13
4.16878e-13
4.16892e-13
4.16943e-13
4.1713e-13
4.17592e-13
4.18298e-13
4.19222e-13
4.2009e-13
4.21029e-13
4.22122e-13
4.23351e-13
4.24566e-13
4.25701e-13
4.26788e-13
4.27849e-13
4.28869e-13
4.29835e-13
4.30793e-13
4.31727e-13
4.32615e-13
4.3344e-13
4.3418e-13
4.34815e-13
4.35326e-13
4.35692e-13
4.35897e-13
4.35963e-13
4.3588e-13
4.35592e-13
4.35118e-13
4.34484e-13
4.33706e-13
4.32799e-13
4.31779e-13
4.30685e-13
4.29512e-13
4.28284e-13
4.2703e-13
4.25777e-13
4.24533e-13
4.23275e-13
4.22074e-13
4.20958e-13
4.19951e-13
4.19026e-13
4.18203e-13
4.17492e-13
4.16913e-13
4.16466e-13
4.1617e-13
4.16026e-13
4.16026e-13
4.16173e-13
4.16458e-13
4.16886e-13
4.17445e-13
4.18128e-13
4.18921e-13
4.19807e-13
4.20778e-13
4.21827e-13
4.22957e-13
4.24158e-13
4.25429e-13
4.26763e-13
4.28134e-13
4.29572e-13
4.31066e-13
4.32599e-13
4.34206e-13
4.35833e-13
4.37531e-13
4.39217e-13
4.40961e-13
4.4267e-13
4.44403e-13
4.46067e-13
4.47729e-13
4.49318e-13
4.5091e-13
4.52494e-13
4.54131e-13
4.55727e-13
4.57305e-13
4.58815e-13
4.60268e-13
4.61657e-13
4.63025e-13
4.64343e-13
4.65637e-13
4.66889e-13
4.68101e-13
4.69273e-13
4.7043e-13
4.71582e-13
4.72689e-13
4.73752e-13
4.74778e-13
4.7574e-13
4.76625e-13
4.77461e-13
4.7827e-13
4.79027e-13
4.7974e-13
4.80409e-13
4.81068e-13
4.8169e-13
4.82323e-13
4.82884e-13
4.83368e-13
4.83826e-13
4.843e-13
4.84817e-13
4.85398e-13
4.86039e-13
4.86835e-13
4.87905e-13
4.87704e-13
4.87911e-13
4.88411e-13
4.88145e-13
4.88205e-13
4.88309e-13
4.88463e-13
4.8866e-13
4.88878e-13
4.89108e-13
4.89307e-13
4.89486e-13
4.89675e-13
4.89874e-13
4.90078e-13
4.90288e-13
4.90481e-13
4.90642e-13
4.90788e-13
4.90938e-13
4.91082e-13
4.91206e-13
4.91322e-13
4.91442e-13
4.91575e-13
4.9172e-13
4.91853e-13
4.92008e-13
4.92216e-13
4.92125e-13
4.92134e-13
4.92171e-13
4.92093e-13
4.92048e-13
4.91961e-13
4.91874e-13
4.9178e-13
4.91695e-13
4.91606e-13
4.9153e-13
4.91451e-13
4.91414e-13
4.9138e-13
4.91353e-13
4.9135e-13
4.91357e-13
4.91368e-13
4.91385e-13
4.91399e-13
4.91426e-13
4.91421e-13
4.91388e-13
4.91354e-13
4.913e-13
4.91227e-13
4.91119e-13
4.90998e-13
4.90854e-13
4.90709e-13
4.90563e-13
4.90458e-13
4.90355e-13
4.90313e-13
4.90271e-13
4.90271e-13
4.90278e-13
4.903e-13
4.90327e-13
4.90325e-13
4.90318e-13
4.9029e-13
4.90245e-13
4.90158e-13
4.90055e-13
4.89944e-13
4.89818e-13
4.89682e-13
4.89553e-13
4.89451e-13
4.89356e-13
4.89315e-13
4.89268e-13
4.89256e-13
4.89253e-13
4.89255e-13
4.89246e-13
4.89222e-13
4.89181e-13
4.89122e-13
4.89045e-13
4.88947e-13
4.88832e-13
4.88707e-13
4.88588e-13
4.88475e-13
4.88385e-13
4.88305e-13
4.88212e-13
4.88227e-13
4.88207e-13
4.88176e-13
4.8816e-13
4.88132e-13
4.8809e-13
4.88032e-13
4.87956e-13
4.87866e-13
4.87766e-13
4.87656e-13
4.8754e-13
4.87419e-13
4.87312e-13
4.87219e-13
4.87123e-13
4.87104e-13
4.87062e-13
4.87019e-13
4.87006e-13
4.86978e-13
4.86913e-13
4.16889e-13
4.16902e-13
4.16916e-13
4.16901e-13
4.16879e-13
4.16975e-13
4.17358e-13
4.18235e-13
4.19478e-13
4.20762e-13
4.22205e-13
4.24017e-13
4.26048e-13
4.27982e-13
4.29725e-13
4.31309e-13
4.32766e-13
4.34102e-13
4.35304e-13
4.36364e-13
4.37338e-13
4.3821e-13
4.38961e-13
4.39573e-13
4.40029e-13
4.4031e-13
4.40417e-13
4.40396e-13
4.40144e-13
4.39672e-13
4.3902e-13
4.38169e-13
4.37139e-13
4.3595e-13
4.34627e-13
4.33195e-13
4.31698e-13
4.30183e-13
4.2865e-13
4.27123e-13
4.25636e-13
4.24212e-13
4.22867e-13
4.216e-13
4.20459e-13
4.19468e-13
4.18643e-13
4.17967e-13
4.17452e-13
4.17113e-13
4.1697e-13
4.17032e-13
4.17273e-13
4.17698e-13
4.1832e-13
4.19133e-13
4.20107e-13
4.21237e-13
4.22513e-13
4.23932e-13
4.25482e-13
4.27158e-13
4.28951e-13
4.30848e-13
4.32849e-13
4.34926e-13
4.37083e-13
4.39313e-13
4.4157e-13
4.43883e-13
4.46223e-13
4.48587e-13
4.5102e-13
4.53452e-13
4.5596e-13
4.58444e-13
4.60984e-13
4.63481e-13
4.65989e-13
4.68426e-13
4.70844e-13
4.7319e-13
4.75515e-13
4.77825e-13
4.80178e-13
4.82498e-13
4.84775e-13
4.86997e-13
4.89134e-13
4.91211e-13
4.93241e-13
4.95234e-13
4.97173e-13
4.99087e-13
5.00938e-13
5.02752e-13
5.04537e-13
5.06319e-13
5.08059e-13
5.09744e-13
5.11396e-13
5.12977e-13
5.14469e-13
5.15897e-13
5.17297e-13
5.18626e-13
5.19909e-13
5.21122e-13
5.22333e-13
5.23477e-13
5.24641e-13
5.25718e-13
5.26706e-13
5.2764e-13
5.28586e-13
5.29573e-13
5.30637e-13
5.31777e-13
5.33099e-13
5.34885e-13
5.35099e-13
5.35731e-13
5.36798e-13
5.36887e-13
5.372e-13
5.37618e-13
5.38096e-13
5.38618e-13
5.39158e-13
5.39709e-13
5.40224e-13
5.40702e-13
5.41189e-13
5.41686e-13
5.4219e-13
5.427e-13
5.43193e-13
5.43649e-13
5.4408e-13
5.44517e-13
5.4494e-13
5.45338e-13
5.45716e-13
5.46097e-13
5.46489e-13
5.46897e-13
5.47311e-13
5.47762e-13
5.48314e-13
5.48519e-13
5.48806e-13
5.49167e-13
5.49357e-13
5.49588e-13
5.49748e-13
5.49915e-13
5.50056e-13
5.50201e-13
5.50326e-13
5.5045e-13
5.50578e-13
5.5072e-13
5.50869e-13
5.5103e-13
5.51207e-13
5.51398e-13
5.51595e-13
5.518e-13
5.52002e-13
5.52209e-13
5.5241e-13
5.5252e-13
5.52645e-13
5.52729e-13
5.52824e-13
5.52823e-13
5.52822e-13
5.52789e-13
5.52744e-13
5.52701e-13
5.52677e-13
5.52673e-13
5.52692e-13
5.52732e-13
5.52793e-13
5.5287e-13
5.52963e-13
5.53054e-13
5.53146e-13
5.53188e-13
5.53219e-13
5.5323e-13
5.53201e-13
5.53147e-13
5.53078e-13
5.52988e-13
5.52883e-13
5.52782e-13
5.52704e-13
5.52631e-13
5.52609e-13
5.52578e-13
5.52587e-13
5.526e-13
5.52625e-13
5.52621e-13
5.52607e-13
5.52573e-13
5.52523e-13
5.52451e-13
5.52358e-13
5.52239e-13
5.52105e-13
5.51976e-13
5.51846e-13
5.51739e-13
5.5164e-13
5.51499e-13
5.51516e-13
5.51487e-13
5.5143e-13
5.51402e-13
5.51358e-13
5.51293e-13
5.51211e-13
5.51112e-13
5.50996e-13
5.50868e-13
5.50725e-13
5.5057e-13
5.50406e-13
5.50255e-13
5.50116e-13
5.49943e-13
5.49899e-13
5.49826e-13
5.4973e-13
5.49683e-13
5.49618e-13
5.49491e-13
4.16932e-13
4.16926e-13
4.16918e-13
4.16885e-13
4.16933e-13
4.17357e-13
4.1832e-13
4.19642e-13
4.21105e-13
4.22747e-13
4.24481e-13
4.26182e-13
4.2777e-13
4.29247e-13
4.30592e-13
4.31801e-13
4.32887e-13
4.33882e-13
4.34755e-13
4.3549e-13
4.36141e-13
4.3669e-13
4.37121e-13
4.37423e-13
4.37587e-13
4.37611e-13
4.37485e-13
4.37179e-13
4.36675e-13
4.35982e-13
4.35128e-13
4.34119e-13
4.32977e-13
4.31739e-13
4.30419e-13
4.29031e-13
4.2762e-13
4.26225e-13
4.24858e-13
4.23538e-13
4.22297e-13
4.21162e-13
4.20151e-13
4.19265e-13
4.18535e-13
4.17989e-13
4.1764e-13
4.17493e-13
4.17546e-13
4.17796e-13
4.18263e-13
4.18946e-13
4.19838e-13
4.20918e-13
4.22215e-13
4.23714e-13
4.2537e-13
4.27184e-13
4.29136e-13
4.31229e-13
4.3344e-13
4.35767e-13
4.38196e-13
4.40717e-13
4.43331e-13
4.45994e-13
4.4872e-13
4.5149e-13
4.54275e-13
4.57106e-13
4.59932e-13
4.62765e-13
4.65657e-13
4.68517e-13
4.71453e-13
4.74344e-13
4.77268e-13
4.80137e-13
4.82993e-13
4.85769e-13
4.88503e-13
4.91157e-13
4.93772e-13
4.9637e-13
4.98997e-13
5.01583e-13
5.04101e-13
5.06563e-13
5.08924e-13
5.11225e-13
5.13475e-13
5.15688e-13
5.17838e-13
5.19966e-13
5.2202e-13
5.24036e-13
5.26022e-13
5.27998e-13
5.29929e-13
5.318e-13
5.33642e-13
5.35406e-13
5.37079e-13
5.38693e-13
5.40276e-13
5.4179e-13
5.43252e-13
5.44649e-13
5.46039e-13
5.4736e-13
5.48703e-13
5.49949e-13
5.51108e-13
5.52211e-13
5.53331e-13
5.54494e-13
5.55726e-13
5.57043e-13
5.58532e-13
5.60499e-13
5.60861e-13
5.61657e-13
5.62844e-13
5.63133e-13
5.63624e-13
5.6421e-13
5.6485e-13
5.65523e-13
5.66209e-13
5.66904e-13
5.67557e-13
5.68169e-13
5.68789e-13
5.69418e-13
5.70048e-13
5.70687e-13
5.71301e-13
5.71882e-13
5.72437e-13
5.73e-13
5.73543e-13
5.74063e-13
5.74562e-13
5.75062e-13
5.75572e-13
5.76093e-13
5.76621e-13
5.77181e-13
5.77849e-13
5.78157e-13
5.78549e-13
5.79021e-13
5.79322e-13
5.79668e-13
5.79937e-13
5.80212e-13
5.8046e-13
5.8071e-13
5.80939e-13
5.81162e-13
5.81389e-13
5.81626e-13
5.81868e-13
5.82119e-13
5.82384e-13
5.82661e-13
5.82944e-13
5.83234e-13
5.83519e-13
5.83808e-13
5.84104e-13
5.84296e-13
5.8451e-13
5.8467e-13
5.84845e-13
5.84916e-13
5.84998e-13
5.85015e-13
5.85027e-13
5.85044e-13
5.85075e-13
5.85121e-13
5.8519e-13
5.85279e-13
5.85388e-13
5.8551e-13
5.85651e-13
5.85795e-13
5.85918e-13
5.86026e-13
5.8609e-13
5.86164e-13
5.86155e-13
5.86133e-13
5.86095e-13
5.86036e-13
5.85958e-13
5.8588e-13
5.85819e-13
5.85764e-13
5.85757e-13
5.85745e-13
5.85764e-13
5.8579e-13
5.8583e-13
5.85848e-13
5.85845e-13
5.85824e-13
5.85784e-13
5.85724e-13
5.85637e-13
5.85525e-13
5.85394e-13
5.85263e-13
5.8513e-13
5.85019e-13
5.8491e-13
5.8476e-13
5.84765e-13
5.84732e-13
5.84673e-13
5.84637e-13
5.84586e-13
5.84515e-13
5.84427e-13
5.84319e-13
5.84192e-13
5.84051e-13
5.83894e-13
5.83722e-13
5.8354e-13
5.83367e-13
5.83203e-13
5.83006e-13
5.82934e-13
5.82835e-13
5.82717e-13
5.82647e-13
5.82561e-13
5.82404e-13
4.16976e-13
4.16935e-13
4.16902e-13
4.16938e-13
4.1733e-13
4.18287e-13
4.19586e-13
4.21098e-13
4.2261e-13
4.24017e-13
4.25296e-13
4.26536e-13
4.27746e-13
4.28897e-13
4.29962e-13
4.30897e-13
4.31705e-13
4.32411e-13
4.33008e-13
4.33486e-13
4.33899e-13
4.34223e-13
4.34447e-13
4.34563e-13
4.34564e-13
4.34429e-13
4.34141e-13
4.33679e-13
4.33059e-13
4.32293e-13
4.31399e-13
4.30385e-13
4.29268e-13
4.28083e-13
4.26846e-13
4.25572e-13
4.24315e-13
4.23112e-13
4.2198e-13
4.20932e-13
4.20004e-13
4.19227e-13
4.18619e-13
4.18177e-13
4.17935e-13
4.17913e-13
4.18139e-13
4.18606e-13
4.19311e-13
4.20238e-13
4.21406e-13
4.22805e-13
4.24438e-13
4.26266e-13
4.28337e-13
4.30605e-13
4.33011e-13
4.35582e-13
4.38272e-13
4.41097e-13
4.44011e-13
4.47028e-13
4.50118e-13
4.53279e-13
4.5651e-13
4.59747e-13
4.63031e-13
4.66316e-13
4.69582e-13
4.72871e-13
4.76097e-13
4.79309e-13
4.82561e-13
4.85745e-13
4.89008e-13
4.92192e-13
4.95382e-13
4.98497e-13
5.01568e-13
5.04542e-13
5.07448e-13
5.10264e-13
5.1302e-13
5.15749e-13
5.18494e-13
5.2118e-13
5.23771e-13
5.26297e-13
5.2871e-13
5.31059e-13
5.33358e-13
5.35615e-13
5.37807e-13
5.39978e-13
5.42063e-13
5.44106e-13
5.4612e-13
5.48119e-13
5.50067e-13
5.51954e-13
5.53811e-13
5.55586e-13
5.57271e-13
5.58906e-13
5.60506e-13
5.6204e-13
5.63519e-13
5.64941e-13
5.66352e-13
5.67698e-13
5.69066e-13
5.70333e-13
5.71516e-13
5.72645e-13
5.738e-13
5.75e-13
5.76261e-13
5.77619e-13
5.79129e-13
5.8108e-13
5.81495e-13
5.82322e-13
5.8342e-13
5.83839e-13
5.84401e-13
5.8504e-13
5.85729e-13
5.86442e-13
5.87167e-13
5.87902e-13
5.88593e-13
5.89246e-13
5.89906e-13
5.90573e-13
5.91238e-13
5.91914e-13
5.92558e-13
5.93174e-13
5.93768e-13
5.94369e-13
5.94947e-13
5.95504e-13
5.96043e-13
5.96583e-13
5.97133e-13
5.97689e-13
5.98257e-13
5.98849e-13
5.99544e-13
5.99889e-13
6.00311e-13
6.00804e-13
6.01148e-13
6.01529e-13
6.01835e-13
6.02145e-13
6.0243e-13
6.02715e-13
6.0298e-13
6.03239e-13
6.03501e-13
6.03773e-13
6.04051e-13
6.04338e-13
6.04636e-13
6.04945e-13
6.05261e-13
6.05583e-13
6.059e-13
6.0622e-13
6.06548e-13
6.06775e-13
6.07021e-13
6.07213e-13
6.07419e-13
6.07522e-13
6.07639e-13
6.07684e-13
6.07723e-13
6.07766e-13
6.07822e-13
6.07891e-13
6.07983e-13
6.08095e-13
6.08226e-13
6.08369e-13
6.0853e-13
6.08699e-13
6.08839e-13
6.08972e-13
6.09056e-13
6.09158e-13
6.09161e-13
6.09154e-13
6.0913e-13
6.09085e-13
6.09021e-13
6.08955e-13
6.08905e-13
6.08857e-13
6.08859e-13
6.08855e-13
6.08878e-13
6.0891e-13
6.08954e-13
6.08981e-13
6.08981e-13
6.08964e-13
6.08929e-13
6.08873e-13
6.08789e-13
6.08678e-13
6.08547e-13
6.08414e-13
6.08279e-13
6.08164e-13
6.08049e-13
6.07893e-13
6.07889e-13
6.0785e-13
6.07787e-13
6.07742e-13
6.07682e-13
6.07604e-13
6.07508e-13
6.07392e-13
6.07256e-13
6.07106e-13
6.06938e-13
6.06755e-13
6.0656e-13
6.06373e-13
6.0619e-13
6.05979e-13
6.05888e-13
6.0577e-13
6.05635e-13
6.05547e-13
6.05443e-13
6.05261e-13
4.17017e-13
4.16929e-13
4.16931e-13
4.17267e-13
4.18133e-13
4.1935e-13
4.20791e-13
4.22204e-13
4.23431e-13
4.24445e-13
4.25319e-13
4.26305e-13
4.27265e-13
4.28111e-13
4.28866e-13
4.29521e-13
4.3008e-13
4.30565e-13
4.30966e-13
4.31266e-13
4.31515e-13
4.3169e-13
4.31783e-13
4.31784e-13
4.31672e-13
4.3143e-13
4.31047e-13
4.30516e-13
4.29846e-13
4.29058e-13
4.28168e-13
4.27187e-13
4.26128e-13
4.25034e-13
4.23928e-13
4.22819e-13
4.21768e-13
4.2082e-13
4.19995e-13
4.19301e-13
4.1877e-13
4.18446e-13
4.18354e-13
4.18499e-13
4.18887e-13
4.19544e-13
4.20516e-13
4.21789e-13
4.23349e-13
4.25155e-13
4.27247e-13
4.2959e-13
4.32202e-13
4.34998e-13
4.38062e-13
4.41312e-13
4.44656e-13
4.48181e-13
4.51783e-13
4.555e-13
4.5926e-13
4.63082e-13
4.66935e-13
4.70807e-13
4.74718e-13
4.78556e-13
4.82415e-13
4.86212e-13
4.89926e-13
4.93641e-13
4.97211e-13
5.00742e-13
5.04294e-13
5.07717e-13
5.1123e-13
5.1461e-13
5.17969e-13
5.2122e-13
5.24391e-13
5.27432e-13
5.30385e-13
5.33225e-13
5.35986e-13
5.38698e-13
5.41424e-13
5.44074e-13
5.46607e-13
5.49066e-13
5.51406e-13
5.53673e-13
5.55895e-13
5.5807e-13
5.60183e-13
5.62267e-13
5.64253e-13
5.66193e-13
5.68108e-13
5.70006e-13
5.71851e-13
5.73634e-13
5.75394e-13
5.77064e-13
5.7865e-13
5.80196e-13
5.81702e-13
5.83143e-13
5.84531e-13
5.85874e-13
5.87201e-13
5.8847e-13
5.89761e-13
5.90949e-13
5.92062e-13
5.93127e-13
5.94229e-13
5.95374e-13
5.96569e-13
5.9787e-13
5.99299e-13
6.01111e-13
6.01537e-13
6.02308e-13
6.032e-13
6.03723e-13
6.04274e-13
6.04882e-13
6.05539e-13
6.06214e-13
6.06905e-13
6.07606e-13
6.08267e-13
6.08898e-13
6.09535e-13
6.10173e-13
6.10811e-13
6.11459e-13
6.12071e-13
6.12665e-13
6.1324e-13
6.13821e-13
6.14377e-13
6.14915e-13
6.15441e-13
6.15967e-13
6.16504e-13
6.17043e-13
6.17601e-13
6.18172e-13
6.18837e-13
6.19181e-13
6.19587e-13
6.2005e-13
6.20395e-13
6.20765e-13
6.21063e-13
6.21363e-13
6.2164e-13
6.21917e-13
6.22176e-13
6.22429e-13
6.22687e-13
6.22954e-13
6.23227e-13
6.23511e-13
6.23806e-13
6.2411e-13
6.24423e-13
6.24742e-13
6.25059e-13
6.25374e-13
6.257e-13
6.25928e-13
6.26172e-13
6.26362e-13
6.26567e-13
6.26673e-13
6.26792e-13
6.2684e-13
6.26883e-13
6.26928e-13
6.26987e-13
6.27056e-13
6.2715e-13
6.27263e-13
6.27395e-13
6.27537e-13
6.27699e-13
6.27869e-13
6.2801e-13
6.28144e-13
6.2823e-13
6.28331e-13
6.28339e-13
6.28331e-13
6.28307e-13
6.28261e-13
6.28197e-13
6.28132e-13
6.28079e-13
6.2803e-13
6.28032e-13
6.28019e-13
6.28043e-13
6.28069e-13
6.28111e-13
6.28129e-13
6.28127e-13
6.28107e-13
6.28067e-13
6.28006e-13
6.27917e-13
6.278e-13
6.27663e-13
6.27523e-13
6.27381e-13
6.27258e-13
6.27132e-13
6.26971e-13
6.26952e-13
6.26902e-13
6.26833e-13
6.26774e-13
6.26702e-13
6.26612e-13
6.26505e-13
6.26377e-13
6.2623e-13
6.26067e-13
6.25887e-13
6.25691e-13
6.25482e-13
6.25283e-13
6.25081e-13
6.24857e-13
6.24748e-13
6.24612e-13
6.24462e-13
6.24354e-13
6.24232e-13
6.24024e-13
4.17024e-13
4.16931e-13
4.17153e-13
4.17885e-13
4.1899e-13
4.20339e-13
4.21684e-13
4.22828e-13
4.23704e-13
4.24397e-13
4.25132e-13
4.25863e-13
4.26524e-13
4.27099e-13
4.27602e-13
4.28037e-13
4.28411e-13
4.28732e-13
4.28995e-13
4.29171e-13
4.29305e-13
4.29371e-13
4.29367e-13
4.29275e-13
4.29073e-13
4.28751e-13
4.28305e-13
4.27731e-13
4.27038e-13
4.26252e-13
4.25397e-13
4.24484e-13
4.23526e-13
4.22575e-13
4.21664e-13
4.20796e-13
4.20036e-13
4.19437e-13
4.19025e-13
4.18824e-13
4.18858e-13
4.19171e-13
4.19807e-13
4.20765e-13
4.22059e-13
4.23697e-13
4.25748e-13
4.28189e-13
4.30986e-13
4.34048e-13
4.37484e-13
4.41199e-13
4.45216e-13
4.49407e-13
4.53794e-13
4.5841e-13
4.63047e-13
4.6784e-13
4.727e-13
4.77535e-13
4.82413e-13
4.87182e-13
4.91986e-13
4.96642e-13
5.01343e-13
5.05791e-13
5.10235e-13
5.14509e-13
5.186e-13
5.22667e-13
5.26467e-13
5.30212e-13
5.33927e-13
5.37424e-13
5.41036e-13
5.44415e-13
5.47751e-13
5.50924e-13
5.53978e-13
5.5685e-13
5.59628e-13
5.62231e-13
5.64772e-13
5.67236e-13
5.69746e-13
5.72159e-13
5.74454e-13
5.76659e-13
5.78751e-13
5.80762e-13
5.82738e-13
5.84664e-13
5.86538e-13
5.8837e-13
5.90104e-13
5.91794e-13
5.9347e-13
5.95135e-13
5.96749e-13
5.98306e-13
5.99854e-13
6.013e-13
6.02676e-13
6.04017e-13
6.05311e-13
6.06548e-13
6.0774e-13
6.089e-13
6.10042e-13
6.11136e-13
6.1225e-13
6.13262e-13
6.14215e-13
6.15135e-13
6.161e-13
6.17101e-13
6.18137e-13
6.19285e-13
6.20533e-13
6.22084e-13
6.22505e-13
6.23132e-13
6.2375e-13
6.24319e-13
6.24771e-13
6.25275e-13
6.25834e-13
6.26401e-13
6.2699e-13
6.27588e-13
6.28154e-13
6.28704e-13
6.29254e-13
6.29801e-13
6.30352e-13
6.30912e-13
6.31436e-13
6.31952e-13
6.32454e-13
6.32959e-13
6.3344e-13
6.33907e-13
6.34372e-13
6.34835e-13
6.35308e-13
6.35781e-13
6.36279e-13
6.36782e-13
6.37365e-13
6.37674e-13
6.38022e-13
6.38411e-13
6.38717e-13
6.39038e-13
6.39291e-13
6.39544e-13
6.39778e-13
6.4001e-13
6.40227e-13
6.4044e-13
6.4066e-13
6.40885e-13
6.41121e-13
6.4137e-13
6.41628e-13
6.41895e-13
6.42174e-13
6.42457e-13
6.42744e-13
6.43023e-13
6.43316e-13
6.43517e-13
6.43728e-13
6.4389e-13
6.44065e-13
6.44149e-13
6.44241e-13
6.4427e-13
6.44294e-13
6.44318e-13
6.4436e-13
6.44406e-13
6.44482e-13
6.44575e-13
6.44687e-13
6.44806e-13
6.44947e-13
6.45096e-13
6.4522e-13
6.45334e-13
6.45403e-13
6.45479e-13
6.45477e-13
6.45457e-13
6.45416e-13
6.45354e-13
6.45275e-13
6.45198e-13
6.45128e-13
6.45065e-13
6.45052e-13
6.45015e-13
6.45034e-13
6.45038e-13
6.45065e-13
6.45065e-13
6.45051e-13
6.45016e-13
6.4496e-13
6.44884e-13
6.44781e-13
6.44649e-13
6.44497e-13
6.44342e-13
6.44185e-13
6.44048e-13
6.43904e-13
6.43732e-13
6.43692e-13
6.43624e-13
6.43541e-13
6.43462e-13
6.43372e-13
6.43265e-13
6.4314e-13
6.42996e-13
6.42832e-13
6.42652e-13
6.42455e-13
6.42243e-13
6.42017e-13
6.418e-13
6.41579e-13
6.41339e-13
6.41209e-13
6.41053e-13
6.40887e-13
6.40755e-13
6.40611e-13
6.40374e-13
4.16972e-13
4.16989e-13
4.1753e-13
4.18521e-13
4.1979e-13
4.21099e-13
4.22227e-13
4.2308e-13
4.23684e-13
4.24236e-13
4.24774e-13
4.2526e-13
4.25679e-13
4.2604e-13
4.26359e-13
4.26639e-13
4.26877e-13
4.27072e-13
4.2722e-13
4.27295e-13
4.2733e-13
4.27309e-13
4.27223e-13
4.27052e-13
4.26781e-13
4.26402e-13
4.25918e-13
4.2533e-13
4.24645e-13
4.23899e-13
4.23122e-13
4.22331e-13
4.2154e-13
4.20814e-13
4.20193e-13
4.19676e-13
4.19345e-13
4.19256e-13
4.19472e-13
4.19994e-13
4.20872e-13
4.22149e-13
4.23905e-13
4.26148e-13
4.28883e-13
4.3206e-13
4.35828e-13
4.40105e-13
4.44841e-13
4.49855e-13
4.55272e-13
4.61036e-13
4.66994e-13
4.733e-13
4.79306e-13
4.85808e-13
4.92385e-13
4.98729e-13
5.05407e-13
5.11558e-13
5.18015e-13
5.23833e-13
5.29893e-13
5.35363e-13
5.40995e-13
5.46015e-13
5.5103e-13
5.55694e-13
5.60098e-13
5.6438e-13
5.68188e-13
5.71932e-13
5.75489e-13
5.78764e-13
5.82141e-13
5.85173e-13
5.88136e-13
5.90876e-13
5.93447e-13
5.95788e-13
5.98023e-13
6.00013e-13
6.01985e-13
6.0383e-13
6.05821e-13
6.07675e-13
6.09424e-13
6.11078e-13
6.12618e-13
6.141e-13
6.15548e-13
6.16955e-13
6.18345e-13
6.197e-13
6.20974e-13
6.22214e-13
6.23467e-13
6.24724e-13
6.25931e-13
6.271e-13
6.28275e-13
6.29343e-13
6.30361e-13
6.31359e-13
6.32307e-13
6.33216e-13
6.34098e-13
6.34964e-13
6.35816e-13
6.36629e-13
6.37464e-13
6.38197e-13
6.38892e-13
6.39582e-13
6.40312e-13
6.41079e-13
6.41854e-13
6.42748e-13
6.43716e-13
6.44885e-13
6.45318e-13
6.45647e-13
6.45986e-13
6.4647e-13
6.46779e-13
6.47112e-13
6.47513e-13
6.479e-13
6.4832e-13
6.48745e-13
6.49153e-13
6.49555e-13
6.49957e-13
6.50353e-13
6.50758e-13
6.5117e-13
6.51551e-13
6.51931e-13
6.52307e-13
6.52683e-13
6.53036e-13
6.53383e-13
6.53736e-13
6.54086e-13
6.5445e-13
6.54808e-13
6.552e-13
6.55587e-13
6.56036e-13
6.56279e-13
6.56522e-13
6.56794e-13
6.5702e-13
6.57255e-13
6.57428e-13
6.57596e-13
6.57752e-13
6.57903e-13
6.58044e-13
6.58182e-13
6.58332e-13
6.58479e-13
6.58648e-13
6.58829e-13
6.59017e-13
6.59215e-13
6.59429e-13
6.59645e-13
6.59869e-13
6.60083e-13
6.60312e-13
6.60459e-13
6.60608e-13
6.60716e-13
6.60831e-13
6.60869e-13
6.60907e-13
6.60896e-13
6.60875e-13
6.60862e-13
6.60858e-13
6.60861e-13
6.60896e-13
6.60943e-13
6.61023e-13
6.61088e-13
6.61187e-13
6.61296e-13
6.61383e-13
6.61452e-13
6.61485e-13
6.61517e-13
6.61492e-13
6.61441e-13
6.61367e-13
6.61272e-13
6.61163e-13
6.61058e-13
6.60957e-13
6.60864e-13
6.6082e-13
6.60745e-13
6.60745e-13
6.60715e-13
6.60712e-13
6.60684e-13
6.60641e-13
6.60578e-13
6.60494e-13
6.60392e-13
6.60264e-13
6.60106e-13
6.59929e-13
6.5975e-13
6.59568e-13
6.59408e-13
6.59239e-13
6.59046e-13
6.58975e-13
6.58881e-13
6.58776e-13
6.58669e-13
6.58553e-13
6.5842e-13
6.58271e-13
6.58103e-13
6.57916e-13
6.57712e-13
6.57493e-13
6.57258e-13
6.5701e-13
6.56771e-13
6.56526e-13
6.56267e-13
6.56108e-13
6.55928e-13
6.55741e-13
6.55581e-13
6.55412e-13
6.55139e-13
4.16924e-13
4.17092e-13
4.17926e-13
4.19126e-13
4.20431e-13
4.21598e-13
4.22498e-13
4.23113e-13
4.23573e-13
4.2396e-13
4.24302e-13
4.24586e-13
4.24832e-13
4.25047e-13
4.25232e-13
4.25389e-13
4.25516e-13
4.25609e-13
4.25653e-13
4.25645e-13
4.25606e-13
4.25513e-13
4.25359e-13
4.2513e-13
4.24814e-13
4.24406e-13
4.23918e-13
4.23354e-13
4.22724e-13
4.22072e-13
4.2144e-13
4.20853e-13
4.20327e-13
4.19945e-13
4.19769e-13
4.19814e-13
4.20153e-13
4.2088e-13
4.22091e-13
4.23804e-13
4.26074e-13
4.28932e-13
4.32522e-13
4.36828e-13
4.41832e-13
4.47368e-13
4.53717e-13
4.60714e-13
4.68226e-13
4.76258e-13
4.84185e-13
4.92775e-13
5.01104e-13
5.10299e-13
5.18229e-13
5.26914e-13
5.36255e-13
5.44281e-13
5.53178e-13
5.60796e-13
5.69102e-13
5.76003e-13
5.8339e-13
5.8962e-13
5.96222e-13
6.01829e-13
6.07436e-13
6.12352e-13
6.1695e-13
6.21184e-13
6.24826e-13
6.28316e-13
6.31401e-13
6.34277e-13
6.36961e-13
6.39442e-13
6.41658e-13
6.43667e-13
6.45361e-13
6.46851e-13
6.48084e-13
6.49198e-13
6.50146e-13
6.51065e-13
6.5205e-13
6.53014e-13
6.53727e-13
6.54511e-13
6.55053e-13
6.55707e-13
6.56223e-13
6.56783e-13
6.57306e-13
6.57906e-13
6.58387e-13
6.58928e-13
6.59481e-13
6.6008e-13
6.60603e-13
6.61145e-13
6.61707e-13
6.62184e-13
6.62664e-13
6.63146e-13
6.63587e-13
6.64013e-13
6.64443e-13
6.64868e-13
6.65297e-13
6.65691e-13
6.66121e-13
6.66446e-13
6.66771e-13
6.67115e-13
6.67488e-13
6.67937e-13
6.6835e-13
6.68886e-13
6.69454e-13
6.70148e-13
6.7051e-13
6.70465e-13
6.70531e-13
6.70775e-13
6.70884e-13
6.71e-13
6.71164e-13
6.71307e-13
6.71468e-13
6.71651e-13
6.7183e-13
6.72018e-13
6.72212e-13
6.724e-13
6.72596e-13
6.72805e-13
6.7298e-13
6.7317e-13
6.73363e-13
6.73559e-13
6.73729e-13
6.73906e-13
6.74097e-13
6.74286e-13
6.74496e-13
6.74689e-13
6.74928e-13
6.75148e-13
6.75414e-13
6.75552e-13
6.75647e-13
6.75765e-13
6.75869e-13
6.75975e-13
6.76031e-13
6.76081e-13
6.76121e-13
6.76159e-13
6.76186e-13
6.76218e-13
6.76259e-13
6.76303e-13
6.76367e-13
6.76447e-13
6.76542e-13
6.76628e-13
6.76752e-13
6.76866e-13
6.76998e-13
6.77114e-13
6.77245e-13
6.77316e-13
6.77374e-13
6.77401e-13
6.77429e-13
6.77399e-13
6.7736e-13
6.77286e-13
6.77196e-13
6.77119e-13
6.77047e-13
6.76987e-13
6.76952e-13
6.76935e-13
6.76963e-13
6.76945e-13
6.76987e-13
6.77032e-13
6.77059e-13
6.77063e-13
6.7704e-13
6.77015e-13
6.76945e-13
6.76843e-13
6.76718e-13
6.76575e-13
6.7642e-13
6.76269e-13
6.76123e-13
6.75984e-13
6.75894e-13
6.7577e-13
6.75726e-13
6.75654e-13
6.75603e-13
6.75534e-13
6.75447e-13
6.75343e-13
6.75219e-13
6.75077e-13
6.74912e-13
6.74719e-13
6.74505e-13
6.74291e-13
6.74074e-13
6.7388e-13
6.73675e-13
6.73455e-13
6.73338e-13
6.7321e-13
6.73071e-13
6.72929e-13
6.72778e-13
6.72611e-13
6.72429e-13
6.72229e-13
6.72011e-13
6.71776e-13
6.71526e-13
6.71262e-13
6.70985e-13
6.70718e-13
6.70443e-13
6.7016e-13
6.69965e-13
6.69755e-13
6.69542e-13
6.69347e-13
6.69146e-13
6.68831e-13
4.16885e-13
4.17273e-13
4.18332e-13
4.1964e-13
4.20892e-13
4.21887e-13
4.2259e-13
4.23048e-13
4.23364e-13
4.23612e-13
4.23792e-13
4.23932e-13
4.24051e-13
4.24154e-13
4.24238e-13
4.243e-13
4.24333e-13
4.24339e-13
4.24311e-13
4.24239e-13
4.24137e-13
4.2399e-13
4.23791e-13
4.23532e-13
4.23201e-13
4.228e-13
4.22352e-13
4.21866e-13
4.21354e-13
4.20878e-13
4.20492e-13
4.20237e-13
4.20138e-13
4.20329e-13
4.20895e-13
4.21881e-13
4.23373e-13
4.25466e-13
4.28297e-13
4.31937e-13
4.3645e-13
4.41749e-13
4.48137e-13
4.55494e-13
4.6376e-13
4.72811e-13
4.8234e-13
4.9294e-13
5.03824e-13
5.15998e-13
5.26508e-13
5.38487e-13
5.49474e-13
5.61861e-13
5.72295e-13
5.83307e-13
5.95641e-13
6.0536e-13
6.16525e-13
6.2546e-13
6.35266e-13
6.4309e-13
6.51308e-13
6.58047e-13
6.65009e-13
6.70912e-13
6.76575e-13
6.81458e-13
6.85861e-13
6.89656e-13
6.93012e-13
6.9584e-13
6.98408e-13
7.00737e-13
7.02429e-13
7.04531e-13
7.05625e-13
7.07133e-13
7.07592e-13
7.08466e-13
7.08364e-13
7.08841e-13
7.08385e-13
7.08738e-13
7.08193e-13
7.08386e-13
7.0763e-13
7.07584e-13
7.06777e-13
7.06539e-13
7.05789e-13
7.05398e-13
7.04682e-13
7.04328e-13
7.03625e-13
7.03292e-13
7.02739e-13
7.02412e-13
7.01945e-13
7.01592e-13
7.01268e-13
7.0089e-13
7.00635e-13
7.00364e-13
7.00088e-13
6.99828e-13
6.99615e-13
6.99391e-13
6.99227e-13
6.98996e-13
6.98849e-13
6.98614e-13
6.98454e-13
6.98261e-13
6.98189e-13
6.98228e-13
6.98177e-13
6.98223e-13
6.98202e-13
6.98393e-13
6.98476e-13
6.98118e-13
6.97778e-13
6.97674e-13
6.97528e-13
6.97376e-13
6.97177e-13
6.97021e-13
6.96813e-13
6.96707e-13
6.96569e-13
6.96492e-13
6.96416e-13
6.96342e-13
6.96249e-13
6.96202e-13
6.96102e-13
6.96058e-13
6.96003e-13
6.95972e-13
6.95898e-13
6.95857e-13
6.95829e-13
6.95821e-13
6.95818e-13
6.95804e-13
6.95835e-13
6.95831e-13
6.95882e-13
6.95856e-13
6.9578e-13
6.95702e-13
6.95635e-13
6.95567e-13
6.95472e-13
6.95371e-13
6.95255e-13
6.95149e-13
6.95021e-13
6.94923e-13
6.94811e-13
6.94732e-13
6.94645e-13
6.94595e-13
6.94568e-13
6.94504e-13
6.94514e-13
6.94492e-13
6.94498e-13
6.94483e-13
6.94491e-13
6.94457e-13
6.94399e-13
6.94316e-13
6.94233e-13
6.94107e-13
6.93969e-13
6.93804e-13
6.93626e-13
6.9346e-13
6.93298e-13
6.93152e-13
6.93026e-13
6.92925e-13
6.92863e-13
6.92756e-13
6.92714e-13
6.92672e-13
6.92616e-13
6.92541e-13
6.9244e-13
6.92339e-13
6.92201e-13
6.92031e-13
6.91838e-13
6.9163e-13
6.91413e-13
6.91201e-13
6.90993e-13
6.90795e-13
6.90642e-13
6.90455e-13
6.90347e-13
6.9022e-13
6.90106e-13
6.89978e-13
6.89834e-13
6.89675e-13
6.89497e-13
6.89302e-13
6.89088e-13
6.88847e-13
6.88586e-13
6.88324e-13
6.88061e-13
6.87822e-13
6.87572e-13
6.87315e-13
6.87137e-13
6.86966e-13
6.86784e-13
6.86596e-13
6.86401e-13
6.8619e-13
6.85966e-13
6.85725e-13
6.85467e-13
6.85192e-13
6.84904e-13
6.84603e-13
6.84291e-13
6.83988e-13
6.83677e-13
6.83364e-13
6.8312e-13
6.82875e-13
6.82631e-13
6.82394e-13
6.82156e-13
6.81789e-13
4.16935e-13
4.1753e-13
4.18727e-13
4.20052e-13
4.21193e-13
4.22034e-13
4.22575e-13
4.22898e-13
4.23105e-13
4.2323e-13
4.23295e-13
4.23336e-13
4.23362e-13
4.23376e-13
4.2338e-13
4.2337e-13
4.23336e-13
4.23277e-13
4.23191e-13
4.23074e-13
4.22932e-13
4.22755e-13
4.22538e-13
4.2228e-13
4.21976e-13
4.2163e-13
4.21281e-13
4.20948e-13
4.20653e-13
4.20473e-13
4.20506e-13
4.2083e-13
4.21508e-13
4.22679e-13
4.24489e-13
4.27032e-13
4.30395e-13
4.34616e-13
4.39945e-13
4.46483e-13
4.54332e-13
4.63114e-13
4.73151e-13
4.84467e-13
4.96716e-13
5.10649e-13
5.23373e-13
5.3826e-13
5.52671e-13
5.69827e-13
5.8286e-13
5.98421e-13
6.11943e-13
6.27008e-13
6.40406e-13
6.52852e-13
6.67127e-13
6.78417e-13
6.90921e-13
7.00896e-13
7.10687e-13
7.19186e-13
7.26933e-13
7.33914e-13
7.40085e-13
7.4602e-13
7.50665e-13
7.55344e-13
7.58676e-13
7.61882e-13
7.64609e-13
7.66237e-13
7.68584e-13
7.69876e-13
7.70685e-13
7.72526e-13
7.72217e-13
7.73753e-13
7.72737e-13
7.73439e-13
7.72115e-13
7.722e-13
7.70689e-13
7.70706e-13
7.6903e-13
7.68562e-13
7.66788e-13
7.65997e-13
7.64234e-13
7.63158e-13
7.61477e-13
7.60206e-13
7.58561e-13
7.57235e-13
7.5558e-13
7.54302e-13
7.52766e-13
7.51433e-13
7.49953e-13
7.4862e-13
7.47293e-13
7.45919e-13
7.44744e-13
7.43539e-13
7.42348e-13
7.41208e-13
7.4015e-13
7.39102e-13
7.38135e-13
7.37135e-13
7.36201e-13
7.35246e-13
7.34443e-13
7.33613e-13
7.32955e-13
7.32439e-13
7.31833e-13
7.31214e-13
7.30445e-13
7.30025e-13
7.29657e-13
7.28874e-13
7.28046e-13
7.27537e-13
7.26989e-13
7.26475e-13
7.25873e-13
7.25314e-13
7.24687e-13
7.24197e-13
7.23687e-13
7.23267e-13
7.22846e-13
7.22439e-13
7.22004e-13
7.2162e-13
7.212e-13
7.20855e-13
7.205e-13
7.20172e-13
7.19816e-13
7.195e-13
7.19201e-13
7.18942e-13
7.18673e-13
7.1841e-13
7.1817e-13
7.17906e-13
7.17699e-13
7.17454e-13
7.17161e-13
7.16856e-13
7.16565e-13
7.16294e-13
7.16006e-13
7.15714e-13
7.15409e-13
7.15118e-13
7.14809e-13
7.14538e-13
7.14251e-13
7.14006e-13
7.13744e-13
7.13527e-13
7.13333e-13
7.13103e-13
7.12952e-13
7.12779e-13
7.1262e-13
7.12451e-13
7.12305e-13
7.12132e-13
7.11934e-13
7.11714e-13
7.11496e-13
7.11245e-13
7.10983e-13
7.10703e-13
7.10415e-13
7.10138e-13
7.09865e-13
7.0961e-13
7.09372e-13
7.09167e-13
7.08982e-13
7.08774e-13
7.08618e-13
7.08471e-13
7.08311e-13
7.08135e-13
7.07938e-13
7.0774e-13
7.07515e-13
7.0726e-13
7.06981e-13
7.0669e-13
7.06396e-13
7.06107e-13
7.05821e-13
7.05547e-13
7.05315e-13
7.0505e-13
7.04864e-13
7.04662e-13
7.04472e-13
7.04269e-13
7.04053e-13
7.03824e-13
7.03578e-13
7.03317e-13
7.0304e-13
7.02739e-13
7.0242e-13
7.021e-13
7.01779e-13
7.01485e-13
7.01178e-13
7.00873e-13
7.00618e-13
7.00395e-13
7.0016e-13
6.99917e-13
6.99666e-13
6.99402e-13
6.99126e-13
6.98834e-13
6.98528e-13
6.98204e-13
6.97869e-13
6.97523e-13
6.97167e-13
6.96822e-13
6.96468e-13
6.96118e-13
6.95812e-13
6.9553e-13
6.95246e-13
6.94959e-13
6.94677e-13
6.94249e-13
4.17097e-13
4.17808e-13
4.19069e-13
4.20362e-13
4.21379e-13
4.22086e-13
4.22496e-13
4.22701e-13
4.2282e-13
4.22853e-13
4.22843e-13
4.22813e-13
4.2277e-13
4.22721e-13
4.22665e-13
4.226e-13
4.22518e-13
4.22416e-13
4.22295e-13
4.22156e-13
4.21998e-13
4.21818e-13
4.21617e-13
4.21402e-13
4.21173e-13
4.20948e-13
4.20786e-13
4.20723e-13
4.20821e-13
4.21189e-13
4.21965e-13
4.23292e-13
4.25272e-13
4.28043e-13
4.31812e-13
4.3676e-13
4.4295e-13
4.50138e-13
4.59034e-13
4.69448e-13
4.81533e-13
4.95088e-13
5.08928e-13
5.24904e-13
5.41522e-13
5.61461e-13
5.77312e-13
5.96809e-13
6.14242e-13
6.35767e-13