/*--------------------------------*- C++ -*----------------------------------*\
| =========                 |                                                 |
| \\      /  F ield         | OpenFOAM: The Open Source CFD Toolbox           |
|  \\    /   O peration     | Version:  2312                                  |
|   \\  /    A nd           | Website:  www.openfoam.com                      |
|    \\/     M anipulation  |                                                 |
\*---------------------------------------------------------------------------*/
FoamFile
{
    version     2.0;
    format      ascii;
    arch        "LSB;label=32;scalar=64";
    class       volScalarField;
    location    "0.005";
    object      thermo:psiGasEff;
}
// * * * * * * * * * * * * * * * * * * * * * * * * * * * * * * * * * * * * * //

dimensions      [-2 4 2 0 0 0 0];

internalField   nonuniform List<scalar> 
48128
(
0.00812531
0.00812627
0.00814117
0.00814644
0.00815283
0.00816465
0.00818425
0.00821789
0.00827097
0.00834032
0.00846079
0.00860006
0.00873682
0.00885775
0.00895707
0.0090293
0.00908071
0.00911291
0.00912076
0.00910449
0.00906974
0.00901402
0.00893563
0.00883292
0.00870415
0.00854787
0.00836539
0.00815498
0.00791779
0.00765693
0.00737711
0.00708121
0.00677125
0.00645107
0.00612476
0.00579624
0.00547201
0.00515211
0.00483943
0.00453763
0.00424674
0.00396982
0.00370297
0.00345334
0.0032165
0.00299755
0.00278995
0.00259862
0.00241873
0.00225529
0.00210251
0.00196391
0.0018352
0.0017195
0.00161187
0.00151503
0.00142634
0.00134566
0.00127221
0.00120536
0.00114467
0.00108947
0.00103919
0.00099344
0.000951596
0.000913537
0.000878711
0.0008467
0.000817764
0.000791062
0.000766816
0.000744819
0.000724453
0.000706438
0.000689601
0.000674952
0.000661049
0.000649044
0.00063746
0.000627382
0.000617379
0.000608703
0.000600085
0.000592734
0.000585794
0.000580012
0.000574378
0.000569402
0.00056441
0.000559985
0.000555556
0.000551774
0.000548012
0.000544785
0.000541609
0.0005388
0.000536201
0.000534032
0.000532114
0.000530305
0.000528658
0.000526987
0.000525276
0.00052357
0.000521903
0.000520235
0.000518565
0.000516894
0.000515348
0.000513879
0.00051252
0.000511026
0.000509395
0.000507777
0.000506137
0.000504936
0.000504684
0.000504964
0.00050645
0.000508494
0.000504593
0.000504261
0.000504
0.00050083
0.000498532
0.000496425
0.000494515
0.000493065
0.000491856
0.000490678
0.000489447
0.000488213
0.000486985
0.000486047
0.000485189
0.000484505
0.000483796
0.000483055
0.00048228
0.00048166
0.000481039
0.000480418
0.000479773
0.00047929
0.000478846
0.000478739
0.000478706
0.000478954
0.000479295
0.000478531
0.000478464
0.000478417
0.000477953
0.000477547
0.000476928
0.000476301
0.000475631
0.00047498
0.000474297
0.000473661
0.000473045
0.000472567
0.000472197
0.00047188
0.000471741
0.00047179
0.000471904
0.000472103
0.000472361
0.000472696
0.000473088
0.000473101
0.000473201
0.00047319
0.000473077
0.000472762
0.000472364
0.0004718
0.000471172
0.00047058
0.00047004
0.000469648
0.00046936
0.000469282
0.00046937
0.000469553
0.000469863
0.000470224
0.000470539
0.000470828
0.000471024
0.000471127
0.000471018
0.000470811
0.000470543
0.00047017
0.000469714
0.000469271
0.000468921
0.000468628
0.000468577
0.000468609
0.000468761
0.000468994
0.000469311
0.000469596
0.000469847
0.000470051
0.000470104
0.000470093
0.000469977
0.000469743
0.000469432
0.000469127
0.000468811
0.000468605
0.000468441
0.000468294
0.000468656
0.000468831
0.000469019
0.000469317
0.000469575
0.000469807
0.000469944
0.000469975
0.000469942
0.000469854
0.000469687
0.000469456
0.000469166
0.000468948
0.000468733
0.000468569
0.000468831
0.000468899
0.000469061
0.000469368
0.000469631
0.000469972
0.0081274
0.00812636
0.00814247
0.00814698
0.00814642
0.00815821
0.0081736
0.00819701
0.00825056
0.00832402
0.00843323
0.00855528
0.00867204
0.00877331
0.00884944
0.00891134
0.00895461
0.00898023
0.00898435
0.00896658
0.00893241
0.00887946
0.00880596
0.00871007
0.00858955
0.0084422
0.00826872
0.00807109
0.00784772
0.00760161
0.00733442
0.00705032
0.00675254
0.00644391
0.00612778
0.00580838
0.00549132
0.0051773
0.00486921
0.0045703
0.0042812
0.00400538
0.00373892
0.00348804
0.00324926
0.00302778
0.00281805
0.00262411
0.00244147
0.00227462
0.00211883
0.00197696
0.00184534
0.00172649
0.00161645
0.00151696
0.0014257
0.00134262
0.00126704
0.00119822
0.00113566
0.0010787
0.00102677
0.000979453
0.000936188
0.00089678
0.00086072
0.000827725
0.000797893
0.00077029
0.000745157
0.000722332
0.000701246
0.000682524
0.000665058
0.000649746
0.000635252
0.000622622
0.000610472
0.000599779
0.000589248
0.000579984
0.000570858
0.000563007
0.000555653
0.000549377
0.000543282
0.000537797
0.000532346
0.00052744
0.000522596
0.000518358
0.00051419
0.000510526
0.000506931
0.000503685
0.000500674
0.00049809
0.000495721
0.000493475
0.000491388
0.000489278
0.000487137
0.00048503
0.000482971
0.000480928
0.000478884
0.000476873
0.000474976
0.00047318
0.000471496
0.000469686
0.000467754
0.000465854
0.000463958
0.000462494
0.000461897
0.000461754
0.000462682
0.000464112
0.000460157
0.000459411
0.000458647
0.000455581
0.000453102
0.000450999
0.000449025
0.000447454
0.000446099
0.000444784
0.000443425
0.000442069
0.000440729
0.000439653
0.000438649
0.000437804
0.000436935
0.000436037
0.000435119
0.000434341
0.000433567
0.000432797
0.000432016
0.000431382
0.000430791
0.000430506
0.000430263
0.000430258
0.00043032
0.000429413
0.000429106
0.000428797
0.000428194
0.000427578
0.000426839
0.000426066
0.000425274
0.000424506
0.000423721
0.000422992
0.000422274
0.000421702
0.000421234
0.000420804
0.000420543
0.000420445
0.000420404
0.000420438
0.000420525
0.000420688
0.00042088
0.000420768
0.000420737
0.000420615
0.000420382
0.000420009
0.000419554
0.000418951
0.000418304
0.000417686
0.000417136
0.0004167
0.000416395
0.000416264
0.000416292
0.000416404
0.000416627
0.0004169
0.000417112
0.000417329
0.000417451
0.000417497
0.000417345
0.000417118
0.000416835
0.000416465
0.000416025
0.000415598
0.000415261
0.000414977
0.000414914
0.000414926
0.000415041
0.000415237
0.000415499
0.000415748
0.000415958
0.000416131
0.000416164
0.000416144
0.000416027
0.000415811
0.000415529
0.000415255
0.000414978
0.000414799
0.000414661
0.000414556
0.000414876
0.000415041
0.000415222
0.000415491
0.000415731
0.000415949
0.000416081
0.000416119
0.0004161
0.000416034
0.0004159
0.000415713
0.000415477
0.000415306
0.000415142
0.000415043
0.000415295
0.000415377
0.000415554
0.00041585
0.000416109
0.000416452
0.0081269
0.00813046
0.00814719
0.00814521
0.00814644
0.00815239
0.0081631
0.00819547
0.00825038
0.00832785
0.00843161
0.00853913
0.00865187
0.00875737
0.00884804
0.00891462
0.0089603
0.00898959
0.00899792
0.00898553
0.00895717
0.00891066
0.00884376
0.0087538
0.00863802
0.00849734
0.00832931
0.00813695
0.00791815
0.00767695
0.00741409
0.007132
0.00683506
0.0065269
0.0062092
0.00588815
0.00556831
0.00525126
0.00493939
0.00463616
0.00434219
0.00406166
0.00379035
0.00353424
0.00329014
0.00306343
0.00284905
0.00265052
0.00246336
0.00229199
0.00213198
0.00198624
0.00185115
0.00172924
0.00161645
0.00151425
0.00142082
0.00133574
0.00125838
0.00118799
0.00112403
0.00106585
0.00101287
0.000964621
0.000920585
0.000880551
0.000843949
0.00081054
0.000780237
0.000752259
0.000726862
0.000703774
0.000682537
0.000663676
0.000646109
0.000630697
0.00061613
0.000603438
0.000591236
0.000580462
0.000569889
0.00056055
0.000551352
0.000543463
0.000536134
0.000529864
0.000523754
0.000518245
0.00051277
0.000507837
0.00050298
0.000498721
0.000494536
0.00049085
0.000487225
0.000483945
0.000480903
0.000478296
0.000475881
0.000473592
0.00047146
0.000469301
0.000467114
0.000464962
0.000462861
0.000460774
0.00045869
0.000456639
0.000454701
0.000452861
0.000451135
0.00044929
0.000447321
0.000445378
0.000443452
0.00044198
0.000441299
0.000441081
0.000441759
0.000443086
0.000439442
0.000438357
0.000437418
0.000434539
0.000431997
0.000429866
0.000427898
0.000426311
0.000424911
0.000423567
0.000422186
0.00042081
0.000419457
0.000418352
0.000417315
0.000416432
0.000415529
0.000414598
0.000413652
0.000412835
0.000412023
0.000411216
0.000410401
0.000409727
0.000409102
0.000408758
0.000408466
0.000408375
0.000408384
0.000407492
0.000407088
0.000406726
0.000406092
0.000405431
0.000404663
0.000403858
0.000403039
0.000402242
0.00040143
0.000400677
0.00039993
0.000399331
0.000398829
0.000398366
0.000398067
0.000397918
0.000397826
0.000397807
0.00039784
0.000397942
0.000398066
0.000397913
0.000397821
0.000397653
0.000397382
0.000396981
0.000396491
0.000395889
0.000395237
0.000394609
0.000394051
0.000393611
0.000393286
0.000393134
0.000393132
0.000393204
0.000393387
0.00039361
0.000393794
0.000393954
0.000394045
0.000394048
0.000393885
0.000393653
0.00039336
0.000392987
0.000392549
0.000392127
0.000391793
0.000391511
0.000391442
0.000391437
0.000391539
0.000391716
0.000391956
0.000392174
0.000392362
0.000392515
0.000392535
0.000392506
0.000392386
0.000392176
0.000391901
0.000391639
0.000391375
0.000391204
0.000391079
0.000390985
0.000391279
0.000391447
0.000391618
0.000391872
0.000392103
0.000392309
0.000392432
0.000392471
0.000392455
0.000392395
0.000392274
0.000392102
0.000391885
0.000391732
0.000391593
0.000391507
0.000391754
0.000391854
0.000392032
0.000392321
0.000392579
0.000392917
0.00812354
0.00814071
0.00814997
0.00814961
0.00814163
0.00814368
0.00816379
0.00820432
0.00826964
0.00835565
0.00846149
0.00858357
0.00869689
0.00879612
0.00888269
0.00894783
0.00899393
0.00902517
0.00903638
0.00902826
0.00900427
0.00896229
0.00889936
0.00881295
0.00870205
0.00856649
0.00840261
0.00821434
0.00799899
0.00776002
0.0074987
0.00721666
0.00691937
0.00661034
0.00628987
0.00596593
0.00564221
0.00532131
0.00500458
0.00469629
0.00439661
0.00411109
0.0038334
0.00357161
0.00332168
0.00309003
0.00287014
0.00266647
0.00247411
0.00229856
0.00213413
0.0019848
0.00184613
0.00172143
0.00160602
0.0015014
0.00140631
0.00131972
0.00124105
0.00116963
0.00110477
0.00104588
0.000992314
0.000943637
0.000899289
0.000859137
0.000822377
0.000789008
0.000758685
0.000730754
0.000705514
0.00068247
0.00066142
0.000642725
0.000625346
0.000610145
0.000595761
0.000583296
0.00057129
0.000560694
0.000550306
0.00054112
0.000532034
0.000524316
0.000517202
0.000511145
0.00050521
0.00049987
0.000494549
0.000489775
0.000485071
0.000480965
0.000476919
0.000473373
0.000469872
0.000466718
0.000463795
0.000461316
0.000458999
0.000456813
0.000454777
0.000452709
0.000450615
0.000448552
0.000446539
0.000444534
0.000442535
0.000440564
0.000438708
0.000436932
0.000435274
0.000433497
0.000431602
0.000429717
0.000427863
0.000426496
0.000425837
0.000425656
0.000426162
0.000427433
0.000424359
0.000422977
0.000421859
0.000419301
0.000416803
0.000414689
0.000412797
0.000411257
0.000409867
0.000408553
0.00040721
0.000405872
0.000404562
0.000403483
0.000402465
0.000401597
0.000400711
0.000399802
0.000398882
0.000398079
0.000397278
0.000396486
0.000395688
0.000395025
0.000394415
0.000394063
0.000393774
0.000393644
0.000393638
0.000392837
0.00039238
0.000391997
0.00039139
0.000390732
0.000389978
0.000389185
0.000388379
0.000387594
0.000386793
0.000386052
0.000385316
0.000384721
0.00038422
0.000383761
0.000383459
0.000383296
0.00038319
0.000383156
0.000383173
0.000383248
0.000383356
0.0003832
0.000383083
0.0003829
0.000382622
0.00038222
0.000381728
0.000381134
0.000380492
0.000379872
0.000379324
0.000378889
0.000378561
0.000378407
0.000378392
0.000378447
0.000378608
0.00037881
0.00037898
0.000379121
0.00037919
0.000379173
0.000379014
0.000378782
0.000378488
0.000378118
0.000377689
0.000377276
0.000376949
0.000376668
0.000376602
0.000376587
0.000376685
0.000376851
0.000377078
0.000377282
0.000377457
0.0003776
0.000377613
0.000377582
0.000377463
0.000377259
0.000376992
0.000376738
0.000376484
0.000376318
0.000376204
0.000376119
0.000376384
0.000376564
0.000376731
0.000376974
0.000377201
0.000377402
0.00037752
0.000377559
0.000377547
0.000377492
0.000377378
0.000377216
0.000377013
0.000376868
0.000376748
0.000376667
0.000376905
0.000377021
0.0003772
0.000377482
0.000377741
0.000378079
0.00812223
0.00814888
0.00815173
0.00814581
0.00813505
0.00814626
0.00817676
0.00823193
0.00830937
0.00840637
0.00852085
0.00863759
0.00874827
0.00884553
0.00892801
0.00899189
0.00903835
0.00907017
0.00908346
0.00907848
0.00905761
0.00901854
0.00895866
0.00887635
0.00876965
0.00863761
0.00847825
0.00829243
0.00807934
0.00784175
0.00758108
0.00729819
0.00699985
0.00668947
0.00636516
0.00603736
0.00570886
0.00538312
0.00506014
0.00474574
0.00443909
0.00414878
0.00386236
0.00359389
0.00333657
0.00309957
0.00287293
0.00266355
0.00246551
0.00228631
0.0021176
0.00196512
0.00182305
0.00169594
0.00157813
0.00147216
0.00137602
0.00128861
0.0012094
0.0011376
0.00107265
0.00101369
0.000960265
0.000911887
0.000867921
0.000828331
0.000792017
0.00075933
0.000729539
0.000702287
0.000677776
0.000655204
0.000634796
0.000616645
0.000599828
0.000585211
0.000571329
0.000559408
0.000547883
0.000537745
0.000527793
0.00051901
0.000510258
0.000502948
0.000496254
0.000490589
0.000484997
0.000479984
0.00047496
0.000470487
0.000466071
0.000462248
0.000458461
0.000455177
0.000451916
0.000449007
0.000446317
0.00044407
0.000441945
0.000439957
0.000438105
0.000436211
0.000434295
0.000432412
0.000430568
0.000428726
0.000426893
0.000425083
0.000423386
0.000421745
0.000420217
0.00041857
0.000416821
0.000415061
0.000413351
0.000412172
0.000411601
0.000411516
0.000411899
0.000413095
0.000410706
0.000409095
0.000407782
0.0004056
0.000403242
0.000401208
0.000399441
0.000397987
0.000396644
0.000395398
0.000394129
0.00039287
0.000391646
0.000390631
0.000389666
0.000388847
0.000388007
0.000387155
0.000386298
0.000385541
0.000384781
0.000384037
0.000383289
0.00038267
0.000382108
0.000381776
0.000381519
0.000381377
0.000381376
0.000380702
0.000380218
0.000379831
0.000379276
0.000378651
0.000377935
0.000377181
0.000376412
0.000375662
0.000374894
0.000374188
0.000373485
0.000372917
0.000372437
0.000372003
0.000371721
0.000371563
0.000371465
0.000371437
0.000371458
0.000371523
0.000371636
0.0003715
0.000371379
0.000371198
0.000370932
0.000370545
0.000370069
0.000369497
0.000368878
0.00036828
0.000367752
0.000367334
0.000367016
0.000366872
0.000366858
0.000366906
0.000367059
0.000367254
0.000367421
0.000367558
0.000367617
0.000367597
0.000367448
0.000367225
0.000366936
0.000366576
0.000366166
0.000365769
0.000365454
0.000365179
0.000365125
0.000365103
0.000365205
0.000365364
0.000365584
0.000365785
0.000365954
0.00036609
0.000366103
0.000366074
0.000365961
0.000365767
0.000365511
0.000365267
0.000365026
0.000364868
0.000364765
0.000364691
0.000364931
0.000365122
0.000365293
0.000365527
0.000365753
0.000365952
0.000366068
0.000366112
0.000366104
0.000366055
0.00036595
0.000365799
0.000365608
0.000365471
0.000365368
0.000365293
0.000365519
0.000365651
0.000365834
0.000366109
0.000366369
0.00036671
0.00810694
0.00814759
0.0081403
0.00813329
0.00813544
0.00815699
0.00820399
0.00827471
0.00836335
0.00846797
0.00858432
0.00869795
0.00880469
0.00889883
0.00897799
0.00904018
0.00908632
0.00911788
0.00913245
0.00912978
0.00911092
0.00907467
0.00901821
0.00893996
0.00883714
0.00870904
0.00855331
0.00836912
0.00815765
0.00792093
0.00766045
0.00737571
0.00707535
0.00676298
0.00643302
0.00609981
0.00576565
0.00543318
0.00510183
0.00477921
0.00446292
0.00416583
0.00387214
0.00359584
0.00332957
0.0030861
0.00285144
0.00263576
0.00243156
0.00224858
0.00207566
0.00192082
0.00177594
0.00164742
0.00152723
0.00142206
0.00132572
0.00123807
0.00115963
0.00108811
0.0010242
0.000966009
0.000913691
0.000866434
0.000823757
0.000785498
0.000750401
0.00071915
0.000690538
0.000664642
0.000641463
0.000619908
0.000600722
0.000583595
0.000567831
0.000554267
0.000541303
0.000530316
0.000519635
0.000510298
0.000501095
0.000493049
0.000484964
0.000478376
0.000472353
0.000467272
0.000462196
0.000457682
0.000453112
0.000449106
0.000445125
0.000441726
0.000438334
0.000435445
0.000432535
0.00042999
0.000427632
0.000425705
0.00042385
0.000422142
0.00042054
0.000418887
0.000417225
0.0004156
0.000413998
0.000412386
0.000410785
0.000409205
0.000407728
0.000406283
0.000404935
0.000403466
0.00040192
0.000400345
0.000398849
0.000397932
0.000397504
0.000397551
0.000397844
0.000398958
0.000397261
0.000395514
0.000394051
0.000392239
0.000390137
0.000388241
0.000386633
0.000385291
0.000384022
0.000382877
0.000381712
0.000380572
0.000379472
0.000378553
0.000377671
0.000376925
0.000376157
0.000375393
0.000374629
0.000373946
0.000373251
0.000372584
0.000371913
0.000371368
0.000370881
0.000370591
0.000370391
0.000370259
0.000370275
0.000369749
0.000369268
0.000368896
0.000368405
0.000367835
0.000367176
0.000366482
0.000365767
0.00036507
0.000364351
0.000363698
0.000363047
0.000362524
0.00036208
0.00036169
0.000361444
0.000361306
0.000361231
0.000361226
0.000361263
0.000361332
0.000361464
0.000361368
0.000361254
0.000361088
0.000360846
0.000360489
0.000360044
0.000359505
0.00035892
0.000358361
0.000357862
0.000357474
0.000357174
0.000357052
0.00035705
0.0003571
0.000357256
0.000357454
0.000357627
0.00035777
0.000357831
0.00035782
0.00035769
0.000357481
0.000357205
0.000356863
0.000356481
0.000356106
0.000355811
0.000355553
0.00035551
0.000355489
0.000355605
0.00035576
0.000355982
0.000356184
0.000356353
0.000356488
0.000356505
0.000356484
0.000356386
0.000356204
0.000355964
0.000355734
0.00035551
0.000355364
0.000355276
0.000355213
0.000355435
0.000355637
0.000355817
0.000356047
0.000356274
0.000356476
0.000356593
0.000356643
0.000356644
0.000356603
0.000356507
0.000356369
0.000356193
0.000356067
0.000355982
0.000355913
0.000356127
0.000356277
0.000356467
0.000356735
0.000356998
0.000357345
0.00808626
0.00812217
0.00812101
0.00812375
0.00813922
0.00817815
0.00824212
0.00832335
0.0084197
0.00853309
0.00864919
0.0087597
0.00886207
0.00895219
0.0090279
0.00908807
0.00913344
0.00916442
0.00917964
0.00917924
0.00916258
0.00912956
0.00907722
0.00900273
0.00890362
0.0087792
0.00862649
0.00844322
0.0082325
0.00799608
0.00773546
0.00744743
0.00714323
0.00682858
0.00649001
0.0061477
0.00580645
0.00546537
0.00512393
0.00479081
0.00446326
0.00415745
0.00385314
0.00356834
0.00329198
0.00304068
0.00279743
0.00257556
0.00236587
0.00217905
0.00200122
0.00184609
0.00169931
0.00157217
0.00144959
0.00134791
0.00125335
0.00116578
0.00108983
0.00102008
0.000958458
0.000902036
0.000851947
0.000806709
0.000766326
0.000730243
0.000697144
0.000668099
0.000641256
0.000617323
0.000595958
0.000575954
0.000558625
0.000542961
0.000528791
0.000516744
0.000505139
0.000495447
0.000485986
0.000477761
0.000469642
0.000462626
0.000455546
0.000449966
0.000444858
0.00044057
0.000436211
0.000432416
0.000428479
0.000425151
0.000421774
0.000418982
0.000416149
0.000413826
0.000411369
0.00040933
0.000407398
0.000405875
0.00040437
0.000403026
0.00040175
0.000400408
0.000399086
0.000397792
0.000396491
0.000395165
0.000393855
0.000392563
0.000391355
0.000390151
0.000389027
0.000387768
0.000386476
0.000385139
0.000383936
0.000383346
0.000383108
0.000383302
0.00038352
0.000384556
0.000383448
0.000381748
0.000380183
0.00037872
0.000376953
0.000375264
0.000373836
0.000372628
0.000371451
0.000370439
0.0003694
0.000368417
0.000367474
0.000366675
0.0003659
0.000365253
0.00036457
0.000363925
0.000363281
0.000362695
0.000362083
0.000361517
0.00036095
0.000360503
0.000360114
0.000359886
0.000359759
0.000359657
0.000359703
0.000359328
0.000358889
0.000358549
0.000358128
0.000357632
0.00035705
0.000356432
0.000355789
0.00035516
0.000354505
0.000353922
0.00035334
0.000352878
0.000352479
0.000352153
0.000351956
0.000351848
0.000351813
0.000351842
0.000351909
0.000351992
0.000352155
0.000352114
0.000352018
0.000351877
0.00035167
0.000351354
0.000350953
0.000350459
0.000349918
0.000349414
0.000348952
0.000348609
0.000348334
0.000348246
0.000348264
0.000348327
0.000348494
0.000348702
0.000348889
0.000349048
0.000349121
0.000349127
0.000349022
0.000348834
0.000348579
0.000348264
0.000347918
0.000347576
0.000347307
0.000347077
0.000347044
0.000347039
0.000347169
0.000347329
0.000347556
0.000347764
0.00034794
0.00034808
0.000348108
0.0003481
0.000348021
0.000347858
0.000347637
0.000347427
0.000347224
0.000347096
0.000347029
0.000346979
0.000347187
0.000347403
0.000347597
0.000347828
0.000348058
0.000348265
0.000348387
0.000348448
0.00034846
0.000348429
0.000348346
0.000348225
0.000348067
0.000347954
0.000347888
0.000347829
0.000348031
0.000348202
0.000348401
0.000348664
0.000348933
0.000349288
0.0080502
0.00809195
0.00810138
0.00811747
0.00815049
0.00820725
0.0082822
0.00837068
0.00848059
0.00859757
0.00871143
0.00881877
0.00891663
0.00900243
0.00907479
0.00913311
0.0091775
0.00920775
0.00922356
0.00922619
0.00921233
0.00918275
0.00913419
0.00906339
0.00896748
0.00884627
0.00869626
0.00851285
0.00830179
0.00806459
0.00780369
0.00750996
0.0071966
0.00688023
0.00653162
0.00617596
0.00582089
0.00547374
0.00511834
0.00477288
0.00443073
0.00411293
0.00379439
0.00349908
0.00321306
0.00295321
0.00270146
0.00247621
0.00226384
0.00207653
0.00189269
0.00174109
0.00159466
0.00147236
0.00135034
0.00125253
0.0011621
0.00107736
0.00100518
0.000938842
0.000880601
0.000827394
0.000780432
0.000738226
0.000700859
0.00066762
0.00063698
0.000610594
0.000585843
0.000564377
0.000544969
0.000526839
0.000511698
0.000497508
0.00048529
0.000474822
0.000464787
0.000456457
0.000448359
0.000441332
0.000434451
0.000428573
0.000422577
0.000418197
0.000413989
0.00041071
0.000407139
0.000404303
0.000401069
0.000398631
0.000395948
0.000393923
0.000391754
0.000390163
0.00038824
0.000386874
0.000385443
0.000384425
0.000383361
0.000382472
0.000381616
0.000380661
0.000379784
0.000378877
0.000377928
0.000376938
0.000375981
0.000375029
0.00037414
0.000373217
0.000372365
0.000371351
0.000370357
0.000369307
0.000368501
0.000368278
0.000368275
0.00036861
0.000368756
0.000369696
0.000369067
0.000367593
0.000365998
0.000364825
0.000363449
0.000362063
0.000360813
0.000359763
0.000358693
0.000357844
0.000356947
0.000356155
0.000355395
0.000354734
0.000354082
0.000353553
0.00035297
0.000352468
0.000351963
0.000351494
0.00035098
0.000350537
0.000350093
0.000349769
0.000349492
0.000349344
0.0003493
0.000349246
0.000349333
0.000349106
0.000348747
0.00034845
0.000348108
0.000347701
0.000347213
0.000346687
0.000346128
0.000345586
0.000345003
0.00034451
0.000344004
0.000343625
0.000343274
0.000343029
0.000342896
0.000342823
0.000342845
0.000342916
0.000343023
0.000343135
0.000343333
0.000343353
0.000343289
0.000343187
0.000343022
0.000342754
0.000342405
0.000341966
0.000341485
0.000341047
0.000340634
0.000340345
0.000340104
0.00034006
0.000340106
0.000340188
0.000340374
0.0003406
0.00034081
0.000340993
0.000341084
0.000341108
0.000341036
0.00034088
0.000340655
0.000340375
0.000340073
0.000339772
0.000339535
0.00033934
0.000339322
0.000339343
0.000339488
0.000339663
0.000339897
0.000340119
0.000340305
0.000340455
0.0003405
0.00034051
0.000340453
0.000340317
0.000340121
0.000339936
0.000339759
0.000339653
0.000339612
0.000339579
0.000339778
0.00034001
0.000340222
0.000340459
0.000340694
0.000340908
0.00034104
0.000341115
0.000341141
0.000341125
0.000341057
0.000340954
0.000340819
0.000340723
0.000340678
0.000340632
0.000340825
0.000341018
0.00034123
0.000341492
0.000341766
0.000342133
0.00802042
0.00806183
0.00808546
0.00811778
0.0081685
0.00823779
0.00832032
0.00842226
0.00854052
0.00865663
0.00876855
0.00887244
0.00896609
0.00904799
0.00911728
0.00917362
0.00921695
0.00924702
0.00926426
0.00927002
0.00925942
0.00923275
0.00918772
0.00912048
0.00902695
0.00890832
0.00876056
0.00857561
0.00836253
0.00812146
0.00785979
0.00756057
0.00723096
0.00690805
0.00654669
0.00617857
0.00580613
0.00544429
0.00506953
0.00470957
0.00435212
0.00401923
0.00368599
0.0033815
0.00308945
0.00282348
0.00255943
0.00233982
0.00212838
0.00194744
0.00176104
0.00161589
0.00147385
0.00135841
0.00124188
0.00114611
0.0010627
0.000983672
0.000916535
0.000854801
0.000800844
0.000752031
0.000708719
0.000670313
0.000636174
0.000606248
0.000578487
0.000554737
0.000532261
0.000513395
0.000495631
0.000479566
0.000466346
0.00045349
0.00044304
0.000433862
0.000425166
0.000418048
0.000410973
0.000405022
0.000399038
0.000394193
0.000388996
0.000385751
0.000382131
0.000379825
0.000376802
0.000374927
0.000372271
0.000370683
0.000368652
0.000367332
0.000365796
0.000364903
0.000363543
0.000362893
0.000362043
0.000361577
0.000360981
0.00036061
0.000360213
0.000359703
0.000359331
0.000358855
0.000358304
0.000357713
0.000357162
0.000356606
0.000356082
0.000355494
0.000354953
0.000354225
0.000353587
0.000352863
0.000352566
0.000352702
0.000352976
0.000353385
0.000353607
0.000354331
0.000354074
0.000352872
0.000351431
0.000350559
0.000349571
0.000348549
0.000347509
0.000346629
0.000345695
0.000345012
0.000344275
0.000343689
0.000343128
0.00034262
0.000342113
0.000341711
0.000341246
0.000340895
0.000340544
0.000340208
0.000339811
0.000339504
0.000339195
0.000339019
0.000338863
0.000338811
0.000338853
0.000338874
0.000339
0.000338913
0.000338664
0.000338427
0.000338167
0.000337864
0.000337482
0.000337061
0.000336599
0.000336155
0.000335657
0.000335264
0.000334848
0.000334559
0.000334272
0.000334118
0.000334057
0.00033403
0.000334118
0.000334239
0.00033439
0.00033455
0.000334784
0.000334862
0.000334848
0.000334794
0.000334677
0.000334464
0.000334173
0.000333804
0.000333397
0.00033303
0.00033268
0.000332448
0.000332255
0.00033226
0.000332341
0.00033245
0.000332656
0.000332906
0.000333148
0.000333356
0.000333473
0.000333522
0.000333494
0.000333378
0.000333188
0.000332949
0.0003327
0.000332446
0.000332248
0.000332092
0.000332105
0.000332148
0.000332313
0.00033251
0.000332756
0.000332995
0.000333195
0.000333362
0.000333428
0.000333461
0.00033343
0.000333325
0.000333161
0.000333005
0.000332859
0.000332784
0.00033277
0.000332757
0.000332954
0.000333202
0.000333435
0.000333683
0.000333925
0.00033415
0.000334295
0.000334387
0.000334432
0.000334433
0.000334384
0.000334303
0.000334195
0.000334118
0.000334097
0.000334067
0.000334255
0.00033447
0.000334698
0.000334961
0.000335242
0.000335625
0.0079988
0.00804
0.00807538
0.00812389
0.00818782
0.00826793
0.00835906
0.00847479
0.00859388
0.00870914
0.00881882
0.00891921
0.00900911
0.00908765
0.00915425
0.00920867
0.00925115
0.00928227
0.00930191
0.0093097
0.00930214
0.00927829
0.0092366
0.00917268
0.00908028
0.00896267
0.00881728
0.00862732
0.00841152
0.0081654
0.00789655
0.00758407
0.00724253
0.00690666
0.00652319
0.0061372
0.00574473
0.00536315
0.00496689
0.00459093
0.00422127
0.00387151
0.00352113
0.00321706
0.00292501
0.00266424
0.00238856
0.00217959
0.00197421
0.00180499
0.00162627
0.00148805
0.00135285
0.00124478
0.00113856
0.00104494
0.000969476
0.000898273
0.000837012
0.000780621
0.000731176
0.00068675
0.000647801
0.000612807
0.000582063
0.00055493
0.000530178
0.000508495
0.000488179
0.000471269
0.000454868
0.000440475
0.000428625
0.000417027
0.000407705
0.000399437
0.000391453
0.000385466
0.000378725
0.000373788
0.000368131
0.00036399
0.000359192
0.000356809
0.000353313
0.000351598
0.000348768
0.000347499
0.000345221
0.000344124
0.000342545
0.000341627
0.00034051
0.000339974
0.00033907
0.000338917
0.0003385
0.000338437
0.000338195
0.000338236
0.000338206
0.000338096
0.00033818
0.000338124
0.000337985
0.000337818
0.000337684
0.000337544
0.000337385
0.00033717
0.000336921
0.000336526
0.000336288
0.000335936
0.000336201
0.000336691
0.000337206
0.000337653
0.000337972
0.000338525
0.000338545
0.000337658
0.000336564
0.000336025
0.000335402
0.000334736
0.000333953
0.000333248
0.000332466
0.00033195
0.000331388
0.000331019
0.000330665
0.000330323
0.000329974
0.000329706
0.000329377
0.000329184
0.000328993
0.000328796
0.000328537
0.000328376
0.000328212
0.000328195
0.000328171
0.000328228
0.000328355
0.000328459
0.000328629
0.000328666
0.000328558
0.000328402
0.000328228
0.000328032
0.000327767
0.000327461
0.00032711
0.000326768
0.000326373
0.000326082
0.000325771
0.000325574
0.000325366
0.00032531
0.000325326
0.00032536
0.000325515
0.000325691
0.000325893
0.000326108
0.000326378
0.000326523
0.000326566
0.000326565
0.000326505
0.000326357
0.000326129
0.000325841
0.000325518
0.000325229
0.000324953
0.000324779
0.000324643
0.000324707
0.00032482
0.000324969
0.0003252
0.00032548
0.000325754
0.000325993
0.000326136
0.000326223
0.000326241
0.000326171
0.000326026
0.000325834
0.000325641
0.000325443
0.000325291
0.00032518
0.00032523
0.000325296
0.000325487
0.000325709
0.000325971
0.00032623
0.000326449
0.000326636
0.00032673
0.000326789
0.000326788
0.000326718
0.000326594
0.00032647
0.000326362
0.000326321
0.000326337
0.000326348
0.00032655
0.000326814
0.00032707
0.000327333
0.000327585
0.000327823
0.000327984
0.000328098
0.000328164
0.000328185
0.000328158
0.000328103
0.000328025
0.000327971
0.000327977
0.000327965
0.000328155
0.00032839
0.000328636
0.000328904
0.000329193
0.000329593
0.00798961
0.00802991
0.00807405
0.0081339
0.00820843
0.00829941
0.00839872
0.00852184
0.00863985
0.00875434
0.00886123
0.00895828
0.00904489
0.00912048
0.00918484
0.0092381
0.00928078
0.00931335
0.00933477
0.00934429
0.00933961
0.00931835
0.00927954
0.0092185
0.00912547
0.00900532
0.00886414
0.00866606
0.00844226
0.00818554
0.00790755
0.00757455
0.00721104
0.00685932
0.00644726
0.00603987
0.00562658
0.00521932
0.00480358
0.00441267
0.00403918
0.00368567
0.00331238
0.00302222
0.00273417
0.00249082
0.00221728
0.00201857
0.00182099
0.00166757
0.00150463
0.00137486
0.00124952
0.00114805
0.00105302
0.000964593
0.000894803
0.000830296
0.000775319
0.000724295
0.000679412
0.000639241
0.000603063
0.000571622
0.000542571
0.000518399
0.000495074
0.000475792
0.000456574
0.000441154
0.0004258
0.000412395
0.000401169
0.000390396
0.000381969
0.000373847
0.000366538
0.000360691
0.000354033
0.000349742
0.000344172
0.000340394
0.000335875
0.00033376
0.000330269
0.000328539
0.000325768
0.000324553
0.00032247
0.000321451
0.000320061
0.00031927
0.000318269
0.000317848
0.00031712
0.000317192
0.000316936
0.000317041
0.000316932
0.000317158
0.000317303