/*--------------------------------*- C++ -*----------------------------------*\
| =========                 |                                                 |
| \\      /  F ield         | OpenFOAM: The Open Source CFD Toolbox           |
|  \\    /   O peration     | Version:  2312                                  |
|   \\  /    A nd           | Website:  www.openfoam.com                      |
|    \\/     M anipulation  |                                                 |
\*---------------------------------------------------------------------------*/
FoamFile
{
    version     2.0;
    format      ascii;
    arch        "LSB;label=32;scalar=64";
    class       volVectorField;
    location    "0.005";
    object      U;
}
// * * * * * * * * * * * * * * * * * * * * * * * * * * * * * * * * * * * * * //

dimensions      [0 1 -1 0 0 0 0];

internalField   nonuniform List<vector> 
48128
(
(2.91827 -1.08403 0)
(6.6604 -0.527217 0)
(7.88537 0.0624258 0)
(7.46306 -0.103148 0)
(7.23893 -0.832423 0)
(6.05053 -0.407135 0)
(0.220286 1.50755 0)
(-10.181 2.43236 0)
(-25.9668 4.39242 0)
(-45.7401 5.63747 0)
(-64.4117 4.93581 0)
(-81.0824 4.35857 0)
(-95.8253 3.58317 0)
(-108.61 2.79323 0)
(-119.647 2.21463 0)
(-129.208 2.1751 0)
(-137.693 1.98449 0)
(-145.378 1.90885 0)
(-152.285 1.83136 0)
(-158.448 1.77137 0)
(-164.183 1.72559 0)
(-169.455 1.67571 0)
(-174.209 1.6209 0)
(-178.408 1.55174 0)
(-182.005 1.47092 0)
(-184.948 1.38938 0)
(-187.201 1.3363 0)
(-188.741 1.31573 0)
(-189.563 1.25051 0)
(-189.797 1.15087 0)
(-189.278 0.890229 0)
(-187.767 0.744259 0)
(-185.414 0.610929 0)
(-182.295 0.457637 0)
(-178.378 0.288794 0)
(-173.63 0.142937 0)
(-168.172 -0.0764159 0)
(-162.167 -0.250458 0)
(-155.498 -0.480531 0)
(-148.197 -0.678586 0)
(-140.39 -0.880925 0)
(-132.107 -1.07046 0)
(-123.294 -1.36978 0)
(-113.777 -1.58003 0)
(-103.895 -1.76809 0)
(-93.7569 -1.84675 0)
(-83.5304 -2.05715 0)
(-72.8628 -2.24383 0)
(-61.8932 -2.48786 0)
(-50.6601 -2.55962 0)
(-39.4094 -2.73414 0)
(-28.0659 -2.74489 0)
(-16.6876 -2.90578 0)
(-5.54389 -2.9755 0)
(5.32162 -2.70738 0)
(16.3285 -2.87422 0)
(27.2195 -2.82215 0)
(38.1955 -2.92092 0)
(49.0077 -2.90182 0)
(59.6387 -2.89183 0)
(70.0301 -2.86228 0)
(80.1698 -2.82434 0)
(90.0675 -2.79194 0)
(99.7166 -2.74277 0)
(109.168 -2.71642 0)
(118.348 -2.65355 0)
(127.29 -2.59571 0)
(136.026 -2.56467 0)
(144.379 -2.55166 0)
(152.522 -2.52246 0)
(160.428 -2.44088 0)
(168.042 -2.36898 0)
(175.573 -2.31454 0)
(182.812 -2.22612 0)
(190.008 -2.17068 0)
(196.859 -2.06826 0)
(203.64 -2.00231 0)
(210.043 -1.89013 0)
(216.295 -1.80525 0)
(222.107 -1.68721 0)
(227.714 -1.60712 0)
(232.931 -1.49785 0)
(237.979 -1.44399 0)
(242.841 -1.38515 0)
(247.724 -1.34942 0)
(252.381 -1.26116 0)
(256.869 -1.1991 0)
(261.094 -1.10917 0)
(265.07 -1.05084 0)
(268.813 -0.979927 0)
(272.421 -0.938622 0)
(275.853 -0.876023 0)
(279.159 -0.838866 0)
(282.32 -0.782399 0)
(285.335 -0.74071 0)
(288.215 -0.696724 0)
(291.013 -0.669175 0)
(293.763 -0.630815 0)
(296.39 -0.587858 0)
(298.88 -0.554188 0)
(301.274 -0.514183 0)
(303.498 -0.475581 0)
(305.546 -0.440632 0)
(307.457 -0.415705 0)
(309.306 -0.387837 0)
(311.021 -0.364392 0)
(312.643 -0.33927 0)
(314.153 -0.324213 0)
(315.64 -0.303293 0)
(317.034 -0.292032 0)
(318.44 -0.274201 0)
(319.699 -0.250816 0)
(320.8 -0.234835 0)
(321.834 -0.22085 0)
(322.889 -0.225925 0)
(324.019 -0.219741 0)
(325.271 -0.212421 0)
(326.636 -0.179149 0)
(328.292 -0.213123 0)
(330.504 -0.160665 0)
(330.333 -0.0869025 0)
(330.856 -0.0577236 0)
(331.977 -0.112562 0)
(331.641 -0.0570307 0)
(331.832 -0.100343 0)
(332.127 -0.113496 0)
(332.515 -0.115084 0)
(332.983 -0.108537 0)
(333.489 -0.107031 0)
(334.016 -0.106212 0)
(334.488 -0.100356 0)
(334.92 -0.0948346 0)
(335.368 -0.0949406 0)
(335.835 -0.0878068 0)
(336.314 -0.0843075 0)
(336.8 -0.0785153 0)
(337.262 -0.0717288 0)
(337.663 -0.0670934 0)
(338.04 -0.0625785 0)
(338.423 -0.0582113 0)
(338.796 -0.0541733 0)
(339.133 -0.0509369 0)
(339.455 -0.0477273 0)
(339.784 -0.0444077 0)
(340.134 -0.0431906 0)
(340.508 -0.0351742 0)
(340.867 -0.024435 0)
(341.271 -0.0212928 0)
(341.818 -0.014653 0)
(341.797 0.0128661 0)
(341.909 0.0212527 0)
(342.138 0.0107135 0)
(342.09 0.0267725 0)
(342.123 0.0187635 0)
(342.072 0.0230922 0)
(342.021 0.0224653 0)
(341.96 0.0208425 0)
(341.9 0.0193006 0)
(341.832 0.0168554 0)
(341.778 0.0168084 0)
(341.721 0.0141965 0)
(341.727 0.00858838 0)
(341.74 0.0103052 0)
(341.774 0.0100428 0)
(341.834 0.0132474 0)
(341.921 0.0149421 0)
(342.018 0.0160917 0)
(342.127 0.0174637 0)
(342.234 0.0200563 0)
(342.353 0.0194003 0)
(342.461 0.0253373 0)
(342.448 0.0215096 0)
(342.451 0.0219782 0)
(342.42 0.0205353 0)
(342.353 0.0220919 0)
(342.223 0.0220633 0)
(342.069 0.023976 0)
(341.87 0.0224807 0)
(341.661 0.02129 0)
(341.466 0.0201916 0)
(341.311 0.0161278 0)
(341.198 0.0168351 0)
(341.132 0.00643904 0)
(341.13 0.00861111 0)
(341.157 0.00693208 0)
(341.205 0.00663631 0)
(341.278 0.006858 0)
(341.353 0.00851222 0)
(341.411 0.00766599 0)
(341.415 0.0155925 0)
(341.39 0.0149488 0)
(341.338 0.0181164 0)
(341.221 0.013834 0)
(341.071 0.0164187 0)
(340.903 0.0157181 0)
(340.709 0.0150024 0)
(340.495 0.0142142 0)
(340.294 0.0118968 0)
(340.139 0.00998762 0)
(339.998 0.00843785 0)
(339.95 0.00775724 0)
(339.888 0.00819193 0)
(339.895 0.00631549 0)
(339.909 0.0073458 0)
(339.939 0.00860527 0)
(339.932 0.011071 0)
(339.905 0.0115679 0)
(339.846 0.0142073 0)
(339.758 0.0140622 0)
(339.638 0.0159314 0)
(339.482 0.0147899 0)
(339.293 0.0156479 0)
(339.084 0.0149518 0)
(338.888 0.0128784 0)
(338.701 0.0120442 0)
(338.553 0.00949304 0)
(338.423 0.00959658 0)
(338.266 0.00793303 0)
(338.312 0.00457999 0)
(338.284 0.00726525 0)
(338.231 0.00968424 0)
(338.214 0.00856277 0)
(338.171 0.0102959 0)
(338.102 0.0124587 0)
(338.002 0.0128822 0)
(337.874 0.0131088 0)
(337.719 0.0138171 0)
(337.547 0.0129078 0)
(337.356 0.0131024 0)
(337.152 0.0123285 0)
(336.939 0.0117174 0)
(336.751 0.00902446 0)
(336.588 0.00911552 0)
(336.401 0.00835824 0)
(336.38 0.00504319 0)
(336.313 0.00591508 0)
(336.232 0.0080395 0)
(336.211 0.00670378 0)
(336.162 0.00842188 0)
(336.043 0.0104828 0)
(5.33222 -5.06564 0)
(9.12256 -2.40154 0)
(10.7721 -0.0856867 0)
(9.27137 0.483051 0)
(5.53861 1.50817 0)
(-4.87745 4.80933 0)
(-20.6324 8.79971 0)
(-41.6769 12.7602 0)
(-62.7552 15.3844 0)
(-81.3013 15.3123 0)
(-97.6651 13.2789 0)
(-112.16 11.2474 0)
(-124.71 9.62823 0)
(-135.252 8.47202 0)
(-143.946 7.8957 0)
(-151.307 6.83952 0)
(-157.659 6.12964 0)
(-163.18 5.58166 0)
(-167.913 5.15521 0)
(-171.893 4.78625 0)
(-175.433 4.50136 0)
(-178.501 4.21528 0)
(-181.053 3.93588 0)
(-183.059 3.64453 0)
(-184.484 3.35599 0)
(-185.303 3.09768 0)
(-185.566 2.87109 0)
(-185.218 2.52382 0)
(-183.967 2.25217 0)
(-181.827 1.91211 0)
(-178.87 1.46226 0)
(-175.098 1.03244 0)
(-170.565 0.65008 0)
(-165.282 0.230388 0)
(-159.26 -0.253712 0)
(-152.587 -0.599606 0)
(-145.302 -1.02059 0)
(-137.49 -1.42482 0)
(-129.084 -1.91962 0)
(-120.101 -2.36006 0)
(-110.649 -2.78788 0)
(-100.805 -3.14402 0)
(-90.5757 -3.75634 0)
(-79.7745 -4.24196 0)
(-68.6305 -4.6924 0)
(-57.2296 -4.87465 0)
(-45.7259 -5.28338 0)
(-33.8525 -5.66683 0)
(-21.7031 -6.17508 0)
(-9.45029 -6.33889 0)
(2.80318 -6.70508 0)
(15.0442 -6.82877 0)
(27.2597 -7.11958 0)
(39.3304 -7.17731 0)
(51.4699 -7.16967 0)
(63.6537 -7.46389 0)
(75.5925 -7.48455 0)
(87.2615 -7.56815 0)
(98.6527 -7.52288 0)
(109.795 -7.48467 0)
(120.639 -7.39286 0)
(131.186 -7.28998 0)
(141.442 -7.18956 0)
(151.406 -7.06003 0)
(161.131 -6.97307 0)
(170.528 -6.7925 0)
(179.663 -6.6703 0)
(188.572 -6.46359 0)
(197.152 -6.21658 0)
(205.521 -6.06199 0)
(213.62 -5.84751 0)
(221.387 -5.68862 0)
(229.036 -5.54486 0)
(236.348 -5.34789 0)
(243.596 -5.2106 0)
(250.485 -4.98271 0)
(257.282 -4.82532 0)
(263.715 -4.58035 0)
(269.978 -4.38509 0)
(275.842 -4.13458 0)
(281.485 -3.95525 0)
(286.784 -3.7236 0)
(291.889 -3.60007 0)
(296.82 -3.45876 0)
(301.715 -3.35676 0)
(306.433 -3.16014 0)
(310.941 -3.01568 0)
(315.253 -2.82575 0)
(319.299 -2.6931 0)
(323.158 -2.53962 0)
(326.853 -2.43564 0)
(330.42 -2.29812 0)
(333.825 -2.20325 0)
(337.13 -2.07918 0)
(340.277 -1.98195 0)
(343.308 -1.88252 0)
(346.251 -1.8068 0)
(349.134 -1.71375 0)
(351.924 -1.6189 0)
(354.57 -1.53927 0)
(357.143 -1.45066 0)
(359.56 -1.36933 0)
(361.826 -1.29511 0)
(363.957 -1.23518 0)
(366.039 -1.17032 0)
(367.984 -1.11551 0)
(369.856 -1.05859 0)
(371.604 -1.01689 0)
(373.341 -0.965223 0)
(374.968 -0.928627 0)
(376.61 -0.883454 0)
(378.114 -0.837057 0)
(379.486 -0.798582 0)
(380.778 -0.76705 0)
(382.076 -0.756299 0)
(383.424 -0.730454 0)
(384.862 -0.665954 0)
(386.389 -0.642251 0)
(388.127 -0.555914 0)
(390.475 -0.738551 0)
(390.759 -0.416168 0)
(391.57 -0.331469 0)
(392.961 -0.538362 0)
(393.098 -0.410485 0)
(393.523 -0.443682 0)
(394.081 -0.453886 0)
(394.714 -0.450955 0)
(395.398 -0.421462 0)
(396.102 -0.409689 0)
(396.816 -0.399906 0)
(397.483 -0.385051 0)
(398.101 -0.372058 0)
(398.728 -0.361456 0)
(399.364 -0.33954 0)
(400.003 -0.326027 0)
(400.649 -0.308704 0)
(401.267 -0.294004 0)
(401.838 -0.28249 0)
(402.38 -0.27016 0)
(402.927 -0.25505 0)
(403.456 -0.243581 0)
(403.957 -0.233042 0)
(404.435 -0.222471 0)
(404.916 -0.209964 0)
(405.409 -0.200139 0)
(405.917 -0.17493 0)
(406.43 -0.168607 0)
(406.98 -0.136233 0)
(407.652 -0.177006 0)
(407.907 -0.104455 0)
(408.255 -0.0805274 0)
(408.699 -0.116414 0)
(408.936 -0.0829018 0)
(409.225 -0.097568 0)
(409.432 -0.0890627 0)
(409.647 -0.0866416 0)
(409.837 -0.0868517 0)
(410.032 -0.0831859 0)
(410.205 -0.0824702 0)
(410.378 -0.0792795 0)
(410.557 -0.0743306 0)
(410.751 -0.0769439 0)
(410.953 -0.0683426 0)
(411.168 -0.0638155 0)
(411.399 -0.0527528 0)
(411.646 -0.0437197 0)
(411.901 -0.0390806 0)
(412.163 -0.0311792 0)
(412.42 -0.0263296 0)
(412.681 -0.0182954 0)
(412.946 -0.0172004 0)
(413.1 -0.0123447 0)
(413.276 -0.00757482 0)
(413.397 -0.00865623 0)
(413.532 -0.0105651 0)
(413.556 -0.0095641 0)
(413.587 -0.0125229 0)
(413.566 -0.0136786 0)
(413.537 -0.0140109 0)
(413.508 -0.0165833 0)
(413.51 -0.0178722 0)
(413.527 -0.0146162 0)
(413.57 -0.0171296 0)
(413.639 -0.0111338 0)
(413.732 -0.00410876 0)
(413.842 -0.00163689 0)
(413.971 0.00409569 0)
(414.104 0.00612545 0)
(414.213 0.00834933 0)
(414.306 0.0170981 0)
(414.352 0.0154908 0)
(414.4 0.0154565 0)
(414.374 0.0100533 0)
(414.328 0.0132765 0)
(414.266 0.0121982 0)
(414.18 0.0105553 0)
(414.076 0.00973325 0)
(413.974 0.00781004 0)
(413.898 0.00697174 0)
(413.828 0.00604028 0)
(413.818 0.00851983 0)
(413.805 0.0121359 0)
(413.825 0.0113826 0)
(413.854 0.0163899 0)
(413.898 0.0173078 0)
(413.918 0.0249548 0)
(413.915 0.024994 0)
(413.891 0.0268862 0)
(413.847 0.0249175 0)
(413.779 0.0254461 0)
(413.683 0.0216315 0)
(413.56 0.0219191 0)
(413.418 0.0204198 0)
(413.279 0.0186377 0)
(413.139 0.017301 0)
(413.026 0.0176101 0)
(412.92 0.0155447 0)
(412.778 0.0268582 0)
(412.801 0.0167064 0)
(412.774 0.0203496 0)
(412.72 0.0279472 0)
(412.698 0.0262401 0)
(412.657 0.0283409 0)
(412.594 0.0325827 0)
(412.51 0.031189 0)
(412.405 0.0302256 0)
(412.279 0.0296483 0)
(412.138 0.0276903 0)
(411.98 0.0264928 0)
(411.808 0.0254357 0)
(411.625 0.0240101 0)
(411.456 0.0226099 0)
(411.3 0.0197363 0)
(411.113 0.032023 0)
(411.062 0.0194121 0)
(410.978 0.020401 0)
(410.875 0.0296925 0)
(410.825 0.0272436 0)
(410.755 0.0291888 0)
(410.618 0.0323167 0)
(5.70739 -9.32614 0)
(8.69334 -4.64656 0)
(9.65246 0.199101 0)
(5.7394 3.39016 0)
(-5.55425 8.15238 0)
(-23.3208 14.3164 0)
(-44.1964 20.8659 0)
(-63.9876 24.9511 0)
(-81.0196 25.3736 0)
(-95.4641 23.8226 0)
(-107.766 20.79 0)
(-118.364 18.2132 0)
(-127.343 15.6111 0)
(-135.152 13.3258 0)
(-141.938 11.4411 0)
(-147.645 9.9214 0)
(-152.449 8.70423 0)
(-156.602 7.8299 0)
(-160.087 7.13978 0)
(-162.906 6.54321 0)
(-165.366 6.07698 0)
(-167.388 5.61847 0)
(-168.931 5.17685 0)
(-169.961 4.75135 0)
(-170.469 4.35295 0)
(-170.419 3.83148 0)
(-169.643 3.37644 0)
(-168.085 2.78345 0)
(-165.758 2.21758 0)
(-162.655 1.61976 0)
(-158.817 0.956395 0)
(-154.216 0.255978 0)
(-148.861 -0.402158 0)
(-142.806 -1.10069 0)
(-136.009 -1.90622 0)
(-128.428 -2.54329 0)
(-120.2 -3.20598 0)
(-111.436 -3.86445 0)
(-102.088 -4.66396 0)
(-92.1471 -5.38758 0)
(-81.708 -6.09546 0)
(-70.879 -6.64405 0)
(-59.7073 -7.58623 0)
(-47.9994 -8.33875 0)
(-35.9202 -9.08036 0)
(-23.6153 -9.38696 0)
(-11.1684 -10.0695 0)
(1.60674 -10.6771 0)
(14.5787 -11.4718 0)
(27.5339 -11.6812 0)
(40.4149 -12.2431 0)
(53.284 -12.4251 0)
(66.0461 -12.8792 0)
(78.6337 -12.9129 0)
(91.1859 -13.0932 0)
(103.667 -13.424 0)
(115.832 -13.3767 0)
(127.733 -13.4035 0)
(139.304 -13.2753 0)
(150.583 -13.1681 0)
(161.506 -12.9595 0)
(172.093 -12.7477 0)
(182.343 -12.5307 0)
(192.254 -12.2713 0)
(201.891 -12.0695 0)
(211.134 -11.7222 0)
(220.09 -11.4695 0)
(228.774 -11.1289 0)
(237.071 -10.7597 0)
(245.136 -10.4842 0)
(252.869 -10.0806 0)
(260.244 -9.77453 0)
(267.494 -9.47643 0)
(274.372 -9.11577 0)
(281.194 -8.84873 0)
(287.647 -8.44754 0)
(293.999 -8.15496 0)
(300.008 -7.73839 0)
(305.827 -7.40061 0)
(311.294 -6.98492 0)
(316.524 -6.67887 0)
(321.46 -6.29612 0)
(326.188 -6.07122 0)
(330.78 -5.81122 0)
(335.304 -5.61549 0)
(339.682 -5.29693 0)
(343.823 -5.0555 0)
(347.808 -4.75495 0)
(351.53 -4.5364 0)
(355.097 -4.28652 0)
(358.509 -4.10705 0)
(361.814 -3.88406 0)
(364.963 -3.72152 0)
(368.034 -3.52351 0)
(370.951 -3.36398 0)
(373.767 -3.19917 0)
(376.508 -3.06244 0)
(379.188 -2.90939 0)
(381.782 -2.75873 0)
(384.247 -2.62789 0)
(386.65 -2.48889 0)
(388.912 -2.3653 0)
(391.038 -2.25001 0)
(393.054 -2.15001 0)
(395.021 -2.04512 0)
(396.87 -1.95804 0)
(398.65 -1.86682 0)
(400.324 -1.79488 0)
(401.987 -1.7085 0)
(403.55 -1.64169 0)
(405.127 -1.56951 0)
(406.576 -1.50423 0)
(407.912 -1.44469 0)
(409.174 -1.38755 0)
(410.448 -1.35567 0)
(411.764 -1.29015 0)
(413.15 -1.1799 0)
(414.623 -1.12979 0)
(416.261 -0.951343 0)
(418.432 -1.3118 0)
(418.808 -0.843005 0)
(419.653 -0.704274 0)
(420.93 -0.986837 0)
(421.219 -0.897144 0)
(421.735 -0.866156 0)
(422.355 -0.862249 0)
(423.034 -0.846392 0)
(423.746 -0.790843 0)
(424.47 -0.766058 0)
(425.201 -0.744414 0)
(425.887 -0.72281 0)
(426.527 -0.699632 0)
(427.174 -0.673746 0)
(427.828 -0.634984 0)
(428.48 -0.608821 0)
(429.138 -0.578792 0)
(429.765 -0.557006 0)
(430.355 -0.538737 0)
(430.918 -0.516964 0)
(431.485 -0.489339 0)
(432.033 -0.469986 0)
(432.557 -0.451786 0)
(433.06 -0.432398 0)
(433.565 -0.408977 0)
(434.079 -0.385351 0)
(434.604 -0.346284 0)
(435.135 -0.335721 0)
(435.692 -0.280502 0)
(436.359 -0.348195 0)
(436.663 -0.257333 0)
(437.048 -0.221458 0)
(437.513 -0.256453 0)
(437.805 -0.237537 0)
(438.143 -0.23882 0)
(438.406 -0.233451 0)
(438.675 -0.226191 0)
(438.919 -0.223021 0)
(439.167 -0.212759 0)
(439.394 -0.209141 0)
(439.616 -0.199595 0)
(439.843 -0.190645 0)
(440.08 -0.180157 0)
(440.322 -0.167598 0)
(440.574 -0.156022 0)
(440.838 -0.136298 0)
(441.113 -0.118775 0)
(441.395 -0.108874 0)
(441.683 -0.0939958 0)
(441.966 -0.0849965 0)
(442.251 -0.0692925 0)
(442.544 -0.0798411 0)
(442.739 -0.0590505 0)
(442.954 -0.0551192 0)
(443.117 -0.0562791 0)
(443.294 -0.0642768 0)
(443.37 -0.0642023 0)
(443.461 -0.0704514 0)
(443.486 -0.0714732 0)
(443.506 -0.0717084 0)
(443.531 -0.0697886 0)
(443.57 -0.0685864 0)
(443.623 -0.0556315 0)
(443.698 -0.0513222 0)
(443.792 -0.039643 0)
(443.905 -0.0230794 0)
(444.032 -0.0138046 0)
(444.175 -0.00642746 0)
(444.325 -0.00266725 0)
(444.444 0.00137444 0)
(444.561 0.0100446 0)
(444.631 0.0107145 0)
(444.718 0.00209972 0)
(444.715 -0.00193262 0)
(444.704 -0.000814572 0)
(444.677 -0.00296457 0)
(444.629 -0.00725247 0)
(444.565 -0.00941457 0)
(444.499 -0.0083044 0)
(444.448 -0.00596695 0)
(444.403 -0.00121187 0)
(444.404 0.00539672 0)
(444.404 0.0128654 0)
(444.427 0.0167696 0)
(444.459 0.0251176 0)
(444.503 0.0281362 0)
(444.532 0.0365878 0)
(444.54 0.0367588 0)
(444.527 0.0369834 0)
(444.498 0.0329609 0)
(444.449 0.0302398 0)
(444.375 0.0245023 0)
(444.276 0.0236187 0)
(444.16 0.0214953 0)
(444.042 0.0209781 0)
(443.923 0.0197485 0)
(443.824 0.0238401 0)
(443.727 0.0219108 0)
(443.594 0.0476342 0)
(443.605 0.0319347 0)
(443.577 0.0349258 0)
(443.527 0.047611 0)
(443.499 0.0469766 0)
(443.457 0.0482858 0)
(443.397 0.0533095 0)
(443.32 0.0496128 0)
(443.223 0.0470174 0)
(443.109 0.0446304 0)
(442.98 0.0417568 0)
(442.836 0.0384376 0)
(442.678 0.0372807 0)
(442.509 0.0353027 0)
(442.35 0.0368296 0)
(442.198 0.0323992 0)
(442.017 0.0577048 0)
(441.952 0.0375464 0)
(441.86 0.0382236 0)
(441.752 0.0553959 0)
(441.689 0.0523125 0)
(441.611 0.0532555 0)
(441.467 0.0566787 0)
(4.24286 -13.1222 0)
(7.14103 -6.00529 0)
(5.44241 1.97483 0)
(-4.37759 9.95818 0)
(-21.8278 17.4818 0)
(-41.6182 26.1242 0)
(-59.8372 31.8551 0)
(-75.4323 33.9343 0)
(-88.4446 33.1108 0)
(-99.2167 30.4302 0)
(-108.125 26.8299 0)
(-116.011 23.0919 0)
(-122.961 19.453 0)
(-128.852 16.3658 0)
(-133.923 13.9135 0)
(-138.179 12.0126 0)
(-141.768 10.5265 0)
(-144.9 9.43026 0)
(-147.508 8.58315 0)
(-149.545 7.81983 0)
(-151.307 7.21169 0)
(-152.675 6.61781 0)
(-153.618 6.05091 0)
(-154.108 5.48902 0)
(-154.062 4.82234 0)
(-153.391 4.17563 0)
(-152.014 3.45344 0)
(-149.835 2.62627 0)
(-146.902 1.81382 0)
(-143.201 0.959291 0)
(-138.749 0.034919 0)
(-133.492 -0.956635 0)
(-127.399 -1.89351 0)
(-120.56 -2.87585 0)
(-112.951 -4.0442 0)
(-104.472 -5.03501 0)
(-95.2997 -5.99058 0)
(-85.569 -6.93162 0)
(-75.2559 -8.07976 0)
(-64.3111 -9.13675 0)
(-52.8173 -10.1826 0)
(-40.9287 -10.9347 0)
(-28.6971 -12.2369 0)
(-15.9679 -13.2795 0)
(-2.86387 -14.3719 0)
(10.445 -14.8209 0)
(23.9028 -15.8263 0)
(37.6547 -16.6452 0)
(51.4846 -17.7232 0)
(65.2736 -17.9369 0)
(78.8665 -18.6763 0)
(92.4032 -18.8478 0)
(105.753 -19.4272 0)
(118.844 -19.3797 0)
(131.814 -19.6912 0)
(144.592 -19.9609 0)
(156.94 -19.79 0)
(168.99 -19.7589 0)
(180.635 -19.488 0)
(191.945 -19.2876 0)
(202.817 -18.9028 0)
(213.309 -18.5572 0)
(223.407 -18.1775 0)
(233.105 -17.7546 0)
(242.499 -17.3892 0)
(251.426 -16.8454 0)
(260.041 -16.4368 0)
(268.336 -15.9001 0)
(276.208 -15.3585 0)
(283.836 -14.9058 0)
(291.047 -14.2771 0)
(297.875 -13.8097 0)
(304.587 -13.3295 0)
(310.888 -12.7983 0)
(317.154 -12.3861 0)
(323.034 -11.8058 0)
(328.803 -11.3637 0)
(334.249 -10.7762 0)
(339.49 -10.2932 0)
(344.417 -9.71806 0)
(349.097 -9.28654 0)
(353.526 -8.76008 0)
(357.739 -8.4315 0)
(361.842 -8.04576 0)
(365.865 -7.74118 0)
(369.754 -7.3006 0)
(373.397 -6.96426 0)
(376.905 -6.55773 0)
(380.171 -6.26047 0)
(383.305 -5.92129 0)
(386.306 -5.67034 0)
(389.216 -5.36655 0)
(391.987 -5.14183 0)
(394.698 -4.87163 0)
(397.263 -4.6555 0)
(399.739 -4.42785 0)
(402.155 -4.23271 0)
(404.516 -4.01982 0)
(406.799 -3.81713 0)
(408.969 -3.63984 0)
(411.092 -3.45436 0)
(413.086 -3.29517 0)
(414.963 -3.1469 0)
(416.755 -3.01183 0)
(418.499 -2.87166 0)
(420.145 -2.7564 0)
(421.726 -2.63599 0)
(423.224 -2.53701 0)
(424.707 -2.41857 0)
(426.107 -2.32531 0)
(427.522 -2.2263 0)
(428.819 -2.14849 0)
(430.022 -2.07098 0)
(431.162 -1.99374 0)
(432.321 -1.9394 0)
(433.52 -1.83399 0)
(434.773 -1.67064 0)
(436.116 -1.58637 0)
(437.584 -1.34363 0)
(439.493 -1.79581 0)
(439.876 -1.28854 0)
(440.656 -1.10267 0)
(441.7 -1.43108 0)
(442.079 -1.38383 0)
(442.6 -1.3217 0)
(443.197 -1.29187 0)
(443.841 -1.25122 0)
(444.507 -1.16843 0)
(445.182 -1.12982 0)
(445.863 -1.09512 0)
(446.503 -1.06712 0)
(447.107 -1.03391 0)
(447.716 -0.992969 0)
(448.33 -0.936233 0)
(448.939 -0.896634 0)
(449.556 -0.852733 0)
(450.14 -0.824814 0)
(450.695 -0.800383 0)
(451.228 -0.769488 0)
(451.766 -0.729486 0)
(452.282 -0.703232 0)
(452.779 -0.677499 0)
(453.259 -0.649514 0)
(453.742 -0.614203 0)
(454.233 -0.577421 0)
(454.73 -0.522644 0)
(455.236 -0.506698 0)
(455.758 -0.430513 0)
(456.373 -0.519564 0)
(456.674 -0.418757 0)
(457.04 -0.367385 0)
(457.469 -0.407702 0)
(457.763 -0.394498 0)
(458.089 -0.392214 0)
(458.348 -0.388632 0)
(458.612 -0.377264 0)
(458.853 -0.371136 0)
(459.096 -0.354954 0)
(459.322 -0.347751 0)
(459.542 -0.332626 0)
(459.766 -0.316064 0)
(459.999 -0.295689 0)
(460.237 -0.276479 0)
(460.483 -0.256829 0)
(460.74 -0.226269 0)
(461.006 -0.199745 0)
(461.278 -0.18374 0)
(461.555 -0.161013 0)
(461.83 -0.147709 0)
(462.105 -0.126806 0)
(462.388 -0.144858 0)
(462.584 -0.116814 0)
(462.798 -0.113048 0)
(462.963 -0.115257 0)
(463.141 -0.127894 0)
(463.231 -0.130135 0)
(463.333 -0.138511 0)
(463.374 -0.140305 0)
(463.41 -0.139754 0)
(463.45 -0.132971 0)
(463.502 -0.124828 0)
(463.563 -0.105305 0)
(463.646 -0.0927499 0)
(463.744 -0.0730196 0)
(463.86 -0.0486259 0)
(463.985 -0.0313205 0)
(464.126 -0.0212353 0)
(464.275 -0.015626 0)
(464.395 -0.0102748 0)
(464.513 -0.00162152 0)
(464.589 -0.000970612 0)
(464.68 -0.0162356 0)
(464.693 -0.0212444 0)
(464.69 -0.0219586 0)
(464.675 -0.0260601 0)
(464.642 -0.03315 0)
(464.593 -0.0362995 0)
(464.544 -0.0306275 0)
(464.503 -0.0236878 0)
(464.471 -0.0120899 0)
(464.476 0.0017905 0)
(464.478 0.0115851 0)
(464.502 0.0219833 0)
(464.534 0.0333602 0)
(464.576 0.0384236 0)
(464.604 0.0463498 0)
(464.614 0.0475583 0)
(464.604 0.0456181 0)
(464.58 0.0392327 0)
(464.539 0.032324 0)
(464.474 0.0253134 0)
(464.386 0.0232371 0)
(464.282 0.0197507 0)
(464.175 0.0209096 0)
(464.067 0.0198072 0)
(463.975 0.0287753 0)
(463.883 0.0289605 0)
(463.757 0.0658455 0)
(463.759 0.0501691 0)
(463.73 0.0514586 0)
(463.682 0.0671932 0)
(463.649 0.0693021 0)
(463.604 0.0695824 0)
(463.543 0.0739666 0)
(463.467 0.0680744 0)
(463.374 0.0637251 0)
(463.264 0.0592825 0)
(463.141 0.0556028 0)
(463.004 0.0495743 0)
(462.853 0.0485501 0)
(462.692 0.0457225 0)
(462.539 0.0513662 0)
(462.389 0.0469626 0)
(462.215 0.0816036 0)
(462.142 0.0595588 0)
(462.046 0.0589675 0)
(461.936 0.0822759 0)
(461.864 0.0798365 0)
(461.78 0.0796972 0)
(461.63 0.0827069 0)
(1.86483 -16.0643 0)
(3.49285 -5.57625 0)
(-3.96527 7.28841 0)
(-18.5133 18.363 0)
(-36.7896 28.7666 0)
(-53.4506 36.4945 0)
(-67.9238 40.4142 0)
(-79.9421 41.0964 0)
(-89.7299 39.1645 0)
(-97.5804 35.4887 0)
(-104.081 30.6261 0)
(-109.989 26.0496 0)
(-115.151 22.0187 0)
(-119.537 18.5903 0)
(-123.343 15.8117 0)
(-126.609 13.6552 0)
(-129.395 11.9726 0)
(-131.832 10.6965 0)
(-133.846 9.71802 0)
(-135.325 8.81393 0)
(-136.575 8.07428 0)
(-137.452 7.35959 0)
(-137.929 6.64655 0)
(-137.913 5.84864 0)
(-137.314 5.045 0)
(-136.069 4.16039 0)
(-134.088 3.1739 0)
(-131.295 2.06112 0)
(-127.686 0.960953 0)
(-123.27 -0.180119 0)
(-118.065 -1.40558 0)
(-112.007 -2.75449 0)
(-105.017 -4.03861 0)
(-97.2348 -5.33168 0)
(-88.6768 -6.92349 0)
(-79.1462 -8.32845 0)
(-68.8578 -9.62476 0)
(-57.9911 -10.8722 0)
(-46.5264 -12.4178 0)
(-34.363 -13.8526 0)
(-21.5716 -15.2953 0)
(-8.41017 -16.2839 0)
(5.11472 -17.8973 0)
(19.0653 -19.2004 0)
(33.3278 -20.6433 0)
(47.8936 -21.2029 0)
(62.5419 -22.5285 0)
(77.4868 -23.4797 0)
(92.3793 -24.792 0)
(107.18 -24.9371 0)
(121.71 -25.8845 0)
(136.134 -25.9921 0)
(150.281 -26.684 0)
(164.007 -26.4283 0)
(177.473 -26.8525 0)
(190.599 -26.9616 0)
(203.107 -26.5491 0)
(215.292 -26.4643 0)
(226.945 -25.9545 0)
(238.171 -25.6225 0)
(248.855 -24.9758 0)
(259.041 -24.4493 0)
(268.794 -23.8394 0)
(278.021 -23.2155 0)
(286.947 -22.6328 0)
(295.295 -21.8565 0)
(303.307 -21.2575 0)
(310.958 -20.4842 0)
(318.113 -19.7472 0)
(325.031 -19.0991 0)
(331.51 -18.2537 0)
(337.61 -17.628 0)
(343.621 -16.9496 0)
(349.185 -16.249 0)
(354.747 -15.6833 0)
(359.905 -14.9248 0)
(364.952 -14.3301 0)
(369.689 -13.5788 0)
(374.222 -12.9581 0)
(378.463 -12.2369 0)
(382.471 -11.6917 0)
(386.255 -11.0361 0)
(389.833 -10.6043 0)
(393.288 -10.0803 0)
(396.669 -9.65845 0)
(399.929 -9.09526 0)
(402.955 -8.67733 0)
(405.872 -8.17009 0)
(408.58 -7.80849 0)
(411.179 -7.38555 0)
(413.673 -7.07089 0)
(416.093 -6.69124 0)
(418.397 -6.41192 0)
(420.654 -6.06867 0)
(422.773 -5.80373 0)
(424.819 -5.51484 0)
(426.819 -5.26382 0)
(428.773 -4.99453 0)
(430.662 -4.74656 0)
(432.455 -4.52897 0)
(434.218 -4.30247 0)
(435.865 -4.11721 0)
(437.419 -3.94316 0)
(438.911 -3.77781 0)
(440.358 -3.60732 0)
(441.722 -3.46925 0)
(443.032 -3.32502 0)
(444.282 -3.20223 0)
(445.516 -3.05592 0)
(446.685 -2.94021 0)
(447.868 -2.81626 0)
(448.947 -2.73269 0)
(449.952 -2.64196 0)
(450.908 -2.55006 0)
(451.893 -2.47048 0)
(452.914 -2.31999 0)
(453.974 -2.1047 0)
(455.124 -1.97481 0)
(456.366 -1.70294 0)
(457.953 -2.16884 0)
(458.303 -1.71382 0)
(458.953 -1.51955 0)
(459.707 -1.83198 0)
(460.137 -1.84779 0)
(460.597 -1.76687 0)
(461.107 -1.70356 0)
(461.658 -1.63487 0)
(462.222 -1.5251 0)
(462.797 -1.47447 0)
(463.378 -1.42607 0)
(463.925 -1.39368 0)
(464.448 -1.35109 0)
(464.974 -1.29478 0)
(465.503 -1.22035 0)
(466.029 -1.16788 0)
(466.562 -1.10954 0)
(467.061 -1.07778 0)
(467.543 -1.0474 0)
(468.008 -1.00807 0)
(468.476 -0.956057 0)
(468.922 -0.924521 0)
(469.354 -0.891596 0)
(469.775 -0.855172 0)
(470.199 -0.808307 0)
(470.632 -0.757035 0)
(471.066 -0.688449 0)
(471.515 -0.663307 0)
(471.972 -0.574264 0)
(472.505 -0.667691 0)
(472.777 -0.572375 0)
(473.097 -0.512753 0)
(473.462 -0.547013 0)
(473.73 -0.543066 0)
(474.017 -0.54021 0)
(474.246 -0.538333 0)
(474.477 -0.523589 0)
(474.69 -0.515063 0)
(474.903 -0.493024 0)
(475.101 -0.482888 0)
(475.296 -0.461802 0)
(475.494 -0.438452 0)
(475.7 -0.407005 0)
(475.91 -0.38141 0)
(476.13 -0.353199 0)
(476.358 -0.311061 0)
(476.593 -0.276793 0)
(476.836 -0.253677 0)
(477.084 -0.223057 0)
(477.331 -0.205576 0)
(477.575 -0.180166 0)
(477.83 -0.204521 0)
(478.007 -0.171054 0)
(478.199 -0.168327 0)
(478.346 -0.172285 0)
(478.506 -0.190029 0)
(478.588 -0.195553 0)
(478.68 -0.207419 0)
(478.718 -0.210255 0)
(478.753 -0.210111 0)
(478.789 -0.196648 0)
(478.837 -0.182932 0)
(478.892 -0.154846 0)
(478.967 -0.13407 0)
(479.056 -0.105929 0)
(479.16 -0.0721138 0)
(479.272 -0.0483515 0)
(479.399 -0.0327291 0)
(479.533 -0.0263842 0)
(479.642 -0.0197547 0)
(479.748 -0.0142577 0)
(479.817 -0.0146416 0)
(479.897 -0.0341854 0)
(479.91 -0.0416624 0)
(479.907 -0.0441263 0)
(479.892 -0.0508911 0)
(479.86 -0.0603888 0)
(479.815 -0.063607 0)
(479.77 -0.0534798 0)
(479.731 -0.0423551 0)
(479.698 -0.0239307 0)
(479.703 -0.00268103 0)
(479.697 0.0110336 0)
(479.718 0.0273762 0)
(479.742 0.042667 0)
(479.778 0.0499554 0)
(479.798 0.0575989 0)
(479.801 0.0587883 0)
(479.789 0.0543177 0)
(479.763 0.0453544 0)
(479.721 0.034152 0)
(479.658 0.0255467 0)
(479.573 0.0224614 0)
(479.472 0.0168947 0)
(479.37 0.019807 0)
(479.265 0.0191923 0)
(479.176 0.0332755 0)
(479.083 0.037207 0)
(478.963 0.085966 0)
(478.953 0.0690773 0)
(478.919 0.0697607 0)
(478.87 0.0875403 0)
(478.829 0.0933495 0)
(478.778 0.0927466 0)
(478.713 0.0956762 0)
(478.635 0.0873831 0)
(478.541 0.0811347 0)
(478.431 0.0743361 0)
(478.309 0.0699683 0)
(478.174 0.0605353 0)
(478.026 0.0597281 0)
(477.869 0.0561742 0)
(477.719 0.0659865 0)
(477.569 0.0630122 0)
(477.4 0.105224 0)
(477.32 0.0839056 0)
(477.219 0.0820252 0)
(477.107 0.110329 0)
(477.026 0.109702 0)
(476.935 0.108613 0)
(476.778 0.11056 0)
(-1.70191 -16.454 0)
(-4.63952 -2.04528 0)
(-15.7487 14.2773 0)
(-30.9363 28.2416 0)
(-46.2883 38.3564 0)
(-59.6715 44.5452 0)
(-70.9152 47.1614 0)
(-80.0948 46.6656 0)
(-87.3477 43.5394 0)
(-92.999 38.548 0)
(-97.7504 33.2581 0)
(-102.034 28.3287 0)
(-105.776 23.9563 0)
(-109.06 20.2796 0)
(-111.964 17.3077 0)
(-114.486 14.9703 0)
(-116.638 13.13 0)
(-118.482 11.6965 0)
(-119.96 10.5805 0)
(-120.914 9.54992 0)
(-121.667 8.67617 0)
(-122.04 7.80656 0)
(-121.968 6.88959 0)
(-121.37 5.94162 0)
(-120.163 4.90246 0)
(-118.247 3.75284 0)
(-115.566 2.46016 0)
(-112.034 1.01087 0)
(-107.592 -0.427661 0)
(-102.289 -1.89509 0)
(-96.1504 -3.45497 0)
(-89.112 -5.22984 0)
(-81.0192 -6.93671 0)
(-72.0697 -8.55822 0)
(-62.3615 -10.6389 0)
(-51.5393 -12.5373 0)
(-39.8681 -14.2342 0)
(-27.5842 -15.7728 0)
(-14.6996 -17.7301 0)
(-1.05648 -19.5367 0)
(13.2856 -21.3702 0)
(28.1054 -22.5792 0)
(43.2488 -24.6196 0)
(59.0014 -26.2226 0)
(75.0568 -28.0811 0)
(91.4639 -28.7046 0)
(107.865 -30.4085 0)
(124.54 -31.4206 0)
(140.985 -32.9372 0)
(157.124 -32.8272 0)
(172.926 -34.0141 0)
(188.499 -33.8994 0)
(203.561 -34.6649 0)
(218.076 -34.0472 0)
(231.824 -34.4259 0)
(245.279 -34.3523 0)
(257.911 -33.5696 0)
(270.053 -33.3603 0)
(281.667 -32.5604 0)
(292.504 -31.9621 0)
(302.877 -31.0052 0)
(312.41 -30.2094 0)
(321.615 -29.3118 0)
(330.018 -28.422 0)
(338.224 -27.5774 0)
(345.658 -26.518 0)
(352.765 -25.6877 0)
(359.455 -24.6398 0)
(365.542 -23.683 0)
(371.45 -22.7994 0)
(376.849 -21.7158 0)
(381.932 -20.9323 0)
(386.925 -20.0416 0)
(391.442 -19.1708 0)
(396.015 -18.4523 0)
(400.141 -17.5146 0)
(404.187 -16.7706 0)
(407.914 -15.8615 0)
(411.472 -15.1181 0)
(414.73 -14.2655 0)
(417.824 -13.6272 0)
(420.682 -12.8587 0)
(423.395 -12.3485 0)
(426.02 -11.7029 0)
(428.629 -11.1927 0)
(431.133 -10.5211 0)
(433.453 -10.0556 0)
(435.686 -9.4602 0)
(437.759 -9.06313 0)
(439.743 -8.56535 0)
(441.655 -8.206 0)
(443.511 -7.76063 0)
(445.278 -7.44268 0)
(446.993 -7.02447 0)
(448.585 -6.72666 0)
(450.123 -6.3789 0)
(451.634 -6.08097 0)
(453.115 -5.76373 0)
(454.544 -5.48194 0)
(455.903 -5.23454 0)
(457.252 -4.97531 0)
(458.497 -4.77718 0)
(459.677 -4.58235 0)
(460.815 -4.3927 0)
(461.908 -4.19975 0)
(462.938 -4.04706 0)
(463.927 -3.88533 0)
(464.878 -3.74414 0)
(465.815 -3.57571 0)
(466.703 -3.44494 0)
(467.606 -3.29943 0)
(468.417 -3.21766 0)
(469.18 -3.11846 0)
(469.913 -3.02031 0)
(470.681 -2.90993 0)
(471.479 -2.71153 0)
(472.3 -2.44607 0)
(473.207 -2.26242 0)
(474.177 -1.99686 0)
(475.398 -2.41854 0)
(475.696 -2.08383 0)
(476.172 -1.91847 0)
(476.626 -2.17021 0)
(477.063 -2.25309 0)
(477.4 -2.16752 0)
(477.778 -2.0682 0)
(478.198 -1.97375 0)
(478.623 -1.8374 0)
(479.063 -1.77885 0)
(479.509 -1.71565 0)
(479.929 -1.68123 0)
(480.338 -1.62951 0)
(480.748 -1.5582 0)
(481.158 -1.46764 0)
(481.567 -1.40442 0)
(481.985 -1.33147 0)
(482.37 -1.29934 0)
(482.749 -1.26244 0)
(483.116 -1.21607 0)
(483.484 -1.15298 0)
(483.832 -1.1183 0)
(484.171 -1.07904 0)
(484.507 -1.03495 0)
(484.845 -0.976259 0)
(485.191 -0.910974 0)
(485.538 -0.830394 0)
(485.903 -0.794099 0)
(486.269 -0.700456 0)
(486.696 -0.785458 0)
(486.917 -0.70816 0)
(487.168 -0.644315 0)
(487.449 -0.668293 0)
(487.665 -0.673136 0)
(487.893 -0.673432 0)