distance,T,p,U_0,U_1,U_2
0.00155556,266.403,13212.2,424.372,-1.13641,0
0.00311111,179.132,5296.76,571.712,-164.957,0
0.00466667,144.535,4100.15,611.921,-189.968,0
0.00622222,131.077,3850.54,623.867,-204.883,0
0.00777778,120.993,3620.39,635.984,-206.197,0
0.00933333,113.769,3522.82,644.356,-209.652,0
0.0108889,108.638,3468.3,651.489,-210.421,0
0.0124444,105.507,3441.23,656.181,-212.116,0
0.014,104.265,3426.91,659.136,-212.493,0
0.0155556,104.307,3428.84,659.902,-212.787,0
0.0171111,104.755,3470.49,659.932,-212.091,0
0.0186667,104.205,3466.44,661.279,-211.778,0
0.0202222,103.938,3481.23,661.885,-211.692,0
0.0217778,104.042,3492.36,662.055,-210.995,0
0.0233333,104.235,3492.64,661.825,-210.841,0
0.0248889,104.474,3485.48,661.511,-210.676,0
0.0264444,104.593,3489.56,661.397,-210.464,0
0.028,104.666,3508.8,661.399,-210.065,0
0.0295556,104.542,3510.5,661.648,-209.854,0
0.0311111,104.609,3516.33,661.617,-209.637,0
0.0326667,103.025,3329.33,661.537,-217.353,0
0.0342222,104.808,3522.42,661.411,-209.332,0
0.0357778,104.887,3528.3,661.362,-209.118,0
0.0373333,104.847,3530.41,661.494,-208.895,0
0.0388889,104.786,3531.87,661.629,-208.781,0
0.0404444,104.834,3537.16,661.598,-208.661,0
0.042,104.887,3539.65,661.565,-208.517,0
0.0435556,104.929,3541.19,661.539,-208.398,0
0.0451111,104.941,3542.87,661.544,-208.331,0
0.0466667,104.973,3546.5,661.536,-208.226,0
0.0482222,104.947,3547.02,661.603,-208.155,0
0.0497778,104.966,3548.73,661.62,-208.019,0
0.0513333,105.013,3551.63,661.577,-207.929,0
0.0528889,105.038,3555.01,661.558,-207.887,0
0.0544444,105.007,3554.21,661.633,-207.804,0
0.056,105.037,3556.17,661.625,-207.691,0
0.0575556,105.062,3557.75,661.592,-207.674,0
0.0591111,105.066,3560.04,661.607,-207.621,0
0.0606667,105.106,3563.38,661.577,-207.523,0
0.0622222,105.108,3563.64,661.602,-207.435,0
0.0637778,105.103,3563.78,661.624,-207.389,0
0.0653333,105.166,3567.2,661.555,-207.301,0
0.0668889,105.152,3568.4,661.589,-207.275,0
0.0684444,104.585,3496.3,661.432,-210.493,0
0.07,105.592,3616.08,661.089,-206.193,0
0.0715556,123.031,5474.36,646.35,-147.526,0
0.0731111,138.044,7968.14,635.849,-81.1427,0
0.0746667,154.872,11201.6,616.766,-15.5993,0
0.0762222,158.802,12154.1,610.723,-14.9334,0
0.0777778,159.485,12360.1,609.705,-9.39631,0
0.0793333,159.277,12384.7,610.062,-7.944,0
0.0808889,159.719,12525.4,609.326,-6.07491,0
0.0824444,160.02,12604.8,608.826,-5.88835,0
0.084,160.269,12720.1,608.43,-4.9521,0
0.0855556,160.169,12736.7,608.605,-4.35221,0
0.0871111,160.491,12831.3,608.613,-3.04743,0
0.0886667,160.632,12860.3,608.352,-2.81645,0
0.0902222,160.38,12845,608.281,-2.93833,0
0.0917778,160.441,12884.4,608.191,-2.3622,0
0.0933333,160.522,12906.7,608.06,-2.22052,0
0.0948889,160.584,12942.6,607.968,-1.98008,0
0.0964444,160.592,12956.2,607.96,-1.86678,0
0.098,160.638,12972.7,607.893,-1.75663,0
0.0995556,160.917,12996.4,607.692,-1.31266,0
0.101111,160.674,13003.4,607.847,-1.37315,0
0.102667,160.726,13020.8,607.764,-1.33743,0
0.104222,160.831,13057.9,607.599,-1.24088,0
0.105778,160.856,13072.3,607.561,-1.15438,0
0.107333,160.906,13088.5,607.482,-1.08477,0
0.108889,160.907,13096.1,607.483,-1.00853,0
0.110444,160.94,13112.2,607.43,-0.931124,0
0.112,160.959,13120.9,607.4,-0.921857,0
0.113556,160.984,13131.4,607.359,-0.923634,0
0.115111,161.021,13143.7,607.297,-0.909259,0
0.116667,161.04,13154.2,607.266,-0.846061,0
0.118222,161.069,13173.5,607.219,-0.564373,0
0.119778,161.138,13189.1,607.103,-0.350539,0
0.121333,161.086,13188.9,607.191,-0.0927523,0
0.122889,161.166,13202.3,607.056,0.120908,0
0.124444,161.389,13211,606.757,0.380976,0
0.126,161.183,13212.8,607.027,0.474732,0
0.127556,161.16,13214.3,607.065,0.596223,0
0.129111,161.204,13227.4,606.989,0.670389,0
0.130667,161.219,13233.7,606.962,0.667056,0
0.132222,161.236,13240.6,606.933,0.650979,0
0.133778,161.255,13248.2,606.9,0.624521,0
0.135333,161.509,13255.1,606.528,0.660862,0
0.136889,161.526,13263.2,606.494,0.619362,0
0.138444,161.552,13272.3,606.447,0.592971,0
0.14,161.578,13281.6,606.401,0.575747,0
0.141556,161.371,13291.1,606.698,0.498551,0
0.143111,161.398,13300,606.651,0.521345,0
0.144667,161.409,13306.7,606.632,0.574222,0
0.146222,161.44,13315.8,606.577,0.635631,0
0.147778,161.435,13319.5,606.584,0.727403,0
0.149333,161.471,13327.8,606.522,0.842486,0
0.150889,161.438,13326.3,606.577,0.984307,0
0.152444,161.482,13333.7,606.5,1.114,0
0.154,161.448,13332,606.556,1.25368,0
