/*--------------------------------*- C++ -*----------------------------------*\
| =========                 |                                                 |
| \\      /  F ield         | OpenFOAM: The Open Source CFD Toolbox           |
|  \\    /   O peration     | Version:  2312                                  |
|   \\  /    A nd           | Website:  www.openfoam.com                      |
|    \\/     M anipulation  |                                                 |
\*---------------------------------------------------------------------------*/
FoamFile
{
    version     2.0;
    format      ascii;
    arch        "LSB;label=32;scalar=64";
    class       volScalarField;
    location    "9e-05";
    object      alphat;
}
// * * * * * * * * * * * * * * * * * * * * * * * * * * * * * * * * * * * * * //

dimensions      [1 -1 -1 0 0 0 0];

internalField   nonuniform List<scalar> 
109340
(
0.47638988537865
0.32673192185578
0.17632749019002
0.1473572368118
0.1427453221599
0.14566599624749
0.15109825648268
0.16055075388445
0.13993179877145
0.12446437758519
0.11222248773099
0.102236412161
0.093916120461802
0.086869373368694
0.080821286227402
0.07557206854178
0.070972440607752
0.066908367317785
0.063291110645262
0.06005050765768
0.057130290901333
0.054484748145742
0.052076289868019
0.04987364896079
0.04785052589168
0.045984547008575
0.044256436960889
0.042649334477425
0.041148184901193
0.039739135520489
0.038408829286861
0.037143400335028
0.035926730575753
0.034736919718243
0.033538133981966
0.03226165751737
0.47085478352696
0.22834973536999
0.16728827336953
0.15303331363646
0.15200719782025
0.1550376200591
0.13878779679124
0.12072952538817
0.10669868628394
0.095590647832229
0.086597395330361
0.079172083433963
0.072939340710131
0.067634283235922
0.063064879255127
0.059088544905238
0.055597196532584
0.052507400826678
0.049753709619045
0.047284011216601
0.045056209402803
0.043035854560853
0.041194439910838
0.039508154686576
0.037956928617026
0.036523674222474
0.035193672984081
0.03395404650622
0.032793263563113
0.03170064029341
0.030665732537108
0.02967743881976
0.02872242127786
0.027781930062483
0.026824283764538
0.025785424699121
0.27654963722064
0.19489260167511
0.16798863713316
0.15766264236156
0.12612813534868
0.10515133330817
0.089940525374898
0.078477350035614
0.069568342552354
0.062475110597731
0.056710911238236
0.051943137594755
0.047938872900558
0.0445311932612
0.041597812489309
0.039047322052678
0.036810126915464
0.034832336635319
0.033071442074196
0.031493152446986
0.030069374157449
0.028777000656023
0.027597059489622
0.026513966136313
0.02551477775423
0.024588662798888
0.023726468775958
0.022920217354277
0.022162846567784
0.021447807766722
0.020768641469983
0.020118437223489
0.019488688896081
0.0188674731442
0.018235130731185
0.017548063898953
0.15893171764469
0.16053728907663
0.10075193450455
0.073346138385552
0.057697557785934
0.047592782482846
0.040550234772868
0.035372700486281
0.031413920679661
0.028294615180778
0.025777648293835
0.023706996398656
0.021975815906434
0.020508581583523
0.019250540004294
0.018161099193747
0.017209464933929
0.016371506175695
0.015625644245351
0.014953377418218
0.014340923182829
0.013778500096188
0.013259014318922
0.012777183318018
0.012328894697985
0.011910773274243
0.011519661584648
0.011153143001686
0.010808904980778
0.010484677467342
0.010177876204066
0.0098846330515355
0.0095986659232889
0.0093121552574848
0.0090157384871891
0.0086882675210511
0.095716307740213
0.031289085945984
0.019025962835829
0.013797584141492
0.010916509987474
0.0091079268613434
0.0078776677824307
0.0069936553154637
0.0063324888848543
0.0058231034170529
0.0054219749945122
0.0051015004185993
0.0048433979082107
0.0046353521305698
0.0044689858396675
0.0043384323137497
0.0042385145543317
0.0041606260066144
0.004090500376123
0.0040204640389071
0.0039497876472148
0.0038807231423099
0.0038156784744036
0.0037562935968201
0.0037034530637486
0.0036575524420211
0.0036186172928163
0.0035864327995531
0.0035610556235207
0.0035420357079608
0.0035283106452349
0.0035186950302529
0.0035114734907788
0.0035034041638628
0.0034862155843011
0.0034358846692614
0.00024102224043771
0.00035973206300951
0.00046283758675654
0.00054328159495356
0.00060077784853185
0.00063868913109342
0.0006614749392432
0.000673311175041
0.00067752131315496
0.00067686171375044
0.00067292779381088
0.00066697641377751
0.00065987164056585
0.00065219638209884
0.00064434147219508
0.0006365846629411
0.00062910601271446
0.00062202527194831
0.0006154647611616
0.00060957431250651
0.00060421564503414
0.00059929641220971
0.00059476470482966
0.00059058465614868
0.0005867212626269
0.0005831342668569
0.00057977483887188
0.00057658195507224
0.00057347551008564
0.0005703450121327
0.0005670306767469
0.00056327703826914
0.00055865083351252
0.00055225879723585
0.00054147150766122
0.00051462352630298
0.028537995381168
0.015361367043951
0.0082905790291632
0.0050980633203874
0.003399119456397
0.002301344174644
0.0015549623842161
0.0010378128834535
0.00070114234695304
0.00051293004146066
0.00042139673513419
0.00041462129062307
0.00038017801771758
0.00034175504692283
0.0002953659495646
0.00024880321858214
0.00020812026870724
0.00017335221756027
0.0001448028853105
0.00012225297747535
0.00010369942118471
8.8293673119464e-05
7.409091497833e-05
5.9904791321159e-05
4.8944741514424e-05
4.0448795901136e-05
3.3788709990603e-05
2.8282050750911e-05
2.4097363345371e-05
2.0525631015881e-05
1.7674703226676e-05
1.5320698907897e-05
1.331405162179e-05
1.1702247135985e-05
1.0268966960788e-05
9.1203320969117e-06
8.0790415504653e-06
7.2359880576377e-06
6.467762171356e-06
5.8321568233492e-06
5.2602004362865e-06
4.766822326911e-06
4.3368213946113e-06
3.9451847395206e-06
3.6147734251507e-06
3.302700017935e-06
3.0431495537415e-06
2.7952457474249e-06
2.5857118580267e-06
2.3911866959223e-06
2.2159066180728e-06
2.0579349828675e-06
1.9146309873267e-06
1.784610446827e-06
1.6661504949338e-06
1.5580238778896e-06
1.4590842650746e-06
1.3684312051578e-06
1.2852348633612e-06
1.2087565192626e-06
1.1383068006283e-06
1.0732835722406e-06
1.013161441151e-06
9.5748033439884e-07
9.0582740385223e-07
8.5784212879675e-07
8.1322060369852e-07
7.7170512543417e-07
7.3302642353962e-07
1.272278805485e-06
0.00015463016711474
0.00097122208087344
0.00095556991762633
0.0008394109647165
0.00073585296917001
0.00063703984003202
0.00053438282515889
0.00042516222446661
0.00033436919258443
0.00032466982690307
0.00036926886419063
0.00038538583154604
0.00037308514174469
0.0003563936967522
0.00034277426359597
0.00033440974678498
0.00032804462758959
0.00032289065450374
0.0003187275374322
0.00031463059513981
0.00031037892569707
0.00030570975556871
0.00030028973576164
0.00029398754457493
0.0002868789244109
0.0002789364033091
0.00027016437722387
0.0002606248254067
0.00025041479762265
0.00023966135221437
0.00022851674327978
0.00021717208050195
0.00020582316805914
0.00019464868076364
0.00018121570931065
0.00017115213555748
0.00016175827158651
0.00015327002215775
0.00014577203271101
0.00013922711336201
0.00013361738858738
0.00012889177457374
0.0001249757924048
0.00012178263079991
0.00011920084877432
0.00011714044269896
0.0001156079486089
0.00011450704383434
0.00011373410489469
0.00011317343314061
0.00011271971135872
0.00011235224030633
0.00011200985166018
0.00011171126292931
0.00011140352518017
0.00011098739617128
0.00011036813848225
0.00010966298994175
0.00010885972532331
0.00010793772496062
0.00010680874220567
0.00010550470535516
0.00010394447691286
0.0001024320508865
0.00010078347037827
9.9226503616152e-05
9.7652393311799e-05
9.5709094005691e-05
9.1435045869969e-05
7.681750188333e-05
0.021877522149114
0.011861006298962
0.00695375938286
0.0045567016228245
0.0030742218687244
0.0020641430187738
0.0013796806007082
0.00091842769452976
0.00061111059105625
0.00041439211133987
0.00029266228130999
0.00022415352244188
0.00018378875593766
0.00015486017908807
0.00013446859940537
0.00011907652564912
0.00010682500022286
9.6861865364052e-05
8.7816007053534e-05
7.9615312155571e-05
7.2305691926203e-05
6.5800926623981e-05
5.9961286183614e-05
5.4763520681264e-05
4.5727101486784e-05
3.7844838716044e-05
3.1624209432062e-05
2.6662028729268e-05
2.2654381196154e-05
1.9401554677888e-05
1.6723222063487e-05
1.4517847487213e-05
1.2670755027556e-05
1.1124488775442e-05
9.8127534745642e-06
8.6998395524126e-06
7.7449246311422e-06
6.9259927531695e-06
6.2158380798239e-06
5.601153963691e-06
5.0628958331451e-06
4.593463737394e-06
4.178551061761e-06
3.8139574069987e-06
3.4893323361374e-06
3.2018605026226e-06
2.944473938948e-06
2.7146649403563e-06
2.5081138175283e-06
2.3222870466158e-06
2.1544466263613e-06
2.002358253333e-06
1.8644424049537e-06
1.7389528934285e-06
1.6246236620072e-06
1.5201467893903e-06
1.4245323622156e-06
1.3368518381468e-06
1.2563152008875e-06
1.1822029613715e-06
1.1138852039503e-06
1.0507903837526e-06
9.9240929873307e-07
9.3829183498823e-07
8.8805382848653e-07
8.4136574610359e-07
7.9793375819907e-07
7.5750083323787e-07
7.1983037965166e-07
5.9070020421268e-06
0.00039138961122723
0.001007378257737
0.00092486054442895
0.00081182421319886
0.00071067527949784
0.00061198634737467
0.00050787187029462
0.00039943528182598
0.00032327026437969
0.00033525618421502
0.00037811920548054
0.00038575804781328
0.00037121914449758
0.00035553628624957
0.0003445718269137
0.00033631844797549
0.00033011280627265
0.00032510555901196
0.00032105440993829
0.00031712240092333
0.00031301631558805
0.00030848018925935
0.00030320419230274
0.00029704378908389
0.00029006408343485
0.00028224751226108
0.0002735962898101
0.00026417097357549
0.00025406767939862
0.00024341271467905
0.00023235559644419
0.00022108221949342
0.00020979021036517
0.0001986579616718
0.00018523942073933
0.00017513803844866
0.00016567220340354
0.00015706609441896
0.00014941741795357
0.0001426985059969
0.00013689058950408
0.00013194555669684
0.00012779367303605
0.00012435364836845
0.00012153378366219
0.00011921743355771
0.00011743153097011
0.0001160839317863
0.00011507724204285
0.00011429950928799
0.00011364791148856
0.00011310210112056
0.00011259579493911
0.0001121482944711
0.00011169841667748
0.00011115539194906
0.00011045233233999
0.00010966143656833
0.00010878081589665
0.00010779369482731
0.00010660600745532
0.00010525650035736
0.00010366373884297
0.00010212783515698
0.00010045191448446
9.8873075170424e-05
9.7293340643921e-05
9.5380732902287e-05
9.1117993122578e-05
7.6510379099852e-05
0.015945674457801
0.0079382773543068
0.0047861281929776
0.0031809336017335
0.0021231905526885
0.0014538817985308
0.00099542912762371
0.00068831464290845
0.00048530806835651
0.00035014388453935
0.00026943384840498
0.00021295513242437
0.00017452508287665
0.000147147554201
0.00012599643756045
0.00010907763949153
9.5595060898762e-05
8.4314471209319e-05
7.419286231143e-05
6.5577867935812e-05
5.8522842777197e-05
5.2533280364312e-05
4.7425692030901e-05
4.3214863851108e-05
3.9652122519789e-05
3.6526395161226e-05
3.0940416567035e-05
2.6088915257201e-05
2.2173865818449e-05
1.8988128583206e-05
1.6376179663227e-05
1.4213046034458e-05
1.2413665534526e-05
1.0899301237133e-05
9.6223955023715e-06
8.5336658000639e-06
7.6040477204041e-06
6.8018456249152e-06
6.1098048822711e-06
5.5068876289652e-06
4.9820471402277e-06
4.5209707653385e-06
4.1158596134232e-06
3.7575505824196e-06
3.4398894359765e-06
3.1573633471081e-06
2.9048643722622e-06
2.6792717467213e-06
2.4761956194879e-06
2.2937313650241e-06
2.1286038887546e-06
1.9792836247643e-06
1.8435207766645e-06
1.7199846830862e-06
1.607342230061e-06
1.5044160682702e-06
1.4102071591347e-06
1.3237865536153e-06
1.2443754476366e-06
1.1712729657538e-06
1.1038692542977e-06
1.0416012536765e-06
9.8396608354492e-07
9.3052259518901e-07
8.8089832391582e-07
8.3476866866171e-07
7.9184663726099e-07
7.5187727227493e-07
7.1463476017409e-07
6.2508528587142e-06
0.0004010083231286
0.0010084453596905
0.00092472399885105
0.00081195441913285
0.00071120687224088
0.00061300406685292
0.00050943518342948
0.0004015047986731
0.00032506955768624
0.00033628315208639
0.00038002326330155
0.00038912213713867
0.00037535556056484
0.00035991842272237
0.00034860748197472
0.00034052749862055
0.00033453543394711
0.0003297622125442
0.00032589349465062
0.00032221457101382
0.00031838714199031
0.00031410916373071
0.0003091122645983
0.00030322762316483
0.00029650047910269
0.00028893625713637
0.00028052983275089
0.00027133798832703
0.00026145272221384
0.0002509982930304
0.00024012062165422
0.00022899473380538
0.0002178206745293
0.00020677823657152
0.00019339925337899
0.00018323906533106
0.00017365170752404
0.00016485751047669
0.00015696412901274
0.00014994071214119
0.00014378542293747
0.00013845357383662
0.00013388481959254
0.00013000836369741
0.00012675101167924
0.00012400063463843
0.00012175106759575
0.00011995536823427
0.00011852222960197
0.00011734695885497
0.00011632910707424
0.00011544566777396
0.00011463167470494
0.00011388446123033
0.00011314532567554
0.00011235839627385
0.00011145655346368
0.00011047446560822
0.00010939697354176
0.00010823265706938
0.00010689911102878
0.00010542568788466
0.00010373817509413
0.00010210513710769
0.00010033490451325
9.8668794709832e-05
9.7007074879431e-05
9.5102968832399e-05
9.0838410936913e-05
7.6177473730509e-05
0.0082907867971511
0.0044286293790291
0.0027087350226609
0.0017590749997978
0.001209260619996
0.0008725981800663
0.00064927668125951
0.00049881797568254
0.00039215575975889
0.00031840092356825
0.00025956067010257
0.0002124431099354
0.00017530374207271
0.00014631086347519
0.00012380313452823
0.00010655548772095
9.250202109151e-05
8.0847634749678e-05
7.0872053070903e-05
6.2098434639905e-05
5.4434530063337e-05
4.8158296360197e-05
4.302808818209e-05
3.8648041142562e-05
3.4979549561487e-05
3.1980706965406e-05
2.9403454573703e-05
2.5518950751863e-05
2.1703923608772e-05
1.8594266214178e-05
1.6041433146766e-05
1.3925030647091e-05
1.2161674538076e-05
1.0679807849195e-05
9.4271386925892e-06
8.3612764785447e-06
7.4495611422771e-06
6.6650943306102e-06
5.9874455067521e-06
5.3982316679382e-06
4.8847175204935e-06
4.4344340685493e-06
4.0388755107537e-06
3.6889541236884e-06
3.3790596648729e-06
3.1026645575266e-06
2.8562095063243e-06
2.6351945097963e-06
2.4367214938737e-06
2.2578929307991e-06
2.0962649478645e-06
1.949944453126e-06
1.8169251847115e-06
1.6958424584108e-06
1.5853036185659e-06
1.484295766181e-06
1.391793909797e-06
1.3069265668941e-06
1.2289217818239e-06
1.157094232293e-06
1.0908367124697e-06
1.0296006972135e-06
9.7290199127494e-07
9.2031519678499e-07
8.7147151562591e-07
8.2604914691331e-07
7.8377407552922e-07
7.4439611808575e-07
7.0769858799796e-07
6.8014744738032e-06
0.00041486859662563
0.0010093705678985
0.00092440516189464
0.00081210534003564
0.00071195729665945
0.00061446714608006
0.0005117029056513
0.00040451690830335
0.00032768344325199
0.00033767904220165
0.00038254971651059
0.00039369275836995
0.00038101006740519
0.00036589420451196
0.00035434087227437
0.00034646888611829
0.00034073368040373
0.00033627600344229
0.0003326929397398
0.00032935466403239
0.00032589684190584
0.00032197684098435
0.00031733215879589
0.00031180068167027
0.00030539344852957
0.0002981422304524
0.00029003294265774
0.00028111774036104
0.00027148554155999
0.00026125685179692
0.00025057464739817
0.00023960178095518
0.0002285401731951
0.00021757812193094
0.00020421648604212
0.00019396572906021
0.00018421599462407
0.00017518333752194
0.00016697921470915
0.00015958292499427
0.00015299813859863
0.00014718916282113
0.00014210458812205
0.00013768341000886
0.00013386418514887
0.00013055896971478
0.00012771373894155
0.00012532837401162
0.00012332378574654
0.00012160777294925
0.00012008432555516
0.00011872924523015
0.00011747537705397
0.00011630236421761
0.00011517015613967
0.00011404795541681
0.00011282180885681
0.00011155004407522
0.00011020487703914
0.00010879439980483
0.00010723670092711
0.00010556731623811
0.0001037156549612
0.0001019372825022
0.00010003491665829
9.8254793655251e-05
9.6490176266073e-05
9.4551837100341e-05
9.0207642597002e-05
7.5531961947243e-05
0.0032122331370542
0.0022685345951322
0.0015976630859689
0.0012112248668965
0.00093546324288432
0.00071912247163178
0.00057067733295761
0.00046793992165356
0.00038808014064189
0.00031510015391836
0.00026231392201702
0.00021792596428886
0.00018132769064122
0.00015163119129841
0.000127110924716
0.00010743158197955
9.2221020723111e-05
7.9668950545317e-05
6.9036816947813e-05
6.0212324826049e-05
5.2901357823716e-05
4.6583298886447e-05
4.1237243205427e-05
3.686892110967e-05
3.3173229664847e-05
3.0015553215332e-05
2.738123026855e-05
2.4911279968832e-05
2.1218417879364e-05
1.8198929793012e-05
1.5711150630866e-05
1.3648456402428e-05
1.1923982773588e-05
1.0474906576931e-05
9.2480285325346e-06
8.2044420983333e-06
7.3099886202507e-06
6.5413787714328e-06
5.8761815378006e-06
5.2987248302475e-06
4.7944362435531e-06
4.3529629535618e-06
3.9642805321663e-06
3.6209602636648e-06
3.3164723949646e-06
3.0454729847919e-06
2.8037797084317e-06
2.5871575431177e-06
2.392797265214e-06
2.2176526440192e-06
2.0596073527336e-06
1.9163941468566e-06
1.7864257322135e-06
1.6680392321586e-06
1.5599089919824e-06
1.4610155441449e-06
1.3704043013737e-06
1.2872727992864e-06
1.2108486318837e-06
1.1404548969162e-06
1.0754905739835e-06
1.0154294854509e-06
9.5980599207115e-07
9.0820145309007e-07
8.6024984094675e-07
8.1564162084272e-07
7.7411478340071e-07
7.3542276504832e-07
6.9926207411624e-07
7.5960008329626e-06
0.00043339922722846
0.0010102684942087
0.00092382466677628
0.00081224440634124
0.00071290461074733
0.00061636352458681
0.00051466606979712
0.00040845314253335
0.00033108812890172
0.00033933176900453
0.00038545126705087
0.00039916205704536
0.00038785565217577
0.00037310420434759
0.00036136423354883
0.00035369555103678
0.00034821676130381
0.00034407742358539
0.0003408310306138
0.00033782046682087
0.00033476150343286
0.0003312331418781
0.00032696636286099
0.00032180764797471
0.00031573337564727
0.00030880083863562
0.00030098711528961
0.00029233953421248
0.00028294483552709
0.00027292134431862
0.00026240935115764
0.00025156214078156
0.00024057956819289
0.0002296683694335
0.00021629460240239
0.00020592416733738
0.00019599582667127
0.00018672181087613
0.00017820350724582
0.00017043377689458
0.00016341874457126
0.00015713008501736
0.00015152301296718
0.0001465429864726
0.0001421334522029
0.0001382241685067
0.00013474283735221
0.00013170873648106
0.00012905978060346
0.00012672144463
0.00012460578134872
0.00012269198905597
0.00012091543003275
0.00011922921012153
0.00011765444563353
0.00011609418506739
0.00011446448970873
0.0001128262530708
0.00011114800347537
0.00010943187725235
0.00010759206370767
0.00010567001755897
0.000103595245428
0.0001016304837297
9.9558352774688e-05
9.764250100987e-05
9.5751401164764e-05
9.371671878591e-05
8.9213180150351e-05
7.4549391371733e-05
0.0010989783731702
0.00095923418463079
0.00099063632714346
0.001033999195892
0.0010793178894345
0.00093504097862371
0.00071302076545614
0.00054329428072456
0.00042185841083197
0.00033933898630137
0.00027656055378013
0.00022786228374745
0.0001892103113196
0.00015770443430841
0.00013204473020157
0.00011108930099574
9.3923704520148e-05
7.9940184796268e-05
6.8612933565157e-05
5.9350846986584e-05
5.1750234836018e-05
4.5559170039297e-05
4.0358661949269e-05
3.5940744152789e-05
3.2276956668483e-05
2.9142179592349e-05
2.643732822904e-05
2.4130475570147e-05
2.0698236405413e-05
1.7783414498454e-05
1.5374732765331e-05
1.3368763994205e-05
1.1690464103733e-05
1.027710294317e-05
9.078110562011e-06
8.0564019120639e-06
7.1811840635739e-06
6.4274018165559e-06
5.7747322243763e-06
5.207770383894e-06
4.7126865863735e-06
4.2788110630608e-06
3.8967159389083e-06
3.5593803706251e-06
3.2599791852954e-06
2.9936596677419e-06
2.7558311521523e-06
2.5430383926681e-06
2.3519784706522e-06
2.1798520770837e-06
2.0244458298915e-06
1.8836671509363e-06
1.755936891868e-06
1.6396266579978e-06
1.5335240471897e-06
1.4364944308336e-06
1.3476226621136e-06
1.266104666413e-06
1.191198423201e-06
1.1222269661016e-06
1.0586060238506e-06
9.9980205396953e-07
9.453264634738e-07
8.9475777364046e-07
8.4775170372124e-07
8.0401919426741e-07
7.6329975207573e-07
7.2534819213637e-07
6.8929717469697e-07
8.6683875553211e-06
0.00045618795751826
0.0010113135956793
0.00092298179437738
0.00081235342865983
0.00071403505484546
0.00061867533039449
0.0005183080020697
0.00041329370231099
0.00033526958114215
0.00034113457271482
0.00038845494159076
0.00040518837806689
0.00039554249988953
0.00038117010851794
0.00036927338111232
0.00036173372179568
0.00035644775678394
0.00035262483526505
0.00034970335943271
0.00034701200783133
0.00034432632093238
0.00034118455586017
0.00033727938026614
0.0003324682395631
0.00032669671483132
0.00032004241716445
0.00031247478486989
0.00030404011783209
0.00029482557372513
0.00028494977725627
0.00027455046956798
0.00026377423068558
0.00025281224198394
0.00024189304776242
0.00022846181496396
0.00021794275399854
0.0002078270566345
0.00019831471083546
0.0001894952042824
0.00018137590369581
0.00017396173974247
0.00016722792427036
0.00016113391707084
0.0001556290248095
0.00015065891221144
0.00014615616389808
0.00014206079226476
0.00013838144364104
0.00013507440255648
0.00013208524833356
0.00012933859754257
0.0001268234153112
0.00012448063737564
0.0001222515355106
0.00012018229764857
0.00011813858221207
0.00011604008258687
0.00011398264808297
0.00011192867703398
0.00010988116929641
0.00010772489878044
0.00010553461226108
0.00010320937212899
0.00010104848103229
9.8801856616315e-05
9.6749820621621e-05
9.4712162530145e-05
9.2585469219511e-05
8.7902775691714e-05
7.326138993959e-05
1.5024037398268e-05
0.00019816536303856
0.00028286993116556
0.00037962761400809
0.00046558326042385
0.00054129208704681
0.00061290071955516
0.00066318352496581
0.00051007912546015
0.00039561965248219
0.00031427267899371
0.00025510084436218
0.00020902570758869
0.00017272886955866
0.00014352198246108
0.00011970503848162
0.00010022633061158
8.4479758626896e-05
7.1782961167942e-05
6.1477396502133e-05
5.3156559503236e-05
4.6403044550815e-05
4.0887133938984e-05
3.6362204804081e-05
3.2442237159844e-05
2.9273578540129e-05
2.6535593485767e-05
2.4185984982653e-05
2.0941222406836e-05
1.7993872958546e-05
1.5559907006756e-05
1.3534212300521e-05
1.1833966240945e-05
1.0399469969057e-05
9.1842404415244e-06
8.1480780932846e-06
7.2589963995811e-06
6.4935517014854e-06
5.8313770411512e-06
5.2556425908593e-06
4.7527963691524e-06
4.3123967758494e-06
3.9249382364821e-06
3.5827411526873e-06
3.2791761608185e-06
3.0093645034111e-06
2.7685799473617e-06
2.5532313834485e-06
2.3598986669526e-06
2.1859697751081e-06
2.0290420456272e-06
1.8870251517145e-06
1.7581926924992e-06
1.6409894642168e-06
1.5342070535707e-06
1.436638830115e-06
1.347318681656e-06
1.2653945521493e-06
1.1901501346539e-06
1.1209230565609e-06
1.0570998525203e-06
9.9813955067372e-07
9.4356594780249e-07
8.9296771933731e-07
8.459785231334e-07
8.0228097520965e-07
7.6161081444116e-07
7.2372999175291e-07
6.883741440318e-07
2.4693262996973e-06
0.00022825074092416
0.0009934204361823
0.00095104179551869
0.00083833655187887
0.0007389467468909
0.00064506918278356
0.00054802152261952
0.00044455858799496
0.00035408766015754
0.00033427289938885
0.00038029445334494
0.00040989578943189
0.00040691977231648
0.00039310872315088
0.00037769973675597
0.00037017134876142
0.00036498787112386
0.00036142504325174
0.00035878475131444
0.00035640104018859
0.00035401064886289
0.00035121989236878
0.00034762995759615
0.00034310997418359
0.00033758394758435
0.00033114171151052
0.00032375189607459
0.0003154599624627
0.00030635458091499
0.00029655576627929
0.00028620170918461
0.00027543414016297
0.00026443230050093
0.00025339678987145
0.00024556527205544
0.00023475412723548
0.00022432253293673
0.00021443723309135
0.00020516893741295
0.00019654235561782
0.00018855780670931
0.00018119243604707
0.00017440991563129
0.00016816311234278
0.00016239649738386
0.00015704298536279
0.00015208230643426
0.00014747878046462
0.00014321501506219
0.00013926578732804
0.00013558100441555
0.00013217069299433
0.00012899014300978
0.0001259872976613
0.00012318841533153
0.0001204486698073
0.00011767392096848
0.00011498689790672
0.00011236922802853
0.00010983302029055
0.00010723333449202
0.00010470509734577
0.00010208857887451
9.9688574281917e-05
9.7213934482393e-05
9.4942718360401e-05
9.2674029326347e-05
9.0353109165916e-05
8.5347754393216e-05
7.0817651033161e-05
3.3464544361878e-06
2.2983577055358e-05
4.8955736838277e-05
7.8932806624494e-05
0.00011444751976256
0.00015624788420001
0.00019862638015376
0.00024240056104711
0.00028307529235065
0.00031006898117436
0.00031675869748911
0.00026345722912244
0.00021249374378214
0.00017318678375469
0.00014262340397015
0.00011849500151493
9.880219067477e-05
8.293369362215e-05
7.0146731741554e-05
5.9845345500485e-05
5.149216351137e-05
4.4718059123285e-05
3.9168753636433e-05
3.4615687472951e-05
3.0904728081016e-05
2.7821344956339e-05
2.5089077216346e-05
2.2135283277066e-05
1.9009967598631e-05
1.6424878266747e-05
1.4274633441751e-05
1.2469390614229e-05
1.0950337222217e-05
9.6625256594936e-06
8.5640412326497e-06
7.6203324156044e-06
6.8081999053634e-06
6.1058314443315e-06
5.4955470423364e-06
4.9624488502049e-06
4.4955083951462e-06
4.0852068964307e-06
3.7232284394895e-06
3.4024384976014e-06
3.1173753483267e-06
2.8633801589565e-06
2.6363947297868e-06
2.4328647473922e-06
2.2499351351388e-06
2.0851710483911e-06
1.9363381444004e-06
1.8015445104192e-06
1.6791064343335e-06
1.5676960913764e-06
1.4660978399448e-06
1.3732738829548e-06
1.2882808589637e-06
1.2102952116365e-06
1.1386286943681e-06
1.0726576767998e-06
1.0118308893063e-06
9.5564136726359e-07
9.036385549692e-07
8.5542337876216e-07
8.1065132448544e-07
7.690276717586e-07
7.302918478146e-07
6.9422646412823e-07
6.6004974757532e-07
1.3587550631386e-05
0.00055417993767661
0.0010165093728765
0.0009192974281708
0.00081242119025015
0.00071840582406798
0.00062791481767957
0.00053306152351819
0.00043299470752288
0.00035253454566194
0.00034677162272445
0.00039539767691102
0.0004231324652936
0.00042035810809485
0.00040736419064913
0.00039492740942829
0.00038699281403302
0.00038173180215081
0.00037838764414231
0.00037612047819133
0.00037419246570253
0.00037222760229908
0.00036998118037461
0.00036684956069918
0.00036271280426819
0.00035747630175075
0.00035123108394375
0.00034395581283958
0.00033570121682328
0.00032656414063976
0.00031667432337695
0.00030617772749782
0.00029521652218652
0.00028395020042534
0.00027254718742413
0.00026228281142734
0.00025096234883597
0.00024005540612009
0.00022968483516423
0.0002198890524664
0.00021069538138356
0.00020209359888303
0.00019405558411871
0.00018654068980504
0.00017949900379602
0.00017287157391805
0.00016665269966347
0.00016078285365402
0.00015521812327642
0.00014994806199981
0.00014497219755025
0.00014027613565991
0.00013589760434835
0.00013182404340693
0.0001280110590032
0.00012446064335487
0.00012102923568578
0.00011765330108145
0.00011439238684406
0.00011124842627031
0.00010826423998467
0.00010525726147067
0.00010228810706729
9.9241888117415e-05
9.6429433428338e-05
9.3568559539066e-05
9.0968500278638e-05
8.8356919042206e-05
8.5769404923197e-05
8.0357808847481e-05
6.6182440468969e-05
3.0537429244075e-06
7.7282846910647e-06
1.4889010103607e-05
2.4882219686807e-05
3.8108442298296e-05
5.4509155962987e-05
7.4354504734396e-05
9.6599612602687e-05
0.00012108664525367
0.00014616928372545
0.00016691452416905
0.00017769545770834
0.00017689150546037
0.00016487211196805
0.00014294071402482
0.00011805644344063
9.8841771637114e-05
8.3202411450867e-05
7.0483005811762e-05
6.0078305028644e-05
5.167419685584e-05
4.4813799340169e-05
3.9190720395002e-05
3.4536264985057e-05
3.0685677815972e-05
2.7474921813764e-05
2.3947716029884e-05
2.0623553611818e-05
1.7841717587278e-05
1.5499794247034e-05
1.3524876503257e-05
1.1857506321346e-05
1.04423176311e-05
9.2375552344936e-06
8.2035806887972e-06
7.3153592478831e-06
6.5497101639901e-06
5.8862200661667e-06
5.307330351429e-06
4.8001700014424e-06
4.3549952197337e-06
3.9624604000385e-06
3.6151236577542e-06
3.3064774646958e-06
3.0319517342632e-06
2.7868171995722e-06
2.5673538571913e-06
2.3701953014753e-06
2.1927778497606e-06
2.0328041366638e-06
1.8881438996793e-06
1.7569654591592e-06
1.6377166510177e-06
1.5291572135363e-06
1.430104339751e-06
1.3395466245829e-06
1.2565882064293e-06
1.1804524558591e-06
1.1104797406194e-06
1.0460481907786e-06
9.8661439631469e-07
9.3170441919302e-07
8.8088889165309e-07
8.3379626526639e-07
7.9008420452763e-07
7.4945555144595e-07
7.1166001226537e-07
6.7644563659893e-07
6.4356648568512e-07
1.9802720798157e-05
0.00064273690037655
0.0010188855571231
0.00091552569588806
0.00081198559979958
0.0007218870598473
0.0006356933571701
0.00054568743652469
0.00045005510051611
0.00036822215962921
0.00035090784425053
0.00039620837584697
0.00043177054493949
0.00043555412606599
0.00042430610716698
0.00041146405158912
0.00040254818135098
0.00039680077234623
0.0003932358668797
0.0003910723009954
0.00038938594720659
0.00038772394613685
0.00038576332823526
0.00038287555547648
0.00037888267311353
0.00037366724965378
0.00036732262732041
0.00035983883271819
0.00035127872097874
0.00034175693155013
0.00033142100084747
0.00032043465708389
0.00030895159873987
0.00029713311169828
0.00028513014856666
0.0002720108472347
0.00026000686267798
0.00024850279675201
0.00023757525138856
0.00022722996705648
0.00021748345412281
0.00020831085893912
0.00019967742720144
0.00019155036681021
0.00018385693820799
0.0001766247098189
0.00016980491355912
0.00016334103979228
0.00015717138955619
0.00015128456556344
0.00014568581079761
0.00014038612313918
0.00013543142490837
0.00013083495676996
0.00012655107026152
0.00012256634264227
0.00011878097543262
0.00011505002302481
0.000111343565321
0.0001076448560808
0.00010406440266469
0.0001004856099524
9.6987935366905e-05
9.348349756392e-05
9.0199800130283e-05
8.7016093817287e-05
8.4062188621761e-05
8.112966287186e-05
7.8279413127554e-05
7.3020427104331e-05
5.9220786417028e-05
2.7320425759389e-06
4.8812593577918e-06
6.8325937527115e-06
1.0918918029036e-05
1.6628487224578e-05
2.4102509491311e-05