/*--------------------------------*- C++ -*----------------------------------*\
| =========                 |                                                 |
| \\      /  F ield         | OpenFOAM: The Open Source CFD Toolbox           |
|  \\    /   O peration     | Version:  2312                                  |
|   \\  /    A nd           | Website:  www.openfoam.com                      |
|    \\/     M anipulation  |                                                 |
\*---------------------------------------------------------------------------*/
FoamFile
{
    version     2.0;
    format      ascii;
    arch        "LSB;label=32;scalar=64";
    class       volScalarField;
    location    "9e-05";
    object      cSound;
}
// * * * * * * * * * * * * * * * * * * * * * * * * * * * * * * * * * * * * * //

dimensions      [0 1 -1 0 0 0 0];

internalField   nonuniform List<scalar> 
109340
(
555.73066873008
554.67614926651
552.65426793269
550.19480731653
547.46368603083
544.60193614832
541.66453480857
538.67873721487
535.67596918139
532.58551980131
529.272764509
525.61458557628
521.47034956183
516.67913636321
511.06455302364
504.44116451891
496.62024117346
487.41892273443
476.67003702292
464.23411949191
450.0102857776
433.95136719354
416.07519379303
396.47208927935
375.3042574887
352.79934138035
329.23483986266
304.91618693985
280.15019456239
255.21712950069
230.34431867697
205.6824737782
181.28870753309
157.13245231589
133.15377990199
109.40305734539
555.89228492087
554.53581324925
552.26479376281
549.63655944107
546.82316870126
543.94819580422
541.04789641233
538.11903997746
535.11762889461
531.97344045741
528.58116117439
524.81488942382
520.52759531432
515.55302137572
509.71086975364
502.81228913558
494.66945222093
485.10200238023
473.94780599736
461.07510418721
446.39481100864
429.87467707313
411.54999141921
391.52948992691
369.99311226064
347.18318205819
323.38720647722
298.91433963314
274.06801815864
249.118001724
224.27382095298
199.65980590883
175.29165201013
151.07756483935
126.82202612136
102.5730371032
556.48497297047
554.91515454106
552.41580070206
549.72568442023
546.93638442484
544.1027074277
541.21815489416
538.281304635
535.27015477117
532.11759302487
528.72134276653
524.95462815565
520.66923498333
515.69814122312
509.8607507338
502.96887152716
494.83392103513
485.27528009992
474.13006852258
461.26585306124
446.59225503725
430.07603806666
411.7517113289
391.72732887169
370.18261695618
347.35998189022
323.54752070397
299.05544109578
274.18854145196
249.21754049359
224.35194931477
199.71196530837
175.29026232628
150.92638827672
126.26066747378
100.89352279989
557.30878173638
555.4176237463
552.79419500481
550.02992360548
547.18801156514
544.29611727297
541.36384604495
538.39402609004
535.360735129
532.19576019923
528.79698899023
525.03636099972
520.76378465743
515.81053690548
509.99395923954
503.12362894358
495.00901424073
485.4674239058
474.33320747742
461.47208657417
446.78999879401
430.25180902838
411.89071245607
391.8141990678
370.20343822383
347.30310681771
323.4050890676
298.82436559067
273.87101334145
248.82056802155
223.88599367833
199.18788316355
174.69270829427
150.15630163202
124.95949452572
97.848921861321
558.60499750589
556.149342764
553.1446945846
550.19251799328
547.27368437057
544.35365868943
541.41250867889
538.44652589412
535.42332145065
532.27186295182
528.89118972204
525.15222521609
520.90175859369
515.9665239647
510.15760833452
503.2765378017
495.12349576442
485.5057017916
474.23843635942
461.18343988967
446.23249450528
429.34601869933
410.55846036111
389.98465932963
367.82335015391
344.34295998396
319.86548262266
294.73924935406
269.30769104706
243.87657359279
218.68075980544
193.8700706799
169.39452355032
144.95236759453
119.64987363312
90.810043170395
561.01356818236
556.53810730357
553.22866803363
550.21490451674
547.29242091338
544.37840860813
541.44435988682
538.47278146216
535.41320876295
532.16598240749
528.59184367635
524.51346183409
519.72095915018
513.97822343578
507.03180604877
498.62349482025
488.50719407585
476.4758913677
462.39613424039
446.10362398825
427.58739678829
406.94095811522
384.37377778508
360.20664386898
334.85038869416
308.76997845288
282.44264729873
256.31508953935
230.76669691195
206.08212549477
182.42673241593
159.88831904203
138.31511645208
117.35767159432
96.092494402
70.923587256001
86.905247886589
68.036580893442
54.108782971235
44.659755276247
38.474838442079
34.295923693775
31.490717902201
29.671912838715
28.596614630999
28.100638978339
28.027698779862
28.394686209329
29.010536174708
29.803991737674
30.719644974475
31.687675123345
32.667973336841
33.630902500353
34.557291904172
35.438016328064
36.267890647039
37.044346475305
37.76876683412
38.443854413499
39.07244605085
39.658579945371
40.205450132938
40.714172723747
41.192368371918
41.63857650369
42.058210737635
42.452647743314
42.823633376616
43.17450626138
43.505143515834
43.819131598292
44.115923296739
44.398630323289
44.666777450013
44.922779726581
45.166545127059
45.399548874754
45.622397538031
45.83549683483
46.040158509523
46.236023238881
46.424721997563
46.605658751481
46.780247249432
46.948221963961
47.110202767036
47.266548079413
47.417558799919
47.563537149111
47.704750512436
47.84145105013
47.973873510001
48.102237081574
48.226747277816
48.347594711016
48.464954836408
48.578991503195
48.689858848573
48.7977010454
48.902653702333
49.00484613342
49.104399349113
49.201432185273
49.296050974678
49.388333077301
49.965426922274
50.917772338438
51.410815725857
51.902978549415
52.450789060981
53.087231484904
53.842951001237
54.717286413688
55.591420579524
56.159495639627
56.363160961952
56.413651382954
56.417162837507
56.407850724002
56.394683283482
56.384190714772
56.375098286524
56.367399022572
56.361217323566
56.356236731179
56.352488813215
56.349916404819
56.348325344794
56.347556689058
56.347558434459
56.348279079999
56.349581152883
56.351339375233
56.353438462051
56.355772382692
56.358246217567
56.360763439765
56.363234602737
56.365585357842
56.36825834852
56.370068775846
56.371521549275
56.372588490512
56.373258250528
56.373466073769
56.3734356234
56.373143418629
56.37259903281
56.371816876156
56.370811228217
56.369592668756
56.368172811521
56.366559237174
56.364776867595
56.36286319561
56.360871026028
56.358873199889
56.356922818846
56.355097463035
56.353287551109
56.351352366497
56.349165927525
56.34673786111
56.344116106364
56.341321948821
56.338254205889
56.334917954726
56.331298362687
56.327755376395
56.324473168066
56.321435447714
56.319476363726
56.331756112549
56.60227191577
62.193961038308
79.486569999326
61.191974593029
48.761233478706
40.876001365498
35.731002159565
32.384731683668
30.208710776419
28.879056486815
28.180362463973
27.963148450356
28.123804355156
28.570166089876
29.26742793638
30.102355449356
31.022004834717
31.984630386938
32.950768332503
33.896140497575
34.804784242193
35.667138066206
36.478744702687
37.238733280585
37.94809818185
38.60916268056
39.225006530813
39.799182374993
40.335033359578
40.835778089925
41.304384694257
41.743759867378
42.156277638948
42.544500732496
42.910260954721
43.255638412223
43.582175210405
43.891529378917
44.184963470307
44.463815083342
44.729105128931
44.981936560686
45.223135756198
45.45363162361
45.674075849464
45.885252080377
46.087689969443
46.282043966054
46.468761579069
46.648373566059
46.821276725802
46.987894392827
47.148578865534
47.303675987654
47.453511813062
47.598370110453
47.738526109888
47.874221194465
48.005690508764
48.133146302348
48.256790778058
48.37681071776
48.49338080732
48.606662504531
48.716806733379
48.823954617248
48.92824130782
49.029794558119
49.128736364651
49.225178619232
49.319228393093
49.413294855415
50.31682523646
51.052277863438
51.531470501179
52.033344690406
52.598353469356
53.259888048062
54.045025122094
54.936070943908
55.765273599382
56.231275915066
56.381756867123
56.415720876307
56.414413095964
56.403762472902
56.393756188867
56.383057609789
56.373775656682
56.365895458691
56.359531444161
56.354409230919
56.350527879724
56.347836783928
56.34615515072
56.345327312917
56.345271646853
56.345955841119
56.347240037503
56.348995973179
56.351105600666
56.353460536636
56.355962463909
56.358512326647
56.36101678682
56.363397935814
56.366105052551
56.367939518192
56.369420476259
56.370506640164
56.371184568214
56.371393435134
56.371352513846
56.371045440256
56.370482375787
56.369678383142
56.368647631894
56.367400607717
56.365948240709
56.364296562425
56.36246955108
56.360502466309
56.358447452091
56.35637678929
56.354347302987
56.352433424535
56.350520624999
56.348483914383
56.346200788393
56.343679964184
56.340959500515
56.338066992563
56.334897388808
56.331462627077
56.327759503474
56.324153245907
56.320802755465
56.317694451174
56.315663205349
56.327822200678
56.597429980718
62.192897092031
75.603265015737
56.188003456762
44.654028083605
37.682254356621
33.339625284755
30.678401093894
29.08666766503
28.209489487247
27.846602655202
27.845371817968
28.192211432016
28.743853641818
29.463814700121
30.301482070364
31.208328964542
32.148291341217
33.091050994255
34.014867445926
34.904214747831
35.749725113948
36.547534743716
37.296351850034
37.996472418906
38.650032923896
39.259955152022
39.829145246371
40.360614117863
40.85775431243
41.323332331739
41.760049385682
42.170411380419
42.556626730056
42.92081217209
43.264701506621
43.590076041096
43.898314362409
44.190876948061
44.468879312549
44.73351323011
44.985695898464
45.226412660856
45.456414552013
45.676502082141
45.887312467957
46.089479794528
46.283565780865
46.470069706626
46.649492945792
46.822227621095
46.988712416868
47.149275852289
47.304286767991
47.454033623895
47.598819999084
47.738911275707
47.874554321399
48.00597952137
48.133398609697
48.25701205773
48.377006149713
48.493555425798
48.606820629168
48.716951883534
48.824090236912
48.92837033216
49.029919888565
49.128858745373
49.22529869454
49.319349571692
49.413735742019
50.327604591788
51.055909837621
51.533408872842
52.033361615007
52.595662774031
53.253564528681
54.034412729233
54.921784797084
55.751858541032
56.224041309196
56.378535234868
56.413976030284
56.412959766771
56.402064651174
56.39188201692
56.380723752838
56.370996148051
56.362699338813
56.35593117847
56.350466778566
56.346288258929
56.343333032856
56.341449185594
56.340482819982
56.340305961814
56.340913957421
56.342166057443
56.343927421125
56.346072786294
56.348488367426
56.351070055199
56.353712688216
56.356314254258
56.358788921335
56.361606129365
56.363522667922
56.365084266209
56.366239720731
56.366973416507
56.367206886594
56.367164033539
56.366842641964
56.366255749772
56.365420818016
56.364352204613
56.363059618741
56.361551407601
56.359831481844
56.357921788755
56.355853477417
56.353676701393
56.35146217762
56.349280003851
56.347181631719
56.345059712619
56.34282410879
56.34034936584
56.337632485334
56.334692372944
56.331574079521
56.32818921278
56.324542019598
56.32063868199
56.316895276029
56.313399401349
56.310149988962
56.307911764297
56.319763103755
56.587288526867
62.183051375416
68.471837346259
48.230930852166
38.444010693656
33.099082908396
30.249014714487
28.650579335463
27.855936906852
27.550947218849
27.584150651783
27.83779272597
28.370574466292
29.001162559552
29.741195329932
30.568762556593
31.449243769571
32.36023800285
33.273969729169
34.169639033081
35.034534346053
35.859938092948
36.640425342988
37.374270948687
38.062608656379
38.706545171618
39.3083243576
39.870861331532
40.397078851799
40.889582819955
41.351246637308
41.784643420189
42.192167815622
42.575916088844
42.93794947854
43.280008598538
43.603731423427
43.910565934619
44.201841108367
44.47873690279
44.742353731472
44.993656076874
45.233556569378
45.46284131817
45.682283451139
45.892510964347
46.094170058246
46.287779929464
46.473882339914
46.652913143307
46.825321078186
46.991490451127
47.151788225255
47.306554613826
47.456089082297
47.600685236928
47.740601848509
47.876089945984
48.007374597586
48.134668717982
48.258170359081
48.378064705084
48.494524233557
48.607708936033
48.717768693714
48.824844548428
48.92906971646
49.03057022922
49.129464902906
49.225865152572
49.319883321624
49.414832498881
50.343026834302
51.061267124545
51.536287347811
52.033407918695
52.591777712455
53.244423510134
54.01904630825
54.90102404641
55.73218709153
56.213346408464
56.37381497482
56.411499744071
56.410979908891
56.399786568194
56.389219918655
56.377395599903
56.367015385971
56.358115086457
56.350774885481
56.344818240234
56.340208428978
56.336884236407
56.334703245104
56.333524301607
56.333195898299
56.333705102338
56.334926162874
56.336714572543
56.338935838542
56.341466205454
56.344192696815
56.347000929875
56.349776923233
56.352422338808
56.355441874021
56.357515080561
56.359216598136
56.360486399889
56.361302635913
56.361584065451
56.361534978696
56.361187494314
56.360556820518
56.359661916415
56.358517453707
56.357132813746
56.355512247195
56.353662014
56.351599376134
56.349351494831
56.346966685191
56.344517888716
56.342075887854
56.339679914357
56.337239527288
56.334691092614
56.33190880433
56.328873673823
56.325607591607
56.32215987518
56.318462885489
56.314496986528
56.310362404997
56.306384811778
56.30271729522
56.299301810378
56.296842500596
56.308456533846
56.57426360509
62.196665304971
53.619115990513
36.700388807371
30.673442617844
28.19888141616
27.285984167168
26.949534155806
26.977702104579
27.224434785289
27.609164324252
28.109702256078
28.695968251675
29.359736642838
30.10096607692
30.905588803111
31.753647348133
32.623777915901
33.498732051835
34.360781657676
35.195954170272
35.99558166476
36.75493108644
37.471797109247
38.145201256828
38.776976887597
39.368924821377
39.92332472786
40.442589913591
40.92946227905
41.386328007632
41.815660795996
42.2196921901
42.600506261617
42.959956047178
43.299808694365
43.621591730993
43.926743211666
44.216503689684
44.492084622083
44.754507660598
45.004760396874
45.243694569537
45.47213354629
45.690781907309
45.900313693126
46.101322620262
46.294355681016
46.479919744676
46.658460683665
46.830422608881
46.996177538921
47.156104100827
47.310521809038
47.459747671818
47.604059049137
47.74371635108
47.87896366625
48.010026824595
48.137119342063
48.260436512532
48.380161730386
48.496465729465
48.609508412292
48.719439344754
48.826398443874
48.930517306145
49.03192067053
49.130726579523
49.227045995028
49.320992055223
49.416798026806
50.362961993138
51.068320698577
51.540135286716
52.033507398453
52.586720496974
53.232501095382
53.998953145927
54.873740756386
55.706022725985
56.198949840706
56.367523232511
56.408330690072
56.40858938762
56.397108250614
56.385996160861
56.373330415905
56.362118986347
56.352440667853
56.344368608487
56.337773582392
56.332608744305
56.328814162064
56.326254742325
56.324797928135
56.324294569941
56.324690595383
56.325889889705
56.327736180896
56.330083333725
56.33279524992
56.335745755223
56.338807326195
56.341852648742
56.344765240759
56.348097450968
56.350415867183
56.352333598719
56.353784144904
56.354733002251
56.355102496505
56.355062428699
56.354694246702
56.354011927867
56.353036418063
56.351783820448
56.350263363962
56.348477898955
56.346436391883
56.344150446635
56.3416442488
56.338964151548
56.33618367681
56.333378865891
56.330578711069
56.327714216282
56.324741218059
56.32154936818
56.318090621962
56.314409229653
56.310553260376
56.306481886184
56.302137934775
56.297731374137
56.293488824376
56.289630264291
56.286046740163
56.283369672451
56.294637473342
56.558428166513
62.223334463838
26.704037460947
24.533901880247
24.766864210681
25.314658153556
25.856848249065
26.367884507034
26.872529129765
27.409751200439
27.952877996008
28.527626920418
29.145896002367
29.816771830897
30.53770253188
31.305303830207
32.109507993994
32.93444113058
33.764926669728
34.586184337815
35.386371426687
36.156595053484
36.891194885618
37.587184060441
38.243997137614
38.861504351934
39.441604684796
39.986131088336
40.497331922991
40.977273891474
41.428331030446
41.852796395553
42.252700961363
42.629946577123
42.986368237124
43.323595990744
43.6430894202
43.946229438975
44.234251837268
44.508276445053
44.769323272243
45.018349135402
45.256195971555
45.483650404219
45.701410996982
45.910144438315
46.110421369548
46.302792965725
46.487740137743
46.665728102329
46.837170782136
47.00245419091
47.161940549998
47.315955498212
47.464810707495
47.608777561928
47.748119071406
47.883071118645
48.013861474759
48.14069949878
48.263779515923
48.383284201125
48.499384075279
48.61223817396
48.72199435277
48.82879163264
48.932761479183
49.034027582087
49.132706094058
49.228907853515
49.32274625924
49.419828224382
50.387100864756
51.077045413201
51.544963649432
52.033685479529
52.580526246879
53.217850348305
53.974180681417
54.839899401884
55.673066756076
56.180506964062
56.359532667147
56.404487691458
56.4059039137
56.394219069237
56.382439079168
56.368792579723
56.356596566776
56.345988385327
56.337042171004
56.329674535049
56.32383713265
56.319474951879
56.316457992963
56.314663690468
56.313956401255
56.314217845697
56.31540082973
56.317333597867
56.319856342736
56.322817914469
56.326075021378
56.329483821881
56.332899935725
56.336187329066
56.339945096623
56.342610724397
56.344830097239
56.346532397463
56.347672365896
56.348175058998
56.348164356615
56.347785945492
56.347047094614
56.345972055767
56.344579807509
56.342880603449
56.340880854724
56.338584148611
56.335998495201
56.33314549453
56.330070610512
56.326847359999
56.323554787403
56.320234191997
56.31682802585
56.313323865284
56.309639239219
56.305679064246
56.301534152422
56.297255790084
56.292820124198
56.288097145515
56.283415229625
56.278920344737
56.274889643037
56.271210647373
56.268325027079
56.279215981275
56.540502550945
62.259062265057
26.011166983616
22.922028735965
24.121791877214
25.122229463433
25.946250657373
26.645240445138
27.247294105201
27.816107666661
28.380061457522
28.952715521132
29.553357823635
30.189526898909
30.862418277424
31.573529557817
32.318827417666
33.088464737456
33.869311525854
34.649148416884
35.415486811996
36.159274663986
36.873980309136
37.555464688673
38.201630062844
38.812323329733
39.387635866838
39.929004468352
40.438433837222
40.917771414432
41.368858880233
41.793755261019
42.194552483586
42.573015273119
42.930781890079
43.269434151991
43.590468684962
43.895176206863
44.184745424398
44.460307489917
44.72287777325
44.973374185766
45.212641516192
45.441471767478
45.660563447932
45.870562695496
46.072052042565
46.265584930246
46.451644803513
46.630693885819
46.803144504078
46.969395539587
47.129804755193
47.284703105072
47.434397385892
47.579167628513
47.719280813632
47.854972587312
47.986469459372
48.113981309913
48.237707768462
48.357833075731
48.474528348907
48.587954190318
48.698261175467
48.805590794482
48.910074743836
49.011837037274
49.11099504403
49.207662394397
49.301924363738
49.393739960438
50.095295021101
50.961819781368
51.43523111306
51.909046778513
52.431491627884
53.033659927634
53.7469882478
54.579197132655
55.442203179518
56.064725418751
56.321093361958
56.393907828543
56.404373626106
56.394853579368
56.378785398704
56.364054568758
56.350740448748
56.339060789054
56.329104868314
56.320831578897
56.314202700237
56.309170927343
56.305610055595
56.303409830628
56.302452871402
56.30255764022
56.303720641451
56.305759967037
56.308500524763
56.311773913007
56.315416698999
56.319263632238
56.323151073392
56.326932960096
56.326528709738
56.329887159243
56.332697143023
56.334890798926
56.336417837583
56.33721429956
56.337299834372
56.336933768489
56.336109510041
56.334856103893
56.333196140566
56.331142686762
56.328704274436
56.325887164482
56.322697327905
56.319156693147
56.31530859448
56.311224664506
56.306991062664
56.30268649969
56.298289560203
56.293857418157
56.28935236277
56.284700142163
56.280016819274
56.27529747032
56.270497146423
56.265417700412
56.260427321326
56.255765996536
56.251560287125
56.247991964962
56.244733981492
56.255028784523
56.511609872866
62.326897681966
34.294355180056
28.759390497221
28.467255728152
28.488443542816
28.659298265212
28.919013755517
29.254323833399
29.662756473283
30.08104362627
30.544183610836
31.049265270766
31.586779538438
32.158787353877
32.7647789111
33.402122612044
34.064313616945
34.741792848508
35.424440893428
36.10307781827
36.768290487694
37.413333495702
38.03383259447
38.626990513714
39.191514268586
39.727174652472
40.234485166016
40.714228114303
41.167526487487
41.596060628259
42.001334485715
42.384837347965
42.747938740448
43.09215639698
43.418801408144
43.72909704298
44.024164244721
44.305122408262
44.572940906432
44.828518154971
45.072676307517
45.306201501622
45.529805773305
45.744124513044
45.949740270452
46.147203562339
46.337022289466
46.519657989615
46.695532110354
46.865044339599
47.028566071847
47.186435473477
47.338965042124
47.486441455399
47.629135935026
47.767296118734
47.901154637642
48.030925374221
48.15681004682
48.278998879545
48.397669341674
48.512988016706
48.625110118633
48.734181779614
48.840339482981
48.943710810184
49.044415111457
49.142565875857
49.238281751592
49.331658908786
49.43652853042
50.48107643719
51.112614993611
51.565083380612
52.034926905036
52.555750565615
53.1585536898
53.872941499371
54.699211000443
55.529947512538
56.095577098256
56.322833285731
56.388426341448
56.39691249504
56.385970848223
56.37204987481
56.354981541618
56.339111544439
56.32490225914
56.312528490074
56.302039421961
56.293443057734
56.286720537941
56.281757898866
56.278481752729
56.27679245346
56.276477188829
56.277520648251
56.279768985786
56.283014407454
56.287049021516
56.291661878575
56.296633032012
56.301744522008
56.306795869919
56.307599495703
56.312196076025
56.316098613186
56.319229911898
56.321498272163
56.322838180026
56.323159162484
56.322824665786
56.321868093166
56.320309258773
56.3181757672
56.315479610421
56.312228983967
56.308435775647
56.304128096294
56.299339544902
56.294124274004
56.28854984442
56.282744258459
56.277001938899
56.271443446239
56.266084557093
56.260939776089
56.255882872786
56.250931292205
56.246016840146
56.241188312739
56.23621113212
56.231181115524
56.226754306193
56.222765835073
56.219490496648
56.215843448135
56.225529186004
56.472957200257
62.447882608806
37.749047150514
32.6007126048
31.924617682722
31.619532045577
31.471423155193
31.425050900594
31.482513217144
31.629364830774
31.859669768247
32.164524877421
32.507547647518
32.902995233799
33.349596587245
33.837967484627
34.359194951875
34.910499924383
35.484152318433
36.071121113887
36.663198848745
37.252766997466
37.83264709651
38.397097559742
38.942321709823
39.465914617341
39.966617705373
40.444036136647
40.898288612342
41.329964332822
41.739990622354
42.129285794342
42.498986131644
42.850274340229
43.184206700182
43.5018975502
43.804300416777
44.092451891749
44.367300510278
44.629718074407
44.880490452352
45.120368612383
45.350085972204
45.570271560081
45.781522925594
45.984377108002
46.17936338485
46.366940643895
46.547544625408
46.721575451904
46.889415308522
47.051415919969
47.207894831499
47.359148247634
47.505451725565
47.647066486341
47.784229884386
47.917163882642
48.046077543413
48.171167640721
48.292620154677
48.410605987137
48.525284988938
48.636808812157
48.745319882442
48.850952894084
48.953831754553
49.054075231839
49.151796228781
49.247099984614
49.340070392201
49.458759551972
50.558948785223
51.143717244411
51.582922776946
52.036684164068
52.535150510133
53.108052387291
53.785316021121
54.574283114449
55.394440747879
56.006517878763
56.283031915318
56.372107874819
56.39005737507
56.381825970097
56.367193360384
56.3478814644
56.32918387242
56.311983770668
56.296662822029
56.283382925128
56.272237806043
56.263252052802
56.256357603112
56.251528900894
56.248691499437
56.247665582083
56.248349868966
56.250675664868
56.254403611473
56.259284546425
56.265052789616
56.2714210711
56.278096101962
56.284797527355
56.287363315474
56.293576854358
56.298926991919
56.303279038985
56.306493137685
56.308483403296
56.30911438872
56.308724654669
56.307522716499
56.30548634936
56.302628817717
56.298959461094
56.294524247247
56.289373764958
56.28356220229
56.277149442321
56.27031961855
56.263265593573
56.256212797536
56.249594881983
56.243485352922
56.237750369505
56.232519733123
56.22773551289
56.223175291079
56.218647375182
56.214384650061
56.21018545079
56.205760472023
56.201826627853
56.198296665366
56.195667787262
56.19213192548
56.201331950569
56.434738505953
62.597550074481
40.273532397107
35.188530496974
34.398865853876
34.001590052852
33.743993469396
33.583811886307
33.49452787118
33.497569647557
33.58146725817
33.727168076495
33.951005348442
34.222185889466
34.540879172274
34.910004023777
35.325366187278
35.774943256497
36.252204141692
36.750153457531
37.260268997068
37.775378461184
38.289192548963
38.79622302027
39.291681621166
39.772425186719
40.236227484759
40.681807573668
41.108617376415
41.516643466604
41.906169159499
42.277701023575
42.631984512631
42.969822669148
43.291974847112
43.599302585109
43.892684023645
44.172901326227
44.440739340905
44.696887204756
44.942096922698
45.177041212003
45.402314699635
45.618510283131
45.82614037751
46.025743818307
46.217781954159
46.402691602685
46.58086585471
46.752686512772
46.918520497803
47.07868607674
47.233487182742
47.383198276037
47.528089580696
47.668406423755
47.80437248977
47.936200554546
48.064089445108
48.188232485732
48.308808371208
48.425981762668
48.53990720973
48.650728400319
48.758582805999
48.863600285025
48.965903473447
49.065606982293
49.162820527821
49.257637357604
49.350103250887
49.507091292393
50.643687350911
51.18069396204
51.604656669888
52.039948562943
52.512916190836
53.05147235423
53.685245161468
54.427910078152
55.225981147186
55.882102324693
56.223235410903
56.347378910436
56.3808192812
56.378510605675
56.364794303604
56.343966243515
56.322439835301
56.301944803758
56.28317722914
56.266516181765
56.252171820544
56.240240879256
56.230765277274
56.223774443391
56.219233698717
56.217046611942
56.216987418868
56.219106483763
56.22314989366
56.228834319048
56.235842275744
56.243811766151
56.252353190783
56.261074099167
56.265939146862
56.274185107619
56.281368798766
56.287249363661
56.291602285471
56.294299466699
56.295159616811
56.294553981903
56.292865796215
56.290011710907
56.285998407932
56.28089874924
56.274807086719
56.267869900378
56.260315118628
56.252352123957
56.244337492607
56.236483737291
56.228970062451
56.222184162328
56.216331401476
56.211078618603
56.206530117382
56.2027223243
56.199131658118
56.195659231498
56.192224300239
56.188639953898
56.18486165262
56.181596936485
56.178878444418
56.177177236828
56.174197249364
56.183734633997
56.397167162086
62.73151476314
42.515720398328
37.102548926523
36.266741677076
35.832785965033
35.541743210359
35.332741070978
35.188813542975
35.111450848576
35.104579130697
35.160207541507
35.272315131651
35.461577640315
35.690104391019
35.950743482005
36.26672015156
36.62739753142
37.020319372426
37.436714895735
37.87130005863
38.317735408518
38.769010482182
39.219719405515
39.665684550372
40.102898960377
40.528795866838
40.941503805657
41.339796811214
41.723009325241
42.090894665239
42.443530804829
42.781243113942
43.10450219045
43.413862362035
43.709936977636
43.993321921007
44.264648360189
44.524580232097
44.773743061813
45.012714500729
45.242083718267
45.462338984155
45.674005436523
45.877594562662
46.073536334468
46.262257778203
46.444128742879
46.619542033328
46.788855650942
46.952386230804
47.110442472412
47.263292525512
47.411214750078
47.554459799616
47.693257019542
47.82782135164
47.958350344644
48.085043194478
48.208079880247
48.327627873717
48.443846495198
48.556883418653
48.666879816794
48.77396764217
48.878267636276
48.979897434361
49.078969448294
49.175581621839
49.269830537715
49.361772287609
49.601155092744
50.730998471626
51.222820325178
51.630716476905
52.045860710094
52.491095432335
52.992085161572
53.577389030812
54.265508572197
55.027206546339
55.714529240195
56.132746086253
56.307676381651
56.365501845623
56.374065841899
56.364158192437
56.343422443468
56.319658323326
56.295844525887
56.273283486506
56.252701837493
56.234500405491
56.218927165031
56.20615842944
56.196310529371
56.189422350385
56.185462856062
56.184215195379
56.185719342418
56.189788421259
56.196114469544
56.204336949096
56.214029031221
56.224694723279
56.235796250984
56.243572950538
56.254355157354
56.263805475949
56.271542771739
56.277196855209
56.280562407084
56.281390793647
56.280267538971
56.27765606148
56.273437073512
56.267691378856
56.260659991772
56.252611076468
56.243890537267
56.234968427724
56.226257526858
56.217968551158
56.210518369662
56.20379249251
56.197846748571
56.193144886145
56.18901835175
56.185315812229
56.182032407289
56.179105039127
56.176592498369
56.174460611212
56.172621676972
56.171142425179
56.170834999783
56.171772483085
56.174464067151
56.176973664683
56.189440289997
56.383799321281
62.769681639896
44.858881213493
38.595951068211
37.752042407024
37.292719413742
36.991131642587
36.76484772516
36.601135775645
36.483745001899
36.423275147772
36.42311504629
36.471514562584
36.570728576784
36.732023294125
36.935512469516
37.171585456025
37.449664895503
37.767576029303
38.113961212262
38.481740166305
38.864967819807
39.258772626439
39.65715602881
40.055442877648
40.450414342775
40.838781776203
41.218296786109
41.587404383937
41.945078228643
42.290630900698
42.623659133492
42.944088319276
43.252085974942
43.547934465435
43.831999900169
44.104721942159
44.366579311862
44.618052740309
44.859604075793
45.091724779984
45.314937453611
45.529684129763
45.736391047668
45.935495818731
46.127356629951
46.312364997491
46.49089296388
46.66325972928
46.829789102347
46.990764341202
47.146462177213
47.297164483646
47.443102218704
47.584508881036
47.721599458774
47.854577925691
47.983648214021
48.108985965063
48.230762083516
48.349136944722
48.464260480389
48.576279843449
48.68532797855
48.791528776331
48.895001558946
48.995855173343
49.094194761294
49.190126546292
49.283754561362
49.37507691832
49.781819430599
50.818449267078
51.27014754946
51.661611810034
52.055784121514
52.472124291072