/*--------------------------------*- C++ -*----------------------------------*\
| =========                 |                                                 |
| \\      /  F ield         | OpenFOAM: The Open Source CFD Toolbox           |
|  \\    /   O peration     | Version:  2312                                  |
|   \\  /    A nd           | Website:  www.openfoam.com                      |
|    \\/     M anipulation  |                                                 |
\*---------------------------------------------------------------------------*/
FoamFile
{
    version     2.0;
    format      ascii;
    arch        "LSB;label=32;scalar=64";
    class       volScalarField;
    location    "9e-05";
    object      dydt;
}
// * * * * * * * * * * * * * * * * * * * * * * * * * * * * * * * * * * * * * //

dimensions      [0 0 -1 0 0 0 0];

internalField   nonuniform List<scalar> 
109340
(
0
0
0
0
0
0
2.2053504168222e-06
0.0016981444850293
0.009892772730125
0.028351190503404
0.060597195912585
0.10995012419313
0.17964676646654
0.27305953625272
0.39391678492262
0.54654859056326
0.73628917738434
0.96991356316367
1.2562283343247
1.6067404763523
2.0366965351791
2.5660266110717
3.2208487131992
4.0355880656727
5.0563643998515
6.3457373147891
7.9903825400276
10.113446624732
12.895639324814
16.612844347934
21.706801780494
28.926814671791
39.62989488795
56.440034502645
84.742463501974
136.21696816051
0
0
0
0
0
0
4.9966299854098e-05
0.0026080328825588
0.012401728368651
0.033299077782702
0.068784653373392
0.12215305890105
0.19666717963231
0.29577286291053
0.42333196019558
0.58394583316466
0.78322836607539
1.0283927585461
1.3288617861371
1.6970042640727
2.1491305497168
2.7065608297283
3.3972528262763
4.258162057607
5.3389315653217
6.7072391966544
8.4573549278815
10.724216416626
13.707716163286
17.716604938063
23.252799246047
31.185426692387
43.138589963812
62.388743694683
96.297993578014
161.55091946001
0
0
0
0
0
0
2.7911159272656e-05
0.0023151732737712
0.011681286039588
0.032117630281387
0.067166303570268
0.12016759132867
0.19442650006002
0.29341722494853
0.42100220660615
0.58171413497982
0.781134037
1.0264099062763
1.3269231945693
1.6949963323377
2.1469438093374
2.704048880875
3.3942248433224
4.2543876711506
5.3341294842432
6.7010980030367
8.4495061338708
10.714210965242
13.695009951796
17.700825061853
23.234763400757
31.173241063073
43.18680192801
62.779674634926
98.365733824668
172.61729295074
0
0
0
0
0
0
1.474765770014e-05
0.0021189810696072
0.011265252837635
0.031542665078961
0.066507743138342
0.11947591776437
0.19371668626999
0.2926606974167
0.42013874272028
0.58066597218692
0.77979740459253
1.024661447944
1.3246781001612
1.6921499192769
2.1435684112177
2.7002595446783
3.3902187779789
4.2505426944067
5.3309617187104
6.699473404155
8.4507492456761
10.720341602866
13.70917895458
17.72842195755
23.285880352168
31.270406906072
43.421232698415
63.555188399076
101.77587304908
192.45379886559
0
0
0
0
0
0
1.0487200401546e-05
0.0020058650981698
0.010922037819589
0.030881347127069
0.06546580975683
0.11800876779395
0.19179964515234
0.29029168354423
0.41734195978951
0.57749529289023
0.776323225944
1.0209626406666
1.3215201795792
1.690163406246
2.1443833212807
2.7062233507733
3.4048171975611
4.279077683808
5.3809799372145
6.782013019374
8.5817593909163
10.92294288691
14.017314774645
18.193245144789
23.990313590481
32.340068372913
45.137284798504
66.685344317061
109.63105390923
231.71070578218
0
0
0
0
0
0
0.00012383796313364
0.003683188333051
0.016041516208215
0.041526231483775
0.083942520030867
0.14689349531754
0.23405285852665
0.34946676551212
0.49790591072897
0.685275645587
0.91908028144839
1.2085460290367
1.5644581831066
2.0095437725128
2.5662204347564
3.2652559774517
4.1475537839942
5.2673327397065
6.6972716852271
8.5361450710275
10.920876405027
14.046277460053
18.199344952801
23.822604406879
31.649302123023
42.891146904133
60.115633702866
89.156725905164
148.05404868338
346.98443324569
231.64845713814
388.19269202215
601.84919272083
854.98057970392
1131.0755094385
1449.9680127736
1815.6189618544
2230.8207675104
2692.2773751206
3189.4307712363
3735.4187507274
4205.7800420327
4638.4376766343
5010.1617570821
5283.2421307979
5472.800241721
5581.1800925019
5620.4616700678
5605.8230367937
5546.1839598102
5452.4612219646
5337.7324167501
5208.9304400667
5070.8630054787
4929.2704104482
4785.4368115407
4640.5485342789
4505.4209929578
4366.6147135978
4236.5313630627
4111.1501900952
3988.0662925185
3874.2302830872
3760.7204449726
3656.9377690949
3553.457755538
3458.7265730403
3364.6645742318
3278.1413598218
3192.6832923097
3113.4815800206
3035.7930534069
2962.896683944
2892.3692190635
2825.0183087621
2761.0011270083
2698.914960672
2640.2720646238
2583.0983647314
2528.8334480646
2476.4793878718
2426.2399263584
2377.9157495146
2331.398471801
2286.6096411903
2243.4605491174
2201.8698457139
2161.7571227934
2123.0457241388
2085.6644298167
2049.5494970641
2014.6414280192
1980.8834915009
1948.221309038
1916.602865219
1885.9804340113
1856.3092670741
1827.5465393941
1799.6491655082
1772.1228431148
1886.772380711
1379.4372508725
1203.1883132254
1081.4588612381
959.93899230019
835.58967852104
708.92083283563
582.70593609062
466.09094455294
384.30859692736
347.25941669228
334.26073422327
331.18270863545
331.9163615118
334.06303538368
335.89392489483
337.46811333228
338.70887233165
339.51251479671
340.08972868074
340.32478018362
340.25258400622
339.95954094256
339.45797983002
338.76942650424
337.92231660703
336.94042981544
335.84621584236
334.66017941639
333.39893623762
332.07822823286
330.71497864861
329.32130719075
327.90758354096
326.11585674376
324.69830466428
323.30906881115
321.94825176121
320.61810558824
319.35391011259
318.16217490875
317.03825952857
315.98171177756
314.99531192516
314.08237463308
313.24737332466
312.49427491551
311.82140975814
311.2273326694
310.70682743703
310.24457481212
309.8052620779
309.36056506602
308.89886962984
308.4357713423
308.02574895101
307.7568295756
307.57999043794
307.49528106932
307.48819597217
307.66904225942
307.95661359525
308.52157442044
308.96243600486
309.45463163335
309.82186022942
309.97119449186
313.58335545773
381.47945575758
11279.091851319
291.64638637751
497.71483677869
755.09250560079
1034.4572952875
1352.9434404283
1704.3161878888
2099.7759362056
2534.5857833662
3000.7784399058
3487.06039553
3973.8874410165
4444.8322853765
4821.9729695536
5133.8187895619
5370.8099874456
5524.1247843094
5605.37617818
5624.0441922267
5591.220024502
5519.2730548821
5419.0245974545
5298.8549538921
5166.2204700436
5026.7502777546
4884.1262793517
4741.1269642069
4599.8824417419
4461.5462968832
4327.5273782054
4197.8306162686
4073.3726187502
3953.6448592363
3839.2456303818
3729.7765257565
3625.2732839966
3525.4790061287
3430.2378294041
3339.3179019105
3252.5443965465
3169.654479189
3090.5110595714
3014.7924289178
2942.4706354907
2873.1739729475
2806.9309398835
2743.3740311789
2682.5513661341
2624.1391301709
2568.1472516619
2514.3466296467
2462.6804324059
2413.0082385119
2365.2295041833
2319.2395250371
2274.9403791073
2232.2548895973
2191.0979559169
2151.3939643
2113.0690488675
2076.0552527261
2040.2885489013
2005.7099046348
1972.2640206807
1939.8987185191
1908.564705746
1878.2116765885
1848.7945357364
1820.2706901256
1792.5990886669
1764.2400065242
1780.2233242923
1316.6545549435
1172.1257790666
1051.6467913997
929.85134962886
805.1342375284
678.50479556863
553.52472847109
442.68548682659
372.60332077785
343.23998338863
333.40530730068
331.57764674735
332.71830649893
334.32565097898
336.15981679557
337.73164569915
338.978057812
339.79541805026
340.36242042606
340.601458725
340.53528868636
340.24166834883
339.73968518295
339.05191897021
338.20657013345
337.22732116932
336.13662659291
334.95488216296
333.69823910255
332.38253118062
331.02465326607
329.63691383646
328.23012940044
326.44837731561
325.0403465685
323.65806225451
322.30954830288
320.99035384772
319.73324232487
318.54615683015
317.42618069234
316.37345873972
315.39074525258
314.48133598503
313.64957121356
312.89891859346
312.22807475693
311.63628956303
311.11854270597
310.66002028925
310.22503733023
309.78481601567
309.32308903709
308.86561730802
308.45885218743
308.18641594278
307.99532410743
307.89471866431
307.87018733719
308.03647797048
308.31055984375
308.85566595561
309.26282043208
309.74180382801
310.0793643107
310.20835166117
313.77065519278
381.40458933787
11308.362845028
343.99334493416
629.27820092986
935.21282426564
1271.8217450965
1649.4743855704
2047.5303494881
2463.7120610364
2897.9116367244
3341.9434963883
3805.7432148543
4207.9075401274
4593.3945009627
4928.8487915607
5199.6216781319
5404.1604381388
5539.1193393714
5607.8549225127
5617.6789845512
5580.1529456585
5507.1020516229
5406.7120167073
5286.6174083139
5154.7100529428
5016.0708120971
4873.9521928092
4731.6190191365
4591.2856975829
4453.735745297
4320.2028850775
4191.3354204811
4067.2248742685
3948.2553575144
3834.1682737214
3725.231573909
3621.0060902414
3521.6201277805
3426.6157685439
3336.0272743674
3249.4473301549
3166.8443110682
3087.8347278226
3012.3818274782
2940.158430354
2871.0931044239
2804.9336616498
2741.5762923947
2680.839050515
2622.583528946
2566.6890130757
2513.001333255
2461.4288883407
2411.830565059
2364.1310940781
2318.2113183957
2273.9846167177
2231.3609721511
2190.2600560951
2150.6073386814
2112.3304810378
2075.3616298743
2039.6364371111
2005.0961544463
1971.6860025995
1939.354003525
1908.0500267838
1877.7256121272
1848.3350450344
1819.8349938815
1792.1866849234
1763.9365097744
1774.8731611501
1314.9244378306
1171.5335128336
1051.6103895568
930.37696795941
806.22566611442
680.11556788283
555.53794847004
444.71201813994
374.03750535036
344.14681529698
334.03797199184
332.09170650387
333.21167877422
334.78029504239
336.65740512643
338.27082483807
339.55767260191
340.43257013127
341.02617966937
341.288899118
341.24999459988
340.96751395718
340.47709766358
339.79880207495
338.96090174051
337.98747515096
336.90134585624
335.72360093859
334.47052883455
333.15748653742
331.80166202889
330.4161872152
329.01280043182
327.23613113043
325.83205619804
324.44956237324
323.09622468701
321.77056533734
320.51100248833
319.31319802863
318.18125310666
317.11570262727
316.11874679902
315.19349617677
314.34436613366
313.57447477977
312.88404718556
312.27326872375
311.73701869278
311.26106301777
310.81187888182
310.35045315599
309.87042954977
309.40386794802
308.97618404116
308.67076816721
308.43447730204
308.30316804364
308.25745304912
308.37883518378
308.63190446339
309.099998963
309.47054967527
309.91318877579
310.19873696716
310.33501860872
313.77972115252
380.77913580743
11324.704269249
465.70250972825
923.08869183226
1349.7701990982
1809.8255880914
2238.1628791698
2667.173330649
3069.7303293106
3459.0041331899
3834.9855441958
4225.5202239863
4500.4999687988
4797.3704890974
5067.0170937624
5287.6269600192
5458.1196277609
5565.5763708536
5615.1457129071
5614.9831879238
5571.5342648371
5493.400244008
5391.0835067486
5272.3050279499
5140.7364409284
5002.4373486228
4861.5601102303
4720.3491885236
4580.5509615061
4443.9907773289
4311.3392501031
4183.1654662933
4059.7599931297
3941.4238952657
3827.9939853949
3719.486056238
3615.7999797313
3516.7473237388
3422.1780458277
3331.8783258371
3245.6497717315
3163.27725851
3084.5627745102
3009.3170686748
2937.3219654059
2868.4451624394
2802.4704741603
2739.2870623775
2678.6908434062
2620.592259519
2564.8165027738
2511.2640519547
2459.7959796695
2410.3063718322
2362.695072467
2316.8620830037
2272.7196149384
2230.1723428393
2189.1435643393
2149.556229743
2111.33969692
2074.4262825249
2038.7531615094
2004.2619924848
1970.8978061519
1938.6081029875
1907.3429543148
1877.0553532117
1847.6995434469
1819.2307903268
1791.6136591071
1763.6334083319
1767.0196257647
1312.599140155
1170.7046151134
1051.5720181312
931.14460778018
807.80797376362
682.44799873276
558.45462409166
447.66489996872
376.13933631586
345.4736323227
334.95883817456
332.83338232713
333.91848198648
335.46120872419
337.4045219751
339.07961984817
340.41334303697
341.34500129363
341.96946185402
342.26204178964
342.25073177998
341.98777879336
341.51064544033
340.84153685275
340.01023693502
339.04157034028
337.95888584882
336.78374844856
335.53301649481
334.22209552892
332.86805306226
331.48499336698
330.08529143503
328.31461199325
326.91551597991
325.53837696286
324.19137198615
322.87158982848
321.61402023862
320.41494859572
319.27929901719
318.20790774717
317.20281826898
316.26717031037
315.40534387514
314.62033293383
313.91444688493
313.2877312749
312.73530270389
312.24326861043
311.77821573581
311.29972493304
310.80263826034
310.31839047305
309.86015538305
309.51465919149
309.22760099612
309.04216831706
308.94363497302
309.01030426212
309.20923476787
309.60980318413
309.91815652129
310.30548733786
310.52483039895
310.58252434097
313.87641755936
380.37659621213
11450.726863386
886.07933416846
1720.2545380478
2405.8739187327
2958.4527731848
3330.0977336309
3655.9000595864
3922.9128140448
4154.7138399601
4378.7604368651
4591.4857988085
4810.0525836096
5028.4015478063
5226.1232838963
5390.9164839632
5514.5833594679
5594.4040974102
5625.6278556267
5611.4396755876
5560.2244719739
5479.3143935534
5375.1014351181
5254.1397379832
5124.0697482193
4987.1272695058
4847.0675097575
4706.7189127765
4568.3639729671
4432.7659359384
4301.0385484557
4173.7275272485
4051.195152774
3933.4999118994
3820.7800307311
3712.8512274296
3609.692462351
3511.0947237051
3416.9804962959
3327.0443185163
3241.1748827329
3159.1127794823
3080.7065173407
3005.7071469122
2933.9796337014
2865.313939878
2799.5655058878
2736.5611922536
2676.1574557845
2618.219182167
2562.5995700202
2509.1866375232
2457.8462854664
2408.4821876136
2360.9775083371
2315.2451128084
2271.1930763896
2228.7360013443
2187.791375714
2148.2808918719
2110.1346491992
2073.2863577134
2037.6746612449
2003.2412315655
1969.9305851646
1937.6903739166
1906.4716784188
1876.2278300973
1846.9129069711
1818.4824364225
1790.8998244429
1763.3413518317
1756.3374375746
1309.6663092505
1169.6627224734
1051.5405848016
932.15872192152
809.87783137979
685.49801890117
562.27969389942
451.5641355482
378.93616052248
347.23435401092
336.17141152388
333.79793912331
334.8240740381
336.34590365793
338.36653334652
340.11840617359
341.5169875981
342.5174358877
343.18642581746
343.51583864491
343.5349898793
343.29285180665
342.82824730187
342.16566996102
341.33673890029
340.36788832525
339.2834406898
338.10557443425
336.85170055915
335.5374790322
334.180784062
332.79578326648
331.39545713651
329.6275473955
328.23000812716
326.85515573319
325.50884166083
324.19257398459
322.93526920028
321.7336981528
320.59284187435
319.51377124411
318.49857681957
317.5504360092
316.67403387537
315.87218843449
315.14893565691
314.5035850089
313.93141739638
313.41848125258
312.93161575
312.43030905935
311.90654897654
311.38780287081
310.883373673
310.47966997738
310.12412731674
309.86004889242
309.68800150053
309.6820798579
309.81381026068
310.14315528318
310.37121760222
310.69366085217
310.82362919869
310.78059284118
313.9493290813
379.84745798276
11636.159769956
4224.1988764531
5008.4082512284
5052.99668914
4921.0582671944
4826.3938120939
4791.8012506701
4804.2912199196
4826.8615408181
4900.713040976
5006.2586339325
5131.9287084762
5260.3444869344
5386.0930055892
5495.734132747
5576.4136920829
5622.9191279141
5632.5094479508
5605.8598831832
5546.882993819
5461.3448032791
5355.528606316
5235.1198826347
5104.2291500294
4968.6554539107
4830.0979363021
4691.2808833765
4553.8207892179
4419.6963819737
4289.2382805316
4162.955584187
4041.2989774634
3924.5423426292
3812.5427762633
3705.2890005444
3602.7475940622
3504.7300138385
3411.0566248575
3321.5776811687
3236.1052689228
3154.4106949921
3076.3137283884
3001.6264261419
2930.175625003
2861.7633805468
2796.2492481881
2733.4604626294
2673.2666603965
2615.5067188677
2560.0622005262
2506.8031667084
2455.6140922843
2406.3832019204
2359.0032056308
2313.3849755539
2269.4370780105
2227.0797151636
2186.2267940683
2146.8025710548
2108.7366536922
2071.9638902408
2036.4222212085
2002.0530460476
1968.8022183083
1936.6187249477
1905.4537999854
1875.2593778025
1845.9904573624
1817.6040493536
1790.057815022
1763.1408761115
1742.6570844146
1306.1219880757
1168.4138285274
1051.519174709
933.41711964605
812.4313567659
689.26158391123
567.0136390779
456.43289148123
382.46553298694
349.45084284964
337.68420668049
334.98336504101
335.91841930116
337.42013715392
339.52622611867
341.36506155153
342.83815083765
343.91207901855
344.63173935938
344.99984146768
345.04831006058
344.82512494443
344.36978059614
343.70965000794
342.87812631174
341.90394737735
340.81202327659
339.62513915286
338.36135041981
337.03706121152
335.67033915369
334.27604356507
332.86713490307
331.09728294695
329.69275900852
328.31455363383
326.96562725413
325.6507248433
324.39246005947
323.18802873621
322.04254729687
320.95719622251
319.93394698457
318.9757255092
318.0867611363
317.27114982346
316.53285330515
315.87077030676
315.27961772933
314.74550105924
314.23561993804
313.70963022064
313.15340955537
312.58897696199
312.02393155327
311.54648520201
311.10733022846
310.75008878889
310.48976429156
310.39958645564
310.45230160929
310.69752790913
310.83395503131
311.07516251469
311.0879726029
310.93366719359
313.90292027228
378.99724621012
11865.489053606
17943.230095995
10800.097295352
8407.4556480779
7119.3031497122
6338.8477755911
5873.694985245
5624.3034410895
5485.1917153556
5417.7760751051
5404.6218458009
5425.2053753609
5468.3535406039
5524.4853504446
5581.0284060008
5625.2042302711
5647.2439065978
5642.9518545391
5609.5960609175
5548.8174801431
5464.3286220092
5360.7983990264
5242.9877923666
5115.3964661625
4980.9838570229
4844.3586704048
4707.4337490676
4571.2636978111
4437.4578533633
4307.3657388067
4181.4880063168
4059.8273722269
3942.7289441841
3830.4642225755
3722.928168888
3619.9326550773
3521.4190158578
3427.2960732683
3337.3185681815
3251.3120787395
3169.112066736
3090.5331995264
3015.3594411371
2943.4229641959
2874.5589187279
2808.6106743967
2745.4011988061
2684.7956077034
2626.6462475623
2570.8331263281
2517.2171303975
2465.6842968531
2416.1219372343
2368.4308534082
2322.5142022475
2278.2764211476
2235.6372312118
2194.5166875532
2154.8407025887
2116.533458404
2079.5274798621
2043.7611674816
2009.1771464604
1975.7208140982
1943.3388943567
1911.9812813157
1881.601159654
1852.1548009979
1823.608130899
1795.9107877347
1767.4485522172
1864.938019724
1355.7440709174
1196.5975863327
1080.3287992704
964.31023932679
845.59202606838
724.26878578753
602.53935429204
487.70381921145
401.30174290523
358.01954326345
341.45838604948
336.65127322159
336.80362454368
338.66563956241
340.85989775718
342.79402590663
344.35186853953
345.5036955598
346.27941925704
346.6872824367
346.76282107129
346.55509144295
346.10391310641
345.4398338029
344.59832770489
343.61062792952
342.50251869451
341.29760534061
340.0147340331
338.67100890837
337.28539841078
335.8732030761
334.44570065207
333.51374475787
332.09163387628
330.69800004451
329.33530587998
328.01424961927
326.74841769073
325.53603801029
324.38087400681
323.28385863219
322.24615445734
321.27014378332
320.36042161042
319.5211647637
318.75475669963
318.05880754931
317.4278521107
316.84766799632
316.28647127992
315.70643540459
315.08063244961
314.42381693118
313.74617446282
313.14173995069
312.57550788871
312.08483127803
311.69353141988
311.46368054665
311.3800835281
311.48448432193
311.46432732108
311.55331684432
311.36942029574
310.97877119523
313.62043521717
377.18362751791
12277.589122072
11148.189060682
12575.807441096
10533.948234268
9125.7698862915
8132.7659172294
7416.7084031748
6891.9606938526
6489.8551912322
6250.417447159
6068.8458128508
5934.7075888305
5849.4019558637
5792.81791776
5754.6354563178
5721.7113712494
5683.0934224832
5632.6725221792
5567.1447537602
5484.690152348
5386.6318520465
5275.8765514808
5155.2401722524
5027.7633647022
4896.3209546521
4762.9706319817
4629.2640297727
4497.3354303442
4368.4628259068
4242.6571411834
4120.6399457714
4002.7659754659
3889.5270849092
3780.6191646405
3676.1403930431
3576.0272537715
3480.283331656
3388.6140371982
3300.9052127757
3216.9926236734
3136.7479359138
3059.9579407245
2986.4418529867
2916.0391051227
2848.6102641817
2783.9887240903
2722.0167371146
2662.5582103631
2605.4872348005
2550.6755308519
2497.9946254355
2447.3343690982
2398.5903477984
2351.668310229
2306.4733746121
2262.9163203609
2220.9148999246
2180.3932944725
2141.2809084304
2103.5078382828
2067.0080986374
2031.7206834566
1997.5891591177
1964.5605100227
1932.5839621581
1901.6110671708
1871.5950458193
1842.4886899832
1814.2555269859
1786.8752087476
1763.4572283641
1683.737403329
1291.8979315545
1163.3984992593
1051.496452186
938.57248357106
822.86443705772
704.70390173672
586.60952530694
477.09354595948
397.99179774424
359.20693901259
344.21032947048
339.91852519704
340.27520518582
341.63045900082
343.98368390337
346.12056553385
347.86691128405
349.18134362105
350.07651586814
350.55949412801
350.67718928357
350.48458968073
350.02115880016
349.32563846644
348.43855714969
347.39672060301
346.22838896333
344.95910349517
343.60978278171
342.19897716151
340.74692562958
339.27021863479
337.78298275332
336.79696190734
335.3190631597
333.87585819285
332.46837780827
331.11426383845
329.81796582126
328.57857637468
327.39558917781
326.26876865225
325.19817128351
324.18663630232
323.23726554272
322.35054557457
321.52684590408
320.76083329655
320.04787763107
319.37320792781
318.71057372347
318.02785004875
317.28888836779
316.50095032946
315.68093728539
314.90232712967
314.14045140216
313.43023917334
312.80653738981
312.32266227144
311.984766179
311.84187317972
311.55273575726
311.38725625361
310.85121871852
310.038232803
312.06222560689
372.58018505389
12958.393460029
8606.4867618432
10990.842741813
10276.434052028
9350.8497729125
8579.42411275
7965.8110990858
7466.8009634821
7061.6265524336
6717.1745930415
6445.5346685575
6247.8110407672
6083.3017460838
5953.3392293883
5849.4001802117
5763.7543058793
5684.5872412615
5604.3115857756
5518.4097844731
5423.8015035104
5319.7062667881
5206.7363218711
5086.8711307105
4962.0395180145
4834.230744117
4705.2302370672
4576.4008924928
4449.0616922363
4324.0628957022
4202.0408211076
4083.7941287263
3969.3972935792
3859.0229233337
3752.8039803132
3650.7066205119
3552.8936917458
3459.0950576861
3369.2052260992
3283.0739376908
3200.6256122344
3121.6788604462
3046.0373098132
2973.5651598342
2904.1155219406
2837.5583406639
2773.7074217672
2712.4455002185
2653.6309665481
2597.1526321219
2542.8775626374
2490.6863098884
2440.4748826262
2392.1451664297
2345.606391965
2300.7611844528
2257.528054313
2215.8269548588
2175.5840316706
2136.7301670605
2099.1948521697
2062.9169258132
2027.8373476206
1993.9002224221
1961.0535214423
1929.2454060921
1898.4270220632
1868.5545437282
1839.5890202148
1811.5051720785
1784.2409110991
1766.9991918932
1628.3279265305
1280.3516368694
1159.1496096001
1051.4653654141
942.98574959995
831.87850124452
718.18457717373
603.96121411273
496.06688099147
413.17553584495
368.90400249705
350.57306891369
344.54346255033
344.12521013674
345.20504362734
347.65216623034
349.99076708511
351.93604695578
353.41886444914
354.43870316192
354.9862578598
355.13136622341
354.92785461906
354.42052537246
353.65822153608
352.68736033854
351.55030352673
350.28060908143
348.90622862423
347.4505288835
345.93407542924
344.3789071293
342.80251061892
341.2187264629
340.10839586056
338.54081527882
337.01763550825
335.53622609411
334.11983678327
332.7649923357
331.47246535969
330.2351465752
329.04949729541
327.91729214537
326.83731124367
325.80797243572
324.82613288789
323.89150803348
322.99947439829
322.15178180875
321.34425483807
320.56040700942
319.76590260552
318.90737439727
317.95264145559
316.92375999972
315.87489608337
314.82220893888
313.80817358877
312.86399611767
312.03227199154
311.34132397263
310.85911284374
310.22783548704
309.69518604719
308.72398789601
307.28326723344
308.53563150842
364.40121615332
13770.46246178
7492.6490885476
9242.2391536955
9364.8775191579
8881.2508898703
8349.2349101462
7883.8686603544
7479.3809453924
7126.2225192246
6819.460279994
6552.804710544
6333.3460854823
6154.4942569026
5998.0128176954
5868.2254786005
5750.7991925525
5647.6251606568
5548.3099241794
5448.3780831759
5345.8288025082
5238.3454159442
5125.4017657538
5007.5372306564
4886.2245136082
4762.8115291169
4638.6126330023
4514.8672901956
4392.4530771243
4272.2180283992
4154.8012601004
4040.6114941435
3929.9314871687
3823.0052290681
3719.9924213808
3620.865821069
3525.5724245317
3434.0249465642
3346.1706583337
3262.0010549782
3181.2559645297
3103.8214081279
3029.5623125085
2958.3417452165
2890.05823258
2824.5113880619
2761.597264661
2701.1745286146
2643.1434115338
2587.37131391
2533.7331569076
2482.1295655387
2432.4543376731
2384.6245142362
2338.5385811289
2294.1111361609
2251.2619256597
2209.9153864483
2170.0041480706
2131.4547007436
2094.2016095685
2058.1845570846
2023.3460594088
1989.6347746153
1956.9986751685
1925.3857595065
1894.7513160211
1865.0535297162
1836.2604848887
1808.3252521107
1781.1772600097
1780.8333609647
1562.8543801818
1268.2106490803
1154.375999989
1051.3555678084
947.92840715681
842.15932612826
733.76950509415
624.32520575697
519.08667211985
432.95929045817
382.01336321831
359.11549521646
350.59761095641
348.93636382163
349.46930491311
351.87979727065
354.3738370933
356.51729282904
358.16693273994
359.30981706195
359.91863772304
360.07367152849
359.82865960413
359.24232507366
358.37308393776
357.27514076874
355.9972194904
354.58130471647
353.05947545602
351.45755523511
349.79750124891
348.1044807591
346.39661746254
344.68820100861
343.4166862888
341.7331985757
340.10296484414
338.51684489678
337.00611610776
335.55833059958
334.17735762071
332.84692404961
331.55823405576
330.31030827662
329.09865245129
327.91810961597
326.76870762736
325.667039827
324.62001256789
323.61772236398
322.63591663309
321.64350478937
320.61481517102
319.50712584799
318.27081180339
316.90933104483
315.48102120978
314.01754268533
312.58096611071
311.18529691289
309.87943197205
308.70513734119
307.73913718233
306.60856216557
305.52314738104
303.94789923631
301.64358268886
301.91841425251
351.10461873565
14501.112846945
7029.3829779541
7913.9552037692
8360.7476041949
8234.4989931399
7904.1796889953
7568.8821738834
7256.6009857115
6975.1676922054
6713.5699847655
6485.4148611246
6271.7519961386
6081.2058285306
5935.5439729782
5808.7102047149
5683.4600522185
5569.353695561
5460.8173894549
5356.2555246923
5250.6368379947
5142.7175147729
5031.7817427345
4917.7189651485
4801.1857392461
4683.1121617056
4564.477215615
4446.2509797116
4329.236789538
4214.1296891344
4101.5283419249
3991.8494738742
3885.3768610182
3782.2879184519
3682.6983197315
3586.6818454845
3494.2723977836
3405.3858222711
3319.923828396
3237.838564445
3158.9833263513
3083.272613323
3010.6302756154
2940.8608155886
2873.8456457595
2809.4766583734
2747.619736059
2688.1975830441
2631.0543728636
2576.0878931758
2523.1956814683
2472.2682298014
2423.2299990006
2375.9731366117
2330.4159871429
2286.4739609717
2244.0727433455
2203.1457820987
2163.6153761217
2125.4181828984
2088.4922747814
2052.777735451
2018.222845614
1984.7735185079
1952.3780704463
1920.9923103596
1890.5717054799
1861.0819482662
1832.4753492558
1804.7016040718
1777.6362211742
1813.9504155505
1494.2370537056
1255.417156462
1149.0486085428
1051.0337731693
953.09160859896
853.24159765738
750.88410752825
647.07908255768
545.69406124049
457.75738786189
399.53051934766
370.61395240381
358.61422786351
355.07333576457
354.65105666965
356.79896625966
359.33170824936
361.6362356735
363.44480620584
364.70013435778
365.3686929828
365.50838702372
365.19075356309
364.48638309231
363.46469997755
362.18957733376
360.72132794432
359.11030215972
357.3939456795
355.60387954059
353.76314782837
351.89773678477
350.02870134942
348.17145512866
346.70562157684
344.87988831697
343.12129055712
341.40073857337
339.76210848356
338.18239075241
336.66640017513
335.18556050337
333.72353273123
332.27921353897
330.85172607403
329.4693615663
328.12403834506
326.80519828675
325.48165486137
324.145896843
322.79194454029
321.39483336854
319.95625445609
318.42923629761
316.75689280809
314.906052101
312.92714555216
310.85819076757
308.78824134559
306.68558025175
304.65781308033
302.73959231129
301.00423060191
299.08084190539
297.14237842128
294.71098354798
291.67432311727
290.23520966054
331.6371423651
14644.105090429
6948.8075197929
6947.6069235487
7448.9189715051
7561.025394508
7402.5531959949
7172.3875468807
6939.1679711252
6718.8312883628
6509.7447063855
6311.526584283
6126.8743052761
5970.2268620976
5824.6064320809
5693.6883335521
5570.0305665773
5459.2583177381
5350.8198463276
5245.0262882793
5140.2269344668
5035.3169424104
4928.3032893365
4819.2855937928
4708.533627657
4596.4568947978
4483.8643226092
4371.6234787563
4260.4442921927
4150.8718237018
4043.4061799415
3938.4769259911
3836.3982216495
3737.3804993317
3641.5289413915
3548.9018828032
3459.5392054051
3373.4283978249
3290.5267427275
3210.7769112338
3134.0707263237
3060.3116347143
2989.3902764632
2921.1724831237
2855.5889846237
2792.5520056524
2731.9051378905
2673.5558859671
2617.4012183039
2563.3339938071
2511.2787624785
2461.1293829813
2412.788351399
2366.1827953899
2321.2202047709
2277.8337682788
2235.9484970932
2195.4874216751
2156.3922999241
2118.5957684357
2082.0416231333
2046.6769472355
2012.443111509
1979.2914097888
1947.1747831731
1916.0467075227
1885.8712231426
1856.6005016227
1828.1899535659
1800.6051350561
1773.6212454001
1866.6397098321
1433.2367659222
1242.7176080026
1143.1731449822
1050.2851706114
958.09106068838
864.55858065221
768.79168318239
671.37583091534
575.03792758025
487.36501943598
422.46649658576
386.12453267688
369.36799958587
363.10225925057
361.1465727422
362.66680625766
365.0315145158
367.39698230872
369.32280508482
370.66129240045
371.36606902467
371.47073500307
371.04545074898
370.17918971236
368.95508433568
367.45310975227
365.73910069186
363.87524401351
361.91004274313