/*--------------------------------*- C++ -*----------------------------------*\
| =========                 |                                                 |
| \\      /  F ield         | OpenFOAM: The Open Source CFD Toolbox           |
|  \\    /   O peration     | Version:  2312                                  |
|   \\  /    A nd           | Website:  www.openfoam.com                      |
|    \\/     M anipulation  |                                                 |
\*---------------------------------------------------------------------------*/
FoamFile
{
    version     2.0;
    format      ascii;
    arch        "LSB;label=32;scalar=64";
    class       volScalarField;
    location    "9e-05";
    object      k;
}
// * * * * * * * * * * * * * * * * * * * * * * * * * * * * * * * * * * * * * //

dimensions      [0 2 -2 0 0 0 0];

internalField   nonuniform List<scalar> 
109340
(
6.9144845681912
6.9109700375561
6.9127493559872
6.9157369383015
6.9162367590184
6.9127327541758
6.9046905772985
6.8926486619252
6.8774405155763
6.8587767156412
6.836789755976
6.8116884486803
6.7836819335561
6.7529693008027
6.7197385876441
6.6841713620769
6.6464444341313
6.6067301614876
6.5651977836976
6.5220119214004
6.4773305533533
6.4313024742456
6.384065635073
6.3357452769102
6.2864516294043
6.2362764499318
6.1852876468497
6.1335221373825
6.0809757537305
6.027586608788
5.9732064836076
5.9175464367733
5.8600572971527
5.79962051484
5.7336412657611
5.6555621890669
6.9099567991074
6.9089483747357
6.9104363968582
6.910734934804
6.9077046801199
6.9007005588212
6.8895956288198
6.8740660545615
6.8543696296657
6.8309169390292
6.8039683308982
6.7737568141903
6.7405173686
6.7044839568088
6.6658879802425
6.6249564344105
6.5819130151775
6.5369785864694
6.4903713898142
6.4423047729311
6.3929834812792
6.3425980426086
6.2913213290821
6.2393060159611
6.18668151468
6.13354909695
6.0799771568415
6.0259947367761
5.971579666289
5.9166405502726
5.8609824454241
5.8042398881117
5.7457240283402
5.6840154506699
5.6158269125266
5.5328343764305
6.9045650734598
6.9049133219216
6.9051848467342
6.9024654458845
6.8952997499427
6.8831417944098
6.8657834592922
6.8433431939499
6.8160791831936
6.7843746211772
6.7486161376708
6.709170991482
6.6664042547097
6.6206811517214
6.5723651336903
6.5218162343338
6.4693888754402
6.4154378236871
6.3603191447955
6.3043723530403
6.2479121046894
6.1912083611024
6.1344922913629
6.0779587159953
6.0217480866064
5.9659552898547
5.9106399369881
5.8557969096753
5.8013729172859
5.7472385466342
5.6931479994449
5.6386855516275
5.5830715026102
5.5247009778793
5.4598446396379
5.3785237582634
6.8934727195196
6.8991297132665
6.8977067040194
6.8884972837739
6.8713215894487
6.8462272956431
6.8135198551569
6.773662097829
6.7272793345568
6.6751353109788
6.6180736408546
6.556965887223
6.4926849896666
6.4260838534333
6.3580026990046
6.2892563631765
6.22063847856
6.1530946894809
6.0873375235063
6.0239809752948
5.9634975392405
5.9061609423049
5.8520709550323
5.8012353982672
5.7536024706911
5.7090712384636
5.6673729962298
5.6284198513435
5.5920537090397
5.5580777588677
5.5261757757333
5.4958129695017
5.4659219459224
5.4341002891035
5.3940927081117
5.3266741180272
6.881095156683
6.9082976764723
6.915431161555
6.9022504394418
6.868155095013
6.8146275434775
6.7448791738098
6.6629966348191
6.5734136548018
6.4805374406801
6.388429462572
6.3009600460124
6.2214751588908
6.1529746598388
6.0982092937168
6.059776046518
6.04023001287
6.042872107297
6.0679602932611
6.1129095090829
6.1740688176015
6.2483763185589
6.3334381346348
6.4274263797582
6.5289205800771
6.6367825669834
6.75005109032
6.8678803506726
6.9903155426526
7.116568766556
7.2448376676935
7.3727615945366
7.4970123462919
7.6105029071306
7.6933373674351
7.6722367633657
8.3419620353947
12.37662115131
15.81689367043
18.435826254671
20.242759250517
21.368661834221
21.976897379364
22.216630293097
22.204606504911
22.035894263069
21.765475435096
21.43600222428
21.076474410427
20.706231512331
20.338085856528
19.98101353229
19.640752188682
19.321055300499
19.025537204709
18.757788812529
18.513298768508
18.28916846278
18.083921337662
17.896747398391
17.727085265597
17.574510443325
17.438738557296
17.3196656613
17.217432890559
17.132531454061
17.066045377412
17.020178714634
16.998284025396
17.008190348147
17.058165424641
17.139340378711
5.5518557991127
5.4123824375923
5.2356356771721
5.0218308297008
4.7722195271526
4.4856617537328
4.1665653523328
3.8222301372484
3.4625615788328
3.103403502726
2.7616164796598
2.472017646756
2.226632066033
1.9987506505379
1.7910315422285
1.6027599063143
1.4355430201275
1.2890320728822
1.1613099174018
1.0507182037326
0.95501656726919
0.87155986262107
0.79886504316402
0.73563821970071
0.68015302341556
0.63169103844065
0.58922332222109
0.54966240403028
0.51678251913866
0.48542825942995
0.45803628177896
0.43340088464061
0.41030752516208
0.39047637410982
0.37101464441006
0.35447972266449
0.33800343709528
0.32395754652625
0.31000922530484
0.29791282248957
0.28619409257947
0.27553481206533
0.26568030246565
0.25612459349857
0.24766748545319
0.23913744782015
0.2317510235033
0.22423576892553
0.21765141868777
0.21119631933593
0.20512181790889
0.19938100603058
0.19393849146778
0.1887713197496
0.18385074811589
0.17916164172556
0.17469215631196
0.17043619343723
0.16638507075119
0.16252742721002
0.15884889238567
0.1553348786407
0.15197178195537
0.14874727395269
0.14565011366153
0.14267206375154
0.13980981550408
0.13706235526058
0.13442477961623
0.28679275609057
2870.3091999011
3894.6100661321
2437.3037697706
1595.5665757636
1080.1473935393
740.81176906006
501.22960570745
321.33618425155
189.41116435568
117.26159431186
89.049951167886
75.746154973553
67.930414676612
63.472493695012
61.027985388973
59.984510777672
59.466625729123
59.209521096389
59.048200416829
58.823497786144
58.415097573071
57.759492372781
56.811648463078
55.558036289449
54.005782832227
52.173602000607
50.091536659655
47.799275828904
45.342470952021
42.770347480189
40.134334500047
37.489971147246
34.889352474137
32.375589332923
29.415891452459
27.246711215857
25.261018850069
23.498414605169
21.966617744159
20.653704885917
19.54751072035
18.629085189347
17.87792018955
17.273002391269
16.795669245425
16.42763485124
16.155598626334
15.964900054192
15.8378623862
15.754074843946
15.693247899585
15.647157625483
15.59781768369
15.54017148734
15.468923866094
15.380644932165
15.275293696562
15.158833096847
15.032562660795
14.891508543608
14.734598681382
14.558882868709
14.366998810837
14.16937707338
13.946829728832
13.718281057061
13.45441454894
13.145753382342
12.334102579908
12.610976580359
5.4178785356004
5.2577191104505
5.0469705046645
4.7919500693838
4.4952904878236
4.1641659172931
3.8072998974809
3.4365785766647
3.0632816343122
2.6984863939774
2.3537000865152
2.0378619097031
1.7664199950691
1.5340118159838
1.3396891096384
1.181745756411
1.0551505241436
0.95406120809964
0.87018073392052
0.79968254041145
0.73956406743241
0.68765165344239
0.64229661648162
0.60219316820496
0.56631108668214
0.53390193456419
0.50447518526871
0.47747868554252
0.45257422718479
0.42981026470599
0.40879753842491
0.38965322464649
0.37190012074286
0.35556428528331
0.3403432983276
0.32624171828595
0.31307028197377
0.3008511918565
0.28943088254298
0.27883550011444
0.26889933652312
0.25966359838654
0.25094894429888
0.24281352532391
0.23510326550843
0.22787410631696
0.2210180621948
0.21457056851196
0.20846680169423
0.20270141821304
0.19722943766297
0.19202371094946
0.18706825864173
0.18233730566358
0.17782123828545
0.17350457002318
0.1693833345713
0.16544967123304
0.16169631460709
0.15811265072598
0.15468739069604
0.15140780931732
0.14826138684963
0.14523662542954
0.14232494791577
0.13952057540286
0.13681991594463
0.13422304215664
0.13172749519266
5.5575468457315
4752.2897491921
3447.1706771708
2179.8051485812
1442.2996582101
982.37484112754
674.08480378822
452.56888217404
284.76040036283
166.57033247317
108.32948586913
85.603752380808
74.044117833662
67.197941930828
63.378238015037
61.449598552873
60.425244394261
59.938644857967
59.713751022219
59.5798258762
59.384561208361
59.006489070834
58.378267578089
57.456410867142
56.226791219824
54.696182678514
52.883448830442
50.818509442595
48.540880374842
46.096090297903
43.533267924732
40.903551007513
38.261746694539
35.660657139011
33.143863632547
30.173383686908
27.986994013952
25.978137532687
24.1859747989
22.620569574184
21.271559397203
20.126247701375
19.166180434943
18.371477468473
17.722107524259
17.200404251997
16.788521442994
16.473622582192
16.241878621581
16.076292913352
15.956867219922
15.863727638202
15.788581370813
15.712572413719
15.630964786511
15.538868286778
15.432874145614
15.312417285605
15.182631835926
15.044031288398
14.892866393435
14.727449085951
14.545779738208
14.350003111885
14.147544094227
13.922143124072
13.689720076703
13.427450570661
13.125644536481
12.30831673698
12.572164598109
5.2585255939184
5.0802365508485
4.8448590523069
4.5637705061282
4.24775561897
3.9090336589665
3.5584044548115
3.2052132181182
2.8584552437331
2.5217844869637
2.2146142832571
1.9322124844523
1.6819544012734
1.4652503989188
1.2806049628754
1.1265756311505
0.99983262680089
0.89584662022628
0.80777506499669
0.73305575575307
0.66979646738468
0.6162376064181
0.57059140533849
0.53149890705504
0.49787153116784
0.46860308247941
0.44281040954246
0.41995218432204
0.39944814826721
0.38092240688376
0.36416633071688
0.34890228979792
0.3349781589211
0.3220360905604
0.31001810291672
0.29868270791758
0.28804008379736
0.27797183076074
0.26854959196557
0.25965695651135
0.2513345969249
0.2434618543415
0.23605402852299
0.22902420421723
0.22236708758054
0.21604518185303
0.21003970204992
0.20435654458683
0.19894762129165
0.19382609406866
0.1889367008078
0.18427932996212
0.17981357039558
0.17553437909017
0.17143050251034
0.1674964914005
0.16372931142136
0.16012331701663
0.15667334803542
0.15337126617301
0.15020799227308
0.147172408898
0.14425321972707
0.14144019172101
0.13872612294166
0.13610617762312
0.13357840652749
0.13114336797852
0.12880013695835
6.3235474378479
4785.8332530939
3435.5834263075
2173.8082404694
1439.8390077712
981.97145331497
674.89475014587
454.11366558945
286.73129518255
168.41716459997
109.64453917955
86.692524017818
75.085420373185
68.214976543071
64.382835683907
62.356704703981
61.371508052196
60.940386609324
60.777876426889
60.70265458172
60.570269883146
60.258497092051
59.691777072788
58.826433797526
57.648650584089
56.164140738014
54.391786359971
52.361272029352
50.111863075517
47.688895059377
45.141554723721
42.520737616541
39.879987843754
37.273516699152
34.746304160215
31.749501490517
29.526872575844
27.472321197065
25.625193086989
23.998720733941
22.583222958022
21.366379262166
20.3310957275
19.458575857869
18.730240211621
18.129722398093
17.640153301133
17.248933234459
16.943745095856
16.708924841434
16.525353483541
16.373345680038
16.244333031547
16.117879904514
15.986950943946
15.849732993173
15.704006006929
15.547359845406
15.383431254883
15.211239737929
15.031441229184
14.841244690568
14.641552184749
14.428581023098
14.208897871692
13.967914565616
13.718265866368
13.44921701567
13.148947296379
12.317273828174
12.552314056823
5.1762045320727
4.9149649231861
4.5737093850363
4.2053355783013
3.8552430019065
3.5181818506217
3.1965350969518
2.889015958235
2.5954241653276
2.311298554692
2.0597171438248
1.8196000850637
1.6001752127493
1.4058932023487
1.2360006713166
1.091183580388
0.97007004108716
0.86868228553348
0.78176000776634
0.70739622244876
0.64349265906431
0.58840579740324
0.54126197920313
0.50073082772092
0.46569425071289
0.43534562769073
0.4089829645569
0.38586133739955
0.36546152489493
0.34735257978486
0.33122727685538
0.31676494875951
0.30375072559468
0.29193302795666
0.28111778559204
0.27116140763154
0.26194755713072
0.25339908615901
0.24545235751256
0.23804435503122
0.23113453749184
0.22464252356697
0.21852346332908
0.21269724399539
0.20714782663291
0.2018219239617
0.19674774678254
0.19189574075358
0.18727542958953
0.18286256845145
0.17864134649918
0.17459526439962
0.17070072328461
0.16695007147701
0.1633323522171
0.15985072335248
0.15650275382449
0.15328779652056
0.15020261558577
0.14724129005648
0.14439590277162
0.14165722248594
0.13901592017555
0.13646347592847
0.1339933755392
0.13160167329123
0.1292884900282
0.12705509775637
0.12490259030141
7.6627945308971
4819.7143509248
3416.6160538195
2164.6248210615
1436.154904193
981.34992850607
676.05867932813
456.35898661986
289.60402841237
171.1195870519
111.55719243129
88.249158446892
76.55445586928
69.6340506887
65.772084994777
63.661701113553
62.724304578528
62.360993846878
62.277899416753
62.283695591206
62.234833600089
62.011241019114
61.526867430722
60.736006694502
59.624558947522
58.197337865887
56.473150290199
54.481562010339
52.261682706824
49.858961350042
47.322748465605
44.704078344256
42.055144690831
39.431643500555
36.881505923887
33.840783116561
31.566539293881
29.451783863914
27.535765556022
25.832315489888
24.333792530892
23.028552793098
21.901044597253
20.933399636227
20.108085920372
19.409608732777
18.822222139274
18.333596279279
17.933122588402
17.607053504159
17.337911548053
17.106390007813
16.903532184777
16.707406678863
16.509001841949
16.310217725404
16.107803657673
15.897958563168
15.684318231313
15.465917625598
15.244314128838
15.01638655693
14.783983599808
14.542306172527
14.297138790075
14.033432553679
13.762613149291
13.475856749333
13.161947560447
12.307057626754
12.524142936211
7.1075385799095
5.8996012269799
4.8041910005538
4.0490177119683
3.5022417957382
3.0666231249109
2.7532052851059
2.5269396822266
2.3204877589359
2.1093236839307
1.9016783112047
1.7020725228327
1.5170563899226
1.3480241894862
1.1964805142636
1.0633685556112
0.94902118353879
0.85034549139117
0.76505016068611
0.69153789640701
0.62831944426739
0.57391122991051
0.52664027771381
0.48573126137471
0.45018766382704
0.41918263488201
0.39198151704835
0.36812065500404
0.34708336468634
0.32845225423675
0.31189376210156
0.29715421757657
0.28394978432133
0.27208406890754
0.26133483415277
0.25156104411197
0.24260699257116
0.23441289266398
0.2268699916441
0.21992879965636
0.21350315064296
0.20755154591248
0.20199415180549
0.19678580842445
0.19187297038219
0.18722544656693
0.18282631441809
0.17865149523528
0.17469701946393
0.17093299207509
0.16734275726734
0.16389156161106
0.16056775919935
0.15734987364818
0.1542300234367
0.15121113650185
0.14829598893283
0.14548837512902
0.14278625335525
0.14018502805403
0.13767797333962
0.13525782952643
0.13291690114563
0.13064748007388
0.12844344851708
0.12630234405924
0.12422579187908
0.12221577379537
0.12025879046784
9.8496064556041
4856.2131609251
3391.0378144602
2152.2188368451
1431.1947821094
980.47983800753
677.55692065268
459.29186462236
293.36941630519
174.67709643113
114.05544402625
90.240849260064
78.405822247347
71.399608596415
67.477644845808
65.28129644026
64.388499640936
64.094503872944
64.096957076274
64.198540731774
64.236464728344
64.109786920381
63.715699688661
63.004750838442
61.962025775473
60.591592153175
58.912241340955
56.953683235413
54.755180513222
52.362687967661
49.826165385034
47.197081528217
44.526902196257
41.871876375166
39.284876287109
36.18444197345
33.846563411185
31.663429524718
29.673143083542
27.888231584184
26.3032035548
24.906886586051
23.684915117482
22.620058145151
21.695193678156
20.895017148845
20.204275783858
19.611119317206
19.106231408713
18.678003845176
18.311285136341
17.987656553027
17.69843714351
17.420768158249
17.142483253656
16.871261089855
16.598836110757
16.322074691411
16.046523610352
15.77095591299
15.49725224471
15.221464089519
14.946432325768
14.666597545403
14.388472652072
14.095852053283
13.799471357171
13.489735950698
13.154354378136
12.260791720473
12.456988209668
11.413975597703
7.5895576743455
5.8086834213876
4.5775003786141
3.7316403542479
3.1289862996253
2.6789092657894
2.3512389304775
2.0904490631223
1.9034677732965
1.7565071202895
1.6027090697103
1.4448251112501
1.2943364556871
1.1586376104141
1.0380902050761
0.93099629633864
0.83606253059362
0.7529250193635
0.68065701916926
0.61806941719066
0.56393191577462
0.5172218298858
0.47647923174424
0.44096513417933
0.40984303178989
0.3824993124462
0.35827130634903
0.33683206190999
0.31780549787816
0.30084671741829
0.28567173167816
0.27209097829275
0.25988520990161
0.24885002163185
0.23884433136932
0.22974856573418
0.22145476223656
0.21387482246745
0.20694123620837
0.20057430579535
0.19471085208712
0.18928353780471
0.18424551953376
0.17953385851077
0.17511935755927
0.17096911580303
0.16707377842792
0.16340870180542
0.15995055907103
0.15667638287266
0.15355909069834
0.15058189650595
0.14772175132455
0.14496966978742
0.14231717814867
0.13976431394504
0.13731023833802
0.13495296276848
0.13268555326659
0.13050007597896
0.1283882892546
0.1263404680809
0.12434814919779
0.12240705323597
0.12051627681695
0.11867757310204
0.11689344531698
0.1150557523942
13.310017409832
4887.2646245509
3359.7574171788
2136.7555949349
1424.9552709471
979.33875588797
679.36852052093
462.89672249437
298.01497690543
179.09583126188
117.13478081233
92.636614598599
80.594152152008
73.456131634801
69.431393929087
67.140011497189
66.272567839031
66.034400142834
66.123122417329
66.319530357289
66.444769833092
66.410945168779
66.105731303646
65.470647994429
64.490022242406
63.167395223534
61.521614550452
59.582615183318
57.390629555474
54.992681697696
52.439820606258
49.784394893137
47.077766696651
44.375608291212
41.735644691297
38.561446184544
36.150885983437
33.895401648073
31.829391653121
29.963755278045
28.295097192125
26.812267501356
25.501401422078
24.345596353404
23.327623283133
22.431772370139
21.642505712375
20.94817289352
20.339925840704
19.808038692525
19.340039970143
18.91921378696
18.538245422763
18.174557694945
17.813085754564
17.463136441335
17.114114447758
16.761661001982
16.416569740218
16.076695076303
15.745406113984
15.414775462075
15.093091275077
14.769549815157
14.455801545823
14.132218449698
13.807661325998
13.471693866545
13.11152220847
12.174924665111
12.342885137989
6.36506058187
6.8235432075346
5.1365285604037
4.4048668071905
3.769274957382
3.24307731661
2.8313392248329
2.503149006254
2.1806962705178
1.9150086192335
1.7067603152139
1.5408616937464
1.4131057422816
1.2883769177778
1.1617581836366
1.0438410780046
0.93779473216935
0.84407064179931
0.76166819022659
0.68895960498719
0.6252239911424
0.56969002342764
0.5214323687953
0.47963628038294
0.44306198980814
0.4109354599184
0.38271127787688
0.35777849771376
0.33560705360617
0.31582446627819
0.29818519757191
0.28238790679444
0.26816406182433
0.25533672997045
0.24375664920429
0.23325301773913
0.22368916441694
0.21498566205463
0.20705458628179
0.19980597862861
0.19316371164962
0.18707050903517
0.18146136795583
0.17627772884949
0.17146355491146
0.16698544770389
0.16280494573356
0.15890387758831
0.15525501818226
0.15184103761958
0.14863441795743
0.14560846218311
0.1427398408635
0.14000783630037
0.13740138327604
0.13490751086053
0.13252129069083
0.13023898752224
0.12805862809529
0.12597461830016
0.1239786027515
0.1220611849454
0.12021254484417
0.11842373264298
0.11668709428137
0.11499791616645
0.11335536012011
0.11176179933994
0.11021612736034
0.79108884769577
3929.008850814
3748.3684140228
2358.7202417757
1561.5976636453
1071.0820324966
746.11915157428
515.15012955675
340.50486822153
209.27452542648
131.80046524412
99.905753977085
85.561143055968
77.246186472012
72.382775916473
69.167981222783
68.295131442976
68.092357083984
68.257247450828
68.540140183798
68.75163419956
68.795466158571
68.570939404033
68.001071006275
67.069690896803
65.780173175386
64.151805677303
62.215619063136
60.012993395201
57.59241171633
55.006465551036
52.308844794862
49.551293469452
46.788317138702
44.07218453435
41.954395017259
39.4219811515
37.050470993383
34.866443395896
32.879201711603
31.087440663332
29.479944594067
28.042696728933
26.758996452007
25.611023762256
24.582139745649
23.655881613431
22.82019374178
22.065592178079
21.384314427331
20.767819795642
20.203213432888
19.686615900287
19.19750674064
18.717756049127
18.253813997121
17.794118774908
17.332095812258
16.882244913663
16.44467263802
16.025937502107
15.614392717487
15.22873904212
14.848700709288
14.486737468622
14.11819761609
13.748146283628
13.366597661111
12.960904752275
11.949635672747
12.067741989901
4.1649275927067
3.4228561432338
3.1735883954459
2.9354040771085
2.7972582671298
2.6418414000541
2.4626583547133
2.2890886295236
2.1187052356715
1.9439894613535
1.7434921632004
1.5097025801547
1.3338133989669
1.1905509598019
1.0767467297434
0.9805575708181
0.8869482193255
0.80118547400662
0.72447425169254
0.65718207587584
0.59844417096998
0.54698111956751
0.50166609373366
0.46173674886824
0.42660647772459
0.3957180100566
0.36839330006419
0.34410157682102
0.32257292314194
0.3033905125099
0.28621178126298
0.27068993322788
0.25668159281251
0.24398592847222
0.23244149799425
0.22189027440715
0.21226656203485
0.20347313204895
0.19542345218042
0.18802858459277
0.18123134998811
0.17497588690117
0.16920583763847
0.16386577702781
0.15891650975811
0.15432272723874
0.15005282796938
0.14607782659897
0.14237684683251
0.13892858797315
0.13570684160716
0.13268617492989
0.12984227886272
0.12715904867032
0.12462224542399
0.12222250876408
0.11995117273559
0.11780090868768
0.11576545073907
0.11383726340941
0.1120082253056
0.11026884002114
0.10860913546073
0.10701912504388
0.1054904836823
0.10401811340444
0.10259971654194
0.10123572929627
0.099804399710428
39.120401310177
4906.6983380203
3232.1635528343
2073.8599293421
1398.9257625829
974.14898288659
686.40628635548
477.47286139483
317.04400413167
197.62144947551
129.96067169312
102.03037893583
88.808671736774
80.930094742553
76.26703838942
73.526197748412
72.520942378277
72.31468442067
72.568475647325
72.982635511968
73.333759745387
73.495644491271
73.395060050111
72.914571420845
72.03569296405
70.762208486626
69.115348359022
67.129701089788
64.850599843836
62.330874182843
59.627313405806
56.797406471743
53.895432627365
50.974293019845
48.082866721097
45.401872104572
42.688764306991
40.157081986639
37.823304382603
35.692746477917
33.762476053253
32.020676744806
30.451279024113
29.036076527554
27.756260226299
26.59452744837
25.533360485992
24.558998566002
23.658726448361
22.825313871701
22.053703795014
21.336545232343
20.67525128383
20.05299311994
19.450782014602
18.868989543322
18.298134163302
17.734227636992
17.182418105907
16.645600777622
16.13688844645
15.639369565815
15.164179802207
14.697392543848
14.252656174592
13.808726797649
13.367634539479
12.917963003346
12.446059977777
11.345355716311
11.379930470605
3.665333186076
2.0376439471255
2.0935462123471
2.0252426458706
2.0006364322042
1.9840700461926
1.969244100646
1.9247283940543
1.873369065483
1.7948161063261
1.7005497349003
1.5771041197918
1.39734636581
1.2074818331566
1.0659134459254
0.95155673307829
0.85856372489365
0.78317767551953
0.71196858124201
0.64728491385615
0.58980428949916
0.53923221105508
0.49487797122096
0.45593640491803
0.42159642979022
0.39115778225188
0.36405408145493
0.33987703385416
0.31832478284357
0.29902857853542
0.28173672763569
0.26620225802605
0.25217148462571
0.23945686266881
0.22784216566393
0.21723981181491
0.20754567983776
0.19866687200265
0.19049895880197
0.18296958522629
0.1760284163753
0.16961018412695
0.16366424420752
0.15814035855639
0.15301426631356
0.14824421190286
0.14380124722029
0.13965466200747
0.13578639105149
0.13217607415587
0.12879924833525
0.12563191345377
0.12265320271743
0.11984926697438
0.11720616795915
0.11471407392417
0.11236418046756
0.11014829127593
0.10805881330134
0.10608603390772
0.10422100575346
0.10245541601454
0.10078048879563
0.099187770862788
0.097668578567487
0.096216447468611
0.094829231658264
0.09350526818377
0.092210149412844
92.040243432082
4850.1727879688
3119.1508938226
2018.5306923761
1375.523365243
968.90258886111
691.96669273571
489.83906224437
333.59339184544
214.43298051643
141.82457460561
110.10267686163
95.450703870384
86.759518938427
81.38273208374
78.1181051935
76.788610506669
76.455013448883
76.693666785857
77.173699632217
77.614367459776
77.858546090136
77.820625862208
77.373536297542
76.485300933584
75.1600548418
73.422244546896
71.311932292988
68.880579693943
66.187252146399
63.294771475403
60.26614703003
57.159967342422
54.031707331848
50.929799086419
47.615800181865
44.699170151331
41.993247799117
39.504719880434
37.235564967274
35.178295026519
33.319606729163
31.64067235325
30.123304623864
28.748516003654
27.498264256554
26.353366023987
25.297943304186
24.314984002383
23.3955879258
22.534508336601
21.727385319615
20.978047668777
20.271244280842
19.59185941036
18.937928214007
18.303275838175
17.667826473463
17.026778688453
16.381876303782
15.756848081364
15.143690289816
14.559976593461
13.999268107704
13.463922897089
12.952360593829
12.440638975785
11.925722817302
11.394103628599
10.294290994292
10.165661957082
3.4080521959853
1.5546543995279
1.4762280577444
1.4836555621524
1.4907659559677
1.5116578358137
1.5331599001721
1.5514031075022
1.5533365428198
1.5537251486511
1.5261428425987
1.4710308610933
1.3971810515058
1.2747249943364
1.105603909062
0.96434951579541
0.85652090000507
0.76948761732222
0.69756252790852
0.63837743582813
0.58384653360902
0.53478599064515
0.49103137891406
0.45225021816791
0.41804233736529
0.38785813209485
0.36110627247944
0.33724360464894
0.31586383801009
0.2966549081072
0.27936201102388
0.26375189320596
0.24960474408165
0.23675676178679
0.22507430330888
0.21442433204221
0.20469629864326
0.19575855338791
0.18755310235481
0.17999705466325
0.17301193445217
0.16653672739805
0.16050870601003
0.15490893387347
0.14969327782209
0.14483151427424
0.1402859819611
0.13603506688865
0.13206062407725
0.12833700393671
0.12484408963653
0.12155718006935
0.11846290678149
0.11554614820038
0.11279454813304
0.11019844572108
0.10774823474587
0.10543762274529
0.10325725970882
0.10119745103504
0.099249481950023
0.097404774565246
0.095656210747856
0.093996325219175
0.092417499291438
0.090914427317187
0.089482794934498
0.08811877833465
0.087203341173903
272.89809352092
4724.7199963591
2984.2261543694
1952.2121396918
1346.7310332276
961.50682314143
697.43862960012
503.55230817318
352.59205074219
234.61781526985
156.85939190714
119.86767164767
103.02794857251
93.245521131729
86.961631814386
82.954374028846
81.09418092619
80.484159033033
80.591033050452
81.06382561665
81.545507466391
81.834184853307
81.816645547062
81.355172995791
80.403917858126
78.965789624627
77.069075358124
74.760618515492
72.100018907573
69.154722993748
65.996045689279
62.695145075122
59.317427441837
55.923988978092
52.564772273692
48.597890296568
45.477119791721
42.602278459594
39.968171288564
37.575316086311
35.412038176471
33.46246324994
31.704621619075
30.117561105535
28.67927437095
27.372109188913
26.175894394906
25.073941332542
24.04397410498
23.071838908742
22.146625482312
21.26500057606
20.425602216705
19.614144398181
18.833082836407
18.0864761341
17.361893883352
16.63749970029
15.907911785139
15.174279943948
14.453477677678
13.73881115485
13.053184408308
12.404616792715
11.774091162266
11.209030278482
10.650658179679
10.104695642027
9.5628227564537
8.5599665744338
8.3247456788379
3.5108197166183
1.3615287227636
1.14485951605
1.1398332373789
1.1593025226309
1.1879217167952
1.2208263645154
1.2545706020112
1.2838582200636
1.3012305271619
1.320157286369
1.3165516929297
1.279760691855
1.2337968560869
1.1460954359793
1.0196216704829
0.88079054300106
0.77839435576471
0.69796582314196
0.6322296927222
0.57700194327148
0.53075865390859
0.48860115533675
0.4506011402817
0.41659803839321
0.3863463280515
0.35947489979958
0.33556143800231
0.31421064383202
0.29509413167188
0.27791057032852
0.26236486672688
0.24822911543254
0.23534659934018
0.22357803415745
0.21281761168949
0.20298218137906
0.19397547305025
0.18571017818295
0.17810458102051
0.17106360114108
0.16454173918036
0.15849115118308
0.15285974786089
0.14761349819365
0.14270425200779
0.13811565302279
0.13382030964193
0.1297901480961
0.12600545346622
0.12243946082746
0.11908140783792
0.11591354652098
0.11292198076375
0.11009500576782
0.10742195281506
0.10489852181373
0.10251422072628
0.10025897229939
0.098123639603545
0.096099233452082
0.094179781864058
0.092358795898831
0.090628097980224
0.088981710750725
0.087413781409401
0.085920463731239
0.084498737237089
0.085676981014586
725.5907593899
4513.0497451599
2830.9624125405
1875.4239168938
1311.9738594698
951.00974297764
701.77738303318
517.59132768598
373.13147797435
257.65783089252
175.52637451579
131.84254775207
111.73339763745
100.50082262523
93.161254507595
88.229671467231
85.631542094453
84.555382488011
84.415241864979
84.785892122941
85.256544567122
85.55122381298
85.52290631218
85.009988666868
83.953287885318
82.352107772019
80.237551412843
77.663229062025
74.699553729397
71.424829380975
67.920203363039
64.266519192723
60.540097559264
56.810478461714
53.140989801393
48.606591195543
45.228088754498
42.118960550625
39.27757496188
36.707838129303
34.394191700922
32.316471603269
30.44780044131
28.76491154573
27.246149623669
25.875133375708
24.629043282344
23.489796176349
22.429848275112
21.42746445837
20.462834101188
19.529413443419
18.608274200645
17.689320926297
16.803133580468
15.958754495395
15.132081085299
14.3182939121
13.504612077908
12.704365984199
11.935895632845
11.177253830196
10.438369936033
9.7736419934064
9.1541921438535
8.6327968369845
8.1477117908312
7.6995172447805
7.2873807622018
6.5139040496788
6.3636555255061
4.1961902963819
1.2291952373424
0.98182148547247
0.91819883220214
0.9335371139561
0.96228944480746
0.99713928404061
1.0321644513381
1.0676749106921
1.0982139520736
1.1302956541324
1.1524040439892
1.1490661358329
1.119228036293
1.0937243065394
1.0297884126833
0.93210234373495
0.80975147241078
0.71300002574801
0.63832523091715
0.57807112320924
0.52813713720858
0.48568244862544
0.4491580963453
0.41602805337943
0.3861271025482
0.35926683639998
0.3352167184419
0.31369022707507
0.29439280904571
0.27707722251902
0.26151753090548
0.24740303385609
0.23452465326001
0.22275926199792