/*--------------------------------*- C++ -*----------------------------------*\
| =========                 |                                                 |
| \\      /  F ield         | OpenFOAM: The Open Source CFD Toolbox           |
|  \\    /   O peration     | Version:  2312                                  |
|   \\  /    A nd           | Website:  www.openfoam.com                      |
|    \\/     M anipulation  |                                                 |
\*---------------------------------------------------------------------------*/
FoamFile
{
    version     2.0;
    format      ascii;
    arch        "LSB;label=32;scalar=64";
    class       volScalarField;
    location    "9e-05";
    object      nut;
}
// * * * * * * * * * * * * * * * * * * * * * * * * * * * * * * * * * * * * * //

dimensions      [0 2 -1 0 0 0 0];

internalField   nonuniform List<scalar> 
109340
(
0.00071909868730423
0.00049319744143545
0.00026616782033437
0.00022244087085739
0.00021548318758562
0.00021989655787846
0.00022810175411638
0.00024237651991066
0.00021125337071141
0.00018790639894715
0.00016942844140092
0.00015435582116953
0.00014179799543809
0.00013116298849999
0.00012203597382996
0.00011411548483354
0.00010717631220242
0.00010104646512843
9.5592163376869e-05
9.0707699619202e-05
8.6308388693359e-05
8.2325538813568e-05
7.8702798902951e-05
7.5393466361221e-05
7.2358478335323e-05
6.9564889206065e-05
6.6984695819077e-05
6.4593917747473e-05
6.2371860476016e-05
6.0300502793013e-05
5.8363956841949e-05
5.654793237861e-05
5.483904705244e-05
5.3223538639687e-05
5.1683740931439e-05
5.0189476415596e-05
0.00071074276301669
0.00034469120012849
0.00025252374752508
0.0002310100199571
0.00022946561669936
0.00023404498023889
0.0002095184732625
0.00018226084359811
0.00016108235796773
0.00014431575194357
0.00013074145916718
0.00011953412239713
0.00011012721400571
0.00010212098419804
9.5225654198815e-05
8.9226091930647e-05
8.3959251718694e-05
7.9299313010862e-05
7.5147625630702e-05
7.1425700608914e-05
6.807020756573e-05
6.5029410871089e-05
6.226061429891e-05
5.9728301169231e-05
5.740272379486e-05
5.5258804204589e-05
5.3275273898588e-05
5.143397774509e-05
4.9719294315224e-05
4.8117658895004e-05
4.6617141502788e-05
4.5207038108024e-05
4.3877435979709e-05
4.2618675497214e-05
4.1420453753415e-05
4.0266334299077e-05
0.00041744253760301
0.00029418725620666
0.0002535806821937
0.0002379980296581
0.00019039918938467
0.0001587364089173
0.00013577691706581
0.00011847418313767
0.00010502679288121
9.4320247597565e-05
8.5619897043539e-05
7.8423745187043e-05
7.2380270510598e-05
6.7237564861928e-05
6.2811100802207e-05
5.8962963878561e-05
5.5588173622318e-05
5.2605466136112e-05
4.9950772763685e-05
4.757245054553e-05
4.5428238433138e-05
4.3483438454488e-05
4.1709639624402e-05
4.0083607028905e-05
3.8586176845811e-05
3.7201486263797e-05
3.5916366340494e-05
3.4719649119109e-05
3.360189085658e-05
3.2554953118202e-05
3.157170135692e-05
3.0645843927066e-05
2.9771599814598e-05
2.8944168780782e-05
2.8161830679095e-05
2.7426332668231e-05
0.00023990075180796
0.00024232758920929
0.00015208573468392
0.00011071867418715
8.7098320228356e-05
7.1845947014817e-05
6.1215789370901e-05
5.3400739257026e-05
4.7425325120049e-05
4.2717069709892e-05
3.8918055953197e-05
3.5792800432194e-05
3.3180054264238e-05
3.0965842818656e-05
2.9067547244114e-05
2.742392758097e-05
2.5988537307416e-05
2.472499353629e-05
2.3600772156034e-05
2.2588001823713e-05
2.1665948787261e-05
2.0819936919595e-05
2.0039370977132e-05
1.9316421674846e-05
1.8645068601281e-05
1.8020462482165e-05
1.7438162852165e-05
1.6894965722897e-05
1.6387998577104e-05
1.5914725149692e-05
1.5472579686307e-05
1.5057828576248e-05
1.4664589619827e-05
1.4287968028374e-05
1.3929554409094e-05
1.360275887699e-05
0.00014447839365619
4.7229954696051e-05
2.8719749127724e-05
2.0827932945526e-05
1.6479191466665e-05
1.3749298273424e-05
1.1892347533974e-05
1.0558035433746e-05
9.5600996431939e-06
8.7912763615458e-06
8.1858742040657e-06
7.7022341138862e-06
7.3127681490938e-06
6.9988956733662e-06
6.7479821370667e-06
6.5511847998348e-06
6.4007044472554e-06
6.2835652961416e-06
6.1782453590116e-06
6.0731780094927e-06
5.9672886657623e-06
5.8640131637398e-06
5.767034673344e-06
5.6788918952887e-06
5.6010028544044e-06
5.5340751065553e-06
5.4782964389069e-06
5.4335480187823e-06
5.4002079630112e-06
5.3780205843061e-06
5.366018596684e-06
5.3634207555027e-06
5.3693917606903e-06
5.3824462239325e-06
5.3981680358907e-06
5.4084222207525e-06
3.6380319137525e-07
5.4300348187978e-07
6.9865441677273e-07
8.2010246303498e-07
9.0691384260971e-07
9.6416322246635e-07
9.9858113687082e-07
1.0164704984713e-06
1.0228480792339e-06
1.02187523927e-06
1.0159612287601e-06
1.0070046239255e-06
9.9631137431102e-07
9.8476331045787e-07
9.7295265199697e-07
9.613013253115e-07
9.5008428730733e-07
9.3948606636147e-07
9.2969582158343e-07
9.2094634733166e-07
9.1303653493793e-07
9.058368428047e-07
8.9928174039947e-07
8.933338657615e-07
8.8796247616979e-07
8.8313618286936e-07
8.7882080304812e-07
8.749782478901e-07
8.7156302173723e-07
8.6851671959703e-07
8.6576067675466e-07
8.6316070008952e-07
8.6050081782556e-07
8.5727682807296e-07
8.5153769153558e-07
8.3370052944074e-07
4.5134874360438e-05
2.4991514987648e-05
1.4108641969342e-05
9.2547763785888e-06
6.714598258487e-06
5.0547808180166e-06
3.8859165405375e-06
3.0222257096352e-06
2.4373458756569e-06
2.1787337085607e-06
2.24273443837e-06
2.7964577370105e-06
3.2838530722929e-06
3.8059777010039e-06
4.2320291147391e-06
4.5685098370243e-06
4.8611154842553e-06
5.1030101870623e-06
5.320200219071e-06
5.544141767645e-06
5.7378488840634e-06
5.9001577111678e-06
5.9208153477486e-06
5.6694579713829e-06
5.4392191679151e-06
5.2300578937834e-06
5.0404068743621e-06
4.8570354065617e-06
4.7000900172496e-06
4.5459393606053e-06
4.407270821886e-06
4.2793369815146e-06
4.1558998706749e-06
4.0475261206733e-06
3.9383904760854e-06
3.8439000887185e-06
3.747536768102e-06
3.6639596397995e-06
3.5790510852631e-06
3.5041501520295e-06
3.4300189567476e-06
3.3614086166328e-06
3.2968421289386e-06
3.233106557987e-06
3.1759153227109e-06
3.1172008757983e-06
3.0657866304355e-06
3.0125250842356e-06
2.9653697514689e-06
2.9183593835665e-06
2.8735113653219e-06
2.8305871356173e-06
2.7893691888737e-06
2.7497887142565e-06
2.7116888367467e-06
2.6749938056586e-06
2.6396389014058e-06
2.6055958749734e-06
2.5728160205053e-06
2.5412364279521e-06
2.5107757644991e-06
2.481354423419e-06
2.4529007111165e-06
2.4253483332713e-06
2.3986340778087e-06
2.372714951164e-06
2.3475861472461e-06
2.3232621875667e-06
2.2997055310804e-06
4.1577077721442e-06
0.00033568099461877
0.00049887426865871
0.00043218780542906
0.00037944279064468
0.00033578962524844
0.00029524188550065
0.00025321264385737
0.00020736116989947
0.00016846783590065
0.00016809236346313
0.00019466273032154
0.00020581101909845
0.00020149402279325
0.00019459488195983
0.00018948123500368
0.00018670007403375
0.00018477743449094
0.00018322880687409
0.00018179177213535
0.00018018800901392
0.00017816593368785
0.00017560522896809
0.00017242648810291
0.00016858165796986
0.00016414131013785
0.00015913230741378
0.00015359529336124
0.00014759726566426
0.0001412191088671
0.00013455141697627
0.00012769368994723
0.00012076465266316
0.00011387798547412
0.00010713434022361
9.9060014782079e-05
9.3036023555454e-05
8.7434182996626e-05
8.2367026554144e-05
7.786941545588e-05
7.3931807702581e-05
7.0537588519121e-05
6.7649227586131e-05
6.5220671712333e-05
6.3202218924879e-05
6.1533090797804e-05
6.0165447883658e-05
5.9101207997473e-05
5.8288958203359e-05
5.7673540777144e-05
5.7192928449108e-05
5.678726165019e-05
5.6432351648105e-05
5.6088878798092e-05
5.5759714124489e-05
5.5429294652372e-05
5.5073373605889e-05
5.4676679702803e-05
5.4280517515246e-05
5.387709952273e-05
5.3455441635046e-05
5.3010224605479e-05
5.2532694836597e-05
5.2025981373577e-05
5.1508977797337e-05
5.0941813824013e-05
5.036080993388e-05
4.9705056971868e-05
4.8947955113042e-05
4.7091246927953e-05
4.7586013929646e-05
3.488292390755e-05
1.9617359711153e-05
1.2174320568102e-05
8.6232070538748e-06
6.4246245182442e-06
4.8667540923374e-06
3.7526271337002e-06
2.9450381617599e-06
2.358863048343e-06
1.9635735242001e-06
1.7326529120512e-06
1.6831703582826e-06
1.7567706560764e-06
1.8919361726623e-06
2.1004178623551e-06
2.3673855525505e-06
2.6856026135406e-06
3.0530496510648e-06
3.4359246447477e-06
3.8268721073011e-06
4.2255162013128e-06
4.6270890510839e-06
5.0243284987405e-06
5.4186985191157e-06
5.2969036817379e-06
5.0912904556003e-06
4.9044959736137e-06
4.7339221960385e-06
4.5766874363374e-06
4.4326063485486e-06
4.2989886140653e-06
4.1761616054664e-06
4.0612849331395e-06
3.9546427760581e-06
3.8544643431845e-06
3.7608698940323e-06
3.6726588877573e-06
3.5899952180046e-06
3.5118481792837e-06
3.4384546540173e-06
3.3687564228966e-06
3.3031766247012e-06
3.2405746341814e-06
3.1814879590236e-06
3.1249000029308e-06
3.0713027064098e-06
3.0199511161279e-06
2.9711418452973e-06
2.9244208439717e-06
2.8797893332791e-06
2.8369636449709e-06
2.7958009570735e-06
2.7562489936617e-06
2.7181585412576e-06
2.6814945356706e-06
2.6461516521401e-06
2.6121073289682e-06
2.5793011715959e-06
2.5476831430673e-06
2.5171851921919e-06
2.4877431017309e-06
2.4592837352799e-06
2.4317334869331e-06
2.405022017017e-06
2.3791014146907e-06
2.3539462978363e-06
2.3295408631162e-06
2.3058946901634e-06
2.2830140072271e-06
1.944356535323e-05
0.00049235902630322
0.00048091890904299
0.00041759881899782
0.0003679132717747
0.00032566431861852
0.0002853033706159
0.00024249377714426
0.0001965704190546
0.0001642721561949
0.00017464454651911
0.00020023011882262
0.0002067883980524
0.0002011898195949
0.00019477679707431
0.00019055541641922
0.00018782866227226
0.00018597817999726
0.00018450437108644
0.00018313425062701
0.00018160221735839
0.00017965608598201
0.00017716701402121
0.00017405879476394
0.00017028377154834
0.00016590749167321
0.00016096167116011
0.00015548557242441
0.00014954537548993
0.00014322117428793
0.00013660260507091
0.00012978766952797
0.00012289207327212
0.0001160305976893
0.00010930388765966
0.00010122935561986
9.5178906501718e-05
8.9529910474457e-05
8.4393505937101e-05
7.9809364575632e-05
7.577211720264e-05
7.2265630111661e-05
6.9255186226371e-05
6.6697678217336e-05
6.45463800523e-05
6.2750737867618e-05
6.1249071682791e-05
6.0053709435846e-05
5.9115341454494e-05
5.8381886187516e-05
5.7793083164917e-05
5.7290240259582e-05
5.6849114950562e-05
5.6426845239278e-05
5.6026111884769e-05
5.5630090110026e-05
5.5215461484012e-05
5.4779309843564e-05
5.4339563442408e-05
5.3896685285682e-05
5.3441254906833e-05
5.2966763110967e-05
5.2466287445751e-05
5.194177640519e-05
5.140602899714e-05
5.0825086077606e-05
5.022912082939e-05
4.9570569167942e-05
4.8822345425961e-05
4.6949141602624e-05
4.7412609385114e-05
2.5538504900455e-05
1.3320551233747e-05
8.6205084259484e-06
6.2976084711908e-06
4.7254738141508e-06
3.7105378898004e-06
2.9660883054273e-06
2.4355191962386e-06
2.0714815689958e-06
1.8335064819618e-06
1.7447786779059e-06
1.7256323750171e-06
1.7827616708356e-06
1.9015402783341e-06
2.0617565053965e-06
2.254556199316e-06
2.4822661545986e-06
2.7291613144085e-06
2.9672776001687e-06
3.2111298233466e-06
3.4745021001822e-06
3.7440510251846e-06
4.0203460830343e-06
4.3195043796972e-06
4.6336814462957e-06
4.9517958613793e-06
4.8316060166378e-06
4.6604560932967e-06
4.5035607498284e-06
4.359641012636e-06
4.2275529341897e-06
4.1053890709193e-06
3.9928130278238e-06
3.8879538608166e-06
3.790683910323e-06
3.6997197990937e-06
3.6145888694332e-06
3.5342685558142e-06
3.4589447502258e-06
3.387634188834e-06
3.320554916909e-06
3.2568332350151e-06
3.196589922052e-06
3.1392051429713e-06
3.0846416060602e-06
3.0326349601733e-06
2.983008076222e-06
2.9357785207502e-06
2.8905259443938e-06
2.8473635045463e-06
2.8058712600887e-06
2.7660960832755e-06
2.7277469807054e-06
2.690814823327e-06
2.655222613037e-06
2.6209227494768e-06
2.5878774270401e-06
2.5560222570948e-06
2.5253055984374e-06
2.4956648552007e-06
2.4670421511588e-06
2.4393662913464e-06
2.4125624008641e-06
2.3865608306983e-06
2.3613181164822e-06
2.3368098442059e-06
2.3130274688679e-06
2.2899779229993e-06
2.2676740552686e-06
2.0580637939278e-05
0.00049507751014311
0.00048032716490027
0.00041733613065152
0.00036786889876686
0.00032584417383665
0.00028573314867656
0.00024320221116105
0.00019755522740796
0.00016516747832005
0.00017519418044603
0.0002012876995779
0.0002086619742535
0.00020350719847563
0.00019725036670119
0.00019284317797903
0.0001902311182985
0.00018851430765259
0.00018718679290005
0.00018595503479286
0.00018457043691308
0.00018278322153597
0.00018044658832324
0.00017748446244644
0.00017385414086319
0.00016960739932171
0.00016478827692728
0.0001594323697161
0.00015360432865749
0.0001473827278164
0.00014085573657742
0.00013411896826824
0.00012728243452664
0.00012046301044982
0.00011376252366528
0.00010568031926537
9.9575145546612e-05
9.3835093003055e-05
8.8570599431317e-05
8.3828498663006e-05
7.9606726340173e-05
7.5892259543078e-05
7.2656190599617e-05
6.9860708641023e-05
6.7464482553445e-05
6.542655640737e-05
6.3687527579775e-05
6.224276351298e-05
6.1066317727831e-05
6.0108928310326e-05
5.9313634499154e-05
5.8622696736443e-05
5.80108665308e-05
5.7431218066618e-05
5.6880377268975e-05
5.6343884133613e-05
5.5808019006022e-05
5.5270224834968e-05
5.4729961630272e-05
5.4189389116114e-05
5.3649035244502e-05
5.3100185100824e-05
5.2541232377488e-05
5.1962297606697e-05
5.1374078426939e-05
5.0746552837279e-05
5.0102825121716e-05
4.941993536191e-05
4.8665911798498e-05
4.6757657291269e-05
4.7152493174451e-05
1.3412514180852e-05
7.6848135373857e-06
5.2032870514675e-06
3.8392794047005e-06
3.0473069585845e-06
2.5729181067761e-06
2.2591038840349e-06
2.0653410583483e-06
1.9491135722499e-06
1.9235667479126e-06
1.9019860510195e-06
1.9143648330055e-06
1.959803268488e-06
2.0397240316444e-06
2.1593477648502e-06
2.3221441152815e-06
2.5093591064531e-06
2.7148063107659e-06
2.9235798860521e-06
3.1196307870458e-06
3.3017787935289e-06
3.497530122684e-06
3.7072490270988e-06
3.9170453231224e-06
4.1382036258892e-06
4.3833020235467e-06
4.6356993605201e-06
4.5981150970931e-06
4.4423651298546e-06
4.2990239172689e-06
4.167148277028e-06
4.0452634165557e-06
3.9325139866362e-06
3.8277979077116e-06
3.7303318467984e-06
3.6394170956336e-06
3.554431487895e-06
3.474914762011e-06
3.4004443519467e-06
3.3302990234039e-06
3.2644518314259e-06
3.2024324467783e-06
3.1439611664506e-06
3.088583960552e-06
3.0360649669776e-06
2.9858590323675e-06
2.9381073678601e-06
2.8924647302175e-06
2.8489188910918e-06
2.8072304648654e-06
2.7672601604514e-06
2.7288879303584e-06
2.6919256357765e-06
2.6563153250805e-06
2.6219553842253e-06
2.5888506179431e-06
2.5569420366843e-06
2.5261838343645e-06
2.4965194347921e-06
2.4678881803815e-06
2.4402278258477e-06
2.4134707046202e-06
2.3875467944573e-06
2.3623905918596e-06
2.3379560056921e-06
2.314218411581e-06
2.2911817019079e-06
2.2688489414352e-06
2.2472461007777e-06
2.2399266222647e-05
0.00049811339482652
0.00047937134662486
0.00041693752540426
0.00036780949817362
0.00032610784150841
0.0002863562149639
0.00024422972314519
0.00019898348650333
0.00016646372370098
0.00017594006870592
0.00020269783564217
0.00021121786485557
0.00020668700306431
0.00020063758770044
0.00019611009028492
0.00019364223871941
0.00019209012727602
0.00019094790236246
0.0001899004337137
0.00018870555960251
0.00018712520414772
0.00018498784160555
0.00018221402373276
0.00017876677991551
0.00017468061759936
0.00017001550965462
0.00016480273768676
0.00015910515321574
0.00015299995785992
0.00014657361437353
0.00013991956995337
0.0001331410727147
0.00012635674156392
0.00011967303698972
0.0001115651668283
0.00010538303855264
9.9527105834841e-05
9.4106450366987e-05
8.9170278740237e-05
8.4722292932776e-05
8.0753193391649e-05
7.7240224427238e-05
7.4150920844233e-05
7.1449573520533e-05
6.9101705091638e-05
6.7060477756463e-05
6.5296962453335e-05
6.3809284764273e-05
6.255403409899e-05
6.148014232751e-05
6.0531589347967e-05
5.9681798235233e-05
5.8881634094351e-05
5.8119841587399e-05
5.7390572754567e-05
5.6688106438431e-05
5.5987759540839e-05
5.5300655242086e-05
5.4624796171137e-05
5.3961193115028e-05
5.3300712826901e-05
5.2643603151323e-05
5.1977955199831e-05
5.1312329743411e-05
5.0616312413344e-05
4.991003202388e-05
4.9174896904869e-05
4.8380268770467e-05
4.6416497731367e-05
4.6761068609071e-05
5.3783020196725e-06
4.3590715871835e-06
3.6409004150711e-06
3.2873526302911e-06
2.9909779881552e-06
2.6994249199954e-06
2.5061752040248e-06
2.4038384921371e-06
2.3429089818946e-06
2.2487297851246e-06
2.2344414073365e-06
2.2389986389285e-06
2.2673558856711e-06
2.323862996589e-06
2.3982692381932e-06
2.5004648675278e-06
2.6437153989322e-06
2.800964121031e-06
2.9597864089864e-06
3.1263352169669e-06
3.3004390477868e-06
3.4633233185572e-06
3.6268996448472e-06
3.8053202448713e-06
3.9871621573312e-06
4.1710397337177e-06
4.3708482455905e-06
4.5387469990388e-06
4.3863581482669e-06
4.2453834952795e-06
4.1148794560888e-06
3.9941276080027e-06
3.8819335803483e-06
3.7776654352737e-06
3.680423594397e-06
3.5897475747147e-06
3.5048346861331e-06
3.4254956383408e-06
3.3510468969315e-06
3.2812343861087e-06
3.2155153306586e-06
3.153727416855e-06
3.0953707510007e-06
3.040185026758e-06
2.9878153939324e-06
2.9381142679279e-06
2.8909926609392e-06
2.8461361761405e-06
2.8034677940274e-06
2.7628137171953e-06
2.7240530712959e-06
2.6869200601245e-06
2.6513680254391e-06
2.6171002382488e-06
2.5840163634339e-06
2.5521096498653e-06
2.5213502056763e-06
2.491716385686e-06
2.463142739849e-06
2.4355629118789e-06
2.4089113869267e-06
2.3831274987134e-06
2.358145494459e-06
2.3338961205339e-06
2.3103283612443e-06
2.2874249012698e-06
2.2651986769379e-06
2.2436495925283e-06
2.222511466211e-06
2.5021596238108e-05
0.00050159060387507
0.00047804695287415
0.00041637884948778
0.00036773227559822
0.00032645500866108
0.00028716931354911
0.00024557064975436
0.00020084547700399
0.00016814674856424
0.000176821585598
0.00020432788772085
0.00021429119077029
0.00021055350810882
0.00020474114247716
0.00020012564882166
0.00019780206501119
0.00019641707474375
0.00019546746240434
0.00019463486756028
0.00019362646712422
0.00019226793578922
0.00019034438888079
0.00018776885383759
0.00018450990218962
0.00018058501656432
0.00017607003593289
0.00017099291250685
0.00016541496657952
0.00015941257573256
0.0001530710699999
0.00014648218213407
0.00013974425287212
0.00013297444748152
0.00012628906271884
0.00011813746563921
0.00011186083955682
0.00010587797589178
0.00010029506594167
9.5159828317484e-05
9.0481385134329e-05
8.6253296968266e-05
8.2457749609202e-05
7.9066639538261e-05
7.6048481137591e-05
7.3371967276954e-05
7.0999946269821e-05
6.8894219670512e-05
6.706291667537e-05
6.5470966405733e-05
6.407581388798e-05
6.2824881816221e-05
6.1692585078544e-05
6.0630317736264e-05
5.9612674557458e-05
5.866308492658e-05
5.7741456790897e-05
5.6837714321864e-05
5.5965055032171e-05
5.5119066201325e-05
5.4301561262174e-05
5.3499868850741e-05
5.271637048113e-05
5.1936718126639e-05
5.1171692959443e-05
5.0388813108073e-05
4.9606266222986e-05
4.8805557259682e-05
4.795180251982e-05
4.5897564532472e-05
4.6182155162639e-05
2.4477229002146e-06
2.9506630960788e-06
3.6316006865402e-06
4.2948645160166e-06
5.0284828398083e-06
4.882634307667e-06
4.1872453751355e-06
3.5970159088611e-06
3.1819456306974e-06
2.9485179775048e-06
2.8010314737244e-06
2.7190644612531e-06
2.6899432001571e-06
2.6964702388516e-06
2.7330025425083e-06
2.7938478204893e-06
2.8729706017837e-06
2.9686586509104e-06
3.0810124096308e-06
3.2049351397671e-06
3.3389701185121e-06
3.488054344147e-06
3.6389144642382e-06
3.7912003996226e-06
3.9548534508221e-06
4.1196794774698e-06
4.2836508028201e-06
4.4561091234486e-06
4.3313807628381e-06
4.1942940227388e-06
4.0667923196744e-06
3.947999678008e-06
3.8374884172872e-06
3.7344144575858e-06
3.637982019453e-06
3.5477798077577e-06
3.4633517587309e-06
3.3841848623629e-06
3.3098412251644e-06
3.2400285938773e-06
3.1743390904398e-06
3.1124878715055e-06
3.0541026879525e-06
2.9989489754061e-06
2.9466278547532e-06
2.8970319013169e-06
2.8499550469123e-06
2.8053269384749e-06
2.7629082829046e-06
2.7224960040583e-06
2.6839391578436e-06
2.6470612093117e-06
2.6117625234773e-06
2.5778643472273e-06
2.5453126085477e-06
2.5140192390373e-06
2.483925886177e-06
2.4550101738154e-06
2.4272400256974e-06
2.4005195941632e-06
2.3747913872457e-06
2.3499604367123e-06
2.3259073794165e-06
2.3025352615227e-06
2.2798083286683e-06
2.2577285013737e-06
2.2363100486959e-06
2.2155486409469e-06
2.1933446155624e-06
2.855778187034e-05
0.00050508072705604
0.00047639990633051
0.0004156438082587
0.000367631447405
0.00032688393628456
0.00028816811557638
0.00024721776403553
0.00020312859308801
0.0001702058878105
0.00017777970419175
0.00020603108631181
0.00021769909055776
0.0002149190281855
0.00020935761077655
0.0002046740032006
0.00020245480460209
0.00020119969650409
0.00020043885666741
0.00019980861699197
0.00019897940232874
0.00019782311288713
0.00019610381732544
0.00019371197127038
0.00019062181591244
0.00018683667603658
0.0001824455020057
0.00017747374573497
0.00017198292397674
0.00016604994499394
0.0001597603768994
0.00015320465443133
0.00014647711097079
0.0001396904268152
0.00013297163879791
0.00012475455054108
0.00011836771391561
0.00011225408096865
0.00010651184410767
0.00010118597098812
9.6290505368795e-05
9.1820386760829e-05
8.7760796127386e-05
8.4086797637097e-05
8.0769803263347e-05
7.7780322844586e-05
7.5083157667662e-05
7.2646733189339e-05
7.0473990819089e-05
6.8539080308434e-05
6.6809349946744e-05
6.5238047001674e-05
6.3803845189538e-05
6.246033036165e-05
6.1173368279624e-05
5.9977426749698e-05
5.8813043941322e-05
5.7672410628458e-05
5.6587524467479e-05
5.5549260307181e-05
5.4563051188607e-05
5.3600902765736e-05
5.268224546136e-05
5.1773711982307e-05
5.0904455388903e-05
5.0030520147934e-05
4.9166844264507e-05
4.8291988395849e-05
4.7367953894484e-05
4.520857712113e-05
4.5414532082274e-05
9.8405915821738e-07
1.9096378307146e-06
2.2173825754661e-06
2.7802384710883e-06
3.3727142746512e-06
4.0378644000123e-06
4.8516903456706e-06
5.677131448657e-06
4.7946907303922e-06
4.1429237693759e-06
3.7184508432871e-06
3.4582474266856e-06
3.2901399636093e-06
3.1953192036605e-06
3.1509219645489e-06
3.1398802315186e-06
3.1533701710505e-06
3.1910907888982e-06
3.2502815540257e-06
3.3252490422423e-06
3.4181370906923e-06
3.5270970788027e-06
3.6511349751746e-06
3.7887932740227e-06
3.9206221450065e-06
4.0784746212138e-06
4.2352030726551e-06
4.3961246618793e-06
4.311807095625e-06
4.1761466571492e-06
4.0499999965783e-06
3.9323979084408e-06
3.8223651423087e-06
3.7193678961077e-06
3.6230026814563e-06
3.5326239831773e-06
3.4476722657083e-06
3.3678923139904e-06
3.2928992366315e-06
3.2222698683728e-06
3.1556799025367e-06
3.0929396021211e-06
3.0337281045511e-06
2.9777255029135e-06
2.9246084921491e-06
2.8742627395074e-06
2.8264795517477e-06
2.7811717036136e-06
2.738114325695e-06
2.6971791626302e-06
2.6581724041525e-06
2.6209290912451e-06
2.5853129712432e-06
2.55118793244e-06
2.5184894886662e-06
2.4871080246833e-06
2.4569884204025e-06
2.4280672540059e-06
2.4002988112666e-06
2.3736195602417e-06
2.3479556273346e-06
2.3232281436834e-06
2.2993557287373e-06
2.2762660565295e-06
2.2538923616314e-06
2.2321914960406e-06
2.2111766915215e-06
2.1908591731617e-06
2.1711692487125e-06
8.1087514580941e-06
0.00041426628880785
0.00049150291065725
0.00042830968476194
0.00037842372606323
0.00033704207599733
0.00029891139386171
0.00025958062039708
0.00021663927601964
0.00017824535806483
0.00017321103490929
0.00020103617645053
0.00021976214466414
0.00022072353615592
0.00021557274872841
0.00020955152811002
0.00020736957114848
0.00020619158234755
0.00020558655893249
0.00020512784402608
0.00020446909398517
0.00020346546355578
0.00020192356632045
0.00019968381296881
0.00019672550678114
0.00019304345511642
0.0001887354739933
0.00018382830249744
0.0001783837933763
0.00017248003345738
0.00016620333982878
0.00015964435615551
0.0001528948774053
0.00014606095062734
0.00013925345632342
0.00013404635356206
0.00012746774278827
0.00012114579282357
0.00011516186405202
0.00010955726544889
0.00010435040029949
9.9537434156253e-05
9.5105608652385e-05
9.1033616347161e-05
8.72959733103e-05
8.3863676134723e-05
8.0702676438476e-05
7.7802213027476e-05
7.514278168526e-05
7.271177250193e-05
7.0491023580298e-05
6.8445972414657e-05
6.6565244537188e-05
6.4809388583897e-05
6.3141213074737e-05
6.1581850626968e-05
6.0067052246047e-05
5.8583660179802e-05
5.7179669752411e-05
5.5852699362508e-05
5.4616168313731e-05
5.342680482775e-05
5.233638921961e-05
5.1276909842081e-05
5.0280407257972e-05
4.9283237969527e-05
4.8291705998381e-05
4.7288210738514e-05
4.6235727603682e-05
4.3890285136224e-05
4.396293721956e-05
4.9062687681665e-07
1.2605841527696e-06
1.5043499809021e-06
1.7757180684978e-06
2.1402335337252e-06
2.6240505989295e-06
3.1682046406499e-06
3.817857565871e-06
4.5830580121161e-06
5.2773137357211e-06
5.7829903814096e-06
5.2637610645198e-06
4.7261935755909e-06
4.3573100125076e-06
4.1140641359111e-06
3.9590068182713e-06
3.8512989400928e-06
3.7882725345138e-06
3.7606533544497e-06
3.7629469825322e-06
3.7886739276736e-06
3.8364855556125e-06
3.9014931019932e-06
3.9843301515579e-06
4.0896870099517e-06
4.2100783082978e-06
4.3200698259633e-06
4.3172140544883e-06
4.1786555693399e-06
4.0500304786326e-06
3.9309011475535e-06
3.8200607958841e-06
3.7170406647008e-06
3.6205409998026e-06
3.5297657610019e-06
3.4440002876218e-06
3.3632285307888e-06
3.2870371654346e-06
3.21505836785e-06
3.1468917541024e-06
3.0824047955994e-06
3.0214040901151e-06
2.9636136587446e-06
2.9087142662116e-06
2.8565306018896e-06
2.8069171788925e-06
2.7597359175341e-06
2.7148302917043e-06
2.6720919669903e-06
2.6313971611613e-06
2.5925806183889e-06
2.5554973474782e-06
2.5200076581531e-06
2.4860347586792e-06
2.4534902477568e-06
2.4223116058437e-06
2.3924232954912e-06
2.3637540428303e-06
2.3362480667041e-06
2.3098477807387e-06
2.2844995661341e-06
2.2601339450397e-06
2.2366693386365e-06
2.2140223181561e-06
2.1921357390141e-06
2.1709859671458e-06
2.1505576879781e-06
2.130850305168e-06
2.1101962481655e-06
4.4723592292706e-05
0.00051608113083198
0.00047043134766674
0.00041243503127247
0.00036711495537698
0.00032861689147301
0.0002922083486787
0.00025388298569494
0.00021236007417556
0.00017862696919226
0.00018071718209545
0.00021011993229179
0.00022805127630751
0.00022923560783827
0.00022458207212749
0.00021965584491979
0.00021729426784245
0.00021609752306895
0.0002156200055862
0.00021537166801228
0.00021494618935977
0.00021413235492414
0.00021283401012665
0.00021078460716045
0.00020796371592897
0.00020436469019873
0.00020009061599486
0.00019517646905049
0.00018968832328901
0.00018370908420771
0.00017733026661058
0.00017064595796515
0.00016374756431726
0.00015672980411921
0.00014968761417914
0.00014310745715978
0.00013622598511955
0.00012961850994886
0.00012334085570057
0.00011742334063256
0.00011187951837324
0.00010670458121735
0.00010188371851953
9.7395459848195e-05
9.3214495544581e-05
8.9311374688567e-05
8.5684663737724e-05
8.2303346916659e-05
7.9144198934525e-05
7.6197882401962e-05
7.3458694732252e-05
7.0909739798898e-05
6.8553724550726e-05
6.6367083436966e-05
6.4309293658781e-05
6.2381179086082e-05
6.0522017711875e-05
5.873104869547e-05
5.7032515514988e-05
5.5432154952023e-05
5.3960974308221e-05
5.2555024523149e-05
5.1235583289495e-05
4.9952331048339e-05
4.8739602490755e-05
4.7537383783894e-05
4.6348352804978e-05
4.5151510305247e-05
4.390903929568e-05
4.1322210435493e-05
4.1173737110219e-05
5.6185155206147e-07
9.6286583079538e-07
1.1472121069256e-06
1.3111337098736e-06
1.5485762301501e-06
1.8526190356753e-06
2.2421296946881e-06
2.7038624808559e-06
3.2577304841026e-06
3.908969827587e-06
4.5723680894889e-06
5.0908352141849e-06
5.4168098552838e-06
5.4994142096522e-06
5.2808344605615e-06
4.8967506619549e-06
4.6515682813842e-06
4.476821155051e-06
4.3568762084697e-06
4.2767742667363e-06
4.2375691117902e-06
4.2283004683813e-06
4.2444985817354e-06
4.280140227244e-06
4.3361289411555e-06
4.4092006720896e-06
4.3467372613547e-06
4.2164087682262e-06
4.0914050272732e-06
3.9716775319074e-06
3.8577971783224e-06
3.7505908333198e-06
3.6496301531871e-06
3.5549649179572e-06
3.4657992074837e-06
3.3823021904111e-06
3.3043181919994e-06
3.2311025366983e-06
3.1617792853449e-06
3.0959364785654e-06
3.0334539427095e-06
2.9740562001071e-06
2.9175390844088e-06
2.8636538039024e-06
2.8123759928706e-06
2.7634777942722e-06
2.7168372546817e-06
2.6722909551356e-06
2.6297837477169e-06
2.5892146382369e-06
2.5504305945624e-06
2.5132891842821e-06
2.4776821593336e-06
2.4435577941457e-06
2.4108304557077e-06
2.3794353184434e-06
2.3493063441277e-06
2.3203833566213e-06
2.292619595043e-06
2.2659512797932e-06
2.2403257143741e-06
2.2156904475873e-06
2.191977676629e-06
2.1691222647891e-06
2.1470625135396e-06
2.1257607429317e-06
2.1052218450435e-06
2.0854317064578e-06
2.0662623982238e-06
6.4777374185269e-05
0.0005181542067357
0.00046556883111113
0.00040959666342512
0.00036651142973525
0.00033004290961206
0.00029564855454865
0.0002595846681725
0.00022029660447355
0.00018619703037817
0.00018276844140592
0.00021082328979079
0.00023329388139232
0.00023826182173991
0.00023468612600563
0.00022956496802629
0.0002266826463182
0.00022521146891397
0.00022458562237373
0.00022435660541676
0.00022401295676367
0.00022328495245133
0.00022206051398409
0.00022005831244359
0.00021722358986397
0.00021354723672358
0.00020913812994619
0.00020403863036282
0.00019832342127745
0.00019208483571422
0.00018542331234012
0.00017844154093266
0.00017123606734027
0.00016390042934702
0.00015651758806193
0.00014837008072015
0.00014111318440025
0.00013417877864696
0.00012759263435229
0.00012137256770723
0.00011552077084
0.00011002928541224
0.00010487988463313
0.00010005776708852
9.5526777212485e-05
9.1302726493323e-05
8.7361855974957e-05
8.3673966669974e-05
8.0207264719803e-05
7.6951562035809e-05
7.3904359971937e-05
7.1061779936467e-05
6.8431505665022e-05
6.6004368079239e-05
6.3735561589939e-05
6.160604026299e-05
5.9576363410961e-05