/*--------------------------------*- C++ -*----------------------------------*\
| =========                 |                                                 |
| \\      /  F ield         | OpenFOAM: The Open Source CFD Toolbox           |
|  \\    /   O peration     | Version:  2312                                  |
|   \\  /    A nd           | Website:  www.openfoam.com                      |
|    \\/     M anipulation  |                                                 |
\*---------------------------------------------------------------------------*/
FoamFile
{
    version     2.0;
    format      ascii;
    arch        "LSB;label=32;scalar=64";
    class       volScalarField;
    location    "9e-05";
    object      omega;
}
// * * * * * * * * * * * * * * * * * * * * * * * * * * * * * * * * * * * * * //

dimensions      [0 0 -1 0 0 0 0];

internalField   nonuniform List<scalar> 
109340
(
9615.4876796012
9903.646503448
10705.231899286
12435.137594748
15321.053334366
19250.604191811
23825.266247443
28437.773858895
32555.41197954
36501.027927049
40352.078431732
44129.780121469
47840.464264658
51485.326600371
55063.58802862
58573.745463442
62014.117649227
65383.090374216
68679.246831297
71901.414640436
75048.678945523
78120.381195558
81116.11942728
84035.733899734
86879.267972879
89646.896891602
92338.818161628
94955.103379256
97495.500492066
99959.143449902
102344.09739873
104646.5571394
106859.21094779
108967.21005535
110937.040594
112684.22372522
9722.1627270303
10821.31386101
13669.435055953
17970.863951363
22975.734821843
28042.433824333
32882.998437031
37715.539546822
42551.957372258
47333.134789752
52041.398147454
56667.976292878
61206.645691143
65652.363316507
70000.968082879
74249.093410477
78394.136208243
82434.239822154
86368.282901043
90195.891926989
93917.496506913
97534.299598407
101048.17306938
104461.46791088
107776.79360285
110996.77572177
114123.80851228
117159.80371266
120105.88139946
122961.93717951
125725.90803479
128392.3948798
130949.40258126
133369.12478759
135581.00898553
137405.9614003
9964.8111750074
13967.504453512
21396.731211463
29002.195756831
36214.963793843
43362.085871526
50566.647171436
57762.315913147
64898.479675588
71929.143465822
78820.652333173
85550.249806106
92102.505388309
98466.99780572
104636.99966646
110608.69069889
116380.66973373
121953.82523724
127331.74669561
132521.49680636
137533.66452642
142380.83696124
147076.12788325
151632.03031135
156059.72342554
160368.73493575
164566.75714225
168659.44956951
172650.19227779
176539.60445794
180324.39668308
183995.11415143
187530.11384603
190874.40443436
193873.92466963
196108.01864493
11926.735508106
28470.261004033
45354.067680014
62216.219028508
78891.551196777
95290.375868123
111303.30794028
126845.8488042
141849.9360316
156263.88599012
170051.49611824
183192.31264524
195680.36079629
207521.68416878
218731.99845894
229334.63285327
239360.85378629
248861.32651358
257929.59159389
266689.4142434
275247.46771058
283678.1381766
292028.67503727
300326.60789454
308585.74960115
316810.47276749
324998.28360797
333141.83311516
341228.59376205
349241.20313667
357159.30295864
364980.44466854
372729.28105212
380327.01909132
387240.86569419
391587.77761161
46701.441164081
146269.41145573
240790.09641764
331393.92456728
416777.43164198
495634.5704311
567161.29044673
631082.99613416
687588.40390138
737155.46800767
780421.16251909
818069.14108889
850768.8240686
879135.07315927
903708.57092513
924989.33119255
943682.06853544
961694.80581472
982149.45193304
1006542.1266309
1034652.2790201
1065546.0934494
1098213.985761
1131809.954877
1165669.9255104
1199257.76922
1232144.1830678
1263977.1153089
1294453.0267228
1323269.1573036
1350132.7915954
1374637.9280373
1396249.832463
1413948.7122586
1425175.5996265
1418572.0807682
4714635.7318449
5537437.9434731
6152716.229672
6582661.1380615
6863620.529243
7033016.0358773
7122854.4609571
7157958.3792324
7156209.3748865
7131529.1763469
7091787.2528173
7043061.8545721
6989503.5972483
6933916.7336716
6878199.6471125
6823724.4678694
6771407.1196352
6721881.8824451
6675777.0540974
6633730.232973
6595104.3134462
6559498.2513693
6526725.5706256
6496699.5953949
6469368.8910042
6444700.2776688
6422680.0256209
6403321.0862348
6386674.4352915
6372847.2647804
6362044.2870006
6354656.3971489
6351270.7144542
6353228.6041297
6362002.8696431
6376642.3870265
114017.64645958
114198.48680295
113445.55574163
112868.27555515
113358.76932278
115336.29967181
119439.64323174
125890.64685337
133981.16747218
144498.37620705
157636.27249116
169417.05083227
178815.11970704
182414.4746441
181344.19067162
177620.81398287
172227.67170465
166005.39815
159481.37022556
152975.13167045
146653.19909123
140604.48627023
134924.83657133
129754.59442753
125046.07783184
120780.88833232
116899.95210866
113168.29259422
109951.62161619
106782.82768939
103927.41909674
101277.57793153
98728.924644531
96472.848467958
94204.636808597
92218.76596243
90193.494556817
88417.334898368
86617.714561639
85017.139552946
83438.049814992
81970.043957743
80586.298061892
79219.347987727
77983.02545478
76715.443549626
75592.678630207
74434.490221823
73397.733479933
72368.167034259
71383.680741386
70438.038639322
69527.724132526
68649.390686238
67799.35279612
66976.469757264
66180.323459745
65411.599348255
64670.411496627
63956.043374131
63266.857451671
62600.842981016
61955.945165918
61330.272403413
60722.106389229
60130.300810701
59554.711407755
58995.646722136
58453.040095563
68978.574687723
8550705.121572
7806796.8440289
5639455.2070966
4205025.4085805
3216738.4347868
2509168.940592
1979480.9535253
1549644.9234316
1124316.4806093
697602.15096015
457457.62951538
368037.41269713
337133.64662095
326177.61092049
322079.30979438
321288.09315217
321828.39800192
323145.26359971
324812.28233401
326456.2281811
327869.06208127
328916.69975999
329483.30090195
329561.57246587
329020.05465212
327863.0395583
326126.76836292
323849.33158339
321078.86330519
317873.63107245
314301.62693735
310438.28074273
306374.86542178
302196.189059
296950.20253299
292861.94932457
288914.6782677
285289.09672031
282095.57777668
279361.55665238
277121.90238898
275377.64811325
274114.32173535
273297.40450726
272953.44712352
273041.01322417
273354.79550646
273892.35536675
274612.27753294
275454.94296493
276351.55215364
277272.82610965
278091.09431192
278698.90890483
279074.88202959
279275.51782519
279374.93241344
279268.39666901
279015.81180057
278577.97238448
277957.67309123
277139.46360441
276150.46235597
275085.58079194
273779.60621924
272399.92913284
270685.02419292
268565.93604335
261919.21821009
265014.35062419
138390.58635904
137186.79111778
134175.69633812
130336.74739657
126139.13307241
122168.92298571
118798.0768468
116249.09757816
114536.02228417
113760.26433388
113755.47328274
114311.31084105
115014.96440607
115467.18073341
115824.64614872
116263.88357604
116786.00601001
117113.4901015
116769.20866389
115893.28774849
114585.95668983
112944.45490921
111073.11979913
109020.20305098
106913.60853598
104865.73870028
102859.74093623
100863.23048192
98886.855062789
96965.584333182
95091.561091234
93304.153779981
91572.033695101
89910.595069658
88298.46848354
86746.345254758
85243.495663968
83802.672033562
82415.545253443
81093.260831188
79821.543254206
78610.267596585
77439.643466896
76320.743140083
75235.452426615
74194.609942352
73185.973446546
72218.217669945
71284.815974403
70387.585602393
69521.313046291
68682.897637484
67870.594809074
67081.18856791
66314.227353432
65568.641873893
64845.472731097
64145.154142922
63467.98464601
62813.276995447
62179.808915326
61565.815747605
60969.422696325
60388.896401737
59822.984861818
59270.925394986
58732.56748182
58208.66092854
57698.943053201
285829.61739619
9652082.1094187
7167883.4255666
5219854.6773011
3920216.4446334
3016525.8671715
2362694.8477091
1866311.3235471
1448643.1973457
1013990.0536494
620285.53440845
427526.8520249
358067.07983153
334002.69489845
325389.05540611
322476.26285092
321704.06615937
322288.58707431
323644.09943568
325334.15061471
327003.50288767
328441.35921308
329509.80124947
330097.71752738
330194.65512521
329678.79947369
328546.84254513
326837.45925881
324589.64522183
321852.48115082
318685.48848051
315157.45028997
311344.30135145
307338.39046921
303226.75928735
298069.5026867
294046.18147664
290161.54930813
286585.73346776
283432.52316898
280730.69860667
278503.73227601
276747.2225444
275444.03282839
274563.92612412
274106.80474043
274102.46362494
274314.82146478
274748.96062443
275364.39747282
276103.40798722
276901.0492245
277727.83067147
278459.16862957
278994.28071432
279324.88076228
279502.76482037
279529.21147298
279402.90414769
279127.20807701
278677.33307159
278050.76657406
277240.4994969
276270.93459305
275211.76737876
273922.66690536
272545.48458457
270875.45686977
268845.02212999
262162.76414929
265165.0006434
196330.12964087
192090.80763097
183665.93916611
173254.78187641
162660.91098304
152873.05611233
144452.40471406
137414.07696186
131856.85162823
127235.6664589
123744.34127169
120768.60647389
118440.75924544
116641.84050799
115089.97317482
113675.69228409
112153.57004102
110442.25363236
108299.93441118
105969.09269204
103624.00802636
101345.93174685
99171.957497225
97120.103756078
95190.076772398
93358.058008249
91648.699835547
90109.675086537
88696.07194317
87374.718647635
86141.164022274
84986.412681172
83895.277987427
82829.195532882
81784.213680402
80731.169963396
79688.200844409
78650.455213274
77639.167826558
76648.463806159
75690.540651818
74754.166631552
73845.577405643
72956.112705797
72088.467958049
71240.088137968
70412.046056523
69608.978723167
68827.481613688
68072.128394981
67336.197314279
66620.726256155
65920.179425541
65234.65589993
64563.514060414
63907.450699924
63267.799977927
62645.509667284
62041.341900308
61455.073125466
60885.863746807
60332.230309195
59792.534143532
59265.278262205
58749.442514051
58244.438656658
57750.462683813
57268.398381221
56798.346596198
307257.11498862
9666836.3135914
7152590.3121069
5208770.7744734
3914000.3751273
3013622.8668837
2361975.6870066
1867226.7140233
1451398.1682218
1019675.097743
625845.78380632
430689.62584208
359842.37493108
335196.87290688
326401.60198758
323354.47568054
322615.50371531
323266.63884647
324691.05050239
326437.27366317
328168.86006327
329671.92823108
330800.25301371
331445.54169229
331592.04778133
331142.04311029
330070.72696059
328423.0932689
326239.91467882
323571.80360228
320480.76862606
317037.46431674
313318.86439841
309418.77145499
305428.38749296
300429.6515304
296528.54046819
292772.35539342
289319.40453739
286283.55650763
283684.85926077
281535.68480904
279826.06244164
278533.90319666
277631.12533743
277100.36097897
276979.71598971
277123.51221137
277464.6601646
277977.42051181
278609.6927474
279300.45172862
280022.24415872
280646.66651886
281062.67418633
281303.5209924
281393.3604279
281297.20644035
281078.78749863
280705.13408696
280181.01650252
279495.15924264
278667.84851096
277674.03844048
276577.18263305
275248.53974623
273802.24234945
272141.53392106
270188.03943965
263427.95045195
266206.79441877
385923.50861872
363593.02001861
325249.31754364
283639.32098949
247113.83753057
216863.58123348
193326.34055577
175225.54789894
161141.0399138
149564.46601967
141067.83030159
133938.75063342
128050.34387708
123200.46475281
119152.03955045
115756.31216494
112989.75085058
110407.73020138
107516.09063375
104374.16151818
101179.64843447
98086.046253594
95192.424650098
92525.119557992
90075.549944707
87833.26880699
85783.147642152
83917.285507596
82267.33152547
80798.010541315
79485.359011896
78305.147561741
77240.850668787
76266.572842971
75359.993999813
74506.823622077
73696.049008909
72922.389040806
72182.436207798
71478.372770238
70803.476181445
70147.466746086
69505.776871852
68865.618261314
68229.049406387
67592.582829228
66964.110615822
66343.329530987
65735.612963611
65139.84895081
64555.313248913
63980.371805409
63412.124397476
62850.245940568
62294.100502157
61745.82737396
61207.001011033
60679.588886343
60164.809251036
59662.869341885
59173.123608431
58694.403132701
58225.422219273
57764.99296886
57312.188601055
56866.574318422
56428.737153644
55999.804762675
55580.290141869
342100.24804963
9675938.0514219
7127284.6778913
5191724.6329956
3904616.1432055
3009280.3778248
2360901.017683
1868564.4840557
1455417.3992098
1027969.237065
634063.59479009
435372.96867186
362443.091268
336905.8027661
327815.3697351
324622.26202162
323918.50555609
324644.45066075
326151.26244507
327980.79695335
329798.62242098
331389.03602831
332599.52057776
333322.35055397
333532.65621108
333164.25523161
332164.69723805
330586.51072832
328472.59595645
325875.65413377
322859.9408418
319498.39725175
315869.05402925
312066.00465086
308185.5934437
303327.49977994
299540.98617221
295917.21387727
292602.31842387
289696.47571856
287218.29507377
285172.03872559
283544.54896599
282308.01988557
281430.45408933
280884.65699996
280675.33618875
280772.57487102
281042.5262507
281469.51284224
282008.31832321
282602.69046425
283227.59508942
283745.63538933
284051.0467862
284196.8104266
284147.85163389
283954.18379925
283619.03060014
283129.98326152
282505.13468712
281729.56346189
280831.52966014
279778.34288823
278629.69507657
277251.18414552
275748.43355553
274039.34929243
272051.97273484
265144.037751
267832.693066
1321520.9101147
1071832.8580143
803587.00954644
593866.94179842
446934.65893482
347029.65918472
280321.08935348
234876.63887315
203223.34983257
180486.34962142
163960.73825362
151340.36302956
141341.01187526
133218.23350615
126542.03659391
121010.97682768
116383.91415536
112192.09414363
108263.75135868
104550.2011308
101005.69054056
97578.45445767
94271.986302799
91185.853842975
88337.038996505
85716.776258075
83308.418796325
81106.229336422
79127.912713529
77366.922117158
75796.573248347
74397.777622625
73146.48188696
72024.395375772
71006.727201352
70077.641638063
69220.666392921
68431.817585826
67701.22848828
67026.238840921
66397.802121262
65811.504444939
65256.852265659
64728.234200369
64218.482430956
63722.996961236
63239.978740969
62769.83397103
62314.616146515
61869.170190966
61431.533412721
60996.069084192
60560.343814494
60123.747401233
59686.163609175
59249.467008531
58816.101229798
58388.8182318
57969.134733946
57557.54752641
57153.606432684
56756.4385873
56365.012870472
55978.275521531
55595.321717779
55215.952221698
54841.013790018
54471.863254567
54109.412840448
393644.20886159
9681627.0548296
7093524.5880605
5168895.6811633
3891947.6942326
3003414.9024972
2359433.5769334
1870304.3913505
1460672.2575055
1038837.1938361
645031.22534796
441647.24779687
365884.4862708
339104.3409237
329575.40448098
326201.54800065
325519.85560562
326318.39139526
327916.24901583
329840.90433792
331754.56683375
333439.82530017
334739.04885405
335544.20528623
335819.51450928
335529.45480165
334595.49791543
333076.28018285
331017.0877851
328472.75522043
325510.0090766
322203.56660866
318631.36609278
314886.6355018
311071.08914545
306290.99564364
302577.41266095
299055.86367726
295858.45330418
293067.27510206
290702.92763257
288764.45842081
287236.98172377
286088.52326657
285281.09113584
284782.02131304
284567.47991155
284655.51117346
284900.09614703
285286.82056449
285775.30311755
286314.21234736
286881.10768867
287327.67382199
287564.40439748
287595.87244637
287468.25995172
287169.79361594
286723.98519269
286125.23759721
285392.38807312
284514.04492196
283525.44360236
282393.61427576
281180.3131758
279741.69629775
278180.00442002
276397.53970889
274324.50266492
267133.8195254
269735.96545676
4663099.5676442
2572153.2507156
1599482.9615812
1065807.8646121
742100.64409609
537365.41882433
404601.50493465
317536.80720098
259361.33604409
220043.33084369
192457.59296238
172516.07990732
157424.98742148
145535.19606569
135964.16387797
128143.54523185
121498.11193403
115647.41559209
110438.82152855
105774.15772188
101574.1487395
97759.893160066
94264.901911818
91000.562933099
87930.876902856
85068.363286372
82426.032966251
79986.20246576
77765.5164376
75770.915475934
73976.415260462
72358.60055143
70903.400533283
69591.956879263
68403.312688519
67322.197067319
66337.057780802
65438.139830795
64617.849593926
63870.188244458
63186.162561974
62557.947251676
61976.808622504
61436.697004428
60928.582556216
60447.852672821
59990.109664452
59555.902784989
59143.730110949
58751.439426394
58375.534488099
58011.159756395
57655.278821241
57303.927370514
56955.546167721
56609.422847205
56267.505694443
55930.618863637
55599.347958884
55273.680576995
54952.227248186
54634.234367886
54318.787239325
54004.883779959
53691.817727271
53379.437228001
53068.479109704
52760.496048971
52456.760136026
466073.22201225
9676204.936659
7052388.912201
5140833.4551804
3876042.9256131
2995983.1217752
2357542.2949277
1872425.0027107
1467124.7034941
1052230.5283662
658876.00243724
449624.45355651
370208.95193232
341785.14696893
331640.17143466
328033.89999358
327344.99914332
328203.27908144
329891.736147
331915.26649701
333927.87924509
335708.72583867
337095.58643594
337979.35958767
338313.9643997
338088.84081821
337205.43326155
335726.36299849
333699.58033296
331181.57130195
328240.46627832
324953.54059528
321400.1585957
317671.07670103
313868.76982636
309098.51398042
305411.71057177
301952.51126361
298834.29321668
296125.58920409
293851.37281971
292007.7822281
290578.51053518
289529.35582676
288816.14589395
288399.06482467
288247.14336297
288356.70888218
288616.06394503
289003.56706548
289481.03799184
290002.76152465
290550.59875612
290977.61074449
291190.20671119
291161.81516444
290991.81577531
290635.6925145
290109.34644531
289413.30608906
288572.68372983
287584.25076245
286492.93785602
285271.21679443
283979.10232774
282471.9472816
280832.77526854
278963.32940606
276801.53205852
269305.63712478
271782.72178669
6468168.6346991
3573213.2542542
2316482.7834565
1584348.5560669
1117579.09222
803166.4749812
583577.89205559
440917.92287919
345496.81544556
280236.04307831
235259.46913675
203508.72825996
180485.35732982
163191.99596027
149675.81976337
138686.34148157
129530.10236573
121796.67802985
115148.10520241
109330.11594919
104196.78860411
99655.243783795
95620.627412699
92015.542374695
88736.09572288
85714.540084831
82895.588034721
80264.006314467
77834.431402716
75625.808240601
73625.974771318
71810.613617786
70156.578934885
68650.571038605
67280.283962225
66028.260819691
64881.21467978
63833.88838223
62879.113936567
62007.835094677
61211.440201634
60483.078591924
59814.644457954
59198.783997052
58627.866044886
58096.793104065
57599.902193843
57135.58691175
56701.437454719
56296.237092201
55916.018737249
55556.047918085
55211.822495462
54879.467921622
54557.060450076
54242.722680977
53936.47344464
53638.953907628
53351.119241572
53072.792460193
52802.787798949
52539.474126667
52280.968682556
52025.435384974
51771.369506268
51517.943854922
51264.722785271
51012.77193397
50763.489500279
97559.883514016
9484259.175712
7626340.2163995
5507043.9116657
4126584.9789353
3177888.1889663
2496121.4824734
1984547.7245902
1571759.629545
1174081.2086133
760924.18311075
496954.10916088
389335.22052549
349968.05423344
335769.60141499
330076.24352168
329340.17785124
330238.29735788
332012.20841116
334133.77159604
336244.62680187
338118.64164215
339588.59113657
340543.73259037
340930.32466511
340753.19018568
339903.27477907
338444.17980197
336426.26529757
333907.70260118
330958.84599974
327658.59097397
324087.33575879
320334.19567477
316488.98130034
312984.23196447
309270.25370632
305833.74073371
302760.3250686
300109.73326952
297913.95695762
296169.42453821
294858.49600553
293946.31923619
293381.50193044
293120.22652285
293123.87962083
293310.34238989
293648.85998634
294097.00371097
294616.51627154
295170.23018526
295749.17116527
296214.90281131
296442.76911455
296415.4829918
296237.58965264
295852.0474662
295249.08042951
294429.32616896
293428.44796525
292257.65545644
290978.02254218
289578.69643506
288118.93655307
286470.5769702
284689.59626503
282662.36874605
280322.28374066
272261.51836695
274498.08300187
5632054.7364476
2715293.6483561
2109607.7613155
1653080.0295296
1306987.4025668
1006779.9001787
777304.06777262
599574.13026261
462290.73035304
368367.23354062
301486.26371662
251324.94555149
215349.54084493
188828.96215345
168816.08974909
153241.91697818
140655.21482376
130222.34256138
121454.67112868
114006.32433972
107594.55257682
102011.20693585
97113.688647868
92796.452509322
88970.032032174
85560.622158815
82487.972107037
79704.543828047
77195.384445838
74910.673909875
72810.729784215
70860.111315383
69055.363114563
67389.356586633
65851.81956331
64428.065004713
63113.92761201
61901.68282507
60783.796068719
59750.572719145
58795.441223956
57912.110291248
57094.431704753
56336.154751024
55632.699909809
54979.437369659
54372.169096328
53807.351069175
53282.91413296
52796.510547209
52344.309235594
51921.859774509
51524.557253877
51149.344644672
50793.862147172
50456.971955722
50137.938784348
49836.36476265
49551.865826639
49283.448181595
49029.654881985
48788.630542515
48558.422822992
48336.967593447
48122.240701092
47912.844660709
47708.423315255
47509.54539169
47296.264410096
874715.09565116
9507610.4218539
6870638.1257653
5028331.184535
3810593.2272532
2964391.0832459
2349030.3732225
1880680.818716
1492954.8568041
1106336.0161634
719138.43601477
485581.62865837
389424.13817944
353043.29683219
339595.39898682
334733.62739452
333745.30814066
334639.11753211
336557.24778429
338868.32091493
341172.64401763
343225.31276186
344846.48391691
345919.8107637
346385.8714116
346254.57273375
345420.23880219
343943.61890225
341879.76739627
339291.19211312
336250.06348604
332837.69008666
329137.308711
325236.75574221
321221.41156952
317257.206617
313367.26447253
309809.77950205
306656.73728116
303966.36891473
301775.30743938
300087.17882113
298882.68181217
298125.56532729
297767.63865041
297773.12846327
297992.18870891
298396.110074
298931.9086789
299553.12604741
300219.10783192
300897.24335266
301591.94732785
302152.69500257
302456.78202914
302478.88577553
302338.46879351
301956.59759025
301274.07060262
300287.81655753
299047.38847518
297580.86325174
295969.69193315
294228.3620283
292424.546903
290481.42111529
288416.60448488
286102.56702409
283450.97450132
274558.29677896
276388.08787606
5208284.9727543
2116228.3279305
1824898.9874746
1544649.9701894
1291919.8895428
1070954.1508459
878291.78896805
711844.0407683
575053.42281225
459153.22591121
371918.81791178
309792.80480293
257964.81751099
219565.53682341
191609.84967937
170495.72100182
154141.31359137
141041.62453
130173.89689513
121016.45511421
113243.77421661
106577.93915224
100792.19750002
95724.618670647
91255.999329097
87289.994271515
83753.413092529
80608.179267484
77803.292688363
75290.246031583
73030.466510477
70976.086130523
69095.079238508
67358.43199443
65740.151700639
64228.386343119
62810.440090267
61485.783798633
60250.555655464
59099.915806757
58029.03874587
57029.918977604
56096.675819062
55223.280949982
54407.471369921
53644.075668031
52929.650818243
52260.275678094
51634.052103859
51048.712688368
50500.981524397
49987.050531019
49503.202925113
49047.035949597
48616.51207436
48210.629234173
47828.662595842
47469.867839563
47133.337573741
46817.438156659
46520.470253398
46240.852880014
45976.968593319
45727.146170081
45489.396769577
45262.124530494
45044.7689784
44837.367675106
44626.543798169
1420870.2435026
9360481.3488329
6699655.7445188
4928093.5921128
3753016.2872045
2935686.7263108
2340504.2307482
1887010.7610472
1514292.0275264
1151645.5449419
775979.55924253
522251.01396952
409143.62305914
364135.21186426
346772.65958954
340287.57029057
338749.40033512
339480.99454068
341489.65537176
343977.83603857
346472.67096099
348695.89390314
350447.83273709
351604.69712942
352104.02784284
351959.85672758
351070.57984017
349502.11225287
347314.39811932
344573.02108361
341352.82493122
337736.08272512
333807.98934629
329661.78030839
325393.45716386
320925.88984754
316761.11868149
312964.89819458
309615.99061713
306787.32163839
304519.2199699
302824.89433905
301684.85085514
301059.1331427
300947.19870752
301176.81380046
301657.57961393
302339.47679289
303151.89138198
304030.05873894
304914.46438556
305753.46324058
306555.4011257
307119.7387498
307392.90470852
307403.75672844
307223.78457238
306728.6204072
305842.18577519
304577.07319238
302987.29042353
301096.13846764
298999.04234653
296787.7698081
294546.64381026
292230.28108139
289787.30148577
287103.57733692
284045.1910797
274125.34424322
275255.07792072
5193245.0347566
1812997.8526284
1556879.4033692
1384471.4999789
1211479.7149328
1046703.2413406
893866.03686363
755045.96132965
631731.84621455
527052.49486596
433842.1367777
357236.58913498
302551.10894147
256833.62792142
218226.22084096
189733.86789598
168446.17153262
152077.06320889
139064.41027389
128364.87716382
119357.39752394
111667.27624436
105029.28100607
99257.593125167
94209.362480166
89768.070053596
85833.601554525
82326.992120113
79191.82526906
76385.931065837
73866.217844103
71592.462793849
69531.079798071
67651.647052048
65927.389288107
64339.625668883
62868.755004429
61500.129119538
60224.586536639
59027.392926746
57898.858254374
56830.300992236
55819.055595157
54867.74339213
53973.079896611
53132.552436745
52341.549352727
51597.23878826
50897.137071853
50237.609890872
49615.875878489
49027.983708584
48471.670893245
47944.52248775
47445.038288456
46972.501883366
46526.15032406
46105.554805585
45709.346435616
45335.791621444
44983.240026319
44650.143778177
44335.338588145
44037.510524775
43755.079786669
43486.794712384
43231.696929224
42989.509424892
42786.792856547
2554570.2286669
9137339.056063
6504158.7943263
4808025.6111241
3683746.3603381
2900343.0432015
2328786.5086289
1892783.5247568
1537101.7752063
1200835.0438957
845482.51995998
572330.83614967
436964.51880348
379693.8376273
356393.73606345
347227.29224711
344641.0585901
344978.19003194
346974.010873
349606.80877902
352280.05774157
354660.32176585
356513.31995811
357709.49934124
358185.50120476
357956.16793418
356929.52751991
355184.27341617
352787.25365005
349809.02333667
346327.8921015
342428.38981733
338196.67445569
333728.77685683
329128.43700995
324093.27351387
319566.43673385
315436.58297437
311796.80033636
308748.86384339
306342.32239149
304601.30436506
303506.56144748
303036.9907888
303169.93455544
303639.14894147
304417.97722853
305429.63960578
306579.37821856
307785.78760502
308890.73225649
309830.64137539
310551.26562653
310897.53671574
310909.1195008
310722.21710533
310214.05993265
309337.71205557
308080.97328814
306430.49322708
304395.69331105
301969.68568638
299223.04186131
296208.0633619
293027.69605408
289731.18864903
286264.43306339
282578.93721392
278523.29642799
267249.71096969
267195.52478497
5837774.5935064
1657950.3362308
1368956.6874412
1235293.9156017
1115334.7320196
992372.49862694
872931.1941282
759602.59526869
654844.96779567
559244.09978466
476518.73834027
400884.86549176
335665.21554578
288713.16975255
250104.99728746
214171.5665911
186292.41622637
165288.84671128
149124.02377368
136330.40003451
125909.24683947
117188.84692261
109737.02848123
103289.05525916
97673.127409169
92754.132247817
88414.250961554
84558.241549322
81114.556819519
78027.711252063
75251.179995025
72744.706260838
70471.48911688
68400.580655457
66508.903525244
64778.88831572
63192.572240875
61732.858901926
60384.597634107
59130.606680039
57958.372774443
56859.091118394
55822.794363871
54843.712298285
53915.598421931
53032.036391257
52192.215949562
51395.846099975
50641.168954354
49926.547104721
49248.445445003
48605.533496131
47994.863263998
47414.228264222
46862.18515487
46337.734060268
45841.013086228
45370.646146719
44924.938103753
44502.148028151
44100.547675345
43719.157526006
43357.034714447
43012.850184673
42685.546516282
42373.965158106
42077.31406726
41795.220323673
41737.192666047
4356388.5158747
8793804.6930471
6278930.9185982
4670199.8549541
3602558.9206519
2857432.9952461
2312618.008439
1896448.7697968
1559290.3501247
1250165.8857284
923903.65829881
638450.05340224
476121.59354915
401964.8185481
369927.16133248
356486.61031022
351996.31871464
351573.54417385
353343.44821571
356028.19599038
358837.36714757
361332.38268876
363240.18462918
364410.12236153
364794.73716497
364373.4000772
363105.35206835
361075.41518908
358364.13969137
355052.35790737
351222.30269226
346959.75273673
342354.20606762
337499.84820108
332500.30541476
326825.28617045
321857.59142084
317320.0065457
313314.19684516
309980.09129834
307387.40911495
305578.38554208
304527.73370864
304281.56979421
304616.73468644
305383.65525139
306498.47827501
307856.04635744
309333.62397572
310802.87088599
311984.2812999
312789.18363825
313034.83186373
312947.78965015
312607.34750598
311896.82480011
310742.26039858
309055.95824519
306784.90626606
303912.94199759
300471.36450918
296489.478506
292058.56541492
287316.47986322
282362.73569031
277383.61250782
272390.64421273
267456.52435244
262394.73716033
250601.14714002
249500.58671499
7397412.9479545
1543034.1649154
1256706.0776068
1114854.7655463
1023002.8342721
929581.04351266
836611.24145649
744638.12747472
656087.39418144
573558.32077165
498800.1601251
431316.30399005
366701.75494197
311916.81988752
272980.01013701
239742.72021327
208167.11649979
181827.21367097
161609.2987839
145930.27140944
133496.79035272
123398.75487407
114979.57643567
107798.60373195
101582.56868611
96152.749654767
91376.985814133
87149.513602832
83387.26342222
80023.637079068
77002.273980855
74273.268667965
71796.014259009
69538.625326752
67475.680470967
65587.351304965
63857.393945659
62270.446497879
60810.761337827
59461.921089245
58211.079657466
57046.493470258
55956.647391245
54933.909079383
53972.281013412
53064.596670432
52206.557316741
51392.529464685
50616.549530266
49875.614649911
49166.005267028
48485.822616355
47835.42734413
47213.656201944
46620.446778311
46056.439171167
45520.34111866
45011.006473459
44526.399523059
44064.595387942
43624.574217042
43204.95351539
42804.648723582
42422.86396399
42058.256352752
41709.968312736
41377.569420054
41059.923387265
42938.442521304
7074364.5922434
8407110.8418838
6026087.1948044
4514808.1904331
3509379.7394461