/*--------------------------------*- C++ -*----------------------------------*\
| =========                 |                                                 |
| \\      /  F ield         | OpenFOAM: The Open Source CFD Toolbox           |
|  \\    /   O peration     | Version:  2312                                  |
|   \\  /    A nd           | Website:  www.openfoam.com                      |
|    \\/     M anipulation  |                                                 |
\*---------------------------------------------------------------------------*/
FoamFile
{
    version     2.0;
    format      ascii;
    arch        "LSB;label=32;scalar=64";
    class       volScalarField;
    location    "9e-05";
    object      p;
}
// * * * * * * * * * * * * * * * * * * * * * * * * * * * * * * * * * * * * * //

dimensions      [1 -1 -2 0 0 0 0];

internalField   nonuniform List<scalar> 
109340
(
389151.17283372
387606.37766958
384671.12913781
381146.7613025
377290.84123683
373313.76100783
369297.426602
365291.98088164
361384.77297601
357566.24643558
353782.19843708
350029.01496737
346310.25809762
342628.37332853
338985.07959141
335381.89878908
331818.25679755
328291.78326881
324797.70334363
321329.34877115
317876.70565653
314428.88431185
310973.4917397
307495.70929608
303975.75951233
300387.95606704
296698.00607755
292859.75055305
288809.80142585
284459.14503695
279679.64985327
274281.20107881
267976.52193642
260340.17407823
250783.51808695
238575.34051625
389388.77651877
387401.55143312
384109.69521025
380353.72747879
376395.13767838
372414.11627083
368462.79104369
364551.90580552
360677.7596505
356843.65644406
353044.01284693
349279.76715909
345553.37320251
341866.36229408
338219.73406189
334613.08934517
331046.46237837
327516.93286846
324018.92543913
320544.66502376
317083.92540482
313625.57265423
310156.84886055
306662.10765017
303120.43792923
299504.30090362
295776.91141146
291888.40638895
287769.77510678
283323.31109794
278406.5646549
272803.86094479
266176.59731314
258001.64917903
247424.57648746
233531.05191405
390262.11294769
387955.72293704
384327.25185128
380480.17816244
376553.22874875
372626.43436606
368692.53188219
364763.75243856
360864.98595774
357003.91676388
353179.58060446
349392.55516894
345644.67638947
341937.45872398
338272.44659225
334650.7229171
331072.00894469
327533.48252305
324029.09245422
320550.6883225
317087.26050186
313627.48474082
310158.45407441
306664.32757417
303124.04367434
299509.81533766
295784.72810207
291898.8092414
287782.89155339
283338.62938639
278421.96698117
272811.01953897
266139.01578345
257794.71981534
246684.5185992
231059.33566237
391481.14071858
388691.67704218
384873.23088655
380912.30982933
376904.95991174
372892.47759091
368889.33184708
364909.76542146
360970.18246189
357076.27226295
353227.5944194
349423.61434452
345664.49345614
341950.53348353
338281.96773702
334658.75578344
331080.1471903
327542.92256514
324040.11440731
320563.80166062
317101.52267421
313642.50399426
310174.17920888
306680.70606766
303141.56876656
299528.87416075
295805.79640444
291922.3829038
287809.30130026
283367.30329852
278450.38607951
272831.08911065
266105.75704604
257550.37254427
245672.73440253
227121.85279326
393411.4136175
389767.35025602
385380.08303553
381143.60973124
377024.86180973
372971.69338565
368955.06303426
364976.92681604
361040.90321241
357147.42521287
353298.12159581
349493.44794248
345733.74918853
342019.46655577
338351.08000416
334729.02422107
331153.5508297
327622.64992869
324122.60354434
320652.19115815
317193.68433136
313737.84968455
310272.66078389
306781.79168148
303245.81356821
299636.58584546
295917.38303364
292038.24131904
287929.49175789
283490.7685514
278570.41218211
272948.42469898
266173.43253769
257412.52697004
244672.59196723
221662.3183625
397038.17343745
390339.59037386
385500.08294071
381173.90549391
377049.94247878
373005.41557809
368999.20091924
365023.91147062
361085.82171629
357186.46286085
353328.56470253
349512.99990016
345740.3200471
342011.03167376
338325.69917612
334685.02431646
331089.99647
327546.93963518
324071.02856503
320595.21098597
317129.10787408
313666.24077627
310194.72191933
306698.86506347
303158.09359864
299544.59984828
295821.39541454
291938.49320536
287826.27785173
283383.92817632
278449.45671019
272830.20664976
266030.37164112
257170.38691257
243961.00790207
216105.10244415
223865.53119793
209174.51250903
196884.25426391
186894.79911106
178114.19320662
168576.29293078
158012.47609955
146332.62489242
133666.0384339
120288.08695425
106077.36501764
93048.24440243
80602.232895262
69092.964620203
59028.372385436
50263.812439561
42792.048072933
36491.638396418
31197.121941076
26792.458186169
23139.999201591
20084.059978706
17522.741215657
15374.85068708
13556.811472161
12024.675156489
10730.476685928
9571.5682564832
8632.5674532705
7778.7777201214
7050.2701801387
6419.6843023443
5846.7269974266
5367.3595563851
4915.8419559843
4540.6255253063
4182.1685083172
3882.3044306499
3595.4378046856
3351.0741916927
3120.811882948
2917.2916221025
2732.0998229815
2559.5025320908
2408.443827474
2261.8258119275
2136.3026258396
2012.8194539321
1905.9037588692
1803.7692050538
1709.5956156961
1622.5853649859
1541.8084464472
1466.8565089777
1397.0615641717
1331.9793929363
1271.16496783
1214.2834835485
1161.0196110985
1111.0874754405
1064.2060943974
1020.127167709
978.63202227845
939.52729223639
902.6343120783
867.79173026818
834.85828661992
803.71614059257
774.23761326433
746.08171648895
1147.2235871829
5030.3328618826
5824.5092163968
5940.0101181483
6009.3016160755
6061.7131376153
6099.4270861646
6120.4622848784
6116.1406136172
6074.7557258619
6009.8435664823
5943.2842427392
5877.7983914193
5812.1700531542
5738.4487390316
5679.8706088217
5628.0821358589
5585.1053287017
5555.5786432171
5532.1078658227
5518.643664948
5514.4409155846
5516.2453237619
5523.50597774
5535.7505392884
5552.0292780781
5571.4972468637
5593.4794276323
5617.4396171215
5643.0240610195
5669.9937931967
5698.1001260187
5727.3166135904
5757.689165384
5797.68405948
5830.5402352791
5863.78700533
5898.0227509565
5933.5342613384
5968.9182427189
6003.9747670341
6038.7657242204
6073.1234534638
6106.7027413089
6139.0842165867
6169.7713704255
6198.3259335333
6224.4370609034
6247.9432686
6268.9096652453
6287.8779957494
6306.278493609
6325.0473528034
6344.933888048
6364.7313697097
6381.5128340481
6391.4927968397
6396.4936940271
6396.6244253291
6391.8984402265
6377.5757159706
6356.3408816456
6322.6381029205
6292.4369115096
6259.4239479393
6233.1842673936
6214.8323159747
6188.1282577342
6204.1303282519
6230.6481401159
216313.96794235
200803.61897643
189193.532087
180164.62959848
170825.6098007
160981.78177088
150079.51589257
138275.29582126
125778.11052885
112842.64419529
99837.758145545
87079.047108478
75632.192080549
65133.137104399
55749.103643023
47617.085118636
40644.096107171
34742.226602801
29792.696342949
25654.743188993
22197.213662119
19308.302897084
16884.988944241
14842.158679065
13114.641695518
11646.164683126
10391.501626226
9314.8280064788
8383.9291087649
7578.4978808686
6874.114674517
6260.4813515526
5718.6635110543
5241.7482528301
4817.7463939895
4441.4082253052
4104.5246059198
3803.4938757583
3532.1273215388
3288.2413074069
3066.980284278
2867.2894403079
2684.9505636783
2519.6478876976
2367.9641779446
2229.7311129625
2102.4037678147
1985.6227786292
1877.8261251567
1778.3830239949
1686.3343042128
1600.9555122217
1521.7578401647
1448.1003521088
1379.5481368954
1315.5787285981
1255.8210408547
1199.907238944
1147.5295734015
1098.3982475924
1052.2575086157
1008.8671543342
968.00875581362
929.48564878792
893.1283322115
858.78917776625
826.33333257711
795.63652815112
766.58274450814
741.4452489781
2005.2573775544
5441.2806230367
5861.7415365536
5954.7044549656
6017.9617695571
6065.5701920646
6098.7459104666
6114.5373536167
6102.2976017024
6053.0470695863
5986.806509765
5921.4091244
5856.7316016467
5791.9857195209
5735.8409373257
5677.7418764779
5626.7369542244
5584.2414103417
5554.7810367336
5532.1374686307
5518.9854676455
5514.9497908197
5517.1187877691
5524.6965678144
5537.1686366519
5553.617692517
5573.2044515114
5595.2537993793
5619.2369611364
5644.8197439297
5671.7601865793
5699.8136464825
5728.947964978
5759.1972634821
5798.9713899878
5831.5610059
5864.6529938234
5898.5324390127
5933.6482914925
5968.7247990312
6003.5303851015
6038.0493448998
6072.0922399136
6105.3199711039
6137.3215264461
6167.6102425721
6195.7620127706
6221.4587439872
6244.5296737199
6265.0272268652
6283.471851165
6301.2864885261
6319.4910584419
6338.8917675035
6357.948970937
6374.1026284406
6383.7341624447
6388.7753829567
6388.9660591372
6384.3427599029
6369.9486306728
6348.647140908
6314.9993353176
6285.5148042172
6252.3511322786
6226.4499659474
6207.9526820973
6181.9158259888
6200.2707264082
6228.2326541788
209791.29528095
191501.53346233
180968.41388803
171645.37777743
161693.23435792
151462.18176279
140751.04848246
129490.3331412
117854.39659699
105728.18399629
94394.633945913
83173.709405758
72583.689447216
62869.898852404
54116.425006267
46414.881124966
39766.202091358
34112.44836623
29338.219672828
25314.993407387
21940.779308027
19115.272465746
16736.127428079
14726.010677994
13024.662174575
11575.470109793
10334.03874142
9268.5833254588
8347.4126080162
7547.2420413843
6849.9544293066
6238.4319017119
5701.5392751712
5226.0613985371
4805.5061665143
4430.0512308464
4095.6785727013
3795.1425207401
3525.6482053219
3281.9792797979
3062.2471526961
2862.5512850125
2681.3519125567
2516.0410550587
2365.0886802697
2226.9180749579
2099.9596213285
1983.4226751072
1875.7605365196
1776.5730553686
1684.6260091331
1599.5419346816
1520.4371570846
1446.8891195612
1378.4006341209
1314.5168756377
1254.8477518355
1199.0148462517
1146.7066124933
1097.6364006237
1051.5537511611
1008.2169265507
967.40589716115
928.92522235059
892.60894894871
858.30859926425
825.8884033178
795.22314919826
766.20188566003
741.26642708975
2044.2198449742
5454.5449099058
5865.0236167225
5956.3925532231
6018.5256068001
6065.0732472673
6097.2961414064
6112.3917177598
6100.0609844423
6050.985209916
5984.6597823227
5919.0533568237
5854.2580555506
5789.4996779636
5733.7964030273
5675.727011877
5624.8532409909
5582.4219133255
5552.2625766635
5529.797904261
5516.8050903396
5512.6345620484
5515.1346654346
5522.9332920125
5535.5826278234
5552.2091567591
5571.969214944
5594.1778419854
5618.2865363903
5643.9759331125
5671.0287301727
5699.1974254961
5728.4243947586
5758.7258704172
5798.503027194
5831.0221142417
5864.1949981458
5898.2699046037
5933.6104262534
5968.6701852275
6003.6944918414
6038.3996008474
6072.5873905382
6105.9464682051
6138.0782530672
6168.500901971
6196.7811948734
6222.5656437613
6245.6706300677
6266.1388148188
6284.4591349224
6301.9481244807
6320.1031694868
6339.1751584207
6357.4966215596
6373.3923656651
6383.2217730804
6388.844388425
6389.0193965848
6384.0314799161
6369.8775458239
6348.1999676626
6315.424873022
6286.3873560904
6253.0698385597
6227.5582658593
6206.8307389516
6181.9426421467
6204.301962277
6233.3608336854
197554.31764505
176243.2880073
166035.25620732
155736.70492699
146352.36241926
136489.94206513
126775.76146403
116916.71054106
106944.52739162
96504.602884729
87444.178747921
77882.088603326
68578.48269099
59877.686246868
51878.580842347
44783.278334516
38586.344307765
33240.429081158
28690.450666693
24846.891458722
21596.644923871
18844.38603017
16528.735690397
14568.468033354
12899.2966017
11474.703348782
10255.175188414
9204.0246726055
8294.6530517458
7504.1351047495
6814.4074644805
6208.7042300242
5676.0858749767
5205.1016732147
4787.2225141044
4415.0184583895
4082.4356549148
3784.0912318001
3515.8823426111
3273.8115435797
3054.9866256805
2856.2974985645
2675.914144833
2511.1871120758
2360.9098205542
2223.0380984098
2096.682623966
1980.3000893099
1873.0689178696
1774.0258879048
1682.3649444709
1597.4700035263
1518.578528726
1445.2217989623
1376.849155436
1313.0887663016
1253.5203204828
1197.7900095039
1145.5794297072
1096.6023076721
1050.599889543
1007.3314477538
966.58290684723
928.16425273291
891.90673352279
857.65767484792
825.28384339907
794.66133738057
765.6795857833
741.10465432613
2103.2101449724
5471.5836747215
5869.281180416
5958.4862388521
6019.1197633914
6064.2336478821
6095.1939409238
6109.4144549073
6096.9197173193
6048.0439053311
5981.5390445576
5915.5980809808
5850.6201201116
5785.7967536078
5730.4707882073
5672.3608129547
5621.6275847764
5579.6522221546
5549.3245702547
5527.3610877999
5514.7005666927
5510.7218451721
5513.5033906548
5521.6399362132
5534.6109338423
5551.5325045562
5571.5558101169
5593.9823174519
5618.261531059
5644.065704716
5671.1987713002
5699.4250626978
5728.6625041905
5758.9312126616
5798.5978104114
5830.9594566616
5863.9612923168
5897.8170710631
5932.8919156132
5967.7564397627
6002.6361047395
6037.2131497857
6071.2779202889
6104.5127151253
6136.5117039947
6166.795843191
6194.9028825104
6220.4621027428
6243.2830053933
6263.3937914625
6281.2631909432
6298.1981065297
6315.7462503871
6334.039705991
6351.5039839725
6366.9723973864
6376.7003029823
6382.4922703273
6382.8467798649
6377.9145725064
6363.7559474749
6342.1013543511
6309.8406496612
6281.2543141194
6248.0368267234
6222.9802204182
6202.0796114269
6179.9159240072
6203.6456495172
6235.0057724948
171089.02964885
151337.81855328
140119.30146435
130614.46805194
123418.11698207
116101.15789413
109129.99858386
102202.32140672
94964.994285128
87530.604768679
79729.723029796
71726.173858224
63834.979637538
56279.27518399
49237.393533639
42816.715828753
37124.601433159
32171.259999802
27899.94761359
24246.709725564
21143.045574543
18513.225794451
16267.852937184
14361.807082079
12738.313007138
11349.155377253
10152.543422506
9120.9925072915
8227.1660963679
7448.8509543729
6768.0271315677
6170.6296390065
5643.6421459647
5177.8321346503
4763.9744307535
4395.4414271665
4065.4107106286
3769.72455678
3503.3639763273
3263.1453347041
3045.552407139
2848.3006826526
2668.7302607622
2505.0088879928
2355.3362843481
2218.1646091131
2092.2803999541
1976.3303002514
1869.5306599752
1770.7817095952
1679.4719981708
1594.7769170258
1516.1631949495
1443.0332227524
1374.86675034
1311.2592947777
1251.8183638971
1196.219882196
1144.1351584199
1095.2736699219
1049.3704633786
1006.1912177353
965.52787202233
927.18955147222
891.00355865011
856.81911673881
824.50562476925
793.93825714754
765.00648280072
740.98768653484
2183.5009036525
5493.1194855737
5874.3546371631
5960.7952605613
6019.56742879
6063.0057575204
6092.4699045283
6105.5898645989
6092.8775452755
6044.2515897653
5977.4992138176
5911.1031280941
5845.8800445171
5781.0147203506
5726.1404314917
5668.0803156721
5617.5508284826
5575.9667253072
5545.5150612963
5523.9636064846
5511.6889927421
5508.0174834424
5511.1655534688
5519.7409800884
5533.147800583
5550.480550995
5570.8668378047
5593.5857621592
5618.0858980258
5644.0417377627
5671.2668966764
5699.5154188968
5728.7203798723
5758.9168111019
5798.3756796452
5830.5105288568
5863.2913092349
5897.0049317769
5931.8048619339
5966.5071471471
6001.2692241598
6035.7743202575
6069.7931373046
6102.9834764279
6134.9214111652
6165.1020746355
6193.0561095163
6218.3987854698
6240.9334732685
6260.675437751
6278.0786546881
6294.428180231
6311.2680896936
6328.8025483832
6345.6306349185
6360.7382465037
6370.4590137767
6376.4327132577
6377.2064405916
6372.4444788954
6358.3645313937
6336.7167346911
6304.678771758
6276.67459317
6243.4332309696
6219.1324109056
6198.1938725513
6177.0215226069
6201.1393403949
6236.3898295933
103581.15586061
99978.827726086
98733.208771369
98514.690757798
97299.362561023
94931.026223199
91613.561624665
87836.01274764
83067.278530188
77569.867511855
71525.740350576
65205.070620995
58733.378491389
52338.446455055
46244.385018952
40589.580856514
35469.738998607
30930.810850946
26970.359575453
23549.334901327
20612.709535991
18099.321717305
15957.69252298
14118.138871547
12544.543985084
11193.463612096
10030.574743187
9020.967830274
8144.5626438526
7381.0218936105
6712.2906936779
6123.5185133799
5604.3054882382
5144.689112581
4735.7916219329
4371.1514287193
4044.9371257615
3752.0373721007
3488.1031768922
3249.9111802626
3034.1676186534
2838.3302364184
2659.9556998351
2497.344941759
2348.520538327
2212.1602908704
2086.8230791144
1971.5089822543
1865.1562014049
1766.854169512
1675.8891570853
1591.5169018317
1513.2104017235
1440.3310847005
1372.4191729696
1309.011384014
1249.7565212249
1194.3190735107
1142.3760160939
1093.6434999061
1047.8631827961
1004.8022984285
964.24464503052
925.99778410045
889.89551826204
855.79341798044
823.55572160266
793.05455210014
764.18675528153
740.9747236101
2284.6926498232
5519.6414627503
5880.4689344223
5963.2824325635
6019.7907613951
6061.3133420741
6089.1034605701
6100.964142966
6087.9684167045
6039.6524230656
5972.5944728335
5905.619291255
5840.0933586582
5775.1749689773
5720.7171050387
5662.7638300745
5612.5480363469
5571.46982509
5541.0953958214
5520.0169990231
5508.2417311671
5505.0306122663
5508.6456431614
5517.7474585756
5531.6560622639
5549.4374149455
5570.1991975042
5593.2150029399
5617.9377442764
5644.0455470948
5671.3475118268
5699.6125160058
5728.7613361249
5758.8789050216
5798.0331119864
5829.9823291288
5862.5394625227
5896.0702326377
5930.547864033
5965.0558645274
5999.6596559725
6034.0402567623
6067.9449039902
6101.0078841185
6132.7896042575
6162.7740033842
6190.4792350579
6215.4920112048
6237.6023286647
6256.8037165378
6273.5264152215
6289.0247799458
6304.8171523765
6321.3739928887
6337.4923280993
6352.253906619
6361.9957717149
6368.1265583773
6369.3548377992
6364.9386895175
6351.1344785406
6329.5395661121
6297.7656037496
6270.2443440129
6237.0940539799
6214.0673259822
6192.80637286
6174.2834804969
6199.2309721472
6239.3975686476
10094.520088409
46044.873636255
60040.6249707
68554.83997148
73729.743913645
76088.283240668
76075.709644461
74613.250141714
72079.672211068
68649.438372465
64523.612663299
59851.200564985
54798.698461585
49564.495427119
44363.905660717
39384.255378619
34747.101104973
30541.13019819
26798.590878321
23515.096979994
20661.537867875
18197.170747261
16074.278043328
14254.126181237
12681.943917235
11323.355427223
10152.015599298
9137.3217769669
8252.8790028343
7478.9206281278
6801.9171086119
6206.7821078651
5680.4045966176
5213.6125110435
4799.0871779262
4429.3216317318
4097.9772718624
3800.6279481158
3532.9609395282
3291.1638226378
3072.0664975027
2873.2717298776
2692.325995032
2527.2277536692
2376.1280862832
2237.7348110474
2110.5718495416
1993.5713854582
1885.6126181901
1785.9032051366
1693.6433366031
1608.10492604
1528.6766511358
1454.7753055865
1385.9641202712
1321.7435239539
1261.7215843624
1205.5453499743
1152.9262557349
1103.5827685581
1057.240246486
1013.6543035163
972.60886015084
933.91708943966
897.40771579487
862.92681410527
830.33533862731
799.50830608983
770.30564865427
742.63539521197
1377.8700755935
5231.4084487407
5854.9781644512
5949.8472046466
6007.772954932
6050.5416447872
6079.8945876001
6094.6858021156
6088.7011521935
6049.1552982297
5984.1678229887
5915.8820940715
5849.7238868208
5784.4363474966
5714.3288689473
5656.5630629598
5606.7196117283
5566.1554583337
5536.0059016466
5515.4152370827
5504.2192882978
5501.5906238423
5505.7567486843
5515.4597139826
5529.9363030412
5548.217160998
5569.3967066784
5592.7445665142
5617.7167079323
5643.9965982551
5671.3938848392
5699.6712285228
5728.7448384016
5758.727170317
5797.3539677785
5828.7660467468
5860.9164404296
5894.1349830779
5928.1118923124
5962.303049348
5996.6005918019
6030.7185820186
6064.3686876235
6097.1575161829
6128.6157278275
6158.1939733647
6185.3915946493
6209.7641493748
6231.08634533
6249.3181807032
6264.8449523101
6278.8508437524
6292.7586826859
6307.6182042735
6322.6352631476
6336.9015083146
6346.6648752824
6352.9886931278
6354.8396735913
6351.0183155843
6337.7406041257
6316.2117126982
6284.6080456673
6257.4952016379
6224.7525325425
6203.3903513747
6182.9830983919
6167.6526948412
6193.4851787375
6244.0168198267
7941.2018827124
14671.378879033
25095.134633095
33688.92267721
40424.29014344
45382.556709706
48646.648667902
50586.335878497
50755.242160687
50028.029007801
48509.378871594
46227.920851914
43398.331190913
40156.91337792
36694.520119012
33194.543259984
29792.01819503
26585.756969404
23644.978239682
20997.711859626
18644.469438594
16572.941308061
14758.918382734
13174.786321004
11794.65011718
10594.309263914
9545.3205555131
8624.4757002378
7819.1985719789
7112.1310488337
6489.2556421562
5936.646085943
5447.1017376261
5011.7385128023
4623.2118448166
4274.6319264273
3961.9516989441
3680.561158833
3426.5423205653
3196.3206068689
2987.3680472065
2797.3620999606
2624.1032088507
2465.5993352857
2320.3705137977
2187.0920325438
2064.5150241649
1951.4858320383
1847.0996840106
1750.5862533003
1661.1811274428
1578.2180154166
1501.0669925636
1429.2457625336
1362.2835693147
1299.7685439572
1241.306780431
1186.5495687173
1135.2108507673
1087.0211843601
1041.7360038951
999.12371534267
958.97960306205
921.12060423666
885.38225709697
851.61674150149
819.6911847009
789.49956861398
760.87212115771
742.12824667515
2726.0702867055
5626.0911806099
5907.1141000919
5972.4631287339
6019.0481438101
6053.2741798494
6075.1507982926
6082.5674630002
6068.3379403459
6021.419313956
5953.3089073917
5883.8885490862
5817.0566753149
5751.9934151964
5698.7770021554
5641.7093079593
5592.8227302591
5553.4274905888
5524.1946419744
5504.7887187431
5495.0790458101
5493.9604938568
5499.4655330546
5510.5664318806
5526.3113113455
5545.663280547
5567.7024854694
5591.7105595626
5617.158194254
5643.7390871351
5671.2814823041
5699.5591699379
5728.4849936519
5758.0792435306
5796.0916703994
5826.9559429448
5858.5782161328
5891.3608653575
5924.7298234531
5958.5193693352
5992.4182725805
6026.1859995491
6059.4756141819
6091.8425950883
6122.7749019027
6151.6827722518
6178.0592878664
6201.4109405363
6221.4992582814
6238.2326316183
6251.9350184447
6263.6541327336
6274.7315704465
6286.8565071602
6300.1216719153
6313.3895632048
6323.2804133461
6330.0039649413
6332.6694545387
6329.7554989103
6317.589492062
6296.4788300755
6264.8875081462
6237.8673761481
6205.0497205243
6186.6896274278
6167.5963713088
6158.5282545385
6185.2941712128
6254.8490625926
7683.2536308283
8429.1992702996
12973.197207641
18440.273612469
23484.631062072
27788.304363367
31252.506296279
33847.921212181
35648.966405763
36541.605935406
36490.547102995
35835.973027778
34565.224683862
32805.982790771
30677.602196106
28337.631765169
25917.346610044
23519.910788973
21228.124677616
19092.450050176
17141.477520986
15383.047739757
13813.01570788
12419.524356038
11186.997150503
10099.883767525
9141.2759770167
8295.5348772335
7549.2363627625
6887.2785962669
6299.8798048072
5778.3276287085
5313.6235866531
4898.8969589368
4526.2770316513
4191.6903874106
3890.6173107138
3618.996231685
3372.910211109
3149.4590179495
2946.4928689143
2761.4880848468
2592.4491107456
2437.486275815
2295.4594769373
2164.9008846272
2044.6751939462
1933.6622670958
1831.0615737773
1736.1308235211
1648.1191069892
1566.3629005353
1490.2799987567
1419.4227170033
1353.3204365913
1291.5625579549
1233.7757047197
1179.6317641918
1128.8567296234
1081.1726869686
1036.3314097213
994.11779844717
954.33556628819
916.81809216056
881.40098585238
847.93549109247
816.28883631173
786.31644200128
757.90476663508
747.30823855476
3158.5072945229
5705.1417795159
5927.7758932562
5979.5157700599
6017.3896596483
6045.4697999543
6062.6782186191
6066.6353347885
6051.019929034
6005.7414256186
5937.2378620517
5865.7239736805
5797.6375471679
5732.4658039177
5680.1647029185
5624.0337410102
5576.3797359698
5538.4107589951
5510.6543185392
5492.7886342367
5485.059436211
5485.6877355288
5492.8250917885
5505.5286198042
5522.6504373775
5543.1085589819
5565.9949975916
5590.5967042853
5616.4125133534
5643.159165756
5670.6828192517
5698.7716992983
5727.3764991487
5756.5681678322
5793.7216854799
5824.06311843
5855.0937952301
5887.4027475623
5920.2113164475
5953.6464260653
5987.2045653902
6020.6721559207
6053.6260904678
6085.5635308995
6115.9475437546
6144.1595494764
6169.724464245
6192.0841827013
6210.9907889624
6226.2820486408
6238.2305346178
6247.7637742548
6256.0476729819
6265.0702943758
6276.1186848885
6288.1815107654
6298.3795599431
6305.627883891
6308.9352205006
6306.9476460258
6296.2224772219
6275.849907503
6243.967924628
6216.0622622154
6183.7466010661
6166.993795144
6150.5773398194
6147.2246245545
6176.2213446711
6269.7064290909
7003.1722151367
6989.4041801087
8435.9772150718
11602.397771493
15079.892739086
18358.964921952
21267.330516341
23715.541145023
25656.043533409
27014.624074763
27706.982361787
27804.662601704
27466.69610505
26613.435336327
25424.140139666
23943.809352765
22295.32618176
20572.120544293
18843.525006885
17171.62395071
15596.491477806
14139.835933519
12809.974551751
11607.684809335
10527.412894032
9560.6289175014
8698.1659603899
7929.4083911785
7244.036772009
6632.6922196183
6087.0847596521
5599.1856800203
5161.3596685039
4767.9593160077
4414.4207196329
4095.8795271407
3808.2318590677
3546.9910110431
3310.001682386
3094.6695352725
2898.4183979192
2719.1991518227
2554.8337696065
2404.268904653
2265.9288182403
2138.6175432782
2021.086129131
1912.462041178
1812.035167946
1718.9628872579
1632.5950151174
1552.2365146691
1477.4376377437
1407.7249864204
1342.6415404461
1281.7898262993
1224.7922505537
1171.3745430622
1121.2581838224
1074.1728813729
1029.8806776638
988.15608056303
948.81749963788
911.70673971207
876.66378749534
843.54200231538
812.1986370035
782.50498069671
754.28024436513
766.69392209691
3692.9625103865
5780.2656729316
5945.6414991395
5984.793884973
6013.8804505129
6035.3648951234
6047.4891916202
6047.62415139
6030.2977184658
5987.0165407565
5918.9509817486
5845.3037393573
5775.5961615477
5710.2529023497
5659.0134907705
5604.0442833655
5557.9261947067
5521.7338816231
5495.9584407881
5480.1503951162
5474.6690685373
5477.2443075337
5486.3815907069
5500.8798708279
5519.4808244812
5541.0755264046
5564.7591289543
5589.8120311659
5615.7545827238
5642.3698680087
5669.5866524938
5697.1854632653
5725.155324462
5753.595898423
5789.2949778903
5818.8332679093
5849.0447717309
5880.8440097047
5913.1258018215
5946.2978693623
5979.6207386195
6012.903114733
6045.6604985181
6077.3401414882
6107.3927780394
6135.1524129705
6160.1905399511
6181.829401437
6199.7988217443
6213.8429358228
6224.1531668337
6231.4692931135
6236.8463464143
6242.1491703046
6249.6950916757
6260.0062779764
6269.9719227146
6277.7838579284
6281.7015133961
6280.7862337516
6271.9368272548
6252.7947178902
6220.5825548151
6191.6391332514
6160.2732461967
6145.2169124438
6132.3350762161
6134.3209412924
6166.8702434418
6286.0419183533
6360.2725296947
6359.9015034631
6591.3573135453
8172.2867576709
10486.643522515
12886.722302131
15174.524367439
17239.389566345
18989.855056598
20361.406806704
21383.720455896
21983.767887484
22004.772186341
21652.416969493
21056.487057918
20175.208466519
19099.480109073
17886.172027435
16614.652555045
15334.476765802
14088.074006752
12903.711559623
11796.694585482
10775.18613044
9841.7012603386
8994.078816922
8227.9856513706
7537.5748276438
6915.9975970574
6356.766599891
5853.617035061
5400.6173990524
4992.3515234722
4623.9186177256
4290.5749380521
3988.4996717397
3714.6370290674
3465.8559529093
3239.3889532588
3032.9135507944
2843.8086795431
2670.6670679658
2512.0520092702
2366.2945967905
2232.2157890351
2108.3303429426
1993.9287143292
1888.1641833507
1790.1533289879
1699.2474163347
1614.6575034168
1535.9637586649
1462.6516795706
1394.2463615586
1330.3231366433
1270.4641515193
1214.4106410982
1161.8477822458
1112.4887654455
1066.088994227
1022.4042387284
981.24580884216
942.44277174428
905.80576185566
871.18752760975
838.43833088833
807.42297994066
778.04039231728
750.17833501219
814.10551656829
4273.8754062142
5849.4168826206
5959.6099719453
5986.2627516484
6007.0821483623
6022.1062519089
6029.0205412366
6025.2502081629
6005.9457953399
5964.2220952613
5898.3722058051
5823.122991256
5751.5347693303
5685.8644616807
5635.7769017346
5582.20339532
5537.9671702152
5503.9516979567
5480.5792658101
5467.4177598036
5464.2816142682
5469.2886037348
5480.7317052551
5497.2335291565
5517.4532352407
5540.2470504677
5564.6006981466
5589.8837953476
5615.690082337
5641.7927805432
5668.2273897341
5694.9141050461
5721.8079985955
5749.0333910718
5782.9509539481
5811.4765659202
5840.5115425836
5871.7278022417
5903.5029282289
5936.5229145024
5969.7933652167
6003.1129056659
6035.9447843353
6067.6700499733
6097.6978034656
6125.2359410289
6149.8878690518
6170.8061134832
6187.7293223607
6200.354676329
6208.7877481464
6213.7284191097
6215.9870359667
6217.4779002431
6220.4274023809
6227.8922793109
6237.3423136457
6246.4779758626
6251.541223412
6253.2264738473
6247.130091394
6229.364775237
6197.424810013
6167.6505494126
6136.9324043166
6122.1186398338
6111.4188516136
6117.9036597747
6156.5885496213
6299.1049887768
5840.9439487048
5818.8093612215
5778.6748971159
6366.4632750284
7802.4342434922
9537.2527245881
11295.189199337
12967.208893884
14446.695609697
15709.260757913
16751.918149766
17392.855168123
17691.867796236
17720.288581964
17513.939649943
17016.92088146
16332.689323317
15507.547613514
14594.150529317
13630.764836998
12659.925646905
11709.988529917
10801.225623432
9946.1000957819
9150.5739371223
8416.7391659828
7743.9105161944
7130.221579643
6572.226632117
6065.5499984901
5605.8807539165
5188.9318626278
4810.7143548189
4467.4208323931
4155.443080314
3871.6292758285
3613.1460243342
3377.1472308139
3161.2845968867
2963.9044740528
2783.0692223895
2617.1697359283
2464.7265262317
2324.0241601139
2194.2208946546
2074.4290960041
1963.5962270391
1860.9650728597
1765.6149340101
1676.928758381
1594.4990510763
1517.676329774
1446.0238551932
1379.050895765
1316.3666413996
1257.7171903115
1202.7255900512
1151.1148487908
1102.60677893
1056.9466065512
1013.9641108077
973.45345390628
935.22383000025
899.12459001988
864.97583060323
832.65182681019
802.05191459038
773.05123123284
745.34961572584
945.43096252791
4810.8715474432
5899.6260739171
5966.0796694905
5982.2685706116
5995.5455710914