/*--------------------------------*- C++ -*----------------------------------*\
| =========                 |                                                 |
| \\      /  F ield         | OpenFOAM: The Open Source CFD Toolbox           |
|  \\    /   O peration     | Version:  2312                                  |
|   \\  /    A nd           | Website:  www.openfoam.com                      |
|    \\/     M anipulation  |                                                 |
\*---------------------------------------------------------------------------*/
FoamFile
{
    version     2.0;
    format      ascii;
    arch        "LSB;label=32;scalar=64";
    class       volScalarField;
    location    "9e-05";
    object      pTsat;
}
// * * * * * * * * * * * * * * * * * * * * * * * * * * * * * * * * * * * * * //

dimensions      [1 -1 -2 0 0 0 0];

internalField   nonuniform List<scalar> 
109340
(
389151.15719794
387606.39421842
384671.13373381
381146.76249747
377290.84133456
373313.76062578
369297.42592749
365291.98140156
361384.77399622
357566.24726447
353782.19908293
350029.01547731
346310.25849081
342628.37362954
338985.07982579
335381.89897154
331818.25692249
328291.78335481
324797.70338743
321329.34878802
317876.7056432
314428.88427788
310973.49168949
307495.70923113
303975.75943769
300387.95598523
296698.00599543
292859.75047617
288809.80135025
284459.14496474
279679.64978589
274281.20101698
267976.52187906
260340.17402436
250783.5180389
238575.34047529
389388.7792168
387401.55856227
384109.69707212
380353.72804677
376395.13772301
372414.11632643
368462.79171518
364551.9064831
360677.76017275
356843.6568376
353044.01313904
349279.76737455
345553.37339051
341866.36242002
338219.73414664
334613.08939616
331046.46239094
327516.93285985
324018.92540786
320544.66497123
317083.92533753
313625.57257093
310156.84876594
306662.10755041
303120.43782525
299504.30079831
295776.91130064
291888.40628088
287769.77500453
283323.3110019
278406.56456668
272803.86086298
266176.59723367
258001.6491112
247424.57645059
233531.05189033
390262.11300152
387955.7260089
384327.25319739
380480.17908031
376553.22962144
372626.43506051
368692.532409
364763.75283754
360864.98624603
357003.91699015
353179.58079528
349392.55533806
345644.67653278
341937.45885393
338272.44670808
334650.72301858
331072.00902916
327533.48258929
324029.09250333
320550.68835728
317087.26052701
313627.48475273
310158.45407889
306664.32756928
303124.0436664
299509.81532646
295784.7280881
291898.80922758
287782.89153147
283338.62936564
278421.96695784
272811.01951124
266139.01575156
257794.71977852
246684.51855848
231059.33561095
391481.13687036
388691.6787743
384873.2325413
380912.31064043
376904.96041665
372892.47795113
368889.33215247
364909.76567554
360970.18266474
357076.27240641
353227.59451393
349423.61440602
345664.49349079
341950.53349978
338281.96774791
334658.75578481
331080.14719164
327542.92256163
324040.11440244
320563.80165237
317101.5226683
313642.50398954
310174.17919994
306680.70606186
303141.56875269
299528.87414907
295805.79639323
291922.38289052
287809.30128521
283367.30328579
278450.38606517
272831.08909223
266105.75702364
257550.37251472
245672.73436678
227121.85274499
393411.41035542
389767.35132926
385380.08336684
381143.60978834
377024.86179242
372971.69337014
368955.06304631
364976.92682838
361040.90322799
357147.42522351
353298.12160122
349493.44794733
345733.74918715
342019.46655718
338351.08000373
334729.02421982
331153.55083043
327622.64993361
324122.60354602
320652.19115987
317193.68433671
313737.8496922
310272.66078716
306781.79169243
303245.81357699
299636.58583838
295917.38303125
292038.24131695
287929.49175763
283490.76855085
278570.41214941
272948.42470211
266173.43252645
257412.52694998
244672.59193158
221662.31831031
397038.17067415
390339.59060583
385500.08300061
381173.90551193
377049.94248579
373005.41558222
368999.20083184
365023.9114944
361085.82172812
357186.46286462
353328.56469778
349512.99989552
345740.32004626
342011.03166311
338325.69916277
334685.0243014
331089.99645684
327546.93962404
324071.02854614
320595.21096634
317129.10785202
313666.2407579
310194.72190073
306698.86504439
303158.09357875
299544.59982508
295821.39539157
291938.49317933
287826.27782528
283383.92814701
278449.45627477
272830.20671806
266030.37160391
257170.38685475
243961.00782487
216105.10234625
223865.53124719
209174.51247194
196884.25412158
186894.80064023
178114.19351641
168576.29308933
158012.47621073
146332.6247139
133666.03845494
120288.08426657
106077.37342903
93048.246105059
80602.230107717
69092.965471512
59028.371651043
50263.813016627
42792.047851763
36491.638167604
31197.122159284
26792.458084354
23139.999047927
20084.059913929
17522.740572337
15374.847808424
13556.810267837
12024.686849056
10730.473794951
9571.5656976082
8632.537257782
7778.7656586979
7050.296620939
6419.6738008518
5846.7423534629
5367.3530087883
4915.8466902412
4540.6200907905
4182.172727334
3882.3001392947
3595.4479767964
3351.070689146
3120.8249542874
2917.2871107379
2732.0909610792
2559.4989899346
2408.4501362842
2261.8233955478
2136.3007281998
2012.8190538073
1905.9023999627
1803.7701654624
1709.595234388
1622.5854284054
1541.8083870865
1466.8564980076
1397.0615176566
1331.9793671204
1271.1649301962
1214.2834525804
1161.0195770379
1111.0874448111
1064.2060650907
1020.127142917
978.6320024378
939.52727874244
902.634302565
867.79171988945
834.85827693297
803.71613118056
774.23760011622
746.08160824611
1147.2285344153
5030.3399523588
5824.5095820741
5940.0100774147
6009.3014919088
6061.7130286552
6099.4270672887
6120.4623495295
6116.1407504785
6074.7558702039
6009.8436280216
5943.2843028109
5877.7984579863
5812.1700487303
5738.4484755556
5679.870635888
5628.0821556467
5585.1053516952
5555.5785981228
5532.1078500778
5518.6436172838
5514.4408670096
5516.2452670841
5523.5059163933
5535.7504774621
5552.0292184265
5571.4971910949
5593.4793771236
5617.4395722014
5643.0240224059
5669.9937593557
5698.1000963413
5727.316587942
5757.689149003
5797.6840541592
5830.5402255999
5863.7869989958
5898.0227532695
5933.5342552763
5968.9182424024
6003.9747696402
6038.7657271755
6073.12345586
6106.7027426784
6139.0842163003
6169.7713674854
6198.325927196
6224.4370504721
6247.9432531973
6268.9096448649
6287.8779716488
6306.2784670117
6325.0473293194
6344.9338728906
6364.7313515872
6381.5127905268
6391.4927190328
6396.4935783123
6396.6242797426
6391.8982579426
6377.575478151
6356.3405847167
6322.6377580181
6292.4365635486
6259.4235909186
6233.1839222561
6214.8319649117
6188.1279030785
6204.1298995005
6230.6480828519
216313.96799143
200803.61897119
189193.53499022
180164.65330396
170825.59767391
160981.76836788
150079.51820252
138275.29573251
125778.11049565
112842.64558275
99837.757598111
87079.046232899
75632.193061035
65133.136633526
55749.10366085
47617.085156594
40644.096020465
34742.226682636
29792.696210325
25654.743153438
22197.213645643
19308.30283786
16884.988936159
14842.158843923
13114.6417855
11646.163550846
10391.501229745
9314.8298906828
8383.9280206742
7578.4988906253
6874.1132826209
6260.482212661
5718.6625576326
5241.7490286629
4817.7458064548
4441.4088517158
4104.5240661592
3803.4943536613
3532.1266631927
3288.2415802576
3066.9795986777
2867.2895905623
2684.9500254364
2519.6480378763
2367.9637807306
2229.7314746777
2102.4039679977
1985.6230204201
1877.8262328231
1778.3828849485
1686.3343552302
1600.9554607914
1521.7578119923
1448.1003288912
1379.5481002566
1315.5787002197
1255.8210069508
1199.9072087828
1147.5295412474
1098.3982181728
1052.2574803835
1008.8671302288
968.00873586061
929.48563393778
893.12832160993
858.78916974824
826.33332214104
795.63651528396
766.58272860844
741.44539750072
2005.2472039203
5441.2835219626
5861.7416580495
5954.7044182095
6017.961689284
6065.5701396791
6098.7459324545
6114.5374317912
6102.297757803
6053.0472062021
5986.806576891
5921.4091526205
5856.731634545
5791.9858013537
5735.8407222322
5677.7418958597
5626.7369694876
5584.2414354327
5554.7810230898
5532.1374797433
5518.9854581378
5514.9497716316
5517.1187591759
5524.69652999
5537.1685938945
5553.6176480543
5573.2044075752
5595.25375756
5619.2369232098
5644.8197097698
5671.7601554427
5699.8136186499
5728.9479401615
5759.1972486071
5798.9713834407
5831.5609927086
5864.652985692
5898.5324319353
5933.6482913004
5968.7247962922
6003.5303829202
6038.0493415737
6072.09223522
6105.3199652243
6137.3215192346
6167.6102335624
6195.7620016694
6221.4587300649
6244.529656191
6265.0272058524
6283.4718269589
6301.2864617215
6319.4910364249
6338.8917463198
6357.948944324
6374.1025830627
6383.734086379
6388.7752793534
6388.9659166459
6384.342583583
6369.9484013211
6348.646858407
6314.9990013274
6285.5144699172
6252.3507884624
6226.4496288762
6207.9523394972
6181.9154725516
6200.2703069644
6228.2326107635
209791.2952912
191501.53338619
180968.41322634
171645.37900523
161693.22431905
151462.20873945
140751.04898058
129490.33324017
117854.3965827
105728.18444725
94394.633696305
83173.709587298
72583.689378449
62869.898845522
54116.425040522
46414.880966561
39766.201903634
34112.448598795
29338.219644606
25314.993289201
21940.77935065
19115.27237971
16736.127390701
14726.010715271
13024.662192712
11575.469964219
10334.038691906
9268.5836606649
8347.4121436624
7547.2423170022
6849.954091509
6238.4319945873
5701.5391867176
5226.0614071528
4805.5061567373
4430.0512059054
4095.6785711825
3795.1425443111
3525.6481735963
3281.979378658
3062.2470530469
2862.551437081
2681.3517529336
2516.0411897124
2365.088508804
2226.9181505781
2099.9594838458
1983.4227091654
1875.7605072374
1776.5730473093
1684.6260063126
1599.5418943472
1520.4371557899
1446.8890789864
1378.4006103436
1314.5168450156
1254.847722672
1199.0148167133
1146.7065826198
1097.6363720567
1051.5537240166
1008.2169030651
967.4058779698
928.9252082521
892.60893840421
858.30858959167
825.88839206032
795.22313499061
766.20186885325
741.26658007651
2044.2102570079
5454.5477343984
5865.0237646088
5956.3925640129
6018.5255693604
6065.0732217794
6097.2961695593
6112.3917919185
6100.0611280399
6050.985329913
5984.6598273252
5919.0533582176
5854.2580538902
5789.4997141578
5733.796155528
5675.7270589708
5624.8532823617
5582.4219276953
5552.2625561252
5529.7978882824
5516.8050589352
5512.6345292027
5515.1346244913
5522.9332452979
5535.5825793032
5552.2091092257
5571.9691703142
5594.1778015552
5618.2864999646
5643.9759018789
5671.0287034107
5699.1974029659
5728.4243760359
5758.7258606085
5798.5030259803
5831.0221117522
5864.1949959571
5898.2699055917
5933.6104283793
5968.6701877643
6003.6944946214
6038.3996038455
6072.5873935368
6105.946470846
6138.0782544213
6168.5009019616
6196.7811922502
6222.5656378353
6245.6706200826
6266.1388012003
6284.4591172144
6301.9481066912
6320.1031507191
6339.1751466888
6357.496601871
6373.3923271402
6383.2217049488
6388.8442873736
6389.019259449
6384.0313080439
6369.8773243353
6348.1996946392
6315.4245532271
6286.3870303236
6253.0695146652
6227.5579467857
6206.8304073356
6181.9423033243
6204.3015541328
6233.3608084275
197554.31762238
176243.28815165
166035.25642409
155736.65973295
146352.35744583
136489.9374507
126775.76138112
116916.71040785
106944.52744364
96504.60297913
87444.178958057
77882.088571139
68578.482543492
59877.686278026
51878.580706627
44783.278312702
38586.344329142
33240.429017984
28690.450625499
24846.891398806
21596.64500691
18844.385925904
16528.735682696
14568.46807303
12899.296589652
11474.703340368
10255.175024497
9204.0247409043
8294.6530140871
7504.1349180474
6814.4075818991
6208.7040005739
5676.086065948
5205.1014451289
4787.2226749868
4415.0182623133
4082.4358073127
3784.0910712155
3515.8824781005
3273.8114156763
3054.9867249038
2856.2974132518
2675.9141899294
2511.1870947512
2360.9098098018
2223.0381403274
2096.6825660004
1980.3001512154
1873.068845986
1774.0259344412
1682.3649005287
1597.4700101597
1518.5785013419
1445.221772469
1376.849135358
1313.0887366939
1253.520296154
1197.789981006
1145.5794024669
1096.6022801199
1050.5998638571
1007.3314251363
966.58288861987
928.16423905606
891.90672230274
857.65766426661
825.28383154845
794.66132161071
765.67956633567
741.10483799905
2103.2004710099
5471.5863673028
5869.2812959159
5958.4862675771
6019.1197561335
6064.2336453114
6095.1939772766
6109.4145311745
6096.9198587948
6048.0440256379
5981.539091915
5915.5980834887
5850.6201169792
5785.7967923152
5730.4705236498
5672.3608513815
5621.627618217
5579.6522342585
5549.3245600017
5527.3610792642
5514.7005430985
5510.7218168804
5513.5033543631
5521.6398933847
5534.610888656
5551.5324598084
5571.5557676565
5593.9822785326
5618.2614962993
5644.0656747442
5671.1987442225
5699.4250392441
5728.6624867417
5758.9312034264
5798.597810156
5830.9594499632
5863.9612895148
5897.8170717791
5932.8919158805
5967.7564425523
6002.636106571
6037.2131513695
6071.2779212055
6104.5127150009
6136.5117027548
6166.7958396186
6194.9028762275
6220.462092959
6243.2829914363
6263.3937729575
6281.2631684608
6298.1980824764
6315.7462262811
6334.0396856751
6351.5039553857
6366.9723501375
6376.7002291641
6382.4921708372
6382.8466402449
6377.9143983623
6363.7557262693
6342.1010842527
6309.8403335994
6281.2539933138
6248.0365047111
6222.9799018362
6202.0792822984
6179.9155826693
6203.6452244291
6235.0057245936
171089.02959608
151337.81860263
140119.30165517
130614.46202272
123418.11801512
116101.15764216
109129.99855161
102202.32102816
94964.994286113
87530.604777378
79729.72302163
71726.173784469
63834.979586206
56279.275102599
49237.393393783
42816.715846445
37124.601413637
32171.259932456
27899.94761843
24246.709676377
21143.045539441
18513.225709388
16267.853026777
14361.807100162
12738.312909225
11349.155360553
10152.543393954
9120.9924251434
8227.1661409804
7448.8507843081
6768.0271615909
6170.6295534694
5643.6421346512
5177.8320815455
4763.9744027304
4395.4414016148
4065.4107025743
3769.7245329476
3503.3639953427
3263.1452985251
3045.5524479881
2848.3006255077
2668.7303136479
2505.0088238606
2355.3363355187
2218.164564234
2092.280429948
1976.330290598
1869.530660623
1770.7817241778
1679.4719725261
1594.776927867
1516.1631618381
1443.0332161577
1374.8667232968
1311.259273876
1251.8183411559
1196.2198566974
1144.1351335327
1095.2736438209
1049.3704393299
1006.1911963049
965.52785484014
927.18953788208
891.00354694576
856.81910568913
824.50561134655
793.93823920858
765.00646073377
740.9879007983
2183.4920336141
5493.1219621983
5874.3546824497
5960.7952877952
6019.5674465385
6063.0057770133
6092.4699494717
6105.5899534103
6092.8776848624
6044.2517113626
5977.4992642796
5911.1031315622
5845.8800392803
5781.0147621624
5726.1401505838
5668.0803514201
5617.5508590341
5575.9667374635
5545.5150569397
5523.9635985815
5511.6889711231
5508.0174570481
5511.1655192537
5519.7409394116
5533.1477576629
5550.4805084636
5570.8667976765
5593.5857253245
5618.0858645408
5644.0417101659
5671.2668712618
5699.5153978559
5728.7203597763
5758.916803041
5798.3756817462
5830.5105257239
5863.2913089259
5897.0049345847
5931.8048662995
5966.5071515631
6001.2692286808
6035.774324052
6069.7931400189
6102.9834779113
6134.9214108781
6165.1020721669
6193.0561041068
6218.3987763298
6240.9334594095
6260.6754196368
6278.0786314723
6294.4281546739
6311.2680641648
6328.8025258262
6345.6306025011
6360.7381975278
6370.4589397291
6376.4326133116
6377.2063000417
6372.4443057158
6358.3643119082
6336.7164670788
6304.6784581999
6276.6742756039
6243.4329151278
6219.1320954204
6198.1935473894
6177.0211828274
6201.1389170745
6236.3897767371
103581.15584615
99978.827750691
98733.208623207
98514.689977693
97299.358769059
94931.026259594
91613.561413935
87836.012563082
83067.278662293
77569.867547845
71525.740357047
65205.07058795
58733.378423916
52338.446376165
46244.384981507
40589.580860026
35469.73892763
30930.810825429
26970.359574334
23549.334830207
20612.709510554
18099.321771732
15957.692548374
14118.138814975
12544.543951759
11193.463598689
10030.574720529
9020.9677654552
8144.5626065364
7381.0218731594
6712.2905909848
6123.5185276352
5604.3053759035
5144.6891380549
4735.7915248932
4371.1514677661
4044.9370476213
3752.0374060039
3488.1031106774
3249.9112092014
3034.1675729171
2838.3302481194
2659.9556742412
2497.3449353427
2348.5205479404
2212.1602718882
2086.8231090494
1971.5089591228
1865.1562305218
1766.8541531954
1675.8891660936
1591.5168928901
1513.2103869882
1440.3310763958
1372.4191489753
1309.0113712503
1249.7564986366
1194.3190529078
1142.3759927364
1093.6434764568
1047.8631608734
1004.8022786821
964.24462884204
925.99777084407
889.89550692634
855.79340635509
823.55570675203
793.05453344415
764.18674275132
740.97399541359
2284.6874793272
5519.6438169281
5880.4688861218
5963.2824402498
6019.790793558
6061.3133797824
6089.103515631
6100.9642332438
6087.9685561724
6039.652547317
5972.5945275693
5905.619296345
5840.0933509811
5775.17500589
5720.7168085373
5662.7638634764
5612.5480643088
5571.4698371867
5541.0953940395
5520.0169913458
5508.2417106286
5505.0305873339
5508.6456104817
5517.7474197843
5531.6560215854
5549.4373749317
5570.1991596279
5593.2149681535
5617.9377129756
5644.0455172315
5671.3474875313
5699.6124948271
5728.7613193097
5758.8788927479
5798.0331184879
5829.9823257583
5862.5394603603
5896.0702319756
5930.5478635247
5965.0558637407
5999.6596543042
6034.0402543288
6067.9449005086
6101.0078793133
6132.78959767
6162.7739942536
6190.4792224492
6215.4919941659
6237.6023060843
6256.8036881162
6273.5263809072
6289.0247421436
6304.8171127827
6321.3739555151
6337.4922820068
6352.2538452692
6361.9956873827
6368.1264489047
6369.3546879633
6364.9385088883
6351.1342506715
6329.539290697
6297.7652847732
6270.244022231
6237.0937363642
6214.0670090212
6192.8060461276
6174.283137108
6199.2305370129
6239.3975080866
10094.520129322
46044.873586962
60040.62465575
68554.839990734
73729.744279141
76088.283424197
76075.709840091
74613.250229293
72079.672418547
68649.43842639
64523.612691845
59851.200572283
54798.698385964
49564.495338556
44363.905631836
39384.255353851
34747.101049609
30541.130183207
26798.590858204
23515.096901334
20661.537837947
18197.170727341
16074.277970301
14254.126076471
12681.943850588
11323.355422406
10152.015562743
9137.3217276389
8252.8789744404
7478.9206052744
6801.9170427104
6206.7820931059
5680.4045217827
5213.6125018995
4799.0871248872
4429.3216352176
4097.9772215763
3800.6279529074
3532.9608922113
3291.1638344507
3072.0664502264
2873.2717355706
2692.3259559383
2527.2277574637
2376.1280664889
2237.7348098653
2110.5718552519
1993.5713769832
1885.6126351663
1785.903190933
1693.6433478806
1608.1049126903
1528.6766457982
1454.7752943525
1385.9641037862
1321.7435136871
1261.721564689
1205.5453342188
1152.9262349559
1103.5827483247
1057.2402266574
1013.6542852486
972.60884510915
933.91707744039
897.40770612906
862.92680454965
830.33532752952
799.50829109019
770.30561498919
742.63524944371
1377.8673984098
5231.4131788444
5854.9782172161
5949.8471606569
6007.772980281
6050.5416920917
6079.8946477888
6094.6858810813
6088.7012700012
6049.1554416427
5984.1679002842
5915.8821110884
5849.7238787304
5784.4363284224
5714.3285558938
5656.5630937557
5606.7196370588
5566.1554702015
5536.0059012094
5515.4152291266
5504.2192675121
5501.590599798
5505.7567180525
5515.459677574
5529.936264905
5548.2171233746
5569.3966711411
5592.7445338439
5617.7166785417
5643.9965721493
5671.393861967
5699.6712097447
5728.7448239808
5758.7271676261
5797.3539847377
5828.7660395416
5860.9164335912
5894.134977153
5928.1118860958
5962.3030427461
5996.6005845153
6030.7185739654
6064.3686784588
6097.1575054993
6128.6157150152
6158.193957584
6185.3915749424
6209.7641247217
6231.0863146193
6249.3181433937
6264.8449079432
6278.8507956067
6292.7586343825
6307.6181538213
6322.6352116344
6336.9014405949
6346.664787415
6352.9885778959
6354.8395230141
6351.0181299651
6337.7403697564
6316.2114298133
6284.6077193521
6257.4948744335
6224.7522121749
6203.3900340186
6182.9827732793
6167.6523472106
6193.4847373357
6244.0167554591
7941.2019059882
14671.378838844
25095.134678297
33688.92271259
40424.290061222
45382.556802971
48646.648586046
50586.336035914
50755.242264248
50028.029516069
48509.378280923
46227.920927449
43398.331138321
40156.913354011
36694.520112976
33194.543192013
29792.018173607
26585.756907846
23644.978203473
20997.71182992
18644.469406587
16572.941258934
14758.918349458
13174.786321678
11794.650105507
10594.309227499
9545.320512308
8624.4757051377
7819.1985280428
7112.1309961714
6489.2556074642
5936.6460380455
5447.1017034457
5011.7384796383
4623.2118239019
4274.6319069796
3961.9516880166
3680.5611437471
3426.5423138165
3196.3205813951
2987.3680356586
2797.3620715674
2624.1031979352
2465.5993087788
2320.3705065826
2187.0920204328
2064.5150197301
1951.4858278159
1847.0996733502
1750.5862515695
1661.1811126032
1578.2180084547
1501.0669772233
1429.2457495565
1362.2835583373
1299.7685291375
1241.3067695164
1186.5495531492
1135.210837015
1087.02116947
1041.7359896123
999.12370307992
958.97959241092
921.12059579371
885.38224959181
851.61673412613
819.69117901167
789.4995726901
760.87217973691
742.12751861259
2726.0632884303
5626.093594065
5907.114193231
5972.4631116434
6019.0481768461
6053.2742435989
6075.1508785003
6082.5675702976
6068.3380868488
6021.4194597277
5953.3089834258
5883.8885643547
5817.0566608838
5751.9934319317
5698.7766508141
5641.7093324802
5592.8227503585
5553.4275012705
5524.1946429838
5504.7887117321
5495.0790267172
5493.9604723369
5499.4655051949
5510.5664001452
5526.3112778122
5545.6632471732
5567.7024536665
5591.7105302727
5617.1581679163
5643.7390643446
5671.2814629824
5699.5591536435
5728.4849817417
5758.0792446782
5796.0916976851
5826.9559440004
5858.578218587
5891.3608683643
5924.7298259878
5958.5193713964
5992.4182734155
6026.1859990489
6059.47561193
6091.8425904922
6122.7748942407
6151.6827606012
6178.059271189
6201.4109177861
6221.499228296
6238.2325938433
6251.9349726509
6263.6540822244
6274.7315181802
6286.8564558539
6300.1216189969
6313.3895034031
6323.2803320314
6330.0038529387
6332.6693073239
6329.755315522
6317.5892533488
6296.478535364
6264.8871667847
6237.8670348883
6205.0493895178
6186.689298432
6167.5960464408
6158.5279089175
6185.293718812
6254.8490022668
7683.2536279748
8429.1992699194
12973.197232169
18440.273599712
23484.631040563
27788.304513347
31252.506294012
33847.921222
35648.966388489
36541.605908671
36490.546346582
35835.973114411
34565.225565136
32805.983170177
30677.60229581
28337.631739454
25917.346521881
23519.910769392
21228.124684725
19092.450035024
17141.477482562
15383.047691549
13813.015668891
12419.524331039
11186.997129533
10099.883764161
9141.2759834836
8295.5348291995
7549.2362917383
6887.278551794
6299.8797769863
5778.3275929773
5313.6235592055
4898.8969397665
4526.2770146063
4191.6903659558
3890.6172867961
3618.996213073
3372.9101816069
3149.4589980305
2946.4928441705
2761.4880678263
2592.4490847309
2437.4862595441
2295.4594622526
2164.9008782006
2044.6751890871
1933.6622604102
1831.0615697723
1736.130811699
1648.1190965616
1566.3628842756
1490.2799829783
1419.4227033601
1353.3204216456
1291.5625468388
1233.7756914446
1179.631753266
1128.8567188666
1081.1726763454
1036.331400655
994.11778982383
954.33555946121
916.81808597921
881.40097965156
847.9354845977
816.28882585074
786.31642626855
757.9047490161
747.30755493176
3158.5061699762
5705.1438191346
5927.7760689318
5979.5158107176
6017.3897088158
6045.4698773429
6062.6783156165
6066.635459614
6051.0202980408
6005.7415984396
5937.2379626141
5865.7240045617
5797.6375332695
5732.4658107692
5680.1643094783
5624.033758214
5576.3797504832
5538.4107676232
5510.6543189811
5492.7886291515
5485.0594253469
5485.6877177892
5492.825067787
5505.5285916086
5522.6504066169
5543.108527352
5565.9949663979
5590.5966749084
5616.4124877283
5643.1591441762
5670.6828016192
5698.7716856661
5727.3764892577
5756.568172312
5793.7217125412
5824.0631178051
5855.0937955847
5887.4027471253
5920.2113154204
5953.6464239344
5987.2045615322
6020.6721498723
6053.6260817959
6085.5635188794
6115.9475275547
6144.1595280758
6169.7244365123
6192.0841475207
6210.9907450332
6226.2819949379
6238.2304711122
6247.7637035001
6256.0475986952
6265.0702198461
6276.1186141898
6288.1814371312
6298.3794647749
6305.6277564841
6308.9350597324
6306.9474464865
6296.2222149283
6275.8495829729
6243.9675494178
6216.0618859517
6183.7462431274
6166.9934461278
6150.5770117504
6147.2242823206
6176.2208913229
6269.7063822188
7003.1722269178
6989.4041931826
8435.9771372508
11602.39781421
15079.892664284
18358.965029748
21267.33055739
23715.541114887
25656.043388395
27014.624134678
27706.97468509
27804.667745544
27466.698616351
26613.434317803
25424.139050434
23943.809038775
22295.325956615
20572.120450197
18843.525045659
17171.623958591
15596.491465297
14139.835881816
12809.974501936
11607.684756675
10527.412858319
9560.6288944563
8698.1659395648
7929.4083691188
7244.0367494459
6632.6921919643
6087.0847157199
5599.1856338578
5161.359651302
4767.9593036784
4414.4207094342
4095.8795039104
3808.2318371401
3546.9909920761
3310.0016645407
3094.6695131369
2898.4183815237
2719.1991272371
2554.8337450017
2404.2688819859
2265.928803178
2138.6175339671
2021.0861218205
1912.4620383681
1812.0351628224
1718.9628813909
1632.5950039202
1552.2365028211
1477.4376245301
1407.72497177
1342.6415276814
1281.7898123439
1224.7922384962
1171.3745331847
1121.2581749
1074.1728739057
1029.8806702562
988.15607427217
948.81749359981
911.70673354852
876.66378056168
843.54199359703
812.1986248619
782.50496161725
754.28014033045
766.69466914041
3692.9711222129
5780.2672133435
5945.6416179161
5984.7939612351
6013.8805331761
6035.3649974376
6047.4893112862
6047.6242966676
6030.2979202503
5987.0167487201
5918.9511171629
5845.3037955876
5775.5961592488
5710.2529066458
5659.0130574296
5604.0442932419
5557.9262034293
5521.7338874186
5495.958441428
5480.1503864003
5474.6690597357
5477.2442922843
5486.3815697951
5500.8798450425
5519.4807949185
5541.0754945124
5564.7591023826
5589.8120043005
5615.7545585262
5642.3698446079
5669.5866341797
5697.185449548
5725.1553146295
5753.5959029716
5789.2950040816
5818.8332681978
5849.0447699546
5880.8440078582
5913.1257989465
5946.2978649068
5979.6207319473
6012.9031051613
6045.6604855293
6077.340124165
6107.3927554205
6135.1523839233
6160.190503072
6181.8293552761
6199.7987645412
6213.8428663922
6224.153083448
6231.4691982275
6236.8462418416
6242.1490670717
6249.6949917944
6260.0061772553
6269.9718049431
6277.783708844
6281.7013353494
6280.7860095195
6271.9365338001
6252.7943610161
6220.5821447188
6191.638725873
6160.2728668339
6145.2165549583
6132.3347622961
6134.32062762
6166.8698293952
6286.0418589525
6360.2725371204
6359.901499531
6591.3573044211
8172.2867699133
10486.643536062
12886.722296935
15174.524422708
17239.389556946
18989.855198529
20361.408490071
21383.723794573
21983.769402107
22004.768884255
21652.418981367
21056.486537168
20175.208881173
19099.47470943
17886.172769568
16614.6524654
15334.476783374
14088.073964022
12903.711494715
11796.694567008
10775.186154917
9841.7012687084
8994.0787962594
8227.9856085083
7537.574804668
6915.9975839412
6356.766566735
5853.6169816624
5400.6173537128
4992.3514949371
4623.9185990399
4290.5749077008
3988.4996443329
3714.6370084971
3465.8559248549
3239.3889332077
3032.9135410639
2843.8086752966
2670.6670454819
2512.0519782196
2366.2945731843
2232.2157708922
2108.3303250401
1993.9287029953
1888.1641742196
1790.1533243754
1699.2474091853
1614.6574941463
1535.9637492437
1462.6516688603
1394.246350476
1330.3231232088
1270.4641374612
1214.4106296892
1161.8477720076
1112.488757513
1066.0889869787
1022.4042321466
981.24580191463
942.44276409568
905.80575394065
871.18751782938
838.43831755207
807.4229653639
778.04038028434
750.1783645397
814.10756351454
4273.8879527321
5849.418207132
5959.6101386396
5986.2628646302
6007.0822627851
6022.1063865002
6029.0206861109
6025.2503720265
6005.9460054447
5964.2223707099
5898.3723848526
5823.1230831132
5751.5347901745
5685.864475453
5635.7764371762
5582.2033988114
5537.9671735099
5503.9517002504
5480.5792658003
5467.4177501109
5464.2816064816
5469.2885916141
5480.7316873218
5497.2335065909
5517.4532116364
5540.2470226147
5564.6006693683
5589.8837677455
5615.6900556721
5641.7927581095
5668.227368561
5694.9140891319
5721.8079862828
5749.0333924845
5782.9509779245
5811.4765637133
5840.5115381462
5871.7277974813
5903.5029221607
5936.5229067054
5969.7933547369
6003.1128918434
6035.9447662282
6067.6700266317
6097.6977733968
6125.2359027461
6149.8878205684
6170.8060528033
6187.7292469307
6200.3545845935
6208.7876373444
6213.7282915536
6215.9868938143
6217.4777554195
6220.4272599936
6227.892142686
6237.3421738332
6246.4778138946
6251.5410361547
6253.2262279431
6247.1297935267
6229.3644060783
6197.4243850956
6167.6501314294
6136.9320231072
6122.1182783951
6111.4185400495
6117.9033715471
6156.5882067037
6299.1048745009
5840.9438904983
5818.8093684791
5778.6749147183
6366.4632845243
7802.4342394906
9537.2527068636
11295.189228155
12967.208951245
14446.695421056
15709.260225886
16751.916559439
17392.854465851
17691.866980269
17720.295421787
17513.936920432
17016.918802822
16332.689394709
15507.547264768
14594.149930419
13630.764855389
12659.925650976
11709.988578871
10801.225637016
9946.1000606598
9150.5739197086
8416.7391659135
7743.9105055236
7130.2215614986
6572.2266218714
6065.5499825611
5605.8807304021
5188.9318337925
4810.7143205587
4467.4207920217
4155.4430489696
3871.6292604944
3613.1460063104
3377.1472187005
3161.2845845822
2963.9044672572
2783.0692052022
2617.1697092012
2464.7264981606
2324.0241398017
2194.2208740558
2074.4290751153
1963.5962106361
1860.9650653075
1765.6149162371
1676.9287433796
1594.4990380717
1517.6763219935
1446.02384952
1379.0508863855
1316.3666282397
1257.7171779757
1202.7255787461
1151.1148408515
1102.6067700179
1056.9465979199
1013.964102925
973.45344582813
935.22382196442
899.12458030431
864.97581964921
832.65181752035
802.05191033389
773.05123081346
745.34953832068
945.43681083094
4810.8832046916
5899.6270371956
5966.0798248507
5982.2687068524