/*--------------------------------*- C++ -*----------------------------------*\
| =========                 |                                                 |
| \\      /  F ield         | OpenFOAM: The Open Source CFD Toolbox           |
|  \\    /   O peration     | Version:  2312                                  |
|   \\  /    A nd           | Website:  www.openfoam.com                      |
|    \\/     M anipulation  |                                                 |
\*---------------------------------------------------------------------------*/
FoamFile
{
    version     2.0;
    format      ascii;
    arch        "LSB;label=32;scalar=64";
    class       volScalarField;
    location    "9e-05";
    object      rho;
}
// * * * * * * * * * * * * * * * * * * * * * * * * * * * * * * * * * * * * * //

dimensions      [1 -3 0 0 0 0 0];

internalField   nonuniform List<scalar> 
109340
(
662.4819288723
662.47691974671
662.46734847375
662.455762931
662.44296717145
662.42963351996
662.41602160615
662.40225721184
662.3884783444
662.37434319423
662.35920488115
662.34244608374
662.3233295465
662.30096128471
662.27427610721
662.24201432367
662.20267472568
662.15445768131
662.09518028905
662.02216470883
661.93207596886
661.82072939881
661.6828193397
661.51155223261
661.29812279856
661.03098177005
660.69475153644
660.26858200812
659.72354499618
659.01831128929
658.09159222941
656.84807158666
655.1304682862
652.66084529801
648.91072855063
642.79725196324
662.48269841265
662.47625491107
662.46551069944
662.45314235458
662.43997687604
662.42659808708
662.41317354793
662.39968500268
662.38592251673
662.37154672751
662.35604131868
662.33876859713
662.31894966727
662.29564635505
662.26774481817
662.23392313473
662.19261599479
662.14193834794
662.0795960148
662.0027639002
661.90791851649
661.79062649341
661.64525317871
661.46456392038
661.23915570126
660.95665203498
660.60050767878
660.14817431692
659.56816191453
658.81510076485
657.82095488103
656.47828439743
654.60573610637
651.87220715955
647.60960669992
640.37179316022
662.48552150062
662.4780562731
662.46622447237
662.45356143193
662.44050594806
662.42731598235
662.41396047486
662.40043152896
662.38662196333
662.37220733558
662.35668572838
662.33941608897
662.31961503224
662.29634212071
662.26848372336
662.23472302156
662.19349398914
662.14291391645
662.08068953486
662.00399781448
661.90931443878
661.79220592538
661.64703742661
661.46657203755
661.2414040444
660.95915159225
660.6032623409
660.15118055059
659.57141109667
658.81857328621
657.82458902698
656.48174908767
654.60670630638
651.85748767333
647.5122636384
639.8253864735
662.48945219996
662.48044475268
662.46801327606
662.4549916598
662.44168239411
662.42821565049
662.41463500708
662.40095134207
662.38703899449
662.37256845818
662.35703871785
662.3398033231
662.32007131197
662.29689608709
662.26915682357
662.23552917874
662.19444097051
662.14400224867
662.08190740714
662.00532189252
661.91069330229
661.79355631092
661.64822908123
661.46740494157
661.24158412252
660.95824599577
660.60064252816
660.14593841837
659.56223573771
658.8035526049
657.80085870741
656.44478561374
654.54718966847
651.74804695861
647.23811131562
638.71363152494
662.49565294493
662.48392883652
662.46967378371
662.45575965556
662.44208701341
662.42848763756
662.41486467859
662.40119758531
662.38733080158
662.37292260794
662.35747818086
662.34034738058
662.32072581292
662.29764621412
662.26995698735
662.23628951182
662.19501138635
662.1441507369
662.08124450023
662.00332554422
661.90658244443
661.78622624957
661.6361250678
661.44833641503
661.21249355118
660.91485417114
660.53696311819
660.05357588744
659.42934937181
658.61326717446
657.5285906425
656.05425914849
653.97975176431
650.89441085174
645.81457285733
635.28410487114
662.50721861376
662.48573906685
662.46999323964
662.45575332477
662.44203176218
662.42843142207
662.41481520083
662.40109875631
662.387041546
662.37216417321
662.35578165907
662.33699223483
662.31467147719
662.28745036763
662.25367788709
662.21136513543
662.15810651642
662.09100296432
662.00659062155
661.89991878749
661.76502463306
661.59421199311
661.37749507229
661.10183301432
660.75006362625
660.29937190691
659.71906543519
658.9671874274
657.98513220838
656.68858096068
654.95083339099
652.57493559122
649.21592395963
644.20124183008
635.87497423248
617.27623784772
632.28259268112
614.66329874237
587.62417031725
550.85753592356
506.22826605717
455.280711204
400.15330802932
343.39357739104
287.66632948516
235.42573976316
187.89398158816
148.26682083161
115.77188167986
89.794295447493
69.792975801536
54.460474288692
42.813281042214
33.970575930342
27.217562623774
22.050840172647
18.072870047515
14.964614955809
12.513610330461
10.566228117456
8.9985532478261
7.733922036171
6.7034427570581
5.8230694738196
5.1267920853363
4.5151228607011
4.0104208245388
3.5800953765913
3.2037822408306
2.8911793029555
2.6074780396123
2.3726505088377
2.1558890031683
1.9748910116215
1.8071796715581
1.6643475928458
1.5336074604781
1.4180854940952
1.3154053046406
1.2202397140151
1.1381564915986
1.059520023431
0.99260641454911
0.92789399900413
0.87196675665932
0.8193612652264
0.77115001678772
0.72703434618084
0.68640294831167
0.64899909578859
0.61443279510037
0.582440170168
0.55275904776499
0.5251893443694
0.49954402102974
0.47565684532742
0.4533685581294
0.43253940149199
0.41304624535788
0.39478053796443
0.37764300668398
0.36154452857746
0.34640714332674
0.33216446009442
0.31874795180695
0.30600492398916
0.46065097467353
1.9468228721065
2.2110058321671
2.2122201525448
2.1914109513415
2.1576881573454
2.1104113568019
2.0503462593225
1.9847655221521
1.9314963754564
1.8969672978318
1.8725226634193
1.851593882622
1.8314646893751
1.8090141908841
1.7911600682795
1.7753499507786
1.7622264091077
1.7532561032155
1.7461239461344
1.7420779291535
1.7408921917095
1.7415523836107
1.7438883112795
1.7477560712345
1.7528587460459
1.7589369393803
1.7657839649968
1.773236340224
1.7811882903275
1.7895699960096
1.7983087346366
1.8074012374509
1.8168658033563
1.8293530449824
1.8396332061673
1.8500577677276
1.8608178826664
1.8720063382316
1.8831829965539
1.8942722256767
1.9052956471353
1.9161991289411
1.9268726971929
1.937182804611
1.9469719135437
1.9561011589974
1.9644721513666
1.9720324649085
1.978800969644
1.984946920797
1.9909187682993
1.9970062194524
2.0034399699577
2.0098304619037
2.01526335874
2.0185588744265
2.0203004143275
2.0205186769481
2.0192085815633
2.014869902477
2.0083621014109
1.9979334496607
1.9886247079269
1.9784031702456
1.9703113639305
1.9646364435647
1.9553230513937
1.9416564311072
1.6142869708471
627.16996450365
604.61787277197
571.18254204022
528.42306074377
478.50608441571
424.13133562635
367.65726394086
311.85595725202
259.0699749565
211.03981122563
168.9100126793
133.17336528061
104.61739073885
81.852757174986
64.019922327424
50.298748050516
39.776919519629
31.726265763998
25.558188752132
20.804277487369
17.11168281963
14.220804687404
11.934189104341
10.106395916183
8.6327964199766
7.4332570928556
6.4480034488829
5.6321155800369
4.949958953948
4.3769997245642
3.8900439897718
3.4763557416387
3.1198914283134
2.8130166517605
2.5458161868004
2.3132495603367
2.1088066678873
1.9292461564873
1.7699635960869
1.6289723823156
1.5028998376689
1.390619190315
1.2894500108425
1.1987961271523
1.1166240504434
1.0425077497568
0.97500731027128
0.91367597612086
0.85764441401253
0.80640857030039
0.7594199107037
0.71620215958707
0.67644183119322
0.63975409674805
0.6058649654939
0.57447457155748
0.54535750574265
0.51830002047418
0.49312065631942
0.46965275272492
0.44774928230592
0.42727496505258
0.40810775128397
0.39013856038607
0.37327279117117
0.35742775225455
0.34252833459994
0.32850625486214
0.31529827773367
0.30380258313887
0.79492779655771
2.0946926469118
2.2147103445681
2.2065641250374
2.1822327812524
2.1450373979234
2.0943707158193
2.0320211376465
1.9678942297795
1.9196485450365
1.8884230661194
1.8654722340419
1.8451187288389
1.8253521275793
1.8082498613513
1.7905596324975
1.7750081678848
1.7620479422635
1.7531095635086
1.7462474208343
1.7423085174347
1.7411830804116
1.7419643669108
1.7444047957919
1.7483486005771
1.7535079259308
1.7596253053419
1.7664941630938
1.773953740691
1.7819043046041
1.7902752156946
1.7989953388656
1.808059740029
1.8174833653353
1.8298985133323
1.8400931956767
1.8504678375945
1.8611160185248
1.8721791473275
1.8832588903188
1.8942696895114
1.9052083339505
1.9160138099671
1.9265781595084
1.9367705266005
1.9464364914465
1.9554416465969
1.9636852491392
1.9711119409876
1.9777366617237
1.9837218415594
1.9895136393291
1.9954293373235
2.0017143168218
2.0078769928198
2.0131200169792
2.0163140822635
2.0180766417894
2.0183204150562
2.0170495547711
2.0126956623686
2.006173428802
1.995767582465
1.986689401727
1.976423512089
1.9684408570592
1.9627234306873
1.9536281668482
1.9407803870831
1.6137133755341
624.37775899141
595.94210590489
555.20254216937
505.101843792
449.30744305069
391.82502226224
335.6033540196
282.61515073461
234.28066446213
190.96952891396
154.42292944169
123.40701106309
97.895922467358
77.383339473343
61.111214358043
48.380983225523
38.511201005229
30.89391224094
25.003683072811
20.422053388966
16.843519561881
14.031134362623
11.796420396843
10.004588964396
8.5573680602779
7.3763931164526
6.4037578725427
5.5979288962411
4.9236300250796
4.3554361942676
3.8736753221322
3.4620489326124
3.1089993998574
2.8033541119211
2.5384301981087
2.3065729673643
2.1037083892553
1.9245430018159
1.7663768182237
1.6255863962723
1.5003647481497
1.3881499403588
1.2875776372006
1.1969752045704
1.1151665989121
1.0411285109368
0.97380423401282
0.91262705333207
0.85665977304695
0.80556287411876
0.75862518291553
0.71555114794775
0.67584015280286
0.63920590218856
0.60535120168777
0.57400246119466
0.54492810413105
0.51790885794505
0.49276231533409
0.46932301882066
0.44744644559756
0.42699665461339
0.40785103543898
0.38990105646206
0.37305363914718
0.35722575482911
0.34234208002257
0.32833385028231
0.31513998228469
0.30372514402038
0.81000023496323
2.0994950468661
2.2157771197549
2.2071841373258
2.1826596021678
2.145372718886
2.0946979599106
2.032367208274
1.9681206483642
1.919487959375
1.8879605426608
1.8648443620663
1.8444336431169
1.8246778831004
1.8077251572011
1.7900723800582
1.774588989658
1.7616745136611
1.752539225175
1.7457539982017
1.7418839303763
1.7407322069815
1.741630161852
1.7441497932175
1.7481579774458
1.7533790468003
1.7595541697923
1.7664739617431
1.7739716397268
1.7819533253558
1.7903558007866
1.7991074813677
1.8081958492289
1.8176308172219
1.8300406217827
1.8402090870112
1.8506053200289
1.8613120067267
1.8724435705585
1.8835181302881
1.8945993101936
1.9055991214237
1.9164537674436
1.9270637902244
1.9373021451794
1.9470159162513
1.9560677335573
1.9643457273368
1.9717906017562
1.9784143841261
1.9843695590216
1.9900694948402
1.9959816654038
2.0021744240711
2.0081201942615
2.0133013291229
2.016574331612
2.018536582629
2.0187889273672
2.0174197116962
2.0131582485347
2.0065318792043
1.9964118938384
1.9874831467839
1.9771763911686
1.9693255862418
1.9629134111277
1.9542004293367
1.942749023509
1.6155552330533
618.13815704525
576.28325748468
520.58150801377
458.17817822019
396.82936845761
339.14721256102
287.40452087668
241.51845330202
201.19697520045
165.52632247433
136.46823003258
110.97315971848
89.449660680706
71.730715608593
57.333580905444
45.886678763999
36.862807095046
29.780259978805
24.241530998969
19.90569932245
16.486426029086
13.769230041326
11.606473180975
9.8666315674259
8.4528346687576
7.2960301379014
6.3428306776074
5.5498737108832
4.8856662139255
4.3252317291206
3.8494975332684
3.442305694782
3.0925950787577
2.790065873484
2.5271581955176
2.2974218210089
2.0958516228558
1.918059882167
1.7607830697412
1.6209453509271
1.4963358511401
1.3847086018646
1.2846449902582
1.194384194346
1.1129729518129
1.0391199550016
0.97212531505432
0.91105514721916
0.85531438936817
0.80431331594927
0.75752371891634
0.71455636356222
0.67495380533897
0.6384190577362
0.60462649723415
0.57334160022235
0.54431969846018
0.51735212486691
0.49225403978529
0.46886007315068
0.44702248400219
0.42660583796035
0.40749022625677
0.38956944447536
0.3727493185982
0.35694519641487
0.34208289591638
0.32809417165311
0.3149181503462
0.3036474253791
0.83289236492814
2.1056115532276
2.2171308107031
2.2079508469514
2.1831959147369
2.145813957656
2.0951704325817
2.0329168319627
1.9684974356808
1.9192843016974
1.8872904433522
1.8639177514328
1.8434155309478
1.8236571181971
1.8068466411508
1.7892215217541
1.7738218442817
1.7610876663125
1.7519335438837
1.7453363589659
1.7415978742778
1.7405298955449
1.7415354942853
1.7441759838127
1.7482964218232
1.7536181625857
1.7598797467813
1.7668679623243
1.7744161612273
1.7824279496368
1.7908481111207
1.799608646436
1.808690295091
1.8181050595619
1.8304683935419
1.8405784193512
1.8509129341072
1.8615445164331
1.8725882570969
1.8836001731014
1.8946388620607
1.9056024650858
1.9164237655791
1.9270011155939
1.9372051909763
1.9468839039119
1.9558908646363
1.9641086111489
1.9714759790343
1.9780006456323
1.9838288458715
1.9893709093962
1.995110388477
2.0010780562531
2.0067777633741
2.011849197504
2.0151150226107
2.0171553464987
2.0174875302593
2.0161593940453
2.011918087682
2.005320357069
1.9953772850113
1.9866036413131
1.9763371426705
1.9686378284139
1.9621832303587
1.9543467046776
1.9434388822091
1.6152742067428
597.25785671376
520.41691645273
438.80987857517
368.45012206382
312.7616704062
266.39841245432
227.70846926261
194.66362632901
165.64029731783
140.12361814118
117.39575032322
97.331888239287
79.973192040304
65.249626789526
53.001106023561
42.96464250756
34.883113452815
28.443402327066
23.324931826098
19.259715605237
16.028582196779
13.450461356039
11.369832600911
9.688782774568
8.3200103943957
7.1961800826065
6.2645114033373
5.4885815024125
4.8373656709474
4.2867568889515
3.8181322910009
3.4171297625399
3.0716617429095
2.7728508900262
2.5127628000844
2.2855198391423
2.0856878078393
1.9096146598739
1.753536556142
1.6148566927041
1.4910323421556
1.3802594529822
1.2807128095104
1.1910327979444
1.1099990461844
1.0365401453
0.96983270040326
0.90900715919733
0.85351319054159
0.80267919641035
0.75608185773739
0.71323086127136
0.67377508934283
0.6373616088321
0.60367615708737
0.57247364357478
0.54352002917247
0.516620913551
0.49158687429015
0.46825105233366
0.44646331825384
0.42609112704709
0.40701728873131
0.38913533393708
0.37234959820737
0.35657634976613
0.34174255380818
0.32777968742767
0.31462699305294
0.3035780747075
0.86406150685868
2.1133237950036
2.2187116938969
2.2087926734713
2.1837759516617
2.1463418744002
2.09579628044
2.0336685059754
1.9690425471768
1.9190628762266
1.886434805081
1.862708518691
1.8420762568147
1.8223214073952
1.8056867043065
1.7881285973071
1.7728435690842
1.7602797673108
1.7511304027611
1.7447019830392
1.7411198661567
1.7401782949338
1.7413239273507
1.7441215325249
1.7483921615722
1.7538526204928
1.7602318559499
1.7673103950795
1.7749220109441
1.7829717764912
1.7914083155141
1.800161212371
1.8092167871692
1.8185929811035
1.8308724221241
1.8408961156013
1.8511483458923
1.8617248965523
1.8726758572419
1.8836336373758
1.8946376848958
1.9055830027019
1.9163962650211
1.9269679346548
1.9371628403262
1.94682066981
1.9557929637147
1.9639576389065
1.9712519463221
1.9776796441455
1.9833824635899
1.9887637574677
1.9943061196235
2.0000643873358
2.0055954679501
2.0105858254899
2.0138821722411
2.0160120540002
2.0165068411472
2.0152615129062
2.0110709971857
2.0045005504849
1.9946432474835
1.9860680329992
1.9758023723319
1.9683498311697
1.9618951385873
1.9543937484741
1.9437451311976
1.6142464692079
448.97989607094
325.09105581672
272.78228086546
240.75247442137
214.64087201483
191.50338431683
170.28396881918
151.04027369029
132.57876156276
115.0879830984
98.735254221014
83.801722738496
70.339890915733
58.485509108061
48.314893943963
39.76211625934
32.692191653878
26.928047983141
22.269606679566
18.518580122092
15.498860824394
13.061485157858
11.090852596949
9.4800439073943
8.1613533226872
7.0738951478425
6.1716815645839
5.4151445304795
4.7786697053489
4.2399060110543
3.7805555143607
3.3862118749467
3.0463842876209
2.7519984194429
2.4953697491513
2.2708291909279
2.0734781252646
1.899246612335
1.7447158478295
1.6073222265085
1.4846199386258
1.3747235672553
1.275895720718
1.186875717435
1.1063425191176
1.033353907091
0.966973631851
0.90650336284553
0.85126908843975
0.80068152587562
0.75428149484509
0.71160703220792
0.67231869244182
0.63604075247477
0.60248945917969
0.57139357865692
0.54253739738555
0.5157227771944
0.49076252289912
0.46749335724397
0.44576800792605
0.42545484359072
0.40643340587305
0.38859677153076
0.37185218257764
0.35611863593537
0.34132107697642
0.32738988009843
0.31426763449934
0.30353930038355
0.90320416226428
2.1228242620737
2.220607771767
2.209695074813
2.1843686618613
2.146924941023
2.0965644764994
2.0346405833192
1.9697882427054
1.9188610289396
1.8854189464838
1.8612312401038
1.8404255350176
1.8206649990706
1.8042026337056
1.7867380532259
1.7716117535365
1.7592638520073
1.7501916204349
1.7439595389321
1.7405769213658
1.7398161695035
1.7411387523791
1.7441250670793
1.7485687224136
1.7541812155764
1.7606820592826
1.7678509283873
1.7755237770458
1.7836076148011
1.7920507433971
1.800788314562
1.8098038869048
1.8191328662988
1.8312906379741
1.8412349726115
1.8513988103741
1.8619030007481
1.8727419448566
1.8836323321417
1.8945873502078
1.905496912041
1.9162808139603
1.9268218636447
1.9369797232443
1.9465904535692
1.9555013464662
1.9635816386491
1.9707645808461
1.9770471787715
1.982563734435
1.9877078644313
1.9929549375934
1.998443430544
2.0037917487842
2.0087134956129
2.0120548900212
2.0142712662465
2.0149440208263
2.0138379112805
2.0097585555948
2.0032288031874
1.9934702334909
1.9850612674176
1.9748313765548
1.967785568788
1.9612393659987
1.9546011214474
1.9443824877254
1.6131704774748
15.26741285954
103.77117695519
127.56928920339
136.54498854376
138.04408447112
134.05405509737
126.32725438096
116.81665620711
106.38415382662
95.49286422473
84.517099165909
73.765932805562
63.530947427545
54.056842939139
45.549202123979
38.124078218064
31.783877206399
26.473630211229
22.08515203065
18.488057939929
15.551324291685
13.156157643981
11.1984725878
9.5973047381406
8.2747672793458
7.1775802389309
6.2654832100077
5.5016601905115
4.8567161003543
4.3087262528621
3.8419523838789
3.4417200908218
3.0959798313012
2.796031699395
2.5349801016255
2.3065231142521
2.1054773408066
1.9280759374465
1.7708943593493
1.631037444342
1.5061084924975
1.3942712337738
1.2937673540934
1.2031803691493
1.1212360353246
1.0470038569199
0.97951538184891
0.91804154452855
0.8618700687393
0.81046516048139
0.76332220024504
0.71998333284943
0.68006953975134
0.6432256715644
0.60917744762957
0.57763428951661
0.54836183739335
0.52115301004445
0.49583416255745
0.47224208664093
0.45022139493561
0.42963475199905
0.41036101255534
0.39229496606505
0.37534113720119
0.35941404598881
0.34443688669458
0.33034071545446
0.31705224772108
0.30452627975204
0.55098854557475
2.0211865440418
2.220453948725
2.2153382987003
2.1924465045025
2.1580614522214
2.1111803264038
2.0520681772575
1.9865181510402
1.9298590026197
1.8916716008764
1.8651791059854
1.8435720496795
1.8235546794912
1.8024193836555
1.7850802918054
1.7701395066363
1.7580188587394
1.7490788041796
1.7430559152922
1.7399055069882
1.7393707091231
1.7409022622259
1.7441054313329
1.7487461651071
1.7545284924857
1.7611648804119
1.7684342782073
1.7761744623738
1.7842951467521
1.7927458164104
1.8014611287946
1.8104245843348
1.8196806259534
1.8319430935427
1.8416749166005
1.8516742615617
1.8620508153761
1.8727096147484
1.8834844911266
1.8943406729252
1.9051708975652
1.9158847320543
1.926355866947
1.9364342312277
1.9459451179874
1.9547297276603
1.9626472177419
1.9696261009504
1.9756526391355
1.9808469298814
1.9855809854192
1.9903001229848
1.9953256621276
2.0004010124062
2.005236509204
2.0086470806338
2.0109748686864
2.0118849305045
2.0109978132284
2.0071069645102
2.0006172006271
1.9909266072103
1.982652175027
1.9725554609214
1.9660250980412
1.9597700255493
1.954183573322
1.9445703641334
1.6108488685169
6.8207727344086
18.23248131796
32.542773905679
44.451198780105
53.474316881638
59.54453653488
62.693672439967
63.491252903522
61.765592091592
58.75507866299
54.774205563043
50.051137623447
44.960863847914
39.746260793233
34.667278878027
29.930487261877
25.654250869131
21.892219599751
18.652804344555
15.903850181215
13.591078421813
11.655995714283
10.03942643254
8.6879565731795
7.5567466698023
6.6082724373931
5.8075627119105
5.1272146347427
4.5493023765385
4.0554949163435
3.6313895550015
3.264186403566
2.9459826777977
2.6688070447591
2.4262350935649
2.21263978989
2.0243049310956
1.8575485687347
1.7093149460735
1.5769365677407
1.4584419675824
1.3520888663318
1.2563137066744
1.1697396891838
1.0913151958987
1.0201156829021
0.95530684819058
0.8961388310931
0.84201258669982
0.79241975179478
0.7468767359769
0.70496824800394
0.66631007040683
0.63060101714788
0.59755602263315
0.56692700593769
0.53848366700512
0.51202248519705
0.4873749091962
0.46438457770314
0.44291139286491
0.4228251027859
0.40401079225879
0.38636619501126
0.36979978676297
0.35422968743614
0.33958254869301
0.32579781133275
0.31279066497749
0.30381387248717
1.0738322230538
2.1608008253845
2.2289508866629
2.2129885917309
2.1861499585619
2.1488598433701
2.0996345680425
2.0389646348014
1.9735794978051
1.9188634600888
1.8817712495038
1.8554267410528
1.8337381612826
1.8138766089233
1.7979372282236
1.7809618849778
1.7664793240491
1.7548819621595
1.7463787411205
1.7408659310627
1.738306432815
1.7383557531229
1.7404003855228
1.7441160736792
1.7492080378881
1.755360381811
1.7622814292349
1.7697518838696
1.7776158915347
1.7857885833533
1.7942280502184
1.8028759917598
1.8117181114736
1.8207732684944
1.8327683767875
1.8422502631811
1.8520148943803
1.8621959083035
1.8726179276416
1.8832346057161
1.8939542689345
1.9046770590337
1.9152913918491
1.9256554180693
1.9356052648559
1.9449535594168
1.9535395721434
1.9612064632729
1.9678769067636
1.9735198070734
1.9782349899249
1.9823517914174
1.9862864757278
1.9905529115072
1.9951631223198
1.9997551789024
2.0032552800968
2.0057395579267
2.0069291376046
2.0063429256865
2.0028007732276
1.996426860646
1.9867316581607
1.9784613941486
1.9683150881643
1.9627125035856
1.956898261406
1.9533426728104
1.9446638009789
1.6073945643936
5.4351419118073
8.0263360018462
12.978427761457
18.977636459348
24.608697195799
29.422753513291
33.162445795783
35.726526447149
37.16901915633
37.393301443752
36.505047820423
34.904960737171
32.656030130334
29.979940954435
27.06782538554
24.109141333753
21.249128236733
18.58515412831
16.177417524445
14.047574615249
12.19430199101
10.598537050637
9.2332979870014
8.0689564456032
7.076744736899
6.231270415652
5.5093544670556
4.8912606708961
4.3607801157756
3.9025811884385
3.5058547175129
3.1615035937853
2.8611988426245
2.598494067416
2.3670097917498
2.1628343335466
1.9821668843942
1.8217373552337
1.6785897537411
1.5504743298041
1.4356556168185
1.3323421483111
1.2391003413347
1.1546358715126
1.0780748204939
1.0084456421263
0.94497890864238
0.88695254817053
0.83382440749773
0.7851045314908
0.7403235764082
0.69907016630888
0.66098737565843
0.62579130808929
0.59319987549621
0.56296828648417
0.53487626739782
0.50873164601055
0.48437156750695
0.46163754461087
0.44038881996974
0.42050297147395
0.40186946158738
0.3843933923973
0.36798379230027
0.35255875307616
0.33804513788275
0.32436720271858
0.3114640687305
0.30570612525747
1.2404407403091
2.1884726406502
2.235188054234
2.2154440411179
2.1872520440733
2.150165487436
2.1021557277373
2.0429505326974
1.9775939467263
1.919958458917
1.8793385828575
1.8507579883718
1.8280482359705
1.8079726208802
1.7923643933218
1.7758226811423
1.7619031038489
1.7509397363914
1.7430836726757
1.7382297673941
1.7364537779455
1.7371993435321
1.7398825322377
1.7442062102506
1.749811035564
1.7563640262072
1.7635821712539
1.7712420072291
1.7791981216669
1.7873752627282
1.7957404385677
1.804243872776
1.8128880599054
1.8217132322518
1.8333268251561
1.8425412352473
1.8520275324475
1.8619824445739
1.8721690082821
1.8826350003555
1.8932309729285
1.9038676459147
1.9143976924587
1.9246637962923
1.9344953661955
1.9436961758456
1.9521129285549
1.959565420602
1.9659712534721
1.9712748323838
1.9755502710984
1.9790799657904
1.9822166400942
1.9855644826604
1.9895181039468
1.9937598553329
1.9973668093343
1.9999998940018
2.0013672352135
2.0010465622234
1.9979162786914
1.9917131710355
1.981871938391
1.9732768078693
1.9632511203621
1.9581111561869
1.9531407988162
1.9514383730256
1.9444515700513
1.6035181257166
4.3453162715414
5.6923987145411
7.2058815057071
10.188976034615
13.513237465879
16.689078049531
19.519960366898
21.840266559961
23.571751486855
24.646473927757
24.955685592767
24.638507221643
23.862727206062
22.590453011345
21.025537985902
19.254522494519
17.410768290581
15.589499743544
13.854835035699
12.25393730563
10.809685341066
9.5272764730791
8.4007646907952
7.4185175109431
6.5655611321217
5.8263176431969
5.186308063479
4.6316569140327
4.1500753562463
3.7310406934898
3.3656371913676
3.0459489319439
2.7650007388234
2.5174551926423
2.2989985041119
2.1055300546029
1.933649633558
1.7800203149655
1.6426835995359
1.5196131313025
1.4089298887831
1.3091210944431
1.2187087091612
1.1368247628652
1.0624128688759
0.99464789626403
0.93272428576777
0.87604741532566
0.82412515210821
0.77643111975793
0.73254750173477
0.69205561087006
0.65466138812111
0.62007332745013
0.58801882559758
0.55826096803459
0.53058054795816
0.50481005871203
0.48078636476652
0.45835550594923
0.43738210715247
0.41774048204129
0.39932703795033
0.38205121801779
0.36582441010982
0.35056607141292
0.33619950341746
0.3226558897817
0.30984585404282
0.31311026197992
1.4454552632226
2.2140889727435
2.2400172273148
2.2171001564364
2.1878093863975
2.1511388530747
2.1047076984434
2.0475197441098
1.9828702237608
1.9225046869456
1.8775284148397
1.8459194259896
1.8216784106255
1.8011626142827
1.7858287306998
1.7697466395093
1.7564867883752
1.7462878201755
1.739270130586
1.7352755959165
1.7344114150069
1.7359569728022
1.739437030995
1.7444691432145
1.7506554182083
1.7576486833615
1.7651739132204
1.772996956987
1.7809796169993
1.7890695493381
1.7972637964959
1.80551440562
1.8138418428756
1.8223024364247
1.8333105381098
1.8421414560774
1.8512517367081
1.8609487604642
1.8708976216184
1.8812381218163
1.8917492123702
1.9023470373429
1.9128533456033
1.9230994728464
1.9329115865166
1.9420740124162
1.9504445961649
1.9577981710043
1.9640327741608
1.9690522838
1.9728922726832
1.9757739639
1.9780186616422
1.9801967209181
1.9830243288499
1.986680652922
1.9901706163337
1.9929169533026
1.9944116180599
1.9943548241426
1.9917601227819
1.9858999685265
1.975898704771
1.9669204558322
1.9571362409506
1.9524708098915
1.9485890277674
1.9485677294927
1.9441103527176
1.6008435595229
3.5368573895574
4.6517846611675
5.0488672356326
6.4255279820842
8.4055863267855
10.484504204208
12.48449649957
14.284571630808
15.776632628191
16.891325579694
17.647184794722
17.957313446735
17.737842744169
17.188555342182
16.405131077323
15.386850356104
14.233859490968
13.010684976639
11.788225630209
10.609080861335
9.5054267540075
8.4945129214725
7.5817977677255
6.766879931368
6.0449428066541
5.4083948880954
4.8488221555369
4.3575733268767
3.9261462757235
3.5469770342987
3.2132843987266
2.9190536750745
2.6590509245502
2.4287431710055
2.2240441512362
2.0416487275472
1.8788796407885
1.7332190092193
1.6025058549025
1.4849348235033
1.3786756853691
1.2825840070228
1.1955741693859
1.1165160865007
1.044567371888
0.97878985497453
0.9186461246597
0.86356463125032
0.81298596785759
0.7664804010621
0.72357611565322
0.68398352415514
0.6473843367203
0.61349074133443
0.58204769906726
0.55281292401752
0.52562108631685
0.50028897653983
0.47665184603957
0.45456813760598
0.43390121182639
0.41454195384384
0.39639219729641
0.37934909984332
0.36333010523672
0.34825403190289
0.33404810619347
0.32065544678014
0.30801625819944
0.33137269021168
1.6669092008818
2.2368669370118
2.2429867802127
2.2171087880318
2.1871242883082
2.1512039606527
2.106723191746
2.052170673745
1.9891613681062
1.9267237752543
1.8770281180721
1.8414917246324
1.8150547729348
1.7937323552006
1.778518412603
1.762869332852
1.7503422557227
1.7410360980761
1.7350124579337
1.7320977161109
1.732215848624
1.7347603655854
1.7391804315336
1.7450321697738
1.7518864325562
1.7593792168218
1.7671990707995
1.7751417473852
1.7830872991739
1.7909810013747
1.7988542111287
1.8067098004308
1.8145636577069
1.8224890145242
1.8327492671562
1.8410977004537
1.8496907658861
1.8590854627348
1.8687923112958
1.87904505398
1.8895465535075
1.9001961289596
1.9107939502231
1.921153089316
1.9310816194741
1.9403122940355
1.948700792568
1.9559538675274
1.9619549125258
1.9665781731709
1.9698413609479
1.9719385143521
1.9731358735274
1.9740391103747
1.9753260199689
1.9780064795772
1.9812780709676
1.9844170022123
1.9862318583647
1.9869325188345
1.9851267575634
1.9795756935384
1.9694925262578
1.9600375673982
1.950201445603
1.9453057789723
1.9417373914508
1.9429531499205
1.9417961030618
1.6022365330576
2.9149074116865
3.9287759367068
4.0790019816602
4.6089144694849
5.7506743479545
7.1307029710523
8.5386763715823
9.8856906714596
11.069784674072
12.054903670338
12.835690083795
13.263421065005
13.375672486487
13.248187261868
12.920393964526
12.357436949862
11.649563235868
10.847736768232
10.001888118769
9.1466231217596
8.3152458182469
7.5287264237016
6.7996490773462
6.1335684897044
5.5312240603337
4.9903915679004
4.5070990494668
4.0768574814095
3.6945711329809
3.3549910518398
3.053282196099
2.7849826684863
2.5461314067777
2.3331625531752
2.142875547531
1.9725299747836
1.8197385342927
1.6822739251973
1.5582922239341
1.4464039150209
1.3451747722597
1.2534121075821
1.1700514581199
1.0939779583879
1.0245370614075
0.96108993739369
0.90295609405917
0.84962052586708
0.80051783406667
0.75524516127408
0.71350896985306
0.67492291691478
0.63920921615609
0.6060774947069
0.5752919306178
0.54668468746282
0.52004136163479