/*--------------------------------*- C++ -*----------------------------------*\
| =========                 |                                                 |
| \\      /  F ield         | OpenFOAM: The Open Source CFD Toolbox           |
|  \\    /   O peration     | Version:  2312                                  |
|   \\  /    A nd           | Website:  www.openfoam.com                      |
|    \\/     M anipulation  |                                                 |
\*---------------------------------------------------------------------------*/
FoamFile
{
    version     2.0;
    format      ascii;
    arch        "LSB;label=32;scalar=64";
    class       volScalarField;
    location    "9e-05";
    object      rhoHat;
}
// * * * * * * * * * * * * * * * * * * * * * * * * * * * * * * * * * * * * * //

dimensions      [1 -3 0 0 0 0 0];

internalField   nonuniform List<scalar> 
109340
(
661.2218730821
661.21708924231
661.20789332524
661.19666525991
661.18414094206
661.17095220137
661.1573407626
661.14338800138
661.1290726388
661.11374135672
661.09628149111
661.07546728724
661.04980820324
661.01750352605
660.97641217714
660.92400442255
660.85727439266
660.7726254388
660.66570281514
660.53116915674
660.36238600124
660.15102202181
659.88651562402
659.55534950144
659.1400206219
658.6175945402
657.95757332468
657.11866769113
656.04369532609
654.65113965372
652.82043645845
650.36469190098
646.97675901596
642.11674835734
634.76608645597
622.86453024248
661.22260623824
661.21645279298
661.20611931405
661.1941108106
661.18119539878
661.167930056
661.15447318996
661.14075149137
661.1263563715
661.11059573506
661.09245297541
661.07064597913
661.04360453212
661.0094425162
660.96592388521
660.91040087695
660.83973731653
660.75016760818
660.63711729619
660.49495857835
660.31667733853
660.09344693017
659.81405129547
659.46409781783
659.02489897857
658.47188470161
657.77225232757
656.88136822381
655.73701802832
654.24977173312
652.2858953164
649.63492720115
645.94315366375
640.56845818105
632.22616779472
618.17561645805
661.22529187911
661.21817632488
661.20680860366
661.19451966202
661.18171706315
661.1686455335
661.15526760625
661.14152577024
661.12712008388
661.11137345103
661.09328237885
661.07155923069
661.04462688486
661.01059473202
660.96722528298
660.91187594098
660.84141014745
660.75206664398
660.63927439552
660.49741098095
660.31946324282
660.09660488634
659.81761987139
659.46811159831
659.02938748267
658.47686731363
657.77773436328
656.88734012456
655.74346006355
654.25664372354
652.29307784751
649.64178654576
645.94520960465
640.54016669663
632.03815283037
617.12689922427
661.22902071945
661.22045765163
661.20853429829
661.19591395917
661.18287623623
661.16954154323
661.15594802312
661.14206895108
661.12759624661
661.11184945776
661.09382510416
661.07222850052
661.04547302263
661.01165982737
660.96854145598
660.91346403737
660.84328025803
660.75421567466
660.6416776227
660.50001977889
660.32217764624
660.09925926445
659.81995337884
659.46972388514
659.02968850088
658.47499063511
657.77242377197
656.87678430848
655.72505114431
654.22659193254
652.2457320393
649.56827670868
645.82742640462
640.32518233005
631.5048626041
614.99187758729
661.23487822931
661.22377731411
661.21013389308
661.19666192709
661.18327461661
661.16981228523
661.15617970841
661.14232902012
661.12793578259
661.11231294476
661.0944623795
661.07307860843
661.04654741597
661.01292801131
660.96991036252
660.91475018005
660.84417600069
660.75424506423
660.64007225351
660.49572297755
660.31363222157
660.08425551991
659.79538043629
659.4312032504
658.97110962236
658.38781224482
657.64471370822
656.69183846264
655.45936641729
653.84677647559
651.70335054813
648.79221239827
644.70364041252
638.64319971315
628.72383547305
608.40442656144
661.24572312652
661.22549994976
661.21044360969
661.1966579787
661.1832218209
661.16975672463
661.15612775636
661.14219090887
661.12744226042
661.11091499
661.09122598426
661.06656390223
661.03467234189
660.99280512467
660.93765125471
660.86522307459
660.770698447
660.64825070945
660.49089537075
660.28895568709
660.03047643404
659.70010274764
659.27794157937
658.73804367943
658.04630708221
657.157478956
656.01081503699
654.52350489366
652.5802755791
650.01598905716
646.58384035197
641.90261250201
635.31025433087
625.52893554175
609.45444877628
574.31432704569
602.64143258397
569.47522998775
520.37679069354
457.15211190163
385.90624670627
311.95903500211
240.81276869563
177.18636129162
124.21376831773
83.093574381373
52.849170062396
32.860158162248
20.001435907472
12.010909677141
7.2430467784164
4.4021556525916
2.7157199116092
1.7067736584679
1.0937940647103
0.71678876872848
0.48076391571414
0.32913856708987
0.22983963160342
0.1636666011714
0.11855142478143
0.087443714021862
0.065647974099729
0.049490417997332
0.038302027874678
0.029707180899084
0.02338830991274
0.018641402982857
0.014905028381502
0.012137184349351
0.009859600047176
0.0081619974813045
0.0067309170732255
0.0056473073989816
0.00472308183655
0.0040060716847674
0.0033968240860323
0.0029051452333879
0.0024964955718298
0.0021488761293802
0.0018677411819774
0.0016183622957364
0.0014194514492512
0.0012398524300556
0.0010944745010892
0.00096580445429895
0.00085524451065877
0.00075985999599792
0.00067704528924439
0.00060503535081824
0.00054210448371939
0.00048694499390822
0.0004384274116388
0.0003956483247971
0.00035783333458833
0.00032432439191316
0.00029454877508617
0.00026802238551993
0.00024433483553798
0.00022313651385281
0.00020412499814088
0.00018703981885743
0.00017165792942586
0.00015778974497632
0.00014526207698506
0.0001338437830038
0.00030191813633845
0.0053946485945935
0.0069549487299989
0.0069531190942111
0.0068121008306621
0.0065915862475494
0.0062913360078638
0.0059218438420219
0.0055327941781202
0.0052288586384037
0.0050392970505986
0.004909038369874
0.0047997161112245
0.0046960251403438
0.0045817871263085
0.0044919592716013
0.0044131676108639
0.0043483212291424
0.0043043097957194
0.0042694903447857
0.0042498511045261
0.0042441647523299
0.0042474422492083
0.0042588933862993
0.0042778356578359
0.0043028576108404
0.0043327359730252
0.0043665016537051
0.0044033911204806
0.0044429166040938
0.0044847624667665
0.0045285939697011
0.0045744248844923
0.0046223817884179
0.0046860511582472
0.0047388109941942
0.0047926289082669
0.0048485172514527
0.0049069892569471
0.0049657699531898
0.0050244429386688
0.005083114958121
0.0051414931718279
0.005198972965927
0.0052548092195039
0.005308110129578
0.0053580686152874
0.0054040894623624
0.0054458265584632
0.0054833267750332
0.0055174762635517
0.0055507373656554
0.0055847369540658
0.0056207805615849
0.0056567802484482
0.0056875579281304
0.0057063396723307
0.0057163258128523
0.0057176661139837
0.005710369458622
0.0056860103590286
0.0056494756396646
0.005591025767663
0.0055390149670633
0.0054821867797823
0.005437390227967
0.0054060924161601
0.0053548532534085
0.0052789103201714
0.003631880569146
592.93286032566
550.99098985763
491.61124352277
420.59541372313
344.70300333624
270.63529652033
203.19871386069
146.05833663657
100.6857463027
66.728522041686
42.685049201861
26.492496125756
16.321709115182
9.9741303983242
6.0906757427157
3.7529675878525
2.3429373738236
1.4879637159653
0.96405055665618
0.63776428614653
0.43081214820572
0.29712075349461
0.20897030838706
0.14967109944364
0.1090756512569
0.080776913164404
0.060716042109903
0.046277258657594
0.035710246588996
0.027896317432141
0.022015393239494
0.017566773229497
0.014138173777086
0.011484408373548
0.0093998951912271
0.007755164588612
0.006440954703844
0.0053870991157192
0.004531673982124
0.0038360647294964
0.0032634952198847
0.002792492145868
0.00239970823922
0.0020730776062186
0.0017977117866275
0.0015662584477774
0.0013693361508089
0.0012019808363343
0.0010585910596939
0.00093551167159467
0.00082931290470867
0.00073732189110076
0.00065747271304228
0.00058786745005712
0.00052704336199072
0.00047367559151279
0.00042672806959965
0.00038530415420135
0.00034866160164609
0.00031616310418203
0.00028727003157697
0.00026151794113322
0.00023850932425568
0.00021790407711025
0.00019941372397425
0.0001827917055045
0.00016782378621777
0.00015432307194746
0.00014212560554577
0.00013190852978084
0.00089715167942528
0.0062462976643913
0.006976066281231
0.0069150264852977
0.0067522230253312
0.0065111086862628
0.0061921382816186
0.0058122857495966
0.00543578210294
0.0051634236169977
0.0049935714498393
0.0048720625306973
0.004766236505874
0.0046647931465347
0.0045779330219624
0.0044889671212742
0.0044114919695655
0.0043474644449297
0.0043036162882308
0.0042701227983255
0.0042510054301836
0.0042456135218161
0.0042494838425553
0.0042614482065373
0.0042807689168636
0.0043060782362174
0.0043361615913606
0.0043700495843131
0.0044069899768255
0.0044465254961856
0.0044883361108055
0.0045320935088116
0.0045778029868158
0.0046255726192201
0.0046888993090477
0.0047412363480877
0.0047948086169365
0.00485011965352
0.0049079465900184
0.0049662240725901
0.0050244869211173
0.0050827100222008
0.0051405628025534
0.0051974497699718
0.0052526394838954
0.005305256932068
0.0053545201138063
0.0053998225909777
0.0054408031275337
0.0054774877287844
0.0055107252588
0.0055429638818592
0.0055759754236369
0.0056111668708461
0.005645862039418
0.0056755327666105
0.005693712221273
0.0057037979370107
0.0057052840259222
0.0056982177859362
0.0056737948258139
0.0056372152125395
0.0055789512027775
0.0055282782097235
0.0054712589618444
0.0054271193592457
0.0053956205807706
0.0053456327760297
0.0052741997307404
0.0036293516256609
587.67435594931
535.28453485594
464.44529320655
384.22168962998
303.83952509563
230.89524147829
169.23796785
119.89288546271
82.29536330808
54.610093431904
35.657900798934
22.737770820882
14.28554159805
8.911042017132
5.5478632313744
3.4712287232175
2.1956529120556
1.4106113874868
0.92250852370345
0.61445346253671
0.41736195532431
0.2892170497005
0.20415485904792
0.14665910508149
0.10716991945721
0.079541120748854
0.059883319399756
0.045713646820636
0.035330809275171
0.027620804507233
0.021829895170057
0.017422165362729
0.014039029512786
0.011405642218051
0.0093450366487478
0.007710504685456
0.0064096007228316
0.0053608807967152
0.0045131865782437
0.0038201137458598
0.0032524350350107
0.002782546748644
0.0023927419700618
0.0020667513029768
0.0017930524750427
0.0015620888562089
0.001365988980944
0.0011991947536489
0.0010561706465614
0.00093353813402586
0.00082758017419282
0.00073597902999489
0.00065630039937259
0.00058685998391983
0.00052614809517093
0.00047289654226246
0.00042605533798645
0.00038472211797458
0.00034815441041636
0.00031571882043319
0.00028688113335118
0.00026117700459116
0.00023820903374483
0.0002176385696453
0.00019917941150388
0.00018258501205815
0.00016764117452694
0.00015416101749449
0.00014198281691613
0.00013183997747479
0.00093157643413233
0.0062750318854987
0.0069828148694198
0.0069189528062048
0.0067549345523634
0.0065132674566648
0.0061942717955121
0.0058145343770279
0.0054372959238564
0.0051627153571867
0.0049912024659262
0.004868825563922
0.004762728627614
0.0046613792190444
0.004575309482411
0.0044865630861863
0.0044094542099953
0.0043456697408795
0.0043008689441433
0.0042677670126821
0.0042489919339657
0.0042434757639467
0.004247921267492
0.0042602713938225
0.0042799067059518
0.0043055189781418
0.0043358873092398
0.0043700289208641
0.0044071625035016
0.0044468551673025
0.0044888273700552
0.0045327482419086
0.0045785852092812
0.0046264197403476
0.0046897302906954
0.0047419372151545
0.0047956266342568
0.0048512491515427
0.0049094448085911
0.0049677034451794
0.0050263521048293
0.005084914865318
0.0051430443494123
0.0052001901035155
0.0052556412633444
0.0053085309600232
0.005358061977021
0.0054035665039833
0.0054446604572711
0.0054813532714437
0.0055144385562476
0.0055461771474599
0.0055791788564892
0.0056138787212676
0.005647364146891
0.0056766663320604
0.0056952850958227
0.0057064975841055
0.0057080477786609
0.0057004189775252
0.0056765035123396
0.0056393231526548
0.0055826610538083
0.005532802254465
0.0054755314077526
0.0054320992108958
0.00539676707323
0.0053488714308936
0.0052850117026872
0.0036377733328679
576.00126181337
500.51953948935
408.23929854017
316.0095726875
236.88359866449
172.86889974702
124.02392086107
87.48919244602
60.64423030665
40.994948817695
27.826971784168
18.37411982442
11.919520066248
7.6526618977417
4.8809595053819
3.1213111746975
2.0110429132584
1.3103850888267
0.86692055768122
0.58365505850248
0.39978420963973
0.27847986686914
0.19760814282361
0.14262684903371
0.10455771692942
0.077810566552942
0.058745191149376
0.044929498304439
0.034785562549044
0.027238102379654
0.021556844007228
0.017223540167687
0.01389056309312
0.01129751091005
0.0092618551099868
0.0076492994247954
0.0063615928223189
0.0053247560562977
0.0044845040265649
0.003798308733526
0.0032348910654256
0.0027687630484559
0.0023817856355388
0.0020578085669007
0.001785961516666
0.0015560568568509
0.0013612616285446
0.0011950545873353
0.001052850147193
0.00093063227571588
0.0008251755252493
0.00073392580492593
0.00065457761288701
0.00058541176179361
0.00052488607850554
0.00047180580264394
0.00042510229988346
0.00038389372506076
0.00034743504251478
0.00031509504672272
0.00028633668477251
0.00026069824294322
0.00023778698759397
0.00021726788037602
0.00019885406177189
0.00018229789134766
0.00016738704027974
0.00015393572176503
0.00014178276918159
0.00013177032232708
0.0009849443003882
0.0063116725187795
0.0069913671367456
0.0069238100884781
0.0067583557712867
0.0065161282932444
0.0061973564697251
0.0058180722675352
0.0054397627892044
0.0051618487516238
0.0049877722969232
0.0048640488259568
0.0047575151255901
0.0046562083606683
0.0045709100766507
0.0044823546603789
0.0044057067399343
0.0043428462965298
0.0042979737997066
0.0042658084150049
0.004247683362226
0.0042425796050882
0.0042475547208107
0.0042604980838457
0.0042806866288714
0.0043067991668944
0.0043376017117276
0.0043720925304223
0.0044094889012032
0.0044493466027002
0.0044914212022229
0.0045354026224833
0.0045812223899664
0.0046289713076642
0.0046920650169817
0.0047439852683118
0.0047973682560314
0.0048526106581406
0.0049103561778063
0.0049682890646083
0.0050267129183299
0.0050850835012268
0.0051430336955034
0.0052000019742986
0.0052552649829367
0.0053079607135083
0.0053572432157196
0.0054024132754305
0.0054430759551971
0.0054792163989763
0.0055115928748284
0.0055424474499943
0.0055744772628188
0.0056079103057673
0.0056399906988354
0.0056686475429806
0.0056872037293783
0.0056988462172858
0.0057008517214587
0.0056934603556167
0.0056696701931829
0.0056326691741766
0.0055770234885013
0.0055280601525698
0.0054710337684956
0.0054284620431411
0.0053929098629255
0.0053498349611154
0.0052889515124273
0.0036365195960657
537.74883127608
408.05835251542
289.88313179449
204.19038468756
146.99460078014
106.54071337081
77.762781843048
56.770433747341
41.057786982873
29.347122707177
20.57273867724
14.122356997707
9.5204959316473
6.3280712186853
4.1687895725815
2.7351154344337
1.8001054384641
1.194962814758
0.80236394806886
0.54625173437737
0.37780782448706
0.26568607627639
0.18960193239945
0.13751261375866
0.10128555467205
0.07568740938575
0.057297889451045
0.043939200964732
0.034098559927326
0.026753905093641
0.021205788133722
0.016971530132812
0.013702599246006
0.011157954747073
0.0091563486463353
0.0075699074063684
0.0062998790928788
0.0052777679265745
0.0044475697502782
0.0037697093401066
0.0032119334002847
0.0027509335367821
0.0023671755565586
0.0020462436696325
0.0017763888557925
0.0015483240910468
0.001354817224139
0.0011896777642182
0.0010483997352627
0.00092684581515534
0.00082202606579174
0.00073119727201532
0.00065228701929676
0.00058346734275094
0.0005232330755548
0.00047037402076544
0.00042385080077034
0.00038280638917787
0.00034649144608151
0.00031427493096842
0.00028561902116936
0.0002600680355711
0.00023723406021414
0.00021678285012433
0.00019842689038879
0.00018192054612692
0.00016705348116819
0.00015364021679198
0.00014152021814279
0.00013170710074817
0.0010599549048528
0.0063579684647426
0.0070013267054181
0.0069291423303555
0.0067620773663473
0.0065195755070175
0.0062014433291488
0.0058228932164486
0.0054432869052188
0.0051609640559334
0.0049833997781148
0.0048578185121815
0.0047506586300892
0.0046494424954022
0.0045651012380463
0.0044769494664867
0.0044009276357611
0.0043389509981173
0.0042941300474808
0.004262811135312
0.0042454590128964
0.0042409780068324
0.0042466398095253
0.0042603535698391
0.0042812807444934
0.0043080804951512
0.004339472539967
0.0043744227200793
0.0044121487353921
0.0044522119512074
0.0044943857000943
0.004538345997471
0.0045840512063444
0.0046316209294495
0.0046943049790495
0.0047457955790244
0.0047987634047597
0.0048537286454309
0.0049109907361502
0.0049686383708742
0.005026877594376
0.0050851494475634
0.005143055523235
0.0051999926513997
0.0052552060341067
0.0053077887853621
0.0053568822253185
0.0054017607881194
0.0054420200814369
0.0054776230347844
0.0055093021494061
0.0055392600655748
0.0055701839424203
0.0056024320051684
0.00563354837095
0.0056617293098524
0.0056804368544108
0.0056925769295892
0.0056955041679245
0.0056885858605225
0.0056650891003658
0.0056282522525348
0.0055731062719746
0.0055252698814636
0.0054682625547184
0.0054270677838102
0.0053915186577664
0.005350284767043
0.0052908190501011
0.0036318425647976
303.72629351752
158.98902014128
111.82109683025
87.023301878856
69.109108017028
54.963800902773
43.418898767643
34.127425500357
26.267978080989
19.772829469256
14.536110659988
10.458498726914
7.3585378568067
5.0801681403855
3.4618891882256
2.3412368279328
1.5803222514006
1.0705871469776
0.73114563618815
0.50486963280638
0.35315776512089
0.25048567555661
0.18037751398093
0.13162959414749
0.097445356895109
0.07312769194009
0.055606124276892
0.042766994464762
0.033273253079326
0.026170091050257
0.020789076156693
0.0166646673488
0.013477284124392
0.010990141066118
0.0090296216003161
0.0074725505281052
0.0062261058763249
0.0052203998484364
0.0044028064506305
0.0037344791238891
0.0031842887488609
0.0027288224272568
0.0023493540297428
0.0020319270145852
0.0017646705925614
0.0015387842696761
0.0013468143422394
0.001183112462832
0.0010428730845082
0.00092222572962475
0.00081810064373089
0.00072786255280832
0.00064946006883981
0.00058104421792549
0.00052117147300756
0.00046859508708763
0.00042231507849488
0.00038147246706299
0.00034532699511647
0.00031325574985552
0.00028472758714587
0.00025928975744549
0.00023655208347384
0.00021618165756626
0.00019789574609275
0.00018145266014935
0.00016664070857875
0.0001532741370972
0.0001411960865616
0.00013166888344601
0.0011583323997446
0.0064151610293135
0.0070132271306051
0.0069348492378487
0.0067659056327725
0.006523418528678
0.0062064698690358
0.0058291050002834
0.0054480531050469
0.005160267997798
0.0049782225914925
0.0048502135442099
0.004742211697595
0.0046410533627543
0.0045576661309925
0.0044700677292058
0.0043949046428142
0.0043340456830754
0.0042896374831498
0.0042593026241136
0.0042429357121587
0.0042393444686457
0.0042458734910571
0.0042605132722797
0.0042822930317856
0.0043098484230879
0.004341851789045
0.004377263407902
0.0044153098978843
0.0044555609787091
0.0044977862653233
0.0045416884849392
0.0045872101561115
0.0046345561013923
0.0046966370949921
0.0047477307786274
0.0048002503499462
0.0048548471307996
0.0049115265514634
0.0049688190555461
0.0050267975318166
0.0050848773407057
0.0051426241351171
0.0051993940325148
0.0052544042263507
0.0053067276746062
0.0053554820759929
0.0053998934805777
0.005439534522899
0.0054743301366538
0.0055049705327597
0.0055336029152993
0.0055628652654347
0.0055935803755964
0.0056236420572389
0.0056514097206821
0.0056703478663493
0.0056829694637708
0.0056868995087096
0.0056807747398731
0.0056579229048963
0.0056213377472338
0.0055667738217187
0.0055198904455966
0.0054631053691943
0.0054241720143511
0.0053881275580736
0.0053516357462726
0.0052945164117735
0.0036269081384828
0.34749660945196
16.136525399008
24.381722234918
27.922049205271
28.524073387963
26.882720645014
23.856641535103
20.384191441638
16.891676449337
13.597608168031
10.640793534318
8.0969562205654
5.9988716462082
4.3376456331641
3.0756615686346
2.1516883321494
1.4934353094363
1.0346368062683
0.71904449860575
0.50320365879337
0.35556377719071
0.25414566251546
0.18391039611739
0.13491923300137
0.10018324885102
0.075295759935346
0.057316117038033
0.044149850432783
0.034373237666892
0.027029924655462
0.021472435280452
0.017217638276217
0.013921349566452
0.011346027433976
0.0093196379990577
0.0077102140001371
0.0064204746804406
0.0053806912781467
0.004536406375905
0.0038459033907041
0.0032774738228709
0.0028072626020472
0.0024158705979953
0.0020883367512328
0.0018126766596791
0.0015798483126677
0.0013821043992235
0.0012135267888095
0.0010691017283831
0.00094497999697374
0.00083789798146416
0.00074515872234127
0.00066457254091357
0.00059429152465573
0.00053284596915915
0.00047892207438749
0.00043146234753011
0.00038957545608065
0.00035252560923821
0.00031967374301389
0.00029046442914699
0.00026442692089801
0.00024116157968523
0.00022032986783665
0.00020163923237998
0.00018483764831395
0.00016970709362291
0.00015605868928165
0.00014371829625148
0.00013254881600927
0.0004310198053693
0.0058150280668507
0.0070142973281415
0.006972862170465
0.0068190871984077
0.0065949728419774
0.0062977695295605
0.0059344160079369
0.005545452139299
0.005221952397966
0.0050121653033839
0.0048710983410467
0.0047585204813203
0.0046558159523047
0.0045487319906645
0.004461860991382
0.0043877008584707
0.0043280234946537
0.00428430429611
0.0042550195482449
0.0042397992525063
0.0042373183099127
0.0042448718705344
0.004260575703098
0.0042833266799431
0.0043117260448715
0.0043444104499386
0.0043803349589973
0.0044187332347936
0.0044591864056505
0.0045014690488689
0.0045452785040356
0.0045905539223368
0.0046375455481007
0.0047002899545308
0.004750306643051
0.0048019865861086
0.0048559251599356
0.0049116624671213
0.004968342169938
0.0050257908516107
0.0050834395485313
0.0051408009058944
0.0051971832049906
0.0052517516206823
0.0053035202589606
0.0053515724051874
0.005395077600777
0.0054335812321245
0.0054669482312457
0.0054957893931817
0.0055221267980976
0.005548422392504
0.0055765049822869
0.0056049849206423
0.0056322208199167
0.0056515132998878
0.0056647500545859
0.0056700086546217
0.0056651288205538
0.0056433738876689
0.005607062042071
0.0055529415461757
0.0055068563008642
0.0054508680572705
0.0054148058135146
0.0053803894527584
0.0053496760518477
0.0052958833708092
0.0036162602967769
0.068634036430424
0.49416542062136
1.5758004585228
2.941504582877
4.2577717627251
5.2792698948523
5.8512845869529
5.9988274981253
5.6742835772984
5.1313952180642
4.4563095158785
3.7177644480645
2.99719705763
2.3398614135373
1.7780974858186
1.3238418768865
0.97140361841288
0.70651779525076
0.51226113508189
0.37193889732158
0.27129910942714
0.19930882913186
0.14768900367553
0.11048049842376
0.083494727207079
0.063785609954313
0.049216509145379
0.038324749680699
0.03014516369737
0.023935566956279
0.019175416967727
0.015481311299238
0.012600578190659
0.010333567350363
0.0085345323188664
0.0070932544057301
0.0059333098607639
0.0049929512119038
0.0042253489804098
0.0035941670092141
0.0030726093676903
0.0026394165366104
0.0022775547709826
0.001973488774961
0.0017169038523803
0.0014994818681966
0.0013144096576218
0.0011561239250467
0.0010202477802906
0.00090323034253537
0.00080206811562644
0.00071430203298239
0.00063786717631342
0.00057111744597127
0.0005126443541098
0.00046127541701457
0.00041600796267494
0.00037600125862347
0.00034056136642524
0.00030909072154939
0.00028107908669639
0.00025608479800354
0.00023373223458223
0.00021369980813324
0.00019571099516347
0.00017952731293958
0.00016494247698134
0.00015178259239723
0.00013986852601905
0.00013189591379115
0.0016373607004001
0.0066465849014747
0.0070656782067964
0.0069556120419061
0.0067775460910369
0.006536426038906
0.0062266616969775
0.0058566153119197
0.0054718222016852
0.0051620414083142
0.0049598283213008
0.004820427518303
0.0047080565519808
0.0046067097236941
0.0045262821781398
0.004441468673124
0.0043697762970349
0.0043128217192505
0.0042713416940301
0.004244611140003
0.0042323108177695
0.0042326933668975
0.0042427613732932
0.0042609827719946
0.004285961165712
0.0043162023943024
0.0043503206659208
0.0043872748074807
0.0044263254193206
0.0044670761817998
0.0045093408031267
0.0045528468324489
0.0045975413806019
0.0046435398605866
0.0047049488596791
0.0047536913846054
0.0048041648564081
0.0048570896858606
0.0049115846192849
0.0049674231522443
0.0050241385586369
0.0050812030349956
0.0051380180506209
0.00519380957959
0.0052476678364581
0.0052985367769471
0.0053454874774514
0.0053876006061733
0.0054243880315239
0.0054556183071515
0.0054817884450864
0.0055046790290756
0.0055265858510574
0.005550373231985
0.0055761693354395
0.0056019563284821
0.0056216966609532
0.0056357805493916
0.0056425840592182
0.0056393986209984
0.0056196492889744
0.0055840600059711
0.0055300147638655
0.0054840268792464
0.0054278609920873
0.0053969563327567
0.0053649883610645
0.0053454138460554
0.0052967574175691
0.0036002838896341
0.043345806397793
0.095261644250019
0.24936786490927
0.53357723501429
0.89764350074079
1.2835939775519
1.6308445635116
1.892709605533
2.0482265337829
2.0722787507842
1.9740916689403
1.8037768772179
1.5776818420858
1.3286240751653
1.0820806305275
0.85762043586668
0.66553119623734
0.50857406124747
0.38491574218599
0.28991559475051
0.21822595788602
0.16466992879398
0.12484639399906
0.095246532636533
0.073189311006705
0.056691050988773
0.044275049601352
0.034866741135014
0.027690122607431
0.022158529662225
0.017868151925654
0.014519368315364
0.011883317325107
0.009794413070805
0.0081215767540481
0.0067764623677742
0.005688054767101
0.004801659464114
0.0040743206555263
0.0034741598288344
0.0029770387392016
0.0025626326130377
0.0022153718515308
0.001922689363359
0.001675363980524
0.0014652604680245
0.0012860530511698
0.0011324684278824
0.0010004388027968
0.00088657998929509
0.00078801111437343
0.00070236360327025
0.00062768576306538
0.0005624121825849
0.0005051748851097
0.00045483636098342
0.00041043624985426
0.00037116896073686
0.00033636445642238
0.00030543375154651
0.00027787687668923
0.00025327138760711
0.00023125386188044
0.00021151671123448
0.00019378798889103
0.00017783273570621
0.00016344819794856
0.00015044891884519
0.00013868118080584
0.00013349806294505
0.002185228006766
0.0068180638145505
0.0071051432244449
0.0069711360500313
0.0067848892836055
0.0065454492843715
0.0062433822267036
0.0058819541356203
0.0054967116829294
0.0051697326624325
0.0049479052559935
0.0047966269154376
0.0046791067043537
0.0045769174004926
0.0044984053886652
0.0044160332894869
0.0043473567948096
0.0042936902392512
0.0042554936475807
0.0042320487058694
0.0042236112807623
0.0042274006249781
0.0042406041601224
0.0042618153390612
0.0042893298343889
0.0043215703774824
0.0043571908702491
0.0043951229414634
0.0044346726600442
0.0044754852590809
0.0045174133904498
0.0045602229346795
0.0046039412822869
0.004648788549459
0.0047082630494226
0.0047556305499687
0.0048046577551841
0.0048563940552955
0.0049096394232486
0.0049646644179859
0.0050207042278048
0.0050772902056229
0.0051336330898586
0.0051888766181973
0.0052420738814065
0.0052921197615026
0.005338124931813
0.0053790419530459
0.005414354410066
0.0054436955088715
0.0054674179927339
0.0054870372160754
0.0055044935956408
0.0055231127294386
0.0055451512872033
0.0055688888284018
0.0055891543119593
0.0056040143061793
0.00561176784726
0.0056100597074931
0.0055926542307418
0.0055580852523343
0.0055033326159393
0.0054556332099887
0.0054002378142495
0.0053719137799921
0.0053445845690026
0.00533515017283
0.0052957959928728
0.0035822561673926
0.027585382123232
0.047730258630614
0.076582630952068
0.15323260708965
0.26968862044245
0.41151811487154
0.5631363318864
0.70507220586773
0.82129557288415
0.89777438267475
0.92031886395022
0.89653163491958
0.84057934821262
0.75288786086664
0.65174109787736
0.54613449134864
0.44617225666624
0.35738285334293
0.28200654551197
0.22038728436607
0.17133081843117
0.13296019616165
0.10327625731955
0.08046055145847
0.062963319235915
0.049538003778748
0.039217973045498
0.031251586028388
0.025070007794289
0.020246892784266
0.016462710913658
0.013473857370406
0.011095021694197
0.0091910156716288
0.0076600316079647
0.0064209547123961
0.0054120930320845
0.0045835489705361
0.0039013124729086
0.0033367865985761
0.0028668719745448
0.0024737981178311
0.0021428235520926
0.0018636412923148
0.0016268850492513
0.0014253125756396
0.0012528095430215
0.0011047049606133
0.00097722726929272
0.00086703827394308
0.00077149331855075
0.00068829585116925
0.00061569214251489
0.00055215048395518
0.00049636239964357
0.00044723934783886
0.00040385056013115
0.00036545181968717
0.00033138888483125
0.00030109344575907
0.00027408442601101
0.00024994492299102
0.00022832865495542
0.0002089395965485
0.00019151386908911
0.00017582255961779
0.00016166332647793
0.00014886128927588
0.00013724164827167
0.0001399576197666
0.0029686269239202
0.006978441982449
0.0071356797346973
0.0069816795085789
0.0067889332972793
0.0065526081448022
0.0062605770836739
0.0059111351239323
0.0055292960097129
0.0051859049493532
0.0049396673482591
0.004772202169341
0.004646864055434
0.004542677345247
0.0044657924041602
0.0043860048365301
0.0043208366329779
0.0042711078876967
0.0042371337197065
0.0042179539592897
0.0042139892058692
0.0042217044087236
0.004238817085537
0.0042635145708239
0.0042939105932043
0.0043283543085109
0.0043655351441381
0.0044043246878969
0.0044440553021461
0.0044844773599708
0.0045255830311799
0.0045671428247196
0.0046092715241848
0.0046522687533972
0.004708635999682
0.0047540074544392
0.0048010575438979
0.0048514127576322
0.004903370129234
0.0049576883858748
0.0050132347462417
0.0050695723713647
0.0051257481804341
0.005180847055378
0.0052339057136319
0.0052837139466491
0.0053294440296179
0.005369802540552
0.0054041618355989
0.0054319261722817
0.005453230485752
0.0054692463493304
0.0054817326650283
0.0054938082893992
0.005509484672154