/*--------------------------------*- C++ -*----------------------------------*\
| =========                 |                                                 |
| \\      /  F ield         | OpenFOAM: The Open Source CFD Toolbox           |
|  \\    /   O peration     | Version:  2312                                  |
|   \\  /    A nd           | Website:  www.openfoam.com                      |
|    \\/     M anipulation  |                                                 |
\*---------------------------------------------------------------------------*/
FoamFile
{
    version     2.0;
    format      ascii;
    arch        "LSB;label=32;scalar=64";
    class       volScalarField;
    location    "9e-05";
    object      T;
}
// * * * * * * * * * * * * * * * * * * * * * * * * * * * * * * * * * * * * * //

dimensions      [0 0 0 1 0 0 0];

internalField   nonuniform List<scalar> 
109340
(
372.99991220673
372.99866622702
372.99647012175
372.99366821511
372.99066880026
372.98766690385
372.98473472972
372.98190826675
372.97914868763
372.97637772086
372.97360169981
372.97082351991
372.96804002275
372.96524351169
372.96242348296
372.95956649581
372.95665542092
372.95366890036
372.95057994283
372.94735474814
372.94395117608
372.94031781313
372.9363909775
372.93208993335
372.92731141489
372.92192137229
372.91574350839
372.90854237341
372.89999699526
372.88965847642
372.87687809042
372.86067855746
372.83951177375
372.81078462905
372.76984868906
372.70794931614
372.99971477886
372.99805637354
372.99552037524
372.99266170989
372.98972810607
372.98681605232
372.98394618263
372.98110837105
372.97829713333
372.97550062942
372.97271103297
372.96992358789
372.96713174245
372.96432658005
372.96149647939
372.9586270933
372.95570082121
372.9526949856
372.94958090802
372.94632292432
372.9428769661
372.93918897153
372.93519179605
372.93079991396
372.9259034754
372.92035930361
372.91397844996
372.90650733794
372.89759827783
372.8867613668
372.87328159801
372.85606638709
372.83334775884
372.80207578419
372.75649758449
372.68516367256
372.99975480585
372.99779118339
372.99515739506
372.99234722476
372.98946900252
372.98657615634
372.98368097952
372.98080063312
372.97794836378
372.97512119526
372.97231040183
372.96950856852
372.9667076217
372.96389791714
372.96106783669
372.95820316177
372.95528631563
372.95229487307
372.94920031896
372.9459673886
372.94255200045
372.9389006336
372.93494666097
372.93060469911
372.92576484456
372.92028369297
372.91397222966
372.90657680657
372.89774961023
372.88700041181
372.87361335645
372.85649157296
372.83384010543
372.80249347388
372.75622948008
372.68138566664
372.99971635382
372.9974343218
372.99466813569
372.99176512319
372.98882244678
372.98586694774
372.98291499128
372.97998174865
372.97707898957
372.97421076332
372.97137322647
372.96855983446
372.96576210482
372.96297056851
372.96017550087
372.95736319063
372.95451691197
372.9516149336
372.94862934827
372.94552640099
372.94226244958
372.93878410883
372.93502376272
372.93089474203
372.92628510322
372.92104906623
372.9149946391
372.90786448714
372.89930606835
372.88882231095
372.87568681085
372.85878516844
372.83626404147
372.80476741152
372.75729500217
372.67603895029
372.99950269222
372.99646538485
372.99306752138
372.98974379399
372.98649872484
372.98332970384
372.98024826667
372.97728249163
372.97445194731
372.97175139883
372.96918408113
372.96674909367
372.96443922794
372.96224567316
372.9601586825
372.9581659566
372.95625200727
372.9543966267
372.95256954675
372.95074012892
372.94883003189
372.9467623761
372.94445157387
372.94179428673
372.9386631882
372.93489334553
372.93026947465
372.92450486141
372.91720637646
372.90782030649
372.89553521547
372.87911992408
372.85648646912
372.82378444831
372.77243754536
372.67602708074
373.00337024328
373.01761814649
373.03296013388
373.04818690071
373.06286690704
373.07676274484
373.08974725129
373.1017660387
373.11280832331
373.12288303727
373.13201315085
373.14022512392
373.14754497985
373.15399646796
373.15959831234
373.16436346731
373.16829886714
373.171408595
373.1737430781
373.17541922596
373.17642730422
373.1767150698
373.17620474688
373.1747684474
373.17228928202
373.16854542401
373.16324841278
373.15600301837
373.14625451152
373.13320696318
373.11567369816
373.09185117886
373.05861543797
373.01012947381
372.93286466739
372.77677478181
372.60971404663
372.45494596897
372.21806789623
371.87921286375
371.42835274758
370.85453051863
370.1431171493
369.28127010487
368.25830165483
367.06846953955
365.70938565327
364.19958769028
362.58121903848
360.8789148847
359.13496776272
357.38365294812
355.65386594319
353.96777460419
352.33942964066
350.77844577923
349.29005264593
347.87481708553
346.53168749195
345.25856913026
344.05118758411
342.9063695983
341.82198944274
340.78706490876
339.80758228408
338.87320960195
337.98045172629
337.13278612808
336.31641692726
335.54214858613
334.79288549789
334.08126956176
333.39063292218
332.73333015273
332.09411663715
331.48406873257
330.89069547044
330.32152646887
329.76928490616
329.23566239812
328.72006225736
328.21793602973
327.73440820598
327.26142543125
326.80573213774
326.36059377647
325.92853383189
325.50801151046
325.09875962052
324.70008718864
324.31153269831
323.93256739513
323.56277594124
323.20175518533
322.84915002987
322.50459583201
322.16774751094
321.83828034114
321.51590058433
321.20033039541
320.89129990196
320.58856373059
320.29189594196
320.00110938884
319.71596693485
319.43223010182
320.98987276246
320.95777791981
319.80788208599
318.52163449073
317.05900948283
315.36108911961
313.36537121248
311.0205520026
308.41297777561
306.21515115165
305.05732031629
304.58994097477
304.43182614603
304.3944062296
304.39377660714
304.39676255733
304.39767038426
304.39621137584
304.39375847695
304.3898680333
304.38483497881
304.37904820435
304.37206059414
304.363753984
304.35431285333
304.34367503208
304.33175299593
304.3185834902
304.30428000305
304.28901257386
304.27303658625
304.2566414613
304.24018453361
304.22404002194
304.20479913065
304.19057362183
304.17749853785
304.16615583093
304.1568912393
304.14953636143
304.14408591835
304.14047139726
304.13853855332
304.13806934284
304.1387959726
304.14041871436
304.14267666016
304.14524485679
304.147940781
304.15066299375
304.15341228053
304.15634754915
304.15940499684
304.16288185623
304.1662350839
304.16858164456
304.16934439669
304.16857850845
304.16638411435
304.16231272113
304.15566477062
304.14618192435
304.13430401648
304.1214374313
304.1075458945
304.09572370833
304.08386612415
304.1753175156
306.17828088783
349.56287814247
372.56644014712
372.37350535649
372.07962788663
371.67197445396
371.1451438823
370.48980396542
369.69623302745
368.75807002495
367.67076459927
366.43361505909
365.05084693821
363.53942141383
361.92931591979
360.25245749334
358.53842772678
356.81873622951
355.12063963113
353.46479446539
351.86594105278
350.33283248181
348.87000375431
347.47891383177
346.1584234094
344.9059500072
343.71859009754
342.59198519594
341.52242294301
340.5060170632
339.53872333967
338.61767152346
337.73877779853
336.89991418202
336.09742427229
335.32931529139
334.59282727882
333.88610558058
333.20692784909
332.55374238338
331.92461504861
331.31833262988
330.73315127507
330.16822516694
329.62185345947
329.09352586288
328.5816489618
328.08588013424
327.60479417358
327.13807205962
326.68457296859
326.24394025615
325.81525997881
325.39809672909
324.99191235088
324.59613539269
324.21034025272
323.83400377259
323.46674054594
323.10813088095
322.75781927475
322.41544456299
322.08068524173
321.75322262629
321.43276036679
321.11901754722
320.81174765227
320.51070354542
320.21567104085
319.92643636409
319.6427918326
319.35801106701
321.40996764749
320.68011385249
319.49767864665
318.175254856
316.66394215973
314.90295810609
312.83071511828
310.40725270979
307.81483816429
305.85715623225
304.91151095009
304.54248745929
304.42479536314
304.40106927007
304.39963840005
304.40317960473
304.40476609186
304.40395014964
304.40200058771
304.39860671911
304.394016248
304.38859840672
304.3819662815
304.37397146044
304.36479596727
304.35439801878
304.34269284382
304.32971785627
304.31559018244
304.30048546522
304.28465993373
304.26840585106
304.2520820139
304.23606573966
304.21696683838
304.20281993991
304.18984726255
304.1785867844
304.16933368618
304.16195071128
304.15644963016
304.15274197309
304.15067208567
304.15002634044
304.15054398236
304.15192997435
304.15392031115
304.15619579436
304.15858822759
304.16099146931
304.16340413632
304.16596781798
304.16867814239
304.17174290341
304.1746378384
304.17654374495
304.17689214931
304.17571170464
304.17306825853
304.1685310941
304.16134239534
304.15135349988
304.13885764104
304.125534177
304.11105800666
304.09857576968
304.08591819596
304.17631898407
306.17358352944
349.60238893518
372.54694198517
372.31245842636
371.95400018918
371.46647168044
370.85284173179
370.11315733988
369.24896744853
368.25861876029
367.1413877862
365.89646142224
364.53194113219
363.0602331785
361.4978394602
359.87100586102
358.20759975018
356.53534858492
354.87951885136
353.26078624293
351.6935848999
350.1865775183
348.74517342962
347.37175469703
346.06564979437
344.82497654445
343.64708553576
342.52852442094
341.46584434289
340.45537738742
339.49337779711
338.57639943692
337.70161685568
336.86566005534
336.06631059907
335.30048596838
334.5664589044
333.8615274816
333.18434919346
332.53257370207
331.90511281629
331.29993220096
330.71620885865
330.15212580101
329.60701454042
329.07937368485
328.56853051379
328.07336244745
327.59307298929
327.1269666289
326.67408190847
326.23404066509
325.80589798116
325.38932327509
324.98354894296
324.58819905448
324.20276119349
323.82679602625
323.45987981208
323.10160056425
322.75159270129
322.40950497965
322.07501779653
321.74781201136
321.4275890436
321.1140707601
320.80701105607
320.50617358137
320.2113335481
319.92227229277
319.63880646917
319.35517906505
321.41754193373
320.67353691267
319.49372994652
318.17614709928
316.6715170664
314.91936000557
312.85829122997
310.44811207906
307.86433883669
305.89694272771
304.9375406657
304.56025226244
304.43879196102
304.41441078993
304.41216886225
304.41708953722
304.42010965517
304.420625735
304.41981241012
304.41744337502
304.41377296254
304.40911186244
304.4031941571
304.39581713663
304.38716077802
304.37722135445
304.36592091892
304.353298866
304.33947555022
304.32464257114
304.30906718984
304.29304774035
304.27694547273
304.26115011597
304.24229916251
304.22827679492
304.21543931111
304.20427483034
304.19509191845
304.18767845237
304.18210421601
304.17824726125
304.17595567988
304.1750237902
304.17519661682
304.17618626718
304.1777099276
304.17946626647
304.18130665395
304.18311441087
304.18487976887
304.18671691762
304.18872670836
304.19094138211
304.19291032779
304.19392586456
304.19340747711
304.19130986961
304.1876873071
304.18215189352
304.17373143456
304.16272937367
304.14853362928
304.13443705064
304.1186412466
304.10483043018
304.09037056945
304.17802196515
306.16164958232
349.62903755291
372.50773213291
372.17808667506
371.68091941292
371.04241919036
370.28958617821
369.43365453262
368.48891049031
367.45576028733
366.33008069688
365.10743115554
363.79661521787
362.39429077622
360.90936133865
359.35967850024
357.76862533416
356.16145469559
354.56206789638
352.99133255895
351.46441741735
349.99165035138
348.57890167901
347.22830262712
345.94141775024
344.7169101568
343.55219778468
342.44450862549
341.39091731199
340.38817066687
339.43291513584
338.52182785413
337.65201293406
336.82052128719
336.02486023473
335.26260651789
334.53139904812
333.82933241
333.1543733858
332.50490117989
331.87923418689
331.27596214253
330.69369440457
330.13114890711
329.58729736744
329.0608674002
328.55112809445
328.05688991497
327.57761837475
327.11223019059
326.66023734673
326.22080473953
325.79340711047
325.37742483381
324.97227581768
324.57748290985
324.19253511562
323.81704241946
323.45055906222
323.09269959756
322.74308921699
322.40138149844
322.06724641511
321.74036884576
321.42045651551
321.10723776563
320.80046124865
320.49988972411
320.20530153787
319.91647191103
319.63324003789
319.35227537231
321.42908844664
320.66394768998
319.48791023343
318.17732734095
316.68238830805
314.94300872749
312.89812312022
310.50720830022
307.93625042666
305.95510368381
304.97553684239
304.58601923435
304.45886487537
304.43333078572
304.43063031419
304.43758435786
304.44266854237
304.44509569612
304.44591073856
304.44501888197
304.44264136673
304.43907717038
304.4341014471
304.42752916341
304.41953939765
304.41016462175
304.3993404885
304.38710976002
304.37360496473
304.35902935069
304.34367010879
304.32783580685
304.31189513074
304.29626295876
304.27759819918
304.26366515888
304.25091924521
304.23983498997
304.23067877723
304.22323463487
304.2175759396
304.21357063738
304.21106364569
304.20983776238
304.20963148668
304.2101580711
304.21110430382
304.21222025492
304.21334747161
304.21436509718
304.21525747272
304.21613552911
304.21710338414
304.21812791066
304.21880997511
304.21850686803
304.21664571471
304.21310159925
304.20792804827
304.2007624674
304.19057904312
304.17785218809
304.16192090772
304.14622098575
304.12870705564
304.11316261697
304.09598846788
304.1812337027
306.15217621512
349.80107913551
372.40276046068
371.79743932559
370.99655102997
370.11932492183
369.21944851383
368.29100932096
367.32778304727
366.3168598576
365.2424704607
364.0966719777
362.87062234081
361.56293955332
360.17590432227
358.72224275906
357.22171301804
355.69591387005
354.16731432442
352.6566407969
351.17998259704
349.74886153447
348.37069160571
347.04986326194
345.7867613286
344.58194209663
343.4340107137
342.34057873266
341.29862795643
340.30563145222
339.35882794952
338.45504730109
337.59137943644
336.76538508241
335.97438695247
335.21627354115
334.48873531775
333.7899453498
333.11785710658
332.47103445331
331.84769128264
331.2465797633
330.66617729118
330.1054730988
329.56311614681
329.0382266813
328.52972038004
328.03677082482
327.5585432549
327.09420064105
326.64315300166
326.20457989481
325.77801993981
325.36274549617
324.95833827503
324.56420400337
324.1798882274
323.80495251018
323.43899192466
323.08163724331
322.73250760516
322.39125324165
322.05753938656
321.73106051022
321.41152948828
321.09867313696
320.79223648803
320.49198639179
320.19770527901
319.90916567236
319.62619539986
319.34942964212
321.44269402832
320.65174776994
319.48032482836
318.17874446233
316.69646379531
314.97377888546
312.95005838829
310.58439397176
308.03072145232
306.03220417855
305.02585961576
304.61988581497
304.48486693879
304.45743963808
304.4545153411
304.46392593266
304.47159615536
304.47642622707
304.47928383482
304.48021033169
304.4794003261
304.47714516647
304.47324718952
304.46757148751
304.46029156324
304.45147982803
304.44109164895
304.42917737327
304.41588731036
304.40144445543
304.38615408416
304.37034081911
304.35439111551
304.33875550531
304.32009194627
304.30608289288
304.29329221259
304.28219122001
304.27298570379
304.26549727897
304.25975581398
304.25562269577
304.25293133755
304.25144216654
304.2508772442
304.25093532904
304.25129069344
304.25173588369
304.25208421919
304.25220947589
304.2520820984
304.25180429651
304.25147536513
304.25103654932
304.2501132146
304.2480712688
304.24438616696
304.23885394344
304.23156838766
304.22221972711
304.20977993154
304.19490007243
304.1768580146
304.15909169141
304.13943961182
304.12168426495
304.10119651069
304.18328931538
306.13800007412
350.04960647838
371.79474358604
370.25044315173
369.19609704328
368.3211993358
367.48369869199
366.64782797431
365.78893601289
364.89290251326
363.93632510359
362.90573574006
361.79338235281
360.59969539832
359.32591242612
357.98098919172
356.58151737736
355.14783375138
353.70044263255
352.25927115812
350.84150567129
349.45961592181
348.12259464144
346.83542560741
345.60153006215
344.42050815118
343.29235172439
342.21564011673
341.18822805021
340.2072122453
339.2705652483
338.37562026465
337.51966518768
336.70010419812
335.91488817607
335.16176790265
334.43864714869
333.74365635307
333.07513782507
332.43135015601
331.81080439544
331.21214677248
330.63406435393
330.07534904609
329.53485507254
329.01165697906
328.50468118648
328.01316017248
327.53616704344
327.0730724718
326.62307864262
326.18555797682
325.75990144376
325.34551667791
324.94192702411
324.54854914785
324.16496109273
323.79068331878
323.42535166696
323.06857603339
322.71999006559
322.37925018188
322.04603069126
321.7200232659
321.40093241156
321.08848769846
320.7824449342
320.48257374916
320.18865049317
319.90044753815
319.61775544101
319.34736310913
321.45593393498
320.63721728663
319.47118739836
318.18039682717
316.71364013871
315.01149998159
313.01387016937
310.67941232842
308.14788893769
306.12902242521
305.08907002662
304.66207869976
304.51671952284
304.48637340281
304.48321975874
304.49537672163
304.50604005797
304.51367252121
304.51890591537
304.52190077139
304.52283167194
304.52200854255
304.51924046496
304.51445984433
304.50784144808
304.49949183225
304.48940588088
304.47764635086
304.46438594609
304.44987172708
304.43442886701
304.41840322663
304.40219267986
304.38629511212
304.36739208762
304.35307282274
304.34005479563
304.32879403914
304.3194290974
304.3118315627
304.3059662495
304.30168505425
304.29880330283
304.29705462054
304.29613750211
304.29572492803
304.29552005645
304.2952871973
304.2948148785
304.293939598
304.29261324549
304.2909248818
304.28895634978
304.28669433249
304.28376428637
304.27955870912
304.27359768676
304.26558953069
304.25576870871
304.24392800068
304.22903995423
304.21166931782
304.19113454633
304.17083695174
304.14861281076
304.12820476173
304.10379109047
304.18187585551
306.11579621505
350.35223008465
362.98412701337
366.59120745606
366.33354817575
365.91505981293
365.42900710508
364.85777803135
364.20532584893
363.4794082796
362.68326220674
361.81306639104
360.8572188007
359.81239071594
358.68237019508
357.47229205256
356.19478252588
354.86818927351
353.51243335851
352.14689563384
350.7896432156
349.45534839537
348.15475166432
346.89549224169
345.68179986544
344.51650380382
343.39947248114
342.33005633928
341.30762450301
340.33009540391
339.39532196199
338.50070587293
337.64447514389
336.82422988554
336.03764368247
335.2826647817
334.55763751113
333.86057724474
333.18973197424
332.5436058748
331.92077641416
331.31975892161
330.7393009108
330.1782638201
329.63554175674
329.1100815603
328.60091903845
328.10726639038
327.62823464316
327.1631315989
326.71116758832
326.27177817816
325.8443044874
325.42817976107
325.0228607631
324.62783479024
324.24267842407
323.86689315591
323.50008605042
323.1418611707
322.79188743635
322.44981693379
322.11531165064
321.78805677404
321.4677618764
321.15415929931
320.84699328241
320.54602991588
320.25105210929
319.96191419159
319.6783015667
319.3878808549
321.18825361489
320.89379853977
319.7600562692
318.51567051968
317.11505287815
315.50022861114
313.61099745192
311.39666544672
308.90736346753
306.66673262465
305.35963210083
304.78916519927
304.57771820176
304.52243864579
304.51621665607
304.53125683887
304.5452079793
304.55595321189
304.56383183467
304.5690744432
304.57186170943
304.57252898957
304.57087849604
304.56692465571
304.56085159123
304.55280137876
304.54282043243
304.53099249886
304.51751772165
304.50267297381
304.48680729552
304.47028965491
304.45352835924
304.43699651629
304.44467083943
304.42941338043
304.41565851163
304.4038104686
304.39392984779
304.38595034141
304.37972470173
304.37507269429
304.37177019765
304.36949809183
304.36790883227
304.36665508188
304.36542419056
304.36389982592
304.36181533541
304.35897101961
304.35526918261
304.35077086767
304.34555481338
304.33971808792
304.33302107885
304.32493493706
304.31506068632
304.30326319952
304.28979010843
304.27431782831
304.25541495307
304.2336925741
304.20872317868
304.18367787563
304.15684156435
304.13149442273
304.10016550422
304.17063098196
306.06516139901
350.88189785034
353.84616090368
359.05675558151
359.88695804313
360.28047946745
360.44445265454
360.42351029387
360.21811167233
359.85876418838
359.36811072544
358.76296398359
358.05120166666
357.2426805275
356.34126904859
355.35009771821
354.27988811177
353.14700324783
351.96962737567
350.76623015739
349.55387876301
348.34781770636
347.16024786265
346.00002051714
344.87282378304
343.78257155912
342.73132148344
341.7198846073
340.74805390778
339.81454765062
338.91876812146
338.05912852745
337.23387216167
336.44094408462
335.67893785567
334.94627577143
334.24121937195
333.56205249019
332.90753143372
332.27632186895
331.66703905332
331.07838256856
330.50926218117
329.95869195978
329.4255964304
328.90900489395
328.40808044994
327.92206653343
327.45018486482
326.99168281225
326.54593213834
326.11233846009
325.69032418632
325.2793202046
324.87880472137
324.48833094081
324.1074453998
323.73574051725
323.37279377155
323.01823672075
322.67172775419
322.33294117411
322.00156410952
321.67729360835
321.35985437963
321.04898483177
320.744439798
320.44598213524
320.15336727307
319.86646145102
319.58509026486
319.35018059801
321.48096901134
320.57783918109
319.43580176035
318.18700621008
316.78241025448
315.16361499294
313.27248561581
311.06649785259
308.63524310607
306.54851950351
305.36556530252
304.84385685008
304.64881304746
304.60018292373
304.5936362514
304.61412249074
304.63515098959
304.65278642397
304.66658119712
304.67673909952
304.68344492042
304.68709554264
304.6874775663
304.6847984303
304.67929235455
304.67118232883
304.66066057039
304.64788364484
304.63312252314
304.61672773257
304.59911344505
304.58070176922
304.56194339751
304.54331865695
304.54871928293
304.53132487347
304.51565438097
304.50213748254
304.49080842809
304.48167186244
304.47443693762
304.46881435344
304.46448143369
304.4610381848
304.45811085556
304.45526678809
304.45206934903
304.44809067197
304.44295390562
304.43643647778
304.42836607843
304.41886012857
304.4081064859
304.39644968005
304.38420417868
304.37085374453
304.35565236647
304.33801956284
304.31825309327
304.29610867961
304.26995399006
304.24027570445
304.20719312783
304.17334267147
304.1380035357
304.10379483185
304.05978382942
304.11618553923
305.93543730641
351.72242056633
349.45130655721
354.04501400004
355.07964163413
355.72842381074
356.154576877
356.42051456692
356.52122968021
356.47259228507
356.27050502739
355.93143059728
355.47035151936
354.89941179575
354.21775026348
353.43943376634
352.57540351703
351.63688569387
350.63908450425
349.59845901751
348.53150278157
347.45274137676
346.3753050173
345.31030388333
344.26542200269
343.24609489783
342.25584963438
341.29694172306
340.37060807107
339.47681358381
338.6154486551
337.78542596443
336.98565855912
336.21552715562
335.47358440631
334.75864642984
334.06906238579
333.40377866086
332.76170594157
332.14156175364
331.54213611075
330.9622915124
330.40124979391
329.85789249752
329.33132350793
328.82058430979
328.32506403804
327.84395318953
327.37653569613
326.92210480368
326.48008862069
326.0499547789
325.63111417727
325.22303592479
324.82522639091
324.43727094996
324.05873525248
323.68920035908
323.32828442019
322.97562890875
322.6309111266
322.29380052898
321.96398184135
321.64117550519
321.32511661521
321.01556296972
320.71225818984
320.41497745056
320.12353648387
319.83778862129
319.55735298796
319.38488301421
321.47576575894
320.5225638641
319.40416510459
318.1918118006
316.84014033507
315.29293500273
313.49400318694
311.40062561326
309.06867529688
306.94843053299
305.63737840554
305.02103476276
304.77274606049
304.69996104015
304.68569690764
304.70970448943
304.73791005304
304.76291062094
304.78328385589
304.79884913713
304.8096708818
304.81615473937
304.81816289579
304.81610994675
304.81032437429
304.80114045514
304.78892771825
304.7739808016
304.7566659332
304.73742870482
304.7167643236
304.69516950356
304.67316675685
304.65128571228
304.65196926717
304.63138463156
304.61276167244
304.59660529662
304.58293860996
304.571801375
304.5627846242
304.55542389798
304.54919212545
304.54369642388
304.53841435132
304.532738246
304.5261387312
304.51809915899
304.5082514417
304.49650545933
304.48295893611
304.46791302415
304.45131448098
304.43319896988
304.41371953687
304.39267101518
304.36910025447
304.34252740808
304.31343071858
304.28162818475
304.24531670464
304.20457460314
304.15991054597
304.11380512111
304.06664245673
304.01929461213
303.95669648926
303.99350507345
305.70116779219
352.67360881622
346.74701756413
350.43160278182
351.45715045836
352.15181516152
352.6662901748
353.050422129
353.30272144486
353.42027669792
353.41239019293
353.26931099771
352.99483055336
352.60923765196
352.12749047518
351.5331947978
350.84584198475
350.07983091205
349.24495933953
348.35609377588
347.42834092367
346.47557722141
345.51053902381
344.54382756666
343.58480675952
342.64042887551
341.71547854244
340.81346593974
339.93658982355
339.08611034459
338.26252866923
337.46579578833
336.69568056119
335.9515851232
335.23243405656
334.53738253869
333.86590152726
333.21678394642
332.58917439751
331.98175250348
331.39376727069
330.82449602314
330.27288257886
329.73811903821
329.21919346111
328.71558416175
328.22652421619
327.75131060698
327.28922783202
326.83968731883
326.40222815471
325.9762423136
325.56122920531
325.15664630804
324.76210264599
324.3771861709
324.00145999132
323.63453743295
323.27603625083
322.92564945824
322.58305925222
322.24794034976
321.91999497782
321.5989391379
321.28452773667
320.97652141259
320.67469319576
320.37883083115
320.08876941275
319.80423720758
319.52468688929
319.52586538178
321.44075150061
320.45641092082
319.36412527343
318.1941475159
316.90312412664
315.43786798947
313.74492603045
311.78229971231
309.57713120874
307.45412754017
305.99932609346
305.25860043728
304.93587039406
304.82490167041
304.79474035561
304.81830126122
304.85240151805
304.88495251346
304.91227601533
304.93368676892
304.94882207869
304.95791400028
304.96111613724
304.9589764843
304.95197253795
304.9406062822
304.92544089159
304.90698071952
304.88572669561
304.86225748886
304.83718795714
304.81110887918
304.78461187321
304.7582850496
304.75254515199
304.72767746493
304.70502798967
304.685228838
304.66825533735
304.65414550042
304.64237508531
304.63221324507
304.62288210093
304.61386490407
304.60452488833
304.59408548271
304.58215030204
304.56860666745
304.55340328677
304.53597017444
304.51566247092
304.49213505756
304.46550946656
304.43604769758
304.40425691952
304.37078215128
304.33456884698
304.29493788325
304.25235113071
304.20643745536
304.15595303334
304.10008320514
304.03875227802
303.97466791373
303.90949185598
303.84286289035
303.75361542444
303.76309529156
305.31111656326
353.48780234599
345.17621228753
347.56021151106
348.5993789907
349.26370863309
349.79590351933
350.22009096802
350.539039776
350.75828602282
350.84903821672
350.83791515503
350.71123837636
350.46956157987
350.1221797913
349.68155058414
349.1489129675
348.52867608911
347.83647814195
347.08435996309
346.28451023667
345.44930942985
344.59171305405
343.72223534889
342.84955038017
341.98127770565
341.12345122145
340.28047542507
339.45551112742
338.65073322038
337.86745531046
337.1064572715
336.36799108182
335.65189565988
334.95785902673
334.28548404266
333.63404154193
333.00271328382
332.39096409638
331.79817767485
331.22336344216
330.66595538667
330.12493165637
329.5996643674
329.08968250572
328.5941736713
328.11255018862
327.64400898272
327.18808273427
326.74432203131
326.31210818825
325.8909772757
325.48035510754
325.07989571409
324.68919778588
324.3078173255
323.93537335986
323.5714666375
323.21582094468
322.8681096285
322.52800142579
322.19520301212
321.8694245045
321.55042030747
321.23795503447
320.93177143593
320.63165952127
320.33744322295
320.04884650911
319.7656148124
319.48689445961
319.86419055118
321.36778914089
320.37743822899
319.31441595847
318.1907364783
316.96597897143
315.59029103382
314.01353853806
312.19541991183
310.14207471121
308.06366210886
306.47194230249
305.57659116397
305.15325218412
304.98567185611
304.92747718931
304.9437620276
304.98035516355
305.0195571855
305.05389849213
305.0813790384
305.1009265518
305.11245201732
305.11638168692
305.11339660464
305.10417284523
305.08942399931
305.06992238056
305.04647943
305.01979877963
304.99061685901
304.95968898984
304.92775971294
304.89549288698
304.86355892132
304.85006326829
304.81988222697
304.79219043658
304.7677549059
304.74646898458
304.72832574557
304.7126029631
304.69814605005
304.68387889347
304.66922040092
304.65359101768
304.63711254217
304.61913874859
304.59850970615
304.57393021836
304.54481067188
304.51101704907
304.47231239865
304.42949648274
304.3827987067
304.33232212625
304.27991337515
304.22483799149
304.16611689407
304.10314759672
304.03551539453
303.96265129862
303.88211548979
303.79394985087
303.70074553246
303.60540944634
303.50738915325
303.39161990352
303.34543962671
304.71246489662
353.64560489228
344.40940905573
345.14985504048
346.24687514365
346.86843123392
347.38076409249
347.81072545809
348.15658904821
348.42355745631
348.58316923217
348.64193969718
348.61819611381
348.48681260012
348.23868042316
347.91345341126
347.51056549991
347.01811718972
346.44622547267
345.81112583665
345.12555569404
344.39898081032
343.641163214
342.86308486904
342.07399904568
341.28104050456
340.49044823306
339.70740757025
338.93566976447
338.17812847954
337.43683860044
336.71312029357
336.00786350247
335.32148992056
334.65408512728
334.00550049991
333.37544941525
332.76358508767
332.16949582143
331.5924698227
331.03179337359
330.48723828872
329.95811085709
329.44373288941
328.9436921599
328.45708483794
327.9834572307
327.52251212054
327.0735947044
326.6362569545
326.2099232231
325.79410022347
325.38855998006
324.99280635999
324.60644140193
324.22906513545
323.86030219234
323.49991737813
323.14754794599
322.80287471081
322.46560084307
322.13543349837
321.81215493989
321.49551105599
321.18524547669
320.88114918048
320.58299142154
320.29053204882
320.00358321655
319.72194903724
319.44364996175
320.49239875838
321.27521340882
320.28312117004
319.2522521756
318.17763361312
317.02238410102
315.74066979704