/*--------------------------------*- C++ -*----------------------------------*\
| =========                 |                                                 |
| \\      /  F ield         | OpenFOAM: The Open Source CFD Toolbox           |
|  \\    /   O peration     | Version:  2312                                  |
|   \\  /    A nd           | Website:  www.openfoam.com                      |
|    \\/     M anipulation  |                                                 |
\*---------------------------------------------------------------------------*/
FoamFile
{
    version     2.0;
    format      ascii;
    arch        "LSB;label=32;scalar=64";
    class       volScalarField;
    location    "9e-05";
    object      TpSat;
}
// * * * * * * * * * * * * * * * * * * * * * * * * * * * * * * * * * * * * * //

dimensions      [0 0 0 1 0 0 0];

internalField   nonuniform List<scalar> 
109340
(
372.99991216528
372.99866621637
372.99647011027
372.99366820213
372.99066878649
372.98766688945
372.98473471471
372.9819082529
372.97914867542
372.97637770945
372.97360168911
372.97082350983
372.96804001323
372.96524350265
372.96242347433
372.95956648753
372.95665541297
372.95366889268
372.95057993538
372.94735474089
372.94395116902
372.94031780622
372.93639097071
372.93208992666
372.92731140828
372.92192136575
372.9157435019
372.90854236695
372.8999969888
372.88965846994
372.87687808389
372.86067855083
372.83951176697
372.81078462207
372.76984868184
372.70794930856
372.99971476105
372.99805636425
372.99552036422
372.99266169807
372.98972809382
372.98681604031
372.98394617254
372.98110836204
372.97829712502
372.97550062171
372.97271102578
372.96992358115
372.96713173607
372.96432657401
372.96149647364
372.95862708781
372.95570081592
372.95269498049
372.94958090306
372.9463229195
372.94287696138
372.93918897153
372.93519179605
372.93079991396
372.9259034754
372.92035930361
372.91397844996
372.90650733794
372.89759827783
372.8867613668
372.87328159801
372.85606638235
372.83334775391
372.80207577902
372.756497579
372.68516366662
372.99975479011
372.99779117229
372.995157384
372.99234721442
372.98946899374
372.98657614879
372.98368097274
372.98080062694
372.97794835812
372.97512119003
372.97231039696
372.96950856852
372.9667076217
372.96389791714
372.96106783669
372.95820316177
372.95528631563
372.95229487307
372.94920031896
372.9459673886
372.94255200045
372.9389006336
372.93494666097
372.93060469911
372.92576484456
372.92028369297
372.91397222966
372.90657680657
372.89774961023
372.88700041181
372.87361335645
372.85649157296
372.83384010543
372.80249347388
372.75622948008
372.68138566165
372.99971633866
372.99743431343
372.99466813035
372.99176512319
372.98882244678
372.98586694774
372.98291499128
372.97998174865
372.97707898957
372.97421076332
372.97137322647
372.96855983446
372.96576210482
372.96297056851
372.96017550087
372.95736319063
372.95451691197
372.9516149336
372.94862934827
372.94552640099
372.94226244958
372.93878410883
372.93502376272
372.93089474203
372.92628510322
372.92104906623
372.9149946391
372.90786448714
372.89930606835
372.88882231095
372.87568681085
372.85878516844
372.83626404147
372.80476741152
372.75729500217
372.67603895029
372.99950268397
372.99646538485
372.99306752138
372.98974379399
372.98649872484
372.98332970384
372.98024826667
372.97728249163
372.97445194731
372.97175139883
372.96918408113
372.96674909367
372.96443922794
372.96224567316
372.9601586825
372.9581659566
372.95625200727
372.9543966267
372.95256954675
372.95074012892
372.94883003189
372.9467623761
372.94445157387
372.94179428673
372.9386631882
372.93489334553
372.93026947465
372.92450486141
372.91720637646
372.90782030649
372.89553521547
372.87911992408
372.85648646912
372.82378444831
372.77243754536
372.67602708074
373.00337024328
373.01761814649
373.03296013388
373.04818690071
373.06286690704
373.07676274484
373.08974725129
373.1017660387
373.11280832331
373.12288303727
373.13201315085
373.14022512392
373.14754497985
373.15399646796
373.15959831234
373.16436346731
373.16829886714
373.171408595
373.1737430781
373.17541922596
373.17642730422
373.1767150698
373.17620474688
373.1747684474
373.17228928202
373.16854542401
373.16324841278
373.15600301837
373.14625451152
373.13320696318
373.11567369816
373.09185117886
373.05861543797
373.01012947381
372.93286466739
372.77677478181
372.60971403934
372.4549459639
372.21806788392
371.87921293291
371.42835281177
370.85453067874
370.14311715789
369.28126997453
368.2583015543
367.06847123653
365.70942054905
364.19958434976
362.58121240718
360.87891814269
359.13496492627
357.38365603707
355.65386446372
353.96777260164
352.33943156493
350.77844453869
349.29004962092
347.87481368487
346.53166915396
345.25851113327
344.05117997668
342.90662235633
341.82185629892
340.78689588011
339.80797684373
338.87265721643
337.98117543274
337.13235779797
336.31692350911
335.54177202997
334.79325687793
334.08091649396
333.39101813001
332.73296118443
332.09464179357
331.48366810332
330.89146666481
330.32105563625
329.77003406819
329.23515294762
328.72018345916
328.21757653455
327.73433222562
327.26139531343
326.80555305468
326.36076957578
325.92847623788
325.50801981763
325.09874756322
324.70008448815
324.31152212382
323.93256094371
323.56276639908
323.20174687375
322.8491405201
322.50458687711
322.1677385683
321.8382724526
321.51589401335
321.20032572786
320.89129644888
320.58855991978
320.2918922553
320.00110546223
319.71596129919
319.43223391031
320.99196161985
320.95779012915
319.8078831727
318.52163612312
317.05901102124
315.36109003769
313.36537152743
311.02055149624
308.41297546845
306.2151488652
305.05731892557
304.5899396364
304.43182483688
304.39440488981
304.39377796098
304.39676372476
304.39767121511
304.39621158002
304.39375814542
304.38986726648
304.38483362609
304.37904651621
304.37205879296
304.36375214197
304.35431111461
304.34367350143
304.33175172617
304.31858249016
304.3042792503
304.28901202107
304.27303618585
304.25664116312
304.2401842985
304.22403980882
304.204798902
304.19057341413
304.17749834963
304.16615565981
304.15689110751
304.14953615692
304.14408571188
304.14047116661
304.13853829477
304.1380690441
304.138795609
304.14041824751
304.14267604556
304.14524405411
304.14793975389
304.15066172505
304.15341081866
304.15634602237
304.15940349149
304.16288058096
304.16623350471
304.16857889571
304.16934000973
304.16857249906
304.16637669276
304.16230350194
304.1556528699
304.14616715456
304.13428722239
304.12142024857
304.10752854215
304.09570673466
304.08384874798
304.17530014607
306.17826192417
349.56288142977
372.56644014174
372.3735053498
372.07962774021
371.67197329081
371.14514540556
370.48980474734
369.69623264714
368.75806977446
367.67076460588
366.43361401363
365.05084513788
363.53941866245
361.92931910331
360.25245526403
358.53842705638
356.81873671151
355.12063879577
353.46479506034
351.86594029472
350.33283148049
348.87000384764
347.47891333398
346.15842399078
344.90595052603
343.71858582321
342.59198255492
341.52243317724
340.50599678383
339.53873240713
338.61766878561
337.7387666807
336.8999293112
336.0973984366
335.32934144168
334.59279801224
333.88613294281
333.20689652882
332.55376619067
331.92458590803
331.3183472453
330.73312871248
330.16822949232
329.62184641843
329.09352413195
328.58166315301
328.08586989771
327.60482064337
327.13804735402
326.68458886928
326.24392101873
325.81526813316
325.39808715356
324.99190624881
324.59612997336
324.21033177662
323.8339966678
323.46673183969
323.10812269015
322.75781020642
322.4154358576
322.08067654065
321.75321487268
321.43275369528
321.11901238289
320.81174381382
320.51070051017
320.21566693656
319.92643108705
319.64278496448
319.35811913672
321.41091486692
320.68011842297
319.49768037805
318.17525673126
316.66394361873
314.90295884104
312.83071521763
310.40725176701
307.81483552181
305.85715443198
304.91150988826
304.54248654551
304.42479456998
304.40106847159
304.39964019036
304.40318128283
304.40476744298
304.40395089579
304.4020008036
304.39860640814
304.39401530801
304.38859706941
304.38196477857
304.37396986059
304.36479441162
304.35439661594
304.34269165364
304.32971689606
304.31558943633
304.30048490411
304.28465951507
304.26840553124
304.25208175942
304.23606551812
304.21696662635
304.20281975454
304.18984709851
304.17858665986
304.16933354496
304.16195057445
304.15644951241
304.15274183545
304.15067192006
304.15002612976
304.15054370137
304.15192958616
304.15391977777
304.15619508141
304.15858730435
304.16099032525
304.16340282445
304.16596645401
304.16867688013
304.17174183284
304.17463637283
304.17654112308
304.17688796874
304.17570596408
304.17306110065
304.16852213768
304.16133081609
304.15133908091
304.13884134141
304.1255175643
304.11104126883
304.09855921632
304.08590121201
304.17630177049
306.17356500137
349.60239368929
372.5469419803
372.31245842032
371.95400014923
371.46647058018
370.85283951152
370.11315448359
369.24896693971
368.25861887211
367.14138799223
365.89646206662
364.53194067705
363.06023420454
361.49783816057
359.87100555654
358.20760046072
356.53534696281
354.87951780731
353.26078828849
351.69358411232
350.18657571634
348.74517389032
347.37175322347
346.06564944715
344.82497794242
343.64708535156
342.52852002137
341.46584519899
340.45538490882
339.49336216363
338.57641151011
337.70160028128
336.86566685803
336.06630319107
335.30048896275
334.56645514965
333.86152829214
333.18434595014
332.53257774022
331.90510736812
331.29994173574
330.71619741138
330.15214035963
329.60699646979
329.0793891677
328.56850972431
328.07337391661
327.59305703521
327.12697213461
326.67407806235
326.23403840884
325.80589712116
325.38931566175
324.98354787436
324.58819040587
324.20275539352
323.82678850717
323.45987225921
323.10159256595
322.75158425692
322.40949653011
322.07500943153
321.74780446367
321.4275826304
321.11406585298
320.80700722639
320.50616997191
320.21132912639
319.92226646654
319.63879922223
319.35529957187
321.41841926447
320.67354105847
319.49373157978
318.17614895785
316.67151855877
314.91936078828
312.85829134266
310.44811113885
307.8643361897
305.89694091146
304.93753960919
304.5602513491
304.43879116723
304.41441000237
304.41217070879
304.417091285
304.42011109315
304.4206266237
304.4198128358
304.41744319862
304.41377218801
304.40911066534
304.40319277297
304.3958156519
304.38715932381
304.37722003672
304.36591979728
304.35329795896
304.33947484567
304.32464203534
304.30906679161
304.29304744002
304.27694523434
304.26114992926
304.24229898137
304.22827659546
304.21543917489
304.20427472779
304.19509184137
304.18767839104
304.18210412886
304.17824713711
304.17595550503
304.17502355214
304.1751962974
304.17618583475
304.17770935252
304.17946551643
304.18130569946
304.18311323935
304.18487842084
304.18671550049
304.18872545353
304.19094014779
304.19290861275
304.19392320287
304.19340338719
304.19130439518
304.18768019081
304.18214304959
304.17372017384
304.16271544682
304.14851754316
304.13442076088
304.1186248456
304.10481430941
304.09035404675
304.178005127
306.16163175577
349.6290413319
372.50773213291
372.17808666912
371.68091942056
371.04244449211
370.28958362166
369.4336559141
368.48891034646
367.45575999234
366.33008069688
365.10743157054
363.79661538695
362.39429037161
360.90936054741
359.35967847146
357.76862446125
356.16145404216
354.5620687149
352.99133202518
351.46441658996
349.99165055602
348.57890229654
347.22830110563
345.94141744446
344.71691068971
343.55219724162
342.44450784238
341.39091297335
340.38817322001
339.43291246347
338.52182144925
337.65201614727
336.82051141905
336.02486882183
335.26259450212
334.53140771956
333.82932002994
333.15438335045
332.50488977198
331.87924450609
331.27595220616
330.69370272882
330.13114175641
329.5873008022
329.06086620774
328.55112540235
328.05689535489
327.57760954157
327.11223920406
326.66022663528
326.22081213798
325.79339950197
325.37742551785
324.97227024216
324.57747703505
324.19253017229
323.81703525077
323.45055268265
323.09269191794
322.74308149641
322.40137336529
322.0672384984
321.74036158314
321.420450425
321.10723300747
320.80045719527
320.49988574959
320.20529689135
319.91646542771
319.633231613
319.35242194279
321.42992075029
320.66395138042
319.48791171065
318.17732915927
316.68238983694
314.94300957277
312.89812325812
310.50720737176
307.93624777171
305.95510183233
304.97553577481
304.58601829707
304.45886405196
304.4333299775
304.4306321675
304.43758612453
304.44267002341
304.44509668078
304.44591125855
304.4450188052
304.44264072409
304.43907611364
304.43410019528
304.42752780687
304.41953806126
304.41016340611
304.39933945269
304.38710892158
304.37360430957
304.35902884884
304.34366974273
304.32783553836
304.31189492272
304.29626278867
304.27759801873
304.26366501553
304.25091914168
304.2398349011
304.23067872521
304.2232345653
304.21757584079
304.213570495
304.2110634464
304.20983749232
304.20963112517
304.21015759442
304.21110367768
304.21221944511
304.21334644712
304.21436384383
304.21525602326
304.21613398921
304.21710199055
304.21812646573
304.2188080359
304.21850404891
304.21664157228
304.21309612405
304.20792092158
304.20075364058
304.19056786358
304.17783843951
304.16190515879
304.14620498136
304.12869107052
304.11314675266
304.09597213333
304.18121689357
306.15215795132
349.80108269367
372.40276046068
371.79743933372
370.99655090501
370.11932712881
369.21944727131
368.29100908088
367.32778278246
366.31685962815
365.24247052863
364.09667222551
362.87062247395
361.56293909869
360.17590390262
358.72224230337
357.22171197305
355.69591399192
354.16731421208
352.65663985617
351.17998253608
349.74886091389
348.37069014821
347.04986207102
345.78676274323
344.58194193939
343.43400919101
342.34057824044
341.29862680226
340.30562871582
339.35882907798
338.45504007599
337.59138081247
336.76538024514
335.97438674769
335.216269483
334.48873387291
333.78994292047
333.11785703761
332.4710318293
331.84769314708
331.24657591236
330.66618146514
330.10546681689
329.56312184451
329.03821943811
328.52972651842
328.03676550966
327.55854698979
327.09419982223
326.64315255147
326.20458263067
325.77801521857
325.36274732435
324.95833159674
324.56420217153
324.1798820269
323.80494731881
323.43898600453
323.08163036989
322.73250054144
322.39124554755
322.05753196944
321.73105363442
321.41152374515
321.09866841809
320.79223227641
320.49198220996
320.197700033
319.90915831631
319.62618614881
319.34961060574
321.44348106556
320.6517511375
319.48032613652
318.17874620918
316.69646535026
314.97377980399
312.95005857089
310.58439305804
308.03071879771
306.03220227934
305.02585853206
304.61988484497
304.48486607144
304.45743879286
304.45451717513
304.46392770132
304.47159767148
304.47642729816
304.4792844492
304.48021037404
304.47939984218
304.47714427391
304.47324610317
304.46757029154
304.46029037559
304.45147874273
304.44109071877
304.42917661626
304.41588671924
304.40144399978
304.38615375698
304.37034057922
304.35439095104
304.33875533896
304.32009177886
304.30608275608
304.29329211856
304.28219112438
304.27298561516
304.26549717128
304.25975567316
304.25562251104
304.25293109575
304.2514418521
304.25087683615
304.25093479768
304.25129000171
304.25173499479
304.25208309961
304.25220810566
304.25208051319
304.25180259493
304.25147378798
304.25103491626
304.25011110558
304.24806831054
304.24438201003
304.23884850216
304.23156130163
304.22221094675
304.20976885831
304.1948865496
304.17684255839
304.15907594787
304.13942390244
304.1216685848
304.10118034788
304.18327270648
306.13798176923
350.04961040177
371.79474358604
370.25044325689
369.19609697572
368.32119884976
367.4836976725
366.64782911644
365.78893523938
364.89290228604
363.93632563061
362.90573601285
361.79338257977
360.59969518221
359.32591191758
357.98098862717
356.58151700379
355.147833814
353.70044203136
352.25927078181
350.84150567129
349.45961467325
348.12259394042
346.83542667244
345.6015306371
344.42050701198
343.29235090153
342.21563985721
341.18822728367
340.20720998407
339.27056358531
338.37561895912
337.51966055767
336.70010449688
335.91488179751
335.16176893057
334.43864092507
333.74365852033
333.07513193925
332.43135244646
331.81079881993
331.21214898599
330.63406004539
330.07534977828
329.53485244197
329.01165577601
328.50468259142
328.01315749158
327.5361714256
327.07306914491
326.62308314872
326.18555554378
325.75990280465
325.34551504782
324.94192382468
324.54854717014
324.16495559567
323.7906800112
323.42534590241
323.06857042299
322.71998344637
322.37924325596
322.04602393397
321.72001693071
321.40092699884
321.08848309684
320.78244083154
320.48256938586
320.1886446784
319.90043995942
319.61775039892
319.34758363345
321.45663707657
320.6372208806
319.47118866255
318.18039849102
316.71364170566
315.01150097461
313.0138704163
310.67941149612
308.14788630197
306.12902046815
305.08906892536
304.6620776911
304.5167186039
304.48637251121
304.48322155985
304.4953784816
304.50604160203
304.51367367014
304.51890663144
304.5219009488
304.52283136303
304.52200783232
304.51923956138
304.51445882528
304.50784041902
304.49949088007
304.48940505767
304.47764567526
304.46438541629
304.44987133528
304.43442857464
304.41840302258
304.40219252025
304.38629497511
304.36739192137
304.35307267258
304.34005469908
304.32879394367
304.31942899517
304.31183144028
304.30596609532
304.30168485407
304.29880304289
304.29705428302
304.29613706353
304.29572435611
304.29551931171
304.29528623929
304.29481367036
304.2939381163
304.29261151854
304.29092300677
304.28895458943
304.2866925511
304.2837620912
304.27955572128
304.27359360195
304.26558414372
304.25576172198
304.24391930287
304.2290289131
304.21165583556
304.19111919846
304.17082133217
304.14859733097
304.12818928066
304.10377514317
304.18185937545
306.11577770076
350.3522344278
362.98412714751
366.59120805537
366.33354966614
365.91505955007
365.42900702622
364.85777815788
364.20532593506
363.47940830705
362.68326277697
361.81306697855
360.85721906059
359.81239071594
358.68236963882
357.47229141435
356.19478226856
354.86818901883
353.5124328
352.14689550139
350.78964290808
349.45534704317
348.15475104564
346.89549177554
345.68179832294
344.51650113271
343.39947107553
342.330055868
341.30762344686
340.33009346213
339.39532061999
338.50070447033
337.64447192455
336.82422886118
336.03763923679
335.28266404055
334.55763393232
333.86057738423
333.18972799172
332.54360607541
331.92077224517
331.31975976794
330.7392962245
330.17826405776
329.63553735674
329.11008165684
328.60091654648
328.10726588815
327.62823551832
327.16313024709
326.71117031855
326.27177587783
325.84430629708
325.42817733532
325.0228594604
324.62783234241
324.24267458269
323.86689053701
323.50008108681
323.14185687687
322.79188163895
322.44981100677
322.11530559201
321.78805096538
321.46775689628
321.15415517332
320.84698982877
320.54602635641
320.2510478237
319.96190800985
319.67828665106
319.38791000889
321.19054648836
320.89380960397
319.76005751085
318.51567206091
317.11505449592
315.5002298312
313.61099798246
311.39666503505
308.9073612756
306.6667302066
305.3596308935
304.78916414516
304.57771720391
304.52243770368
304.51621840924
304.5312585793
304.54520954608
304.55595443496
304.56383265958
304.56907476978
304.57186159396
304.57252848451
304.57087778882
304.56692382349
304.5608507277
304.55280056397
304.54281971598
304.53099190342
304.51751725071
304.50267261879
304.48680703673
304.47028946599
304.4535282056
304.43699640688
304.4446706979
304.42941326515
304.41565843811
304.403810398
304.39392976543
304.38595023165
304.37972455215
304.3750724894
304.37176992334
304.36949773062
304.36790835863
304.3666544595
304.36542337577
304.36389877357
304.36181400413
304.35896938155
304.35526725756
304.35076877081
304.3455527797
304.33971617377
304.33301882776
304.32493201222
304.31505675207
304.30325789189
304.28978324586
304.27430925368
304.25540384596
304.23367888326
304.20870764043
304.18366215152
304.15682609164
304.13147904903
304.10014961722
304.17061466275
306.06514260857
350.88190301679
353.84616110671
359.05675664425
359.88695852207
360.28047923174
360.44445236567
360.42351016695
360.21811088216
359.8587648279
359.36811155564
358.76296428316
358.05120037024
357.24268103686
356.34126846698
355.3500979171
354.27988818447
353.14700191056
351.96962672201
350.76622975428
349.55387821799
348.34781707628
347.16024728877
346.00001924137
344.87282295902
343.78257161005
342.73132119331
341.71988402852
340.74805235494
339.81454733833
338.91876624512
338.05912592249
337.23387036758
336.44094130716
335.67893568121
334.94627338366
334.24121791958
333.56205086712
332.90753048547
332.27632048333
331.66703834157
331.07837987609
330.50926085549
329.95868867579
329.42559488494
328.90900144728
328.40807926787
327.9220648345
327.45018409399
326.99168213357
326.54593026194
326.11233807521
325.69032138194
325.279318631
324.87880147279
324.48832792485
324.10744276077
323.73573683981
323.37279085293
323.01823251531
322.67172380935
322.33293675091
322.00155969021
321.67728964509
321.35985081648
321.04898188573
320.74443709181
320.44597938429
320.153365084
319.86645816732
319.58508050644
319.35049106244
321.48141652164
320.57784243237
319.43580340989
318.18700782985
316.78241181313
315.16361619129
313.27248616434
311.06649735297
308.63524071847
306.5485173492
305.36556417107
304.84385575186
304.64881195049
304.60018185495
304.59363785801
304.61412415067
304.63515257152
304.65278777452
304.66658223381
304.67673974485
304.68344514822
304.68709545109
304.68747726552
304.68479796755
304.67929180826
304.6711817696
304.66066004853
304.64788319252
304.6331221541
304.61672744955
304.59911323947
304.58070163118
304.56194330321
304.54331858545
304.54871918559
304.53132482174
304.51565434413
304.50213743602
304.49080834721
304.48167173072
304.4744367406
304.46881407201
304.46448104923
304.46103767473
304.45811018763
304.45526591904
304.45206822868
304.44808924979
304.44295213512
304.43643432456
304.4283635573
304.41885736165
304.40810366734
304.39644709508
304.38420151786
304.37085057835
304.35564823162
304.33801392594
304.31824595888
304.29609981705
304.26994229868
304.24026107024
304.20717651083
304.17332595872
304.13798720623
304.10377872266
304.05976758973
304.11616908685
305.93541810422
351.7224271197
349.45130677378
354.04501380533
355.07964303304
355.72842386729
356.15457662937
356.420516618
356.52122959807
356.47259207469
356.27050484942
355.93143023029
355.4703427093
354.89939913517
354.21774883245
353.43943387899
352.57540260914
351.63688569387
350.63908331444
349.5984587099
348.53150284999
347.45274129783
346.37530419935
345.31030285188
344.26542093061
343.24609417021
342.25584892337
341.29694156044
340.37060791233
339.47681163015
338.61544552872
337.78542376767
336.98565697345
336.21552509246
335.47358238871
334.75864510541
334.06906081694
333.40377694361
332.76170380341
332.14155999153
331.54213322814
330.96228934854
330.40124710531
329.85789040276
329.33132027595
328.82058206144
328.32506199374
327.8439521835
327.37653491006
326.92210364257
326.48008787262
326.04995260241
325.63111205412
325.22303257094
324.82522289031
324.43726780089
324.05873166895
323.68919751875
323.32828095027
322.9756258828
322.63090804646
322.29379734873
321.96397900078
321.64117272251
321.32511430995
321.01556080572
320.71225593887
320.41497502548
320.12353229439
319.83778297229
319.5573475567
319.38570866174
321.47604200862
320.52256588031
319.40416655996
318.19181348373
316.84014193896
315.29293634199
313.49400400562
311.40062551142
309.06867341894
306.94842830586
305.63737730834
305.02103369224
304.77274489067
304.69995985788
304.68569829886
304.7097059957
304.73791158278
304.76291204066
304.78328506107
304.79885006591
304.80967141862
304.8161550458
304.81816295171
304.81610980573
304.81032410149
304.80114011098
304.78892735431
304.77398045709
304.75666563673
304.73742846697
304.7167641448
304.69516937796
304.67316667075
304.65128565329
304.65196920149
304.63138462269
304.61276165646
304.59660525266
304.58293851174
304.57180119809
304.56278434678
304.55542349656
304.54919157253
304.54369568837
304.53841339419
304.53273702085
304.52613718706
304.51809724506
304.5082491091
304.49650266941
304.48295569602
304.46790945782
304.45131071073
304.43319549729
304.41371629999
304.39266738381
304.36909566142
304.34252120509
304.31342304175
304.28161867709
304.2453039924
304.20455856744
304.15989230073
304.11378672094
304.06662488264
304.01927748845
303.9566801558
303.9934888531
305.70114897094
352.6736175886
346.74701775371
350.43160381065
351.4571499451
352.15181577429
352.66628810502
353.05042457122
353.3027222111
353.42027617378
353.41238905762
353.26931265914
352.99474644402
352.60928083196
352.12751405937
351.53320636714
350.84583980694
350.07983411309
349.24495483923
348.35609224677
347.4283416428
346.47557734563
345.51053881877
344.54382638538
343.58480517539
342.64042726236
341.7154774203
340.81346514469
339.93658901592
339.08610928966
338.26252762705
337.46579428933
336.69567808063
335.95158233296
335.23243263299
334.53738153074
333.86590041143
333.2167820107
332.58917249779
331.9817504628
331.39376540134
330.8244936914
330.27288054749
329.73811600552
329.21919019301
328.71558106269
328.22652201216
327.75130915979
327.28922667165
326.83968681253
326.40222724179
325.97624116381
325.56122695378
325.15664376271
324.76209972912
324.3771827899
324.00145688268
323.63453389661
323.27603304519
322.92564671224
322.58305667536
322.24793809247
321.91999265995
321.59893707928
321.28452569405
320.9765192235
320.67469066058
320.37882743035
320.0887645049
319.80422927133
319.52465539384
319.52745302015
321.44091125116
320.45641298765
319.36412656986
318.19414911585
316.90312575885
315.43786947919
313.74492715347
311.78230010418
309.57713010191
307.45412542773
305.999325101
305.25859954628
304.935869272
304.82490044571
304.79474146376
304.81830252856
304.85240290219
304.88495389968
304.91227729797
304.93368785664
304.94882294009
304.95791457899
304.96111646827
304.95897660062
304.95197248428
304.94060610519
304.92544063572
304.90698044873
304.88572642461
304.86225726347
304.83718777961
304.81110874307
304.78461177051
304.75828497258
304.75254508106
304.72767742259
304.7050279296
304.68522872766
304.66825514807
304.65414520462
304.6423746539
304.63221264806
304.62288130394
304.61386387159
304.60452357972
304.59408385095
304.58214829083
304.56860421318
304.55340031912
304.53596662928
304.51565831384
304.49213035792
304.4655043488
304.43604266398
304.40425229509
304.37077729878
304.33456319018
304.29493064841
304.25234244347
304.20642665091
304.1559388867
304.10006555873
304.03873209595
303.97464777915
303.90947329635
303.84284532318
303.75359977186
303.76308063014
305.3110999011
353.48781115276
345.1762124893
347.56021125025
348.59937878899
349.26370923495
349.79590393176
350.22009073798
350.53904125225
350.75828789141
350.84903851337
350.83793929162
350.71128106616
350.46958189484
350.12211334871
349.68159969107
349.14889297676
348.52868418629
347.83648149857
347.08435868388
346.28450810939
345.44930988115
344.59171198709
343.72223362995
342.84954988565
341.98127836473
341.12345166783
340.28047469103
339.45550934276
338.65073216773
337.86745466598
337.10645548943
336.36798795646
335.65189280509
334.95785708081
334.28548264141
333.63403927936
333.00271089097
332.39096246135
331.79817538967
331.22336166781
330.66595432556
330.12493067661
329.59966153108
329.08967889445
328.59417036184
328.11254751273
327.64400633207
327.18808090971
326.74432052731
326.31210733089
325.89097586438
325.48035323954
325.07989374427
324.68919540427
324.30781474402
323.93537008868
323.57146304518
323.21581788706
322.86810677595
322.5279991092
322.19520080872
321.86942240272
321.55041802771
321.23795241598
320.931768595
320.63165588256
320.33743804388
320.0488403638
319.76560947939
319.4868856393
319.86672679449
321.36786987704
320.3774402095
319.31441732465
318.19073789363
316.96598054829
315.59029261853
314.01353994674
312.19542084228
310.14207449409
308.06366064266
306.47194149738
305.57659065932
305.15325134167
304.98567075712
304.92747799175
304.94376298677
304.98035629729
305.01955840671
305.05389970531
305.08138016183
305.10092749959
305.11245274893
305.11638219553
305.11339690719
305.10417297252
305.08942401498
305.06992229408
305.04647926581
305.01979858811
304.99061663976
304.95968878848
304.92775954711
304.89549274024
304.86355879006
304.85006315622
304.81988211255
304.79219028236
304.76775468249
304.74646866147
304.72832529379
304.71260235207
304.69814524306
304.68387784999
304.66921907564
304.65358935588
304.63711047763
304.61913619716
304.59850656985
304.57392638769
304.54480604459
304.51101154674
304.47230604736
304.42948951527
304.38279145069
304.3323153205
304.27990699243
304.2248309788
304.16610895922
304.1031383347
304.03550368537
303.96263687526
303.88209713653
303.79392881457
303.70072477112
303.60539071782
303.50737153587
303.39160440282
303.34542640554
304.71245145692
353.64561021577
344.40941017263
345.14985566992
346.24687613604
346.86843194111
347.38076407693
347.81072476352
348.15658985025
348.42355681232
348.58316838325
348.64191537424
348.61814088563
348.48679685712
348.23868644034
347.91357447862
347.51052600325
347.0180669205
346.44622734537
345.81112206281
345.12555246711
344.39898106391
343.64116332425
342.86308632598
342.07399949124
341.28103927926
340.49044757251
339.7074076793
338.93566920883
338.17812762778
337.4368380719
336.71311940938
336.00786208495
335.32148802404
334.65408271156
334.00549741585
333.37544684603
332.76358365824
332.16949409281
331.59246862495
331.03179208846
330.4872370828
329.95810887996
329.44372965411
328.94368840275
328.4570817534
327.98345416058
327.52250888074
327.07359178064
326.63625560708
326.20992010244
325.79409718187
325.38855768717
324.9928046036
324.60644001232
324.22906292224
323.86029893831
323.49991418298
323.14754490982
322.8028724279
322.46559822393
322.13543083191
321.8121524148
321.4955084086
321.18524271276
320.88114570124
320.5829872686
320.29052862148
320.0035814221
319.72194990848
319.44362055715
320.49609331904
321.27524879259
320.28312291963
319.25225332993
318.17763484901
317.02238550434