/*--------------------------------*- C++ -*----------------------------------*\
| =========                 |                                                 |
| \\      /  F ield         | OpenFOAM: The Open Source CFD Toolbox           |
|  \\    /   O peration     | Version:  2312                                  |
|   \\  /    A nd           | Website:  www.openfoam.com                      |
|    \\/     M anipulation  |                                                 |
\*---------------------------------------------------------------------------*/
FoamFile
{
    version     2.0;
    format      ascii;
    arch        "LSB;label=32;scalar=64";
    class       volScalarField;
    location    "9e-05";
    object      Y.Liq;
}
// * * * * * * * * * * * * * * * * * * * * * * * * * * * * * * * * * * * * * //

dimensions      [0 0 0 0 0 0 0];

internalField   nonuniform List<scalar> 
109340
(
0.99999
0.99999
0.99999
0.99999
0.99998999999995
0.99998999999862
0.99998999996099
0.99998999929155
0.99998999547455
0.99998998375732
0.99998995738528
0.99998990772125
0.99998982433429
0.99998969499063
0.99998950552992
0.99998923961398
0.99998887829016
0.99998839933686
0.99998777632532
0.99998697732872
0.99998596317698
0.99998468521787
0.99998308240602
0.99998107744626
0.99997857146456
0.99997543656802
0.99997150513098
0.99996655385579
0.99996027912321
0.99995225711624
0.99994187599796
0.99992821353201
0.99990980144169
0.99988414392577
0.99984667803205
0.99978839648603
0.99999
0.99999
0.99999
0.99999
0.99998999999992
0.99998999999775
0.99998999993624
0.99998999896789
0.99998999405916
0.99998997994258
0.99998994936004
0.99998989320172
0.99998980057039
0.9999896587477
0.99998945304401
0.99998916649839
0.99998877941142
0.99998826862537
0.99998760649456
0.99998675948762
0.99998568633324
0.99998433562156
0.99998264269488
0.99998052549098
0.99997787876903
0.99997456599014
0.99997040754995
0.99996516311447
0.99995850400886
0.9999499680146
0.99993888126983
0.99992421443879
0.99990429667214
0.99987620610838
0.99983434350259
0.99976700886854
0.99999
0.99999
0.99999
0.99999
0.99998999999996
0.99998999999901
0.9999899999661
0.99998999919756
0.99998999476187
0.99998998138592
0.99998995177492
0.99998989677689
0.99998980545359
0.99998966505055
0.9999894608501
0.99998917588026
0.99998879044261
0.99998828139846
0.99998762113057
0.99998677614363
0.99998570518734
0.99998435684514
0.99998266644546
0.9999805518844
0.99997790786633
0.99997459776785
0.99997044186305
0.99996519968242
0.9999585424399
0.99995000781348
0.99993892175708
0.99992425378893
0.99990432251626
0.99987614158406
0.9998337749209
0.99976371643116
0.99999
0.99999
0.99999
0.99999
0.99998999999999
0.99998999999979
0.99998999998929
0.99998999942566
0.99998999551446
0.99998998298664
0.99998995450953
0.99998990088704
0.99998981113856
0.9999896724676
0.99998947010843
0.99998918703051
0.99998880346431
0.99998829618313
0.99998763744602
0.99998679358362
0.99998572306096
0.99998437401779
0.99998268116236
0.99998056151678
0.99997790857993
0.9999745840422
0.99997040581877
0.99996513013652
0.99995842356959
0.99994981716176
0.99993862687843
0.9999238063856
0.99990363800414
0.99987501286217
0.99983144719056
0.99975617393462
0.99999
0.99999
0.99999
0.99999
0.99999
0.99998999999999
0.99998999999818
0.99998999957767
0.99998999614196
0.99998998450329
0.99998995730156
0.99998990521856
0.99998981705235
0.99998967968924
0.99998947790527
0.99998919402124
0.99998880738355
0.99998829358779
0.99998762318321
0.99998676041364
0.99998566073653
0.99998426813406
0.99998251169944
0.99998030070949
0.99997751812209
0.99997401110862
0.99996957757448
0.99996394599362
0.99995674404281
0.9999474472856
0.99993528984804
0.99991910210016
0.9998969563716
0.99986531247624
0.99981643868379
0.99972682030477
0.99999
0.99999
0.99999
0.99999
0.99999
0.99999
0.99998999998561
0.99998999903799
0.99998999312358
0.9999899749505
0.99998993434794
0.99998985842361
0.99998973155613
0.99998953521729
0.99998924759098
0.99998884295221
0.99998829075385
0.99998755449164
0.99998659069761
0.99998534261636
0.99998373777243
0.99998168467539
0.99997906609561
0.99997573067608
0.99997148164814
0.99996606094722
0.9999591264833
0.99995021822849
0.99993870549884
0.99992370037719
0.9999039052977
0.9998773472407
0.99984075270946
0.99978806914723
0.99970569046059
0.99954675728731
0.9996924407622
0.9995339261672
0.99928319206484
0.99891837587953
0.99842945664682
0.99780644842022
0.99703421580076
0.99609980686738
0.99499297674307
0.99370932413879
0.99224973391679
0.99063103828689
0.98890424426232
0.98709783811896
0.9852562135404
0.98341780371717
0.98161328507849
0.97986516414266
0.97818770115004
0.97658937839433
0.97507410400617
0.97364186397894
0.97229027169747
0.97101576048064
0.96981366295731
0.96867924493095
0.96760830015215
0.96659536026165
0.9656365106042
0.96472768951168
0.96386403840386
0.9630438700573
0.96226195706856
0.96151727671692
0.96080545682746
0.96012558833501
0.95947410726943
0.9588502254833
0.95825098162924
0.9576757470278
0.95712201607914
0.95658929039454
0.95607545563603
0.95558005825386
0.9551014350854
0.95463898804014
0.95419158210655
0.95375840526155
0.9533387711109
0.95293177939831
0.95253697506254
0.95215357564677
0.95178106850812
0.95141888973435
0.95106654660714
0.95072356575235
0.95038951239253
0.95006397979125
0.94974658652968
0.94943697197231
0.94913480082596
0.94883975856907
0.94855154983867
0.94826989709127
0.9479945363858
0.94772521597891
0.94746170053406
0.94720376192735
0.94695118513578
0.94670313209957
0.94573884146435
0.94388345945984
0.94262872619797
0.94128857816204
0.93976193191275
0.93795227078564
0.93575713257605
0.93314110994763
0.93039031369082
0.92843896657654
0.92763805324169
0.92739203341228
0.92734099112343
0.92735194682987
0.92738114609036
0.92740525091149
0.92742566776294
0.92744247845221
0.92745598919172
0.92746643791068
0.92747406874044
0.92747907486118
0.92748164263817
0.9274821197549
0.92748065422407
0.92747730307213
0.92747234641789
0.92746607337874
0.9274587744826
0.9274507416191
0.92744226577035
0.92743364969609
0.92742520850302
0.92741722704734
0.92740829140256
0.92740232548015
0.92739758519518
0.92739432140937
0.92739266488214
0.92739265285447
0.92739369186156
0.92739583041019
0.92739899604226
0.92740307703594
0.92740794531648
0.92741346978053
0.92741952967497
0.92742600763798
0.9274327850458
0.92743974470911
0.92744678495521
0.92745384730728
0.92746083941252
0.92746767962792
0.92747444433042
0.92748109842029
0.92748758621042
0.9274940135516
0.92750028723027
0.92750624606994
0.92751167935905
0.92751668561505
0.9275210495033
0.92752520511408
0.92752825955182
0.92753161141726
0.92753267149111
0.92752096148195
0.92729899336076
0.92304682149616
0.99965034923221
0.99945030183094
0.99913625413423
0.99869471354827
0.99812319525485
0.9974118415685
0.9965513389415
0.99553575423429
0.99436173684268
0.9930304958349
0.99154821207046
0.98993531849001
0.98822362555255
0.98645033611723
0.98464766451358
0.9828490373027
0.98108380870233
0.97937277154578
0.97773031560488
0.97616458145645
0.9746791006319
0.9732740895232
0.97194743859266
0.97069566429374
0.96951473563194
0.96839963775156
0.96734576470987
0.96634867626642
0.96540401891678
0.96450791088159
0.96365659833479
0.96284670984819
0.96207515976479
0.96133907952046
0.96063594233062
0.9599633365402
0.95931918210344
0.95870148168606
0.95810849760457
0.95753856767355
0.95699022765915
0.95646208664218
0.9559529079735
0.95546153651622
0.95498691973851
0.95452808369058
0.95408412336892
0.95365422057001
0.95323760036819
0.95283357428118
0.95244147003674
0.95206068844402
0.95169064917065
0.95133082442829
0.9509807213585
0.95063988112357
0.95030787409466
0.94998430043312
0.94966878337217
0.9493609681484
0.94906052415354
0.94876714135933
0.94848052895836
0.94820041348874
0.94792653478207
0.94765864358999
0.94739650347845
0.94713989521344
0.94688860666745
0.94663650479593
0.9450970747329
0.94356155991578
0.94230364940081
0.94092794334912
0.93934518342443
0.93745471126661
0.93516020295361
0.93246844378854
0.92981456021617
0.92816944035115
0.92755389775382
0.92737394728833
0.92734507709548
0.92736282517166
0.92738477763724
0.9274095781757
0.92743069702978
0.92744815949119
0.927462265558
0.92747325181538
0.92748135307614
0.92748676473177
0.92748967501716
0.92749040013924
0.92748916144714
0.92748597326726
0.92748112289038
0.92747490728145
0.92746762542965
0.92745957787495
0.92745106436576
0.92744239511036
0.92743389523477
0.92742585876163
0.92741685558433
0.92741082981476
0.927406031712
0.92740271535384
0.92740101529774
0.92740097426339
0.92740201223826
0.92740414952085
0.92740731039695
0.92741138291657
0.92741624152499
0.92742175713367
0.92742781094909
0.9274342905431
0.9274410825688
0.92744807368983
0.92745516206054
0.92746228605664
0.92746936327394
0.92747630255992
0.9274831761014
0.92748994698361
0.92749656335076
0.92750313414212
0.92750955973368
0.92751566836493
0.9275212314657
0.92752636748643
0.92753080356644
0.92753506006966
0.92753814202148
0.9275415409283
0.92754258774753
0.92753098217971
0.92731014129664
0.92305803227446
0.99963281983267
0.99938896049658
0.99900167635265
0.99847273530809
0.99780716642511
0.99700504212638
0.99606817845782
0.99499683403858
0.99379158278239
0.99245336137385
0.99099142777729
0.98942171635021
0.98776338848376
0.98604537916275
0.98429830138471
0.98255171273965
0.98083273325967
0.97916189496417
0.97755347889179
0.97601600085198
0.9745536636222
0.97316766177092
0.97185666538016
0.97061772793474
0.96944714658658
0.96834081365135
0.96729462055779
0.96630401330093
0.96536495458198
0.96447361166092
0.96362646819666
0.96282018516888
0.96205177621758
0.96131845877685
0.96061770945089
0.95994722988362
0.95930492536744
0.95868887891469
0.95809733784335
0.95752869297166
0.95698147231346
0.95645431884522
0.95594600581787
0.95545538488576
0.95498143746456
0.95452317555527
0.95407973700017
0.95365028101485
0.95323406669315
0.95283038487
0.95243858845306
0.95205806768474
0.95168825949669
0.95132863754618
0.95097871176886
0.950638028413
0.95030616031431
0.9499827088935
0.94966729890173
0.94935957809842
0.94905921659561
0.9487659055089
0.94847935509476
0.94819929242
0.94792545854897
0.94765760589209
0.94739550075631
0.94713892318377
0.9468876593678
0.94663506721468
0.94507720633518
0.94355314612577
0.94229877107397
0.94092817605969
0.93935291679769
0.93747288589195
0.93519145012716
0.93251252994992
0.92985966718655
0.92819724176948
0.92756827179082
0.92738255098524
0.92735202350741
0.92737024656762
0.9273924888394
0.92741880824735
0.92744142879432
0.92746028914466
0.92747566503634
0.92748779099883
0.92749688954424
0.92750315550271
0.92750678027
0.92750802541155
0.92750723598422
0.92750436666432
0.92749970834365
0.92749357477597
0.92748628303811
0.92747815232717
0.92746950151848
0.92746065780438
0.92745196762797
0.92744374726466
0.92743452087439
0.92742830948822
0.92742334152335
0.92741988241168
0.92741807000599
0.92741795738961
0.92741899726904
0.92742114801812
0.9274243268252
0.92742841923869
0.92743330142767
0.92743884836227
0.92744494289033
0.92745148008601
0.92745835572371
0.92746546398739
0.92747270416777
0.92748000529918
0.92748730653145
0.92749449852443
0.92750164418361
0.92750870006364
0.92751561765415
0.92752251392817
0.92752927281418
0.92753570361881
0.92754154512813
0.92754696465321
0.92755156963994
0.92755602528716
0.92755915886678
0.92756263121574
0.92756364040149
0.92755224826539
0.92733376731357
0.92308866202402
0.99959426596582
0.99924757164054
0.99870838116865
0.998016143398
0.99719719150591
0.99627028352231
0.99524742941925
0.99413171947755
0.9929198586278
0.99160834119336
0.99020532150226
0.98871190521395
0.98713818836926
0.98550433633032
0.98383630692634
0.98215996992803
0.98050161102954
0.97888258285683
0.97731752410098
0.9758162613008
0.97438415412558
0.97302294946205
0.9717323164194
0.97051031380068
0.96935379037878
0.96825908053215
0.9672223752305
0.96624002431025
0.96530806945042
0.96442285128639
0.96358097865929
0.96277932567389
0.96201494812189
0.96128520092886
0.96058759751955
0.95991993221154
0.95928012881478
0.95866634004715
0.95807681954917
0.95751001290732
0.95696444455571
0.95643880165114
0.95593183963628
0.95544245093328
0.95496960147456
0.95451234490787
0.95406981069748
0.95364118461698
0.95322572254091
0.95282272223589
0.95243154452297
0.95205157927261
0.95168227447063
0.95132310518062
0.95097359075067
0.95063328063663
0.95030175271453
0.94997861093766
0.94966348270299
0.94935601836224
0.94905588977274
0.94876278994042
0.94847643066557
0.94819654010094
0.94792286105027
0.94765514887364
0.9473931725335
0.94713671177989
0.94688555099289
0.94663220072237
0.94504909585845
0.94354059617956
0.94229149573038
0.94092842049324
0.93936405523441
0.93749913210624
0.93523665601592
0.93257650716344
0.92992562493688
0.92823817597914
0.92758929486068
0.92739488456469
0.9273617080562
0.92738042257633
0.92740357156318
0.92743209405161
0.92745690134252
0.92747780498443
0.92749503523056
0.92750881647707
0.92751935826371
0.92752685104178
0.92753148634993
0.92753349490373
0.92753327768887
0.9275308187757
0.92752637309739
0.92752027923409
0.92751288079026
0.92750452486176
0.92749555925444
0.927486338098
0.92747723888576
0.92746861640744
0.92745890702668
0.92745230363405
0.92744698629106
0.92744323774774
0.92744120201372
0.92744094598818
0.92744197287205
0.92744414754582
0.92744738010282
0.92745154909084
0.92745652787998
0.92746219278209
0.92746842816605
0.92747513420728
0.92748221605137
0.92748957630379
0.92749711632862
0.92750475801938
0.92751244279881
0.92752006973532
0.92752767622855
0.92753519855415
0.92754258422405
0.92754996907568
0.92755721232125
0.92756410967668
0.92757033759652
0.92757617157024
0.92758099402124
0.92758570222598
0.92758887682552
0.92759239492031
0.92759331869667
0.92758214093655
0.92736512209379
0.92309276596299
0.99946671759447
0.99882200507066
0.99796082183011
0.99701837665297
0.99604401735126
0.99504047266351
0.99399913625809
0.99290845135241
0.99175323597538
0.99052555966424
0.98921712203831
0.98782822058963
0.98636188320588
0.9848325408959
0.98326209653424
0.98167409803617
0.98009156663853
0.97853631721415
0.9770246949772
0.97556785679196
0.97417251271911
0.97284189161481
0.971576589624
0.97037552676086
0.96923644990493
0.96815636762922
0.96713195220163
0.96615979264823
0.96523662872507
0.96435893496533
0.96352352626682
0.96272745557718
0.9619679515179
0.9612424543051
0.96054860909057
0.95988426228694
0.95924743183217
0.95863629363634
0.95804916605749
0.95748451071188
0.95694090322447
0.95641703795895
0.95591170229664
0.95542379667704
0.95495230031363
0.95449628849634
0.9540548946037
0.95362732767358
0.95321283831225
0.95281074022588
0.95242039010519
0.95204118922133
0.95167258668534
0.95131406398919
0.95096514624915
0.95062538681209
0.95029436897061
0.94997169896718
0.94965700764805
0.94934994767646
0.9490501928521
0.94875743775459
0.94847139557094
0.94819179610845
0.94791838439152
0.94765091897036
0.94738917099497
0.94713292041906
0.94688194776791
0.94662746828084
0.94501277216438
0.9435240884911
0.94228176562121
0.94092860085145
0.93937851713407
0.93753332981039
0.93529570477792
0.9326604200327
0.93001301955144
0.92829297686031
0.92761723822937
0.92741087283971
0.92737379834288
0.92739280175445
0.92741733533149
0.92744861987099
0.92747620277201
0.92749971247125
0.9275193102914
0.92753519874436
0.92754757127257
0.92755660999962
0.9275625030337
0.92756547170643
0.92756590466894
0.92756390050637
0.92755964061523
0.92755349421621
0.92754583902401
0.92753705872199
0.92752754000176
0.92751767397354
0.92750787766915
0.92749856214672
0.92748803478907
0.92748076700841
0.92747486763146
0.92747064005622
0.92746823293762
0.92746772874976
0.92746870536673
0.92747089851347
0.92747421749293
0.92747852883567
0.92748369716183
0.92748959409862
0.92749610423943
0.92750313000995
0.92751058410461
0.9275183747444
0.92752640413264
0.92753458919515
0.92754285638387
0.92755112984212
0.92755940850344
0.92756759020469
0.92757559902837
0.92758361653824
0.92759145683353
0.92759890013222
0.92760556324334
0.92761186201044
0.92761689911895
0.92762183763968
0.92762499558534
0.92762847042628
0.92762916664003
0.92761819531551
0.92740249454796
0.92308122176842
0.99859841007337
0.99703597412661
0.99595955019652
0.99504506616633
0.99415796588903
0.99326661181578
0.9923458033979
0.99138279576605
0.99035676964454
0.98925529105934
0.98807213927199
0.98680798846055
0.98546521523072
0.9840538924574
0.98259247386593
0.98110316191862
0.97960753351072
0.97812666203113
0.97667745483011
0.97527251400351
0.97392023521646
0.972625368355
0.97138987760264
0.97021367871941
0.96909538825654
0.96803280533741
0.96702316236971
0.96606349181198
0.96515092256964
0.96428228278811
0.96345465965153
0.96266528820659
0.96191159973904
0.96119117353432
0.96050178691475
0.95984136653925
0.9592080222684
0.95859998522102
0.95801563892454
0.95745347422761
0.95691211485867
0.95639027499656
0.95588678625508
0.95540055916882
0.95493060300943
0.95447600233114
0.95403591095805
0.95360954715462
0.95319617224345
0.9527951086234
0.952405716194
0.95202740654145
0.951659629761
0.951301877073
0.95095367557641
0.95061458446061
0.95028419073043
0.94996210441273
0.94964796013446
0.94934141271259
0.94904213757348
0.94874983017804
0.94846420492539
0.94818499334734
0.94791194242657
0.94764481338765
0.94738337973944
0.94712742114743
0.94687671151952
0.94662057024596
0.94496846255404
0.94350375645646
0.94226960787252
0.94092865638663
0.93939619465632
0.93757530603075
0.93536840742986
0.9327642499729
0.93012257648513
0.92836268550669
0.92765255909776
0.92743052158897
0.92738797814991
0.92740680714104
0.92743303781157
0.92746751583175
0.92749837310955
0.92752498200063
0.92754740559838
0.92756580983125
0.92758036383183
0.92759123749823
0.9275986105175
0.92760269792475
0.92760384830953
0.92760233249672
0.92759821347491
0.92759190289772
0.92758381920714
0.92757439072087
0.92756405259493
0.9275532439212
0.9275424275834
0.92753207952358
0.92752037956697
0.92751213105986
0.92750538551601
0.92750045889829
0.92749750005659
0.92749661358564
0.92749747492487
0.92749965123284
0.92750306338921
0.92750756151193
0.92751299619914
0.92751922960534
0.92752614322803
0.92753364487231
0.9275416497891
0.92755006263293
0.92755878198484
0.9275677196981
0.92757678867005
0.92758590923266
0.9275950635063
0.92760407980315
0.92761282095646
0.92762155441421
0.92763001776842
0.92763798119989
0.92764502036744
0.92765170894678
0.92765688130868
0.92766190057693
0.92766489741837
0.92766806997298
0.92766835134135
0.92765756919919
0.92744338998138
0.92305914130546
0.98756501382185
0.99285957282577
0.99274061119765
0.99237535785351
0.99189995397164
0.9913123362575
0.99063092901946
0.98986687036872
0.98902222450447
0.9880966681776
0.98708184726815
0.98597675550079
0.98478736526723
0.98351999023082
0.98218823400578
0.98081176679946
0.97941195018978
0.97800903234338
0.97662237830456
0.9752662530399
0.97395112623563
0.97268409289582
0.97146909513417
0.9703077292888
0.96919994761807
0.96814456890582
0.96713967231017
0.96618286624483
0.96527169556567
0.96440338035241
0.9635752434795
0.9627847440787
0.96202945528365
0.96130711012173
0.96061556543017
0.95995283791691
0.95931708721657
0.95870660160769
0.95811979054616
0.95755517258444
0.95701138827003
0.95648716604606
0.95598134854725
0.95549285646514
0.95502070417417
0.95456397607597
0.9541218288712
0.95369347819734
0.95327819010995
0.95287528134296
0.95248411170158
0.95210408991037
0.9517346638272
0.9513753235767
0.95102559179105
0.95068502526264
0.95035320871914
0.95002975098467
0.94971428497266
0.94940646332306
0.94910595875223
0.94881246303256
0.94852568687161
0.94824535849757
0.94797122325437
0.94770304145976
0.94744058578099
0.94718364444668
0.94693203320263
0.94668383289827
0.94550404013832
0.94378705629081
0.94256716373285
0.94127427193904
0.93981709014473
0.93810487205486
0.93603631452635
0.93355898726208
0.93087485279497
0.92878512202284
0.92781656292626
0.9274888173492
0.92740710771258
0.92741436226603
0.92744994762527
0.92748792289288
0.92752247154424
0.92755261778145
0.92757828878803
0.92759959401136
0.92761666734151
0.92762965948737
0.92763873676415
0.92764410730346
0.92764606937299
0.92764506335403
0.92764105068014
0.92763447373738
0.92762579690143
0.92761550020071
0.92760407625112
0.92759202429325
0.92757985892462
0.92756807765692
0.92757343953338
0.92756314762351
0.92755467810871
0.92754832464344
0.92754421234643
0.92754245626241
0.92754296385179
0.92754500301244
0.92754851886033
0.92755333485553
0.92755927945007
0.92756620060635
0.92757396941321
0.92758246558959
0.92759159557785
0.927601252449
0.92761132563945
0.92762172072999
0.9276323253786
0.92764302685078
0.92765377233889
0.92766422969545
0.9276741595878
0.92768379052519
0.92769281469879
0.92770109055734
0.92770814988224
0.92771472788765
0.92771965337254
0.92772399972675
0.9277263788688
0.92772819860182
0.92772785523346
0.92771700517453
0.92750559818318
0.92300726386617
0.97724599104138
0.98476857155337
0.98575627264136
0.98627735648832
0.98651558200019
0.98653766148815
0.9863567510433
0.98599478042708
0.98549392675615
0.98486863855102
0.98412707008876
0.98328083307332
0.98233885376543
0.98130755775551
0.9801994334521
0.97903185686888
0.97782409159435
0.97659519659332
0.97536244907041
0.97414228612191
0.97294669813913
0.97178404622944
0.97065990255461
0.96957746101583
0.9685382693533
0.96754261532655
0.96658985637893
0.96567881339724
0.96480785804706
0.96397503736672
0.96317838849763
0.96241592719982
0.96168569822459
0.96098582019398
0.96031449255409
0.95966999427393
0.95905071476382
0.95845516775106
0.95788194052988
0.95732971073669
0.95679724003497
0.95628339110014
0.95578711109659
0.9553074241064
0.95484341996215
0.95439425134966
0.95395912726994
0.95353731270474
0.95312811949834
0.95273090288421
0.95234506399578
0.95197004180908
0.95160531768058
0.95125040750558
0.95090485961625
0.95056824965837
0.95024017798411
0.94992026953933
0.94960817058551
0.94930354780299
0.94900608534169
0.94871548545943
0.94843146816384
0.94815377058655
0.94788214629879
0.94761636299136
0.94735619526053
0.94710142154782
0.94685185344183
0.94658499776766
0.94479414204933
0.9434206823221
0.94221948775957
0.94092762102974
0.93946677525856
0.93774481370673
0.93566447523477
0.93319301719488
0.93059209401741
0.92867698165941
0.92781149658386
0.92751394490515
0.92744125794267
0.92745379075797
0.92748481763889
0.92753016254527
0.92757304609425
0.92761142545476
0.92764479132072
0.9276730485935
0.92769621636652
0.92771436976215
0.92772762813537
0.92773616563209
0.92774023465597
0.92774037097541
0.92773660021121
0.92772930977515
0.92771906548607
0.92770646665691
0.92769214443495
0.92767675188245
0.92766095307792
0.92764538134491
0.92764703789978
0.92763301296407
0.92762123824926
0.92761204237472
0.92760563445261
0.92760217503279
0.92760180932667
0.92760351356754
0.92760710233729
0.92761240056972
0.92761921487855
0.92762737318756
0.92763671762141
0.92764708371766
0.92765829367504
0.92767020169009
0.92768264761486
0.92769555222313
0.92770871581265
0.92772156833337
0.92773387905612
0.9277454113857
0.92775573282412
0.9277650453573
0.92777331724049
0.92778056852801
0.92778604853938
0.92779049856495
0.92779359999546
0.92779525512532
0.92779504928649
0.9277942019002
0.92779193829825
0.92777972264131
0.92757408333339
0.92289198497829
0.97196619370698
0.97952439985016
0.98071207598971
0.98145477367316
0.98196445149716
0.98229666776069
0.98244252150587
0.98241733561677
0.98223037097262
0.98188342673179
0.98141827582097
0.98083590856549
0.98013403845944
0.97933044831573
0.97844203535208
0.97748005059481
0.97646145740036
0.97540420413802
0.97432483660497
0.97323797814139
0.97215719079955
0.97109337326622
0.97005411567322
0.96904460380001
0.96806804303202
0.96712621508113
0.96621986843178
0.96534884165261
0.96451240264734
0.96370948811671
0.96293882854808
0.96219903631501
0.9614886957045
0.96080631192966
0.96015044135711
0.95951967730886
0.95891263980998
0.95832800220896
0.95776453266745
0.95722106194938
0.95669647911393
0.95618974582597
0.95569989256272
0.95522601756986
0.95476728487098
0.95432291137756
0.95389215898871
0.95347433174839
0.95306878063322
0.95267490214767
0.95229213058838
0.95191993711398
0.95155782715129
0.95120533901838
0.95086204071938
0.95052752444936
0.95020140466205
0.94988331642105
0.94957291586504
0.94926987976099
0.94897390366367
0.94868470019027
0.94840199771354
0.94812553982981
0.94785508479541
0.94759040226955
0.94733127689954
0.94707751052775
0.94682890973013
0.9465430359083
0.94464909300155
0.94334650343466
0.9421747915004
0.94092493834066
0.93952545616915
0.93788882053873
0.93591946690729
0.93357009066026
0.93102824855658
0.92899625157283
0.92797717146346
0.92759705793523
0.92748725385095
0.92748701921213
0.9275180963169
0.92757011805551
0.92762207036709
0.92766999218836
0.92771260084255
0.92774942199971
0.92778025135036
0.92780501244661
0.92782373334816
0.92783652039669
0.92784357124962
0.92784535989332
0.92784217643886
0.92783422109086
0.92782216441668
0.927806734986
0.92778872423757
0.92776897635999
0.9277483682648
0.92772775362227
0.92772368381246
0.92770470504952
0.92768846262422
0.92767546388532
0.92766602697534
0.9276603926966
0.92765878236314
0.92766019745739
0.92766394677416
0.92766996196798
0.92767804988601
0.92768800194288
0.92769954273385
0.92771238261296
0.92772627796776
0.92774104205357
0.92775623983173
0.92777150435454
0.92778631595222
0.92779969150131
0.92781156083689
0.92782215598652
0.92783073010235
0.92783724905697
0.92784233665835
0.92784635725338
0.92784805920304
0.92784792263055
0.92784669462289
0.92784411133515
0.92783994743722
0.92783441478397
0.92782762297495
0.92781237695528
0.92761662615974
0.9227299998942
0.96773685534913
0.97572848687023
0.97697779818879
0.97775061526288
0.97833641622964
0.97877008573245
0.97907887881065
0.97922971171963
0.97923534700415
0.9791150060226
0.97884016368254
0.9784555151489
0.97796929290167
0.97736907015171
0.9766698516124
0.97588935416234
0.97504250906164
0.97414394870725
0.97320980092269
0.97225450021617
0.97129052095594
0.970328555617
0.96937793660931
0.96844523263011
0.96753529135601
0.96665132311891
0.96579525554163
0.96496795269073
0.96416967650697
0.96340023651846
0.96265898198076
0.96194503491467
0.9612574631933
0.96059519854585
0.95995714884376
0.95934220868638
0.95874927279633
0.95817725665546
0.95762510052813
0.95709180683004
0.95657642717743
0.95607802860673
0.95559575076268
0.95512877406492
0.95467632641087
0.95423768128497
0.95381216219511
0.95339912790687
0.95299796955033
0.9526081235357
0.95222906175612
0.95186028803565
0.95150133526215
0.95115176714956
0.95081117503367
0.95047917117211
0.95015538683785
0.9498394719597
0.94953109517538
0.94922994476372
0.94893572826195
0.94864817145804
0.94836701527842
0.9480920127965
0.94782292843019
0.9475595414981
0.94730164480541
0.94704904520858
0.9468015984334
0.94646325638522
0.944489846472
0.94325697246456
0.94211957904632
0.94091824059058
0.93958876799743
0.93804980999722
0.93620933734491
0.93400787390773
0.93156094066897
0.92942831534271
0.92821487093913
0.92771593043323
0.92754851710131
0.92752389315798
0.92754887685018
0.92760476108114
0.92766549138867
0.92772379603473
0.92777704392597
0.92782407493371
0.92786429350353
0.92789736721831
0.9279231347852
0.92794157754317
0.92795281991156
0.9279571591766
0.92795525205352
0.92794704063271
0.92793326485536
0.92791477539361
0.92789252897936
0.92786758237644
0.92784107803307
0.9278141731736
0.92780255843611
0.92777728443967
0.92775531514143
0.9277374836546
0.92772429512104
0.92771611776838
0.92771324933488
0.92771454603307
0.92771880241918
0.92772607550114
0.92773616129601
0.9277486440771
0.92776315813329
0.92777925440679
0.9277963144329
0.92781364571908
0.92783018711362
0.92784535613666
0.92785878736398
0.92786966271048
0.92787772199827
0.92788401188611
0.92788781237115
0.92788875137074
0.92788817717339
0.92788619595653
0.9278825203233
0.92787728643036
0.927870410809
0.92786176248535
0.9278512829662
0.92783887848524
0.92782453804335
0.92780226517913
0.92762055138233
0.92257701619915
0.96379334349628
0.97270799708068
0.9740325374099
0.97480194678656
0.97539311434918
0.97586181008859
0.97622311860847
0.97647029196486
0.97659125844393
0.97659519803556
0.97649086646845
0.97624351838327
0.97589608295666
0.97547055431627
0.97493956307048
0.97431364964361
0.97361525865118
0.97285970790255
0.97205897842628
0.97122535271328
0.97037239756534
0.96951077685622
0.968648805839
0.96779445672658
0.96695324970436
0.96612937200379
0.96532584579495
0.96454464794483
0.96378692409238
0.96305321663263
0.96234355537616
0.96165763230991
0.9609949389169
0.96035481308038
0.95973652588144
0.95913926122756
0.95856215739867
0.95800434787576
0.95746497353178
0.95694318093328
0.95643818293422
0.95594920292745
0.95547546864976
0.955016268658
0.95457092398757
0.95413878871479
0.95371923781953
0.95331168395354
0.95291557287171
0.95253038174937
0.95215562570992
0.95179083801656
0.95143557845788
0.95108943193983
0.95075201223955
0.95042295459118
0.95010190846053
0.94978854187046
0.94948254059508
0.94918360741624
0.94889146225418
0.948605841982
0.94832649909581
0.94805319911325
0.9477857187854
0.947523846203
0.94726738015592
0.94701612340126
0.94676986121465
0.94631923565717
0.94432088723215
0.94315318968452
0.94205255732406
0.94090418324214
0.93965084460207
0.93821836663924
0.93652023746686
0.93448896580179
0.9321779471131
0.92999078575831
0.92855614105086
0.92789204746606
0.92763815330815
0.92757202761234
0.9275805755442
0.92763455635571
0.92770174577068
0.9277702966479
0.9278351082007
0.92789381553064
0.92794513214021
0.92798828878843
0.92802283230389
0.92804854312208
0.92806539977388
0.92807357985295
0.92807375918822
0.92806598461974
0.92805087445794
0.92802937717981
0.92800259784421
0.92797180282609
0.9279384210601
0.92790400330756
0.9278829420191
0.92784982600582
0.92782075707646
0.92779701188788
0.92777942006615
0.92776855768767
0.92776483394331
0.92776645191311
0.92777192586376
0.92778138609717
0.927794448219
0.92781046739206
0.92782857208337
0.92784753953608
0.92786583279125
0.92788222770902