/*--------------------------------*- C++ -*----------------------------------*\
| =========                 |                                                 |
| \\      /  F ield         | OpenFOAM: The Open Source CFD Toolbox           |
|  \\    /   O peration     | Version:  2312                                  |
|   \\  /    A nd           | Website:  www.openfoam.com                      |
|    \\/     M anipulation  |                                                 |
\*---------------------------------------------------------------------------*/
FoamFile
{
    version     2.0;
    format      ascii;
    arch        "LSB;label=32;scalar=64";
    class       volScalarField;
    location    "9e-05";
    object      Ybar.Liq;
}
// * * * * * * * * * * * * * * * * * * * * * * * * * * * * * * * * * * * * * //

dimensions      [0 0 0 0 0 0 0];

internalField   nonuniform List<scalar> 
109340
(
0.9990910232861
0.99908741060738
0.99908046572847
0.99907198622019
0.99906252754055
0.99905256679054
0.99904228648203
0.9990317477474
0.99902093329033
0.99900934720536
0.99899614540018
0.99898039734808
0.9989609714906
0.99893650088739
0.99890536025387
0.99886562921829
0.99881502580362
0.99875081916675
0.99866970222442
0.99856762060898
0.99843952996572
0.99827909693064
0.99807828859309
0.9978268175283
0.99751135278692
0.99711441031669
0.99661271349988
0.99597470556427
0.99515660843651
0.99409588392884
0.99269980002571
0.99082414849058
0.98823096384333
0.98449963365588
0.97883006885323
0.96958216429602
0.99909157740889
0.9990869304918
0.99907912658407
0.99907005750687
0.99906030325559
0.99905028450307
0.99904012086981
0.99902975655222
0.99901888132888
0.99900696965211
0.99899324975943
0.99897674830022
0.99895627326518
0.99893039290292
0.99889740984379
0.99885531411827
0.99880172474974
0.99873378250629
0.99864801326661
0.99854014174788
0.99840483765994
0.99823539034335
0.99802326792665
0.99775751495547
0.99742389534491
0.99700367331326
0.99647180534053
0.99579416546045
0.99492310065292
0.99378996200764
0.99229181483671
0.99026612296969
0.98743854211327
0.9833080974818
0.97686377691505
0.96591546506021
0.99909360632944
0.99908823291633
0.99907964776692
0.9990703667653
0.99906069768347
0.99905082534244
0.99904072139905
0.99903034202297
0.99901945910706
0.99900755842357
0.99899387810222
0.99897744060326
0.99895704868202
0.99893126717975
0.9988983976268
0.99885643395731
0.99880299491405
0.99873522456432
0.99864965140344
0.99854200425799
0.99840695360784
0.99823778910361
0.99802597894577
0.9977605647368
0.99742730665376
0.99700746136603
0.9964759748563
0.99579871010466
0.99492800670163
0.99379520068702
0.99229729774642
0.9902713699408
0.9874401257358
0.98328635053319
0.97671823608964
0.96509420847412
0.9990964234593
0.99908995685497
0.99908095209811
0.99907142084581
0.99906157421117
0.99905150312806
0.99904123638339
0.99903075349065
0.99901982026551
0.99900791994031
0.99899429063167
0.99897794945381
0.99895769196515
0.99893207676921
0.99889939784355
0.99885764058159
0.99880441557286
0.99873685688846
0.99865147662804
0.99854398547571
0.99840901496552
0.99823980486487
0.99802775100443
0.9977617888782
0.99742753419164
0.99700603287461
0.996471933149
0.99579067296917
0.99491398016272
0.99377227969663
0.99226113608826
0.99021511736433
0.9873497547547
0.98312076905031
0.97630495221578
0.96341970664526
0.99910084895784
0.99909246595957
0.99908216246536
0.99907198831249
0.99906187792166
0.99905171065941
0.99904141456496
0.99903095322866
0.99902008019898
0.99900827377534
0.99899477609881
0.99897859606386
0.99895850827283
0.99893303947794
0.99890043614801
0.99885861502182
0.99880509240847
0.99873687453633
0.99865025150853
0.99854071483404
0.99840251576641
0.99822839782463
0.99800907098022
0.99773250515542
0.99738299501424
0.99693972985847
0.99637476271717
0.99564987000423
0.99471154529305
0.99348256788998
0.99184680974788
0.9896210648614
0.98648703159835
0.98182392264363
0.97414552079775
0.95823193928326
0.99910903749526
0.99909374254027
0.99908234959526
0.99907191668273
0.99906174833622
0.99905155894552
0.99904124670603
0.99903070241624
0.99901954333224
0.99900703529747
0.99899212812562
0.99897344663309
0.99894927785266
0.99891753704701
0.99887571063498
0.99882077107177
0.99874905666341
0.99865614175156
0.99853671915618
0.99838343526688
0.99818719846762
0.99793632456653
0.99761566371798
0.99720543341959
0.99667960176343
0.99600356774957
0.99513078846105
0.99399764709537
0.99251529721818
0.99055593736375
0.98792760095592
0.98433179149333
0.97924630703054
0.97165322019702
0.95904804584108
0.93091519494092
0.95366648332467
0.9269794157289
0.88600724507619
0.830289532983
0.76266536748849
0.68549874143155
0.60204628299417
0.51618111735553
0.43194748669642
0.35306128982641
0.28136300981748
0.22168127742662
0.17280121974263
0.1337851996355
0.10379494721963
0.080843233552557
0.063438895703612
0.050247561321938
0.040190524320259
0.032508526377095
0.026603041709086
0.02199562902407
0.018367861667739
0.015489667618495
0.013174895754648
0.011308490405782
0.0097929030048807
0.0084983485964796
0.007472569303462
0.0065778792572863
0.0058339226602647
0.0052061445299588
0.004653368663317
0.0041975164501387
0.0037818364213384
0.0034396801714247
0.0031225543241164
0.0028592542518827
0.0026140233152818
0.0024067228518234
0.0022155320886033
0.0020483535301483
0.0018983228620216
0.0017607519275986
0.001641127705815
0.0015272743971967
0.0014300064390971
0.0013361783560178
0.0012551250550686
0.0011787897510067
0.0011090399781705
0.0010451574149359
0.00098636824097316
0.00093226250460154
0.00088228556146805
0.00083604481541704
0.00079316290351005
0.00075334526656663
0.00071632066529514
0.0006818460408318
0.00064969008153238
0.00061964917317563
0.00059154431995588
0.00056521755956578
0.00054052473040117
0.00051733637837223
0.00049553888088495
0.00047503571743168
0.00045572755609161
0.00043739274460353
0.00065659066017688
0.0027727152865858
0.003146173050169
0.0031435287063076
0.0031089711308845
0.0030552994151159
0.0029814181170576
0.0028885089616722
0.002787907508195
0.0027074179124402
0.0026567476559324
0.0026218406922496
0.0025924120482003
0.0025642718004677
0.0025329297283534
0.0025080098288432
0.0024859438787936
0.0024676346279267
0.0024551327073116
0.0024451960104896
0.0024395757539674
0.0024379497211344
0.0024388942819584
0.0024421803719556
0.002447603493865
0.002454746939878
0.002463248352846
0.0024728196575959
0.0024832335273157
0.00249434282849
0.00250605047341
0.0025182554238401
0.0025309547028601
0.0025441761238299
0.0025616258738204
0.002575997849651
0.0025905775887658
0.0026056340429215
0.0026212963328002
0.002636949831574
0.0026524840181503
0.0026679291119231
0.0026832101898287
0.0026981730389236
0.0027126304636477
0.0027263613271577
0.0027391701035293
0.0027509180142127
0.002761530663253
0.0027710327497329
0.0027796587198088
0.0027880350650916
0.0027965712455535
0.0028055915242008
0.002814571986056
0.0028222285402692
0.0028268944364909
0.0028293767066521
0.002829717968964
0.002827920910935
0.0028218911388372
0.002812818320185
0.0027982363217962
0.0027851968462321
0.0027708771110859
0.0027595381098339
0.0027515862785149
0.0027384976803399
0.0027186746136869
0.0022496970475086
0.94593362827931
0.91177313826957
0.86110746889536
0.79631142180298
0.72069113883966
0.63835812673773
0.55289879139957
0.46851922898712
0.38876985469608
0.31628171251082
0.25277410495155
0.19897725198188
0.15604500870474
0.12187524336401
0.095151244391146
0.07462306372835
0.058908315853197
0.046904480806729
0.037722851027226
0.030657558634406
0.025178021185122
0.020894485764373
0.017511045400344
0.014810156818259
0.012635457283426
0.010867295207687
0.0094165924087306
0.0082167966656861
0.0072144523590197
0.0063735191999841
0.0056594976336613
0.0050533410062897
0.0045316430637158
0.0040827015450468
0.0036922951419416
0.0033525770656893
0.0030543096010218
0.0027923893422779
0.0025603177645748
0.0023549337141374
0.002171466868916
0.0020081132101933
0.0018610419404765
0.0017293122598682
0.0016099712355595
0.0015024006662959
0.0014044568105663
0.0013155415394584
0.0012343130518129
0.0011600963295356
0.0010920425700002
0.0010294905598693
0.00097196030465432
0.00091889844981596
0.00086990398083339
0.00082453873105213
0.00078247516286994
0.00074340092187935
0.00070705209902676
0.00067318555368023
0.00064158743915121
0.00061206074068948
0.00058442807778682
0.00055853082429627
0.00053423147535457
0.00051140977437424
0.00048995666309317
0.00046977263797492
0.00045076587356354
0.00043420386186504
0.0011314499410017
0.0029830542990635
0.0031504040442558
0.0031343071401076
0.0030945927698141
0.0030357876235084
0.002956879265102
0.0028606358976667
0.0027625055089968
0.0026900351224738
0.002644547496259
0.0026119226686968
0.00258336048432
0.0025557453958439
0.0025318691113096
0.0025071802021254
0.0024854785963569
0.0024673990304016
0.0024549431855697
0.0024453860563041
0.0024399165867077
0.0024383758568342
0.002439490876861
0.0024429236291815
0.0024484536794796
0.0024556768703773
0.0024642335387809
0.0024738358111168
0.0024842598877068
0.0024953675117826
0.00250706057746
0.0025192400711795
0.0025319008590608
0.0025450658845174
0.0025624160013239
0.002576668729673
0.002591178368085
0.002606076316107
0.0026215637670578
0.0026370821764455
0.002652507468423
0.0026678347500467
0.0026829793803212
0.0026977897780286
0.0027120824509919
0.002725640618945
0.0027382750857912
0.0027498440138129
0.0027602689962913
0.0027695693434071
0.0027779701459863
0.0027860947685173
0.002794389500216
0.0028032041656312
0.0028118676515281
0.0028192568618282
0.0028237785414869
0.0028262884414829
0.002826666407907
0.0028249247166974
0.00281887279278
0.0028097791285432
0.0027952277816763
0.0027825109032832
0.0027681288239662
0.0027569453288023
0.0027489347001025
0.0027361537417097
0.0027174777070283
0.0022489271969324
0.94172148207451
0.898656244236
0.83692116267683
0.76101541321235
0.67651926609588
0.58951013621939
0.5044626202448
0.42436897975519
0.35137592545065
0.28604135964037
0.23096750468088
0.1842907336041
0.14595349552695
0.11517368658905
0.090796211783571
0.071756581808063
0.05701940327771
0.045664132394671
0.036897812416292
0.030089779009846
0.02478027823708
0.020613581549923
0.01730730378595
0.014659792090405
0.012524154395908
0.010783519772904
0.0093515485360368
0.0081664189594866
0.0071758768859738
0.0063418552575493
0.005635516397218
0.0050324296635312
0.0045156713101012
0.0040686333253886
0.0036814703149003
0.0033428819099979
0.0030468439424385
0.0027855677323478
0.0025550750883009
0.0023500204613018
0.002167774267568
0.0020045260044926
0.0018583320400843
0.001726666095973
0.0016078789360328
0.001500395707879
0.0014027360519251
0.0013140133100778
0.0012328988827781
0.0011588701030569
0.0010908995057123
0.001028551241564
0.00097109217937644
0.00091810968064125
0.00086916392370806
0.00082385960339678
0.00078185744168933
0.0007428386083889
0.00070653709911846
0.00067271190893567
0.00064115257446447
0.0006116612507851
0.0005840596988879
0.00055819012116902
0.00053391722123685
0.00051112027572216
0.00048968977002577
0.00046952568156962
0.00045053915980901
0.00043409069260785
0.0011529410000507
0.0029898944507788
0.0031519193743007
0.0031351972197537
0.0030952267664427
0.0030363201926524
0.0029574378925414
0.0028612566360246
0.0027629569292523
0.0026898907189404
0.0026439404911241
0.0026110668824368
0.0025824192602656
0.0025548201763838
0.0025311539878707
0.0025065211722248
0.0024849187926865
0.0024669057455499
0.0024541771176649
0.0024447304956776
0.0024393590286671
0.0024377833441112
0.002439064723301
0.0024426094093732
0.0024482308474803
0.0024555416470605
0.0024641801884353
0.0024738547549248
0.002484333397764
0.0024954848968927
0.0025072225881435
0.0025194467324962
0.0025321417260343
0.0025453233581316
0.0025626673425524
0.0025768833369773
0.0025914234589302
0.002606403755262
0.0026219878599621
0.002637498952587
0.0026530239268666
0.0026684376654369
0.0026836513907169
0.0026985255494565
0.0027128821242397
0.002726506530926
0.0027392057661742
0.0027508225160747
0.0027612728900429
0.0027705723000304
0.0027789321043363
0.0027869287230653
0.002795219021424
0.0028039088805227
0.002812269589515
0.0028195668082531
0.0028241974725775
0.0028269866692198
0.0028273809443377
0.0028255007390508
0.0028195763951368
0.0028103355607171
0.002796188255429
0.0027836806144884
0.0027692407497874
0.0027582412338956
0.0027492579173978
0.0027370138342467
0.0027202963700987
0.0022515722154608
0.93230383310028
0.86892263822646
0.78453270051908
0.69000705297943
0.5971631994033
0.50989703135383
0.4316723335932
0.36235617435053
0.3015011223538
0.24772680413767
0.20395485272337
0.1656064893676
0.13327796862119
0.1067029398921
0.085144334769665
0.068030282776881
0.054560501362707
0.044005726088091
0.035764551865479
0.029322993011915
0.024250734215315
0.020225823035007
0.017026456080768
0.014456060999272
0.012369984393908
0.010665118776108
0.0092619106447706
0.0080958074065573
0.0071200811460184
0.0062976017444895
0.0056000288199555
0.0050035549297451
0.0044916449382827
0.0040492312139572
0.0036649917824482
0.0033295405503092
0.003035372971067
0.0027761339575644
0.0025469158676581
0.0023432811917126
0.0021619006020998
0.0019995388459639
0.0018540588364703
0.0017229148311544
0.0016046865568756
0.0014974875618087
0.0014002994342872
0.0013117368362828
0.0012309539376067
0.0011570604396178
0.0010893094657373
0.0010271120387568
0.0009698137523057
0.00091697349852098
0.00086811858777948
0.00082290689314226
0.00078098068858011
0.00074203683831805
0.00070580537807125
0.00067204578198084
0.00064054277481101
0.00061109938158086
0.00058354117346412
0.00055771375118119
0.00053348025394686
0.00051071758423572
0.00048931786213944
0.0004691819229946
0.00045022115547219
0.00043397535063441
0.0011854881179922
0.0029985910178984
0.003153836809124
0.0031362979224854
0.0030960287983921
0.0030370293383317
0.0029582454847226
0.0028622248712642
0.0027636812957773
0.0026897239829778
0.0026430615950904
0.0026098029627303
0.0025810188412731
0.0025534166786831
0.0025299518093416
0.0025053631842496
0.0024838832574262
0.0024661274037469
0.0024533764655716
0.0024441970383202
0.002439012790098
0.0024375569261468
0.0024389918395105
0.002442707795487
0.0024484881390917
0.00245594155893
0.0024647025893469
0.0024744742603581
0.0024850244919016
0.0024962192076991
0.0025079819500239
0.0025202190547421
0.0025329052057725
0.0025460591381877
0.0025633386997517
0.0025774729376346
0.0025919268557806
0.0026068021333779
0.0026222637533539
0.0026376869339671
0.0026531518451638
0.002668514834604
0.0026836817984402
0.0026985102195993
0.0027128188112145
0.002726394233673
0.0027390309874618
0.0027505638761082
0.0027609064259866
0.0027700680564017
0.0027782514025489
0.002786028518792
0.0027940787235965
0.0028024564878537
0.0028104723891883
0.0028176147874292
0.0028222339633833
0.0028251325010567
0.0028256406177771
0.0028238187844211
0.0028179224464977
0.0028087212235589
0.0027948203170442
0.0027825318824306
0.0027681474732322
0.0027573618597329
0.0027483191977742
0.002737304433621
0.0027213561795749
0.0022511886727446
0.90075739021423
0.78440332411557
0.6608499621786
0.55437588473878
0.47013818899493
0.4000499597457
0.34159811187243
0.2917110009363
0.24793466377975
0.2094854613312
0.17527937126943
0.14512223394846
0.11906615545547
0.096996949901122
0.078665022578218
0.063666999816028
0.051609071901658
0.042015571974142
0.03440201899362
0.028364258918274
0.023572220702407
0.019753924724405
0.016676638459169
0.01419353318174
0.012174149906824
0.010518050576532
0.0091466801714253
0.0080057584064907
0.0070491608584916
0.006241169960302
0.0055540779650525
0.0049666813301591
0.0044610428418988
0.0040240545751508
0.003643983381107
0.0033121554960409
0.0030205627163362
0.0027638146908818
0.0025363695254691
0.0023344116607963
0.0021541891494355
0.0019930678107774
0.001848344209411
0.0017180499003855
0.0016003658153233
0.0014937495555874
0.0013969700148457
0.0013087731353909
0.0012283412836454
0.0011546969448104
0.0010872223459659
0.0010251954309204
0.00096811050162176
0.0009154450573667
0.00086674671284476
0.00082165391697119
0.00077982722404543
0.00074098254228911
0.00070484388924789
0.00067116849110024
0.00063973764462969
0.00061035859156209
0.00058286078400625
0.00055708949538893
0.00053290569263583
0.00051018760150697
0.00048882905057096
0.00046873043798765
0.00044980325542865
0.00043387014792374
0.0012297779686813
0.0030095419484207
0.003156066155992
0.0031375056639461
0.0030969048872664
0.0030378878204804
0.0029593138955192
0.0028635389150486
0.0027647058217465
0.0026895725025018
0.0026419423833735
0.002608153317495
0.0025791749922787
0.0025515777600333
0.0025283623871415
0.0025038743329475
0.0024825613971067
0.002465050140152
0.0024523111184351
0.0024433728032693
0.002438411023986
0.0024371357188939
0.00243876975612
0.0024427082999567
0.002448700936326
0.0024563504932067
0.002465278079075
0.0024751777151755
0.0024858178496215
0.0024970664586178
0.0025088525563697
0.0025210791030235
0.0025337287541537
0.0025468286389866
0.0025639905564204
0.002578004039305
0.0025923424856422
0.0026071407244927
0.0026224712035284
0.0026378175462094
0.0026532333432944
0.0026685704245637
0.0026837261231863
0.002698546851865
0.0027128431330725
0.0027263901558742
0.0027389793736999
0.0027504390865376
0.0027606806553201
0.0027697080704432
0.00277771766931
0.002785271914874
0.0027930481740879
0.0028011340472774
0.0028089146795964
0.0028159439215196
0.0028206045155385
0.0028236291970694
0.0028243670600414
0.0028226625363772
0.0028168371652538
0.0028076736916004
0.0027938926230436
0.0027818836778519
0.0027675001436891
0.0027570613033113
0.0027480177572664
0.0027374726955738
0.0027218915061788
0.0022497257334071
0.67666057013026
0.48918599794041
0.41003252646742
0.36155568630172
0.32205631837587
0.28708349182619
0.25503999919042
0.22600097204435
0.19817438819816
0.17184128906997
0.14725090057858
0.12482201088595
0.10463025527193
0.086874056094325
0.07166146637429
0.05888751234991
0.048344035653337
0.03976064296935
0.032833953605812
0.02726459623038
0.022787323030768
0.019178393963914
0.016264349885749
0.013885447983592
0.011940264427609
0.010338004765581
0.009010131588507
0.007897855493126
0.0069630226232075
0.006172453457357
0.0054990400379412
0.0049214167033494
0.0044240846144091
0.0039935731831697
0.0036185905884186
0.0032907143820759
0.0030027633533549
0.0027487007520815
0.0025235293734683
0.0023234402714632
0.0021448665564524
0.0019850141514571
0.0018413494191471
0.001712008384906
0.0015950604729075
0.0014891248908356
0.0013928241551831
0.0013051447462146
0.001225088726073
0.0011518060027428
0.0010846150072813
0.0010228476148753
0.00096600382235777
0.00091353634047108
0.00086503228630335
0.0008200940745092
0.00077840903100793
0.00073968668641063
0.00070365517284627
0.00067007632151534
0.00063873583562292
0.00060944219666647
0.0005820202096402
0.00055631449883033
0.00053219018009435
0.00050952946324195
0.00048822326781883
0.00046817032855585
0.00044928661930547
0.00043380561641653
0.0012855513394428
0.0030230151811562
0.0031587269293047
0.0031387975220134
0.0030978104610003
0.0030388508815458
0.0029606277248847
0.0028652249132204
0.0027660783108635
0.002689491646402
0.0026406196661749
0.0026061383849897
0.002576900570279
0.0025492938946384
0.0025263238553541
0.0025019745277123
0.0024808915318177
0.0024636897380479
0.0024510649159497
0.0024424072082383
0.0024377291818138
0.0024367115956316
0.0024385969693163
0.0024428028980778
0.0024490402947241
0.0024569051427699
0.0024660048815737
0.002476032308396
0.0024867588925356
0.0024980555058536
0.0025098506927497
0.0025220554628058
0.0025346486150488
0.0025476813232157
0.0025646718726778
0.0025785729877165
0.0025927865278632
0.0026074828003306
0.0026226554263832
0.0026379063681505
0.0026532531479094
0.0026685401716729
0.002683655082724
0.0026984335359004
0.0027126787990415
0.0027261609548812
0.0027386655351034
0.0027500086775943
0.0027600961474202
0.0027689225274977
0.0027766737460664
0.0027838988016714
0.0027912635449716
0.0027989726270597
0.0028064976966345
0.0028134316323366
0.0028181549699293
0.0028213030057522
0.0028222912938648
0.002820783252778
0.002815114762176
0.0028060086817525
0.0027923649954722
0.0027805891043059
0.0027662542526476
0.0027563844501373
0.0027472114210291
0.0027378763991985
0.0027229025434379
0.0022481691151675
0.022761297332078
0.15551986805847
0.19115566479566
0.20452619573161
0.20666992241479
0.20057635652799
0.18888558525065
0.17453147175305
0.15881021846736
0.14241983897876
0.12592258277558
0.10978293505717
0.094438100809342
0.080252861505733
0.067531943084493
0.056445051149999
0.046991578051959
0.039085016246439
0.032560187885094
0.027219487846295
0.022865176235623
0.019318580594968
0.016423522503297
0.014058566769899
0.012107494714834
0.010490738340013
0.0091481713220072
0.0080250212609899
0.0070776240302654
0.0062734265175154
0.0055890376602325
0.0050027116371069
0.0044966535530188
0.0040579626213581
0.0036764599658984
0.0033428286652932
0.0030494466549362
0.0027907355985936
0.0025616693875247
0.0023579721632253
0.0021761364847588
0.0020134433748807
0.0018673263458924
0.0017356934038626
0.0016166869192396
0.0015089328055804
0.0014110173119923
0.0013218719901849
0.0012404519742556
0.0011659776923375
0.0010977049711605
0.0010349707541213
0.00097721670001745
0.00092392712130356
0.00087470016885287
0.00082911214031023
0.00078682244981172
0.00074752790496684
0.00071097621503081
0.0006769289059584
0.00064516016017529
0.00061547010362153
0.00058768251001535
0.00056164438742338
0.00053721691688705
0.00051427587012406
0.00049270955868679
0.00047241781931187
0.00045329489614736
0.00043526726214659
0.00078441277450983
0.0028785744683809
0.0031594652045829
0.0031479646063002
0.0031106559751617
0.0030563320802969
0.002983385852274
0.0028922190496315
0.0027918191062131
0.0027061315539348
0.0026498395099692
0.0026118248113216
0.0025813541790513
0.0025533554002805
0.0025238693958794
0.0024997040875281
0.0024788894877103
0.0024620139791342
0.002449581356534
0.002441223132868
0.0024368754819744
0.0024361794593331
0.0024383618301305
0.0024428750942588
0.0024493913608074
0.0024574966405366
0.0024667881096982
0.0024769574826994
0.0024877787961602
0.0024991267604968
0.0025109319527706
0.0025231045686683
0.0025356231722272
0.0025485520873242
0.0025657420642626
0.0025793429766713
0.0025933239495702
0.0026078392263927
0.0026227574126127
0.0026378446193442
0.0026530521718895
0.0026682277544433
0.0026832447211265
0.0026979260010286
0.0027120613054369
0.0027254056421986
0.0027377359388378
0.0027488541172037
0.0027586592862057
0.0027671310449832
0.0027744355959078
0.002781091202098
0.0027877208817224
0.0027947829630809
0.0028019267961568
0.0028087420180776
0.0028135635133253
0.0028168711765226
0.0028181921012867
0.0028169917583575
0.0028115885143433
0.0028025384875154
0.002788987884653
0.0027773971485309
0.002763245845099
0.0027540928610992
0.0027453260829823
0.0027374628134604
0.0027233455959116
0.0022448019471977
0.010062726113746
0.027104680059083
0.04842570462315
0.066179676980224
0.079631229419771
0.088671496107179
0.093343268198657
0.094495488177982
0.091880498338876
0.087347015005475
0.081368224144438
0.074288526775123
0.066670058591053
0.05887632892244
0.05129543236143
0.044234467124945
0.037868249391053
0.032274872892467
0.027464716353276
0.023388054646422
0.019962572592838
0.017100020765332
0.014711494124427
0.012716976798885
0.011049391523493
0.0096526701579537
0.0084747748939097
0.0074749490935188
0.0066264666436544
0.005902120382598
0.0052805553262276
0.0047428522257515
0.0042772695087056
0.0038720315753941
0.0035176474907586
0.0032058254318339
0.0029310677956424
0.00268795213393
0.0024719782506016
0.0022792272941696
0.0021067924007786
0.0019521165479558
0.001812899870833
0.0016871281188593
0.0015732529469888
0.0014699221150392
0.0013759110990797
0.0012901240286912
0.0012116834913934
0.0011398439412186
0.001073900601801
0.0010132442584753
0.0009573161694634
0.00090567471158785
0.00085790456802819
0.00081364398154961
0.00077255671527783
0.00073434699742764
0.00069876837947471
0.00066559354362546
0.0006346182494479
0.00060565304844358
0.00057853083997018
0.00055310285519344
0.00052923607562713
0.00050681143304096
0.00048572221967984
0.00046588045562699
0.00044716363275476
0.00043417129053473
0.0015282870239538
0.0030769238353737
0.0031704326521814
0.0031434909966575
0.0031005902682233
0.0030421532648798
0.0029659077969852
0.0028726362605033
0.0027728030048945
0.0026904070847078
0.002635961180764
0.0025982396981582
0.0025676770666891
0.0025399078605039
0.0025176805239288
0.0024940416953172
0.0024738879982537
0.0024577638683072
0.002445960052886
0.0024383315824339
0.0024348264122351
0.0024349602569553
0.0024378718887449
0.0024431125005494
0.0024502683435574
0.0024588977644191
0.0024685920844307
0.0024790450526485
0.0024900397703209
0.0025014588147734
0.0025132452363254
0.0025253191348714
0.0025376626586147
0.0025503044217515
0.002567114691544
0.002580358452676
0.002594004681237
0.0026082410366983
0.0026228230167056
0.0026376851031335
0.0026526997227809
0.002667724428211
0.0026826026389263
0.0026971356477705
0.002711093799587
0.0027242142697473
0.0027362711725554
0.002747043919614
0.0027564232783136
0.0027643645555267
0.0027710054621126
0.0027768043093789
0.002782344002153
0.0027883447897217
0.0027948354852838
0.002801307865971
0.0028062548749491
0.0028097820835194
0.0028114901869485
0.0028107075759719
0.0028057900871334
0.0027968982848335
0.0027833353216643
0.0027717406193293
0.0027575102559353
0.0027496477304465
0.0027414889644558
0.0027364648543849
0.002723671487786
0.0022396953904314
0.0079752734305752
0.011868900424684
0.019214727975583
0.028117497331053
0.036478960988268
0.043629240576462
0.049181558533672
0.052982501056939
0.055110993468056
0.055423865030224
0.054082124554302
0.051681239779492
0.048316578436349
0.044321030718832
0.039979929091915
0.035575147258568
0.03132258028875
0.02736628133564
0.023794781332616
0.020639203834851
0.017896566337291
0.015537693157682
0.013521831003204
0.011804473048184
0.010342547023431
0.0090980883115439
0.0080365452191639
0.0071285344187001
0.0063499354766721
0.0056780212991187
0.0050967478367626
0.0045926228510279
0.0041533245419602
0.0037693157044008
0.003431196891217
0.0031331753625778
0.0028696442608971
0.0026357840280641
0.0024272494951749
0.0022407264306465
0.0020736598176493
0.0019234183323629
0.0017878989332861
0.0016652017109564
0.0015540425047906
0.0014529977790708
0.00136094084922
0.0012768151424532
0.0011998256719576
0.0011292559194596
0.001064418957716
0.0010047148376532
0.00094962164518595
0.00089872460948622
0.00085161248799265
0.00080792784736784
0.00076735013746226
0.00072959874979089
0.00069443654736701
0.00066163269027926
0.00063098227017017
0.00060230719573343
0.00057544653971834
0.00055026226865251
0.00052662209728166
0.00050440695402557
0.00048351070321598
0.00046382332156093
0.00044525622450467
0.0004367905798934
0.0017654189627644
0.0031162404630805
0.0031791992276273
0.0031469924593938
0.0031023660879575
0.0030444854107589
0.002970290881263
0.0028794237679423
0.0027797512434458
0.0026928715426937
0.0026330247425045
0.0025919327398157
0.0025598334837016
0.0025317264513182
0.0025099601351612
0.0024869431526112
0.0024675983523403
0.0024523834840493
0.0024415069166338
0.0024348203386382
0.0024324323478271
0.0024335557149408
0.0024373777229212
0.0024434827545094
0.0024513670280101
0.002460564984019
0.0024706805773332
0.0024814011098645
0.0024925244893241
0.0025039469237631
0.0025156242424626
0.0025274890665411
0.0025395474384389
0.0025518581510059
0.0025681242968501
0.0025809839740434
0.0025942313000018
0.0026081429754707
0.0026223885266142
0.0026370348909247
0.00265187394152
0.0026667781462537
0.0026815394407982
0.0026959377534469
0.0027097339619767
0.0027226527312266
0.0027344783729386
0.0027449573653456
0.0027539733778263
0.0027614473978322
0.0027674804950177
0.0027724643282639
0.0027768932121135
0.0027816058538619
0.0027871678931728
0.0027931431926321
0.0027982338217759
0.0028019611868974
0.0028039067017888
0.0028034861669482
0.0027991365608404
0.0027904722194462
0.0027766921289016
0.0027646290123941
0.0027505515172029
0.002743320817642
0.0027363239877968
0.0027338851668061
0.002723487857029
0.0022338820606517
0.0063484278282174
0.0083850812591176
0.010628030358445
0.015039539665844
0.019958138191349
0.024659212781167
0.028850932631114
0.032285183837739
0.034844758687844
0.036428787699635
0.036878179153238
0.036391335144594
0.035228721340016
0.033330336420928
0.030999671738944
0.028365875093422
0.025627700179318
0.022925853983334
0.020355439015265
0.017985870092562
0.015850431777314
0.013956277109641
0.012294099982449
0.010846248115799
0.0095902135069508
0.0085026790722817
0.0075620101304007
0.0067475350628713
0.0060409765850841
0.0054267053963956
0.0048914888820177
0.0044235987843426
0.0040127215324835
0.0036509634196966
0.0033319398611869
0.0030496004572993
0.002798929226889
0.0025750224783444
0.0023749838780724
0.0021958310494132
0.0020348024493705
0.0018896762736101
0.0017582849712668
0.0016393489648231
0.0015313205719857
0.001432990329827
0.0013431798888692
0.0012610173212854
0.0011857812873368
0.0011167022098198
0.0010531692713674
0.0009945710877317
0.00094047752648069
0.00089046286610868
0.0008441293595057
0.00080113182173754
0.00076115058157978
0.00072394126250765
0.00068926616162663
0.00065690109917399
0.00062664910804522
0.00059832729358986
0.00057178494094117
0.00054689016812971
0.00052351414996935
0.00050153986951345
0.0004808559685757
0.00046136264768948
0.00044293291617869
0.000447214271379
0.0020575037431808
0.0031525290952226
0.0031859305409437
0.0031493601655104
0.0031033947460404
0.0030464105560782
0.0029748376287938
0.0028872323588364
0.0027887732447909
0.0026977050097904
0.0026311671840937
0.0025854897411698
0.0025510821419644
0.0025222882955001
0.0025008861212658
0.0024785190929
0.0024601173785701
0.0024459963196147
0.0024363184584488
0.0024308596176203
0.002429769475957
0.0024320360413903
0.0024369940079425
0.0024441075718993
0.0024528194175274
0.0024626432523818