/*--------------------------------*- C++ -*----------------------------------*\
| =========                 |                                                 |
| \\      /  F ield         | OpenFOAM: The Open Source CFD Toolbox           |
|  \\    /   O peration     | Version:  2312                                  |
|   \\  /    A nd           | Website:  www.openfoam.com                      |
|    \\/     M anipulation  |                                                 |
\*---------------------------------------------------------------------------*/
FoamFile
{
    version     2.0;
    format      ascii;
    arch        "LSB;label=32;scalar=64";
    class       volScalarField;
    location    "9e-05";
    object      yPlus;
}
// * * * * * * * * * * * * * * * * * * * * * * * * * * * * * * * * * * * * * //

dimensions      [0 0 0 0 0 0 0];

internalField   uniform 0;

boundaryField
{
    inlet
    {
        type            calculated;
        value           uniform 0;
    }
    outlet
    {
        type            calculated;
        value           uniform 0;
    }
    nozzleWalls
    {
        type            calculated;
        value           nonuniform List<scalar> 
144
(
35.094853917195
34.680958332705
34.25047885816
33.825863492839
33.413492111784
33.015489910036
32.632607991917
32.264776748249
31.912004618056
31.574277123963
31.251688596554
30.94443508185
30.652809656384
30.37720914081
30.118136389034
29.876173314918
29.651932817791
29.445419682655
29.253685663664
29.074577570335
28.907820445223
28.753429942821
28.611483942818
28.482096209646
28.365523942361
28.262216160799
28.172922292265
28.098852704199
28.041947664982
28.005388663176
27.994904671894
28.019448190472
28.098445019417
28.279482221213
28.730576525605
30.886375187102
35.333837036974
34.996182875953
34.573522040084
34.14339410262
33.721506410861
33.312596771384
32.918338269653
32.539246320126
32.175173198491
31.826160541408
31.492204648386
31.173427723378
30.870049771161
30.582388908972
30.310869960458
30.056017376732
29.818429179483
29.598692574531
29.396232130057
29.2077474014
29.03173115554
28.868061213713
28.716772834103
28.577952553407
28.451738205811
28.338429876246
28.238541138737
28.152916846828
28.082919561013
28.030737015079
28.000003597306
27.997247589702
28.032962409248
28.131038843928
28.353806204707
28.953079477847
35.186588998474
34.78769045618
34.357991097945
33.931001832124
33.515290412717
33.113580053635
32.726898441808
32.355325343973
31.998788227503
31.657295241056
31.330907302618
31.019796367998
30.724230805959
30.444580566903
30.181324466775
29.935025906493
29.706302206217
29.495504251263
29.300404479764
29.11819527853
28.948352289985
28.790864717816
28.645798301004
28.513254170549
28.393445355084
28.286764552044
28.193875665371
28.115852589912
28.054418914821
28.012375166756
27.994647784548
28.009230188621
28.071817411062
28.219568906363
28.569039013317
29.838904613317
35.269004678494
34.893123876124
34.465779643468
34.036869306978
33.617971123939
33.212621625789
32.822135112622
32.44681704561
32.08651100304
31.741256997043
31.411080473328
31.096128974148
30.796646591695
30.512977124461
30.245572073713
29.99497725477
29.761802921057
29.546560446078
29.347912612512
29.162584800991
28.989655978384
28.829075610532
28.680895059857
28.545207745213
28.422185894044
28.312173187263
28.215755297097
28.133884547128
28.068093499633
28.020854553369
27.996321429003
28.001935330547
28.050230093084
28.17084716197
28.447622517113
29.288740493557
)
;
    }
    tipWalls
    {
        type            calculated;
        value           nonuniform List<scalar> 
304
(
9.2135420976124
3.0127528243194
4.5477672724877
4.8665756276988
4.7545833572689
4.4680006403436
4.0446919788647
3.347610698583
2.2906100884819
1.2291091048101
0.31314276298222
0.57419705046804
0.56185675285065
0.49816356035117
0.43521810940599
0.38396500302426
0.34483251308439
0.31429290345826
0.28920801246052
0.2677073568176
0.24884975195036
0.23209549369887
0.21701955653614
0.20341961578944
0.19121862511912
0.18032441097193
0.17065456282002
0.16213142855877
0.15465482098585
0.14810162230839
0.14232436267429
0.1372159313006
0.13265614646362
0.12856005724594
0.12486012598769
0.12150406750241
0.11845206445781
0.11567607807028
0.11315695925719
0.11087694343863
0.10880102915282
0.10687253643816
0.10502972611347
0.10321672200277
0.1014079214878
0.099616503994272
0.097873776732852
0.096211483773708
0.094644776335926
0.093169251121707
0.091773152970628
0.090455225957509
0.089236977559548
0.088158397099548
0.087262923329749
0.086575439326213
0.086062013255666
0.085674111170865
0.085320629520299
0.084930174967984
0.08443734021259
0.08382543196694
0.083140872206108
0.082532267624793
0.0834658319444
0.1630742463167
0.16283050105811
0.16248102218179
0.1624063224238
0.16248549556522
0.16266468641221
0.16289062786779
0.16312049153358
0.16337027760872
0.1638200143328
0.16528852833247
0.17196955094993
0.32879904454167
0.32961356531693
0.3297900354652
0.33009615636051
0.33036761169719
0.33041439654126
0.33022482036205
0.32979623910152
0.32913136136916
0.32819227262577
0.3271705288375
0.32636398501348
0.325880681422
0.32575726504609
0.3262293400715
0.32783856597192
0.33148312805033
0.33753711713115
0.34447422423863
0.33920408356385
1.5859731144942
4.0258098936167
4.7923430673807
4.8407132690526
4.6250506029464
4.278576025912
3.7415440010819
2.8611129188148
1.7218471591098
0.77277148411408
0.48008565516044
0.5825058952668
0.5336573421429
0.46480377315772
0.40824473308777
0.36309280858958
0.32867170986239
0.3012504334773
0.27807352326575
0.25799193103721
0.24023523777955
0.22436848655208
0.21003691460907
0.19715056330481
0.18561383720775
0.17534089686915
0.16625532872523
0.15826949675866
0.15127131976562
0.14512572085011
0.13969534531383
0.13487320819182
0.13055474751244
0.12666416807205
0.12314191122319
0.11994205658963
0.11703093776799
0.11438537593437
0.11198862377488
0.10981678429489
0.10782205997914
0.10594432071557
0.10412216825236
0.10231145396301
0.10050836288373
0.098736828771242
0.097031122913269
0.095416083549544
0.09389639233198
0.092461780485165
0.091103689392459
0.089831459583455
0.08867716519522
0.087685920404832
0.086897227541539
0.086298518633936
0.085857983230795
0.085498955121466
0.085134141422704
0.08469890096421
0.08414526506472
0.083486524096838
0.082810216450912
0.082469797437436
0.083675820850497
0.16326158218954
0.16261570334493
0.16241997139179
0.16243230353975
0.16256575543012
0.16277545872603
0.16300519427953
0.16323987671641
0.1635461983854
0.16432814653878
0.16710320590605
0.17297339616504
22.553807235737
2.1348346803617
4.3261740373327
4.8452280685045
4.8040594871598
4.5495887895711
4.168815027917
3.5591248193752
2.58278700601
1.462437029716
0.53395614800095
0.54278534087137
0.57456864736458
0.51583623112062
0.44929917421321
0.39586195140865
0.35368034961972
0.32126044506796
0.29510432559939
0.27280769328833
0.25335195046349
0.23611143094877
0.22064906272221
0.2066834659634
0.19414282270386
0.18293022502244
0.17296115476307
0.164159767086
0.15643222494541
0.14966090628531
0.14370235602494
0.13843781977871
0.13374961869951
0.12954458188953
0.12575107002522
0.12231324546949
0.11918827033891
0.11634537504303
0.11376350204881
0.11142597135664
0.10930384634372
0.10734412600276
0.10548576555267
0.10366940585365
0.10185937029708
0.1000611981894
0.098302966716146
0.096618316366445
0.095027472821421
0.09353027490681
0.092115122877198
0.090776645208857
0.089530291785924
0.088412317975618
0.087467708014233
0.086730980672927
0.086175661571882
0.085764225375368
0.08541084488331
0.085035212842753
0.084571977091855
0.083988425195137
0.083313579214782
0.082661871125287
0.082717029000619
3.2888907490554
3.6189200735224
4.6962771006675
4.8625271266304
4.6937444790264
4.3775931357208
3.9032766374842
3.1168525627816
2.0002830086094
1.0037342699954
0.38592267271853
0.58339280614716
0.54821362108129
0.48187979163665
0.42111596742711
0.37312287314438
0.33652956649971
0.30764490407258
0.28352919511951
0.26277391864136
0.2444795756638
0.22818228834925
0.21348172590302
0.20024266345763
0.18837627693558
0.17779499722674
0.16841975709715
0.16016859819381
0.15293522372989
0.14659118465324
0.14099013008924
0.13602819716324
0.13159157359347
0.12760021848833
0.12399064554228
0.12071383671649
0.11773306710476
0.1150228210493
0.11256546939021
0.11034083185894
0.1083073805166
0.10640626452552
0.10457541955769
0.10276396554092
0.10095744048603
0.099174856790218
0.097449705171507
0.095810733448263
0.094267818955802
0.092813132022124
0.091435950211025
0.090139965411519
0.088952288613694
0.087916188241393
0.087073164422801
0.086431476972166
0.085956687934082
0.085586210277685
0.085228383585346
0.084818217574454
0.08429503455771
0.083657676284102
0.082971526237128
0.082438398838247
0.085456807571343
)
;
    }
    wedge1
    {
        type            wedge;
    }
    wedge2
    {
        type            wedge;
    }
    defaultFaces
    {
        type            empty;
    }
}


// ************************************************************************* //
