/*--------------------------------*- C++ -*----------------------------------*\
| =========                 |                                                 |
| \\      /  F ield         | OpenFOAM: The Open Source CFD Toolbox           |
|  \\    /   O peration     | Version:  2312                                  |
|   \\  /    A nd           | Website:  www.openfoam.com                      |
|    \\/     M anipulation  |                                                 |
\*---------------------------------------------------------------------------*/
FoamFile
{
    version     2.0;
    format      ascii;
    arch        "LSB;label=32;scalar=64";
    class       volScalarField;
    location    "0.004";
    object      alphat;
}
// * * * * * * * * * * * * * * * * * * * * * * * * * * * * * * * * * * * * * //

dimensions      [1 -1 -1 0 0 0 0];

internalField   nonuniform List<scalar> 
48128
(
1.14401e-07
1.48175e-07
1.98072e-07
2.00563e-07
1.85233e-07
1.60992e-07
1.33412e-07
1.07025e-07
8.24625e-08
5.7261e-08
1.32752e-07
8.39037e-07
2.77846e-06
5.09334e-06
7.03166e-06
8.62542e-06
9.97319e-06
1.11523e-05
1.22325e-05
1.32582e-05
1.42624e-05
1.52678e-05
1.62895e-05
1.73383e-05
1.84282e-05
1.95691e-05
2.07752e-05
2.20808e-05
2.34806e-05
2.50063e-05
2.6655e-05
2.84371e-05
3.03722e-05
3.24759e-05
3.47451e-05
3.72333e-05
3.99599e-05
4.29529e-05
4.61089e-05
4.95397e-05
5.31712e-05
5.69556e-05
6.09525e-05
6.52064e-05
6.96385e-05
7.4276e-05
7.88797e-05
8.38128e-05
8.86311e-05
9.35754e-05
9.8145e-05
0.000103151
0.000107827
0.000112774
0.000117067
0.000122763
0.000129
0.000135009
0.00014094
0.000146506
0.000151873
0.000156909
0.000161665
0.000166228
0.000170596
0.000174791
0.00017874
0.000182457
0.000184837
0.000177461
0.000170683
0.000164471
0.000158907
0.000153672
0.000148843
0.000144299
0.000140036
0.000136087
0.000132331
0.000128835
0.000125521
0.000122502
0.000119544
0.000116836
0.000114205
0.000111809
0.000109469
0.000107345
0.000105268
0.000103372
0.000101515
9.98223e-05
9.81779e-05
9.66523e-05
9.51509e-05
9.37108e-05
9.22992e-05
9.10015e-05
8.98278e-05
8.87617e-05
8.77774e-05
8.68462e-05
8.59248e-05
8.50372e-05
8.42044e-05
8.34234e-05
8.27076e-05
8.20334e-05
8.14101e-05
8.08235e-05
8.02916e-05
7.98017e-05
7.93687e-05
7.89704e-05
7.86129e-05
7.82752e-05
7.79418e-05
7.75246e-05
7.70926e-05
7.6518e-05
7.60655e-05
7.61461e-05
7.58639e-05
7.55608e-05
7.55341e-05
7.54271e-05
7.52966e-05
7.51728e-05
7.50213e-05
7.4861e-05
7.46843e-05
7.45149e-05
7.43501e-05
7.41828e-05
7.40158e-05
7.38352e-05
7.36745e-05
7.35387e-05
7.34151e-05
7.3301e-05
7.31947e-05
7.31012e-05
7.30159e-05
7.29392e-05
7.28761e-05
7.28251e-05
7.27728e-05
7.2722e-05
7.26553e-05
7.25864e-05
7.25041e-05
7.24284e-05
7.23563e-05
7.22856e-05
7.22098e-05
7.21191e-05
7.20233e-05
7.18928e-05
7.17543e-05
7.16229e-05
7.14759e-05
7.1345e-05
7.12762e-05
7.11884e-05
7.11123e-05
7.10584e-05
7.10108e-05
7.09817e-05
7.09511e-05
7.09229e-05
7.08865e-05
7.08442e-05
7.07924e-05
7.07339e-05
7.06612e-05
7.05769e-05
7.04885e-05
7.04014e-05
7.03031e-05
7.02119e-05
7.0142e-05
7.00822e-05
7.00286e-05
7.00005e-05
6.99759e-05
6.99506e-05
6.99304e-05
6.99139e-05
6.98948e-05
6.98671e-05
6.98243e-05
6.97678e-05
6.97085e-05
6.96363e-05
6.95659e-05
6.94934e-05
6.94327e-05
6.9378e-05
6.93294e-05
6.92927e-05
6.92619e-05
6.92373e-05
6.92226e-05
6.92106e-05
6.91948e-05
6.91768e-05
6.91459e-05
6.91165e-05
6.90791e-05
6.89965e-05
6.89458e-05
6.88928e-05
6.88349e-05
6.87855e-05
6.87408e-05
6.87018e-05
6.86739e-05
6.86488e-05
6.86259e-05
6.86056e-05
6.85898e-05
6.85697e-05
6.85514e-05
6.85226e-05
6.84688e-05
6.84304e-05
6.83818e-05
6.83275e-05
6.8283e-05
6.82396e-05
6.8197e-05
6.81568e-05
6.81255e-05
6.80975e-05
6.80719e-05
6.80487e-05
6.80275e-05
6.80055e-05
6.79847e-05
6.79347e-05
8.58079e-07
6.74518e-07
4.70388e-07
3.15179e-07
2.34274e-07
1.9163e-07
1.95855e-07
3.32289e-07
7.01244e-07
1.31285e-06
2.83177e-06
5.84288e-06
1.07186e-05
1.83513e-05
2.69156e-05
3.61586e-05
4.55357e-05
5.47264e-05
6.3782e-05
7.28072e-05
8.2018e-05
9.15068e-05
0.000101607
0.000112282
0.000123792
0.000136149
0.000149551
0.000164064
0.000179215
0.000196328
0.000214898
0.000234482
0.000255525
0.000278023
0.000301172
0.000325669
0.000349428
0.000375471
0.000402307
0.000430897
0.000460947
0.000491468
0.000522818
0.000555113
0.00058725
0.000620644
0.00065341
0.000688766
0.000723577
0.000760123
0.000793193
0.000829665
0.000863866
0.000900169
0.000931645
0.000963223
0.000993107
0.00102031
0.00104602
0.00106944
0.00109088
0.0011099
0.00112706
0.00114263
0.00115677
0.00116967
0.00118076
0.00119024
0.00119808
0.00120471
0.00121146
0.00121583
0.00121979
0.00122178
0.00122227
0.00122195
0.0012191
0.00121607
0.00121089
0.00120566
0.00119831
0.00119159
0.00118313
0.00117521
0.00116557
0.00115645
0.00114593
0.00113601
0.00112499
0.00111466
0.00110346
0.00109286
0.0010817
0.00107097
0.00105981
0.00104863
0.00103703
0.00102557
0.00101441
0.00100367
0.000993263
0.000983296
0.000973294
0.000963294
0.000953541
0.000943912
0.000934703
0.000925619
0.000916994
0.000908489
0.000900503
0.000892726
0.000885534
0.000878532
0.000872149
0.000865756
0.000859963
0.000853214
0.00084658
0.000838952
0.000832054
0.000827713
0.000821352
0.00081541
0.000811078
0.000807009
0.000803143
0.000799722
0.000796111
0.00079247
0.0007886
0.000784769
0.00078091
0.00077703
0.00077307
0.000769056
0.000765044
0.000761296
0.000757585
0.000754133
0.000750754
0.000747613
0.000744581
0.000741734
0.000739107
0.000734979
0.000730921
0.000726854
0.000722787
0.000718853
0.000714901
0.000711053
0.000707253
0.000703627
0.000700122
0.000696633
0.000693229
0.000689623
0.000686119
0.000682541
0.00067901
0.000675344
0.000671946
0.000668551
0.000665229
0.000662168
0.000659142
0.000656487
0.00065387
0.000651504
0.000649289
0.000647138
0.000645203
0.000643155
0.000641387
0.000639396
0.000637555
0.000635579
0.000633555
0.000631497
0.000629325
0.000627306
0.000625193
0.000623484
0.000621779
0.000620187
0.0006187
0.000617342
0.000616084
0.00061498
0.000613886
0.000612861
0.000611604
0.000610638
0.000609452
0.000608267
0.000606939
0.000605616
0.000604298
0.000603059
0.000601866
0.000600741
0.000599734
0.000598839
0.000598064
0.000597365
0.000596696
0.00059613
0.000595395
0.000594802
0.000594071
0.000593261
0.000592423
0.000591507
0.000590578
0.000589622
0.000588795
0.000587973
0.000587248
0.000586567
0.000585985
0.000585522
0.000585073
0.000584689
0.000584271
0.000583808
0.000583238
0.000582705
0.000582098
0.000581436
0.000580736
0.000580014
0.000579359
0.000578751
0.000578176
0.000577687
0.000577239
0.000576876
0.000576578
0.000576101
1.14635e-06
1.28203e-06
1.36328e-06
9.62508e-07
6.48503e-07
6.97143e-07
1.28315e-06
2.57295e-06
4.76567e-06
8.56361e-06
1.54218e-05
2.80697e-05
4.8195e-05
7.70528e-05
0.000108467
0.000139536
0.000168387
0.000195008
0.000219764
0.000243414
0.000266751
0.000289434
0.0003132
0.000337428
0.000362925
0.000389558
0.000417686
0.000447499
0.000478572
0.000511791
0.000546535
0.000582825
0.000620999
0.000660645
0.000700632
0.000742663
0.000785511
0.000831552
0.00087828
0.000927216
0.000978363
0.00103004
0.00108242
0.00113605
0.00118876
0.00124315
0.00129542
0.00135144
0.00140573
0.00146269
0.00151366
0.00156897
0.00162071
0.00167476
0.00172208
0.00177071
0.00181629
0.0018587
0.00189911
0.00193658
0.00197079
0.00200152
0.00202955
0.00205518
0.00207865
0.00210019
0.00211909
0.00213574
0.00214989
0.00216036
0.00217
0.00217542
0.00218069
0.00218265
0.00218294
0.00218165
0.00217724
0.00217228
0.00216411
0.00215602
0.00214468
0.00213434
0.00212086
0.00210828
0.00209277
0.00207822
0.00206128
0.00204542
0.00202757
0.00201086
0.00199258
0.00197528
0.00195689
0.00193917
0.00192045
0.00190148
0.00188174
0.00186222
0.0018432
0.00182482
0.00180692
0.0017895
0.00177181
0.001754
0.00173651
0.00171911
0.00170238
0.00168572
0.00166981
0.00165393
0.00163892
0.00162412
0.00161031
0.00159667
0.00158411
0.00157126
0.00155961
0.00154584
0.00153245
0.00151741
0.00150305
0.00149364
0.00148111
0.00146857
0.00145899
0.00144997
0.0014411
0.0014328
0.00142411
0.00141543
0.00140636
0.00139736
0.00138832
0.00137929
0.00137014
0.0013609
0.00135172
0.00134297
0.00133439
0.00132619
0.00131814
0.00131049
0.00130303
0.00129594
0.00128911
0.00128276
0.00127665
0.00127093
0.00126517
0.0012597
0.00125414
0.00124879
0.00124361
0.0012386
0.00123368
0.00122862
0.00122356
0.00121797
0.0012122
0.00120633
0.00120037
0.00119441
0.00118916
0.00118377
0.00117886
0.00117419
0.00117002
0.00116612
0.00116258
0.00115925
0.00115606
0.00115297
0.00114982
0.00114674
0.00114336
0.00113977
0.00113599
0.00113212
0.00112804
0.00112393
0.00111999
0.00111621
0.00111271
0.00110963
0.00110681
0.00110422
0.00110185
0.00109978
0.00109785
0.00109598
0.00109397
0.00109176
0.0010894
0.00108691
0.00108425
0.00108148
0.00107867
0.00107594
0.00107328
0.00107089
0.00106873
0.00106678
0.00106515
0.00106375
0.00106246
0.00106129
0.00105999
0.0010588
0.0010573
0.00105554
0.00105383
0.00105193
0.00104993
0.00104792
0.00104601
0.00104413
0.00104258
0.00104112
0.0010399
0.00103877
0.00103791
0.00103704
0.00103634
0.00103547
0.00103437
0.00103331
0.00103203
0.00103065
0.00102926
0.00102784
0.00102643
0.00102503
0.0010238
0.00102275
0.00102178
0.00102101
0.00102031
0.00101975
0.00101924
0.00101822
1.36044e-06
2.12846e-06
2.86323e-06
2.08861e-06
1.90118e-06
2.96666e-06
5.25437e-06
9.38487e-06
1.63083e-05
2.8592e-05
5.08871e-05
8.6124e-05
0.000134069
0.000190115
0.000243655
0.000291674
0.000333746
0.000371837
0.000406877
0.000439714
0.000471978
0.000503651
0.00053632
0.000569536
0.000604129
0.000639994
0.000677387
0.000716455
0.00075699
0.000799525
0.000843444
0.00088914
0.000935972
0.000984678
0.00103397
0.00108532
0.00113782
0.00119357
0.00124956
0.0013072
0.00136696
0.00142726
0.001488
0.00155021
0.00161102
0.00167331
0.00173241
0.00179512
0.00185567
0.00191853
0.0019753
0.00203578
0.00209259
0.00215122
0.00220371
0.0022583
0.00230885
0.00235699
0.00240317
0.00244609
0.00248572
0.0025222
0.00255624
0.00258785
0.00261717
0.00264434
0.00266867
0.00269117
0.00271091
0.00272641
0.0027415
0.00275171
0.00276218
0.00276838
0.0027732
0.00277554
0.00277524
0.00277412
0.00276935
0.00276467
0.00275673
0.00274976
0.00273891
0.00272875
0.00271541
0.00270279
0.00268765
0.00267337
0.00265692
0.00264135
0.00262401
0.00260759
0.00258979
0.00257255
0.00255378
0.00253432
0.0025138
0.00249343
0.00247373
0.00245471
0.00243619
0.00241798
0.00239913
0.00237996
0.00236101
0.00234205
0.00232379
0.00230547
0.00228797
0.00227034
0.0022537
0.00223715
0.00222177
0.00220649
0.0021924
0.0021779
0.00216465
0.00214844
0.0021324
0.00211454
0.00209635
0.00208528
0.00207125
0.00205622
0.00204482
0.00203448
0.00202394
0.00201374
0.00200299
0.0019922
0.00198078
0.00196936
0.00195779
0.00194614
0.00193427
0.00192221
0.00191017
0.00189862
0.00188729
0.00187638
0.00186563
0.00185535
0.00184527
0.00183565
0.00182632
0.00181754
0.00180901
0.00180098
0.00179281
0.00178502
0.00177706
0.00176939
0.00176186
0.0017546
0.00174735
0.00173996
0.00173246
0.00172427
0.00171579
0.0017072
0.00169847
0.00168968
0.00168185
0.00167401
0.00166665
0.00165969
0.00165339
0.00164748
0.00164205
0.00163688
0.00163189
0.001627
0.00162201
0.00161707
0.00161172
0.00160611
0.00160023
0.00159425
0.00158794
0.00158171
0.00157568
0.00156998
0.00156457
0.00155977
0.00155525
0.0015511
0.00154723
0.00154381
0.00154049
0.00153732
0.00153391
0.00153025
0.00152644
0.00152227
0.00151798
0.00151352
0.00150912
0.00150483
0.00150066
0.00149692
0.00149346
0.00149036
0.0014876
0.00148521
0.00148293
0.00148086
0.00147864
0.00147651
0.001474
0.00147101
0.00146811
0.00146508
0.00146193
0.00145878
0.00145579
0.00145289
0.00145045
0.00144815
0.00144614
0.0014443
0.00144282
0.0014413
0.00144007
0.00143855
0.0014367
0.00143492
0.00143288
0.00143072
0.00142856
0.0014264
0.00142424
0.00142216
0.00142031
0.0014187
0.00141722
0.00141599
0.00141488
0.00141394
0.00141307
0.00141146
1.53156e-06
4.05639e-06
5.77229e-06
4.12887e-06
5.33157e-06
8.18204e-06
1.35032e-05
2.29486e-05
3.99283e-05
7.00757e-05
0.000116357
0.00017953
0.000249921
0.000319436
0.000382692
0.000438729
0.000489034
0.000533464
0.000574661
0.000613585
0.000651631
0.000689128
0.00072728
0.000765971
0.000805796
0.000846753
0.000888973
0.000932611
0.000977507
0.00102404
0.0010715
0.0011202
0.00116976
0.00122126
0.00127319
0.00132714
0.00138198
0.00143989
0.00149763
0.00155611
0.00161662
0.00167743
0.0017386
0.00180119
0.00186144
0.00192241
0.00197935
0.00203923
0.0020968
0.00215593
0.00220934
0.00226642
0.00231999
0.00237441
0.00241188
0.00246233
0.00249124
0.00253422
0.00257062
0.00260756
0.00264754
0.00268531
0.00273214
0.00277409
0.00281891
0.00285315
0.00289385
0.00293266
0.00296358
0.00298493
0.0030051
0.00302028
0.00303589
0.00304639
0.0030563
0.00306285
0.00306768
0.00307146
0.00307192
0.00307256
0.00307073
0.00306964
0.0030646
0.00305976
0.00305195
0.00304442
0.0030346
0.0030253
0.00301397
0.00300315
0.0029907
0.00297897
0.00296573
0.00295285
0.00293803
0.00292218
0.00290511
0.00288805
0.00287175
0.00285599
0.00284073
0.00282554
0.00280948
0.00279297
0.00277652
0.00275997
0.002744
0.0027279
0.00271254
0.00269695
0.0026823
0.00266768
0.00265418
0.00264074
0.00262841
0.00261572
0.0026039
0.00258904
0.00257368
0.00255685
0.00253843
0.0025281
0.0025163
0.0025025
0.00249197
0.00248284
0.00247346
0.00246407
0.00245406
0.00244398
0.00243307
0.00242207
0.00241075
0.00239923
0.0023874
0.00237527
0.00236306
0.00235134
0.00233979
0.00232866
0.00231765
0.0023071
0.00229674
0.00228682
0.0022772
0.00226815
0.00225933
0.00225103
0.0022425
0.00223436
0.00222593
0.00221783
0.00220976
0.00220201
0.00219412
0.0021861
0.00217778
0.00216867
0.00215911
0.00214945
0.00213954
0.00212944
0.00212048
0.00211161
0.0021032
0.00209527
0.00208806
0.00208135
0.00207517
0.00206929
0.0020636
0.00205799
0.00205222
0.00204646
0.00204013
0.0020335
0.00202649
0.00201936
0.00201176
0.00200427
0.001997
0.00199021
0.00198367
0.00197789
0.00197243
0.00196745
0.00196279
0.00195864
0.00195458
0.00195068
0.00194647
0.00194192
0.00193715
0.001932
0.0019266
0.00192101
0.0019155
0.00191013
0.0019049
0.00190027
0.00189592
0.00189204
0.00188854
0.00188553
0.00188261
0.00187995
0.00187711
0.00187434
0.00187118
0.00186735
0.00186352
0.00185962
0.0018556
0.00185156
0.00184776
0.00184409
0.00184098
0.00183805
0.0018355
0.00183314
0.00183123
0.00182927
0.00182765
0.00182571
0.00182332
0.00182098
0.00181836
0.0018156
0.00181281
0.00181007
0.00180733
0.00180472
0.0018024
0.00180039
0.00179854
0.00179699
0.0017956
0.00179441
0.00179331
0.00179129
1.68332e-06
7.6081e-06
9.9841e-06
7.87294e-06
1.07537e-05
1.65132e-05
2.71968e-05
4.64801e-05
8.11498e-05
0.000133993
0.000205017
0.000284334
0.000364529
0.000439751
0.0005077
0.00056914
0.000622531
0.000670956
0.000715961
0.000758497
0.000799849
0.000840521
0.000881383
0.000922574
0.000964426
0.00100711
0.0010506
0.00109513
0.00114041
0.00118675
0.00123337
0.00128118
0.00132938
0.00137945
0.00142946
0.00148077
0.00153221
0.00158654
0.00164005
0.00169297
0.00174792
0.00180254
0.00185766
0.00191417
0.00195063
0.00197125
0.00199226
0.00201186
0.00202983
0.0020449
0.00207099
0.00210198
0.00212324
0.00215286
0.00217473
0.00223483
0.00225992
0.00229107
0.0023317
0.00235496
0.00240029
0.00242802
0.00247798
0.00251393
0.00255745
0.00258629
0.00262382
0.00265937
0.00269438
0.00273487
0.00276913
0.00281107
0.00284746
0.00288426
0.00292027
0.0029527
0.0029907
0.00302388
0.00305726
0.00309142
0.00312818
0.00315962
0.0031705
0.00317178
0.0031706
0.00316933
0.00316617
0.00316331
0.00315865
0.00315433
0.00314833
0.00314299
0.00313601
0.00312923
0.0031201
0.00310982
0.00309827
0.00308657
0.00307566
0.003065
0.00305476
0.00304437
0.00303304
0.00302122
0.00300928
0.00299713
0.00298541
0.00297346
0.00296212
0.0029505
0.00293965
0.00292879
0.00291888
0.00290903
0.00290015
0.00289084
0.00288193
0.00287023
0.00285753
0.00284385
0.00282786
0.00281943
0.00281143
0.00280111
0.00279289
0.00278629
0.00277964
0.00277265
0.00276505
0.00275737
0.00274876
0.00273997
0.00273068
0.00272108
0.00271111
0.00270079
0.00269032
0.00268026
0.0026703
0.00266071
0.00265122
0.00264214
0.00263323
0.0026247
0.00261646
0.00260874
0.00260125
0.00259422
0.00258695
0.00258001
0.00257274
0.00256578
0.00255872
0.00255201
0.00254502
0.00253787
0.00253025
0.00252181
0.00251283
0.00250368
0.0024942
0.00248435
0.00247572
0.00246733
0.00245929
0.00245176
0.00244491
0.00243864
0.0024329
0.00242751
0.00242226
0.0024171
0.00241166
0.00240619
0.00240006
0.00239356
0.00238661
0.00237946
0.00237178
0.00236419
0.00235676
0.0023499
0.00234327
0.00233747
0.00233204
0.00232717
0.0023226
0.00231854
0.00231458
0.00231074
0.00230657
0.00230194
0.00229704
0.00229172
0.00228604
0.00228017
0.00227433
0.00226869
0.00226315
0.00225835
0.00225377
0.00224975
0.00224612
0.00224309
0.0022401
0.00223742
0.0022345
0.00223161
0.00222836
0.00222429
0.00222011
0.00221587
0.00221154
0.00220713
0.00220303
0.00219906
0.00219576
0.00219263
0.00218997
0.00218747
0.00218553
0.00218351
0.00218184
0.00217987
0.00217734
0.0021748
0.00217198
0.00216899
0.00216594
0.00216296
0.00215999
0.00215717
0.00215472
0.0021526
0.00215067
0.00214909
0.0021477
0.00214652
0.00214544
0.00214341
1.8394e-06
1.17854e-05
1.42917e-05
1.28691e-05
1.86658e-05
2.9403e-05
4.84585e-05
8.37658e-05
0.000138775
0.000212983
0.000296725
0.000383931
0.000467964
0.000545393
0.000616361
0.000678684
0.000733859
0.000784436
0.000831357
0.000875576
0.000918215
0.000959933
0.00100123
0.0010425
0.0010839
0.00112573
0.00116782
0.00121047
0.00125319
0.00129649
0.00133954
0.00138334
0.0014268
0.00147168
0.00151589
0.00156113
0.00160551
0.00165294
0.00169904
0.00171277
0.00172363
0.001722
0.0017305
0.00174155
0.0017556
0.00176545
0.00177943
0.00179494
0.00181004
0.00182598
0.0018446
0.00188277
0.00189992
0.00193068
0.00194001
0.00200514
0.00202739
0.00203631
0.00207622
0.00208872
0.00212665
0.00214444
0.00218679
0.00221233
0.00224867
0.00227031
0.00229914
0.00232688
0.00235602
0.00238955
0.00241977
0.00245727
0.00249062
0.00252575
0.00255987
0.00259265
0.00262997
0.002664
0.00269939
0.00273707
0.00277439
0.00281017
0.00284503
0.00288083
0.00291618
0.00294956
0.00298374
0.0030171
0.00304798
0.00308002
0.00311108
0.00313094
0.00313203
0.00313284
0.003131
0.00312794
0.00312361
0.00311898
0.00311501
0.00311108
0.00310737
0.00310328
0.00309832
0.0030928
0.00308692
0.00308064
0.00307453
0.00306798
0.00306186
0.00305535
0.00304947
0.00304347
0.00303816
0.00303289
0.00302846
0.00302329
0.00301819
0.00301076
0.00300219
0.00299298
0.00298126
0.00297553
0.00297175
0.00296627
0.00296121
0.00295773
0.00295459
0.00295085
0.00294661
0.00294223
0.00293694
0.00293136
0.00292512
0.00291853
0.00291152
0.0029042
0.00289666
0.00288937
0.00288212
0.00287518
0.00286833
0.00286182
0.00285546
0.00284942
0.00284363
0.00283826
0.00283314
0.00282837
0.00282341
0.00281868
0.00281367
0.00280889
0.00280393
0.00279924
0.00279424
0.00278898
0.00278322
0.00277664
0.00276943
0.00276204
0.00275428
0.00274588
0.00273871
0.00273203
0.00272549
0.00271945
0.00271398
0.00270918
0.00270486
0.00270087
0.00269698
0.00269321
0.00268904
0.00268481
0.00267987
0.00267451
0.00266866
0.00266247
0.00265585
0.00264921
0.00264264
0.00263666
0.00263093
0.00262604
0.00262154
0.00261761
0.00261395
0.00261078
0.00260768
0.0026047
0.00260135
0.00259749
0.00259331
0.0025886
0.00258352
0.00257825
0.00257291
0.00256783
0.00256278
0.00255858
0.00255449
0.00255105
0.00254796
0.00254557
0.00254313
0.00254107
0.00253868
0.00253628
0.00253358
0.00252991
0.00252607
0.00252213
0.00251815
0.00251401
0.00251023
0.00250655
0.00250363
0.00250083
0.00249859
0.00249645
0.00249495
0.00249336
0.00249206
0.00249054
0.00248837
0.00248609
0.00248356
0.00248082
0.00247798
0.00247523
0.00247248
0.0024699
0.00246773
0.0024659
0.00246429
0.00246305
0.00246201
0.0024612
0.00246049
0.00245895
2.06827e-06
1.5732e-05
1.95587e-05
1.97413e-05
3.04831e-05
4.79715e-05
7.97943e-05
0.000133326
0.000206646
0.000291851
0.000382691
0.000472868
0.000557766
0.00063634
0.000707052
0.000769106
0.000824961
0.000876142
0.000923461
0.000967845
0.00101011
0.00105109
0.00109101
0.00113047
0.00116949
0.00120847
0.00124711
0.00128582
0.00132385
0.00136205
0.00139922
0.00143675
0.00147333
0.00151095
0.00154711
0.00155744
0.00155302
0.0015527
0.00153359
0.00153046
0.00153212
0.00152594
0.00153791
0.00155018
0.00156705
0.00157805
0.0015937
0.00161818
0.00163173
0.00165117
0.00165755
0.00170367
0.00171431
0.00174221
0.00174612
0.00179413
0.00181147
0.00180346
0.00183261
0.00183635
0.00186281
0.00187261
0.00190287
0.00191862
0.00194543
0.00196186
0.00198097
0.00200201
0.00202455
0.00205039
0.00207566
0.00210437
0.00213289
0.0021597
0.00218899
0.00221612
0.00224681
0.00227739
0.00230467
0.00234251
0.00236869
0.00240717
0.00243304
0.00247798
0.00250498
0.00255088
0.00258058
0.00262764
0.0026569
0.00270352
0.00273644
0.002782
0.00281021
0.00285209
0.00287756
0.00291636
0.00295008
0.00298747
0.00300925
0.0030141
0.00301844
0.0030221
0.00302487
0.00302687
0.00302823
0.00302903
0.00302981
0.00303
0.00303046
0.00303033
0.00303056
0.00303064
0.00303098
0.00303139
0.00303221
0.00303199
0.00303148
0.00302938
0.0030262
0.00302255
0.00301665
0.0030144
0.00301493
0.00301494
0.00301402
0.00301404
0.00301463
0.00301475
0.00301445
0.00301395
0.00301258
0.00301084
0.0030083
0.00300544
0.00300208
0.00299852
0.00299468
0.00299083
0.00298699
0.00298341
0.00297987
0.00297662
0.00297346
0.00297058
0.00296788
0.00296551
0.00296333
0.00296141
0.00295939
0.00295748
0.00295537
0.00295343
0.00295119
0.00294917
0.00294678
0.0029441
0.00294091
0.00293695
0.00293236
0.00292754
0.0029223
0.0029164
0.00291152
0.00290725
0.00290306
0.00289926
0.00289591
0.00289328
0.00289105
0.00288911
0.00288725
0.00288549
0.00288332
0.00288101
0.002878
0.00287456
0.00287051
0.0028662
0.00286145
0.00285659
0.00285168
0.00284739
0.00284336
0.00284009
0.00283721
0.00283488
0.00283279
0.00283116
0.00282956
0.00282807
0.0028262
0.00282384
0.00282105
0.00281768
0.00281395
0.00281003
0.00280594
0.00280213
0.0027983
0.00279537
0.00279246
0.00279023
0.0027883
0.00278714
0.00278584
0.00278497
0.00278368
0.00278236
0.00278082
0.00277817
0.00277532
0.00277232
0.00276931
0.00276608
0.00276323
0.00276044
0.00275847
0.00275655
0.00275525
0.002754
0.00275342
0.00275274
0.0027523
0.00275171
0.00275039
0.00274887
0.00274714
0.00274517
0.00274305
0.00274101
0.00273898
0.00273712
0.0027357
0.0027346
0.00273373
0.00273324
0.00273295
0.00273291
0.00273293
0.00273247
2.34537e-06
2.06336e-05
2.64988e-05
3.0054e-05
4.64193e-05
7.35192e-05
0.000121061
0.000190799
0.000274104
0.000365576
0.000459341
0.00054977
0.000634116
0.000712624
0.000781323
0.000842608
0.000898048
0.000948668
0.000995175
0.00103837
0.00107885
0.00111763
0.00115468
0.00119078
0.00122582
0.00126037
0.00129392
0.00132711
0.00135891
0.00139058
0.00142044
0.00145016
0.00145837
0.00144217
0.00141509
0.00139048
0.00137871
0.00137281
0.00135352
0.00135577
0.00136553
0.0013675
0.00139597
0.00140749
0.00142199
0.001437
0.00144385
0.00147689
0.00148218
0.0015
0.00149047
0.00152917
0.00153059
0.00154983
0.00154953
0.00156386
0.00158984
0.00158406
0.00160027
0.00160306
0.00162415
0.00163415
0.00165529
0.00167137
0.00169099
0.00170988
0.00172371
0.00174514
0.00176415
0.00178913
0.00181084
0.00183448
0.00186208
0.00187838
0.0019095
0.00192756
0.00195606
0.00198209
0.00200081
0.00203978
0.00205283
0.00208949
0.00210933
0.00214863
0.00216634
0.00220507
0.00222676
0.00226504
0.00228778
0.00232448
0.00235239
0.00238872
0.00241622
0.00245329
0.00248055
0.00252037
0.00256081
0.00260204
0.00263531
0.00267116
0.00269956
0.00273092
0.00276183
0.00279507
0.0028253
0.00284721
0.00285726
0.0028662
0.00287499
0.00288289
0.00289085
0.00289851
0.00290606
0.00291336
0.00292067
0.00292645
0.00293162
0.00293616
0.00293971
0.00294245
0.00294388
0.00294668
0.00295224
0.00295789
0.00296214
0.00296648
0.00297127
0.00297589
0.00298016
0.00298419
0.00298737
0.00299021
0.00299203
0.00299358
0.00299451
0.00299539
0.00299589
0.00299614
0.0029963
0.00299665
0.00299697
0.0029975
0.00299805
0.00299884
0.00299969
0.00300076
0.00300196
0.00300332
0.0030046
0.00300598
0.00300715
0.00300854
0.00300944
0.00301051
0.00301115
0.00301149
0.00301132
0.00301046
0.00300911
0.00300743
0.00300533
0.00300257
0.00300059
0.00299919
0.00299786
0.00299684
0.00299619
0.00299609
0.00299641
0.00299692
0.00299755
0.00299824
0.00299855
0.00299862
0.00299806
0.0029971
0.00299539
0.00299359
0.00299131
0.00298883
0.00298622
0.00298421
0.00298243
0.00298128
0.00298047
0.00298029
0.00298027
0.00298062
0.002981
0.00298146
0.00298159
0.00298121
0.00298037
0.00297893
0.00297714
0.00297515
0.00297293
0.00297095
0.00296894
0.00296781
0.00296664
0.00296612
0.00296586
0.00296638
0.00296673
0.0029675
0.00296781
0.00296804
0.00296816
0.0029671
0.0029658
0.00296427
0.00296279
0.00296103
0.00295966
0.00295829
0.00295775
0.00295722
0.00295734
0.00295744
0.00295822
0.00295889
0.00295975
0.00296052
0.00296055
0.00296025
0.00295981
0.00295907
0.00295815
0.0029573
0.00295646
0.00295578
0.00295555
0.00295561
0.0029559
0.00295658
0.00295741
0.00295854
0.00295967
0.00296085
2.65156e-06
2.63812e-05
3.26431e-05
4.36526e-05
6.73159e-05
0.000106246
0.000168824
0.000247877
0.000337315
0.00043151
0.000525532
0.000614803
0.000698356
0.000774529
0.000841231
0.000901171
0.000955313
0.00100438
0.00104896
0.00108975
0.00112723
0.00116245
0.00119528
0.00122662
0.0012563
0.00128505
0.00131215
0.00133869
0.00136327
0.00138731
0.0013637
0.00132993
0.00129918
0.00127379
0.00124616
0.0012257
0.00122417
0.00122579
0.00121647
0.00122455
0.00124927
0.00125408
0.00128164
0.00129036
0.00129477
0.00131757
0.00130864
0.0013406
0.00133146
0.00134371
0.00132905
0.00135268
0.00135442
0.00137249
0.00138412
0.00136564
0.00140418
0.00141057
0.00141033
0.00142007
0.00142646
0.00144765
0.00145553
0.00147499
0.00148639
0.00151319
0.00152227
0.00154909
0.00156109
0.00159256
0.00160572
0.00163155
0.0016587
0.00166762
0.00170514
0.0017118
0.00174813
0.00175961
0.0017915
0.00180916
0.00182631
0.00184843
0.00187125
0.0018967
0.00192034
0.00194588
0.00196479
0.00198665
0.00200678
0.00202753
0.00204847
0.00206877
0.00208943
0.0021099
0.00213483
0.0021615
0.00219547
0.00222452
0.0022544
0.00228228
0.00230878
0.00233701
0.00236957
0.00240302
0.00243708
0.00247059
0.00250306
0.00253527
0.00256729
0.00259857
0.00262312
0.00264116
0.0026586
0.00267495
0.00269091
0.00270447
0.00271745
0.00273008
0.00274235
0.00275367
0.00276376
0.00277403
0.00278584
0.0027978
0.0028084
0.00281834
0.00282842
0.00283842
0.00284811
0.00285762
0.00286628
0.00287462
0.00288177
0.00288865
0.00289485
0.00290103
0.00290677
0.00291197
0.00291694
0.00292198
0.00292686
0.00293185
0.00293673
0.00294174
0.00294673
0.00295174
0.0029568
0.00296191
0.00296695
0.00297204
0.00297696
0.00298201
0.00298655
0.00299105
0.00299513
0.00299894
0.00300217
0.00300487
0.00300721
0.00300915
0.00301064
0.0030116
0.00301294
0.00301482
0.00301679
0.00301892
0.00302131
0.00302408
0.0030273
0.00303058
0.00303402
0.00303744
0.00304057
0.00304342
0.00304561
0.00304751
0.00304867
0.00304973
0.00305035
0.00305073
0.00305087
0.00305158
0.00305244
0.00305378
0.00305547
0.00305772
0.00306011
0.00306278
0.00306546
0.0030682
0.00307067
0.00307263
0.00307418
0.0030751
0.00307568
0.00307607
0.00307618
0.00307648
0.00307674
0.00307778
0.0030788
0.00308036
0.00308217
0.00308467
0.00308707
0.0030898
0.00309209
0.00309425
0.00309641
0.00309741
0.00309811
0.0030985
0.00309897
0.00309915
0.00309969
0.00310018
0.00310149
0.00310275
0.00310466
0.00310652
0.00310903
0.00311141
0.00311393
0.00311644
0.00311823
0.00311955
0.00312081
0.00312173
0.00312244
0.0031232
0.00312397
0.00312488
0.00312622
0.00312784
0.00312965
0.00313187
0.00313418
0.00313682
0.00313939
0.00314276
2.93728e-06
3.29025e-05
4.09418e-05
6.05034e-05
9.2957e-05
0.000144346
0.000217088
0.000301829
0.000393927
0.000488637
0.000581332
0.000668691
0.000750707
0.000823837
0.000888446
0.000946473
0.000998528
0.0010451
0.00108665
0.00112386
0.0011571
0.00118739
0.00121466
0.00123992
0.00126292
0.0012847
0.00130443
0.00132341
0.00128835
0.0012479
0.00120352
0.00116517
0.00114044
0.00112441
0.00111032
0.00110095
0.00110926
0.00111736
0.0011138
0.00112203
0.00116941
0.00116793
0.00116667
0.00118727
0.00117522
0.00119956
0.00118102
0.00120707
0.00119498
0.00121676
0.00120882
0.00121403
0.00121308
0.00122271
0.00123836
0.00120977
0.00122372
0.00124427
0.0012287
0.00124828
0.00123772
0.00126763
0.00125668
0.00128051
0.00127342
0.00131583
0.0013129
0.00130529
0.00130452
0.00129895
0.0013003
0.00129942
0.00130375
0.00130673
0.00131064
0.00131742
0.00132255
0.00133238
0.0013423
0.00135606
0.00136661
0.0013804
0.00139487
0.00141211
0.00142879
0.00144896
0.00146874
0.00149181
0.00151498
0.00154018
0.00156644
0.00159442
0.00162294
0.00165358
0.0016846
0.0017175
0.00175249
0.00178709
0.00182209
0.0018564
0.0018903
0.00192386
0.00195889
0.00199408
0.00202908
0.00206345
0.00209734
0.00213024
0.00216283
0.00219415
0.002225
0.00225426
0.00228244
0.00230921
0.00233506
0.00235849
0.00238159
0.00240443
0.00242726
0.00244946
0.00247015
0.00249037
0.00251015
0.00252978
0.00254809
0.00256557
0.00258227
0.0025991
0.00261539
0.00263181
0.00264714
0.00266239
0.00267622
0.00268982
0.00270274
0.00271537
0.00272755
0.00273899
0.00274993
0.00276077
0.00277118
0.00278163
0.00279168
0.00280184
0.00281165
0.00282148
0.00283108
0.00284069
0.00285012
0.00285966
0.00286887
0.00287827
0.00288688
0.00289547
0.00290344
0.00291124
0.00291847
0.00292531
0.0029318
0.00293794
0.00294356
0.00294879
0.00295401
0.00295963
0.00296528
0.00297096
0.00297682
0.00298283
0.00298922
0.00299558
0.00300214
0.00300864
0.0030148
0.00302074
0.00302607
0.00303118
0.00303557
0.00303983
0.00304375
0.00304734
0.00305068
0.00305443
0.00305825
0.00306242
0.00306686
0.00307183
0.00307686
0.00308211
0.00308736
0.0030926
0.00309767
0.00310227
0.0031065
0.00311011
0.0031134
0.0031165
0.00311931
0.00312222
0.00312509
0.0031286
0.00313213
0.00313605
0.00314021
0.00314492
0.00314965
0.00315455
0.00315916
0.00316348
0.003168
0.00317137
0.00317442