/*--------------------------------*- C++ -*----------------------------------*\
| =========                 |                                                 |
| \\      /  F ield         | OpenFOAM: The Open Source CFD Toolbox           |
|  \\    /   O peration     | Version:  2312                                  |
|   \\  /    A nd           | Website:  www.openfoam.com                      |
|    \\/     M anipulation  |                                                 |
\*---------------------------------------------------------------------------*/
FoamFile
{
    version     2.0;
    format      ascii;
    arch        "LSB;label=32;scalar=64";
    class       volScalarField;
    location    "0.004";
    object      cSound;
}
// * * * * * * * * * * * * * * * * * * * * * * * * * * * * * * * * * * * * * //

dimensions      [0 1 -1 0 0 0 0];

internalField   nonuniform List<scalar> 
48128
(
378.323
378.383
378.231
378.151
378.187
378.184
378.22
378.282
378.242
377.987
376.903
375.939
375.328
374.801
374.368
373.548
372.835
372.154
371.515
370.926
370.398
369.896
369.416
368.973
368.574
368.224
367.932
367.714
367.571
367.495
367.474
367.549
367.702
367.927
368.213
368.56
368.966
369.423
369.898
370.419
370.965
371.515
372.06
372.599
373.118
373.604
374.057
374.472
374.841
375.167
375.42
375.638
375.78
375.874
375.885
375.843
375.727
375.548
375.308
375.013
374.666
374.272
373.837
373.362
372.846
372.287
371.695
371.079
370.431
369.769
369.072
368.36
367.633
366.881
366.132
365.354
364.591
363.818
363.043
362.293
361.539
360.818
360.086
359.378
358.663
357.988
357.308
356.669
356.034
355.43
354.828
354.26
353.702
353.163
352.626
352.094
351.565
351.064
350.599
350.175
349.781
349.398
349.014
348.64
348.281
347.939
347.619
347.318
347.032
346.761
346.509
346.274
346.062
345.867
345.688
345.52
345.339
345.145
344.937
344.694
344.332
344.353
344.263
344.059
344.078
344.04
343.984
343.918
343.842
343.757
343.666
343.574
343.48
343.388
343.295
343.2
343.11
343.036
342.973
342.916
342.864
342.821
342.784
342.754
342.726
342.713
342.713
342.717
342.721
342.727
342.733
342.742
342.755
342.77
342.78
342.79
342.787
342.78
342.765
342.748
342.724
342.71
342.72
342.727
342.74
342.767
342.802
342.848
342.898
342.951
342.998
343.044
343.078
343.113
343.127
343.143
343.143
343.143
343.134
343.132
343.138
343.151
343.17
343.204
343.245
343.288
343.336
343.387
343.438
343.483
343.519
343.54
343.565
343.568
343.575
343.573
343.579
343.589
343.607
343.631
343.661
343.699
343.744
343.793
343.84
343.886
343.925
343.957
343.996
343.995
344.003
344.013
344.019
344.029
344.046
344.069
344.097
344.132
344.171
344.212
344.259
344.299
344.342
344.378
344.396
344.417
344.438
344.446
344.459
344.475
344.494
344.517
344.545
344.578
344.614
344.653
344.694
344.734
344.771
344.816
378.095
378.201
378.077
377.992
378.041
378.102
378.239
378.398
378.134
377.34
376.018
374.818
373.774
372.569
371.298
370.274
369.373
368.579
367.902
367.332
366.864
366.466
366.12
365.84
365.631
365.497
365.44
365.432
365.529
365.703
365.954
366.293
366.695
367.165
367.683
368.248
368.847
369.485
370.135
370.789
371.45
372.093
372.702
373.272
373.788
374.247
374.639
374.966
375.218
375.406
375.493
375.508
375.42
375.266
375.021
374.703
374.289
373.797
373.226
372.587
371.883
371.124
370.316
369.461
368.56
367.614
366.634
365.626
364.582
363.539
362.473
361.411
360.348
359.269
358.203
357.115
356.05
354.989
353.936
352.909
351.902
350.921
349.944
348.988
348.047
347.139
346.246
345.39
344.555
343.745
342.951
342.188
341.444
340.72
340.002
339.291
338.584
337.906
337.268
336.672
336.111
335.564
335.02
334.488
333.973
333.477
333.004
332.553
332.12
331.704
331.309
330.935
330.587
330.259
329.95
329.659
329.359
329.046
328.72
328.358
327.864
327.761
327.558
327.241
327.146
327.01
326.86
326.703
326.541
326.372
326.2
326.027
325.853
325.681
325.508
325.333
325.161
325.006
324.862
324.727
324.598
324.479
324.37
324.269
324.176
324.094
324.019
323.951
323.882
323.816
323.748
323.686
323.628
323.575
323.52
323.462
323.398
323.329
323.252
323.174
323.091
323.002
322.955
322.903
322.849
322.824
322.796
322.793
322.79
322.794
322.798
322.799
322.798
322.793
322.779
322.763
322.739
322.713
322.678
322.644
322.62
322.606
322.593
322.599
322.612
322.629
322.653
322.682
322.713
322.742
322.764
322.775
322.79
322.786
322.784
322.774
322.772
322.774
322.781
322.794
322.814
322.84
322.876
322.917
322.959
323.002
323.041
323.075
323.122
323.124
323.134
323.149
323.157
323.17
323.187
323.211
323.24
323.275
323.315
323.359
323.409
323.457
323.506
323.556
323.585
323.616
323.65
323.669
323.692
323.717
323.745
323.777
323.813
323.853
323.898
323.946
323.998
324.05
324.101
324.171
377.976
378.09
378.015
377.955
378.034
378.161
378.367
378.164
377.127
375.561
374.076
372.795
371.719
370.919
370.226
369.545
368.965
368.464
368.016
367.638
367.347
367.099
366.897
366.752
366.665
366.637
366.675
366.785
366.976
367.237
367.566
367.963
368.412
368.915
369.451
370.018
370.603
371.205
371.804
372.386
372.954
373.488
373.971
374.395
374.746
375.026
375.218
375.336
375.355
375.299
375.133
374.887
374.524
374.086
373.556
372.946
372.235
371.452
370.591
369.67
368.688
367.662
366.594
365.487
364.343
363.16
361.96
360.74
359.5
358.272
357.03
355.807
354.589
353.369
352.168
350.955
349.776
348.609
347.459
346.34
345.255
344.195
343.15
342.127
341.133
340.17
339.232
338.33
337.454
336.604
335.772
334.974
334.196
333.439
332.689
331.95
331.215
330.513
329.85
329.227
328.638
328.062
327.49
326.932
326.391
325.87
325.37
324.893
324.431
323.988
323.565
323.162
322.785
322.427
322.087
321.766
321.435
321.094
320.739
320.354
319.854
319.711
319.472
319.148
319.005
318.83
318.645
318.455
318.263
318.067
317.868
317.67
317.473
317.277
317.081
316.883
316.69
316.511
316.343
316.183
316.028
315.884
315.75
315.623
315.504
315.398
315.3
315.209
315.117
315.028
314.938
314.854
314.775
314.699
314.623
314.544
314.46
314.371
314.276
314.178
314.077
313.97
313.901
313.829
313.754
313.707
313.657
313.633
313.608
313.593
313.577
313.56
313.541
313.519
313.49
313.459
313.423
313.383
313.338
313.292
313.254
313.228
313.199
313.195
313.195
313.2
313.211
313.228
313.247
313.266
313.28
313.284
313.289
313.283
313.275
313.262
313.254
313.25
313.253
313.261
313.275
313.295
313.325
313.361
313.398
313.436
313.472
313.505
313.548
313.553
313.564
313.58
313.589
313.602
313.62
313.643
313.672
313.707
313.746
313.79
313.839
313.888
313.938
313.99
314.023
314.059
314.097
314.12
314.148
314.177
314.209
314.245
314.284
314.328
314.376
314.428
314.483
314.539
314.595
314.673
377.91
378.028
378.042
378.009
378.123
378.29
378.088
377.073
375.326
373.727
372.546
371.708
371.103
370.66
370.279
369.815
369.404
369.049
368.741
368.483
368.299
368.142
368.024
367.953
367.93
367.968
368.07
368.237
368.47
368.767
369.118
369.526
369.976
370.471
370.987
371.519
372.053
372.586
373.101
373.579
374.023
374.418
374.744
374.996
375.155
375.228
375.189
375.064
374.817
374.487
374.034
373.492
372.822
372.069
371.229
370.302
369.274
368.185
367.022
365.812
364.548
363.258
361.937
360.592
359.222
357.824
356.431
355.027
353.63
352.259
350.89
349.56
348.238
346.934
345.651
344.376
343.144
341.932
340.746
339.599
338.5
337.422
336.369
335.346
334.361
333.411
332.49
331.608
330.754
329.925
329.116
328.341
327.588
326.857
326.135
325.424
324.719
324.051
323.418
322.824
322.261
321.709
321.162
320.63
320.113
319.617
319.141
318.684
318.242
317.819
317.414
317.027
316.666
316.319
315.994
315.681
315.36
315.031
314.685
314.315
313.85
313.7
313.468
313.178
313.012
312.835
312.65
312.461
312.27
312.076
311.879
311.684
311.49
311.296
311.103
310.908
310.719
310.542
310.374
310.214
310.06
309.915
309.779
309.65
309.528
309.418
309.317
309.223
309.128
309.036
308.943
308.858
308.775
308.697
308.617
308.535
308.448
308.357
308.261
308.161
308.059
307.952
307.878
307.803
307.725
307.673
307.618
307.588
307.556
307.534
307.512
307.489
307.465
307.437
307.405
307.369
307.328
307.286
307.237
307.189
307.147
307.118
307.084
307.075
307.07
307.072
307.079
307.09
307.104
307.118
307.128
307.129
307.131
307.123
307.115
307.1
307.091
307.085
307.087
307.093
307.105
307.123
307.15
307.183
307.218
307.254
307.288
307.321
307.361
307.368
307.38
307.396
307.407
307.422
307.44
307.464
307.493
307.528
307.568
307.611
307.66
307.71
307.761
307.813
307.849
307.887
307.927
307.954
307.984
308.017
308.051
308.089
308.131
308.178
308.228
308.282
308.339
308.398
308.457
308.539
377.871
377.999
378.134
378.136
378.231
378.022
377.101
375.369
373.76
372.652
371.917
371.438
371.129
370.84
370.589
370.283
370.015
369.777
369.569
369.394
369.281
369.187
369.126
369.104
369.132
369.217
369.357
369.558
369.815
370.128
370.487
370.893
371.328
371.797
372.276
372.752
373.211
373.65
374.053
374.394
374.678
374.896
375.021
375.052
374.963
374.773
374.444
374.011
373.428
372.748
371.932
371.016
369.961
368.817
367.594
366.287
364.877
363.434
361.916
360.378
358.799
357.223
355.638
354.052
352.465
350.858
349.294
347.73
346.206
344.727
343.264
341.869
340.487
339.146
337.833
336.543
335.314
334.112
332.943
331.826
330.769
329.731
328.73
327.764
326.844
325.957
325.101
324.284
323.498
322.734
321.992
321.281
320.597
319.934
319.283
318.644
318.008
317.413
316.847
316.315
315.812
315.319
314.832
314.359
313.9
313.46
313.037
312.632
312.238
311.864
311.505
311.163
310.843
310.535
310.249
309.969
309.681
309.389
309.076
308.748
308.344
308.202
307.998
307.765
307.59
307.436
307.273
307.103
306.933
306.76
306.585
306.409
306.234
306.059
305.885
305.708
305.539
305.379
305.226
305.082
304.942
304.811
304.686
304.57
304.458
304.359
304.267
304.181
304.095
304.012
303.928
303.851
303.777
303.705
303.633
303.558
303.479
303.396
303.308
303.217
303.123
303.024
302.955
302.887
302.817
302.769
302.717
302.69
302.661
302.64
302.62
302.599
302.577
302.551
302.521
302.488
302.45
302.41
302.365
302.32
302.281
302.253
302.222
302.213
302.209
302.211
302.218
302.23
302.243
302.257
302.267
302.269
302.272
302.265
302.258
302.246
302.238
302.234
302.237
302.244
302.257
302.276
302.303
302.336
302.371
302.407
302.441
302.475
302.514
302.524
302.538
302.555
302.569
302.586
302.607
302.633
302.664
302.7
302.74
302.785
302.835
302.886
302.939
302.991
303.03
303.07
303.111
303.142
303.175
303.211
303.248
303.289
303.334
303.383
303.435
303.492
303.551
303.612
303.674
303.76
377.851
378.037
378.214
378.176
378.028
377.259
375.648
374.024
372.898
372.201
371.774
371.518
371.326
371.152
371.004
370.816
370.65
370.496
370.36
370.248
370.19
370.146
370.131
370.156
370.225
370.346
370.516
370.74
371.011
371.331
371.686
372.075
372.479
372.9
373.316
373.709
374.056
374.362
374.607
374.765
374.83
374.795
374.643
374.372
373.946
373.394
372.664
371.802
370.758
369.593
368.284
366.862
365.294
363.642
361.9
360.136
358.248
356.368
354.429
352.487
350.57
348.66
346.82
344.992
343.211
341.407
339.708
338.025
336.421
334.888
333.386
331.996
330.621
329.318
328.053
326.827
325.683
324.572
323.504
322.501
321.572
320.657
319.784
318.943
318.153
317.389
316.659
315.965
315.301
314.655
314.032
313.436
312.87
312.321
311.785
311.257
310.73
310.244
309.776
309.341
308.93
308.528
308.133
307.751
307.379
307.023
306.68
306.352
306.033
305.734
305.444
305.171
304.914
304.668
304.44
304.212
303.98
303.745
303.487
303.221
302.901
302.775
302.621
302.457
302.299
302.183
302.057
301.922
301.789
301.651
301.512
301.371
301.229
301.087
300.945
300.8
300.665
300.534
300.409
300.291
300.178
300.072
299.972
299.879
299.788
299.71
299.637
299.569
299.503
299.437
299.371
299.312
299.255
299.199
299.142
299.082
299.019
298.95
298.88
298.804
298.727
298.644
298.586
298.533
298.478
298.44
298.399
298.38
298.361
298.348
298.336
298.323
298.308
298.291
298.269
298.243
298.213
298.182
298.146
298.109
298.078
298.057
298.035
298.031
298.032
298.038
298.049
298.065
298.082
298.099
298.114
298.12
298.13
298.124
298.125
298.116
298.114
298.115
298.122
298.132
298.149
298.171
298.201
298.237
298.274
298.313
298.349
298.386
298.425
298.441
298.459
298.479
298.497
298.518
298.543
298.572
298.606
298.645
298.688
298.735
298.788
298.841
298.896
298.95
298.992
299.035
299.08
299.114
299.151
299.19
299.231
299.276
299.323
299.375
299.431
299.49
299.552
299.616
299.681
299.771
377.86
378.063
378.215
377.995
377.453
376.102
374.425
373.231
372.5
372.086
371.849
371.702
371.61
371.524
371.445
371.341
371.246
371.156
371.08
371.022
371.009
371.012
371.037
371.101
371.203
371.351
371.542
371.778
372.052
372.364
372.698
373.048
373.395
373.736
374.05
374.318
374.506
374.616
374.628
374.512
374.263
373.865
373.308
372.595
371.672
370.572
369.251
367.752
366.035
364.163
362.151
360.041
357.771
355.467
353.008
350.773
348.335
345.886
343.525
341.097
338.864
336.573
334.532
332.466
330.549
328.578
326.802
325.057
323.449
321.953
320.513
319.24
317.976
316.83
315.719
314.675
313.726
312.82
311.964
311.185
310.488
309.801
309.149
308.524
307.95
307.391
306.869
306.375
305.91
305.456
305.023
304.608
304.215
303.831
303.462
303.088
302.716
302.376
302.048
301.747
301.464
301.186
300.913
300.651
300.392
300.146
299.907
299.681
299.461
299.259
299.06
298.876
298.703
298.539
298.385
298.23
298.069
297.913
297.728
297.541
297.324
297.219
297.14
297.049
296.939
296.866
296.788
296.702
296.618
296.527
296.438
296.343
296.248
296.15
296.053
295.953
295.861
295.771
295.683
295.603
295.527
295.456
295.389
295.329
295.27
295.222
295.177
295.136
295.096
295.057
295.017
294.984
294.951
294.917
294.883
294.846
294.806
294.758
294.712
294.659
294.604
294.546
294.506
294.473
294.438
294.417
294.394
294.389
294.384
294.385
294.387
294.386
294.386
294.382
294.371
294.361
294.342
294.326
294.303
294.279
294.262
294.252
294.243
294.247
294.257
294.272
294.292
294.315
294.34
294.365
294.387
294.401
294.421
294.421
294.431
294.431
294.436
294.445
294.459
294.477
294.5
294.528
294.564
294.605
294.647
294.691
294.731
294.774
294.815
294.841
294.864
294.889
294.913
294.94
294.97
295.004
295.043
295.086
295.134
295.185
295.241
295.298
295.357
295.414
295.462
295.509
295.557
295.596
295.638
295.682
295.727
295.776
295.828
295.884
295.943
296.006
296.072
296.139
296.207
296.302
377.891
377.995
378.054
377.574
376.554
374.953
373.656
372.834
372.373
372.139
372.01
371.944
371.922
371.898
371.874
371.829
371.787
371.751
371.725
371.713
371.736
371.778
371.837
371.931
372.057
372.222
372.42
372.655
372.914
373.196
373.482
373.762
374.011
374.227
374.382
374.457
374.395
374.214
373.863
373.318
372.572
371.595
370.415
369.021
367.361
365.449
363.285
360.909
358.291
355.515
352.56
349.686
346.593
343.575
340.295
337.64
334.682
331.574
328.886
325.991
323.517
320.891
318.743
316.502
314.542
312.505
310.733
309.02
307.504
306.121
304.835
303.749
302.686
301.786
300.91
300.144
299.462
298.853
298.282
297.821
297.405
297.037
296.664
296.371
296.077
295.833
295.584
295.39
295.185
295.014
294.833
294.681
294.513
294.366
294.211
294.052
293.882
293.75
293.606
293.481
293.358
293.236
293.113
293.001
292.882
292.772
292.664
292.563
292.463
292.379
292.29
292.215
292.143
292.077
292.016
291.95
291.874
291.811
291.713
291.628
291.522
291.463
291.465
291.447
291.411
291.389
291.369
291.341
291.316
291.285
291.257
291.219
291.181
291.138
291.096
291.048
291.011
290.97
290.93
290.897
290.865
290.837
290.812
290.793
290.774
290.763
290.754
290.747
290.74
290.736
290.728
290.729
290.725
290.723
290.717
290.708
290.697
290.674
290.663
290.636
290.612
290.584
290.567
290.559
290.55
290.551
290.552
290.564
290.58
290.599
290.618
290.637
290.654
290.668
290.673
290.685
290.679
290.685
290.678
290.673
290.673
290.679
290.685
290.702
290.725
290.753
290.785
290.82
290.856
290.891
290.924
290.95
290.982
290.994
291.014
291.026
291.043
291.063
291.087
291.115
291.147
291.183
291.227
291.276
291.326
291.377
291.424
291.474
291.52
291.558
291.588
291.62
291.653
291.687
291.725
291.766
291.811
291.861
291.915
291.972
292.033
292.095
292.159
292.221
292.276
292.327
292.38
292.427
292.475
292.524
292.575
292.63
292.687
292.748
292.812
292.88
292.95
293.021
293.094
293.195
377.914
377.819
377.734
376.937
375.565
374.185
373.23
372.674
372.404
372.267
372.215
372.207
372.234
372.252
372.265
372.268
372.271
372.276
372.289
372.315
372.368
372.438
372.523
372.635
372.772
372.94
373.13
373.342
373.56
373.781
373.979
374.145
374.238
374.256
374.147
373.905
373.434
372.77
371.818
370.591
369.079
367.24
365.217
362.87
360.215
357.24
353.994
350.626
346.975
343.247
339.213
335.682
331.821
328.222
324.207
321.199
317.875
314.222
311.303
308.069
305.542
302.761
300.655
298.418
296.549
294.636
292.987
291.467
290.155
288.999
287.996
287.134
286.387
285.725
285.148
284.666
284.246
283.97
283.616
283.51
283.311
283.297
283.133
283.223
283.138
283.267
283.241
283.406
283.419
283.581
283.637
283.801
283.861
284.018
284.074
284.204
284.276
284.403
284.471
284.566
284.627
284.697
284.749
284.82
284.87
284.923
284.966
285.012
285.051
285.102
285.141
285.19
285.237
285.283
285.337
285.363
285.387
285.421
285.43
285.47
285.466
285.495
285.561
285.633
285.675
285.72
285.761
285.806
285.844
285.887
285.923
285.956
285.978
286
286.021
286.036
286.061
286.075
286.091
286.111
286.131
286.154
286.178
286.206
286.234
286.266
286.298
286.332
286.364
286.401
286.432
286.471
286.502
286.537
286.564
286.591
286.611
286.623
286.649
286.653
286.668
286.672
286.685
286.706
286.728
286.755
286.783
286.819
286.859
286.9
286.942
286.983
287.021
287.058
287.085
287.119
287.135
287.161
287.177
287.195
287.215
287.241
287.267
287.3
287.339
287.384
287.431
287.48
287.53
287.58
287.627
287.667
287.713
287.741
287.774
287.802
287.833
287.866
287.903
287.944
287.988
288.036
288.09
288.149
288.208
288.269
288.325
288.384
288.438
288.491
288.529
288.57
288.613
288.658
288.704
288.754
288.808
288.866
288.928
288.992
289.06
289.129
289.2
289.268
289.332
289.389
289.448
289.504
289.558
289.615
289.673
289.734
289.798
289.865
289.935
290.008
290.084
290.16
290.238
290.348
377.928
377.597
377.291
376.2
374.819
373.723
373.033
372.679
372.501
372.436
372.432
372.471
372.526
372.574
372.618
372.655
372.69
372.728
372.772
372.826
372.899
372.987
373.085
373.202
373.335
373.487
373.644
373.804
373.944
374.06
374.111
374.086
373.911
373.593
373.031
372.249
371.127
369.705
367.855
365.647
363.119
360.168
357.164
353.624
349.761
345.688
341.233
336.986
332.325
327.817
322.75
318.807
314.304
310.399
306.06
302.665
299.351
295.63
292.739
289.548
287.189
284.607
282.674
280.756
279.095
277.562
276.149
275.029
273.987
273.203
272.505
271.901
271.536
271.015
270.814
270.502
270.351
270.344
270.11
270.332
270.218
270.478
270.464
270.782
270.835
271.184
271.315
271.676
271.864
272.214
272.464
272.812
273.068
273.408
273.664
273.996
274.293
274.627
274.902
275.199
275.455
275.718
275.964
276.224
276.461
276.693
276.904
277.111
277.305
277.505
277.687
277.872
278.045
278.215
278.382
278.516
278.652
278.784
278.918
279.071
279.191
279.312
279.46
279.62
279.744
279.864
279.978
280.097
280.208
280.327
280.436
280.543
280.635
280.727
280.816
280.901
280.993
281.069
281.147
281.226
281.304
281.382
281.461
281.541
281.62
281.702
281.779
281.859
281.936
282.016
282.093
282.174
282.245
282.319
282.385
282.45
282.509
282.562
282.625
282.669
282.722
282.765
282.813
282.867
282.922
282.981
283.039
283.103
283.17
283.237
283.305
283.372
283.435
283.497
283.55
283.609
283.652
283.701
283.743
283.787
283.831
283.88
283.928
283.981
284.04
284.103
284.169
284.236
284.302
284.368
284.431
284.489
284.552
284.598
284.648
284.693
284.741
284.791
284.844
284.899
284.958
285.019
285.085
285.156
285.228
285.3
285.368
285.437
285.502
285.57
285.62
285.672
285.727
285.783
285.841
285.902
285.966
286.034
286.105
286.178
286.255
286.332
286.41
286.486
286.561
286.625
286.692
286.758
286.821
286.885
286.952
287.021
287.092
287.167
287.244
287.324
287.406
287.489
287.573
287.692
377.883
377.343
376.791
375.528
374.335
373.483
372.998
372.741
372.638
372.616
372.65
372.717
372.791
372.861
372.925
372.986
373.046
373.106
373.17
373.241
373.325
373.417
373.514
373.62
373.729
373.838
373.93
373.998
374.005
373.94
373.729
373.365
372.729
371.848
370.577
368.966
366.921
364.445
361.429
357.968
354.388
350.225
346.018
341.286
336.161
331.204
325.564
320.729
315.184
310.281
304.611
300.525
295.795
292.01
287.909
284.257
281.317
278.03
275.295
272.687
270.504
268.62
266.89
265.551
264.136
263.253
262.095
261.561
260.707
260.429
259.907
259.643
259.57
259.144
259.317
259.007
259.185
259.184
259.196
259.545
259.432
259.836
259.887
260.307
260.405
260.837
261.025
261.45
261.707
262.126
262.437
262.862
263.178
263.603
263.953
264.38
264.788
265.229
265.625
266.039
266.418
266.812
267.196
267.597
267.979
268.358
268.717
269.073
269.413
269.756
270.075
270.393
270.69
270.982
271.255
271.5
271.745
271.988
272.243
272.51
272.756
272.973
273.206
273.452
273.664
273.86
274.053
274.25
274.439
274.635
274.819
275.005
275.169
275.339
275.498
275.657
275.819
275.962
276.105
276.247
276.386
276.524
276.66
276.797
276.931
277.064
277.192
277.321
277.445
277.573
277.698
277.825
277.94
278.057
278.165
278.271
278.372
278.469
278.572
278.661
278.755
278.84
278.927
279.018
279.11
279.203
279.294
279.389
279.485
279.582
279.678
279.774
279.865
279.953
280.036
280.122
280.194
280.27
280.342
280.414
280.485
280.559
280.632
280.709
280.79
280.874
280.961
281.047
281.132
281.217
281.299
281.377
281.458
281.524
281.593
281.659
281.727
281.795
281.866
281.938
282.013
282.09
282.171
282.256
282.341
282.427
282.507
282.59
282.667
282.751
282.814
282.881
282.949
283.019
283.09
283.163
283.239
283.318
283.399
283.484
283.57
283.656
283.744
283.83
283.916
283.99
284.066
284.143
284.215
284.289
284.365
284.443
284.523
284.606
284.692
284.78
284.869
284.959
285.051
285.18
377.816
377.086
376.293
375.07
374.064
373.4
373.015
372.843
372.788
372.798
372.857
372.94
373.026
373.108
373.186
373.262
373.335
373.409
373.483
373.56
373.641
373.725
373.803
373.876
373.931
373.964
373.941
373.851
373.616
373.228
372.56
371.631
370.284
368.567
366.314
363.585
360.376
356.652
352.365
347.504
343.024
337.658
331.965
326.432
320.179
314.633
308.146
303.085
297.147
292.395
286.761
282.807
278.189
274.8
271.201
267.967
265.211
262.948
260.408
258.74
256.821
255.79
254.272
253.757
252.429
252.446
251.414
251.614
250.835
251.157
250.632
250.916
250.764
250.864
251.041
250.885
251.313
251.108
251.517
251.86
251.725
252.202
252.211
252.65
252.712
253.158
253.288
253.705
253.895
254.306
254.534
254.942
255.2
255.607
255.912
256.327
256.712
257.142
257.537
257.956
258.346
258.764
259.181
259.623
260.055
260.494
260.922
261.354
261.779
262.205
262.617
263.027
263.422
263.805
264.165
264.502
264.84
265.186
265.546
265.919
266.275
266.592
266.899
267.221
267.518
267.79
268.059
268.332
268.598
268.87
269.127
269.392
269.63
269.875
270.106
270.339
270.574
270.784
270.995
271.201
271.402
271.601
271.797
271.992
272.181
272.369
272.548
272.728
272.903
273.081
273.255
273.431
273.591
273.754
273.906
274.055
274.201
274.343
274.489
274.624
274.762
274.893
275.021
275.151
275.281
275.412
275.538
275.666
275.793
275.922
276.048
276.174
276.295
276.414
276.527
276.643
276.746
276.852
276.956
277.059
277.159
277.26
277.36
277.462
277.567
277.675
277.784
277.892
277.997
278.102
278.206
278.305
278.407
278.495
278.586
278.674
278.763
278.852
278.942
279.033
279.127
279.221
279.318
279.418
279.519
279.62
279.714
279.811
279.904
280.003
280.083
280.165
280.249
280.333
280.419
280.506
280.595
280.686
280.78
280.876
280.974
281.071
281.169
281.265
281.364
281.448
281.535
281.624
281.707
281.792
281.879
281.967
282.057
282.15
282.244
282.341
282.439
282.538
282.637
282.779
377.667
376.821
375.851
374.729
373.883
373.362
373.077
372.961
372.939
372.97
373.045
373.136
373.228
373.316
373.4
373.481
373.559
373.635
373.709
373.78
373.846
373.903
373.94
373.952
373.913
373.815
373.582
373.204
372.545
371.619
370.25
368.489
366.181
363.358
359.898
355.826
351.292
346.436
340.956
334.727
329.299
322.95
315.809
309.912
302.93
297.317
290.634
285.723
279.826
275.596
270.404
266.864
262.716
259.858
256.803
254.474
252.025
250.835
248.539
248.014
246.377
246.277
244.96
245.293
244.213
244.908
244.112
244.858
244.276
245.043
244.628
245.372
245.064
245.809
245.709
246.145
246.585
246.423
246.983
247.193
247.209
247.763
247.684
248.176
248.182
248.636
248.668
249.062
249.134
249.496
249.58
249.923
250.022
250.348
250.515
250.833
251.072
251.396
251.651
251.964
252.23
252.551
252.872
253.23
253.582
253.957
254.339
254.732
255.132
255.538
255.949
256.363
256.773
257.17
257.559
257.931
258.31
258.712
259.132
259.567
259.997
260.391
260.75
261.121
261.479
261.814
262.145
262.482
262.81
263.147
263.47
263.803
264.108
264.423
264.721
265.021
265.323
265.597
265.872
266.139
266.402
266.659
266.914
267.164
267.41
267.65
267.88
268.111
268.337
268.565
268.789
269.014
269.219
269.429
269.624
269.818
270.009
270.198
270.388
270.569
270.753
270.931
271.1
271.271
271.44
271.61
271.773
271.936
272.096
272.256
272.415
272.572
272.724
272.874
273.019
273.167
273.302
273.441
273.576
273.713
273.843
273.973
274.103
274.231
274.361
274.494
274.627
274.758
274.885
275.012
275.138
275.26
275.385
275.496
275.61
275.723
275.834
275.945
276.056
276.167
276.281
276.394
276.509
276.625
276.742
276.859
276.97
277.083
277.193
277.308
277.406
277.505
277.605
277.706
277.807
277.909
278.013
278.118
278.226
278.335
278.444
278.554
278.662
278.771
278.882
278.979
279.078
279.18
279.275
279.372
279.47
279.57
279.671
279.774
279.879
279.985
280.093
280.2
280.308
280.463
377.479
376.533
375.488
374.497
373.798
373.373
373.161
373.086
373.083
373.129
373.211
373.304
373.395
373.482
373.565
373.644
373.719
373.788
373.85
373.902
373.936
373.944
373.907
373.816
373.607
373.268
372.664
371.798
370.484
368.765
366.455
363.605
360.12
356.009
351.269
345.827
339.884
334.145
327.675
320.397
313.598
306.812
298.983
293.028
285.84
280.506
274.104
269.652
264.196
260.617
256.008
253.222
249.71
247.68
245.107
243.856
241.927
241.374
239.668
240.128
238.913
239.513
238.524
239.477
238.705
239.853
239.295
240.497
240.142
241.31
241.008
242.103
241.864
242.918
242.731
243.573
243.856
244.075
244.725
244.571
245.076
245.649
245.514
246.073
246.067
246.536
246.515
246.926
246.937
247.289
247.281
247.591
247.582
247.867
247.915
248.171
248.258
248.489
248.578
248.779
248.883
249.069
249.217
249.425
249.598
249.817
250.04
250.28
250.532
250.797
251.079
251.369
251.663
251.963
252.26
252.551
252.874
253.232
253.618
254.026
254.449
254.839
255.205
255.568
255.933
256.289
256.641
257
257.354
257.722
258.08
258.451
258.8
259.159
259.504
259.853
260.202
260.527
260.853
261.169
261.483
261.79
262.095
262.394
262.689
262.975
263.254
263.53
263.803
264.077
264.347
264.617
264.866
265.12
265.356
265.594
265.829
266.062
266.295
266.521
266.75
266.975
267.186
267.398
267.606
267.813
268.014
268.211
268.403
268.597
268.787
268.976
269.16
269.342
269.519
269.699
269.868
270.039
270.208
270.378
270.54
270.7
270.859
271.015
271.172
271.33
271.487
271.642
271.792
271.942
272.091
272.237
272.385
272.521
272.659
272.797
272.932
273.066
273.199
273.332
273.466
273.6
273.733
273.867
274.001
274.135
274.264
274.393
274.521
274.652
274.771
274.887
275.005
275.123
275.241
275.36
275.478
275.599
275.72
275.844
275.966
276.088
276.209
276.331
276.456
276.566
276.678
276.793
276.902
277.011
277.122
277.234
277.347
277.461
277.577
277.694
277.812
277.929
278.047
278.216
377.312
376.252
375.216
374.338
373.749
373.407
373.25
373.206
373.216
373.271
373.355
373.444
373.529
373.61
373.685
373.754
373.816
373.869
373.906
373.922
373.901
373.828
373.663
373.383
372.869
372.112
370.923
369.327
367.127
364.381
360.929
356.785
351.997
346.639
340.649
334.029
326.635
320.195
312.868
305.219
296.79
290.266
282.412
276.582
269.653
264.865
259.203
255.365
250.713
247.781
243.994
242.118
239.257
238.142
235.99
235.675
234.371
233.507
233.876
234.043
233.847
234.917
234.213
235.676
235.154
236.701
236.358
237.96
237.685
239.176
238.918
240.249
240.06
241.293
241.15
242.252
242.136
242.915
243.617
243.432
244.114
244.611
244.525
245.157
245.136
245.655
245.634
246.11
246.1
246.491
246.448
246.78
246.735
247.03
247.027
247.276
247.3
247.514
247.518
247.69
247.708
247.84
247.886
248.012
248.06
248.182
248.278
248.395
248.511
248.634
248.766
248.903
249.03
249.17
249.283
249.404
249.572
249.778
250.013
250.273
250.556
250.837
251.084
251.345
251.618
251.898
252.184
252.486
252.79
253.119
253.441
253.785
254.12
254.469
254.814
255.165
255.516
255.856
256.195
256.529
256.863
257.193
257.525
257.85
258.173
258.488
258.8
259.107
259.415
259.722
260.026
260.332
260.616
260.905
261.175
261.45
261.723
261.994
262.267
262.533
262.802
263.069
263.32
263.569
263.813
264.054
264.29
264.52
264.744
264.968
265.188
265.409
265.622
265.836
266.044
266.255
266.457
266.661
266.863
267.065
267.259
267.449
267.638
267.822
268.005
268.189
268.37
268.547
268.722
268.894
269.067
269.237
269.409
269.57
269.733
269.897
270.056
270.214
270.37
270.524
270.68
270.834
270.988
271.139
271.29
271.442
271.589
271.735
271.882
272.03
272.17
272.305
272.441
272.578
272.713
272.849
272.983
273.12
273.256
273.395
273.53
273.666
273.8
273.936
274.074
274.198
274.325
274.454
274.577
274.7
274.824
274.948
275.074
275.2
275.327
275.456
275.584
275.711
275.84
276.024
377.133
376.004
375.004
374.226
373.732
373.457
373.341
373.315
373.337
373.395
373.476
373.557
373.632
373.701
373.762
373.814
373.854
373.878
373.874
373.832
373.72
373.504
373.105
372.49
371.479
370.082
368.085
365.534
362.257
358.306
353.594
348.092
341.922
335.552
328.35
320.841
312.143
305.053
296.757
289.136
280.291
273.967
266.592
261.229
255.274
251.089
246.544
243.251
239.607
237.024
234.439
233.133
231.105
230.817
229.395
230.033
229.123
229.66
230.124
229.791
231.069
231.751
231.288
233.083
232.622
234.544
234.227
236.147
235.897
237.653
237.421
239.044
238.893
240.303
240.178
241.463
241.391
242.394
242.871
242.948
243.774
244.025
244.209
244.907
244.844
245.433
245.422
245.938
245.901
246.325
246.262