/*--------------------------------*- C++ -*----------------------------------*\
| =========                 |                                                 |
| \\      /  F ield         | OpenFOAM: The Open Source CFD Toolbox           |
|  \\    /   O peration     | Version:  2312                                  |
|   \\  /    A nd           | Website:  www.openfoam.com                      |
|    \\/     M anipulation  |                                                 |
\*---------------------------------------------------------------------------*/
FoamFile
{
    version     2.0;
    format      ascii;
    arch        "LSB;label=32;scalar=64";
    class       volScalarField;
    location    "0.004";
    object      k;
}
// * * * * * * * * * * * * * * * * * * * * * * * * * * * * * * * * * * * * * //

dimensions      [0 2 -2 0 0 0 0];

internalField   nonuniform List<scalar> 
48128
(
7.22408
9.36216
12.5794
12.8165
11.8461
10.3166
8.56367
6.8897
5.32695
3.71306
8.55064
54.2053
181.205
339.053
479.845
601.662
707.439
801.292
886.921
966.681
1042.39
1115.49
1186.61
1255.94
1323.87
1390.6
1456.42
1521.71
1586.98
1653.1
1719.07
1784.88
1851.28
1917.98
1985
2054.27
2126.74
2202.85
2277.28
2353.66
2428.82
2499.99
2570.31
2642.12
2713.78
2780.89
2840.33
2899.64
2949.35
2990.45
3011.89
3040.82
3054.14
3070.12
3059.01
3099.81
3160.62
3209.37
3251.85
3280.15
3300.55
3310.2
3311.38
3308.13
3301.04
3291.37
3277.66
3260.35
3238.46
3209.34
3177.5
3142.36
3108.4
3073.23
3037.79
3002.62
2966.03
2930.33
2893.77
2857.69
2820.51
2785.43
2749.85
2716.84
2683.3
2651.99
2620.24
2590.54
2560.53
2532.72
2505.08
2479.21
2453.86
2430.06
2407.13
2385.61
2365.1
2345.86
2327.71
2310.27
2293.49
2277.44
2262.17
2247.59
2234.05
2221.18
2209.25
2197.75
2187.07
2176.81
2167.3
2158.18
2149.68
2141.4
2133.62
2125.97
2118.72
2111.22
2104.41
2096.21
2094.68
2091.27
2085.39
2081.7
2077.25
2072.24
2067.08
2062.25
2057.39
2052.89
2048.57
2044.77
2041.25
2038.05
2035.07
2032.24
2029.89
2027.73
2025.67
2023.62
2021.67
2019.74
2017.83
2015.89
2014.08
2012.12
2009.96
2007.56
2004.96
2002.22
1999.41
1996.63
1993.83
1991.04
1988.24
1985.46
1982.76
1980.03
1977.54
1975.48
1973.36
1972.04
1970.69
1969.22
1967.75
1966.17
1964.47
1962.56
1960.44
1958.1
1955.63
1953.03
1950.51
1947.92
1945.62
1943.36
1941.47
1939.8
1938.3
1937.14
1936.13
1935.07
1933.99
1932.81
1931.4
1929.8
1928.02
1926.06
1923.95
1921.76
1919.45
1917.46
1915.39
1913.77
1912.3
1911.16
1910.19
1909.23
1908.26
1907.22
1906.07
1904.76
1903.28
1901.59
1899.74
1897.78
1895.75
1893.87
1891.74
1890
1888.81
1887.61
1886.59
1885.67
1884.72
1883.7
1882.6
1881.33
1879.9
1878.33
1876.61
1874.81
1872.96
1870.96
1869.2
1867.71
1866.15
1864.92
1863.85
1862.78
1861.68
1860.54
1859.33
1858
1856.54
1854.97
1853.29
1851.55
1849.75
1847.16
19.5881
9.83603
5.49273
3.83325
2.97502
2.53684
2.78322
5.12919
13.3293
32.8261
82.4435
181.144
333.268
515.461
692.396
867.015
1037.87
1205.51
1372.48
1540.56
1713.39
1891.7
2079.56
2274.88
2481.1
2696.7
2923.61
3161.94
3405.62
3665.59
3934.56
4208.83
4492.66
4781.28
5070.74
5363.52
5654.46
5953.67
6248.31
6543.06
6835.33
7114.24
7380.41
7634.11
7866.92
8086.87
8286.26
8484.54
8664.61
8831.96
8947.44
9068.09
9154.7
9237.88
9259.29
9275.1
9279.9
9257.06
9210.79
9137.97
9044.42
8930.8
8801.31
8660.6
8512.3
8359.61
8200.6
8036.69
7867.79
7696.1
7526.13
7351.73
7180.78
7007.62
6837.03
6668.17
6500.09
6334.61
6172.07
6013.28
5856.11
5704.7
5557.03
5415.17
5276.2
5142.51
5012.01
4886.82
4765.09
4648.72
4536.41
4428.8
4325.58
4226.49
4131.49
4039.5
3951.01
3865.94
3784.94
3707.7
3634.59
3564.85
3498.17
3433.76
3372.57
3313.63
3257.95
3204.36
3153.87
3105.29
3059.6
3015.86
2974.93
2935.74
2899.26
2864.02
2830.96
2797.46
2765.25
2732.57
2700.06
2674.7
2648.41
2621.03
2598.85
2578.09
2558.18
2539.7
2521.49
2503.76
2486
2468.8
2451.77
2435.34
2418.95
2403.16
2387.52
2372.91
2358.72
2345.53
2332.73
2320.84
2309.42
2298.72
2288.7
2278.96
2269.29
2260.01
2250.82
2242.04
2233.31
2225.06
2216.99
2209.44
2201.94
2194.69
2187.42
2180.04
2172.68
2165.29
2158.06
2150.76
2144.54
2138.19
2132.71
2127.23
2122.59
2118.19
2114.24
2110.67
2107.22
2103.99
2100.72
2097.46
2094
2090.35
2086.52
2082.54
2078.42
2074.17
2070.33
2066.48
2063.1
2060.1
2057.42
2054.98
2052.82
2050.9
2049.21
2047.49
2045.65
2043.61
2041.41
2038.96
2036.3
2033.5
2030.65
2027.88
2025.22
2022.83
2020.68
2018.77
2017.22
2015.92
2014.76
2013.62
2012.42
2011.13
2009.6
2007.72
2005.73
2003.61
2001.38
1999.12
1996.96
1994.89
1993.16
1991.54
1990.19
1988.94
1987.97
1987
1986.07
1984.96
1983.6
1982.11
1980.45
1978.65
1976.8
1974.92
1973.05
1971.28
1969.67
1968.27
1966.97
1965.88
1964.85
1963.95
1962.98
1961.35
26.1621
13.7766
8.54833
5.18457
3.59753
4.36789
10.8828
31.8189
75.3814
150.384
277.878
479.521
745.379
1067.07
1386.04
1693.9
1985.77
2264.41
2533.93
2799.15
3064.66
3332.06
3609.14
3893.31
4188.83
4494.85
4813.12
5144.6
5484.79
5836.96
6198.61
6568.43
6947.89
7334.49
7722.5
8115.87
8512.47
8916.98
9313.85
9704.26
10092.8
10465.3
10814.4
11143.9
11440.5
11717.3
11959.1
12193.3
12399.9
12592.4
12715.7
12827.6
12899.1
12952.6
12940.4
12903.4
12842.6
12746.3
12620.9
12465
12285
12082.1
11860.9
11626.2
11382.3
11133.9
10879.4
10621.7
10360
10092.7
9827.39
9557.91
9295.91
9033.02
8777.72
8525.68
8279.69
8037.57
7803.07
7574.68
7351.68
7136.44
6927.91
6727.16
6531.77
6343.72
6161.43
5986.62
5817.38
5655.71
5499.88
5350.94
5207.85
5070.69
4938.82
4811.15
4688.4
4570.16
4457.34
4349.46
4246.9
4148.76
4054.7
3963.8
3877.07
3793.39
3713.86
3637.13
3564.38
3494.2
3427.63
3363.72
3303.19
3245.14
3190.38
3137.32
3087.56
3037.36
2989.35
2941.54
2893.33
2853.32
2812.66
2770.82
2734.63
2700.78
2668.09
2637.22
2607.1
2578.03
2549.31
2521.58
2494.32
2468.02
2442.03
2416.86
2392.13
2368.42
2345.44
2323.52
2302.28
2282.01
2262.48
2243.86
2225.99
2209.08
2192.73
2177.14
2161.92
2147.27
2132.92
2119.08
2105.61
2092.73
2080.12
2067.86
2055.78
2043.62
2031.62
2019.62
2007.86
1996.01
1985.23
1974.65
1964.51
1954.86
1945.88
1937.44
1929.58
1922.15
1915.1
1908.31
1901.71
1895.3
1888.82
1882.33
1875.78
1869.19
1862.54
1855.84
1849.41
1843.21
1837.29
1831.8
1826.7
1821.92
1817.44
1813.37
1809.54
1805.96
1802.34
1798.65
1794.93
1791.03
1787.02
1782.92
1778.78
1774.77
1770.84
1767.12
1763.68
1760.42
1757.57
1755.01
1752.66
1750.47
1748.34
1746.17
1744.02
1741.53
1738.94
1736.29
1733.52
1730.7
1727.97
1725.29
1722.91
1720.63
1718.64
1716.75
1715.22
1713.72
1712.38
1711.01
1709.43
1707.76
1706.01
1704.12
1702.16
1700.18
1698.16
1696.26
1694.43
1692.82
1691.28
1689.99
1688.76
1687.75
1686.71
1685.18
31.0867
18.0793
12.547
7.7418
8.04771
18.5269
48.4096
108.433
205.282
361.603
604.355
943.641
1345.55
1765.39
2156.72
2521.26
2861.16
3186.06
3501.97
3814.17
4127.75
4446.08
4775.09
5114.75
5468.57
5836.94
6220.08
6618.68
7031.36
7458.62
7898.69
8350.95
8813.69
9289.53
9768.73
10251.1
10735.3
11229.4
11714.4
12181.3
12645.2
13092.8
13504.8
13889.9
14227.6
14537.6
14798.9
15041.9
15246.9
15430.2
15536.4
15610.8
15638.8
15631.8
15564.6
15452.8
15307.3
15123.5
14909
14664
14395.6
14106.1
13799.7
13480.5
13153
12823
12489.8
12157.7
11825.1
11489.5
11160.3
10829.3
10509.1
10190.3
9882.73
9579.49
9287.39
9000.01
8724.18
8455.99
8196.86
7946.33
7704.73
7471.53
7246
7028.79
6819.74
6619.07
6425.92
6241.09
6063.57
5893.81
5730.9
5574.64
5424.17
5278.29
5138.23
5003.11
4874.34
4751.08
4633.82
4521.36
4413.33
4308.87
4208.98
4112.56
4020.7
3932.03
3847.74
3766.27
3688.78
3614.19
3543.28
3475.17
3410.53
3347.92
3288.99
3229.73
3172.86
3116.63
3059.33
3011.5
2963.3
2913.69
2869.94
2828.81
2788.83
2750.65
2713.46
2677.62
2642.34
2608.28
2574.92
2542.68
2511.01
2480.24
2450.11
2421.03
2392.88
2365.8
2339.54
2314.27
2289.87
2266.41
2243.81
2222.22
2201.38
2181.46
2162.03
2143.33
2125.04
2107.39
2090.15
2073.64
2057.45
2041.72
2026.27
2010.83
1995.65
1980.56
1965.78
1950.94
1937.15
1923.72
1910.56
1898.01
1886.1
1874.78
1864.07
1853.83
1844.09
1834.67
1825.51
1816.66
1807.81
1799.1
1790.38
1781.82
1773.17
1764.68
1756.3
1748.38
1740.55
1733.27
1726.33
1719.79
1713.52
1707.73
1702.16
1696.96
1691.74
1686.63
1681.49
1676.29
1671.08
1665.83
1660.64
1655.53
1650.57
1645.84
1641.35
1637.07
1633.14
1629.49
1626.09
1622.87
1619.8
1616.74
1613.8
1610.62
1607.36
1604.12
1600.8
1597.45
1594.2
1591
1588.07
1585.24
1582.67
1580.22
1578.09
1576.03
1574.17
1572.35
1570.38
1568.38
1566.36
1564.24
1562.08
1559.91
1557.71
1555.62
1553.59
1551.75
1549.97
1548.42
1546.93
1545.68
1544.43
1542.67
35.001
25.9803
18.9249
13.9002
25.4301
58.8021
124.4
231.803
401.549
664.966
1030.76
1476.77
1919.58
2346.38
2752.1
3138.83
3508.37
3866.27
4218.15
4568.47
4922.55
5284.58
5659.77
6049.68
6457.57
6883.7
7328.82
7793.66
8277.54
8780.48
9299.42
9832.9
10378.9
10942.4
11511.2
12079.5
12644.8
13220.9
13789.6
14322.6
14845.3
15351.8
15806.9
16226.4
16581.5
16896.2
17149.7
17367.6
17534.7
17663.8
17715.4
17710.5
17655.2
17549.9
17388.1
17168.8
16908.3
16611.9
16286.3
15938.9
15570.9
15192.4
14802.7
14409.3
14011.6
13616.8
13224.6
12838.2
12456.6
12077.7
11707.9
11341.8
10988.3
10638.8
10304
9974.4
9660.81
9352.21
9058.74
8773.53
8500.93
8236.72
7983.78
7739.07
7504.5
7278.09
7061.97
6853.85
6654.87
6463.79
6281.08
6105.88
5938.03
5776.82
5621.38
5470.59
5325.95
5186.11
5053.05
4925.44
4804.01
4687.29
4575.04
4466.38
4362.28
4261.73
4165.76
4073.04
3984.75
3899.21
3817.74
3739.05
3664.13
3591.95
3523.31
3456.8
3393.92
3330.96
3270.2
3210.44
3148.87
3097.14
3046.02
2993.42
2945.77
2900.89
2857.29
2815.39
2774.62
2735.31
2696.66
2659.29
2622.71
2587.31
2552.61
2518.88
2485.83
2453.85
2422.91
2393.01
2364.01
2335.99
2308.89
2282.71
2257.45
2233.17
2209.71
2187.23
2165.31
2144.2
2123.53
2103.59
2084.06
2065.35
2046.97
2029.15
2011.61
1994.22
1977.09
1960.15
1943.54
1926.89
1911.27
1896.1
1881.15
1866.84
1853.1
1839.99
1827.49
1815.46
1803.98
1792.82
1782.01
1771.48
1761.06
1750.8
1740.62
1730.67
1720.63
1710.87
1701.16
1692.01
1682.89
1674.35
1666.13
1658.38
1650.88
1643.87
1637.07
1630.66
1624.28
1618.07
1611.8
1605.65
1599.5
1593.35
1587.33
1581.37
1575.61
1570.12
1564.82
1559.76
1555.02
1550.56
1546.35
1542.32
1538.47
1534.67
1531.08
1527.29
1523.42
1519.65
1515.85
1512.03
1508.33
1504.7
1501.33
1498.06
1495.03
1492.11
1489.49
1486.97
1484.64
1482.42
1480.08
1477.73
1475.42
1473.05
1470.65
1468.28
1465.89
1463.61
1461.39
1459.36
1457.36
1455.6
1453.88
1452.4
1450.93
1448.91
38.464
38.0171
30.5711
30.318
63.0378
126.626
231.627
398.949
659.022
1025.04
1473.05
1921.98
2360.15
2786.36
3200.08
3601.85
3993.19
4377.94
4760.27
5143.54
5533.74
5935.27
6353.5
6790.67
7249.72
7731.9
8238.3
8769.7
9324.88
9903.72
10501.6
11116.9
11744.6
12392.2
13047.7
13697.9
14335.1
14979.1
15620.7
16205.5
16762.5
17299.1
17761.6
18173.5
18507.8
18785.1
18985.4
19121.5
19192.2
19196.5
19132.7
18986.3
18776.6
18521.6
18236.5
17880.2
17482.1
17064.8
16620.1
16170.6
15705.6
15248.6
14785.3
14321.9
13862.2
13410.3
12974.1
12551.6
12140.8
11747.6
11363.9
10995.6
10640.7
10293.8
9965.83
9642.52
9341.74
9044.09
8766.05
8494.15
8239.26
7990.14
7753.51
7521.78
7302.2
7088.43
6886.51
6690.34
6504.4
6324.53
6153.48
5988.55
5831.37
5679.84
5533.58
5391.52
5255.22
5122.84
4996.89
4875.56
4760
4648.67
4541.54
4437.66
4337.89
4241.33
4148.92
4059.45
3974.02
3891.01
3811.77
3734.96
3661.69
3590.82
3523.39
3457.79
3395.58
3333.41
3273.17
3214.09
3152.83
3100.72
3050.04
2998.34
2949.72
2904.21
2860.21
2817.67
2776.29
2736.33
2697.03
2658.95
2621.61
2585.41
2549.93
2515.43
2481.58
2448.77
2416.98
2386.17
2356.29
2327.31
2299.27
2272.08
2245.81
2220.41
2195.91
2172.29
2149.31
2127.11
2105.39
2084.38
2063.79
2044.05
2024.61
2005.82
1987.24
1968.98
1950.93
1933.11
1915.66
1898.14
1881.56
1865.56
1849.7
1834.52
1819.81
1805.75
1792.28
1779.25
1766.81
1754.65
1742.88
1731.32
1720.03
1708.81
1697.79
1686.98
1676.12
1665.59
1655.06
1645.15
1635.23
1625.91
1616.92
1608.39
1600.1
1592.27
1584.67
1577.44
1570.29
1563.33
1556.32
1549.49
1542.68
1535.92
1529.31
1522.79
1516.47
1510.42
1504.56
1498.93
1493.63
1488.58
1483.79
1479.19
1474.77
1470.43
1466.34
1462.06
1457.73
1453.55
1449.37
1445.2
1441.16
1437.2
1433.49
1429.88
1426.51
1423.24
1420.25
1417.39
1414.68
1412.15
1409.51
1406.85
1404.31
1401.72
1399.1
1396.56
1394
1391.57
1389.19
1387
1384.84
1382.91
1381.01
1379.35
1377.7
1375.45
41.9761
54.3531
52.8235
61.4317
120.929
215.749
367.28
607.261
951.894
1384.5
1827.25
2265.59
2695.45
3118.35
3535.34
3946.98
4354.71
4760.69
5167.99
5579.79
6001.77
6439.04
6896.71
7377.67
7885.32
8422.19
8989.06
9586.43
10212
10865.7
11541.7
12237.1
12942.7
13666.1
14400.2
15124.4
15819.7
16507.3
17194.2
17809.1
18362.8
18878.8
19283
19614.7
19854.4
20013.8
20079.3
20053.2
19965.9
19795.4
19556.4
19211.8
18807.1
18332.9
17838.3
17271.9
16665.1
16077.8
15478.7
14895.4
14327.3
13781.1
13263.5
12753.7
12277
11804.4
11370.4
10957.7
10564.4
10205.7
9852.94
9534.03
9224.04
8930.8
8657.75
8389.05
8148.66
7906.48
7689.56
7472.31
7276.7
7080.1
6899.76
6717.88
6550.45
6382.04
6226.61
6070.99
5926.24
5782.57
5647.9
5514.74
5387.61
5262.2
5141.45
5022.62
4908.6
4796.36
4689.5
4585.99
4487.34
4391.93
4300.14
4210.71
4124.37
4040.38
3959.51
3880.91
3805.46
3731.88
3661.3
3592.63
3526.71
3462.85
3401.78
3342.05
3285.3
3228.7
3173.83
3119.74
3063.64
3014.42
2967.57
2920.32
2874.24
2831.11
2789.81
2749.54
2710.52
2672.6
2635.37
2599.11
2563.47
2528.86
2494.88
2461.81
2429.29
2397.65
2366.93
2337.07
2308.09
2279.9
2252.58
2226
2200.28
2175.27
2151.19
2127.79
2105.16
2083.08
2061.63
2040.68
2020.25
2000.52
1981.12
1962.37
1943.76
1925.66
1907.59
1889.87
1872.46
1854.92
1838.23
1822.21
1806.26
1790.98
1776.03
1761.77
1748.05
1734.73
1721.99
1709.49
1697.41
1685.44
1673.9
1662.28
1651
1639.83
1628.74
1617.91
1607.08
1596.82
1586.6
1576.96
1567.62
1558.71
1550.04
1541.77
1533.77
1526.09
1518.57
1511.17
1503.85
1496.59
1489.47
1482.38
1475.44
1468.63
1461.99
1455.63
1449.45
1443.48
1437.85
1432.46
1427.32
1422.35
1417.59
1412.9
1408.51
1403.93
1399.31
1394.85
1390.45
1386.05
1381.81
1377.64
1373.72
1369.89
1366.3
1362.81
1359.57
1356.48
1353.53
1350.78
1347.93
1345.06
1342.36
1339.62
1336.85
1334.2
1331.53
1329
1326.52
1324.23
1321.96
1319.92
1317.9
1316.12
1314.36
1311.95
47.0926
76.7312
86.435
107.445
193.969
323.348
530.461
839.556
1240.63
1671.75
2102.06
2526.57
2946.05
3363.23
3779.52
4196.54
4615.26
5036.66
5463.5
5899.26
6348.21
6816.84
7309.43
7830.78
8384.63
8974.11
9599.71
10261.3
10954.8
11681.1
12431.3
13202.4
13979
14765.1
15559.2
16341.2
17072.4
17763.1
18433.5
19021.3
19493.5
19899.4
20142.2
20319.4
20385.2
20338.2
20196.3
19907.2
19510.2
19000.8
18442.6
17773.2
17062.4
16314.9
15576.2
14824.7
14059.5
13309.7
12635.8
11957.6
11370.2
10784.3
10286.1
9784.85
9355.98
8922.89
8549.57
8197.43
7877.29
7597.22
7323.41
7097.02
6870.18
6673.56
6489.56
6315.07
6166.25
6014.62
5888.45
5758.89
5649.05
5535.92
5437.12
5334.59
5244.15
5150.28
5065.96
4978.87
4899.26
4817.99
4741.93
4663.84
4587.45
4509.37
4433.62
4356.86
4282.31
4206.81
4134.21
4061.02
3990.82
3921.74
3854.95
3788.69
3723.96
3660.26
3598.46
3537.95
3479.31
3421.71
3365.82
3311.34
3258.23
3206.95
3156.91
3108.08
3061.28
3015.01
2970.08
2924.97
2878.69
2835.6
2795.82
2756.12
2716.55
2678.62
2642.94
2607.67
2573.87
2540.5
2508.01
2475.93
2444.47
2413.76
2383.51
2354.06
2324.89
2296.42
2268.66
2241.59
2215.25
2189.54
2164.55
2140.15
2116.49
2093.32
2071.04
2049.21
2028.22
2007.54
1987.56
1967.86
1948.72
1930.05
1911.82
1894.04
1876.51
1859.42
1842.31
1825.59
1809.04
1792.44
1776.46
1761.16
1745.92
1731.24
1716.83
1703.03
1689.73
1676.78
1664.34
1652.15
1640.32
1628.66
1617.31
1605.99
1594.89
1583.99
1573.15
1562.51
1551.89
1541.74
1531.7
1522.12
1512.85
1503.95
1495.29
1486.98
1478.95
1471.19
1463.66
1456.18
1448.89
1441.54
1434.44
1427.32
1420.34
1413.5
1406.82
1400.4
1394.15
1388.09
1382.35
1376.85
1371.58
1366.49
1361.59
1356.78
1352.27
1347.58
1342.88
1338.32
1333.85
1329.39
1325.08
1320.85
1316.85
1312.95
1309.26
1305.69
1302.33
1299.15
1296.07
1293.23
1290.29
1287.33
1284.57
1281.77
1278.94
1276.25
1273.55
1270.98
1268.48
1266.15
1263.85
1261.77
1259.7
1257.87
1256.05
1253.59
53.2597
106.86
129.861
166.698
279.586
448.942
712.059
1071.91
1478.1
1896.05
2310.01
2719.19
3126.49
3535.3
3947.16
4364.89
4788.99
5220.36
5661.48
6115.92
6586.59
7081.55
7604.93
8163.42
8760.61
9400.13
10081.9
10805
11563.1
12357.8
13175.5
14012.7
14848.1
15675.8
16492.5
17288.6
18002.7
18621.8
19179.4
19640
19927.3
20121.7
20115
19990.2
19733.6
19313.1
18784.7
18090
17310.9
16434.5
15534.5
14592.3
13653.5
12746.3
11850.8
11077.1
10348
9603.47
8998.92
8381.17
7884.02
7378.55
6976.97
6568.77
6241.56
5909.34
5637.49
5378.02
5159.11
4964.1
4784.66
4641.36
4497.06
4384.66
4275.31
4182.1
4103.88
4026.5
3969.32
3909.51
3864.77
3818.45
3782.81
3745.42
3715.8
3684.35
3658.64
3631.41
3607.2
3581.97
3558.18
3533.36
3509.08
3484.09
3458.94
3432.98
3406.49
3378.45
3349.4
3318.9
3287.67
3255.63
3222.74
3188.75
3153.91
3118.24
3081.98
3045.33
3008.84
2972.25
2936
2900.43
2865.01
2830.53
2796
2762.25
2729.09
2697.22
2665.34
2633.09
2600.02
2567.2
2537.32
2507.41
2477.4
2447.8
2420.11
2392.51
2366.21
2339.87
2314.36
2288.81
2263.74
2239.04
2214.62
2190.74
2166.92
2143.49
2120.5
2097.96
2075.91
2054.28
2033.17
2012.43
1992.25
1972.32
1953.14
1934.23
1916.04
1898.04
1880.64
1863.38
1846.58
1830.09
1814.02
1798.2
1782.78
1767.5
1752.4
1737.51
1722.74
1707.93
1693.51
1679.62
1665.86
1652.46
1639.34
1626.63
1614.39
1602.45
1590.93
1579.67
1568.67
1557.93
1547.3
1536.91
1526.47
1516.41
1506.31
1496.36
1486.42
1476.88
1467.43
1458.34
1449.54
1441.06
1432.81
1424.83
1417.15
1409.68
1402.48
1395.3
1388.33
1381.29
1374.47
1367.66
1360.95
1354.35
1347.9
1341.69
1335.63
1329.74
1324.12
1318.75
1313.58
1308.59
1303.77
1299.06
1294.62
1290.04
1285.46
1280.99
1276.63
1272.28
1268.07
1263.92
1260
1256.17
1252.53
1249.01
1245.68
1242.52
1239.47
1236.65
1233.75
1230.82
1228.1
1225.35
1222.58
1219.94
1217.3
1214.8
1212.35
1210.07
1207.81
1205.77
1203.73
1201.93
1200.13
1197.71
60.058
142.038
178.478
236.147
377.226
587.834
896.482
1267.9
1666
2065.77
2461.33
2854.07
3247.18
3644.49
4048.64
4462.58
4887.01
5323.02
5772.94
6240.36
6728.01
7244.76
7795.31
8387.91
9025.85
9712.87
10447.8
11230.1
12048.7
12904.4
13777.7
14659.5
15523.7
16350.2
17123
17840.3
18444.4
18899.7
19246.8
19444.2
19372.6
19168.3
18811.2
18272.6
17610.3
16775.3
15841.4
14800.4
13720.1
12622.4
11577.7
10625.9
9721.97
8886.02
8101.09
7413.75
6827
6215.12
5738.97
5253.22
4883.75
4508.08
4221.97
3932.39
3712.36
3489.24
3316.23
3148.57
3018.57
2896.9
2796.6
2711.98
2635.41
2577.05
2521.18
2480.82
2444.59
2416.31
2398.29
2378.7
2370.3
2361.56
2360.5
2360.69
2363.63
2367.8
2374.02
2380.67
2388.22
2395.24
2402.79
2410.43
2418.93
2427.22
2435.85
2443.91
2452.51
2458.48
2463.21
2465.86
2466.27
2465.56
2463.97
2461.11
2456.81
2450.91
2443.36
2434.3
2423.99
2412.55
2400.14
2386.72
2372.17
2356.7
2340.49
2323.89
2307.09
2291.06
2274.54
2257.45
2239.09
2219.99
2201.87
2183.66
2165.04
2146.18
2128.21
2110.23
2092.99
2075.61
2058.68
2041.52
2024.54
2007.52
1990.63
1973.94
1957.11
1940.29
1923.62
1907.09
1890.78
1874.61
1858.73
1842.93
1827.5
1812.07
1797.16
1782.36
1768.07
1753.84
1740.09
1726.3
1712.87
1699.55
1686.56
1673.72
1661.22
1648.69
1636.48
1624.23
1612.11
1599.87
1587.79
1576.09
1564.49
1553.07
1541.88
1530.94
1520.39
1510.06
1500.07
1490.32
1480.74
1471.42
1462.14
1453.12
1444
1435.2
1426.36
1417.6
1408.8
1400.33
1391.91
1383.74
1375.81
1368.16
1360.69
1353.43
1346.45
1339.64
1333.11
1326.58
1320.24
1313.86
1307.65
1301.45
1295.31
1289.26
1283.33
1277.59
1272
1266.52
1261.27
1256.25
1251.43
1246.76
1242.24
1237.84
1233.69
1229.43
1225.19
1221
1216.93
1212.87
1208.93
1205.04
1201.35
1197.75
1194.31
1190.99
1187.82
1184.83
1181.93
1179.28
1176.54
1173.78
1171.22
1168.64
1166.04
1163.57
1161.09
1158.75
1156.45
1154.31
1152.18
1150.26
1148.33
1146.64
1144.94
1142.68
66.3681
180.46
231.263
313.037
483.036
730.566
1059.32
1426.94
1808.4
2187.86
2564.08
2938.98
3315.75
3699.16
4092.41
4498.46
4918.56
5354.18
5807.78
6283.09
6783.84
7319.16
7894.32
8519.09
9196.35
9929.28
10715.7
11553.9
12424.9
13324
14229.2
15114.3
15941
16681.2
17322.5
17877.8
18245.9
18381.8
18333.7
18141.5
17686.7
17048.8
16315.4
15372.7
14327
13188
12017.6
10925.7
9819.56
8831.35
7857.58
7038.67
6286.07
5615.77
5024.73
4481.29
4056.18
3623.99
3294.18
2968.39
2723.5
2484.1
2302.38
2124.04
1991.51
1861.27
1764.58
1666.08
1595.12
1522.8
1471.76
1420.1
1384.91
1352.01
1325.16
1307.77
1289.02
1282.69
1276.28
1273.98
1276.16
1280.48
1288.36
1298.59
1311.78
1326.65
1343.75
1362.03
1382.03
1402.68
1424.85
1447.3
1471.05
1495.05
1520.02
1545.09
1571.32
1595.35
1619.57
1641.25
1661.94
1681.03
1700.41
1718.75
1736.26
1752.26
1766.94
1779.8
1791.19
1800.64
1808.63
1814.51
1818.79
1821.51
1823.04
1823.52
1823.68
1823.66
1823.07
1821.6
1818.54
1814.09
1809.04
1803.37
1796.82
1789.61
1782.22
1774.65
1767.24
1759.66
1752.11
1744.25
1736.22
1727.96
1719.58
1711.04
1702.18
1693.03
1683.67
1674.16
1664.53
1654.8
1645.02
1635.15
1625.3
1615.33
1605.57
1595.75
1586.23
1576.66
1567.34
1557.89
1548.62
1539.28
1530.15
1521.08
1512.23
1503.32
1494.6
1485.81
1476.98
1468.02
1459.01
1450.18
1441.38
1432.6
1423.93
1415.36
1407.08
1398.92
1391.01
1383.28
1375.67
1368.28
1360.87
1353.69
1346.42
1339.35
1332.25
1325.13
1317.95
1310.98
1304.01
1297.18
1290.52
1284.07
1277.76
1271.59
1265.66
1259.87
1254.33
1248.78
1243.42
1238
1232.72
1227.43
1222.18
1216.97
1211.84
1206.85
1201.98
1197.18
1192.55
1188.1
1183.85
1179.73
1175.74
1171.87
1168.22
1164.51
1160.79
1157.09
1153.5
1149.92
1146.43
1142.98
1139.68
1136.46
1133.38
1130.4
1127.56
1124.87
1122.27
1119.91
1117.48
1115.03
1112.75
1110.46
1108.16
1105.96
1103.77
1101.68
1099.63
1097.73
1095.83
1094.12
1092.4
1090.9
1089.39
1087.42
71.6213
219.757
286.32
393.405
590.993
861.523
1192.66
1549.02
1910.16
2268.51
2624.5
2980.19
3338.73
3706.23
4086.77
4482.59
4894.78
5325.6
5778.26
6257.29
6767.95
7320.02
7919.35
8576.56
9293.97
10073.3
10907.3
11790.4
12701.2
13612.2
14485.1
15300.3
16018.9
16584
16961.5
17204.8
17212.3
16980.6
16533.4
15919.6
15107.2
14095.1
13014.3
11847.3
10642.2
9522.75
8378.91
7421.83
6453.23
5659.08
4889.08
4264.5
3711.7
3240.17
2845.28
2490.55
2204.65
1949.43
1746.91
1556.85
1415.05
1277.97
1176.24
1077.84
1006.34
936.983
886.705
835.66
798.877
761.276
734.709
706.859
689.473
670.734
658.328
647.963
637.224
633.018
628.086
627.187
628.189
630.199
634.315
640.122
647.939
657.091
668.075
680.375
694.463
709.71
726.779
745.029
765.063
786.262
809.071
832.895
858.141
883.886
910.42
936.914
963.871
990.774
1018.21
1045.29
1072.63
1099.24
1125.51
1150.49
1174.69
1197.08
1218.49
1237.64
1255.73
1272.61
1288.38
1303.32
1317.81
1332.05
1345.44
1357.77
1368.42
1376.32
1382.98
1388.6
1393.52
1396.97
1400.33
1402.93
1405.63
1407.71
1409.9
1411.36
1412.7
1413.42
1414.08
1414.04
1413.51
1412.39
1410.73
1408.59
1406.06
1403.15
1399.93
1396.39
1392.6
1388.57
1384.42
1380.14
1375.86
1371.46
1367.05
1362.44
1357.76
1352.95
1348.15
1343.35
1338.63
1333.86
1329.1
1324.24
1319.25
1314.04
1308.66
1303.21
1297.68
1292.07
1286.4
1280.68
1275.11
1269.57
1264.2
1258.91
1253.7
1248.64
1243.56
1238.62
1233.62
1228.7
1223.74
1218.69
1213.55
1208.45
1203.31
1198.21
1193.18
1188.27
1183.45
1178.73
1174.18
1169.71
1165.49
1161.25
1157.15
1153
1148.95
1144.86
1140.77
1136.69
1132.64
1128.66
1124.76
1120.88
1117.12
1113.49
1110.03
1106.69
1103.45
1100.31
1097.37
1094.4
1091.41
1088.41
1085.49
1082.57
1079.71
1076.87
1074.13
1071.47
1068.9
1066.42
1064.04
1061.81
1059.64
1057.71
1055.74
1053.73
1051.86
1049.99
1048.12
1046.31
1044.5
1042.79
1041.1
1039.53
1037.97
1036.56
1035.14
1033.93
1032.7
1031.14
76.6105
259.265
342.388
472.311
690.201
971.498
1297.44
1636.77
1975.97
2312.81
2647.54
2983.05
3325.48
3677.56
4042.77
4424.23
4824.51
5246.97
5695.71
6176.89
6696.96
7266.96
7892.81
8586.18
9345.13
10167.9
11045.5
11956.8
12862.7
13726.8
14506.7
15160
15662.2
15937.8
15969.2
15834.8
15528.9
14920.3
14086.9
13086.4
12012.4
10824.5
9596.09
8468.33
7316.14
6362.39
5395.2
4644.39
3904.86
3338.84
2815.33
2397.55
2043.07
1749.83
1512.82
1310.16
1142.25
1010.28
900.08
803.063
731.054
663.78
614.313
567.688
533.401
500.885
476.781
452.69
434.558
416.156
402.309
388.004
377.914
367.121
359.959
352.554
346.209
341.703
336.928
334.161
332.483
330.595
330.326
330.704
331.937
333.844
336.676
340.226
344.734
350.002
356.305
363.485
371.839
381.162
391.715
403.222
415.98
429.691
444.567
460.359
477.272
495.157
514.197
534.169
555.211
577.112
599.78
622.987
646.599
670.372
694.395
717.894
741.138
763.98
786.461
809.024
831.747
854.269
876.547
897.798
918.131
935.776
951.709
966.001
980.386
993.025
1005.65
1017.2
1028.92
1039.74
1050.69
1060.74
1070.6
1079.57
1088.25
1096.08
1103.36
1109.72
1115.49
1120.52
1125.07
1128.93
1132.42
1135.24
1137.8
1139.75
1141.61
1143
1144.4
1145.2
1146.05
1146.3
1146.43
1146.3
1146.08
1145.79
1145.45
1145
1144.48
1143.8
1142.94
1141.76
1140.27
1138.52
1136.55
1134.35
1131.97
1129.43
1126.84
1124.2
1121.64
1119.07
1116.55
1114.11
1111.64
1109.25
1106.8
1104.33
1101.78
1099.1
1096.28
1093.36
1090.35
1087.27
1084.16
1081.08
1078.02
1075.02
1072.11
1069.26
1066.6
1063.92
1061.35
1058.74
1056.15
1053.52
1050.85
1048.14
1045.4
1042.67
1039.97
1037.25
1034.59
1031.98
1029.53
1027.17
1024.89
1022.67
1020.63
1018.6
1016.52
1014.42
1012.35
1010.28
1008.21
1006.15
1004.15
1002.19
1000.3
998.468
996.701
995.072
993.482
992.113
990.716
989.292
987.957
986.643
985.312
984.014
982.724
981.487
980.277
979.146
978.018
977.009
975.994
975.161
974.294
973.291
89.3565
296.157
395.025
542.466
773.901
1058.01
1373.92
1693.74
2010.62
2325.16
2640.58
2959.15
3282.39
3615.59
3963
4328.25
4714.83
5127.55
5572.01
6056.72
6589.22
7182.72
7841.78
8574.29
9378.33
10244.5
11144.6
12040.8
12892.2
13641.4
14234.1
14639.9
14855.4
14779.1
14508.9
14006.5
13348.9
12433.9
11321.2
10087.8
8897.96
7744.07
6565.97
5603.03
4651.54
3918.98
3210.49
2684.42
2194.38
1838.33
1523.76
1281.83
1084.11
924.946
801.14
698.996
615.011
555.532
501.553
460.987
428.286
398.397
375.591
354.203
337.797
321.899
309.386
296.749
286.74
276.451
268.004
259.412
252.614
245.6
240.17
234.515
230.295
226.275
222.155
218.735
216.061
213.317
211.304
209.255
208.056
206.807
206.29
205.766
205.849
206.13
206.782
207.789
209.263
211.161
213.575
216.413
219.787
223.643
228.092
233.078
238.707
244.954
251.941
259.643
268.192
277.56
287.796
298.873
310.791
323.526
337.076
351.345
366.358
382.094
398.662
416.222
434.747
454.089
474.093
494.498
515.304
535.217
554.762
573.1
591.702
609.334
627.144
644.191
661.498
678.206
695.165
711.454
727.783
743.156
758.262
772.281
786.15
799.026
811.412
822.895
833.931
844.012
853.724
862.441
870.896
878.385
885.779
892.297
898.87
904.636
910.503
915.545
920.596
925.07
929.512
933.688
937.894
941.832
945.753
949.357
952.837
955.843
958.313
960.363
962.043
963.371
964.409
965.098
965.697
966.097
966.509
966.837
967.162
967.509
967.823
968.181
968.376
968.577
968.564
968.413
968.054
967.512
966.779
965.899
964.9
963.834
962.722
961.626
960.535
959.483
958.563
957.632
956.757
955.847
954.914
953.918
952.846
951.689
950.454
949.164
947.835
946.455
945.06
943.673
942.4
941.182
940.024
938.909
937.935
936.988
935.981
934.939
933.886
932.808
931.705
930.581
929.466
928.362
927.283
926.233
925.224
924.32
923.454
922.766
922.07
921.349
920.681
920.032
919.366
918.698
918.034
917.387
916.757
916.169
915.583
915.069
914.561
914.196
913.766
913.471
103.275
326.478
440.585
601.555
840.584
1122.26
1423.71
1723.39
2018.33
2314.2
2611.01
2909.01
3211.77
3525.34
3854.39
4203.16
4576.11
4980.18
5423.27
5917.06
6469.31
7093.29
7794.2
8575.89
9426.11
10321.2
11208.1
12042.5
12772.7
13331.4
13670.8
13770.6
13678.2
13311.6
12713.3
11867.5
10878.8
9720.62
8502.31
7268.34
6082.89
5103.24
4132.72
3391.63
2715.74
2216.35
1777.69
1460.87
1186.93
994.857
829.36
709.144
609.44
532.159
471.658
422.89
384.567
355.339
331.184
315.182
298.985
284.293
272.332
260.228
250.339
240.179
232.211
223.969
217.07
210.011
204.163
197.892
192.978
187.945
183.974
179.74
176.466
173.366
170.234
167.401
164.996
162.592
160.624
158.6
156.919
155.199
153.872
152.512
151.464
150.396
149.585
148.83
148.277
147.905
147.671
147.673
147.796
148.078
148.55
149.196
150.053
151.11
152.412
153.961
155.817
157.984
160.492
163.347
166.574
170.194
174.232
178.701
183.654
189.141
195.269
202.153
209.826
218.276
227.506
237.504
248.246
259.535
271.255
283.412
296.106
309.266
322.958
337.109
351.838
367.042
382.838
399.047
415.66
432.485
449.579
466.412
483.426
499.895
516.257
531.898
547.357
561.917
576.274
589.6
602.77
614.831
626.858
637.766
648.763
658.929
669.227
678.685
688.216
697.043
705.868
714.26
722.706
730.766
738.735
746.327
753.635
760.481
766.76
772.501
777.802
782.64
787.121
791.134
794.964
798.497
801.966
805.315
808.582
811.886
815.063
818.262
821.18
824.071
826.715
829.179
831.311
833.226
834.828
836.262
837.444
838.529
839.464
840.406
841.263
842.132
843.038
843.943
844.875
845.74
846.58
847.313
847.947
848.438
848.806
849.063
849.244
849.306
849.3
849.27
849.286
849.327
849.401
849.516
849.705
849.955
850.128
850.251
850.347
850.377
850.353
850.284
850.177
850.045
849.896
849.741
849.605
849.529
849.521
849.593
849.704
849.792
849.899
850.021
850.117
850.186
850.249
850.292
850.338
850.387
850.439
850.51
850.609
850.79
850.913
851.389
114.958
348.499
477.735
648.065
889.575
1164.68
1449.23
1728.88
2007.39
2284.11
2559.7
2836.5
3118.8
3413.19
3724.71
4058.53
4420.29
4820.17
5268.78
5780.63
6363.49
7033.77
7789.11
8628.22
9517.95
10417
11236.9
11951.3
12501.1
12803.6
12831.1
12645.4
12260.1
11566.7
10655.2
9532.33
8269.55
7027.45
5845.78
4784.19
3787.51
3043.83
2386.37
1903.98
1503.37
1212.68
981.562
815.336
679.829
583.854
501.001
443.413
390.858
353.148
321.468
298.271
279.371
263.858
252.016
241.637
230.223
221.851
213.363
204.75
197.581
190.266
184.391
178.46
173.543
168.493
164.3
160.144
156.659
153.112
150.167
147.179
144.779
142.319
140.13
138.262
136.343
134.471
132.97
131.399
129.923
128.434
127.232
126.012
124.93
123.83
122.888