/*--------------------------------*- C++ -*----------------------------------*\
| =========                 |                                                 |
| \\      /  F ield         | OpenFOAM: The Open Source CFD Toolbox           |
|  \\    /   O peration     | Version:  2312                                  |
|   \\  /    A nd           | Website:  www.openfoam.com                      |
|    \\/     M anipulation  |                                                 |
\*---------------------------------------------------------------------------*/
FoamFile
{
    version     2.0;
    format      ascii;
    arch        "LSB;label=32;scalar=64";
    class       volScalarField;
    location    "0.004";
    object      minKappa;
}
// * * * * * * * * * * * * * * * * * * * * * * * * * * * * * * * * * * * * * //

dimensions      [0 0 0 0 0 0 0];

internalField   nonuniform List<scalar> 
48128
(
0.614333
0.614166
0.614409
0.614338
0.614279
0.614285
0.614226
0.614125
0.614191
0.614604
0.616373
0.617952
0.618958
0.619828
0.620547
0.621907
0.623097
0.624237
0.625311
0.626304
0.627197
0.628047
0.628864
0.629618
0.630301
0.6309
0.631401
0.631775
0.632021
0.632151
0.632188
0.632058
0.631796
0.63141
0.630919
0.630325
0.629834
0.628799
0.627844
0.626848
0.625829
0.624826
0.623857
0.622929
0.622066
0.621279
0.620578
0.619862
0.619253
0.618831
0.618687
0.618555
0.61851
0.61856
0.618753
0.619049
0.619486
0.62004
0.620711
0.621486
0.62236
0.623321
0.624361
0.625478
0.626769
0.628176
0.629659
0.631208
0.632839
0.634484
0.636185
0.637905
0.639638
0.641423
0.643198
0.645034
0.646847
0.648671
0.650497
0.652291
0.654074
0.655813
0.657564
0.659287
0.661006
0.662668
0.664318
0.665906
0.667468
0.668986
0.670486
0.671931
0.673347
0.674733
0.676112
0.677489
0.678862
0.680186
0.681436
0.682603
0.683703
0.684777
0.68585
0.686903
0.687926
0.688912
0.689853
0.690752
0.691616
0.692447
0.693234
0.693981
0.694674
0.695324
0.695939
0.696514
0.697112
0.69774
0.698395
0.699132
0.700165
0.700343
0.700735
0.701397
0.701551
0.701798
0.702082
0.702381
0.702696
0.703025
0.703366
0.703709
0.704055
0.704398
0.704745
0.705096
0.705441
0.705749
0.706033
0.706297
0.70655
0.706779
0.706987
0.707178
0.707352
0.707502
0.707639
0.707762
0.707887
0.708008
0.708132
0.708243
0.708344
0.708437
0.708534
0.708636
0.708754
0.708884
0.70903
0.709181
0.709342
0.709514
0.67785
0.677836
0.677809
0.677756
0.677686
0.677595
0.677498
0.677393
0.6773
0.677209
0.677142
0.677073
0.709731
0.677015
0.677015
0.677014
0.677032
0.677036
0.677024
0.676998
0.67696
0.676893
0.676813
0.676728
0.676634
0.676533
0.676431
0.676344
0.676273
0.676231
0.676181
0.676175
0.676162
0.676165
0.676155
0.676134
0.6761
0.676052
0.675992
0.675919
0.67583
0.675733
0.67564
0.675551
0.675475
0.675411
0.675334
0.675336
0.675322
0.675301
0.675291
0.675269
0.675237
0.675192
0.675136
0.675068
0.674992
0.674911
0.674819
0.67474
0.674656
0.674586
0.67455
0.67451
0.674468
0.674452
0.674427
0.674396
0.674359
0.674313
0.674258
0.674194
0.674123
0.674048
0.673968
0.67389
0.673817
0.673728
0.614333
0.614166
0.614409
0.614338
0.614279
0.614285
0.614179
0.613937
0.614191
0.614604
0.616373
0.617952
0.618958
0.619828
0.620547
0.621907
0.623097
0.624237
0.625311
0.626304
0.627197
0.628047
0.628864
0.629618
0.630301
0.6309
0.631401
0.631775
0.632021
0.632151
0.632188
0.632058
0.631796
0.631052
0.630119
0.629121
0.628083
0.627003
0.62592
0.624851
0.623794
0.622785
0.62185
0.621
0.620259
0.619625
0.619139
0.618945
0.618914
0.618831
0.618687
0.618555
0.61851
0.61856
0.618753
0.619049
0.619486
0.62004
0.620711
0.621486
0.62236
0.623321
0.624361
0.625478
0.626769
0.628176
0.629659
0.631208
0.632839
0.634484
0.636185
0.637905
0.639638
0.641423
0.643198
0.645034
0.646847
0.648671
0.650497
0.652291
0.654074
0.655813
0.657564
0.659287
0.661006
0.662668
0.664318
0.665906
0.667468
0.668986
0.670486
0.671931
0.673347
0.674733
0.676112
0.677489
0.678862
0.680186
0.681436
0.682603
0.683703
0.684777
0.68585
0.686903
0.687926
0.688912
0.689853
0.690752
0.691616
0.692447
0.693234
0.693981
0.694674
0.695324
0.695939
0.696514
0.697112
0.69774
0.698395
0.699132
0.700165
0.700343
0.700735
0.701397
0.701551
0.701798
0.702082
0.702381
0.702696
0.703025
0.703366
0.703709
0.704055
0.704398
0.704745
0.705096
0.705441
0.705749
0.706033
0.706297
0.70655
0.706779
0.706987
0.707178
0.707352
0.707502
0.707639
0.707762
0.707887
0.708008
0.708132
0.708243
0.708344
0.708437
0.708534
0.708636
0.708754
0.708884
0.70903
0.709181
0.709342
0.709514
0.67785
0.677836
0.677809
0.677756
0.677686
0.677595
0.677498
0.677393
0.6773
0.677209
0.677142
0.677073
0.709731
0.677015
0.677015
0.677014
0.677032
0.677036
0.677024
0.676998
0.67696
0.676893
0.676813
0.676728
0.676634
0.676533
0.676431
0.676344
0.676273
0.676231
0.676181
0.676175
0.676162
0.676165
0.676155
0.676134
0.6761
0.676052
0.675992
0.675919
0.67583
0.675733
0.67564
0.675551
0.675475
0.675411
0.675334
0.675336
0.675322
0.675301
0.675291
0.675269
0.675237
0.675192
0.675136
0.675068
0.674992
0.674911
0.674819
0.67474
0.674656
0.674586
0.67455
0.67451
0.674468
0.674452
0.674427
0.674396
0.674359
0.674313
0.674258
0.674194
0.674123
0.674048
0.673968
0.67389
0.673817
0.673728
0.614567
0.614387
0.614537
0.614627
0.614523
0.614275
0.613988
0.613937
0.614452
0.616188
0.618552
0.620731
0.622832
0.624924
0.626581
0.628024
0.629285
0.630391
0.631158
0.631643
0.63199
0.632289
0.632513
0.632649
0.632693
0.63265
0.632502
0.632214
0.631805
0.631281
0.630696
0.630008
0.629065
0.628201
0.627294
0.626347
0.625382
0.624407
0.62345
0.622537
0.621663
0.620859
0.620152
0.619554
0.619244
0.619124
0.619139
0.618945
0.618914
0.618918
0.618984
0.619174
0.619545
0.620035
0.620677
0.621446
0.622382
0.623447
0.624646
0.625958
0.627382
0.628897
0.630496
0.632178
0.633941
0.635786
0.637688
0.639643
0.641659
0.643676
0.645739
0.647795
0.649861
0.651957
0.654036
0.65616
0.658245
0.660328
0.662401
0.664434
0.666446
0.668464
0.670473
0.672459
0.674408
0.67631
0.67818
0.679988
0.681757
0.683484
0.685184
0.686824
0.688433
0.690006
0.691574
0.69313
0.694683
0.696178
0.697596
0.698931
0.7002
0.701443
0.702682
0.703896
0.705079
0.706221
0.707319
0.708372
0.709391
0.710373
0.711311
0.712209
0.713049
0.713847
0.714608
0.715324
0.716063
0.716829
0.717624
0.718496
0.719648
0.71996
0.720499
0.721262
0.721558
0.721947
0.722363
0.72279
0.723225
0.723669
0.72412
0.72457
0.725019
0.725465
0.725913
0.726365
0.726809
0.727217
0.727602
0.727967
0.728319
0.728647
0.728953
0.72924
0.72951
0.729749
0.729971
0.730176
0.730384
0.730584
0.730789
0.730979
0.731158
0.731328
0.731501
0.731679
0.73187
0.732074
0.732291
0.732515
0.732747
0.732993
0.733148
0.733311
0.733483
0.733585
0.733695
0.733744
0.733795
0.733823
0.733853
0.733886
0.733923
0.733968
0.734029
0.734096
0.734177
0.734264
0.730445
0.730538
0.730608
0.730653
0.730702
0.730699
0.730684
0.730659
0.730618
0.730565
0.730508
0.730453
0.730411
0.730393
0.73037
0.730383
0.730393
0.730419
0.730431
0.730433
0.730421
0.730397
0.730358
0.730305
0.73023
0.730142
0.73005
0.729957
0.729872
0.729793
0.729691
0.729683
0.729659
0.729623
0.729604
0.729574
0.729534
0.72948
0.729414
0.729334
0.729243
0.729143
0.72903
0.728919
0.728805
0.72869
0.728619
0.728542
0.728459
0.728411
0.728354
0.728291
0.728224
0.728147
0.728061
0.727965
0.727859
0.727745
0.727624
0.727501
0.727378
0.72721
0.614698
0.614514
0.614429
0.614525
0.614311
0.614112
0.613988
0.614507
0.616832
0.620049
0.622301
0.624073
0.625486
0.626535
0.627354
0.627958
0.628511
0.628991
0.629398
0.629735
0.62996
0.63015
0.630298
0.630378
0.630373
0.630269
0.630061
0.629748
0.629329
0.628809
0.628065
0.627362
0.626599
0.625766
0.624907
0.624038
0.623177
0.622333
0.62153
0.620811
0.620159
0.619672
0.619465
0.619415
0.619244
0.619124
0.619164
0.61917
0.619358
0.619676
0.620188
0.620841
0.621698
0.622691
0.623835
0.625123
0.626589
0.628174
0.629896
0.63172
0.633654
0.63566
0.637743
0.639895
0.642117
0.644414
0.646739
0.649109
0.651506
0.653888
0.6563
0.658674
0.661054
0.663435
0.665796
0.668177
0.670501
0.67281
0.675094
0.677324
0.679486
0.681618
0.683722
0.685787
0.687795
0.689748
0.691658
0.6935
0.695294
0.697047
0.698766
0.700424
0.702044
0.703627
0.705199
0.706755
0.708307
0.709789
0.711197
0.71255
0.713846
0.715121
0.716391
0.717633
0.718843
0.72001
0.721134
0.722212
0.72326
0.724268
0.725234
0.72616
0.727028
0.72786
0.728647
0.729398
0.730172
0.730969
0.731803
0.732702
0.733847
0.734205
0.734778
0.735517
0.735894
0.736332
0.736789
0.737254
0.737725
0.738203
0.738688
0.739169
0.73965
0.740127
0.740605
0.741087
0.741558
0.741995
0.742411
0.742808
0.743192
0.743552
0.743891
0.744212
0.744516
0.744788
0.745042
0.745277
0.745514
0.745743
0.745976
0.746192
0.746399
0.746596
0.746796
0.747001
0.747218
0.747448
0.747689
0.747938
0.748194
0.748463
0.748646
0.748836
0.749032
0.749163
0.749301
0.749377
0.749457
0.749511
0.749567
0.749624
0.749685
0.749754
0.749837
0.749926
0.750027
0.750134
0.750255
0.750376
0.748874
0.748941
0.750639
0.750661
0.750673
0.75067
0.750654
0.750625
0.750591
0.750557
0.750534
0.750531
0.748852
0.748868
0.748887
0.748921
0.748943
0.748954
0.748947
0.74893
0.748899
0.748852
0.748784
0.748701
0.748614
0.748524
0.748442
0.74836
0.74826
0.748246
0.748218
0.74818
0.748156
0.748122
0.748078
0.748022
0.747952
0.747868
0.747774
0.747669
0.747551
0.747432
0.74731
0.747186
0.747103
0.747014
0.746921
0.74686
0.746791
0.746716
0.746637
0.746548
0.746451
0.746343
0.746225
0.746098
0.745963
0.745827
0.745688
0.745497
0.614778
0.614544
0.614237
0.61433
0.614208
0.614112
0.614666
0.616988
0.620255
0.622505
0.624108
0.625214
0.62594
0.626298
0.626613
0.626996
0.627329
0.62764
0.627931
0.628175
0.628321
0.628437
0.628502
0.628499
0.628417
0.628242
0.627978
0.627619
0.627171
0.626494
0.625877
0.625189
0.624462
0.623689
0.622907
0.622148
0.621436
0.620768
0.620167
0.619889
0.619781
0.619672
0.619465
0.619415
0.619403
0.619499
0.619803
0.620265
0.620952
0.62179
0.622847
0.624066
0.625515
0.627115
0.628865
0.630769
0.632862
0.63505
0.637384
0.639794
0.642307
0.644859
0.647469
0.650122
0.652821
0.655586
0.658332
0.66111
0.663868
0.666581
0.6693
0.671936
0.674574
0.677174
0.679744
0.682305
0.684779
0.687224
0.689627
0.691952
0.694181
0.696383
0.698534
0.70063
0.702649
0.704607
0.706512
0.708343
0.710119
0.711853
0.713549
0.715181
0.716767
0.718313
0.719843
0.721351
0.722857
0.724281
0.725638
0.726916
0.728131
0.729326
0.730513
0.731669
0.732796
0.733881
0.734926
0.735929
0.736905
0.737838
0.738735
0.739593
0.740403
0.741199
0.741945
0.742671
0.743416
0.744181
0.744992
0.745848
0.746915
0.747276
0.747823
0.748467
0.748908
0.749324
0.749763
0.750214
0.75067
0.751132
0.751602
0.752069
0.752537
0.753002
0.753466
0.753937
0.754391
0.754817
0.755225
0.755614
0.755989
0.756342
0.756677
0.756992
0.757295
0.757565
0.757816
0.758051
0.758286
0.758513
0.758743
0.758954
0.75916
0.759355
0.759554
0.759757
0.759973
0.7602
0.760438
0.760684
0.760938
0.761204
0.761391
0.761577
0.76177
0.761905
0.762048
0.762127
0.762211
0.76227
0.762331
0.762393
0.762459
0.762532
0.762618
0.762711
0.762816
0.762927
0.763051
0.763174
0.763282
0.76336
0.763448
0.763475
0.763492
0.763491
0.76348
0.763455
0.763426
0.763397
0.763376
0.763377
0.762402
0.762421
0.76244
0.762474
0.762495
0.762507
0.762501
0.762484
0.762454
0.762408
0.76234
0.762257
0.762169
0.762079
0.761996
0.76191
0.761813
0.761792
0.761758
0.761717
0.761686
0.761647
0.761597
0.761535
0.761461
0.761372
0.761272
0.761162
0.761038
0.760913
0.760784
0.760654
0.760561
0.760465
0.760363
0.760291
0.760212
0.760127
0.760038
0.759939
0.759832
0.759714
0.759586
0.759449
0.759304
0.759156
0.759006
0.758797
0.614818
0.61448
0.614234
0.614298
0.614208
0.614765
0.616856
0.62
0.622273
0.623781
0.624756
0.625237
0.625463
0.62566
0.625823
0.626047
0.626267
0.626473
0.626651
0.626795
0.626855
0.62689
0.626881
0.626806
0.626662
0.626434
0.62613
0.625742
0.625134
0.624583
0.623983
0.623339
0.622678
0.622005
0.621348
0.620745
0.620318
0.620135
0.620115
0.619889
0.619781
0.619755
0.619777
0.619976
0.620402
0.621016
0.621896
0.622975
0.624336
0.625886
0.627681
0.629668
0.631912
0.634319
0.636895
0.639583
0.642497
0.645459
0.648569
0.651732
0.65494
0.658169
0.661375
0.664602
0.667816
0.671104
0.67428
0.677469
0.680573
0.683588
0.686582
0.689418
0.69225
0.694989
0.697679
0.700326
0.702841
0.705311
0.707714
0.710009
0.712172
0.714311
0.716378
0.71838
0.720287
0.722137
0.723923
0.725633
0.727282
0.728892
0.730459
0.731963
0.733408
0.734817
0.7362
0.737566
0.738931
0.740205
0.741428
0.742574
0.743662
0.74473
0.745786
0.746811
0.747811
0.748771
0.749698
0.750587
0.751452
0.752272
0.753065
0.753818
0.754524
0.755203
0.755837
0.756462
0.757104
0.757755
0.758463
0.759199
0.760099
0.760433
0.760878
0.761375
0.761822
0.762161
0.762539
0.762933
0.763329
0.763733
0.764144
0.764555
0.76497
0.765383
0.765795
0.766214
0.766612
0.766992
0.767357
0.767702
0.768034
0.768347
0.768644
0.768921
0.76919
0.769427
0.769647
0.769855
0.770058
0.770259
0.770459
0.770642
0.77082
0.770992
0.771167
0.771346
0.771538
0.771739
0.771952
0.772174
0.772402
0.772643
0.772815
0.772977
0.773146
0.773265
0.773392
0.773457
0.773526
0.773575
0.773622
0.773673
0.773729
0.773791
0.773863
0.773947
0.774039
0.774138
0.774249
0.774361
0.774457
0.774526
0.7746
0.774621
0.774629
0.774624
0.774606
0.774576
0.774541
0.774506
0.774479
0.774473
0.773838
0.773854
0.773863
0.77389
0.773903
0.773906
0.773894
0.773871
0.773834
0.773781
0.773707
0.773618
0.773525
0.773429
0.77334
0.773247
0.773148
0.773114
0.773072
0.773024
0.772983
0.772934
0.772876
0.772806
0.772723
0.772626
0.772518
0.7724
0.772269
0.772135
0.771997
0.771861
0.771757
0.771651
0.77154
0.771457
0.771367
0.771272
0.771171
0.771062
0.770944
0.770815
0.770676
0.770529
0.770373
0.770215
0.770053
0.769828
0.614779
0.61448
0.614234
0.614298
0.614702
0.616415
0.619439
0.621775
0.623324
0.624256
0.624686
0.624843
0.624914
0.624983
0.625068
0.625193
0.625308
0.625414
0.6255
0.625559
0.62555
0.625513
0.625442
0.62531
0.625118
0.624854
0.624527
0.623974
0.623507
0.622983
0.622433
0.621871
0.621326
0.620804
0.620523
0.620398
0.620318
0.620135
0.620115
0.620098
0.62025
0.620608
0.621196
0.622014
0.623138
0.62452
0.626244
0.628241
0.630592
0.633198
0.636071
0.639156
0.642543
0.64607
0.649859
0.653507
0.657502
0.661546
0.665614
0.6698
0.673825
0.677949
0.681805
0.685719
0.689478
0.693359
0.69697
0.700571
0.70398
0.707226
0.710407
0.713314
0.716217
0.718934
0.72159
0.724147
0.726521
0.728824
0.731033
0.733094
0.734983
0.736854
0.738645
0.740375
0.741993
0.743566
0.745063
0.746489
0.747849
0.749179
0.75046
0.75169
0.75286
0.754005
0.755115
0.756227
0.757337
0.75836
0.75935
0.760266
0.761132
0.761982
0.76282
0.763629
0.764423
0.765183
0.765918
0.766619
0.767303
0.767941
0.768563
0.769145
0.769694
0.770218
0.770707
0.771198
0.771703
0.772205
0.772775
0.773357
0.774051
0.774349
0.774651
0.774981
0.775328
0.775574
0.775839
0.776125
0.776408
0.776705
0.777002
0.77731
0.777618
0.77794
0.778263
0.778593
0.7789
0.779201
0.77949
0.779758
0.780016
0.780257
0.780486
0.780695
0.780901
0.781076
0.781239
0.781392
0.781538
0.781687
0.781832
0.781964
0.782089
0.782217
0.782342
0.782479
0.782622
0.782781
0.782945
0.78312
0.783303
0.783497
0.783632
0.783752
0.783878
0.783963
0.784055
0.784089
0.784129
0.784149
0.78417
0.784194
0.78422
0.784254
0.784303
0.784357
0.784425
0.784495
0.784577
0.784664
0.784734
0.784779
0.784825
0.78483
0.784821
0.784797
0.784761
0.784713
0.784662
0.78461
0.784567
0.784544
0.784094
0.784101
0.784088
0.7841
0.784096
0.784083
0.784055
0.784017
0.783966
0.7839
0.783812
0.783711
0.783605
0.783496
0.783396
0.78329
0.783185
0.783129
0.783075
0.783016
0.782959
0.782897
0.782825
0.782742
0.782646
0.782538
0.782417
0.782288
0.782145
0.782
0.78185
0.781704
0.781586
0.781468
0.781346
0.781249
0.781146
0.781037
0.780924
0.780801
0.78067
0.780529
0.780378
0.780218
0.78005
0.77988
0.779706
0.779463
0.614734
0.614536
0.614234
0.614738
0.615943
0.618628
0.621089
0.622767
0.623764
0.624219
0.624345
0.624386
0.624365
0.62437
0.624379
0.624414
0.624447
0.624473
0.624484
0.624472
0.624408
0.624314
0.624194
0.624021
0.623801
0.623522
0.623034
0.622637
0.622209
0.621753
0.621302
0.620915
0.620761
0.620731
0.620523
0.620398
0.62041
0.620468
0.620748
0.621296
0.622123
0.623271
0.624723
0.626496
0.628683
0.63125
0.634248
0.637614
0.641422
0.645555
0.650029
0.654584
0.659554
0.664564
0.670049
0.674799
0.680118
0.68568
0.69082
0.696318
0.701258
0.706493
0.711016
0.715728
0.720025
0.724523
0.728552
0.732523
0.73615
0.739526
0.742752
0.745569
0.748368
0.75085
0.753274
0.755499
0.757515
0.759399
0.761182
0.762741
0.764143
0.76548
0.766781
0.767953
0.769065
0.770095
0.771086
0.771975
0.772842
0.773651
0.774449
0.775187
0.775918
0.776613
0.777297
0.777995
0.778706
0.779325
0.779947
0.780509
0.781044
0.781571
0.782095
0.782591
0.783092
0.783565
0.784025
0.784459
0.784885
0.785267
0.785652
0.785997
0.786324
0.786633
0.786919
0.787216
0.787532
0.787827
0.788206
0.788571
0.789006
0.789225
0.78933
0.789477
0.789673
0.789802
0.789933
0.790088
0.790235
0.790399
0.790558
0.790737
0.790917
0.791108
0.791296
0.791496
0.79167
0.791848
0.79202
0.792174
0.792327
0.792467
0.7926
0.792712
0.792827
0.792914
0.792995
0.793066
0.793135
0.793202
0.793276
0.793324
0.793379
0.793435
0.793494
0.793566
0.793639
0.793745
0.793825
0.793942
0.794057
0.794175
0.794261
0.794323
0.794388
0.794421
0.794454
0.794452
0.79444
0.794419
0.794397
0.794376
0.794358
0.79435
0.794366
0.794363
0.794408
0.794419
0.794469
0.794513
0.794539
0.794549
0.794558
0.794535
0.794494
0.794439
0.794373
0.794298
0.79422
0.794142
0.794071
0.794019
0.79367
0.793653
0.793613
0.793597
0.793567
0.793529
0.793477
0.793415
0.79334
0.793253
0.793146
0.793024
0.792899
0.792771
0.792653
0.792528
0.79241
0.792323
0.792252
0.792175
0.792098
0.792015
0.791925
0.791823
0.79171
0.791584
0.791447
0.791301
0.791143
0.790983
0.790817
0.790657
0.79052
0.790388
0.790252
0.790135
0.790016
0.789891
0.789761
0.789623
0.789476
0.789319
0.789153
0.788979
0.788797
0.788612
0.788424
0.78816
0.614701
0.614734
0.614626
0.61562
0.617681
0.620212
0.622083
0.623232
0.623792
0.62394
0.623963
0.623928
0.623859
0.623803
0.623756
0.623722
0.62369
0.623654
0.623606
0.62354
0.623434
0.623302
0.623149
0.622957
0.622732
0.622303
0.621986
0.621643
0.621299
0.621058
0.620971
0.620915
0.620761
0.620731
0.620718
0.620856
0.621298
0.622
0.623085
0.624568
0.626466
0.628851
0.631584
0.634805
0.638562
0.642869
0.647706
0.652921
0.65871
0.664824
0.671519
0.677779
0.684707
0.691435
0.699002
0.704999
0.711771
0.719201
0.725564
0.733021
0.739102
0.745927
0.751204
0.757045
0.761927
0.767182
0.771665
0.776063
0.779809
0.783299
0.786336
0.788959
0.791442
0.793409
0.795451
0.796983
0.798477
0.79958
0.800709
0.801424
0.802084
0.80248
0.803129
0.803176
0.803592
0.803517
0.803797
0.80359
0.803783
0.803579
0.803679
0.803461
0.803552
0.803357
0.803465
0.803377
0.803519
0.803531
0.803642
0.80369
0.80378
0.803855
0.803956
0.804018
0.804118
0.8042
0.804293
0.804372
0.804459
0.804509
0.804581
0.804618
0.804655
0.804686
0.804696
0.804754
0.804827
0.804869
0.804996
0.80506
0.805216
0.805258
0.805165
0.80509
0.805083
0.805051
0.805022
0.805001
0.804983
0.804967
0.804957
0.804965
0.804988
0.805019
0.805049
0.805095
0.805113
0.805151
0.805184
0.805204
0.805222
0.805228
0.80523
0.805218
0.805206
0.805183
0.805157
0.805122
0.805095
0.805052
0.805026
0.804977
0.804943
0.804901
0.804879
0.804856
0.804851
0.804874
0.80485
0.804895
0.804904
0.804949
0.804959
0.804947
0.804932
0.804899
0.804861
0.804798
0.804725
0.804646
0.804564
0.804485
0.804412
0.804345
0.804306
0.804243
0.804237
0.804194
0.804189
0.804019
0.804149
0.804107
0.804068
0.804003
0.80392
0.803822
0.803715
0.803602
0.803486
0.803371
0.803263
0.803175
0.802871
0.802816
0.802742
0.802687
0.802621
0.802548
0.802463
0.802368
0.802262
0.802146
0.802011
0.801861
0.80171
0.801555
0.801413
0.801263
0.801124
0.800999
0.800905
0.800803
0.8007
0.800591
0.800475
0.800349
0.800212
0.800064
0.799905
0.799738
0.79956
0.79938
0.799194
0.799016
0.798853
0.798704
0.798549
0.798409
0.798269
0.798125
0.797975
0.797817
0.797651
0.797476
0.797292
0.797099
0.7969
0.796698
0.796493
0.796204
0.614701
0.615021
0.615277
0.616838
0.619183
0.621232
0.622602
0.623353
0.623574
0.623623
0.62359
0.623501
0.623392
0.623294
0.623204
0.623122
0.623042
0.62296
0.62287
0.622766
0.622635
0.622485
0.622322
0.622136
0.621776
0.62153
0.621282
0.62116
0.621148
0.621058
0.620971
0.620964
0.621032
0.621282
0.621839
0.622692
0.624023
0.625773
0.62814
0.631065
0.63454
0.638711
0.643145
0.648416
0.654352
0.660896
0.668194
0.675575
0.683817
0.692188
0.701672
0.709669
0.718876
0.727806
0.738101
0.745881
0.754328
0.764066
0.771592
0.780568
0.787025
0.79485
0.800402
0.806479
0.811483
0.816715
0.821139
0.825203
0.82853
0.831554
0.833884
0.836175
0.837688
0.839402
0.840544
0.841499
0.842429
0.842462
0.843532
0.843035
0.843386
0.842797
0.84293
0.84211
0.842011
0.841065
0.840749
0.839743
0.83927
0.838309
0.837638
0.836702
0.836014
0.835114
0.834476
0.833619
0.832888
0.832044
0.831392
0.830676
0.830091
0.829494
0.828963
0.82839
0.827897
0.827417
0.827005
0.826606
0.82624
0.825854
0.825514
0.825159
0.824826
0.824499
0.82416
0.823923
0.823688
0.823451
0.823242
0.822962
0.822794
0.822578
0.822266
0.821931
0.821691
0.821451
0.821228
0.820992
0.820776
0.820542
0.820334
0.820132
0.819967
0.819803
0.819645
0.819502
0.819335
0.819204
0.819069
0.818927
0.818787
0.818641
0.818493
0.818339
0.818185
0.818026
0.817871
0.81771
0.817558
0.817394
0.817241
0.817072
0.816927
0.816776
0.816645
0.816516
0.816408
0.816318
0.816193
0.816127
0.816034
0.81597
0.815887
0.815784
0.815677
0.815559
0.815437
0.815297
0.815149
0.814996
0.814843
0.814691
0.814549
0.814413
0.814302
0.81417
0.81409
0.813988
0.813804
0.813716
0.813624
0.813517
0.81353
0.81341
0.813274
0.813123
0.812964
0.812803
0.81264
0.812479
0.812325
0.812047
0.811893
0.811788
0.811671
0.811567
0.811455
0.811338
0.811211
0.811075
0.810929
0.810775
0.810605
0.810421
0.810236
0.810048
0.809874
0.809693
0.809526
0.809355
0.809231
0.809098
0.808962
0.80882
0.808673
0.808517
0.808351
0.808175
0.807988
0.807795
0.807592
0.807387
0.807178
0.806976
0.806782
0.806611
0.806434
0.806264
0.806101
0.805932
0.805758
0.805576
0.805387
0.80519
0.804984
0.80477
0.804551
0.804329
0.804104
0.803786
0.614738
0.61542
0.616101
0.618076
0.620199
0.621816
0.622796
0.623202
0.623314
0.623313
0.623234
0.623108
0.622974
0.622848
0.622728
0.622615
0.622504
0.622392
0.622277
0.622154
0.622016
0.62187
0.621724
0.621425
0.62127
0.621217
0.621255
0.62116
0.621148
0.621157
0.621289
0.621612
0.622287
0.623287
0.624822
0.626836
0.629522
0.632859
0.637073
0.642052
0.647507
0.653975
0.660663
0.668507
0.677239
0.686252
0.696609
0.706207
0.717398
0.728601
0.741847
0.751813
0.763645
0.773742
0.78508
0.795422
0.803758
0.814354
0.822505
0.831469
0.838394
0.845355
0.851023
0.856432
0.861056
0.865245
0.869188
0.87206
0.874981
0.876838
0.878566
0.88031
0.880428
0.882691
0.882117
0.883404
0.883207
0.882884
0.883484
0.882302
0.882643
0.881409
0.88117
0.879795
0.879413
0.877999
0.877283
0.875865
0.874913
0.873518
0.872372
0.87095
0.869829
0.86842
0.867216
0.865818
0.864467
0.863035
0.861765
0.860451
0.859259
0.858045
0.856879
0.855673
0.854549
0.853447
0.852424
0.851428
0.850493
0.849549
0.848699
0.847853
0.847076
0.84631
0.845599
0.844983
0.844367
0.843773
0.843147
0.842485
0.841897
0.841381
0.840783
0.840146
0.839626
0.839141
0.83867
0.838185
0.837724
0.837243
0.836798
0.83635
0.835965
0.835565
0.835192
0.834823
0.834441
0.834112
0.833781
0.83345
0.833125
0.832802
0.832481
0.832159
0.831842
0.831521
0.831218
0.830908
0.830611
0.830303
0.830006
0.829697
0.829423
0.829143
0.828887
0.828636
0.828402
0.828181
0.82794
0.827744
0.82753
0.827344
0.827147
0.826936
0.826722
0.826502
0.826284
0.826053
0.825816
0.825576
0.825339
0.825102
0.824879
0.824661
0.824465
0.824254
0.824089
0.82383
0.823664
0.823495
0.823327
0.823148
0.822972
0.822875
0.822674
0.82246
0.82224
0.82202
0.821802
0.821586
0.821376
0.821074
0.820865
0.820703
0.820531
0.820369
0.820202
0.820031
0.819854
0.819669
0.819475
0.819276
0.819063
0.818838
0.818612
0.818384
0.818172
0.817953
0.817748
0.81753
0.817367
0.817196
0.817019
0.816839
0.816654
0.816461
0.816261
0.816051
0.815832
0.815607
0.815374
0.81514
0.814903
0.814672
0.814443
0.814244
0.81404
0.813836
0.813645
0.813447
0.813245
0.813036
0.81282
0.812596
0.812365
0.812126
0.811883
0.811638
0.811389
0.811038
0.614829
0.615862
0.616963
0.619007
0.620825
0.622085
0.622781
0.622999
0.623051
0.623016
0.622904
0.622758
0.62261
0.622468
0.622333
0.622202
0.622076
0.621951
0.621829
0.621705
0.621582
0.621466
0.621371
0.621236
0.62127
0.621217
0.621255
0.621282
0.621472
0.621848
0.62258
0.623659
0.625322
0.627513
0.63051
0.634238
0.638812
0.644293
0.650871
0.658529
0.666125
0.675329
0.685158
0.695667
0.707692
0.71936
0.733915
0.746018
0.760583
0.773233
0.78857
0.799837
0.813385
0.82388
0.835295
0.84642
0.855459
0.864259
0.87288
0.880172
0.88707
0.892083
0.897641
0.900837
0.90592
0.907005
0.91108
0.9113
0.914431
0.914043
0.91613
0.915905
0.916182
0.916948
0.915824
0.917429
0.915898
0.916719
0.915501
0.914036
0.914785
0.913205
0.91302
0.911539
0.911221
0.909644
0.909008
0.907487
0.906612
0.905078
0.904027
0.902484
0.901309
0.899749
0.898458
0.896855
0.895281
0.89362
0.892035
0.890428
0.888894
0.887316
0.885747
0.88412
0.882537
0.880967
0.879464
0.877965
0.876518
0.87508
0.873724
0.872381
0.871112
0.869888
0.86876
0.867719
0.866692
0.86566
0.864592
0.86349
0.862465
0.861568
0.86067
0.859717
0.85887
0.858103
0.857347
0.856577
0.855835
0.855078
0.854367
0.853638
0.852998
0.852333
0.851713
0.85109
0.850458
0.849902
0.849344
0.848797
0.848263
0.847736
0.847218
0.846702
0.8462
0.8457
0.845228
0.84475
0.844288
0.843818
0.843359
0.842892
0.842471
0.842043
0.841646
0.841257
0.840881
0.840516
0.840138
0.839798
0.839444
0.83912
0.838794
0.83846
0.838126
0.837787
0.83746
0.837125
0.836788
0.836449
0.836115
0.835784
0.835466
0.835156
0.834864
0.834491
0.83423
0.833957
0.833695
0.833433
0.833178
0.832916
0.832658
0.832392
0.832197
0.831911
0.831619
0.831333
0.831051
0.830771
0.830409
0.830147
0.829874
0.829647
0.829411
0.829181
0.828951
0.828719
0.828482
0.828241
0.827991
0.827739
0.827476
0.827204
0.826931
0.826656
0.826399
0.826136
0.825885
0.825617
0.825407
0.825189
0.824967
0.824742
0.824512
0.824278
0.824037
0.823788
0.823532
0.823269
0.823002
0.822734
0.822464
0.822199
0.82193
0.8217
0.821463
0.821222
0.820997
0.820766
0.820531
0.82029
0.820043
0.81979
0.819529
0.819262
0.818991
0.818719
0.818444
0.818054
0.614938
0.616283
0.617734
0.619666
0.6212
0.622186
0.622641
0.622787
0.622803
0.622739
0.622608
0.622454
0.622302
0.622156
0.622017
0.621884
0.621757
0.621636
0.621523
0.621421
0.621337
0.621284
0.621284
0.621236
0.621286
0.62134
0.621553
0.621941
0.622687
0.623785
0.625494
0.627765
0.630876
0.634782
0.639768
0.645803
0.652814
0.660765
0.670053
0.680917
0.69093
0.703155
0.717248
0.730501
0.74669
0.760743
0.77812
0.791717
0.808543
0.821506
0.837699
0.849623
0.863669
0.874216
0.885148
0.894816
0.904205
0.90948
0.918749
0.922373
0.929157
0.930775
0.936311
0.936177
0.940835
0.939027
0.942503
0.940501
0.943143
0.940962
0.942758
0.940575
0.941877
0.939616
0.939833
0.938939
0.936979
0.938299
0.936353
0.934883
0.935731
0.933684
0.933874
0.932155
0.932108
0.930442
0.930226
0.928792
0.928416
0.927052
0.926573
0.925249
0.924688
0.923417
0.922589
0.92131
0.92017
0.918826
0.917604
0.91627
0.915025
0.913629
0.912177
0.910633
0.909068
0.907467
0.905838
0.90419
0.902531
0.900871
0.899217
0.897571
0.895958
0.894425
0.892934
0.891525
0.890134
0.888693
0.887213
0.885696
0.884237
0.882903
0.881713
0.880457
0.879277
0.878196
0.877132
0.876056
0.875015
0.873954
0.872948
0.871918
0.87099
0.870033
0.869137
0.868237
0.867335
0.866527
0.865718
0.864934
0.864168
0.863418
0.862681
0.861956
0.861247
0.860554
0.859894
0.85923
0.858586
0.857936
0.857298
0.856656
0.856074
0.855482
0.85493
0.854386
0.853853
0.853331
0.852691
0.852199
0.851695
0.851213
0.850751
0.850283
0.849911
0.849441
0.848991
0.848539
0.848094
0.847646
0.847204
0.846767
0.846346
0.84593
0.845453
0.845048
0.844682
0.844307
0.843941
0.843573
0.843221
0.842867
0.842517
0.842166
0.841807
0.84144
0.841151
0.84079
0.840354
0.840003
0.839655
0.839319
0.838975
0.838675
0.838366
0.83806
0.83776
0.837458
0.837155
0.836849
0.836537
0.836224
0.835905
0.83558
0.835254
0.834927
0.834618
0.834305
0.834001
0.833681
0.833415
0.833145
0.83287
0.832594
0.832315
0.832033
0.831747
0.831454
0.831154
0.83085
0.830543
0.830236
0.829929
0.829625
0.829315
0.829046
0.828772
0.828489
0.828226
0.827958
0.827686
0.827409
0.827127
0.82684
0.826546
0.826248
0.825946
0.825644
0.825339
0.824905
0.615246
0.616723
0.618396
0.62014
0.621421
0.622189
0.622484
0.622578
0.622572
0.622488
0.62235
0.622198
0.622051
0.621911
0.621779
0.621656
0.621543
0.621442
0.621359
0.621303
0.621263
0.621284
0.621284
0.621349
0.621555
0.621919
0.622615
0.623655
0.625309
0.627541
0.630672
0.634639
0.639692
0.645846
0.65328
0.662119
0.672132
0.682577
0.694753
0.709047
0.722489
0.738064
0.756882
0.772021
0.791259
0.806619
0.825977
0.840131
0.858236
0.870728
0.887336
0.898364
0.911831
0.920725
0.930959
0.937328
0.94583
0.947393
0.957939
0.955574
0.96233
0.960851
0.965351
0.962532
0.966115
0.962298
0.96495
0.960937
0.962509
0.958503
0.959788
0.955918
0.95696
0.953171
0.953986
0.9512
0.949331
0.949558
0.947142
0.947675
0.946071
0.94372
0.944336
0.942333
0.942327
0.940634
0.940708
0.939269
0.939187
0.937929
0.937892
0.936759
0.936727
0.93567
0.935393
0.934422
0.933976
0.933073
0.932585
0.931778
0.931232
0.930439
0.929699
0.928772
0.927902
0.926911
0.925857
0.924745
0.923572
0.922346
0.921046
0.919712
0.918343
0.916969
0.915569
0.914221
0.912788
0.911237
0.909596
0.907891
0.906148
0.904584
0.903092
0.901648
0.900212
0.898846
0.897512
0.896173
0.894865
0.893536
0.892244
0.890931
0.889717
0.888477
0.887306
0.886129
0.884955
0.883883
0.882809
0.881778
0.880765
0.879779
0.878804
0.877853
0.876924
0.876024
0.875156
0.874297
0.873454
0.87261
0.87178
0.870951