/*--------------------------------*- C++ -*----------------------------------*\
| =========                 |                                                 |
| \\      /  F ield         | OpenFOAM: The Open Source CFD Toolbox           |
|  \\    /   O peration     | Version:  2312                                  |
|   \\  /    A nd           | Website:  www.openfoam.com                      |
|    \\/     M anipulation  |                                                 |
\*---------------------------------------------------------------------------*/
FoamFile
{
    version     2.0;
    format      ascii;
    arch        "LSB;label=32;scalar=64";
    class       volScalarField;
    location    "0.004";
    object      nut;
}
// * * * * * * * * * * * * * * * * * * * * * * * * * * * * * * * * * * * * * //

dimensions      [0 2 -1 0 0 0 0];

internalField   nonuniform List<scalar> 
48128
(
3.34261e-06
4.33018e-06
5.80226e-06
5.89335e-06
5.44531e-06
4.73785e-06
3.92989e-06
3.15743e-06
2.43722e-06
1.69574e-06
3.91717e-06
2.47357e-05
8.17603e-05
0.000150239
0.000208629
0.000257345
0.000298697
0.000334822
0.000367578
0.000398134
0.00042735
0.000455848
0.00048396
0.000511864
0.000539805
0.000567927
0.000596435
0.000625773
0.000655913
0.000687326
0.000719667
0.000752945
0.000787399
0.000822986
0.000859523
0.000897769
0.000937894
0.000980007
0.00102186
0.00106496
0.00110782
0.00114934
0.00119051
0.00123198
0.00127279
0.00131197
0.00134759
0.0013831
0.00141435
0.00144263
0.00146358
0.00148664
0.00150376
0.00152131
0.00152952
0.00155325
0.0015821
0.00160639
0.00162803
0.0016447
0.00165839
0.00166833
0.00167527
0.00168044
0.00168403
0.00168646
0.00168731
0.00168676
0.00167476
0.00157793
0.00149015
0.00141174
0.00134175
0.00127754
0.00121966
0.00116596
0.00111734
0.00107231
0.00103103
0.000992695
0.000957456
0.000925075
0.000894707
0.000866766
0.000840538
0.0008165
0.000793742
0.000772921
0.000753143
0.000734975
0.000717682
0.00070179
0.000686749
0.000672753
0.000659438
0.000646881
0.000634964
0.000623962
0.000613875
0.000604574
0.000595923
0.000587712
0.000579846
0.000572376
0.000565416
0.000558877
0.00055284
0.00054714
0.000541838
0.000536819
0.000532188
0.000527831
0.00052384
0.000520064
0.000516551
0.000513201
0.000509891
0.000506457
0.000503126
0.000499263
0.000496243
0.000495169
0.000492912
0.00049046
0.00048918
0.000487504
0.000485692
0.000483907
0.000482073
0.000480288
0.00047852
0.000476872
0.000475293
0.000473795
0.000472346
0.000470935
0.000469649
0.000468513
0.00046745
0.000466445
0.000465484
0.000464592
0.000463739
0.000462932
0.00046217
0.000461464
0.000460747
0.000460018
0.000459239
0.000458441
0.000457617
0.000456831
0.000456063
0.000455315
0.000454543
0.000453765
0.000452968
0.000452131
0.00045131
0.000450577
0.00044981
0.000449207
0.000448791
0.000448328
0.000447879
0.000447507
0.000447125
0.000446788
0.00044641
0.000446014
0.000445569
0.000445091
0.000444592
0.00044407
0.000443537
0.000443006
0.000442507
0.00044205
0.000441594
0.000441216
0.000440932
0.00044068
0.000440442
0.000440263
0.000440069
0.000439847
0.000439613
0.000439364
0.000439085
0.000438763
0.000438381
0.000437999
0.000437623
0.000437245
0.00043691
0.000436614
0.000436389
0.000436197
0.000436031
0.000435881
0.000435735
0.000435591
0.000435449
0.000435286
0.000435085
0.000434856
0.000434584
0.00043432
0.000434042
0.000433644
0.000433411
0.000433195
0.000432991
0.000432833
0.000432695
0.000432575
0.000432463
0.000432344
0.00043221
0.000432063
0.000431909
0.00043172
0.000431525
0.000431283
0.000430995
0.000430785
0.000430566
0.000430347
0.000430189
0.000430045
0.000429907
0.000429783
0.000429665
0.000429544
0.000429414
0.000429273
0.00042912
0.000428953
0.000428766
0.000428462
2.51181e-05
1.97284e-05
1.37782e-05
9.25278e-06
6.87762e-06
5.63052e-06
5.75954e-06
9.78456e-06
2.0641e-05
3.85464e-05
8.26276e-05
0.000170045
0.000311561
0.000534131
0.000785253
0.00105593
0.00133333
0.0016058
0.00187341
0.00213785
0.00240445
0.00267516
0.00295866
0.00325247
0.00356257
0.00388719
0.00422938
0.00459032
0.00495158
0.00534658
0.00575919
0.0061723
0.0065968
0.00702698
0.00744189
0.00785483
0.00821554
0.00859221
0.008952
0.00930987
0.00966134
0.00998409
0.0102864
0.0105693
0.0108181
0.0110503
0.0112502
0.0114528
0.0116294
0.0117962
0.0118968
0.0120157
0.0120926
0.0121744
0.0121861
0.0121821
0.0121533
0.0120909
0.0120121
0.0119122
0.0117955
0.0116612
0.0115159
0.0113643
0.0112094
0.0110536
0.0108926
0.0107282
0.0105606
0.0103981
0.0102443
0.0100859
0.00993314
0.00977593
0.00962051
0.00946578
0.00930714
0.00915136
0.00899406
0.00884019
0.00868308
0.0085334
0.00838371
0.00824105
0.0080962
0.00795801
0.00781827
0.00768527
0.00755184
0.00742556
0.00729967
0.00717973
0.00706149
0.00694824
0.00683759
0.00673044
0.00662521
0.00652236
0.00642232
0.0063257
0.00623255
0.00614338
0.00605725
0.00597315
0.00589228
0.00581321
0.00573764
0.00566378
0.00559358
0.00552482
0.00545978
0.00539621
0.00533639
0.0052779
0.00522332
0.00516938
0.00511944
0.00506816
0.00501978
0.0049692
0.00492351
0.00487847
0.0048326
0.00478918
0.00475019
0.00471352
0.00467876
0.00464675
0.00461499
0.00458415
0.00455326
0.0045234
0.00449381
0.00446509
0.00443639
0.00440858
0.00438078
0.0043545
0.00432843
0.00430393
0.00427987
0.00425718
0.00423511
0.00421409
0.00419415
0.0041655
0.0041371
0.00410861
0.00408057
0.00405335
0.00402654
0.00400039
0.00397457
0.00394989
0.00392608
0.00390311
0.00388087
0.00385905
0.00383834
0.00381762
0.00379776
0.00377739
0.00375713
0.00373756
0.0037177
0.00369914
0.00368019
0.00366302
0.00364581
0.00362978
0.00361477
0.00360014
0.00358722
0.00357375
0.0035627
0.00355097
0.00354061
0.00352978
0.00351926
0.00350866
0.00349719
0.00348637
0.00347475
0.00346465
0.00345434
0.00344449
0.00343495
0.00342588
0.00341729
0.00340973
0.00340254
0.00339647
0.00338928
0.00338433
0.00337843
0.00337291
0.00336662
0.00336027
0.00335383
0.00334737
0.00334094
0.00333459
0.00332848
0.00332274
0.00331763
0.00331287
0.00330861
0.00330496
0.00330073
0.00329843
0.00329511
0.00329161
0.00328823
0.00328436
0.00328032
0.00327601
0.00327193
0.00326771
0.00326383
0.00326001
0.00325647
0.00325363
0.00325072
0.00324843
0.00324674
0.00324465
0.00324241
0.0032406
0.00323836
0.00323586
0.00323314
0.00323029
0.00322743
0.00322466
0.0032219
0.00321945
0.00321707
0.00321512
0.00321338
0.00321133
3.35194e-05
3.74835e-05
3.99198e-05
2.82537e-05
1.90392e-05
2.04955e-05
3.77752e-05
7.57191e-05
0.000139751
0.000249342
0.000447328
0.000813103
0.001395
0.00223101
0.00315714
0.00408713
0.00495228
0.00574899
0.00648688
0.00718494
0.00786432
0.00851322
0.0091803
0.00984387
0.0105234
0.0112108
0.0119111
0.0126261
0.0133377
0.0140643
0.0147864
0.0154942
0.016197
0.0168735
0.0174976
0.0181055
0.018669
0.0192349
0.0197524
0.0202444
0.0207141
0.0211267
0.0214893
0.02181
0.0220626
0.022278
0.0224269
0.0225707
0.0226661
0.0227439
0.0227177
0.0227055
0.0226373
0.0225663
0.0224078
0.0222462
0.022053
0.0218239
0.0215738
0.0213044
0.0210125
0.0207022
0.0203828
0.0200598
0.0197376
0.0194197
0.0191008
0.0187841
0.0184669
0.0181474
0.0178372
0.0175225
0.0172235
0.016922
0.0166321
0.0163449
0.0160622
0.0157838
0.0155092
0.0152417
0.0149735
0.0147169
0.0144623
0.0142193
0.0139749
0.0137419
0.013508
0.0132854
0.0130628
0.0128516
0.0126416
0.0124412
0.0122436
0.0120537
0.0118674
0.0116862
0.0115084
0.0113346
0.0111654
0.0110013
0.0108424
0.0106888
0.0105394
0.0103928
0.0102512
0.0101121
0.00997844
0.00984694
0.00972135
0.00959727
0.00947931
0.00936291
0.00925275
0.00914388
0.00904168
0.00893911
0.00884438
0.00874517
0.00865218
0.00855565
0.00846512
0.00837879
0.0082903
0.00820342
0.00812582
0.00805107
0.00797886
0.00791076
0.0078429
0.007777
0.00771118
0.00764731
0.0075841
0.00752265
0.00746144
0.00740183
0.00734257
0.00728569
0.00722976
0.00717605
0.00712327
0.00707265
0.00702312
0.00697565
0.00692935
0.00688542
0.00684259
0.00680183
0.00676152
0.00672294
0.00668472
0.00664778
0.00661181
0.00657703
0.00654308
0.00650964
0.00647668
0.00644344
0.00641021
0.00637713
0.00634457
0.0063124
0.00628177
0.00625135
0.00622229
0.00619434
0.00616803
0.0061427
0.0061188
0.00609579
0.00607373
0.00605234
0.00603154
0.00601118
0.00599088
0.00597032
0.00594976
0.00592924
0.00590857
0.00588803
0.00586781
0.00584821
0.00582938
0.00581188
0.0057953
0.00577959
0.00576462
0.00575079
0.00573757
0.00572507
0.00571239
0.00569997
0.00568693
0.00567448
0.0056616
0.00564871
0.00563558
0.00562279
0.00561021
0.00559824
0.00558706
0.00557651
0.00556699
0.00555819
0.00554995
0.00554225
0.00553448
0.00552742
0.00551927
0.00551177
0.0055042
0.00549592
0.00548761
0.0054792
0.00547109
0.00546291
0.00545569
0.00544865
0.00544253
0.00543659
0.00543164
0.00542672
0.00542247
0.00541776
0.00541323
0.00540869
0.00540368
0.00539855
0.00539335
0.00538806
0.00538277
0.00537752
0.00537255
0.00536819
0.00536403
0.00536058
0.00535732
0.00535468
0.00535209
0.00534811
3.97754e-05
6.22778e-05
8.38706e-05
6.13445e-05
5.58571e-05
8.73006e-05
0.000154505
0.000274515
0.000473538
0.000826912
0.00146999
0.00248946
0.00388502
0.00554028
0.00713351
0.00857866
0.00985285
0.0110065
0.0120629
0.013042
0.0139881
0.0148988
0.0158173
0.0167246
0.0176399
0.0185555
0.0194718
0.0203864
0.0212859
0.0221776
0.0230408
0.0238738
0.0246625
0.0254112
0.0260952
0.0267394
0.0273313
0.0278987
0.0283915
0.0288264
0.0292173
0.0295374
0.0297886
0.0299859
0.0301006
0.0301585
0.0301331
0.0300849
0.0299848
0.0298528
0.0296238
0.0293908
0.0291119
0.0288206
0.0284628
0.028109
0.0277216
0.027317
0.0268994
0.0264697
0.0260259
0.0255768
0.0251293
0.0246863
0.0242516
0.0238281
0.0234122
0.0230082
0.0226113
0.0222155
0.0218378
0.0214603
0.021104
0.0207482
0.0204104
0.0200759
0.0197555
0.0194396
0.0191329
0.0188345
0.0185407
0.0182584
0.0179811
0.0177147
0.0174506
0.017197
0.016946
0.0167051
0.0164668
0.0162385
0.0160135
0.0157976
0.0155855
0.0153808
0.0151794
0.0149825
0.0147894
0.0146002
0.0144166
0.0142381
0.0140652
0.0138968
0.0137324
0.0135704
0.0134133
0.0132585
0.0131095
0.0129623
0.0128214
0.0126814
0.012548
0.0124155
0.01229
0.0121652
0.0120476
0.0119291
0.0118192
0.0117025
0.0115928
0.011479
0.0113678
0.0112677
0.0111641
0.0110594
0.0109667
0.0108773
0.0107894
0.0107052
0.0106212
0.0105392
0.0104569
0.0103767
0.010297
0.0102192
0.0101414
0.0100653
0.00998943
0.00991618
0.00984403
0.00977431
0.00970549
0.00963912
0.00957381
0.00951092
0.00944921
0.00939013
0.00933203
0.00927653
0.00922124
0.00916817
0.00911533
0.00906417
0.00901393
0.00896539
0.00891745
0.00887054
0.00882372
0.00877689
0.00872971
0.008683
0.00863675
0.00859107
0.00854718
0.00850411
0.00846223
0.00842213
0.00838395
0.00834718
0.0083121
0.00827815
0.00824543
0.00821337
0.00818208
0.00815127
0.0081205
0.00808963
0.00805867
0.00802803
0.00799693
0.00796662
0.00793661
0.00790787
0.0078797
0.00785346
0.00782806
0.00780406
0.00778085
0.00775939
0.0077383
0.00771848
0.00769827
0.00767856
0.0076583
0.00763808
0.00761782
0.00759749
0.00757738
0.0075577
0.00753842
0.00752022
0.00750294
0.00748674
0.00747148
0.0074574
0.0074439
0.00743132
0.00741875
0.00740706
0.00739399
0.00738112
0.00736853
0.00735562
0.0073427
0.00732973
0.00731731
0.00730499
0.00729392
0.00728316
0.00727351
0.00726427
0.00725622
0.00724815
0.00724135
0.00723353
0.00722592
0.00721854
0.00721066
0.00720274
0.00719481
0.00718694
0.00717906
0.00717151
0.00716429
0.0071579
0.00715177
0.00714655
0.00714159
0.00713744
0.00713336
0.00712733
4.4755e-05
0.000118766
0.000169198
0.00012135
0.000156737
0.000240523
0.000394929
0.000666161
0.00115311
0.00202241
0.00336244
0.00520778
0.00727818
0.00935451
0.0112608
0.012972
0.0145127
0.0158737
0.0171283
0.0182996
0.019424
0.0205088
0.021585
0.0226424
0.0236939
0.0247321
0.0257532
0.0267537
0.0277202
0.0286544
0.0295346
0.0303546
0.0311109
0.0318112
0.0324333
0.0329974
0.0334974
0.0339466
0.0343077
0.0345788
0.0347901
0.0349238
0.0349835
0.0349774
0.034872
0.0346871
0.0344155
0.0341039
0.0337499
0.0333507
0.0328796
0.032396
0.0318883
0.0313584
0.0306459
0.0300791
0.0292929
0.0287022
0.0280606
0.027463
0.0269275
0.0264049
0.0259978
0.0255734
0.025205
0.0247746
0.024436
0.0241055
0.0237451
0.0233428
0.0229561
0.022575
0.0222147
0.0218579
0.0215243
0.0211941
0.020886
0.0205815
0.0202937
0.0200142
0.0197467
0.0194881
0.0192392
0.0189974
0.018762
0.0185333
0.0183109
0.0180952
0.0178848
0.0176814
0.0174837
0.0172926
0.0171065
0.016926
0.0167484
0.0165736
0.0164025
0.0162342
0.0160712
0.0159122
0.0157583
0.0156078
0.0154606
0.015315
0.0151736
0.0150338
0.014899
0.0147654
0.0146373
0.0145095
0.0143875
0.0142658
0.0141503
0.0140351
0.0139263
0.0138165
0.013714
0.0136053
0.0135015
0.0133945
0.0132853
0.0131919
0.0130958
0.0129964
0.0129072
0.0128218
0.0127373
0.0126556
0.012574
0.0124943
0.0124139
0.0123352
0.0122566
0.0121795
0.0121023
0.0120263
0.0119502
0.0118765
0.0118036
0.011733
0.011663
0.0115952
0.0115282
0.0114635
0.0113998
0.0113386
0.0112782
0.0112203
0.0111624
0.0111066
0.0110507
0.0109966
0.0109428
0.0108912
0.0108394
0.0107891
0.0107381
0.0106874
0.0106358
0.0105849
0.0105339
0.0104835
0.0104349
0.0103874
0.0103408
0.0102962
0.0102534
0.0102123
0.010173
0.0101348
0.0100979
0.0100616
0.010026
0.00999076
0.00995542
0.00991994
0.00988424
0.0098489
0.0098127
0.00977754
0.00974264
0.00970944
0.00967653
0.00964585
0.00961604
0.00958798
0.00956063
0.00953527
0.00951018
0.00948647
0.00946222
0.00943847
0.00941398
0.00938987
0.00936521
0.00934063
0.00931633
0.00929256
0.00926924
0.0092474
0.00922638
0.00920686
0.00918813
0.00917102
0.00915433
0.00913884
0.00912326
0.00910873
0.00909281
0.00907675
0.00906085
0.00904489
0.00902892
0.00901291
0.00899771
0.00898269
0.00896917
0.00895604
0.00894422
0.00893285
0.00892301
0.00891301
0.00890459
0.008895
0.00888553
0.00887632
0.00886663
0.0088569
0.00884715
0.00883769
0.00882819
0.00881921
0.00881064
0.00880312
0.00879589
0.00878975
0.00878394
0.00877903
0.00877427
0.00876732
4.91611e-05
0.000222752
0.000292677
0.000231427
0.000315833
0.000483276
0.000790191
0.0013426
0.00234042
0.0038705
0.00594401
0.00827981
0.0106697
0.0129457
0.0150188
0.0169137
0.0185672
0.0200656
0.0214487
0.0227403
0.0239726
0.025157
0.0263149
0.0274433
0.0285474
0.0296221
0.03066
0.0316564
0.0325969
0.033478
0.0342794
0.0350083
0.035656
0.0362302
0.036712
0.0371046
0.0374188
0.0376581
0.0377995
0.0378187
0.0377662
0.0376261
0.0374223
0.0371496
0.0364638
0.035418
0.0344216
0.033348
0.0322997
0.0311826
0.0302993
0.0294432
0.0285186
0.0277002
0.0268469
0.0264342
0.0256683
0.0249976
0.024456
0.0237772
0.0233472
0.0227877
0.0224604
0.022037
0.0217117
0.021295
0.020987
0.0206851
0.0204165
0.0202129
0.0199827
0.0198426
0.0196701
0.0195378
0.0194158
0.0192939
0.019232
0.0191442
0.0190909
0.0190431
0.0190331
0.0189897
0.0188556
0.0186669
0.0184876
0.0183103
0.0181423
0.0179773
0.0178201
0.0176668
0.0175194
0.0173762
0.0172386
0.0171039
0.0169712
0.0168396
0.0167109
0.0165829
0.0164594
0.0163382
0.0162215
0.0161068
0.0159947
0.0158833
0.0157747
0.0156668
0.0155625
0.0154587
0.015359
0.0152591
0.0151634
0.0150675
0.0149763
0.0148849
0.0147986
0.0147111
0.0146293
0.014542
0.0144581
0.0143715
0.0142798
0.0142043
0.0141277
0.0140476
0.013973
0.0139029
0.0138339
0.0137664
0.0136991
0.0136332
0.0135664
0.0135009
0.0134349
0.01337
0.0133047
0.0132404
0.0131755
0.0131124
0.0130499
0.0129891
0.0129286
0.01287
0.0128119
0.0127555
0.0126999
0.0126463
0.0125934
0.0125425
0.0124916
0.0124424
0.0123929
0.012345
0.012297
0.012251
0.0122044
0.0121594
0.0121131
0.0120674
0.0120202
0.0119736
0.0119267
0.0118797
0.0118346
0.0117907
0.0117473
0.0117057
0.0116655
0.0116272
0.0115903
0.0115546
0.01152
0.0114859
0.0114524
0.011419
0.0113855
0.0113515
0.0113175
0.0112834
0.0112484
0.0112143
0.0111803
0.0111481
0.0111159
0.0110861
0.0110571
0.0110298
0.0110032
0.0109785
0.010954
0.0109308
0.010907
0.0108836
0.0108593
0.0108355
0.0108108
0.0107863
0.0107618
0.0107381
0.0107146
0.0106928
0.0106715
0.0106521
0.0106332
0.0106162
0.0105995
0.0105841
0.0105685
0.0105539
0.0105381
0.0105218
0.0105056
0.0104893
0.0104732
0.0104568
0.0104414
0.0104262
0.0104126
0.0103993
0.0103876
0.0103762
0.0103666
0.0103567
0.0103485
0.0103392
0.0103298
0.0103207
0.0103112
0.0103015
0.0102918
0.0102825
0.0102731
0.0102643
0.0102561
0.0102489
0.0102421
0.0102365
0.0102313
0.010227
0.0102229
0.010217
5.36561e-05
0.000344904
0.000418733
0.000377912
0.000546318
0.000855618
0.00140108
0.00241577
0.00400593
0.00616861
0.00863159
0.0112314
0.0137673
0.0161364
0.018325
0.020267
0.0219923
0.0235713
0.0250257
0.0263801
0.0276617
0.028884
0.0300616
0.0311952
0.0322857
0.0333289
0.0343155
0.0352389
0.0360833
0.0368448
0.0375097
0.0380809
0.0385512
0.0389219
0.0391898
0.03935
0.0394197
0.0393972
0.0392779
0.0383327
0.0372368
0.0358645
0.0347058
0.0335621
0.0325065
0.0313224
0.0302629
0.0291768
0.0281424
0.0270963
0.026158
0.0254477
0.0245324
0.0237839
0.022846
0.0225218
0.0218098
0.0209808
0.0204911
0.0197942
0.0193648
0.0187982
0.0184752
0.0180429
0.0177333
0.017343
0.0170471
0.0167632
0.0165291
0.0163457
0.0161618
0.0160576
0.0159312
0.0158538
0.0157794
0.0157222
0.0157082
0.0156812
0.01569
0.0157112
0.0157485
0.0157767
0.0158262
0.0158775
0.0159431
0.0159953
0.0160672
0.0161311
0.0161963
0.0162656
0.016342
0.0163569
0.0162869
0.0162145
0.0161427
0.0160693
0.0159974
0.0159236
0.0158534
0.0157841
0.0157179
0.015652
0.0155878
0.0155226
0.0154584
0.0153934
0.01533
0.015266
0.0152043
0.0151414
0.015081
0.0150197
0.014961
0.014902
0.0148462
0.0147888
0.0147356
0.0146782
0.0146234
0.0145651
0.0145013
0.0144494
0.0143992
0.0143457
0.0142929
0.0142445
0.0141975
0.0141511
0.014105
0.0140596
0.0140134
0.0139677
0.0139213
0.0138756
0.0138292
0.0137835
0.0137369
0.0136914
0.013646
0.0136018
0.0135577
0.0135149
0.0134722
0.0134309
0.0133898
0.0133502
0.0133111
0.0132734
0.0132358
0.0131993
0.0131627
0.0131269
0.0130911
0.0130566
0.0130216
0.0129877
0.0129526
0.0129181
0.0128817
0.012846
0.0128094
0.0127722
0.0127369
0.0127027
0.0126684
0.0126356
0.0126037
0.0125736
0.0125446
0.0125166
0.0124895
0.0124629
0.0124364
0.0124101
0.0123836
0.0123564
0.0123292
0.0123016
0.0122733
0.0122454
0.0122174
0.0121909
0.0121645
0.0121403
0.0121166
0.0120946
0.0120729
0.0120531
0.0120334
0.0120149
0.0119957
0.0119768
0.0119571
0.0119374
0.011917
0.0118968
0.0118761
0.0118565
0.0118366
0.0118188
0.0118009
0.0117851
0.0117695
0.0117561
0.0117424
0.0117305
0.0117178
0.0117064
0.0116939
0.0116806
0.0116673
0.0116537
0.0116405
0.0116268
0.0116142
0.0116015
0.0115907
0.0115799
0.0115709
0.0115619
0.0115549
0.0115476
0.0115419
0.0115351
0.0115282
0.0115215
0.0115143
0.011507
0.0114996
0.0114925
0.0114855
0.011479
0.0114731
0.0114682
0.0114638
0.0114605
0.0114576
0.0114557
0.0114539
0.0114516
6.02177e-05
0.000460007
0.000571881
0.000577552
0.000887825
0.00138867
0.00230194
0.00384621
0.00597694
0.00847685
0.0111772
0.0138956
0.0164869
0.0189137
0.0211178
0.023069
0.0248305
0.0264419
0.0279211
0.0292916
0.0305738
0.0317828
0.0329283
0.0340134
0.0350366
0.0359939
0.0368751
0.0376718
0.0383671
0.0389582
0.0394329
0.0397947
0.0400425
0.0401634
0.0401764
0.039395
0.0382254
0.0370267
0.0353992
0.0341334
0.0328907
0.0314801
0.030446
0.0293738
0.0284174
0.0272978
0.0263052
0.0253957
0.0243792
0.0234264
0.0223625
0.0217751
0.0208469
0.0201159
0.0191928
0.0187198
0.0180449
0.0171479
0.0166373
0.0159615
0.0155232
0.0149849
0.0146491
0.0142323
0.0139358
0.0136002
0.0133237
0.0130771
0.0128796
0.012717
0.0125769
0.012481
0.0123908
0.012327
0.0122815
0.0122518
0.0122485
0.0122565
0.0122663
0.0123335
0.0123517
0.0124375
0.0124767
0.0126135
0.0126703
0.0128213
0.0129022
0.013066
0.0131536
0.0133235
0.0134363
0.0136071
0.0137037
0.0138627
0.0139538
0.014109
0.0142457
0.0143967
0.0144744
0.0144687
0.0144626
0.0144539
0.0144449
0.0144325
0.0144192
0.0144036
0.0143886
0.0143715
0.0143551
0.014336
0.0143177
0.0142975
0.0142778
0.0142574
0.0142374
0.0142159
0.014197
0.0141755
0.0141557
0.0141307
0.0141019
0.0140771
0.0140566
0.0140338
0.0140081
0.0139847
0.0139636
0.0139419
0.0139212
0.0138998
0.0138784
0.0138562
0.0138334
0.0138109
0.0137874
0.0137645
0.01374
0.0137161
0.0136917
0.0136681
0.0136442
0.013621
0.0135976
0.013575
0.0135523
0.0135303
0.0135088
0.0134879
0.0134674
0.0134472
0.013427
0.0134071
0.0133871
0.0133678
0.0133482
0.0133291
0.0133092
0.0132896
0.0132682
0.0132473
0.0132253
0.0132024
0.0131807
0.01316
0.0131389
0.0131188
0.0130991
0.0130808
0.0130635
0.0130467
0.0130308
0.0130151
0.0129995
0.0129839
0.0129681
0.0129516
0.0129347
0.0129177
0.0128999
0.0128822
0.012864
0.0128471
0.0128301
0.0128149
0.0128
0.0127867
0.0127734
0.0127618
0.0127501
0.0127396
0.0127284
0.0127174
0.0127056
0.0126935
0.0126808
0.0126682
0.0126549
0.0126426
0.0126298
0.012619
0.0126077
0.0125985
0.0125893
0.0125823
0.0125747
0.012569
0.0125622
0.0125568
0.0125503
0.0125428
0.0125354
0.0125275
0.0125201
0.0125119
0.0125048
0.0124974
0.012492
0.0124862
0.0124825
0.0124783
0.0124763
0.0124737
0.0124728
0.012471
0.0124688
0.0124667
0.0124643
0.0124616
0.0124587
0.0124561
0.0124536
0.0124515
0.01245
0.0124495
0.0124493
0.0124502
0.0124515
0.0124538
0.0124561
0.01246
6.81303e-05
0.000602378
0.000772264
0.000875049
0.00134491
0.00212176
0.00349032
0.00551049
0.00794561
0.0106536
0.0134691
0.0162228
0.0188228
0.021268
0.0234301
0.0253732
0.0271357
0.0287421
0.0302081
0.0315539
0.0327948
0.0339456
0.0350144
0.0360047
0.0369144
0.0377394
0.0384696
0.0390945
0.0396002
0.0399822
0.0402278
0.0403416
0.0397952
0.0384446
0.0368039
0.0351598
0.0338592
0.0325728
0.0309844
0.0298792
0.0288422
0.0276322
0.0269414
0.0258733
0.0248813
0.0238452
0.0227249
0.0219514
0.0208633
0.0199312
0.0187362
0.0180913
0.0171562
0.0164209
0.0155706
0.0148601
0.0143572
0.0136147
0.0131033
0.0125344
0.0121556
0.011724
0.0114126
0.0110909
0.0108295
0.0105961
0.0103667
0.0101972
0.0100464
0.00993852
0.0098415
0.0097639
0.00972371
0.00964831
0.00965438
0.00961977
0.00963698
0.00965945
0.00965573
0.00975372
0.0097382
0.00983915
0.00987498
0.0100018
0.0100397
0.0101732
0.0102387
0.0103764
0.0104547
0.0105929
0.0107003
0.0108427
0.0109549
0.0111066
0.0112236
0.0113968
0.0115755
0.0117549
0.0119014
0.0120567
0.01218
0.0123161
0.0124514
0.0125965
0.0127295
0.0128247
0.0128668
0.0129038
0.0129385
0.0129688
0.012998
0.0130245
0.0130495
0.0130723
0.0130934
0.0131122
0.0131317
0.0131506
0.0131688
0.0131821
0.0131924
0.0132002
0.0132118
0.0132214
0.0132272
0.0132326
0.0132399
0.0132462
0.0132534
0.0132593
0.0132653
0.0132697
0.0132735
0.0132769
0.013279
0.0132814
0.0132817
0.0132819
0.0132812
0.0132806
0.0132792
0.0132781
0.0132763
0.0132746
0.0132725
0.0132704
0.0132685
0.0132667
0.0132652
0.0132635
0.0132619
0.01326
0.0132579
0.0132561
0.0132539
0.0132519
0.0132495
0.0132468
0.0132432
0.0132393
0.0132345
0.0132284
0.0132228
0.0132178
0.0132124
0.0132073
0.0132023
0.013198
0.0131945
0.0131913
0.0131888
0.0131862
0.0131839
0.0131814
0.0131786
0.0131754
0.0131713
0.0131675
0.0131627
0.0131577
0.0131519
0.0131472
0.013142
0.0131382
0.0131346
0.0131323
0.0131297
0.0131285
0.0131273
0.013127
0.0131262
0.0131255
0.0131239
0.0131221
0.0131196
0.0131172
0.0131138
0.0131112
0.013108
0.0131066
0.0131045
0.0131042
0.0131036
0.0131052
0.013106
0.0131087
0.0131101
0.0131129
0.0131146
0.0131156
0.0131163
0.0131164
0.0131171
0.0131167
0.0131175
0.0131177
0.0131198
0.0131213
0.0131248
0.0131276
0.0131326
0.0131369
0.0131428
0.0131479
0.0131524
0.013157
0.0131614
0.0131654
0.013169
0.013173
0.0131769
0.0131812
0.013186
0.0131917
0.0131976
0.0132046
0.0132117
0.01322
0.013228
0.0132405
7.68459e-05
0.000768173
0.000947957
0.00126484
0.001943
0.00306153
0.00486896
0.00717035
0.00980132
0.012617
0.0154656
0.018209
0.0208052
0.0231974
0.025314
0.0272287
0.028963
0.0305328
0.0319509
0.0332339
0.034394
0.0354452
0.0363946
0.0372465
0.0380004
0.0386502
0.0391881
0.0396058
0.0398896
0.0400342
0.038748
0.0370768
0.0354891
0.0339249
0.032306
0.0307979
0.0297763
0.0286856
0.0273413
0.0263609
0.0256236
0.0244767
0.0237481
0.0226419
0.0214774
0.0205731
0.0192721
0.0185026
0.0173157
0.0163997
0.0152729
0.0145597
0.0137517
0.013121
0.0125222
0.0116619
0.011337
0.0108275
0.0103185
0.00991583
0.00953532
0.00927799
0.00896584
0.00874806
0.00851306
0.00839692
0.00820655
0.00813105
0.00799406
0.00796812
0.00787269
0.00784038
0.00783565
0.0077553
0.00781915
0.00775666
0.0078283
0.00780568
0.00787749
0.00788802
0.00791275
0.00795957
0.00801946
0.00808741
0.00816489
0.00824313
0.00830742
0.00837694
0.00845313
0.00852678
0.00860981
0.00868836
0.00877668
0.00886213
0.00897539
0.00909377
0.00924515
0.00937392
0.00951083
0.00963716
0.00976028
0.00989012
0.0100381
0.010189
0.0103441
0.0104966
0.0106446
0.0107911
0.0109352
0.0110755
0.0111853
0.0112664
0.0113435
0.0114148
0.0114831
0.011547
0.0116105
0.0116724
0.0117339
0.0117901
0.0118424
0.0118907
0.0119377
0.0119818
0.0120225
0.0120612
0.0120995
0.0121369
0.0121742
0.0122106
0.012246
0.0122803
0.0123133
0.0123452
0.0123759
0.0124061
0.0124339
0.0124608
0.0124861
0.0125109
0.0125342
0.0125573
0.0125789
0.0126002
0.0126205
0.0126401
0.0126593
0.0126783
0.0126972
0.0127158
0.0127342
0.0127519
0.0127691
0.0127862
0.0128028
0.0128195
0.0128358
0.0128518
0.0128672
0.012882
0.0128957
0.0129082
0.0129201
0.0129324
0.012944
0.0129552
0.0129664
0.0129775
0.0129893
0.0130008
0.0130131
0.0130252
0.0130374
0.0130494
0.0130612
0.0130725
0.0130831
0.013094
0.0131037
0.013113
0.0131212
0.0131303
0.0131386
0.0131478
0.0131568
0.013167
0.0131767
0.0131874
0.013198
0.0132094
0.0132204
0.0132315
0.0132419
0.013252
0.0132614
0.0132708
0.0132791
0.013288
0.0132962
0.0133057
0.0133145
0.0133246
0.0133344
0.013346
0.013357
0.0133693
0.0133807
0.0133932
0.0134049
0.013416
0.0134267
0.0134365
0.013447
0.0134563
0.0134667
0.0134762
0.0134875
0.013498
0.0135103
0.0135218
0.0135353
0.013548
0.0135623
0.0135758
0.0135889
0.0136018
0.0136146
0.0136268
0.0136387
0.0136509
0.0136629
0.0136753
0.0136879
0.0137013
0.0137148
0.0137294
0.0137439
0.0137596
0.0137748
0.0137982
8.49408e-05
0.000955369
0.00118481
0.00174582
0.00267641
0.00415655
0.00626532
0.00874494
0.0114767
0.0143302
0.0171626
0.0198673
0.0224332
0.0247472
0.026812
0.0286783
0.0303583
0.0318611
0.0331965
0.0343777
0.035416
0.0363249
0.0371112
0.0377815
0.0383371
0.038771
0.0390837
0.0392671
0.037798
0.0360707
0.0342172
0.0324351
0.0310356
0.0297378
0.028483
0.0272551
0.0264569
0.0254931
0.0242718
0.0232642
0.0229212
0.0216924
0.0204353
0.0195344
0.0181622
0.0173137
0.0159943
0.0152284
0.0141338
0.0134429
0.0125389
0.0117787
0.0110718
0.0104901
0.010051
0.00927145
0.00885489
0.00857379
0.00807768
0.00785195
0.00746121
0.00734364
0.00700261
0.00689193
0.0066284
0.00665045
0.00645894
0.00626796
0.0061217
0.0059677
0.00586103
0.00574934
0.00567635
0.00560526
0.00554976
0.00551537
0.00547752
0.00547151
0.00546256
0.00547147
0.00548652
0.00551022
0.00554216
0.00558343
0.00563491
0.00569495
0.00576322
0.00583998
0.00592598
0.0060179
0.00611875
0.00622611
0.00634288
0.00646613
0.00659787
0.00673544
0.00688301
0.00702783
0.00718026
0.00732881
0.0074797
0.00762908
0.00778418
0.00793915
0.00809512
0.00824893
0.00840151
0.00855011
0.00869626
0.00883706
0.00897462
0.00910495
0.00922986
0.00934836
0.00946294
0.00957312
0.00968312
0.00979088
0.00989786
0.0100006
0.0100979
0.0101904
0.0102769
0.0103591
0.0104371
0.010513
0.010585
0.0106567
0.0107264
0.0107963
0.010864
0.0109312
0.0109963
0.0110602
0.0111227
0.0111833
0.0112415
0.0112983
0.0113524
0.0114053
0.0114557
0.0115053
0.0115524
0.011599
0.0116433
0.011687
0.0117293
0.0117711
0.0118121
0.0118529
0.0118925
0.0119317
0.0119697
0.0120072
0.012044
0.012081
0.0121173
0.0121534
0.0121888
0.0122239
0.0122572
0.0122896
0.0123206
0.0123513
0.012381
0.0124098
0.0124381
0.0124656
0.0124937
0.012521
0.012549
0.0125765
0.0126042
0.0126317
0.012659
0.0126859
0.0127123
0.0127386
0.012764
0.0127886
0.0128121
0.0128359
0.0128587
0.0128818
0.0129045
0.0129279
0.0129508
0.0129743
0.0129976
0.0130216
0.0130454
0.0130693
0.0130926
0.0131156
0.0131381
0.0131603
0.0131815
0.0132029
0.0132235
0.0132449
0.0132658
0.0132873
0.0133085
0.0133309
0.0133531
0.0133761
0.0133987
0.0134217
0.0134448
0.0134669
0.0134887
0.0135095
0.013531
0.0135512
0.0135723
0.0135924
0.013614
0.0136347
0.0136569
0.0136783
0.0137014
0.0137237
0.0137473
0.0137706
0.0137934
0.0138157
0.0138382
0.0138601
0.0138815
0.0139031
0.0139244
0.013946
0.0139678
0.0139902
0.0140125
0.0140358
0.0140588
0.0140831
0.0141066
0.0141427
9.17153e-05
0.00114831
0.00151615
0.0023023
0.00350541
0.00528676
0.00757947
0.0101709
0.0129395
0.0157813
0.0185666
0.0212198
0.0237186
0.025954
0.027963
0.0297682
0.0313692
0.0327707
0.0339809
0.0350125
0.0358785
0.036595
0.0371728
0.0376151
0.0379341
0.0381223
0.0368354
0.035005
0.0331232
0.0313405
0.0297946
0.0283909
0.0274498
0.0264382
0.0253928
0.0242364
0.0235035
0.0228923
0.0218215
0.0206635
0.0202231
0.0189317
0.0172424
0.016585
0.0152465
0.0145086
0.0134092
0.0126826
0.0117057
0.0110992
0.0103553
0.0095539
0.00889853
0.00829054
0.00788401
0.00742343
0.00684451
0.00674676
0.00629366
0.00608292
0.00576007
0.00543453
0.00519094
0.00494805
0.00477226
0.00459761
0.00447529
0.00434533
0.00425523
0.00415936
0.0040937
0.00402223
0.00397898
0.00392999
0.0038987
0.00387075
0.0038412
0.00382901
0.00381436
0.00381014
0.00381182
0.00381605
0.00382608
0.00384113
0.00386227
0.00388813
0.00392029
0.00395783
0.00400229
0.00405241
0.00410989
0.00417378
0.00424425
0.00432311
0.00440782
0.00450283
0.00460288
0.00471295
0.00482737
0.00494895
0.00507624
0.0052087
0.00535002
0.0054951
0.00564611
0.00579895
0.00595608
0.0061127
0.00627169
0.00642749
0.00658453
0.00673569
0.00688621
0.00703467
0.00718128
0.00732703
0.00747343
0.00762115
0.00776733
0.00791112
0.00804973
0.00817673
0.00829961
0.00841683
0.00853134
0.00863976
0.00874728
0.00885213
0.00895666
0.00905931
0.00916215
0.00926208
0.00936204
0.0094589
0.00955587
0.00964857
0.00973926
0.00982768
0.0099128
0.0099956
0.0100753
0.0101533
0.0102282
0.0103018
0.0103724
0.0104421
0.0105092
0.0105763
0.0106409
0.010706
0.0107685
0.010831
0.0108912
0.0109512
0.0110098
0.0110686
0.0111264
0.0111846
0.0112413
0.011298
0.0113526
0.0114062
0.0114582
0.0115086