/*--------------------------------*- C++ -*----------------------------------*\
| =========                 |                                                 |
| \\      /  F ield         | OpenFOAM: The Open Source CFD Toolbox           |
|  \\    /   O peration     | Version:  2312                                  |
|   \\  /    A nd           | Website:  www.openfoam.com                      |
|    \\/     M anipulation  |                                                 |
\*---------------------------------------------------------------------------*/
FoamFile
{
    version     2.0;
    format      ascii;
    arch        "LSB;label=32;scalar=64";
    class       volScalarField;
    location    "0.004";
    object      omega;
}
// * * * * * * * * * * * * * * * * * * * * * * * * * * * * * * * * * * * * * //

dimensions      [0 0 -1 0 0 0 0];

internalField   nonuniform List<scalar> 
48128
(
2.16121e+06
2.16207e+06
2.16801e+06
2.17473e+06
2.17547e+06
2.17748e+06
2.17911e+06
2.18206e+06
2.18567e+06
2.18964e+06
2.18286e+06
2.19138e+06
2.21629e+06
2.25676e+06
2.3e+06
2.33795e+06
2.36842e+06
2.39319e+06
2.41288e+06
2.42803e+06
2.4392e+06
2.44708e+06
2.45187e+06
2.45365e+06
2.45249e+06
2.44855e+06
2.44188e+06
2.43173e+06
2.4195e+06
2.40512e+06
2.38869e+06
2.37053e+06
2.35114e+06
2.33052e+06
2.30942e+06
2.28819e+06
2.26757e+06
2.24779e+06
2.22857e+06
2.2101e+06
2.19244e+06
2.17516e+06
2.159e+06
2.14461e+06
2.13215e+06
2.11963e+06
2.10772e+06
2.09647e+06
2.0853e+06
2.07292e+06
2.05789e+06
2.04543e+06
2.031e+06
2.01808e+06
1.99998e+06
1.9957e+06
1.99774e+06
1.99788e+06
1.99741e+06
1.99438e+06
1.99021e+06
1.98414e+06
1.97662e+06
1.96861e+06
1.9602e+06
1.95164e+06
1.94253e+06
1.93291e+06
1.92244e+06
1.9105e+06
1.89804e+06
1.88505e+06
1.87253e+06
1.85989e+06
1.8474e+06
1.83507e+06
1.82261e+06
1.81039e+06
1.79814e+06
1.78601e+06
1.77371e+06
1.76198e+06
1.75025e+06
1.73923e+06
1.72816e+06
1.71772e+06
1.70722e+06
1.6973e+06
1.68735e+06
1.67803e+06
1.66882e+06
1.66012e+06
1.65162e+06
1.64358e+06
1.63588e+06
1.62863e+06
1.62176e+06
1.61527e+06
1.6091e+06
1.60313e+06
1.59735e+06
1.5918e+06
1.58655e+06
1.58153e+06
1.57685e+06
1.57239e+06
1.56824e+06
1.56422e+06
1.56046e+06
1.55684e+06
1.55345e+06
1.55018e+06
1.5471e+06
1.54408e+06
1.5412e+06
1.53838e+06
1.53568e+06
1.53301e+06
1.53063e+06
1.52791e+06
1.52739e+06
1.52578e+06
1.52371e+06
1.52235e+06
1.52054e+06
1.51858e+06
1.51658e+06
1.51468e+06
1.5128e+06
1.51108e+06
1.50945e+06
1.50801e+06
1.50667e+06
1.50547e+06
1.50436e+06
1.50334e+06
1.50247e+06
1.50167e+06
1.50089e+06
1.50012e+06
1.49938e+06
1.49864e+06
1.4979e+06
1.49715e+06
1.49643e+06
1.49565e+06
1.4948e+06
1.49387e+06
1.49288e+06
1.49185e+06
1.4908e+06
1.48977e+06
1.48872e+06
1.48769e+06
1.48665e+06
1.48565e+06
1.48467e+06
1.48375e+06
1.48292e+06
1.48225e+06
1.48159e+06
1.48121e+06
1.48076e+06
1.48029e+06
1.4798e+06
1.47926e+06
1.47865e+06
1.47796e+06
1.47718e+06
1.47631e+06
1.4754e+06
1.47445e+06
1.47353e+06
1.4726e+06
1.47179e+06
1.47102e+06
1.47039e+06
1.46986e+06
1.4694e+06
1.46907e+06
1.46877e+06
1.46845e+06
1.46812e+06
1.46771e+06
1.46722e+06
1.46665e+06
1.466e+06
1.46529e+06
1.46451e+06
1.46371e+06
1.46288e+06
1.46219e+06
1.46148e+06
1.46095e+06
1.46048e+06
1.46014e+06
1.45986e+06
1.45959e+06
1.4593e+06
1.45897e+06
1.45859e+06
1.45814e+06
1.45762e+06
1.457e+06
1.45634e+06
1.45562e+06
1.4549e+06
1.45422e+06
1.45347e+06
1.45291e+06
1.45253e+06
1.45216e+06
1.45186e+06
1.45159e+06
1.45131e+06
1.45101e+06
1.45065e+06
1.45022e+06
1.44973e+06
1.44918e+06
1.44857e+06
1.44792e+06
1.44725e+06
1.44654e+06
1.44595e+06
1.44544e+06
1.44493e+06
1.44455e+06
1.44422e+06
1.44389e+06
1.44356e+06
1.4432e+06
1.44281e+06
1.44237e+06
1.44187e+06
1.44133e+06
1.44074e+06
1.44012e+06
1.43948e+06
1.43858e+06
779842
498572
398655
414281
432565
450553
483237
524212
645770
851600
997772
1.06527e+06
1.06967e+06
965046
881748
821092
778406
750724
732608
720609
712591
707135
702873
699432
696435
693740
691262
688827
687785
685595
683179
681890
681036
680417
681378
682831
688264
692915
697979
702810
707493
712558
717494
722288
727198
731825
736544
740828
745063
748711
752090
754685
757052
758794
759823
761374
763569
765619
766792
767112
766769
765860
764276
762086
759392
756281
752861
749119
745013
740143
734663
728909
722911
716824
710672
704450
698398
692204
686239
680221
674427
668514
662837
657097
651688
646206
641064
635869
630984
626043
621454
616848
612559
608281
604232
600184
596360
592720
589342
586133
583162
580275
577518
574866
572371
570018
567820
565764
563837
562062
560389
558885
557481
556232
555061
554036
552982
551967
550872
549902
548402
548266
548031
547280
547104
546955
546763
546554
546370
546178
545981
545784
545589
545418
545253
545109
544999
544931
544937
544974
545046
545158
545304
545484
545685
545903
546121
546345
546574
546797
547029
547273
547530
547804
548063
548340
548588
548836
549092
549327
549571
549816
550176
550601
551061
551504
551997
552497
553006
553519
553985
554453
554843
555289
555580
555979
556239
556517
556814
557070
557415
557751
558173
558480
558847
559225
559604
559968
560336
560631
560902
561076
561364
561421
561535
561621
561759
561918
562100
562283
562487
562670
562879
563096
563303
563464
563626
563668
563828
563747
563672
563698
563669
563676
563704
563760
563819
563894
563955
564027
564106
564151
564181
564180
564092
563979
563907
563787
563672
563593
563508
563479
563440
563409
563378
563339
563303
563250
563164
563036
780508
367538
214138
183500
188954
213115
288095
420222
539397
603122
621194
589742
534322
478288
439017
414449
400982
393879
390624
389586
389691
391398
393139
395506
398051
400941
404087
407456
411226
415018
419209
423929
428962
434676
441345
448254
455969
463583
471530
479356
487243
495361
503247
510951
518547
525958
533248
540226
547067
553663
559728
564958
569817
573983
577497
580028
582351
584053
585008
585089
584654
583611
581908
579576
576684
573330
569580
565466
561003
556151
550949
545464
539721
533802
527756
521610
515478
509228
503126
496970
490981
484913
479033
473100
467392
461633
456131
450615
445341
440077
435062
430097
425354
420674
416166
411694
407388
403204
399211
395357
391692
388142
384719
381399
378206
375136
372188
369367
366655
364083
361591
359260
356996
354897
352852
350965
349098
347319
345502
343813
341794
340540
339271
337764
336536
335456
334395
333371
332414
331494
330599
329735
328888
328078
327287
326521
325789
325078
324415
323788
323205
322653
322148
321671
321241
320834
320454
320082
319738
319394
319073
318765
318461
318188
317912
317661
317413
317162
316935
316697
316470
316204
316030
315876
315721
315588
315478
315405
315352
315324
315309
315302
315295
315296
315283
315282
315269
315250
315227
315189
315180
315176
315178
315182
315203
315234
315275
315325
315385
315447
315513
315555
315625
315628
315639
315634
315634
315639
315647
315656
315672
315685
315713
315752
315798
315841
315901
315911
315988
315967
315930
315923
315897
315867
315836
315818
315800
315790
315779
315777
315784
315793
315794
315815
315786
315743
315713
315663
315604
315545
315481
315435
315387
315343
315301
315262
315225
315191
315149
315098
781558
290301
149599
126202
144077
212219
313321
395000
433507
437294
411129
379054
346344
318647
302337
293899
290389
289471
290309
292452
295089
298418
301891
305822
310010
314566
319441
324661
330329
336313
342813
349796
357372
365568
374349
383370
392784
402505
412603
422575
432799
443263
453354
463214
472669
482041
491120
499982
508488
516877
524457
531145
537197
542384
546840
549744
552180
553632
554249
553991
553125
551518
549148
546071
542354
538144
533473
528408
522974
517183
511055
504622
497967
491141
484200
477164
470117
462973
455978
448963
442101
435216
428491
421771
415229
408723
402439
396231
390235
384339
378653
373083
367708
362442
357337
352298
347427
342673
338107
333688
329453
325352
321381
317521
313791
310182
306700
303343
300103
296992
293974
291102
288305
285664
283088
280653
278276
275986
273693
271507
269122
267268
265432
263458
261696
260065
258479
256944
255477
254063
252688
251359
250065
248815
247599
246415
245270
244150
243080
242043
241053
240092
239180
238296
237460
236655
235895
235159
234462
233780
233128
232496
231880
231293
230722
230168
229639
229105
228604
228096
227606
227089
226642
226210
225775
225360
224965
224601
224260
223943
223650
223376
223111
222869
222623
222396
222168
221950
221731
221509
221291
221093
220890
220701
220531
220371
220222
220086
219965
219856
219756
219654
219564
219464
219365
219261
219158
219052
218954
218855
218760
218662
218583
218507
218446
218382
218338
218270
218259
218208
218139
218080
218013
217941
217867
217796
217726
217659
217595
217533
217481
217439
217386
217369
217326
217271
217228
217173
217112
217048
216980
216917
216852
216788
216725
216667
216609
216560
216507
216444
782058
218751
111851
114547
162247
244475
314993
347968
348232
328799
306552
283569
263745
250829
244397
241970
241745
243564
246268
249649
253426
257674
262208
267183
272542
278330
284579
291312
298611
306427
314865
323934
333608
343981
354920
366075
377485
389463
401939
414202
426712
439581
451838
463911
475496
487105
498312
509254
519547
529637
538796
546687
553660
559222
564263
566861
568794
569430
569139
568093
566129
563340
559629
555128
549889
544182
538019
531476
524596
517405
510012
502404
494640
486724
478717
470622
462550
454399
446383
438365
430499
422655
414975
407374
399984
392703
385670
378767
372095
365570
359254
353091
347120
341299
335637
330079
324703
319456
314417
309539
304855
300317
295916
291634
287492
283476
279600
275850
272233
268735
265352
262099
258943
255927
252998
250194
247478
244827
242211
239683
237020
234776
232595
230326
228227
226247
224325
222462
220663
218925
217229
215585
213984
212431
210920
209447
208015
206614
205268
203956
202694
201462
200281
199128
198025
196953
195928
194935
193983
193056
192163
191295
190450
189636
188845
188075
187335
186595
185891
185184
184503
183803
183161
182539
181915
181313
180730
180173
179642
179132
178649
178185
177739
177312
176894
176493
176100
175722
175347
174980
174609
174265
173915
173583
173266
172965
172675
172399
172138
171894
171659
171434
171214
170998
170791
170583
170381
170176
169983
169790
169603
169413
169243
169071
168920
168765
168632
168484
168384
168263
168132
168012
167888
167763
167635
167511
167388
167268
167150
167036
166927
166832
166728
166658
166572
166480
166401
166317
166228
166139
166046
165957
165866
165777
165687
165602
165515
165440
165362
165263
782408
170670
104453
131004
199592
262017
293128
297147
281582
264834
247821
232128
221200
215234
213072
212955
215067
218181
221938
226187
230836
235929
241441
247444
253954
261018
268698
277027
286067
295828
306353
317549
329387
342041
355408
369170
383098
397767
413252
428506
443848
459763
474627
489198
503069
517034
530492
543295
555065
566011
575874
583247
589569
593662
597790
598248
597831
596639
594256
591243
587144
582476
576845
570647
563862
556771
549329
541579
533556
525268
516798
508124
499329
490395
481436
472398
463473
454478
445654
436810
428182
419573
411204
402947
394979
387128
379582
372155
365003
357990
351239
344640
338274
332078
326057
320170
314479
308923
303589
298415
293438
288615
283940
279392
274990
270720
266597
262599
258741
254996
251380
247881
244500
241239
238089
235046
232109
229226
226391
223644
220789
218293
215890
213441
211102
208892
206754
204677
202662
200711
198802
196947
195135
193373
191657
189982
188349
186751
185211
183706
182254
180832
179464
178125
176837
175579
174370
173194
172061
170956
169887
168845
167829
166848
165891
164961
164057
163165
162305
161447
160620
159780
158988
158222
157458
156720
155999
155304
154636
153987
153369
152765
152185
151617
151073
150535
150015
149510
149009
148523
148034
147573
147107
146663
146234
145822
145422
145036
144666
144312
143971
143641
143316
143002
142699
142396
142105
141812
141534
141256
140988
140717
140469
140217
139988
139755
139544
139325
139147
138955
138757
138574
138389
138206
138023
137845
137669
137498
137328
137164
137003
136857
136704
136582
136450
136313
136193
136069
135943
135820
135694
135573
135451
135331
135210
135095
134979
134873
134767
134624
782316
157589
126151
162555
221352
252156
262140
251374
237621
224443
211694
201720
195786
193250
192925
194749
198011
201970
206507
211516
216970
222927
229420
236500
244236
252699
261954
272041
283013
294904
307699
321346
335728
351117
367449
384356
401314
418998
437758
456543
474935
494002
511225
527381
542430
556914
570843
582469
592890
601283
609487
613278
616144
617043
618220
615984
612280
608409
603333
597885
591542
584912
577538
569720
561373
552750
544019
535188
526254
517288
508215
499157
490058
480887
471870
462763
453944
445018
436433
427752
419444
411053
403014
394905
387177
379404
372017
364600
357548
350518
343810
337152
330794
324537
318499
312560
306837
301211
295803
290546
285493
280598
275865
271263
266804
262476
258285
254219
250289
246469
242776
239194
235727
232374
229134
225986
222950
219965
217039
214193
211266
208619
206093
203568
201096
198752
196500
194299
192167
190091
188060
186080
184141
182252
180407
178606
176845
175121
173453
171820
170242
168695
167202
165738
164325
162940
161609
160305
159050
157817
156627
155459
154323
153219
152141
151094
150068
149067
148085
147118
146178
145230
144323
143451
142580
141741
140914
140117
139347
138595
137875
137167
136487
135813
135170
134527
133910
133303
132706
132124
131540
130984
130428
129895
129378
128877
128389
127915
127459
127017
126592
126174
125770
125369
124987
124604
124236
123867
123514
123163
122825
122484
122168
121848
121552
121253
120977
120695
120448
120193
119934
119691
119449
119212
118975
118746
118519
118299
118080
117871
117662
117469
117271
117101
116925
116744
116582
116418
116252
116093
115932
115776
115620
115469
115317
115171
115024
114888
114752
114565
782040
166804
151142
186036
218477
232848
230441
218282
207569
197214
188067
181826
178690
177819
178974
181912
185871
190480
195676
201398
207635
214482
221980
230226
239310
249323
260331
272387
285527
299835
315251
331763
349105
367625
387271
407839
428326
449227
471197
492819
512277
531945
548209
562859
576362
587716
598870
605590
612151
615796
619868
618833
616852
612861
607842
600619
591795
583280
574322
565295
556098
547034
537897
528670
519535
510139
501266
492371
483620
475221
466690
458655
450478
442622
434867
427132
419814
412340
405363
398193
391503
384639
378157
371472
365178
358711
352611
346366
340488
334516
328846
323059
317507
311874
306503
301086
295880
290642
285623
280675
275941
271327
266872
262511
258263
254121
250092
246178
242374
238679
235082
231603
228203
224933
221733
218634
215628
212691
209816
206995
204135
201434
198897
196391
193927
191539
189274
187038
184889
182772
180714
178688
176707
174772
172876
171024
169207
167426
165696
164002
162358
160747
159186
157654
156172
154713
153311
151929
150603
149291
148027
146778
145568
144381
143227
142098
140993
139916
138851
137809
136786
135766
134778
133827
132882
131966
131064
130192
129348
128521
127724
126941
126184
125437
124715
123999
123303
122621
121950
121292
120638
120007
119383
118778
118191
117619
117062
116518
115995
115482
114991
114503
114036
113565
113118
112670
112237
111804
111389
110976
110579
110179
109804
109428
109075
108719
108387
108052
107748
107438
107127
106830
106537
106251
105966
105690
105416
105152
104888
104637
104385
104150
103912
103699
103482
103261
103060
102858
102655
102459
102264
102074
101886
101703
101520
101345
101168
101002
100838
100609
781732
177398
168156
190502
207885
211590
204009
194523
186027
177973
171505
167615
166101
166227
168466
172027
176483
181628
187416
193824
200843
208614
217194
226732
237322
249080
262074
276382
291996
309082
327522
347350
368099
390196
413434
437623
460639
482699
504772
525978
542331
558056
569786
580051
589990
596171
602702
602976
602024
598450
594043
586937
578569
568981
558549
548588
537739
526515
516141
505508
495566
485353
475998
466356
457489
448242
439917
431487
423686
416241
408859
402254
395443
389395
383231
377419
371895
366273
361191
355894
351047
346048
341312
336400
331739
326926
322324
317596
313050
308419
303971
299463
295162
290806
286616
282389
278250
274065
270000
265932
262005
258135
254330
250551
246820
243142
239530
236003
232549
229185
225881
222691
219550
216529
213542
210663
207824
205103
202398
199747
197085
194482
192049
189648
187296
184983
182789
180618
178536
176470
174468
172484
170546
168642
166776
164948
163151
161384
159662
157972
156328
154712
153143
151599
150103
148625
147201
145796
144441
143103
141807
140526
139282
138057
136867
135694
134554
133428
132325
131239
130171
129111
128075
127073
126083
125117
124170
123249
122353
121478
120628
119797
118984
118191
117411
116650
115894
115163
114438
113725
113020
112334
111659
111000
110360
109735
109127
108529
107955
107388
106846
106305
105786
105264
104764
104265
103780
103297
102830
102367
101922
101475
101050
100627
100227
99826.1
99447.7
99067.5
98715.8
98359.5
98004.8
97663.2
97325.7
96997
96669.5
96352.5
96037.8
95735
95432.3
95143.6
94853.8
94582.4
94307.7
94057.5
93803.8
93548.5
93310.9
93073.9
92837.6
92609.3
92381.9
92161.3
91942.3
91730.2
91517.8
91314.4
91110.8
90917.1
90726.6
90457.6
781537
184904
175317
186701
194147
192007
184122
176825
169977
163729
159148
156740
156076
157108
159937
163892
168733
174338
180682
187771
195616
204393
214189
225200
237520
251302
266606
283547
302050
322333
344306
367968
392327
417390
442319
467013
489290
508575
526211
543265
553928
563846
571418
575538
578964
577627
575266
569480
562044
552347
542116
531008
519192
506573
492846
481138
468719
454898
442443
429272
417989
406064
395989
385500
376746
367552
359851
351987
345583
339286
333686
328902
324059
320217
316227
313018
309781
306866
304284
301559
299172
296694
294347
291897
289486
286989
284472
281863
279191
276422
273606
270736
267911
265052
262180
259278
256339
253340
250295
247213
244115
241045
238025
235022
232025
229045
226078
223146
220244
217395
214579
211844
209121
206460
203820
201256
198707
196280
193844
191470
189074
186700
184446
182249
180082
177941
175893
173869
171920
169985
168110
166244
164419
162616
160848
159111
157401
155711
154061
152434
150849
149285
147765
146262
144805
143360
141964
140583
139248
137927
136647
135377
134142
132921
131734
130560
129421
128285
127183
126086
125012
123942
122893
121871
120866
119880
118913
117969
117049
116151
115273
114418
113576
112758
111945
111158
110371
109608
108852
108107
107368
106648
105940
105245
104570
103908
103265
102631
102020
101416
100837
100259
99702.1
99143.8
98605.1
98068.3
97544.9
97024.2
96518.8
96018.6
95534.6
95051.6
94587.9
94129.3
93691.1
93254.9
92838
92423.2
92032.4
91639.5
91250.2
90872
90498.4
90134.2
89771.7
89420.3
89071.5
88735.4
88399.8
88078.9
87757.2
87454.1
87148.5
86866.1
86581.1
86296.5
86027.2
85760.1
85494.8
85237.3
84981.7
84733
84486.9
84247.8
84009.7
83780.4
83552.1
83333.4
83118.6
82813.8
781345
188890
175357
179307
180479
175763
169077
163173
157572
152675
149399
147931
147806
149478
152633
156859
162017
168047
174952
182766
191547
201492
212721
225483
239881
256101
274175
294238
316208
340193
365762
392513
418305
443131
465908
486973
505585
519381
531394
543821
547268
549269
551577
549257
545706
538784
530043
519126
506807
492910
477927
462417
446178
429557
412620
395667
381151
365468
352190
338312
326906
315064
305391
295392
287455
279239
272632
265809
260567
255174
251110
247002
243979
241204
238777
237114
235330
234430
233641
232840
232599
232382
232466
232579
232796
232951
233160
233225
233216
233084
232866
232457
231922
231213
230380
229397
228290
227005
225559
223945
222193
220345
218444
216490
214482
212422
210313
208161
205973
203760
201527
199288
197055
194848
192650
190483
188336
186261
184189
182148
180091
178019
176030
174085
172156
170228
168372
166530
164756
162987
161277
159566
157891
156232
154602
153000
151418
149848
148310
146787
145302
143829
142396
140973
139591
138216
136886
135564
134289
133019
131793
130568
129378
128196
127046
125907
124800
123695
122620
121550
120500
119453
118421
117412
116418
115441
114481
113541
112623
111726
110847
109990
109143
108321
107502
106708
105915
105141
104375
103619
102868
102133
101411
100699
100006
99325.1
98662.5
98008.7
97376.6
96752
96150.9
95550.8
94971.1
94391
93828.1
93267.8
92719.2
92174.4
91642.9
91117.7
90606.9
90099.5
89608
89124
88657.3
88196.8
87750.7
87311.6
86890.1
86471.7
86056.3
85650.2
85249.1
84857.5
84468
84089.3
83713.9
83350.9
82989.4
82642.1
82295.1
81965.6
81635.2
81326
81015.6
80707.3
80411.3
80119.6
79830.1
79547.8
79268.4
78995.7
78726.3
78464.1
78203.7
77951.8
77702
77461.5
77225.4
76889.2
780909
191374
172832
170875
168594
162959
157354
152299
147623
143747
141356
140444
140764
142800
146149
150583
156038
162511
170044
178716
188635
200027
213042
228008
245003
264236
285725
309535
335117
362233
389179
415810
439846
461290
479282
494772
509688
517713
522276
526810
525482
522087
518557
510925
501272
489034
474928
459116
441184
421802
400648
380876
361563
343311
326505
309533
295284
280764
268523
255939
245666
235157
226594
217831
210873
203798
198133
192312
187740
183027
179473
175738
173279
170671
168858
167400
165892
165322
164663
164610
164800
165144
165787
166650
167761
168999
170415
171906
173516
175133
176837
178502
180259
181874
183554
184971
186436
187544
188595
189316
189879
190215
190319
190222
189976
189558
188969
188213
187301
186244
185054
183744
182355
180905
179408
177879
176333
174784
173217
171629
169996
168322
166632
164979
163342
161690
160087
158485
156937
155389
153883
152380
150897
149427
147980
146554
145135
143715
142314
140921
139555
138197
136869
135549
134261
132977
131734
130494
129298
128102
126949
125791
124666
123543
122450
121366
120311
119258
118233
117210
116207
115204
114212
113238
112279
111333
110402
109486
108590
107713
106853
106013
105183
104375
103571
102788
102009
101244
100489
99739.8
98996.1
98265.2
97545.7
96834.7
96140.6
95457.5
94791.5
94134.2
93496.5
92865.9
92257.6
91651.1
91062.8
90475.3
89902.5
89332.7
88772.6
88217.2
87672.4
87134.8
86609.4
86089
85581.2
85082.8
84598.5
84123.9
83659.5
83205.3
82763.7
82329.6
81897.1
81472.6
81053.2
80642.7
80234.8
79836.9
79442.8
79060.1
78680.2
78312.9
77947.6
77597.7
77249.3
76919.1
76589.9
76263.6
75947
75636.2
75327.8
75026
74727.6
74435.7
74147.6
73866.5
73587.9
73317.5
73049.7
72791.3
72537.4
72175
781084
192869
167999
162389
158407
152923
147956
143414
139384
136271
134472
133900
134564
136793
140279
144917
150710
157723
166051
175839
187245
200537
215916
233748
254058
277057
302367
329648
357280
384943
410341
434219
454815
471136
483711
494076
503985
504697
503333
500626
496469
488178
478150
465254
449801
432017
411308
389395
365836
344463
322393
302692
284159
267166
252303
238136
225363
214184
203970
193848
185549
177095
170108
162996
157223
151401
146660
141841
137928
133938
130768
127500
125070
122523
120720
118938
117385
116302
115196
114504
114159
113801
113852
114044
114461
115057
115875
116865
118063
119412
120958
122650
124534
126543
128710
130942
133280
135623
138038
140336
142674
144853
147063
149055
151012
152761
154385
155761
156980
157922
158713
159210
159559
159633
159558
159378
159086
158680
158160
157523
156749
155837
154814
153733
152612
151453
150276
149082
147898
146702
145511
144311
143102
141887
140672
139458
138248
137028
135813
134600
133397
132198
131015
129835
128676
127520
126393
125271
124182
123084
122021
120949
119904
118858
117836
116822
115833
114846
113884
112922
111979
111035
110098
109174
108261
107359
106469
105590
104729
103884
103056
102244
101443
100661
99884.9
99127.5
98374
97632.4
96899.7
96172.8
95449.4
94736.3
94032.5
93336.1
92654
91981.6
91324.6
90676.7
90045.9
89422.3
88819.2
88218.8
87634.6
87052.1
86481.8
85915
85355.8
84801.8
84255.7
83717.2
83188.6
82666
82152.9
81650.5
81159.3
80680.2
80208.1
79747.9
79296.7
78856.4
78415.8
77982.4
77554
77133.4
76715.9
76307
75902.4
75507.8
75117
74736.9
74360.5
73997.2
73637.4
73292.8
72951.4
72613.2
72282.5
71958.6
71637
71321.5
71009.5
70703.8
70401.9
70106.9
69814.6
69530.2
69248.8
68976.8
68709
68326.2
783612
191915
162132
154754
149802
144738
140188
136017
132392
129820
128417
128070
128974
131327
134961
139870
146134
153900
163342
174692
188141
204069
222596
244156
268520
295518
323748
352791
380053
405960
428331
448021
464321
474601
482337
486068
489222
486423
480545
471630
462458
449284
432768
413718
391289
367231
341015
317930
293892
274494
254906
238358
223259
209750
198119
187376
177349
169207
160902
153704
147199
140578
134968
129309
124649
119933
116060
112142
108948
105692
103002
100266
98061.5
95804.9
94028.7
92223.1
90780.3
89473.4
88192.5
87107.5
86269
85418.3
84830.3
84252.3
83907.4
83614.9
83486.5
83502.7
83620.3
83842
84203.9
84696.5
85348.8
86144.2
87106.3
88201.6
89452.9
90837.9
92379.4
94045.7
95851.8
97763.7
99796.4
101917
104139
106427
108769
111125
113507
115793
118077
120209
122271
124205
126022
127752
129394
130876
132210
133340
134283
134966
135399
135654
135725
135657
135497
135238
134900
134482
134001
133453
132844
132171
131440
130661
129847
128996
128115
127211
126288
125350
124399
123438
122472
121497
120531
119558
118606
117646
116709
115764
114834
113900
112983
112070
111177
110286
109414
108541
107685
106827
105965
105107
104256
103412
102577
101748
100934
100132
99345.1
98573.2
97810.5
97066.4
96327.4
95606.2
94887.2
94179.3
93477.3
92781.6
92087.2
91400.6
90720.6
90047.5
89385.3
88732.5
88092.6
87462.8
86847.2
86239.1
85649.5
85063.5
84492.1
83923.1
83363.9
82808.9
82259.7
81715.8
81177.3
80646.6
80123.6
79607
79097.7
78599.3
78110.3
77634.2
77163.2
76704.6
76252.7
75813.8
75373.5
74939.3
74510.1
74087.4
73668.3
73256
72848.4
72449.3
72054.7
71669
71288.1
70918.4
70553.4
70201
69853.9
69509.8
69171.5
68840.5
68511.6
68188.1
67868.3
67554.1
67243.8
66940
66639
66345.6
66055
65773.9
65496.6
65099.7
786275
189909
156069
147792
142539
137821
133580
129682
126379
124137
122998
122817
123898
126386
130257
135610
142610
151523
162628
176219
192568
212067
234726
260808
289166
319234
348594
377386
402685
425432
443897
458162
469414
474225
476076
474402
471526
464969
454980
440653
424202
404334
379955
353533
325004
300145
274929
254987
235007
219847
204902
192885
181574
171719
162806
154563
146832
139868
133308
127890
122347
116892
112321
107694
103848
99939.6
96857.2
93727.4
91139.1
88506.4
86325.3
84050.3
82230.2
80379.1
78905
77384.2
76157
75009.5
73905.7
72913.3
72046.9
71192.6
70494
69778.7
69188.8
68589
68124
67651.1
67297.4
66939.1
66689.5
66457.7
66323.8
66242.3
66264.3
66335.4
66477.2
66694.2
66999.9
67390.6
67878
68455.8
69135.5
69917.7
70816.9
71830
72962.4
74208.1
75566.7
77030
78593.6
80245.1
81987
83817.1
85745.6
87779.6
89901.2
92076.4
94293.4
96475.6
98680.5
100737
102706
104444
106172
107671
109148
110402
111635
112663
113652
114453
115176
115706
116157
116410
116604
116595
116514
116344
116087
115749
115338
114864
114335
113756
113138
112484
111808
111114
110410
109693
108968
108232
107493
106747
106009
105264
104524
103777
103033
102283
101527
100768
100010
99253.8
98500.5
97749.4
97007.9
96273.2
95551.5
94841.4
94139.7
93453.9
92773.6
92104.9
91434.7
90773.6
90114.8
89461.1
88807.1
88157.4
87511.1
86871.7
86238.5
85614.7
85000.7
84397.5
83805.4
83220.6
82651.4
82086.6
81534.2
80985.1
80443.4
79906.3
79373.7
78845.7
78321.5
77804.4
77293.2
76788.7
76289.8
75800.8
75320.1
74851.8
74388.4
73936.5
73490.2
73057.7
72623.8
72194.9
71770.8
71352
70937.1
70527.6
70122.8
69725.2
69332.2
68946.8
68566.6
68196.3
67831.2
67476.7
67129
66784.2
66444
66111
65780.1
65454
65131.5
64814
64500.1
64192.5
63887.4
63589.6
63294.3
63008.6
62725.9
62321.2
788750
187179
150129
141412
136203
131796
127811
124159
121152
119082
118113
118077
119336
122063
126376
132504
140711
151413
164930
181820
202190
226421
253964
284592
315939
347568
376215
403019
425302
443644
457276
465074
471018
470296
467790
461503
452511
439931
423795
402725
376395
347466
316440
289472
263456
242326
223086
207893
193769
182641
171796
163001
154038
146349
138737
131907
125204
119092
113644
108606
103343
99185.5
95391.4
91603.9
88490
85464.6
83031.1
80576.9
78513.6
76413
74691.2
72982.8
71596.5
70197.9
69059.1
67913.2
66973.5
66035.4
65183.2
64440.5
63690.8
62966.7
62352.9
61719.5
61139.2
60552.6
60054.8
59549.7
59102.9
58649.5
58258.6
57861.8
57529.4
57191.3
56923.6
56653.4
56437.4
56214.1
56040.5
55885.9
55779.1
55701.5
55657
55666.8
55712.7
55803.5
55945.8
56141.2
56392.6
56702.6
57073.7
57508.8
58015.9
58603.7
59289.4
60082.8
60986.8
62001
63122.6
64339.5
65652.4
67048.2
68510.4
70026.8
71605.7
73237.8
74926.7
76656.8
78434.8
80239.9
82083.6
83933
85823
87621.3
89435.1
91096.2
92704.5
94162.8
95495.7
96672.8
97715.7
98599.7
99348.9
99953
100428
100785
101016
101169
101187
101140
101033
100863
100635
100353
100028
99662.6
99266.6
98839.3
98384.6
97901.6
97391.5
96856.1
96298.2
95722.1
95131.6
94529.6
93917.9
93298.8
92675.3
92048.8
91427.2
90809.2
90193.8
89586.4
88981
88385
87788
87196.6
86605.4
86016.1
85424.4
84833.1
84241.8
83655.6
83070.9
82494.1
81923.9
81364.1
80809.2
80259.6
79721
79187.5
78663.4
78143.5
77628.1
77117.6
76610
76105.9
75604.1
75108.1
74616.7
74130.7
73649.2
73175.1
72708.6
72252.7
71802.3
71361.3
70926.1
70503.6
70081.1
69662.3
69247.8
68837.8
68431.5
68029.6
67631.8
67240
66852.4
66471.7
66096
65729
65367.6
65015
64670.5
64328.8
63990.6
63659.8
63330.8
63006.3
62684.9
62368.1
62054.5
61746.9
61441.3
61142.9
60846.6
60559.9
60275.5
59868.2
790858
184192
144470
135567
130558
126435
122678
119272
116512
114614
113730
113874
115398
118590
123710
131143
141267
154642
171841
193413
219154
249039
281451
315934
348364
379376
406083
429349
447497
459949
467564
468967
468864
464756
457287
444874
427669
406145
379191
348279
314759
285396
258404
236242
217034
201301
187846
176542
166258
157253
148758
141162
133456
126463
119388
113177
107038
101727
96805.3
92033.7
88011
84926
81765.2
78945.3
76657.8
74464.3
72539.4
70559
68936.3
67374.1
66178.2