/*--------------------------------*- C++ -*----------------------------------*\
| =========                 |                                                 |
| \\      /  F ield         | OpenFOAM: The Open Source CFD Toolbox           |
|  \\    /   O peration     | Version:  2312                                  |
|   \\  /    A nd           | Website:  www.openfoam.com                      |
|    \\/     M anipulation  |                                                 |
\*---------------------------------------------------------------------------*/
FoamFile
{
    version     2.0;
    format      ascii;
    arch        "LSB;label=32;scalar=64";
    class       volScalarField;
    location    "0.004";
    object      p;
}
// * * * * * * * * * * * * * * * * * * * * * * * * * * * * * * * * * * * * * //

dimensions      [1 -1 -2 0 0 0 0];

internalField   nonuniform List<scalar> 
48128
(
3498.98
3499.49
3488.28
3476.1
3475.21
3471.37
3468.78
3464.62
3457.58
3446.09
3438.73
3424.24
3419.44
3401.69
3374.06
3340.64
3315.2
3295.1
3280.87
3272.67
3270.53
3273.31
3280.97
3293.93
3312.58
3337.14
3368.14
3407.92
3454.76
3509.63
3572.5
3644.4
3725.16
3815.6
3914.76
4023.97
4142.99
4272.52
4409.89
4559.1
4717.87
4885.54
5062.41
5248.59
5440.71
5644.44
5850
6069.68
6289.21
6521.2
6750.84
6993.28
7232.52
7480.78
7724.33
7974.63
8221.93
8466.71
8710.01
8948.22
9182.33
9410.46
9633.1
9849.48
10058.8
10260.6
10453.8
10639.3
10817.4
10983.7
11144.4
11291.4
11433.4
11565
11685.3
11799.9
11899.8
11998.8
12083.1
12167.7
12240
12314.4
12374.6
12435.1
12484.6
12535.2
12576.7
12619.8
12655.3
12691.5
12720.5
12750.8
12775.1
12799.1
12815.6
12827.8
12833.1
12839.1
12847.7
12859.4
12872.3
12885.4
12893.3
12898.9
12903.2
12907.7
12913
12918.7
12924.7
12931.3
12939.1
12948.8
12960.8
12974.7
12990.3
13006.3
13021.4
13024.8
13022.3
13006.9
12981.3
13024.8
13029.2
13026.6
13057.5
13080.9
13102.8
13124.4
13142
13156.1
13166.6
13175.1
13182.5
13187.3
13190.8
13190.7
13191.2
13193.1
13196
13199.5
13203.6
13208.7
13214.7
13221.5
13229.7
13239.7
13250.8
13262.8
13273.4
13284.4
13293.6
13303.3
13313.4
13323.5
13332.9
13339.8
13345.2
13345.2
13342.5
13338.4
13331.9
13324.2
13324.5
13322.4
13322.5
13325.6
13330.8
13338.9
13348.3
13359
13369.2
13379.1
13387
13394.3
13397.8
13399.1
13397.4
13394.7
13389.1
13383
13378.8
13376
13374.5
13377.2
13381.6
13386.9
13393.8
13402.3
13411.1
13419.1
13425.4
13427.9
13430
13427.9
13425.2
13420.2
13415.7
13411.9
13409
13408.4
13409.3
13411.9
13416.9
13423.5
13430.3
13437.4
13442.8
13447.8
13452.2
13448.4
13446.3
13443.5
13438.9
13435.1
13431.9
13429.8
13430
13431.6
13434.2
13438.1
13443.4
13448.5
13454.3
13459.1
13458.9
13459.5
13458.5
13455.2
13452.4
13449.6
13447
13444.8
13444.5
13445.3
13447.2
13450
13453.8
13457.8
13462.5
13465.7
3488.31
3493.17
3485.75
3476.34
3477.24
3475.41
3474.99
3473.32
3469.79
3463.92
3461.16
3448.07
3433.08
3406.48
3375.29
3353.48
3328.26
3307.04
3291.55
3282.35
3279.26
3281.29
3288.14
3300.28
3318.09
3342.1
3372.99
3409.23
3454.19
3507.8
3569.4
3640.75
3720.34
3809.83
3907.95
4015.99
4133.19
4261.26
4397.75
4545.23
4702.05
4868.11
5042.92
5227.04
5417.44
5618.99
5822.68
6039.71
6257.03
6486.57
6714.68
6954.45
7191.77
7437.47
7680.1
7929.63
8176.87
8421.95
8664.36
8902.06
9135.72
9363.85
9586.68
9803.23
10012.8
10214.5
10408.1
10593.8
10771.1
10937.1
11098.1
11246.9
11389.8
11522.5
11644
11759.4
11860.9
11961.2
12046.8
12132.8
12207
12282.7
12344.2
12405.8
12456.7
12508.4
12551.3
12595.5
12632.3
12669.5
12699.6
12730.9
12756.2
12781.2
12798.5
12811.4
12817.3
12824.1
12833.5
12846
12859.9
12873.6
12881.9
12888.1
12892.9
12897.9
12903.6
12909.8
12916.3
12923.3
12931.5
12941.5
12953.9
12968.2
12984.1
13000.5
13015.7
13019.4
13016.9
13002.2
12975.9
13019.1
13025.6
13023.4
13052.9
13077.6
13099.6
13121
13138.6
13152.9
13163.5
13172.1
13179.6
13184.5
13188.2
13188.2
13188.8
13190.8
13193.9
13197.5
13201.7
13206.9
13213
13219.9
13228.1
13238
13249.2
13261.2
13272
13282.9
13292.3
13302
13312.2
13322.3
13331.8
13338.7
13344.3
13344.2
13341.7
13337.6
13331.2
13323.5
13323.9
13321.8
13322
13325.1
13330.2
13338.5
13347.8
13358.6
13368.7
13378.7
13386.6
13394
13397.5
13398.7
13397.2
13394.5
13388.9
13382.8
13378.6
13375.9
13374.3
13377.2
13381.4
13386.8
13393.7
13402.2
13411.1
13419.1
13425.4
13427.9
13430
13428
13425.2
13420.2
13415.8
13412
13409.1
13408.5
13409.3
13411.9
13417
13423.5
13430.3
13437.5
13443
13447.9
13452.4
13448.5
13446.4
13443.6
13439.1
13435.2
13432
13429.9
13430.2
13431.7
13434.4
13438.2
13443.6
13448.7
13454.5
13459.3
13459
13459.7
13458.7
13455.4
13452.6
13449.8
13447.2
13445
13444.7
13445.5
13447.3
13450.2
13454
13458
13462.6
13465.8
3489.96
3492.36
3485.69
3476
3476.94
3474.46
3473.49
3471.03
3464.3
3460.14
3445.89
3426.93
3409.81
3394.04
3363.64
3330.24
3306.34
3289.44
3277.38
3270.66
3269.42
3272.6
3280.4
3293.3
3311.87
3336.43
3367.7
3405.77
3451.54
3505.41
3566.95
3637.89
3717.02
3806.18
3903.87
4011.43
4127.83
4254.99
4390.49
4536.66
4692.63
4857.87
5031.78
5215.24
5404.84
5605.83
5808.72
6025.09
6241.41
6470.15
6697.42
6936.74
7173.22
7418.36
7660.17
7907.81
8151.25
8393.7
8635.46
8872.92
9106.53
9334.94
9558.3
9775.53
9985.73
10187.9
10382.2
10568.6
10747.2
10914.7
11076.8
11226.6
11370.9
11504.3
11626.9
11743
11845.5
11946.8
12032.9
12119.8
12195.3
12272.3
12334.3
12396.4
12447.7
12500
12543.2
12588.1
12625.3
12662.9
12693.3
12725
12750.7
12776.1
12793.7
12806.6
12812.5
12819.6
12829.3
12842.2
12856.4
12870.3
12878.7
12885
12889.9
12895.1
12901
12907.3
12913.9
12921.1
12929.4
12939.5
12952
12966.4
12982.4
12998.9
13013.9
13017.7
13014.8
13001.2
12975.2
13015.2
13024.3
13024.3
13051.2
13076.6
13099
13120
13137.4
13151.8
13162.5
13171.2
13178.7
13183.6
13187.2
13187.4
13188
13190.1
13193.2
13196.8
13201
13206.2
13212.4
13219.3
13227.5
13237.4
13248.6
13260.7
13271.5
13282.4
13291.8
13301.6
13311.8
13321.9
13331.3
13338.2
13343.7
13343.6
13341.2
13337.2
13330.9
13323.2
13323.4
13321.5
13321.8
13324.8
13330
13338.2
13347.6
13358.3
13368.5
13378.5
13386.4
13393.8
13397.2
13398.4
13397
13394.2
13388.7
13382.6
13378.4
13375.8
13374.3
13377.1
13381.3
13386.7
13393.7
13402.1
13411
13419
13425.3
13427.7
13429.8
13428
13425
13420.1
13415.7
13411.9
13409
13408.4
13409.3
13411.9
13416.9
13423.5
13430.3
13437.5
13443
13447.8
13452.3
13448.7
13446.3
13443.5
13439.1
13435.2
13432
13429.9
13430.2
13431.7
13434.4
13438.2
13443.6
13448.7
13454.4
13459.3
13459.1
13459.6
13458.6
13455.4
13452.6
13449.8
13447.2
13445
13444.7
13445.5
13447.4
13450.2
13454
13458
13462.7
13465.8
3489.11
3488.61
3484.97
3475.02
3476.03
3473.55
3472.45
3472.04
3465.32
3449.58
3431.83
3414.24
3394.66
3367.51
3345.04
3321.38
3301.64
3286.57
3275.87
3269.88
3269.14
3272.51
3280.32
3293.24
3311.58
3335.75
3366.38
3403.88
3448.85
3501.81
3562.55
3632.55
3710.6
3798.82
3895.25
4001.66
4116.19
4242.19
4376.16
4520.52
4675.04
4838.58
5010.66
5192.75
5380.47
5579.94
5780.68
5995.51
6210.24
6437.71
6663.24
6901.69
7136.57
7380.77
7621.35
7869.01
8112.34
8354.67
8596.03
8833.1
9066.23
9294.69
9518.29
9736.14
9946.89
10149.3
10343.7
10530.6
10709.3
10877.6
11040.6
11191.3
11337.3
11471.2
11595.2
11711.5
11815.1
11917.7
12004.1
12091.9
12169.1
12247.6
12310.2
12373.4
12425.9
12479.4
12523.7
12569.9
12608.2
12646.8
12678
12710.7
12737.2
12763.6
12781.9
12795.3
12801.7
12809.6
12820.1
12833.7
12848.5
12862.8
12871.5
12878.3
12883.7
12889.4
12895.7
12902.4
12909.3
12916.8
12925.4
12935.8
12948.5
12963
12979.2
12995.8
13010.3
13014.4
13010.8
12999.1
12974.9
13008.6
13021.7
13025.4
13048.9
13074.8
13097.5
13118.1
13135.3
13149.8
13160.6
13169.4
13176.9
13181.8
13185.5
13185.8
13186.7
13188.9
13191.9
13195.7
13200
13205.2
13211.4
13218.5
13226.7
13236.6
13247.8
13259.8
13270.7
13281.6
13291
13301
13311.1
13321.2
13330.6
13337.4
13342.9
13342.7
13340.5
13336.6
13330.5
13322.8
13322.8
13321.3
13321.7
13324.7
13329.7
13338
13347.4
13358
13368.2
13378.2
13386
13393.4
13396.8
13398
13396.6
13393.9
13388.5
13382.4
13378.2
13375.7
13374.3
13377
13381.2
13386.6
13393.6
13402
13410.8
13418.8
13425.1
13427.5
13429.7
13427.8
13424.9
13420
13415.6
13411.8
13409
13408.5
13409.4
13412
13417
13423.5
13430.3
13437.4
13442.9
13447.7
13452.1
13448.8
13446.2
13443.4
13439.1
13435.2
13432
13430
13430.3
13431.8
13434.5
13438.3
13443.6
13448.8
13454.4
13459.3
13459.2
13459.6
13458.6
13455.5
13452.6
13449.8
13447.2
13445
13444.8
13445.6
13447.5
13450.3
13454.1
13458.1
13462.7
13465.8
3490.21
3485.77
3484.3
3475.04
3475.91
3472.25
3473
3467.1
3455.15
3436.98
3419.02
3397.25
3378.33
3354.34
3333.78
3312.3
3295.35
3282.29
3273.12
3268.02
3267.76
3271.33
3279.22
3292
3309.98
3333.72
3363.74
3400.59
3444.8
3497.04
3556.96
3626.11
3703.15
3790.65
3886.02
3991.64
4104.6
4229.93
4362.66
4505.68
4659.51
4821.89
4992.52
5174
5360.68
5560.18
5759.87
5974.5
6188.3
6415.52
6639.52
6878.7
7112.76
7356.91
7596.1
7845.09
8087.57
8330.15
8570.97
8807.94
9041.11
9269.6
9494.11
9712.67
9924.25
10126.4
10320.5
10507.6
10685.2
10854.4
11017.6
11168.9
11316.7
11450.4
11575.6
11691.4
11795.9
11899.4
11985.6
12074.1
12152.6
12232.4
12295.3
12359.1
12412.2
12466.5
12511.2
12558.3
12597
12636.3
12667.8
12701.3
12728
12755
12773.4
12787.1
12793.8
12802.5
12813.5
12827.5
12842.5
12856.8
12865.6
12872.8
12878.5
12884.6
12891.1
12897.9
12905
12912.9
12921.8
12932.5
12945.4
12960
12976.3
12992.8
13006.5
13011
13006.9
12997.4
12975.9
13002.6
13019.6
13027.4
13047.5
13073.2
13096.3
13116.3
13133.2
13147.9
13158.9
13167.9
13175.3
13180.3
13184
13184.5
13185.7
13188
13191
13194.8
13199.1
13204.5
13210.7
13217.8
13226.1
13236
13247.2
13259
13269.9
13280.8
13290.3
13300.4
13310.5
13320.6
13329.8
13336.5
13341.9
13341.7
13339.7
13335.9
13330.3
13322.6
13322.1
13321.1
13321.7
13324.7
13329.7
13337.9
13347.2
13357.8
13367.9
13377.8
13385.6
13392.9
13396.2
13397.5
13396.1
13393.4
13388.2
13382.3
13378.1
13375.7
13374.4
13377.1
13381.1
13386.6
13393.7
13402
13410.7
13418.6
13424.8
13427.3
13429.4
13427.5
13424.6
13419.8
13415.5
13411.8
13409
13408.6
13409.5
13412.1
13417
13423.5
13430.3
13437.3
13442.9
13447.5
13451.8
13448.9
13446.1
13443.2
13439.1
13435.2
13432.1
13430.1
13430.4
13431.9
13434.6
13438.3
13443.7
13448.8
13454.3
13459.2
13459.3
13459.5
13458.5
13455.5
13452.6
13449.8
13447.3
13445.1
13444.9
13445.7
13447.6
13450.4
13454.2
13458.2
13462.7
13465.8
3491.88
3486.55
3485.51
3475.21
3475.52
3473.66
3469.13
3459.33
3443.85
3425.63
3405.17
3385.64
3364.82
3342.38
3323.54
3304.98
3290.13
3278.54
3270.46
3265.99
3265.98
3269.71
3277.53
3290.09
3307.55
3330.78
3360.1
3396.36
3439.77
3491.36
3550.47
3618.85
3694.81
3781.74
3876.05
3981.05
4092.35
4217.42
4349.05
4490.87
4644.7
4806.79
4976.73
5158.26
5343.2
5542.74
5741.46
5956.97
6170.41
6398.5
6621.92
6863.1
7096.22
7340.99
7578.12
7832.2
8071.15
8313.96
8554.94
8789.84
9025.07
9251.88
9478.95
9698.16
9910.79
10111.5
10305.5
10492.8
10668.8
10838.7
11001.6
11153.5
11302.7
11435.7
11561.9
11676.3
11781.7
11885.5
11971.2
12060.2
12139.8
12220
12282.1
12346
12399.5
12454.6
12499.6
12547.7
12586.8
12626.7
12658.5
12692.8
12719.7
12747.2
12765.5
12779.5
12786.7
12796.6
12808.3
12822.5
12837.4
12851.4
12860.3
12868.1
12874.2
12880.7
12887.5
12894.4
12901.7
12910
12919.2
12930.2
12943.2
12957.7
12974
12989.9
13002.4
13007.2
13002.7
12995.6
12978.1
12997.3
13017.4
13029.5
13047
13071.7
13094.6
13114
13130.7
13145.5
13156.8
13166.1
13173.5
13178.4
13182.2
13183.2
13184.9
13187.2
13190.2
13194
13198.4
13203.8
13210.2
13217.4
13225.6
13235.6
13246.6
13258.4
13269.2
13280.1
13289.7
13300
13310
13320
13329
13335.5
13340.7
13340.4
13338.8
13335.2
13330
13322.5
13321.7
13321.2
13321.9
13325
13329.8
13337.9
13347.1
13357.5
13367.6
13377.5
13385.2
13392.3
13395.5
13396.8
13395.5
13392.9
13387.9
13382.3
13378.1
13375.8
13374.7
13377.1
13381.2
13386.8
13393.8
13402
13410.5
13418.2
13424.4
13426.9
13429.2
13427.1
13424.4
13419.6
13415.5
13411.8
13409.1
13408.9
13409.8
13412.3
13417.1
13423.6
13430.3
13437.2
13442.8
13447.3
13451.3
13449
13446.1
13443
13439.1
13435.2
13432.2
13430.2
13430.6
13432.1
13434.8
13438.5
13443.7
13448.9
13454.1
13459
13459.4
13459.4
13458.4
13455.6
13452.7
13449.9
13447.3
13445.2
13445.1
13445.9
13447.7
13450.5
13454.3
13458.2
13462.7
13465.8
3496.15
3488.58
3487.35
3475.38
3476.96
3472.14
3463.45
3450.16
3433.48
3414.41
3395.23
3373.51
3352.81
3332.34
3314.77
3298.34
3285.01
3274.61
3267.45
3263.55
3263.68
3267.61
3275.15
3287.35
3304.28
3327.01
3355.63
3391.33
3433.92
3484.99
3543.23
3610.96
3685.81
3772.42
3865.68
3970.52
4080.27
4205.68
4336.38
4476.46
4631.24
4793.68
4963.38
5145.56
5329.02
5528.64
5726.48
5942.83
6155.22
6383.35
6606.15
6850.55
7080.71
7326.5
7558.49
7824.67
8056.58
8293.94
8540.77
8769.45
9007.56
9230.51
9461.62
9680.81
9896.46
10095
10288.6
10476.3
10651.6
10823.6
10986.2
11139.8
11290.7
11423
11550.5
11663.5
11770.6
11874.5
11959.8
12049.9
12130.8
12211.1
12272.1
12336.3
12390
12445.7
12491
12540.2
12579.3
12619.8
12651.5
12686.1
12712.2
12740
12758.1
12772.3
12780.5
12792
12804.4
12818.9
12833.4
12846.7
12855.6
12864.2
12870.9
12877.9
12884.9
12891.9
12899.5
12908.1
12917.6
12928.9
12942
12956.4
12972.8
12987.4
12998.2
13003.3
12998.8
12994.5
12981.5
12994
13015.8
13032.2
13048.4
13070.9
13093.3
13112
13128.5
13143.3
13155
13164.5
13171.9
13176.8
13180.6
13182
13184.3
13186.7
13189.6
13193.4
13198
13203.4
13209.8
13217.1
13225.4
13235.4
13246.2
13257.7
13268.5
13279.4
13289.1
13299.7
13309.6
13319.4
13328.2
13334.4
13339.3
13339
13337.8
13334.4
13330
13322.7
13321.2
13321.5
13322.5
13325.5
13330.2
13338.2
13347.2
13357.4
13367.2
13377
13384.7
13391.6
13394.5
13396.2
13394.8
13392.3
13387.6
13382.4
13378.2
13376.1
13375.1
13377.3
13381.4
13387
13394.1
13402
13410.3
13417.8
13424
13426.5
13428.9
13426.5
13424.1
13419.5
13415.5
13411.9
13409.3
13409.2
13410.1
13412.6
13417.3
13423.8
13430.4
13437.1
13442.6
13446.9
13450.8
13449
13445.9
13442.8
13439.1
13435.3
13432.3
13430.4
13430.8
13432.3
13435
13438.7
13443.7
13448.9
13453.9
13458.8
13459.5
13459.2
13458.3
13455.6
13452.7
13449.9
13447.4
13445.4
13445.3
13446
13447.9
13450.7
13454.4
13458.3
13462.7
13465.7
3503.4
3490.3
3491.51
3480.66
3477.43
3469.06
3456.95
3441.8
3424.34
3405.72
3384.51
3362.72
3342.63
3323.77
3307.24
3292.42
3280.27
3270.83
3264.38
3261
3261.07
3265.03
3272.17
3284.02
3300.38
3322.63
3350.51
3385.7
3427.44
3478.07
3535.38
3602.62
3676.39
3763.24
3855.24
3959.56
4067.78
4194.54
4325.27
4463.47
4618.61
4780.92
4950.5
5133.31
5315.67
5514.69
5711.27
5928.36
6137.23
6363.19
6580.91
6833.64
7056.02
7302.55
7525.23
7804.25
8031.83
8259.04
8510.38
8733.02
8971.23
9191.34
9426.52
9645.82
9865.39
10062.6
10254.1
10442.5
10616.9
10792.3
10954.4
11111.6
11264.9
11397.4
11527.6
11639.2
11750.1
11853.9
11940.5
12033
12115.8
12197.3
12258.9
12325.5
12379.4
12437.2
12482.1
12534
12571.6
12614.5
12645.3
12681.5
12705.2
12733.9
12750.4
12766.3
12775.2
12790
12801.5
12816.2
12829.3
12842
12851
12860.6
12867.8
12875.5
12882.7
12889.9
12897.8
12907
12916.7
12928.6
12941.5
12955.9
12972.2
12985
12993.3
12998.4
12994.3
12994
12985.6
12993.5
13014.9
13034.5
13051.2
13071.2
13091.8
13110.1
13126
13141.2
13153
13163
13170.1
13175.1
13179
13181.1
13184.2
13186.5
13189.4
13193.3
13197.9
13203.4
13209.8
13217.3
13225.6
13235.5
13246.1
13257.4
13267.9
13278.9
13288.5
13299.7
13309.1
13319
13327.2
13333.3
13337.7
13337.4
13336.9
13333.5
13329.6
13323.3
13321.3
13321.9
13323.2
13326.2
13331
13338.6
13347.5
13357.4
13366.9
13376.6
13384.1
13390.7
13393.6
13395.7
13393.7
13391.7
13387.3
13382.6
13378.5
13376.5
13375.8
13377.8
13381.9
13387.4
13394.4
13402.1
13410.1
13417.4
13423.3
13426.1
13428.3
13426.1
13423.6
13419.4
13415.5
13412.1
13409.6
13409.6
13410.6
13413
13417.6
13424
13430.4
13437
13442.4
13446.4
13450.2
13448.9
13445.8
13442.7
13439.1
13435.4
13432.5
13430.7
13431.1
13432.6
13435.3
13438.9
13443.8
13449
13453.7
13458.5
13459.5
13459
13458.1
13455.6
13452.7
13450
13447.5
13445.6
13445.5
13446.3
13448.1
13450.9
13454.5
13458.3
13462.7
13465.6
3511.79
3492.58
3497.07
3485.63
3477.35
3465.37
3451.13
3434.92
3417.34
3396.73
3374.87
3353.49
3334.17
3316.5
3300.91
3287.26
3276.03
3267.36
3261.44
3258.32
3258.18
3262.08
3268.83
3280.28
3296.02
3317.81
3344.89
3379.68
3420.46
3470.82
3527.46
3594.32
3666.1
3753.11
3844.55
3949.22
4055.96
4183.22
4313.74
4451.21
4606.64
4767.43
4936.62
5116.43
5296.86
5493.49
5687.02
5908.07
6109.24
6333.5
6538.21
6803.22
7016.43
7262.64
7471.58
7755.24
7992.21
8205.59
8453.78
8669.94
8909.72
9126.12
9364.74
9585.79
9808.39
10006.1
10195.1
10384.8
10559.8
10739.6
10900.9
11064.4
11218.8
11352.7
11487.1
11598.1
11713.9
11819.2
11905.7
12006.7
12085.8
12174.1
12231
12308.6
12355.9
12423.1
12462.7
12523.3
12555.5
12604.9
12633.2
12674.5
12694.4
12727.1
12739.5
12759
12770
12789
12799.1
12814.7
12825.3
12837.3
12846.3
12857.5
12865.3
12873.5
12880.7
12888
12896.4
12906.3
12916.4
12928.8
12941.8
12955.9
12972.3
12981.7
12987.5
12992.1
12990.6
12993.2
12989.1
12996.4
13015.5
13037.4
13054.3
13072.3
13089.9
13108.1
13123.3
13139.1
13150.5
13161.6
13167.9
13173.5
13177.3
13180.2
13184.4
13186.6
13189.5
13193.5
13198.1
13203.7
13210.2
13217.8
13226.2
13236
13246.2
13257.2
13267.3
13278.5
13288.1
13299.7
13308.8
13318.6
13326.1
13332.1
13335.7
13335.7
13335.8
13332.7
13329.6
13323.8
13321.9
13322.6
13324.2
13327.3
13332.1
13339.4
13348
13357.4
13366.7
13376.1
13383.5
13389.7
13392.6
13394.8
13392.8
13391
13387.1
13382.8
13378.9
13377.1
13376.7
13378.5
13382.3
13388
13394.9
13402.3
13409.9
13416.9
13422.7
13425.5
13427.6
13425.6
13423.1
13419.3
13415.6
13412.4
13410
13410.1
13411.2
13413.6
13418
13424.2
13430.5
13436.9
13442.1
13445.8
13449.5
13448.7
13445.7
13442.5
13439
13435.5
13432.8
13431.1
13431.5
13432.9
13435.6
13439.2
13444
13449
13453.5
13458.1
13459.5
13458.8
13457.8
13455.6
13452.8
13450
13447.7
13445.8
13445.8
13446.5
13448.3
13451.1
13454.7
13458.4
13462.6
13465.4
3520.22
3497.57
3501.28
3488.86
3476.65
3462.14
3446.4
3429.56
3410.97
3388.51
3366.65
3345.85
3327.29
3310.52
3295.73
3282.95
3272.43
3264.29
3258.63
3255.57
3255.26
3258.94
3265.28
3276.3
3291.36
3312.76
3339.01
3373.51
3413.56
3463.36
3518.4
3585.44
3655.81
3743.26
3834.01
3939.14
4044.69
4171.9
4300.37
4436.19
4591.83
4747.4
4917.51
5090.43
5267.76
5466.58
5647.62
5877.11
6065.77
6289.3
6474.8
6744.81
6949.74
7198.67
7395.7
7662.35
7927.93
8132.64
8366.32
8576.14
8813.17
9027.59
9265.66
9493.1
9714.56
9916.66
10103.9
10293.4
10471.1
10655.7
10818.5
10988.9
11148.6
11281.2
11424
11534.3
11658.3
11768.2
11851.7
11972.2
12037.8
12135.2
12192.1
12282.8
12322.8
12400.1
12435.7
12502.9
12533.1
12585.6
12616.1
12658.2
12679.8
12712.1
12723.9
12745.9
12761.9
12784.2
12795.1
12811
12820.2
12831
12840.9
12853.5
12862.2
12871.3
12878.7
12886.6
12895.5
12905.9
12916.7
12929.2
12942.2
12956.3
12971.6
12977.4
12981
12984.4
12986.9
12992.5
12993.8
13000.3
13018
13040.8
13057.4
13072.8
13088.7
13105.6
13120.5
13136.2
13148.1
13159.6
13165.6
13171.6
13175.5
13179.5
13184.5
13186.8
13189.9
13193.8
13198.6
13204.2
13210.8
13218.4
13227.1
13236.7
13246.5
13257
13267
13277.9
13287.9
13299.7
13308.7
13317.9
13325
13330.6
13333.5
13334
13334.4
13331.9
13329.2
13324.6
13322.8
13323.6
13325.4
13328.8
13333.3
13340.3
13348.6
13357.6
13366.4
13375.5
13382.7
13388.7
13391.3
13393.6
13391.9
13390.1
13386.9
13383.2
13379.6
13378
13377.8
13379.4
13383.1
13388.7
13395.4
13402.5
13409.8
13416.4
13421.9
13424.7
13426.9
13424.9
13422.6
13419.2
13415.7
13412.7
13410.6
13410.8
13411.9
13414.3
13418.5
13424.4
13430.6
13436.8
13441.7
13445.1
13448.8
13448.4
13445.5
13442.3
13439
13435.7
13433.2
13431.6
13432
13433.4
13436
13439.6
13444.1
13449
13453.2
13457.7
13459.5
13458.5
13457.6
13455.6
13452.8
13450.1
13447.9
13446.1
13446.1
13446.9
13448.6
13451.4
13454.8
13458.5
13462.6
13465.3
3527.08
3502.69
3504.2
3490.91
3476.35
3460.08
3443.32
3425.24
3404.44
3381.66
3359.81
3339.78
3321.88
3305.82
3291.68
3279.53
3269.48
3261.62
3256
3253.01
3252.49
3255.75
3261.63
3272.25
3286.56
3307.75
3333.33
3367.24
3405.58
3455.41
3509.08
3576.95
3646.47
3734.4
3823.76
3927.94
4031.9
4158.2
4281.78
4414.45
4576.76
4717.08
4882.42
5056.6
5222.96
5428.69
5590.34
5824.04
5999.36
6224.36
6389.44
6649.12
6847.32
7099.21
7294.91
7530.93
7812.06
8012.97
8234.38
8443.75
8670.24
8896.7
9130.64
9358.66
9573.89
9794.12
9973.76
10176.5
10345.7
10544.8
10704.8
10883.2
11053.6
11182.6
11343.4
11445.8
11585.6
11684.5
11791.8
11925.3
11974.8
12081.1
12142.1
12240.9
12281.6
12364.5
12402.7
12472.5
12506.9
12560.8
12594.2
12639.1
12658.7
12692.7
12706.3
12731
12751
12777.3
12789.1
12805.5
12812.9
12822.8
12833
12847.1
12857.3
12867.6
12875.8
12884.6
12894.4
12905.5
12916.8
12929.7
12942.6
12956.3
12968.8
12971.5
12973.1
12976.6
12982.6
12992.1
12999.1
13007.2
13022.3
13043.5
13059.9
13073.4
13087.3
13102.9
13117.3
13133
13144.7
13157.1
13162.7
13169.4
13173.6
13178.6
13184.6
13187
13190.3
13194.4
13199.2
13205
13211.7
13219.5
13228.2
13237.5
13246.9
13256.9
13266.7
13277.5
13287.9
13299.8
13308.2
13317.3
13323.5
13328.6
13331.3
13332.1
13332.7
13330.8
13329.1
13325.7
13324
13324.9
13327
13330.4
13335
13341.5
13349.2
13357.7
13366.3
13375.1
13381.7
13387.4
13389.9
13392.3
13390.8
13389.2
13386.6
13383.6
13380.4
13379
13379
13380.5
13384.1
13389.5
13396.1
13402.8
13409.7
13415.7
13421
13423.8
13426
13424.2
13422.1
13419.1
13416
13413.2
13411.3
13411.6
13412.7
13415.1
13419.2
13424.8
13430.7
13436.6
13441.3
13444.4
13447.9
13448
13445.3
13442.1
13439
13436
13433.6
13432.1
13432.5
13433.9
13436.5
13440
13444.3
13449.1
13452.9
13457.3
13459.3
13458.2
13457.3
13455.6
13452.9
13450.3
13448.1
13446.4
13446.5
13447.2
13449
13451.7
13455
13458.6
13462.5
13465.1
3533.58
3508.2
3506.73
3492.42
3475.91
3458.85
3439.53
3422.07
3399.02
3376.14
3354.5
3335.17
3317.85
3302.37
3288.72
3276.98
3267.16
3259.38
3253.76
3250.71
3249.91
3252.65
3258.04
3268.37
3282
3302.84
3326.91
3360.69
3397.49
3448.24
3501.17
3569.42
3637.56
3725.18
3812.09
3912.94
4015.6
4142.05
4257.18
4379.57
4553.92
4676.63
4822.41
5016.08
5160.04
5367.23
5510.85
5741.17
5903.76
6128.65
6276.12
6509.95
6695.97
6941.01
7150.87
7369.82
7629.16
7858.87
8060.12
8273.36
8488.41
8734.39
8941.26
9195.84
9376.24
9637.31
9791.53
10035.8
10180.7
10412.1
10552.6
10753.5
10904.3
11070.8
11224.7
11342.1
11501
11575.7
11722.7
11843
11898.5
12018.1
12077
12180.5
12228.9
12318.7
12360.2
12433.5
12471.1
12530.3
12562.1
12610.5
12631.4
12669
12683.8
12713.1
12736.8
12767.6
12781.1
12799
12805
12814.9
12825.5
12841.3
12852.3
12863.7
12872.9
12882.7
12893.4
12904.9
12916.8
12930.2
12942.7
12955.2
12963.8
12963.7
12964
12968.5
12977.7
12991.7
13005.6
13014.9
13027.6
13046.2
13062.3
13073.6
13085.9
13100
13113.8
13128.8
13140.7
13153.6
13159.3
13166.7
13171.4
13177.5
13184.5
13187.2
13190.9
13195.1
13200
13205.9
13212.8
13220.7
13229.4
13238.5
13247.3
13256.8
13266.5
13277.1
13287.8
13299.8
13307.7
13316.5
13321.6
13326.3
13328.8
13329.9
13330.9
13329.7
13328.8
13326.9
13325.5
13326.4
13328.8
13332.4
13336.9
13342.9
13350.1
13358
13366.1
13374.4
13380.4
13385.9
13388.4
13390.8
13389.6
13388.2
13386.3
13384
13381.4
13380.3
13380.5
13381.9
13385.3
13390.5
13396.8
13403.1
13409.5
13414.9
13420
13422.8
13425
13423.4
13421.5
13419
13416.2
13413.8
13412.2
13412.5
13413.7
13416.1
13420
13425.2
13430.8
13436.4
13440.8
13443.6
13447
13447.5
13445
13442
13439
13436.3
13434.1
13432.7
13433.2
13434.5
13437
13440.4
13444.6
13449.1
13452.5
13456.8
13459.1
13457.9
13457
13455.5
13453
13450.4
13448.4
13446.8
13446.9
13447.7
13449.4
13452
13455.2
13458.6
13462.4
13464.8
3535.4
3513.06
3506.66
3491.86
3475.06
3456.82
3437.67
3418.25
3394.68
3371.87
3350.73
3332
3315.15
3300.12
3286.8
3275.28
3265.5
3257.68
3252.05
3248.74
3247.6
3249.8
3254.62
3264.85
3277.09
3297.71
3320.4
3354.98
3391.08
3442.38
3494.12
3561.8
3627.89
3714
3797.12
3890.94
3991.54
4125.03
4226.89
4327.65
4502.57
4627.6
4748.39
4948.73
5072.67
5277.39
5407.23
5623
5767.25
5986
6129.79
6339.72
6518.68
6736.98
6951.89
7168.22
7393.2
7651.94
7829.7
8083.11
8261.94
8540.7
8709.17
8991.17
9138.07
9433.85
9579.4
9855.96
9993.01
10250.5
10377.6
10606.5
10726.5
10938.6
11056.6
11234.3
11380.2
11460.6
11629.6
11722
11811.6
11952.8
11996.2
12106
12159.2
12261.2
12304.6
12385.3
12423.6
12490.9
12519.4
12573.5
12592.9
12635.3
12654.7
12690.1
12715.9
12751.1
12766.1
12787.3
12792.2
12804.2
12816
12833.3
12844.3
12857.9
12869.2
12881.2
12893.2
12905.5
12918.4
12932.9
12944.9
12954.8
12958.6
12956.1
12956.2
12962.2
12974.1
12992.3
13011.4
13023.6
13034.5
13049.4
13063.5
13073.5
13084.1
13096.5
13109.1
13123.8
13135.5
13149
13155.2
13163.5
13169.1
13176.3
13184.1
13187.4
13191.4
13195.8
13200.9
13206.9
13214
13222
13230.6
13239.3
13247.7
13256.7
13266.2
13276.7
13287.6
13299.6
13306.8
13315.2
13319.4
13323.6
13326
13327.4
13328.8
13328.3
13328.6
13328.1
13327.3
13328.3
13330.8
13334.5
13339
13344.6
13351
13358.3
13365.8
13373.5
13379
13384.2
13386.5
13389
13388.1
13387.1
13385.9
13384.5
13382.5
13381.7
13382.1
13383.5
13386.7
13391.7
13397.5
13403.4
13409.2
13414.1
13418.8
13421.6
13423.7
13422.4
13420.8
13418.8
13416.5
13414.5
13413.2
13413.5
13414.8
13417.3
13420.9
13425.7
13430.9
13436.2
13440.2
13442.8
13445.9
13446.8
13444.6
13441.8
13439.1
13436.6
13434.7
13433.5
13433.9
13435.2
13437.7
13441
13444.8
13449.1
13452.2
13456.2
13458.8
13457.5
13456.6
13455.4
13453
13450.6
13448.7
13447.3
13447.4
13448.2
13449.9
13452.4
13455.5
13458.7
13462.3
13464.6
3533.78
3513.54
3505.53
3490.49
3473.7
3454.71
3436.82
3415.18
3391.53
3368.87
3348.42
3330.18
3313.71
3299.01
3285.85
3274.38
3264.51
3256.68
3250.83
3247.17
3245.63
3247.45
3251.27
3261.2
3272.14
3293.33
3315.47
3350.8
3385.96
3437.1
3486.72
3551.94
3615.55
3699.15
3778.04
3860.57
3950.65
4096.43
4193.37
4269.75
4405.95
4569.84
4662.79
4849.76
4958.52
5153.34
5270.28
5470.71
5603.52
5802.88
5942.66
6138.99
6305.75
6512.88
6704.95
6937.95
7116.22
7376.26
7551.45
7848.12
8017.52
8314.47
8449.56
8747.2
8879.08
9183.16
9328.27
9632.04
9766
10050.8
10173.8
10430.2
10537
10779.6
10886.6
11096.8
11227.8
11368
11541.5
11590
11730.6
11880.5
11914.9
12037
12093.2
12203.6
12247
12338.4
12377.1
12451.4
12475.8
12535.2
12551.9
12602.2
12623.1
12667.7
12690.6
12729.3
12743.9
12769
12775
12790
12801.6
12820.3
12830.7
12847.4
12860.8
12875.4
12889.2
12902.7
12917.2
12932.5
12943.2
12951.3
12950.3
12946.4
12948.6
12957.7
12973
12994.2
13019.1
13034.1
13043.9
13054.3
13065.4
13074.7
13083.9
13094.3
13105.4
13119.3
13130.5
13144.3
13151.2
13160.5
13166.8
13174.8
13183.2
13187.3
13191.9
13196.7
13202
13208.2
13215.5
13223.5
13231.9
13240.1
13248.1
13256.6
13265.8
13276.1
13287.1
13299
13305.5
13313.6
13316.7
13320.3
13322.7
13324.5
13326.4
13326.8
13328.2
13329.3
13329.2
13330.5
13333.1
13336.9
13341.3
13346.4
13352.1
13358.6
13365.4
13372.5
13377.3
13382.2
13384.4
13387
13386.5
13386
13385.5
13385
13383.7
13383.3
13383.8
13385.3
13388.3
13393
13398.3
13403.6
13408.9
13413.1
13417.5
13420.3
13422.3
13421.2
13420.1
13418.7
13416.9
13415.3
13414.2
13414.6
13416.1
13418.5
13421.9
13426.2
13431
13435.9
13439.6
13441.9
13444.7
13445.9
13444.2
13441.6
13439.1
13437
13435.3
13434.3
13434.7
13436
13438.4
13441.5
13445.1
13449
13451.8
13455.6
13458.3
13457.1
13456.3
13455.2
13453.1
13450.8
13449
13447.8
13447.9
13448.7
13450.4
13452.8
13455.7
13458.8
13462.2
13464.3
3533.14
3512.21
3503.72
3488.75
3472.08
3453.67
3435.43
3412.91
3389.53
3367.19
3347.49
3329.68
3313.47
3298.99
3285.84
3274.28
3264.3
3256.33
3250.12
3246.14
3243.98
3245.28
3247.95
3258.14
3268.52
3290.67
3312.05
3347.49
3380.96
3430.68
3476.95
3536.6
3597.79
3681.03
3751.22
3825.39
3893.93
4042.07
4135.5
4220.24
4304.94
4475.31
4555.89
4720.72
4816.61
4994.67
5107.27
5284.44
5404.86
5584.33
5722.52
5922.47
6067.76
6274.45
6411.27
6644.74
6762.2
6961.39
7187.68
7455.54
7663.94
7961.28
8100.01
8419.16
8561.45
8896.72
9034.39
9365.49
9506.54
9825.07
9937.94
10220.1
10330.2
10597.6
10695.6
10933.8
11026.3
11229.8
11398.4
11449.8
11619.2
11749.1
11803.4
11945.3
11996.5
12112.1
12157.7
12262.8
12303.1
12388.4
12413.1
12481
12498.2
12555.6
12580.7
12637.3
12661.5
12705.1
12719
12749.6
12758
12778.6
12788.6
12807.8
12816.6
12836.5
12851.7
12868.8
12883.9
12898.8
12914.3
12929.1
12936.9
12941.8
12937.4
12932.5
12938.5
12951.2
12969.4
12992.9
13021.2
13043.2
13050.8
13058
13066.7
13075.2
13083.1
13092.2
13101.8
13114.8
13125
13139.1
13147.2
13157.9
13165.6
13174.4
13183
13188.6
13193.6
13198.4
13203.9
13210.3
13217.7
13225.6
13233.7
13241.2
13248.8
13256.9
13265.9
13276
13286.7
13298.2
13304
13311.6
13313.6
13316.7
13319.1
13321.4
13323.7
13325.2
13327.8
13330.5
13331.2
13332.9
13335.6
13339.4
13343.7
13348.3
13353.2
13358.9
13364.8
13371.3
13375.3
13379.9
13382
13384.7
13384.6
13384.7
13385
13385.5
13385
13385
13385.7
13387.3
13390.2
13394.4
13399.1
13403.8
13408.6
13412
13416.1
13418.7
13420.7
13420
13419.3
13418.5
13417.2
13416.1
13415.4
13415.9
13417.4
13419.9
13423
13426.8
13431
13435.4
13438.8
13440.9
13443.4
13444.9
13443.6
13441.4
13439.2
13437.4
13436
13435.2
13435.6
13436.8
13439.1
13442.2
13445.4
13448.9
13451.4
13454.9
13457.7
13456.6
13455.9
13455
13453.1
13451
13449.4
13448.3
13448.5
13449.3
13450.9
13453.3
13455.9
13458.8
13462.1
13464
3530.69
3509.68
3501.27
3486.87
3470.72
3453.4
3434.21
3411.55
3388.68
3366.92
3347.88
3330.4
3314.32
3299.95
3286.69
3274.94
3264.82
3256.6
3249.98
3245.51
3242.33
3243.52
3245.56
3256.74
3266.36
3289.03
3308.89
3343.2
3373.76
3420.25
3462.95
3514.65
3568.28
3658.74
3714.44
3792.28
3831.88
3968.35
4044.32
4164.1
4209.5
4350.66
4422.83
4563.03
4655.98
4799.58
4903.99
5062.32
5174.99
5319.27
5432.55
5596.62
5711.95
5896.89
6025.22
6270.18
6420.22
6630.21
6873.24
7076.72
7384.28
7616.79
7781.91
8117.29
8250.31
8595.41
8738.17
9097.75
9238.02
9571.06
9698.02
10010.4
10127.7
10408.7
10515
10775.1
10876.5
11106.8
11242.3
11347.7
11540.7
11629.4
11734.3
11892.2
11933.7
12055.3
12105.4
12220.6
12256.2
12345.6
12369
12442.9
12460.7
12525.3
12552.5
12610.1
12633.1
12678
12687.6
12722.3
12734.1
12761.8
12772.6
12793.1
12800.9
12822.2
12838.2
12858.1
12875.1
12891.6
12908.5
12922.6
12928.2
12932
12924.1
12920.8
12928.6
12945.7
12967.6
12992.3
13020.8
13045.1