/*--------------------------------*- C++ -*----------------------------------*\
| =========                 |                                                 |
| \\      /  F ield         | OpenFOAM: The Open Source CFD Toolbox           |
|  \\    /   O peration     | Version:  2312                                  |
|   \\  /    A nd           | Website:  www.openfoam.com                      |
|    \\/     M anipulation  |                                                 |
\*---------------------------------------------------------------------------*/
FoamFile
{
    version     2.0;
    format      ascii;
    arch        "LSB;label=32;scalar=64";
    class       volScalarField;
    location    "0.004";
    object      rho;
}
// * * * * * * * * * * * * * * * * * * * * * * * * * * * * * * * * * * * * * //

dimensions      [1 -3 0 0 0 0 0];

internalField   nonuniform List<scalar> 
48128
(
0.034225
0.0342192
0.034137
0.0340321
0.0340169
0.03398
0.0339482
0.0338963
0.0338347
0.0337675
0.0338898
0.0339201
0.0339829
0.0339016
0.0337042
0.0335169
0.033389
0.0333081
0.0332785
0.0333009
0.033374
0.0334931
0.0336588
0.0338729
0.0341385
0.034457
0.0348324
0.0352856
0.0357984
0.036382
0.037038
0.0377679
0.0385728
0.0394611
0.0404237
0.0414731
0.042606
0.0438292
0.0451225
0.046518
0.0479964
0.0495552
0.0511988
0.0529281
0.0547131
0.0566142
0.0585341
0.0605976
0.0626656
0.0648644
0.0670582
0.0693858
0.0717051
0.0741294
0.0765384
0.0790363
0.0815375
0.084045
0.0865706
0.0890782
0.0915784
0.0940513
0.0965007
0.0989195
0.101302
0.103644
0.105932
0.10817
0.110366
0.112464
0.114541
0.116502
0.118433
0.120288
0.122037
0.123759
0.12533
0.126911
0.128348
0.129783
0.131099
0.132424
0.133612
0.134795
0.135872
0.136937
0.137915
0.138883
0.139771
0.140648
0.141448
0.14224
0.142961
0.143667
0.144291
0.144866
0.145361
0.145845
0.146329
0.146817
0.147297
0.14777
0.148186
0.148569
0.148925
0.14927
0.149605
0.149931
0.150248
0.15056
0.150871
0.151188
0.151513
0.151847
0.152188
0.152523
0.15286
0.153072
0.153227
0.153262
0.153283
0.153778
0.15391
0.154061
0.154409
0.154721
0.155029
0.155346
0.155622
0.155867
0.156073
0.156258
0.15643
0.156571
0.156698
0.156784
0.156872
0.156962
0.157054
0.157148
0.157244
0.157345
0.15745
0.157559
0.157682
0.157813
0.157945
0.158085
0.158208
0.158333
0.158438
0.158545
0.158654
0.15876
0.158862
0.158935
0.159003
0.159009
0.158991
0.158958
0.158903
0.158824
0.158818
0.158786
0.158776
0.158787
0.158816
0.158871
0.158937
0.159015
0.159092
0.159168
0.15923
0.159285
0.159313
0.159314
0.159294
0.159261
0.159203
0.159133
0.159077
0.159032
0.158996
0.158997
0.159011
0.159034
0.159072
0.159125
0.159183
0.159237
0.159278
0.159288
0.159289
0.159261
0.159223
0.159165
0.159107
0.159052
0.159001
0.158972
0.158954
0.15895
0.158968
0.159
0.159037
0.15908
0.159108
0.159137
0.159153
0.159109
0.159077
0.159034
0.158975
0.158919
0.158867
0.158821
0.158797
0.158783
0.158779
0.158786
0.158806
0.158829
0.158859
0.158881
0.158862
0.158851
0.158819
0.158773
0.158728
0.15868
0.158632
0.158584
0.158555
0.158535
0.158523
0.158521
0.158528
0.158538
0.158559
0.158555
0.0341618
0.0341902
0.0341401
0.0340632
0.0340633
0.0340341
0.0340054
0.0339606
0.0339734
0.0340589
0.0342715
0.0343608
0.0344029
0.0343573
0.0342764
0.0342434
0.0341518
0.0340805
0.0340459
0.0340562
0.0341109
0.0342061
0.0343424
0.034522
0.034748
0.035025
0.0353599
0.0357414
0.0361935
0.0367203
0.0373139
0.0379893
0.0387347
0.039565
0.0404698
0.041461
0.0425325
0.043699
0.0449405
0.0462839
0.0477105
0.0492251
0.0508263
0.0525211
0.054284
0.0561655
0.0580799
0.0601396
0.0622198
0.0644379
0.0666729
0.0690482
0.0714378
0.0739393
0.0764513
0.079069
0.0817148
0.084386
0.0870806
0.0897768
0.0924824
0.0951797
0.0978703
0.100545
0.103197
0.105818
0.1084
0.110945
0.113448
0.115858
0.118257
0.120547
0.1228
0.124978
0.127048
0.129091
0.130986
0.132885
0.134632
0.136383
0.138005
0.139639
0.141122
0.142604
0.143965
0.145319
0.146571
0.147817
0.148968
0.150111
0.151166
0.152215
0.153183
0.154135
0.154998
0.155805
0.156528
0.157239
0.157951
0.158665
0.159367
0.160058
0.160683
0.161271
0.161829
0.162374
0.162907
0.163428
0.163937
0.164438
0.164934
0.165436
0.165943
0.166455
0.166972
0.167478
0.16798
0.168348
0.168649
0.16883
0.168996
0.169667
0.169961
0.170261
0.170746
0.171211
0.171657
0.172103
0.172506
0.172872
0.173194
0.173491
0.173775
0.174023
0.174257
0.174445
0.174637
0.17483
0.175026
0.17522
0.175415
0.175612
0.175811
0.176013
0.176223
0.176444
0.176675
0.17691
0.177129
0.177348
0.177547
0.177746
0.177944
0.178138
0.178326
0.178482
0.178627
0.178703
0.178754
0.178787
0.178792
0.178786
0.178845
0.178874
0.178936
0.179006
0.179105
0.17922
0.179348
0.179489
0.179621
0.179754
0.179862
0.179966
0.180028
0.180062
0.180069
0.180062
0.180025
0.179983
0.179952
0.179931
0.179925
0.179956
0.179999
0.180052
0.180119
0.1802
0.180285
0.18036
0.18042
0.18044
0.180453
0.180431
0.180395
0.180339
0.180282
0.180229
0.180181
0.180159
0.180149
0.180154
0.180182
0.180224
0.180268
0.180317
0.180347
0.180374
0.180383
0.180329
0.180289
0.180234
0.180165
0.180098
0.180037
0.179982
0.179953
0.179934
0.179926
0.179928
0.179945
0.17996
0.179982
0.179991
0.179956
0.179929
0.179878
0.179814
0.179751
0.179685
0.17962
0.179555
0.179511
0.179477
0.179452
0.179436
0.17943
0.179426
0.179431
0.179396
0.0341995
0.0342024
0.0341505
0.0340665
0.0340615
0.0340144
0.0339679
0.0339802
0.0341011
0.0343448
0.0344755
0.0345217
0.0345484
0.0345372
0.0343561
0.0341404
0.034002
0.0339205
0.0338783
0.0338784
0.0339191
0.0339981
0.0341166
0.034278
0.0344876
0.0347486
0.035067
0.0354422
0.0358812
0.0363893
0.0369619
0.0376158
0.0383404
0.0391528
0.0400415
0.0410186
0.0420758
0.0432314
0.0444645
0.0458012
0.0472316
0.0487551
0.0503703
0.0520886
0.0538812
0.0558016
0.0577617
0.0598758
0.0620191
0.0643113
0.0666294
0.069101
0.0715948
0.0742153
0.0768519
0.0795962
0.0823602
0.0851681
0.0880285
0.0909005
0.0937914
0.0966812
0.0995722
0.102453
0.105314
0.108147
0.110942
0.1137
0.116419
0.119045
0.121656
0.12415
0.126611
0.128983
0.131248
0.133476
0.135551
0.137627
0.139538
0.141455
0.143232
0.145026
0.146648
0.148269
0.149752
0.151232
0.152597
0.15396
0.155217
0.156467
0.15762
0.158769
0.15983
0.160877
0.161825
0.162712
0.16351
0.164295
0.165082
0.165873
0.166652
0.167419
0.168114
0.16877
0.169396
0.170006
0.170606
0.171192
0.171767
0.172333
0.172895
0.173463
0.174036
0.174616
0.175201
0.175774
0.176339
0.176765
0.177117
0.177358
0.177558
0.178264
0.178656
0.179019
0.179549
0.180096
0.180614
0.18112
0.18158
0.182003
0.182379
0.182726
0.183057
0.183351
0.183629
0.18386
0.184094
0.18433
0.18457
0.184808
0.185048
0.185289
0.185534
0.18578
0.186036
0.186301
0.186575
0.186852
0.187113
0.187373
0.187612
0.187851
0.188089
0.188322
0.188548
0.188739
0.188919
0.189024
0.189105
0.189165
0.189197
0.189216
0.189303
0.189363
0.189458
0.189558
0.189691
0.189838
0.190002
0.190173
0.190337
0.1905
0.190635
0.190767
0.190851
0.190906
0.19093
0.190938
0.190916
0.190885
0.19087
0.190864
0.190879
0.190925
0.190983
0.191054
0.191141
0.19124
0.191344
0.191435
0.191508
0.191538
0.191562
0.191543
0.19151
0.191456
0.191403
0.191353
0.191308
0.19129
0.191286
0.191299
0.191334
0.191384
0.191435
0.19149
0.191526
0.191553
0.191565
0.191507
0.19146
0.191401
0.191327
0.191255
0.191188
0.19113
0.191099
0.191079
0.191069
0.19107
0.191087
0.1911
0.19112
0.191126
0.191083
0.191047
0.190986
0.190912
0.190838
0.190763
0.190687
0.190613
0.190562
0.19052
0.190488
0.190466
0.190452
0.190442
0.190438
0.190389
0.0342032
0.0341769
0.0341387
0.0340472
0.0340365
0.0339822
0.0340078
0.0341871
0.0344392
0.0345769
0.0346173
0.0345954
0.0345093
0.0343151
0.0341564
0.034
0.033873
0.0337833
0.0337296
0.0337151
0.0337413
0.0338048
0.0339072
0.0340539
0.0342478
0.0344907
0.0347881
0.0351437
0.0355629
0.0360509
0.0366065
0.0372434
0.0379512
0.0387497
0.0396229
0.0405888
0.0416307
0.0427824
0.0440117
0.0453474
0.0467861
0.0483206
0.0499521
0.0516979
0.0535213
0.055484
0.057492
0.0596684
0.0618868
0.0642665
0.0666793
0.069266
0.0718809
0.074642
0.0774242
0.0803406
0.0832869
0.0862829
0.0893391
0.0924113
0.0955094
0.0986126
0.101724
0.104829
0.107917
0.110975
0.113986
0.116965
0.119892
0.122726
0.12554
0.128223
0.130884
0.133427
0.135872
0.138253
0.140479
0.142705
0.144743
0.146788
0.148685
0.150603
0.152322
0.154039
0.155605
0.157167
0.1586
0.160033
0.16135
0.16266
0.163862
0.165062
0.166167
0.167258
0.16824
0.169153
0.169973
0.17078
0.17159
0.172404
0.173207
0.173995
0.174706
0.175379
0.17602
0.176645
0.177259
0.177859
0.178449
0.179029
0.179606
0.180189
0.180778
0.181377
0.181978
0.182571
0.183147
0.183588
0.183942
0.184209
0.184411
0.185067
0.185528
0.185925
0.186457
0.187039
0.187586
0.188108
0.188585
0.189028
0.189423
0.189786
0.190132
0.190439
0.190729
0.190973
0.191219
0.191467
0.191719
0.191971
0.192225
0.192481
0.192742
0.193004
0.193277
0.193559
0.19385
0.194144
0.194421
0.194697
0.194952
0.195206
0.19546
0.195708
0.195947
0.196151
0.196342
0.196456
0.196546
0.196614
0.196656
0.196679
0.196773
0.196847
0.196952
0.197063
0.197209
0.19737
0.19755
0.197735
0.197914
0.198092
0.198239
0.198383
0.198476
0.19854
0.198572
0.198586
0.198569
0.198542
0.198533
0.198534
0.198557
0.198609
0.198677
0.198755
0.198851
0.19896
0.199073
0.199173
0.199254
0.199288
0.199318
0.199301
0.199268
0.199214
0.199161
0.199113
0.199068
0.199052
0.199051
0.199066
0.199104
0.199159
0.199214
0.199272
0.199311
0.199338
0.199352
0.199294
0.19924
0.199178
0.1991
0.199022
0.198952
0.19889
0.198858
0.198835
0.198823
0.198823
0.198839
0.198851
0.198868
0.198873
0.198826
0.198783
0.198716
0.198635
0.198554
0.19847
0.198388
0.198306
0.198249
0.198201
0.198164
0.198136
0.198118
0.198102
0.198093
0.198034
0.034221
0.0341543
0.0341155
0.0340245
0.034016
0.0340176
0.0341914
0.034449
0.0346266
0.0346497
0.0346049
0.0344734
0.0343384
0.0341478
0.0339845
0.0338213
0.0336969
0.0336067
0.0335504
0.03353
0.0335477
0.0336016
0.0336938
0.033829
0.0340086
0.0342369
0.0345189
0.0348592
0.0352634
0.0357375
0.0362794
0.0369039
0.0375997
0.038391
0.0392556
0.0402196
0.0412563
0.0424163
0.0436529
0.0450019
0.0464678
0.0480312
0.0496977
0.0514959
0.0533792
0.0554216
0.0575132
0.0597944
0.0621277
0.0646441
0.0671951
0.0699599
0.0727536
0.0757183
0.0787014
0.0818619
0.0850457
0.0882936
0.0916098
0.0949481
0.0983213
0.101698
0.105091
0.108476
0.111839
0.115164
0.118426
0.121659
0.124808
0.127874
0.130906
0.133789
0.136662
0.139372
0.141993
0.144514
0.146878
0.149234
0.151373
0.153519
0.155506
0.157514
0.15929
0.161062
0.162666
0.164268
0.165726
0.167188
0.168521
0.169848
0.171057
0.172268
0.173368
0.174457
0.175422
0.176315
0.177113
0.177899
0.178689
0.179485
0.180268
0.181034
0.181719
0.182368
0.182984
0.183584
0.184174
0.184749
0.185317
0.185875
0.186433
0.186998
0.18757
0.188153
0.188738
0.189319
0.189871
0.190296
0.190622
0.190888
0.191071
0.191641
0.192145
0.192553
0.193068
0.193642
0.19419
0.194702
0.195169
0.195607
0.195996
0.196354
0.196691
0.196989
0.197269
0.197505
0.197742
0.197982
0.198226
0.198471
0.198719
0.19897
0.199227
0.199486
0.199758
0.200038
0.200328
0.200622
0.200899
0.201174
0.201429
0.201684
0.201937
0.202184
0.202421
0.202622
0.202809
0.202917
0.203005
0.203069
0.203109
0.203124
0.20321
0.203286
0.203388
0.203499
0.203645
0.203807
0.203988
0.204177
0.204359
0.20454
0.204689
0.204835
0.204926
0.204991
0.205022
0.205035
0.205016
0.204988
0.204975
0.204976
0.204999
0.205051
0.205118
0.2052
0.205299
0.20541
0.205525
0.205628
0.20571
0.205745
0.205773
0.205754
0.205718
0.205662
0.205606
0.205555
0.205508
0.205492
0.205489
0.205504
0.205541
0.205596
0.205652
0.20571
0.20575
0.205774
0.205787
0.205729
0.205667
0.205599
0.205518
0.205434
0.205359
0.205293
0.205257
0.20523
0.205216
0.205213
0.205226
0.205236
0.205248
0.205252
0.205201
0.205151
0.205079
0.204992
0.204903
0.204812
0.204723
0.204635
0.204571
0.204518
0.204475
0.204442
0.204419
0.204398
0.204383
0.204315
0.0342409
0.034155
0.034113
0.034019
0.0340486
0.0341693
0.034418
0.0346195
0.0346731
0.034619
0.0344913
0.0343406
0.0341648
0.0339688
0.0338043
0.0336497
0.0335285
0.0334382
0.0333802
0.0333548
0.0333652
0.0334111
0.0334937
0.0336175
0.0337833
0.0339985
0.0342662
0.0345943
0.0349852
0.0354486
0.03598
0.0365963
0.0372835
0.0380746
0.0389371
0.0399079
0.0409475
0.0421301
0.043388
0.0447653
0.0462825
0.0479066
0.0496405
0.0515259
0.0534948
0.0556567
0.0578782
0.0603294
0.0628435
0.0655782
0.0683512
0.071391
0.0744511
0.0777201
0.0810051
0.084543
0.0880433
0.0916514
0.0953424
0.0990428
0.102809
0.10655
0.110326
0.114077
0.117791
0.121451
0.125021
0.128565
0.131971
0.135303
0.138577
0.141668
0.14476
0.147624
0.150407
0.153038
0.155507
0.157952
0.160142
0.162338
0.164355
0.166386
0.168146
0.169914
0.171499
0.17309
0.174518
0.175961
0.177252
0.178546
0.179706
0.180879
0.181918
0.182954
0.183847
0.184673
0.185405
0.18613
0.186863
0.187597
0.188315
0.189011
0.189627
0.190214
0.190766
0.191304
0.191833
0.192348
0.192858
0.19336
0.193865
0.194378
0.194901
0.195435
0.195974
0.196507
0.196998
0.197375
0.197643
0.197882
0.198032
0.198491
0.199001
0.199402
0.199878
0.20041
0.20093
0.201407
0.201842
0.202254
0.202615
0.202948
0.203253
0.203521
0.203771
0.203981
0.204192
0.204406
0.204623
0.204842
0.205066
0.205295
0.205531
0.20577
0.206022
0.206285
0.206558
0.206835
0.207095
0.207357
0.207597
0.207841
0.208077
0.208311
0.208532
0.208717
0.208886
0.208978
0.209051
0.2091
0.209128
0.209125
0.209193
0.20926
0.20935
0.20945
0.209584
0.209737
0.209909
0.210091
0.210265
0.21044
0.210582
0.210719
0.2108
0.210857
0.210879
0.210882
0.210854
0.210819
0.210795
0.21079
0.210804
0.210848
0.210909
0.210989
0.211085
0.21119
0.2113
0.211398
0.211475
0.211506
0.211527
0.211502
0.211459
0.211396
0.211334
0.211275
0.211222
0.211203
0.211195
0.211204
0.211237
0.211288
0.211341
0.211394
0.211431
0.211448
0.211457
0.211397
0.211326
0.21125
0.211162
0.211072
0.21099
0.210918
0.210876
0.210844
0.210825
0.210817
0.210824
0.210831
0.210835
0.210836
0.210782
0.210722
0.210644
0.210551
0.210453
0.210355
0.210257
0.210162
0.210092
0.210032
0.209982
0.209944
0.209914
0.209887
0.209867
0.209788
0.0342812
0.0341702
0.0341308
0.0340532
0.0341666
0.0343647
0.0345866
0.0346746
0.0346424
0.0345269
0.0343766
0.0341839
0.0339909
0.033799
0.033635
0.0334871
0.033369
0.0332793
0.0332201
0.0331908
0.0331945
0.0332341
0.0333061
0.0334187
0.0335723
0.0337763
0.034032
0.0343503
0.0347305
0.0351879
0.0357119
0.0363264
0.0370105
0.0378111
0.0386807
0.0396729
0.0407287
0.0419557
0.0432568
0.0446818
0.0462883
0.048014
0.0498621
0.0518903
0.0540077
0.0563638
0.0587992
0.0615195
0.0643172
0.0673884
0.0705176
0.0739859
0.0774452
0.0811759
0.0849169
0.0890311
0.0929576
0.097056
0.101323
0.105522
0.109821
0.114076
0.118363
0.122615
0.126805
0.130906
0.13487
0.138808
0.142538
0.146189
0.149722
0.153028
0.156337
0.159315
0.162229
0.164904
0.167427
0.169885
0.172045
0.174211
0.176168
0.178121
0.179767
0.181441
0.182911
0.184401
0.185704
0.187036
0.18819
0.189358
0.190373
0.191415
0.192304
0.193212
0.193958
0.194653
0.195257
0.195872
0.196488
0.197103
0.197697
0.198267
0.198765
0.199245
0.199692
0.200128
0.200556
0.200968
0.201382
0.201788
0.202206
0.202632
0.203072
0.203522
0.203989
0.204432
0.204823
0.205118
0.205301
0.20549
0.205586
0.205928
0.206384
0.206771
0.207181
0.20764
0.208106
0.208525
0.208905
0.209269
0.20958
0.209867
0.210119
0.210335
0.210535
0.210701
0.210868
0.211035
0.211207
0.211382
0.211564
0.211753
0.211952
0.212154
0.212372
0.212602
0.21284
0.213085
0.213316
0.213547
0.213761
0.21398
0.214187
0.214393
0.214585
0.21474
0.214877
0.214942
0.214989
0.215012
0.21502
0.214988
0.215022
0.215075
0.215142
0.215221
0.215332
0.215467
0.21562
0.215783
0.21594
0.216099
0.216224
0.216341
0.216405
0.216447
0.216451
0.216434
0.216392
0.216343
0.216301
0.216281
0.216279
0.216309
0.21636
0.216428
0.216513
0.216607
0.216704
0.21679
0.216856
0.216877
0.216885
0.216847
0.216793
0.216719
0.216646
0.216576
0.216512
0.216485
0.216466
0.216465
0.216489
0.216532
0.216576
0.216621
0.21665
0.216657
0.216659
0.216592
0.216509
0.216423
0.216326
0.216226
0.216134
0.216054
0.216003
0.215963
0.215937
0.215921
0.21592
0.215921
0.215915
0.215909
0.21585
0.215779
0.215693
0.215592
0.215485
0.215377
0.215271
0.215167
0.215089
0.21502
0.214963
0.214917
0.21488
0.214846
0.214817
0.214727
0.0343466
0.0341994
0.0342007
0.034181
0.0343345
0.034545
0.0346639
0.0346643
0.0345739
0.0344292
0.0342385
0.0340301
0.0338308
0.0336443
0.0334814
0.0333393
0.0332237
0.0331346
0.033074
0.0330418
0.0330383
0.033071
0.0331328
0.0332361
0.033379
0.0335743
0.0338199
0.0341321
0.0345049
0.0349617
0.0354835
0.0361041
0.0367943
0.0376201
0.0385079
0.0395339
0.040628
0.0419346
0.0433227
0.0448376
0.046582
0.0484731
0.0505126
0.0527742
0.0551442
0.0578089
0.0605851
0.0637187
0.0669313
0.0704835
0.0741221
0.0782393
0.0822333
0.0866085
0.0909779
0.0958409
0.100387
0.105171
0.110151
0.115048
0.120002
0.124966
0.129896
0.134807
0.139599
0.144252
0.14868
0.153093
0.15719
0.161233
0.165038
0.168606
0.172135
0.1752
0.178235
0.180881
0.183436
0.185811
0.187886
0.18993
0.191771
0.19354
0.195007
0.196455
0.197705
0.198956
0.200011
0.201105
0.20199
0.202915
0.203659
0.204453
0.205069
0.205739
0.206221
0.206702
0.207085
0.207512
0.207902
0.208318
0.208706
0.209085
0.209408
0.209726
0.210013
0.210297
0.210571
0.210833
0.211107
0.211378
0.211666
0.21197
0.212287
0.212619
0.212975
0.213281
0.213529
0.213705
0.213781
0.2139
0.213918
0.214135
0.214484
0.214834
0.215162
0.215524
0.215893
0.216237
0.216537
0.216833
0.21707
0.217292
0.217466
0.217613
0.217741
0.217845
0.217954
0.218053
0.21816
0.218275
0.218399
0.218531
0.218675
0.218827
0.218994
0.219175
0.219364
0.21956
0.219745
0.219934
0.220106
0.220289
0.220451
0.220618
0.220762
0.220877
0.220968
0.220997
0.221006
0.220991
0.220962
0.2209
0.220893
0.220915
0.220951
0.221
0.221076
0.221184
0.221308
0.221443
0.221571
0.221704
0.221802
0.221891
0.22193
0.221946
0.221923
0.221881
0.221819
0.221748
0.221679
0.221637
0.221616
0.221624
0.221656
0.221706
0.221772
0.221847
0.221925
0.221991
0.222039
0.222045
0.222033
0.221977
0.221906
0.221817
0.221728
0.221642
0.221563
0.221521
0.221488
0.221473
0.221482
0.221513
0.221544
0.221575
0.221592
0.221583
0.221574
0.221495
0.221399
0.221299
0.22119
0.221077
0.220973
0.220881
0.220819
0.220767
0.22073
0.220704
0.220692
0.220683
0.220664
0.220649
0.220583
0.220497
0.220401
0.220291
0.220172
0.220053
0.219936
0.219822
0.219735
0.219656
0.219589
0.219533
0.219487
0.219443
0.219405
0.2193
0.0344248
0.0342536
0.0343132
0.0343456
0.0345149
0.0346501
0.0346846
0.0346246
0.0344975
0.0343147
0.0341034
0.0338888
0.0336887
0.0335069
0.033347
0.0332086
0.0330947
0.0330062
0.032944
0.0329079
0.0328971
0.0329241
0.0329773
0.0330729
0.0332071
0.0333965
0.0336348
0.0339462
0.0343157
0.0347798
0.0353099
0.0359471
0.0366469
0.0375129
0.0384494
0.0395474
0.0407187
0.042146
0.0436837
0.0453749
0.0473449
0.0494895
0.051815
0.0543991
0.0571508
0.0602637
0.063536
0.0672799
0.0710426
0.0752589
0.0795503
0.0845251
0.0892145
0.0943815
0.0995165
0.105239
0.110734
0.11635
0.122127
0.127893
0.133613
0.139385
0.14504
0.150698
0.156147
0.161369
0.166273
0.171138
0.1756
0.18002
0.184
0.187884
0.191499
0.194684
0.197786
0.200375
0.202974
0.205197
0.207215
0.209128
0.210802
0.212365
0.213604
0.214823
0.215778
0.216753
0.217485
0.218287
0.218828
0.219438
0.219844
0.220308
0.220561
0.220885
0.221013
0.221148
0.221227
0.221358
0.221428
0.22155
0.221639
0.221736
0.221809
0.221893
0.221949
0.222009
0.222065
0.222121
0.222204
0.222294
0.222408
0.222543
0.222695
0.222866
0.223064
0.223186
0.223247
0.223272
0.223233
0.223216
0.22315
0.22323
0.223455
0.223719
0.223944
0.22418
0.224419
0.22466
0.22486
0.225063
0.225202
0.225341
0.225413
0.225474
0.225507
0.225533
0.225565
0.22558
0.225605
0.225641
0.225688
0.225748
0.22582
0.225907
0.226007
0.226124
0.226247
0.22638
0.226503
0.226635
0.22675
0.226887
0.226992
0.227104
0.22719
0.227249
0.227278
0.227259
0.227219
0.22716
0.227083
0.226979
0.226926
0.226905
0.226897
0.226908
0.226944
0.227011
0.227095
0.22719
0.227281
0.227377
0.22744
0.227489
0.227495
0.227477
0.227419
0.227346
0.227256
0.227155
0.227057
0.226984
0.226938
0.226916
0.226918
0.226944
0.226986
0.227033
0.227085
0.227125
0.227149
0.227132
0.227095
0.227016
0.226923
0.226814
0.226703
0.226596
0.226498
0.226436
0.226384
0.22635
0.226339
0.226351
0.226364
0.226377
0.226376
0.226346
0.226324
0.226228
0.226116
0.225998
0.225873
0.225745
0.225626
0.225519
0.225441
0.225375
0.225324
0.225284
0.225257
0.225235
0.225199
0.225171
0.225095
0.224994
0.224885
0.224762
0.22463
0.224497
0.224368
0.224242
0.224142
0.224051
0.223973
0.223906
0.223848
0.223793
0.223743
0.22362
0.0345049
0.0343428
0.0344352
0.0345123
0.0346454
0.0347034
0.0346736
0.0345697
0.0344152
0.0342006
0.0339806
0.0337637
0.0335665
0.0333887
0.0332318
0.0330963
0.0329839
0.0328952
0.0328304
0.0327902
0.0327742
0.0327958
0.0328423
0.0329324
0.0330601
0.0332481
0.0334833
0.0338004
0.034176
0.0346532
0.0351942
0.0358696
0.0366079
0.0375475
0.0385736
0.0397981
0.0411121
0.0427319
0.044492
0.046453
0.0487546
0.0512358
0.0539681
0.0569902
0.0602851
0.0640434
0.0679033
0.0724547
0.076893
0.0819348
0.0870204
0.0929056
0.0984913
0.104602
0.110533
0.117103
0.123859
0.130276
0.136679
0.143212
0.149598
0.156031
0.162342
0.168608
0.174601
0.180207
0.185494
0.190515
0.195282
0.199866
0.20396
0.208095
0.211686
0.215029
0.218073
0.220688
0.223309
0.225427
0.227421
0.229355
0.230806
0.232227
0.233339
0.234525
0.235195
0.236061
0.23651
0.237157
0.237401
0.237784
0.237922
0.238108
0.238066
0.238081
0.237854
0.23769
0.237473
0.237309
0.237035
0.23682
0.236549
0.236297
0.236058
0.235845
0.235601
0.235371
0.235148
0.234941
0.234774
0.234625
0.234514
0.234428
0.234371
0.234341
0.234336
0.234215
0.234052
0.233892
0.233712
0.233557
0.233379
0.233294
0.233364
0.233505
0.233595
0.233671
0.233764
0.233867
0.233947
0.234028
0.234059
0.234084
0.234037
0.23399
0.233911
0.23384
0.233778
0.23369
0.233615
0.233554
0.233509
0.233479
0.233464
0.233467
0.233488
0.233523
0.233567
0.23362
0.233669
0.233728
0.233777
0.233849
0.233889
0.233929
0.233944
0.233935
0.233889
0.23381
0.233712
0.233594
0.233461
0.233309
0.233197
0.233122
0.233064
0.233026
0.23301
0.233025
0.233061
0.233107
0.23315
0.233198
0.233219
0.233223
0.233181
0.233123
0.233023
0.232911
0.232786
0.23265
0.232515
0.232407
0.232325
0.232266
0.232234
0.232227
0.232237
0.23225
0.232268
0.232275
0.232267
0.23222
0.232156
0.232048
0.231926
0.231792
0.231655
0.231522
0.2314
0.231313
0.231236
0.231178
0.231144
0.231131
0.231121
0.231111
0.231085
0.231032
0.23099
0.230874
0.230743
0.230603
0.230459
0.230312
0.230174
0.230049
0.229953
0.229868
0.229799
0.229742
0.229697
0.229658
0.229602
0.229558
0.229469
0.229349
0.229225
0.229087
0.228939
0.228791
0.228646
0.228506
0.228392
0.228287
0.228194
0.228114
0.228042
0.227972
0.227908
0.227765
0.0345803
0.0344396
0.0345555
0.0346562
0.034732
0.0347273
0.0346492
0.0345147
0.0343242
0.0340985
0.0338719
0.0336579
0.0334642
0.03329
0.0331361
0.0330031
0.0328914
0.0328017
0.0327339
0.0326915
0.0326717
0.0326881
0.0327302
0.0328181
0.0329425
0.0331356
0.0333754
0.0337027
0.0340851
0.0345959
0.035173
0.0359231
0.0367464
0.0378109
0.0389819
0.0403943
0.0419269
0.0438298
0.0458887
0.0482299
0.0510187
0.0538403
0.0570909
0.0607784
0.0647067
0.0692839
0.0738405
0.0792641
0.0845481
0.0905135
0.0964052
0.10307
0.109564
0.116558
0.123208
0.130483
0.138198
0.145124
0.152111
0.158977
0.165887
0.172616
0.179459
0.1858
0.192115
0.197855
0.203269
0.208249
0.213098
0.217664
0.221856
0.226012
0.22968
0.233125
0.236161
0.238863
0.24145
0.243513
0.245727
0.247842
0.249086
0.250517
0.251683
0.252912
0.253561
0.254429
0.254846
0.255449
0.255651
0.255932
0.256007
0.256086
0.255869
0.25573
0.255325
0.254995
0.25461
0.254288
0.253764
0.253301
0.252725
0.252174
0.251651
0.251171
0.250655
0.250148
0.249638
0.249148
0.248708
0.24829
0.247922
0.247586
0.247289
0.247017
0.246759
0.246365
0.245953
0.245578
0.245231
0.24493
0.24462
0.244384
0.244252
0.244208
0.244137
0.244038
0.243956
0.243894
0.243827
0.243769
0.243661
0.24356
0.243374
0.243197
0.242994
0.242807
0.242631
0.242425
0.242233
0.24206
0.241905
0.241768
0.241652
0.241558
0.241482
0.24142
0.241369
0.241327
0.241289
0.241263
0.241235
0.241229
0.241182
0.241144
0.241068
0.240978
0.240852
0.240699
0.240532
0.240345
0.24015
0.239942
0.239762
0.239622
0.239503
0.239405
0.23933
0.239285
0.239258
0.239244
0.239233
0.239227
0.239189
0.23914
0.239045
0.23894
0.238791
0.238631
0.238463
0.238286
0.23811
0.237959
0.237836
0.237733
0.237659
0.237612
0.237581
0.237555
0.237533
0.237497
0.237452
0.237371
0.237272
0.23713
0.236975
0.236811
0.236643
0.23648
0.236328
0.236211
0.236105
0.236019
0.235955
0.235912
0.235874
0.235834
0.235781
0.235699
0.235631
0.235494
0.235339
0.235174
0.235006
0.234837
0.234678
0.23453
0.234412
0.234305
0.234216
0.234137
0.234071
0.234011
0.233932
0.233868
0.233762
0.233621
0.233479
0.233323
0.233158
0.232991
0.232829
0.232672
0.232542
0.23242
0.23231
0.232214
0.232125
0.232039
0.231959
0.231792
0.0346563
0.0345407
0.0346719
0.0347561
0.034778
0.0347305
0.0346078
0.0344639
0.034242
0.0340096
0.0337809
0.0335713
0.0333815
0.0332111
0.03306
0.0329288
0.0328172
0.0327262
0.0326568
0.0326127
0.0325904
0.0326033
0.0326438
0.0327344
0.0328612
0.0330641
0.0333092
0.0336635
0.034075
0.0346559
0.0353142
0.0361828
0.0371422
0.0383921
0.0397727
0.0414398
0.043288
0.0455883
0.0480026
0.0507738
0.0541833
0.0574258
0.0612644
0.0659031
0.0704685
0.0759048
0.081252
0.0874982
0.093608
0.100358
0.106851
0.113953
0.121132
0.128682
0.136114
0.143689
0.151852
0.159129
0.166402
0.173015
0.180174
0.186894
0.19361
0.199932
0.206005
0.211713
0.216871
0.221928
0.226531
0.231087
0.235188
0.239123
0.242771
0.24628
0.249352
0.252274
0.254936
0.257013
0.259431
0.26138
0.262886
0.264524
0.265804
0.26715
0.26808
0.269099
0.269727
0.270434
0.270847
0.271255
0.271454
0.271631
0.27153
0.27147
0.271142
0.270889
0.270581
0.270329
0.269785
0.269287
0.268599
0.267939
0.267299
0.266717
0.266058
0.2654
0.264716
0.264044
0.263405
0.262786
0.262204
0.261657
0.261124
0.260621
0.260081
0.259417
0.258763
0.258176
0.257659
0.257214
0.256802
0.256375
0.256036
0.255782
0.25553
0.255232
0.25496
0.254714
0.254479
0.254256
0.253998
0.253748
0.253411
0.253093
0.252751
0.252433
0.252128
0.251789
0.251466
0.251165
0.250886
0.250629
0.250398
0.250191
0.250006
0.249833
0.249672
0.249521
0.249383
0.249257
0.249141
0.249044
0.2489
0.248769
0.24859
0.248406
0.248189
0.247952
0.247706
0.247441
0.247175
0.246904
0.246649
0.246434
0.246244
0.246077
0.245935
0.245817
0.245722
0.245639
0.245562
0.245491
0.245387
0.245277
0.245121
0.24496
0.244755
0.244542
0.244325
0.244101
0.243878
0.243679
0.243506
0.243354
0.243232
0.243138
0.243059
0.242986
0.242917
0.242833
0.242744
0.242621
0.242482
0.242301
0.242109
0.241909
0.241707
0.24151
0.241324
0.241171
0.241032
0.240913
0.240814
0.240735
0.240663
0.24059
0.240504
0.240389
0.240289
0.240128
0.239946
0.239753
0.239557
0.239364
0.239179
0.239006
0.238862
0.23873
0.238615
0.238513
0.23842
0.238335
0.238231
0.238142
0.238017
0.237853
0.237689
0.237513
0.237328
0.23714
0.236959
0.236783
0.236633
0.236491
0.236363
0.236248
0.23614
0.236035
0.235936
0.235741
0.0347015
0.0346372
0.0347529
0.0348136
0.0348032
0.0347172
0.0345775
0.0344037
0.0341705
0.0339353
0.0337089
0.0335041
0.0333184
0.0331517
0.033003
0.032873
0.0327611
0.0326694
0.0326001
0.0325545
0.0325315
0.0325437
0.0325856
0.0326859
0.0328152
0.033039
0.0333078
0.0337229
0.0342065
0.0348974
0.0356842
0.036724
0.0378784
0.0393821
0.0410415
0.0430237
0.0452827
0.0481181
0.050904
0.0540751
0.0581309
0.0621176
0.0666538
0.0721347
0.0773891
0.0835809
0.0896212
0.0964284
0.103115
0.110336
0.117367
0.124629
0.132225
0.139675
0.147581
0.154972
0.162958
0.170264
0.177453
0.183973
0.190551
0.19714
0.203196
0.209206
0.214508
0.220196
0.225055
0.230143
0.234456
0.238996
0.24278
0.246633
0.25005
0.253452
0.256393
0.259594
0.262027
0.264223
0.266907
0.268571
0.270589
0.272601
0.273764
0.275175
0.276371
0.277673
0.278584
0.279524
0.280228
0.280927
0.281379
0.28182
0.28203
0.282244
0.2823
0.282373
0.282409
0.282463
0.282221
0.281988
0.281502
0.281048
0.280595
0.280181
0.279642
0.279113
0.278519
0.277917
0.277306
0.276689
0.276078
0.275495
0.27487
0.274233
0.273485
0.272644
0.271846
0.271128
0.270497
0.26997
0.269474
0.26891
0.268395
0.267937
0.267494
0.267014
0.266557
0.266125
0.265717
0.265334
0.264919
0.264523
0.264035
0.263572
0.263091
0.26264
0.262199
0.261721
0.261259
0.260823
0.260409
0.260025
0.259668
0.259339
0.259032
0.258738
0.258456
0.258187
0.257936
0.257703
0.257485
0.257287
0.257032
0.256797
0.256505
0.256216
0.255899
0.255571
0.255237
0.254887
0.254546
0.254201
0.253869
0.253569
0.253301
0.253054
0.252836
0.252639
0.252464
0.252303
0.252151
0.252006
0.251828
0.251649
0.251426
0.251201
0.250935
0.250662
0.250391
0.250115
0.24984
0.249587
0.249359
0.249151
0.248975
0.248826
0.248694
0.248566
0.248444
0.248304
0.248166
0.247997
0.247811
0.247587
0.247354
0.247114
0.246874
0.246638
0.246414
0.246221
0.246044
0.245887
0.245749
0.245629
0.245518
0.245406
0.245283
0.245131
0.244993
0.244807
0.244593
0.244368
0.244142
0.243921
0.243707
0.243506
0.243333
0.243171
0.243029
0.242898
0.242777
0.242662
0.242529
0.242412
0.242265
0.242075
0.241887
0.241688
0.241481
0.24127
0.241066
0.240869
0.240697
0.240534
0.240384
0.240247
0.240117
0.239991
0.23987
0.239645
0.0347201
0.0346949
0.0348089
0.0348432
0.0348054
0.0346939
0.0345536
0.0343497
0.0341124
0.0338762
0.0336557
0.0334557
0.033274
0.033111
0.0329642
0.0328353
0.0327233
0.0326327
0.0325632
0.0325176
0.0324963
0.0325131
0.0325578
0.032673
0.0328193
0.0330919
0.0334223
0.0339362
0.0345359
0.035385
0.0363499
0.0376127
0.0390307
0.0408609
0.0428663
0.0451921
0.0478779
0.0513646
0.054677
0.058231
0.0627222
0.0679647
0.0730265
0.0790731
0.084964
0.0916924
0.0982048
0.105333
0.112392
0.11961
0.126941
0.134036
0.141577
0.148634
0.156247
0.16334
0.17022
0.177249
0.184051
0.19055
0.196648
0.202911
0.207921
0.213535
0.218159