/*--------------------------------*- C++ -*----------------------------------*\
| =========                 |                                                 |
| \\      /  F ield         | OpenFOAM: The Open Source CFD Toolbox           |
|  \\    /   O peration     | Version:  2312                                  |
|   \\  /    A nd           | Website:  www.openfoam.com                      |
|    \\/     M anipulation  |                                                 |
\*---------------------------------------------------------------------------*/
FoamFile
{
    version     2.0;
    format      ascii;
    arch        "LSB;label=32;scalar=64";
    class       volScalarField;
    location    "0.004";
    object      T;
}
// * * * * * * * * * * * * * * * * * * * * * * * * * * * * * * * * * * * * * //

dimensions      [0 0 0 1 0 0 0];

internalField   nonuniform List<scalar> 
48128
(
356.218
356.331
356.044
355.894
355.963
355.955
356.023
356.141
356.064
355.586
353.548
351.743
350.6
349.617
348.808
347.283
345.958
344.696
343.513
342.424
341.45
340.526
339.643
338.829
338.096
337.454
336.919
336.519
336.258
336.119
336.08
336.218
336.497
336.909
337.433
338.07
338.814
339.656
340.528
341.489
342.496
343.512
344.521
345.521
346.483
347.387
348.229
349.002
349.692
350.299
350.771
351.179
351.445
351.621
351.641
351.562
351.346
351.011
350.563
350.012
349.364
348.63
347.819
346.936
345.978
344.943
343.846
342.707
341.512
340.292
339.009
337.703
336.372
334.997
333.631
332.214
330.828
329.426
328.024
326.67
325.312
324.015
322.703
321.435
320.157
318.954
317.742
316.608
315.48
314.411
313.348
312.345
311.362
310.413
309.47
308.536
307.611
306.735
305.923
305.184
304.496
303.829
303.162
302.513
301.891
301.299
300.744
300.223
299.729
299.261
298.826
298.421
298.057
297.721
297.412
297.123
296.813
296.478
296.122
295.704
295.083
295.119
294.965
294.616
294.648
294.582
294.488
294.374
294.244
294.099
293.943
293.785
293.626
293.468
293.308
293.146
292.993
292.866
292.759
292.662
292.573
292.499
292.437
292.385
292.338
292.315
292.316
292.322
292.33
292.339
292.349
292.365
292.386
292.412
292.429
292.447
292.442
292.429
292.403
292.375
292.334
292.31
292.327
292.339
292.362
292.408
292.468
292.546
292.63
292.721
292.802
292.88
292.938
292.997
293.021
293.048
293.048
293.049
293.033
293.03
293.04
293.062
293.096
293.153
293.223
293.296
293.378
293.466
293.554
293.629
293.692
293.727
293.771
293.776
293.788
293.785
293.794
293.812
293.842
293.883
293.935
293.999
294.076
294.161
294.241
294.319
294.386
294.442
294.508
294.507
294.519
294.537
294.546
294.565
294.593
294.632
294.681
294.741
294.807
294.878
294.958
295.028
295.101
295.162
295.194
295.229
295.266
295.279
295.301
295.328
295.361
295.401
295.449
295.505
295.567
295.634
295.704
295.772
295.836
295.914
355.789
355.989
355.754
355.594
355.686
355.803
356.06
356.359
355.863
354.368
351.89
349.648
347.702
345.465
343.111
341.222
339.564
338.105
336.863
335.82
334.966
334.24
333.609
333.099
332.719
332.475
332.37
332.356
332.532
332.849
333.306
333.923
334.658
335.515
336.462
337.498
338.597
339.769
340.966
342.171
343.393
344.582
345.71
346.769
347.729
348.584
349.313
349.924
350.395
350.745
350.908
350.936
350.773
350.484
350.026
349.434
348.662
347.745
346.683
345.497
344.193
342.79
341.299
339.724
338.071
336.337
334.547
332.708
330.811
328.922
326.996
325.082
323.173
321.24
319.337
317.4
315.509
313.631
311.775
309.967
308.2
306.484
304.781
303.118
301.485
299.914
298.374
296.9
295.465
294.078
292.721
291.42
290.155
288.925
287.709
286.506
285.313
284.173
283.1
282.101
281.161
280.247
279.338
278.453
277.595
276.772
275.988
275.24
274.523
273.836
273.186
272.568
271.995
271.456
270.948
270.471
269.978
269.465
268.931
268.34
267.534
267.365
267.034
266.518
266.363
266.142
265.897
265.642
265.378
265.104
264.824
264.543
264.262
263.983
263.701
263.418
263.141
262.89
262.657
262.438
262.229
262.037
261.861
261.698
261.548
261.416
261.296
261.186
261.075
260.967
260.858
260.758
260.665
260.579
260.49
260.398
260.295
260.183
260.06
259.933
259.8
259.658
259.581
259.498
259.412
259.37
259.326
259.321
259.317
259.323
259.329
259.332
259.329
259.321
259.299
259.274
259.235
259.192
259.137
259.081
259.044
259.021
259
259.01
259.03
259.058
259.096
259.143
259.192
259.239
259.275
259.293
259.317
259.31
259.307
259.291
259.288
259.29
259.302
259.323
259.355
259.397
259.454
259.52
259.588
259.657
259.72
259.775
259.85
259.854
259.87
259.894
259.907
259.927
259.956
259.994
260.04
260.097
260.161
260.231
260.311
260.389
260.468
260.548
260.595
260.646
260.701
260.731
260.767
260.808
260.853
260.904
260.962
261.028
261.1
261.178
261.261
261.344
261.428
261.54
355.566
355.779
355.639
355.525
355.674
355.912
356.3
355.918
353.969
351.035
348.265
345.885
343.891
342.411
341.133
339.88
338.813
337.893
337.073
336.38
335.849
335.395
335.027
334.76
334.602
334.551
334.621
334.821
335.169
335.648
336.249
336.975
337.798
338.722
339.706
340.75
341.828
342.939
344.047
345.126
346.179
347.171
348.069
348.859
349.513
350.035
350.395
350.615
350.651
350.546
350.235
349.776
349.101
348.283
347.298
346.164
344.846
343.396
341.807
340.109
338.305
336.424
334.473
332.456
330.378
328.237
326.07
323.875
321.654
319.46
317.248
315.08
312.925
310.775
308.666
306.544
304.487
302.46
300.468
298.534
296.668
294.848
293.061
291.316
289.626
287.994
286.407
284.886
283.413
281.987
280.595
279.262
277.967
276.708
275.466
274.242
273.029
271.874
270.784
269.763
268.798
267.856
266.923
266.015
265.134
264.288
263.479
262.706
261.96
261.245
260.564
259.914
259.309
258.733
258.188
257.674
257.144
256.599
256.032
255.418
254.621
254.393
254.014
253.498
253.27
252.994
252.699
252.399
252.094
251.784
251.468
251.156
250.844
250.534
250.225
249.913
249.608
249.327
249.061
248.809
248.566
248.34
248.128
247.929
247.742
247.576
247.421
247.279
247.135
246.995
246.854
246.723
246.598
246.48
246.36
246.237
246.105
245.966
245.817
245.664
245.506
245.34
245.231
245.119
245.002
244.928
244.85
244.813
244.773
244.749
244.725
244.698
244.669
244.634
244.59
244.541
244.484
244.423
244.352
244.28
244.221
244.181
244.135
244.129
244.13
244.137
244.154
244.181
244.211
244.24
244.261
244.268
244.276
244.266
244.255
244.234
244.22
244.215
244.22
244.232
244.254
244.286
244.332
244.387
244.446
244.506
244.56
244.613
244.68
244.688
244.705
244.729
244.744
244.765
244.792
244.829
244.874
244.928
244.989
245.057
245.134
245.21
245.289
245.37
245.422
245.478
245.537
245.574
245.617
245.663
245.713
245.768
245.83
245.898
245.974
246.055
246.141
246.228
246.317
246.439
355.44
355.663
355.688
355.627
355.842
356.156
355.776
353.868
350.597
347.615
345.422
343.869
342.751
341.934
341.231
340.375
339.62
338.968
338.402
337.929
337.591
337.303
337.088
336.957
336.915
336.984
337.171
337.477
337.905
338.449
339.094
339.844
340.672
341.585
342.537
343.52
344.508
345.496
346.452
347.34
348.166
348.902
349.51
349.979
350.277
350.413
350.34
350.106
349.646
349.031
348.187
347.179
345.934
344.538
342.984
341.274
339.381
337.383
335.254
333.048
330.749
328.413
326.029
323.61
321.155
318.661
316.185
313.699
311.236
308.827
306.43
304.112
301.816
299.56
297.349
295.159
293.052
290.985
288.969
287.027
285.172
283.358
281.593
279.882
278.242
276.663
275.136
273.677
272.27
270.907
269.581
268.312
267.084
265.892
264.718
263.567
262.425
261.347
260.327
259.371
258.468
257.583
256.708
255.858
255.034
254.244
253.486
252.762
252.061
251.391
250.751
250.14
249.57
249.024
248.512
248.02
247.516
247
246.457
245.879
245.152
244.917
244.555
244.102
243.843
243.568
243.28
242.986
242.689
242.388
242.083
241.78
241.478
241.178
240.879
240.577
240.284
240.011
239.751
239.504
239.266
239.043
238.832
238.634
238.445
238.277
238.121
237.976
237.83
237.689
237.546
237.414
237.287
237.167
237.044
236.919
236.785
236.645
236.497
236.345
236.188
236.024
235.911
235.796
235.677
235.597
235.512
235.466
235.417
235.384
235.35
235.315
235.278
235.236
235.186
235.131
235.069
235.004
234.929
234.855
234.792
234.747
234.695
234.682
234.675
234.677
234.687
234.705
234.726
234.747
234.762
234.764
234.767
234.755
234.742
234.72
234.705
234.697
234.7
234.709
234.727
234.755
234.796
234.847
234.901
234.956
235.007
235.058
235.119
235.129
235.148
235.172
235.189
235.212
235.24
235.277
235.322
235.375
235.435
235.502
235.577
235.653
235.732
235.811
235.866
235.924
235.985
236.027
236.073
236.123
236.176
236.235
236.299
236.37
236.447
236.53
236.618
236.708
236.799
236.925
355.367
355.608
355.863
355.865
356.044
355.652
353.921
350.678
347.676
345.618
344.256
343.369
342.799
342.265
341.802
341.238
340.744
340.306
339.924
339.602
339.394
339.221
339.109
339.069
339.121
339.276
339.534
339.903
340.376
340.953
341.615
342.363
343.167
344.035
344.922
345.805
346.656
347.471
348.222
348.857
349.386
349.793
350.027
350.084
349.918
349.565
348.95
348.144
347.06
345.796
344.284
342.59
340.644
338.542
336.299
333.914
331.347
328.732
325.991
323.226
320.4
317.592
314.779
311.978
309.187
306.375
303.649
300.937
298.304
295.761
293.255
290.878
288.53
286.261
284.05
281.885
279.83
277.826
275.886
274.038
272.295
270.589
268.948
267.37
265.87
264.43
263.043
261.723
260.455
259.226
258.035
256.898
255.805
254.748
253.712
252.697
251.69
250.749
249.855
249.018
248.226
247.452
246.687
245.948
245.23
244.543
243.883
243.252
242.64
242.059
241.501
240.971
240.476
240.001
239.558
239.125
238.682
238.231
237.749
237.245
236.625
236.407
236.095
235.737
235.469
235.234
234.984
234.725
234.465
234.201
233.933
233.665
233.398
233.131
232.866
232.597
232.34
232.097
231.865
231.644
231.433
231.233
231.045
230.868
230.699
230.548
230.409
230.278
230.149
230.023
229.896
229.78
229.667
229.56
229.45
229.337
229.218
229.091
228.959
228.821
228.68
228.531
228.426
228.324
228.219
228.145
228.067
228.026
227.983
227.952
227.922
227.89
227.856
227.818
227.772
227.722
227.665
227.605
227.537
227.469
227.411
227.369
227.322
227.309
227.303
227.307
227.317
227.334
227.354
227.375
227.39
227.393
227.398
227.387
227.377
227.358
227.347
227.341
227.345
227.356
227.375
227.403
227.444
227.494
227.547
227.601
227.651
227.704
227.761
227.777
227.799
227.824
227.845
227.871
227.902
227.941
227.987
228.041
228.103
228.17
228.246
228.323
228.402
228.481
228.539
228.599
228.662
228.708
228.758
228.812
228.869
228.931
228.998
229.072
229.151
229.236
229.326
229.418
229.512
229.642
355.33
355.68
356.012
355.94
355.663
354.217
351.198
348.168
346.074
344.782
343.992
343.519
343.164
342.842
342.568
342.221
341.915
341.63
341.38
341.173
341.066
340.986
340.959
341.005
341.132
341.354
341.668
342.08
342.581
343.173
343.83
344.549
345.297
346.079
346.852
347.582
348.228
348.797
349.255
349.549
349.67
349.605
349.322
348.816
348.023
346.996
345.641
344.045
342.115
339.967
337.564
334.961
332.104
329.109
325.962
322.793
319.416
316.073
312.643
309.226
305.872
302.549
299.363
296.216
293.166
290.091
287.212
284.373
281.68
279.118
276.621
274.32
272.052
269.911
267.841
265.843
263.985
262.187
260.466
258.852
257.364
255.901
254.509
253.173
251.919
250.711
249.56
248.466
247.424
246.41
245.435
244.505
243.624
242.768
241.936
241.117
240.302
239.55
238.828
238.158
237.525
236.908
236.301
235.717
235.147
234.603
234.078
233.578
233.092
232.636
232.195
231.78
231.39
231.017
230.671
230.326
229.974
229.62
229.229
228.828
228.345
228.155
227.923
227.676
227.438
227.264
227.074
226.872
226.671
226.464
226.255
226.043
225.831
225.618
225.405
225.189
224.986
224.791
224.603
224.427
224.258
224.099
223.95
223.811
223.676
223.559
223.451
223.349
223.25
223.152
223.054
222.966
222.88
222.797
222.712
222.624
222.529
222.427
222.322
222.21
222.094
221.972
221.886
221.807
221.724
221.668
221.607
221.58
221.551
221.533
221.515
221.495
221.473
221.447
221.414
221.377
221.332
221.286
221.232
221.177
221.131
221.1
221.067
221.061
221.063
221.072
221.089
221.112
221.137
221.163
221.184
221.193
221.208
221.2
221.2
221.188
221.184
221.186
221.196
221.212
221.236
221.269
221.314
221.367
221.422
221.48
221.533
221.589
221.646
221.67
221.697
221.727
221.754
221.785
221.821
221.864
221.915
221.973
222.037
222.107
222.185
222.264
222.347
222.427
222.49
222.554
222.62
222.671
222.726
222.784
222.845
222.911
222.983
223.06
223.143
223.231
223.324
223.419
223.515
223.65
355.347
355.729
356.014
355.601
354.582
352.048
348.915
346.693
345.338
344.569
344.131
343.858
343.688
343.53
343.384
343.191
343.015
342.85
342.71
342.602
342.578
342.583
342.63
342.747
342.936
343.21
343.562
344
344.506
345.085
345.704
346.353
346.997
347.632
348.217
348.715
349.065
349.272
349.294
349.078
348.613
347.872
346.837
345.513
343.803
341.772
339.339
336.588
333.453
330.051
326.414
322.622
318.567
314.476
310.141
306.226
301.984
297.753
293.703
289.565
285.787
281.934
278.527
275.096
271.933
268.699
265.803
262.972
260.377
257.974
255.672
253.643
251.64
249.829
248.08
246.442
244.958
243.545
242.213
241.005
239.928
238.867
237.863
236.902
236.02
235.165
234.367
233.613
232.904
232.214
231.556
230.926
230.331
229.749
229.191
228.627
228.065
227.555
227.06
226.608
226.183
225.767
225.357
224.965
224.578
224.21
223.853
223.516
223.187
222.886
222.59
222.317
222.059
221.815
221.587
221.357
221.118
220.886
220.612
220.336
220.013
219.859
219.742
219.607
219.445
219.336
219.222
219.094
218.97
218.836
218.705
218.564
218.424
218.281
218.137
217.989
217.855
217.721
217.592
217.475
217.362
217.258
217.159
217.072
216.985
216.914
216.848
216.788
216.729
216.671
216.613
216.564
216.516
216.466
216.417
216.362
216.302
216.232
216.166
216.087
216.007
215.922
215.863
215.814
215.763
215.732
215.699
215.692
215.685
215.686
215.688
215.688
215.687
215.681
215.665
215.651
215.623
215.6
215.565
215.531
215.505
215.491
215.477
215.483
215.498
215.52
215.549
215.584
215.62
215.656
215.688
215.709
215.739
215.739
215.753
215.753
215.761
215.774
215.795
215.821
215.854
215.895
215.948
216.008
216.07
216.134
216.193
216.256
216.316
216.354
216.388
216.425
216.46
216.5
216.544
216.594
216.651
216.714
216.785
216.86
216.942
217.026
217.113
217.196
217.266
217.335
217.406
217.464
217.526
217.59
217.657
217.729
217.806
217.888
217.975
218.068
218.165
218.263
218.364
218.505
355.405
355.6
355.711
354.809
352.895
349.901
347.483
345.956
345.101
344.667
344.428
344.307
344.265
344.221
344.176
344.093
344.017
343.949
343.9
343.879
343.922
343.999
344.109
344.282
344.515
344.821
345.189
345.624
346.104
346.628
347.159
347.68
348.145
348.546
348.835
348.975
348.859
348.522
347.869
346.856
345.471
343.66
341.482
338.917
335.874
332.387
328.462
324.18
319.493
314.561
309.355
304.33
298.972
293.787
288.205
283.725
278.776
273.623
269.203
264.485
260.486
256.274
252.856
249.312
246.234
243.054
240.306
237.665
235.338
233.226
231.271
229.626
228.022
226.666
225.354
224.207
223.19
222.283
221.434
220.75
220.134
219.589
219.038
218.606
218.172
217.812
217.447
217.162
216.859
216.609
216.343
216.12
215.874
215.658
215.431
215.198
214.95
214.757
214.546
214.362
214.183
214.006
213.826
213.662
213.489
213.328
213.171
213.025
212.879
212.756
212.626
212.517
212.413
212.317
212.228
212.132
212.022
211.931
211.788
211.665
211.51
211.426
211.428
211.402
211.35
211.318
211.29
211.249
211.212
211.168
211.126
211.072
211.016
210.953
210.893
210.824
210.77
210.711
210.653
210.604
210.558
210.519
210.482
210.455
210.427
210.411
210.397
210.388
210.378
210.372
210.36
210.361
210.357
210.353
210.344
210.331
210.315
210.283
210.266
210.227
210.192
210.152
210.128
210.115
210.103
210.104
210.105
210.123
210.146
210.173
210.201
210.228
210.253
210.273
210.28
210.298
210.289
210.298
210.287
210.28
210.281
210.29
210.299
210.322
210.356
210.397
210.443
210.493
210.545
210.596
210.644
210.682
210.728
210.746
210.775
210.792
210.816
210.845
210.88
210.92
210.967
211.02
211.083
211.154
211.227
211.3
211.369
211.441
211.508
211.564
211.607
211.653
211.701
211.751
211.805
211.865
211.931
212.003
212.081
212.164
212.253
212.343
212.437
212.527
212.606
212.681
212.758
212.826
212.896
212.967
213.042
213.121
213.205
213.293
213.387
213.486
213.588
213.692
213.797
213.946
355.448
355.27
355.109
353.613
351.043
348.468
346.691
345.66
345.159
344.905
344.808
344.794
344.843
344.877
344.902
344.907
344.911
344.921
344.946
344.994
345.092
345.222
345.379
345.587
345.842
346.154
346.506
346.899
347.304
347.715
348.084
348.394
348.567
348.601
348.397
347.946
347.07
345.838
344.074
341.807
339.024
335.652
331.965
327.713
322.934
317.622
311.877
305.97
299.63
293.227
286.375
280.445
274.03
268.118
261.598
256.766
251.479
245.733
241.189
236.204
232.345
228.134
224.971
221.635
218.868
216.054
213.643
211.431
209.531
207.866
206.425
205.191
204.125
203.182
202.363
201.679
201.084
200.694
200.194
200.045
199.764
199.744
199.513
199.639
199.519
199.702
199.665
199.898
199.917
200.145
200.224
200.456
200.541
200.762
200.841
201.025
201.127
201.307
201.403
201.537
201.624
201.723
201.797
201.897
201.968
202.044
202.105
202.17
202.226
202.297
202.352
202.423
202.489
202.554
202.631
202.668
202.702
202.751
202.763
202.82
202.814
202.855
202.95
203.052
203.111
203.176
203.234
203.297
203.352
203.413
203.465
203.511
203.543
203.574
203.603
203.625
203.66
203.681
203.704
203.732
203.76
203.793
203.828
203.867
203.907
203.953
203.998
204.047
204.093
204.145
204.19
204.245
204.29
204.339
204.377
204.416
204.445
204.462
204.499
204.505
204.526
204.531
204.55
204.58
204.611
204.65
204.69
204.742
204.798
204.857
204.917
204.976
205.031
205.083
205.121
205.17
205.193
205.231
205.252
205.278
205.308
205.345
205.381
205.428
205.485
205.549
205.617
205.687
205.758
205.829
205.896
205.954
206.02
206.06
206.107
206.147
206.191
206.239
206.292
206.35
206.414
206.482
206.56
206.644
206.73
206.817
206.897
206.981
207.059
207.135
207.19
207.25
207.311
207.375
207.442
207.514
207.591
207.674
207.763
207.856
207.954
208.053
208.155
208.253
208.345
208.427
208.513
208.593
208.671
208.752
208.836
208.924
209.016
209.113
209.214
209.32
209.429
209.54
209.652
209.81
355.473
354.852
354.276
352.231
349.65
347.609
346.326
345.669
345.339
345.219
345.211
345.282
345.385
345.474
345.555
345.623
345.69
345.76
345.841
345.94
346.077
346.239
346.421
346.64
346.887
347.169
347.462
347.759
348.02
348.234
348.331
348.284
347.959
347.366
346.323
344.871
342.795
340.173
336.777
332.747
328.162
322.85
317.487
311.224
304.462
297.412
289.796
282.628
274.864
267.456
259.253
252.956
245.861
239.789
233.133
227.989
223.024
217.513
213.281
208.656
205.27
201.595
198.867
196.177
193.863
191.739
189.792
188.255
186.831
185.764
184.816
183.998
183.504
182.8
182.53
182.109
181.906
181.896
181.581
181.88
181.726
182.076
182.058
182.485
182.557
183.028
183.205
183.693
183.947
184.421
184.761
185.232
185.58
186.042
186.392
186.844
187.249
187.705
188.082
188.488
188.839
189.2
189.537
189.895
190.22
190.541
190.831
191.116
191.385
191.661
191.911
192.167
192.407
192.642
192.873
193.06
193.247
193.431
193.616
193.829
193.996
194.164
194.37
194.592
194.765
194.932
195.091
195.257
195.412
195.578
195.729
195.88
196.008
196.137
196.261
196.38
196.508
196.615
196.724
196.834
196.943
197.053
197.163
197.275
197.387
197.501
197.61
197.722
197.829
197.942
198.049
198.164
198.264
198.367
198.46
198.552
198.634
198.709
198.797
198.86
198.934
198.995
199.062
199.138
199.216
199.298
199.381
199.471
199.565
199.66
199.755
199.85
199.939
200.026
200.101
200.184
200.244
200.314
200.374
200.435
200.498
200.567
200.635
200.71
200.793
200.883
200.976
201.07
201.164
201.257
201.347
201.429
201.518
201.583
201.653
201.718
201.786
201.856
201.931
202.01
202.093
202.18
202.274
202.375
202.476
202.579
202.675
202.774
202.865
202.962
203.033
203.108
203.185
203.265
203.348
203.435
203.526
203.622
203.723
203.828
203.936
204.046
204.158
204.267
204.373
204.465
204.561
204.655
204.744
204.836
204.931
205.03
205.132
205.238
205.349
205.463
205.58
205.699
205.819
205.989
355.389
354.374
353.338
350.974
348.748
347.162
346.26
345.784
345.592
345.552
345.615
345.739
345.877
346.006
346.126
346.239
346.349
346.461
346.58
346.712
346.867
347.039
347.219
347.417
347.619
347.822
347.993
348.119
348.133
348.012
347.618
346.943
345.761
344.13
341.78
338.816
335.07
330.563
325.115
318.918
312.57
305.27
297.979
289.886
281.246
273.011
263.792
256.015
247.24
239.607
230.93
224.776
217.756
212.22
206.301
201.101
196.961
192.386
188.62
185.063
182.112
179.584
177.278
175.504
173.639
172.479
170.965
170.269
169.16
168.799
168.122
167.782
167.687
167.137
167.36
166.96
167.19
167.188
167.203
167.654
167.509
168.03
168.096
168.641
168.768
169.328
169.572
170.125
170.459
171.006
171.411
171.968
172.381
172.939
173.398
173.959
174.496
175.078
175.601
176.149
176.651
177.174
177.685
178.219
178.727
179.234
179.714
180.19
180.646
181.106
181.534
181.962
182.363
182.756
183.124
183.455
183.786
184.115
184.46
184.823
185.156
185.452
185.767
186.102
186.391
186.659
186.921
187.19
187.449
187.716
187.968
188.223
188.447
188.68
188.898
189.115
189.339
189.534
189.732
189.926
190.118
190.307
190.495
190.683
190.867
191.052
191.227
191.405
191.578
191.754
191.926
192.103
192.262
192.424
192.573
192.72
192.86
192.994
193.137
193.26
193.391
193.509
193.63
193.756
193.883
194.013
194.14
194.271
194.405
194.54
194.674
194.807
194.933
195.057
195.172
195.292
195.393
195.499
195.599
195.7
195.799
195.902
196.004
196.111
196.224
196.342
196.464
196.584
196.703
196.821
196.937
197.046
197.16
197.252
197.349
197.442
197.536
197.632
197.731
197.832
197.938
198.046
198.16
198.279
198.398
198.519
198.632
198.748
198.857
198.975
199.064
199.158
199.254
199.352
199.452
199.555
199.662
199.773
199.889
200.007
200.129
200.251
200.375
200.496
200.617
200.722
200.829
200.939
201.041
201.145
201.253
201.363
201.477
201.594
201.716
201.84
201.967
202.095
202.225
202.408
355.263
353.892
352.406
350.117
348.243
347.007
346.293
345.973
345.87
345.889
345.998
346.153
346.313
346.465
346.611
346.75
346.887
347.023
347.161
347.304
347.456
347.611
347.756
347.893
347.996
348.056
348.013
347.847
347.408
346.688
345.447
343.727
341.24
338.083
333.962
329.005
323.222
316.578
309.012
300.546
292.845
283.756
274.268
265.202
255.139
246.376
236.321
228.623
219.752
212.78
204.659
199.053
192.607
187.941
183.051
178.712
175.055
172.08
168.772
166.616
164.154
162.838
160.912
160.261
158.587
158.609
157.314
157.565
156.591
156.993
156.337
156.692
156.502
156.627
156.848
156.653
157.189
156.931
157.444
157.873
157.704
158.302
158.313
158.865
158.943
159.504
159.669
160.195
160.435
160.954
161.243
161.761
162.088
162.606
162.994
163.523
164.014
164.565
165.07
165.607
166.109
166.647
167.185
167.755
168.315
168.883
169.439
170
170.553
171.109
171.646
172.184
172.701
173.203
173.677
174.12
174.565
175.022
175.497
175.991
176.461
176.883
177.29
177.719
178.113
178.475
178.834
179.199
179.554
179.917
180.263
180.618
180.936
181.266
181.576
181.889
182.206
182.489
182.773
183.051
183.323
183.592
183.857
184.12
184.377
184.632
184.874
185.118
185.356
185.598
185.835
186.074
186.292
186.514
186.721
186.925
187.123
187.318
187.517
187.701
187.89
188.069
188.244
188.422
188.6
188.78
188.953
189.128
189.303
189.48
189.653
189.826
189.992
190.156
190.311
190.471
190.613
190.76
190.902
191.045
191.182
191.322
191.46
191.601
191.745
191.895
192.046
192.195
192.341
192.486
192.629
192.767
192.909
193.03
193.156
193.279
193.401
193.525
193.65
193.776
193.907
194.038
194.173
194.312
194.452
194.592
194.724
194.859
194.989
195.126
195.238
195.352
195.469
195.587
195.706
195.828
195.952
196.08
196.211
196.345
196.481
196.618
196.754
196.889
197.027
197.146
197.268
197.393
197.509
197.628
197.749
197.873
198
198.13
198.263
198.399
198.537
198.675
198.815
199.014
354.984
353.395
351.578
349.483
347.906
346.937
346.408
346.193
346.151
346.209
346.348
346.517
346.687
346.851
347.007
347.158
347.303
347.445
347.582
347.714
347.838
347.943
348.011
348.034
347.961
347.779
347.346
346.644
345.42
343.704
341.177
337.939
333.719
328.595
322.366
315.112
307.133
298.701
289.326
278.851
269.881
259.573
248.221
239.038
228.389
220.004
210.224
203.18
194.88
189.032
181.977
177.244
171.776
168.06
164.131
161.168
158.08
156.591
153.737
153.088
151.074
150.952
149.341
149.748
148.433
149.279
148.309
149.217
148.509
149.443
148.937
149.844
149.468
150.378
150.256
150.789
151.329
151.131
151.818
152.077
152.096
152.778
152.681
153.288
153.296
153.857
153.897
154.385
154.474
154.924
155.028
155.454
155.578
155.983
156.192
156.589
156.886
157.292
157.611
158.004
158.337
158.741
159.144
159.595
160.039
160.512
160.996
161.494
162.002
162.518
163.041
163.569
164.092
164.6
165.098
165.575
166.063
166.58
167.121
167.683
168.238
168.75
169.215
169.697
170.163
170.599
171.031
171.47
171.899
172.34
172.764
173.2
173.601
174.016
174.408
174.804
175.202
175.565
175.929
176.282
176.63
176.972
177.31
177.643
177.969
178.289
178.596
178.904
179.206
179.51
179.809
180.11
180.386
180.666
180.928
181.189
181.446
181.699
181.955
182.199
182.447
182.687
182.915
183.146
183.374
183.604
183.824
184.045
184.261
184.479
184.693
184.907
185.113
185.317
185.514
185.715
185.899
186.087
186.272
186.458
186.635
186.813
186.989
187.165
187.342
187.524
187.706
187.884
188.059
188.232
188.404
188.572
188.743
188.895
189.051
189.206
189.358
189.511
189.663
189.817
189.973
190.129
190.287
190.447
190.608
190.769
190.922
191.077
191.229
191.388
191.523
191.66
191.798
191.938
192.078
192.219
192.362
192.508
192.657
192.808
192.959
193.111
193.262
193.413
193.568
193.702
193.839
193.981
194.113
194.248
194.384
194.523
194.664
194.807
194.953
195.101
195.251
195.401
195.552
195.768
354.631
352.856
350.899
349.049
347.748
346.958
346.563
346.424
346.418
346.504
346.657
346.829
346.998
347.161
347.315
347.462
347.6
347.729
347.844
347.941
348.004
348.019
347.95
347.782
347.393
346.763
345.641
344.036
341.609
338.447
334.22
329.04
322.764
315.437
307.092
297.651
287.51
277.881
267.225
255.486
244.758
234.28
222.476
213.702
203.346
195.828
186.99
180.967
173.717
169.042
163.117
159.585
155.19
152.677
149.521
147.999
145.666
145.001
142.959
143.508
142.059
142.773
141.597
142.731
141.812
143.18
142.514
143.95
143.525
144.924
144.561
145.879
145.59
146.862
146.636
147.655
147.999
148.265
149.055
148.868
149.483
150.183
150.017
150.701
150.694
151.269
151.244
151.749
151.762
152.194
152.185
152.567
152.556
152.907
152.967
153.282
153.389
153.676
153.785
154.034
154.163
154.393
154.577
154.835
155.05
155.323
155.599
155.899
156.213
156.543
156.895
157.258
157.626
158.003
158.375
158.741
159.147
159.598
160.085
160.6
161.136
161.63
162.095
162.556
163.021
163.474
163.924
164.383
164.836
165.307
165.767
166.244
166.693
167.157
167.602
168.053
168.504
168.926
169.349
169.76
170.167
170.567
170.966
171.356
171.74
172.115
172.48
172.842
173.201
173.56
173.915
174.272
174.6
174.934
175.246
175.56
175.871
176.179
176.489
176.788
177.092
177.391
177.672
177.953
178.23
178.506
178.774
179.037
179.294
179.553
179.807
180.06
180.306
180.55
180.788
181.029
181.256
181.486
181.713
181.942
182.16
182.375
182.59
182.801
183.012
183.226
183.438
183.646
183.85
184.053
184.255
184.452
184.653
184.837
185.024
185.212
185.395
185.577
185.759
185.939
186.122
186.304
186.486
186.668
186.851
187.034
187.209
187.385
187.56
187.739
187.902
188.061
188.222
188.384
188.546
188.708
188.871
189.036
189.203
189.372
189.54
189.708
189.875
190.042
190.214
190.365
190.52
190.678
190.828
190.979
191.132
191.286
191.442
191.6
191.76
191.922
192.084
192.246
192.409
192.643
354.316
352.328
350.391
348.752
347.655
347.021
346.728
346.647
346.666
346.767
346.923
347.089
347.247
347.398
347.538
347.666
347.781
347.879
347.949
347.978
347.939
347.804
347.496
346.977
346.021
344.618
342.419
339.478
335.446
330.446
324.215
316.813
308.367
299.051
288.804
277.688
265.532
255.164
243.619
231.853
219.224
209.692
198.498
190.387
180.967
174.599
167.213
162.298
156.438
152.801
148.166
145.896
142.469
141.143
138.605
138.235
136.709
135.703
136.132
136.327
136.098
137.347
136.525
138.235
137.624
139.441
139.037
140.928
140.603
142.373
142.065
143.652
143.426
144.904
144.732
146.057
145.918
146.858
147.709
147.484
148.312
148.916
148.812
149.582
149.556
150.191
150.164
150.747
150.735
151.214
151.161
151.569
151.514
151.876
151.872
152.179
152.208
152.472
152.477
152.688
152.711
152.874
152.93
153.086
153.145
153.296
153.414
153.559
153.702
153.855
154.018
154.187
154.346
154.519
154.659
154.809
155.018
155.274
155.567
155.89
156.242
156.593
156.902
157.228
157.57
157.921
158.279
158.659
159.041
159.456
159.861
160.296
160.72
161.162
161.599
162.043
162.489
162.922
163.355
163.781
164.208
164.63
165.055
165.472
165.887
166.291
166.693
167.089
167.486
167.883
168.277
168.673
169.041
169.416
169.768
170.125
170.48
170.834
171.19
171.537
171.888
172.238
172.567
172.893
173.214
173.531
173.841
174.144
174.438
174.734
175.025
175.316
175.598
175.88
176.156
176.435
176.704
176.974
177.242
177.511
177.769
178.021
178.273
178.518
178.762
179.007
179.249
179.487
179.72
179.95
180.182
180.41
180.64
180.856
181.075
181.295
181.508
181.721
181.931
182.139
182.349
182.557
182.763
182.968
183.172
183.377
183.576
183.773
183.971
184.172
184.362
184.545
184.729
184.914
185.098
185.282
185.465
185.65
185.836
186.024
186.209
186.394
186.577
186.762
186.95
187.12
187.292
187.469
187.636
187.805
187.974
188.145
188.317
188.49
188.664
188.84
189.016
189.19
189.367
189.62
353.98
351.865
349.996
348.544
347.625
347.113
346.897
346.849
346.889
346.998
347.148
347.299
347.439
347.567
347.681
347.778
347.852
347.895
347.889
347.81
347.603
347.201
346.459
345.317
343.446
340.869
337.199
332.541
326.606
319.52
311.171
301.564
290.968
280.227
268.327
256.194
242.492
231.602
219.175
208.062
195.527
186.805
176.883
169.838
162.182
156.908
151.279
147.265
142.886
139.822
136.788
135.269
132.926
132.595
130.966
131.695
130.655
131.268
131.8
131.419
132.884
133.67
133.136
135.21
134.676
136.911
136.542
138.789
138.495
140.564
140.291
142.215
142.035
143.717
143.567
145.108
145.021
146.229
146.805
146.898
147.899
148.204
148.428
149.277
149.2
149.918
149.905
150.536
150.49