/*--------------------------------*- C++ -*----------------------------------*\
| =========                 |                                                 |
| \\      /  F ield         | OpenFOAM: The Open Source CFD Toolbox           |
|  \\    /   O peration     | Version:  2312                                  |
|   \\  /    A nd           | Website:  www.openfoam.com                      |
|    \\/     M anipulation  |                                                 |
\*---------------------------------------------------------------------------*/
FoamFile
{
    version     2.0;
    format      ascii;
    arch        "LSB;label=32;scalar=64";
    class       volScalarField;
    location    "0.004";
    object      thermo:psiLiqEff;
}
// * * * * * * * * * * * * * * * * * * * * * * * * * * * * * * * * * * * * * //

dimensions      [-2 4 2 0 0 0 0];

internalField   nonuniform List<scalar> 
48128
(
4.04888e-13
4.04759e-13
4.05085e-13
4.05256e-13
4.05178e-13
4.05186e-13
4.05109e-13
4.04975e-13
4.05062e-13
4.05607e-13
4.07946e-13
4.10039e-13
4.11376e-13
4.12533e-13
4.13489e-13
4.15305e-13
4.16896e-13
4.18423e-13
4.19863e-13
4.21199e-13
4.224e-13
4.23547e-13
4.24648e-13
4.25669e-13
4.26592e-13
4.27403e-13
4.28082e-13
4.2859e-13
4.28923e-13
4.291e-13
4.2915e-13
4.28974e-13
4.28618e-13
4.28094e-13
4.27429e-13
4.26624e-13
4.25686e-13
4.24632e-13
4.23544e-13
4.22352e-13
4.2111e-13
4.19864e-13
4.18634e-13
4.17423e-13
4.16263e-13
4.1518e-13
4.14176e-13
4.13258e-13
4.12443e-13
4.11728e-13
4.11174e-13
4.10696e-13
4.10385e-13
4.1018e-13
4.10157e-13
4.10248e-13
4.10501e-13
4.10892e-13
4.11417e-13
4.12065e-13
4.12829e-13
4.13699e-13
4.14663e-13
4.15719e-13
4.1687e-13
4.18121e-13
4.19455e-13
4.20848e-13
4.22321e-13
4.23836e-13
4.2544e-13
4.27085e-13
4.28775e-13
4.30535e-13
4.32298e-13
4.34142e-13
4.35961e-13
4.37816e-13
4.39688e-13
4.4151e-13
4.43353e-13
4.45128e-13
4.46938e-13
4.487e-13
4.50492e-13
4.52192e-13
4.53916e-13
4.55543e-13
4.57171e-13
4.58726e-13
4.60283e-13
4.61761e-13
4.63219e-13
4.64634e-13
4.66051e-13
4.67461e-13
4.68867e-13
4.70206e-13
4.71455e-13
4.72597e-13
4.73664e-13
4.74703e-13
4.75748e-13
4.76769e-13
4.77752e-13
4.78691e-13
4.79573e-13
4.80407e-13
4.81198e-13
4.81951e-13
4.82652e-13
4.83307e-13
4.83898e-13
4.84444e-13
4.84948e-13
4.85419e-13
4.85926e-13
4.86475e-13
4.87061e-13
4.87748e-13
4.88775e-13
4.88716e-13
4.8897e-13
4.8955e-13
4.89496e-13
4.89605e-13
4.89763e-13
4.89952e-13
4.90169e-13
4.90411e-13
4.9067e-13
4.90934e-13
4.91201e-13
4.91465e-13
4.91733e-13
4.92004e-13
4.92262e-13
4.92475e-13
4.92656e-13
4.92819e-13
4.92968e-13
4.93093e-13
4.93198e-13
4.93286e-13
4.93365e-13
4.93403e-13
4.93402e-13
4.93392e-13
4.93379e-13
4.93363e-13
4.93346e-13
4.9332e-13
4.93284e-13
4.93239e-13
4.93211e-13
4.93181e-13
4.9319e-13
4.93211e-13
4.93254e-13
4.93302e-13
4.93371e-13
4.93411e-13
4.93384e-13
4.93363e-13
4.93325e-13
4.93247e-13
4.93146e-13
4.93014e-13
4.92872e-13
4.92719e-13
4.92583e-13
4.92452e-13
4.92353e-13
4.92254e-13
4.92214e-13
4.92169e-13
4.92169e-13
4.92168e-13
4.92194e-13
4.92199e-13
4.92182e-13
4.92145e-13
4.92089e-13
4.91992e-13
4.91876e-13
4.91752e-13
4.91615e-13
4.91469e-13
4.91321e-13
4.91194e-13
4.91091e-13
4.91031e-13
4.90958e-13
4.90949e-13
4.9093e-13
4.90935e-13
4.9092e-13
4.9089e-13
4.90839e-13
4.9077e-13
4.90684e-13
4.90577e-13
4.90448e-13
4.90307e-13
4.90173e-13
4.90043e-13
4.89933e-13
4.8984e-13
4.89728e-13
4.89731e-13
4.8971e-13
4.89681e-13
4.89665e-13
4.89634e-13
4.89588e-13
4.89523e-13
4.89441e-13
4.89342e-13
4.89232e-13
4.89114e-13
4.88982e-13
4.88866e-13
4.88746e-13
4.88643e-13
4.88592e-13
4.88533e-13
4.88473e-13
4.8845e-13
4.88414e-13
4.88369e-13
4.88315e-13
4.88249e-13
4.88169e-13
4.88077e-13
4.87974e-13
4.87864e-13
4.87748e-13
4.87635e-13
4.8753e-13
4.87402e-13
4.05376e-13
4.05148e-13
4.05415e-13
4.05598e-13
4.05493e-13
4.0536e-13
4.05067e-13
4.04727e-13
4.05292e-13
4.07001e-13
4.09868e-13
4.12496e-13
4.14805e-13
4.1749e-13
4.20356e-13
4.22683e-13
4.24747e-13
4.2658e-13
4.28153e-13
4.29482e-13
4.30578e-13
4.31513e-13
4.32329e-13
4.32991e-13
4.33486e-13
4.33804e-13
4.33941e-13
4.33959e-13
4.33729e-13
4.33316e-13
4.32723e-13
4.31922e-13
4.30974e-13
4.29873e-13
4.28662e-13
4.27347e-13
4.2596e-13
4.2449e-13
4.23e-13
4.2151e-13
4.20009e-13
4.18561e-13
4.17194e-13
4.1592e-13
4.14772e-13
4.13754e-13
4.1289e-13
4.1217e-13
4.11616e-13
4.11204e-13
4.11013e-13
4.1098e-13
4.11172e-13
4.11511e-13
4.12049e-13
4.12747e-13
4.13661e-13
4.14752e-13
4.16022e-13
4.1745e-13
4.19032e-13
4.20747e-13
4.22585e-13
4.24544e-13
4.26621e-13
4.2882e-13
4.31115e-13
4.33497e-13
4.35984e-13
4.38488e-13
4.4107e-13
4.43667e-13
4.46289e-13
4.48974e-13
4.51649e-13
4.54406e-13
4.57129e-13
4.59867e-13
4.62605e-13
4.65303e-13
4.67972e-13
4.70591e-13
4.73222e-13
4.75817e-13
4.78395e-13
4.80901e-13
4.83384e-13
4.85783e-13
4.88143e-13
4.90445e-13
4.9272e-13
4.94919e-13
4.97077e-13
4.99193e-13
5.01303e-13
5.03408e-13
5.05513e-13
5.07543e-13
5.09466e-13
5.1127e-13
5.12979e-13
5.14653e-13
5.16327e-13
5.17969e-13
5.19569e-13
5.21115e-13
5.22595e-13
5.24015e-13
5.25384e-13
5.26703e-13
5.27957e-13
5.29153e-13
5.30268e-13
5.3132e-13
5.32318e-13
5.33256e-13
5.3423e-13
5.35247e-13
5.3631e-13
5.37492e-13
5.39111e-13
5.39452e-13
5.4012e-13
5.41166e-13
5.41482e-13
5.41931e-13
5.4243e-13
5.42951e-13
5.43492e-13
5.44052e-13
5.44628e-13
5.45206e-13
5.45787e-13
5.46364e-13
5.46947e-13
5.47534e-13
5.48112e-13
5.48635e-13
5.49122e-13
5.4958e-13
5.50018e-13
5.5042e-13
5.5079e-13
5.51134e-13
5.51451e-13
5.51728e-13
5.51983e-13
5.52215e-13
5.5245e-13
5.52677e-13
5.5291e-13
5.53122e-13
5.53318e-13
5.535e-13
5.5369e-13
5.53886e-13
5.54106e-13
5.54344e-13
5.54606e-13
5.54876e-13
5.55162e-13
5.55465e-13
5.55629e-13
5.55806e-13
5.55991e-13
5.5608e-13
5.56176e-13
5.56187e-13
5.56195e-13
5.56183e-13
5.56169e-13
5.56163e-13
5.56169e-13
5.56186e-13
5.56233e-13
5.56288e-13
5.5637e-13
5.56463e-13
5.5658e-13
5.56701e-13
5.56782e-13
5.5683e-13
5.56876e-13
5.56854e-13
5.56811e-13
5.56751e-13
5.5667e-13
5.56569e-13
5.56462e-13
5.56363e-13
5.56284e-13
5.56246e-13
5.56195e-13
5.56211e-13
5.56217e-13
5.5625e-13
5.56258e-13
5.56252e-13
5.56226e-13
5.56181e-13
5.56114e-13
5.56024e-13
5.55901e-13
5.55759e-13
5.55614e-13
5.55466e-13
5.55333e-13
5.55214e-13
5.55054e-13
5.55046e-13
5.55012e-13
5.54959e-13
5.54932e-13
5.54889e-13
5.54829e-13
5.54748e-13
5.54648e-13
5.54527e-13
5.54391e-13
5.5424e-13
5.5407e-13
5.53905e-13
5.53737e-13
5.53566e-13
5.53467e-13
5.53359e-13
5.53242e-13
5.53179e-13
5.53101e-13
5.53015e-13
5.5292e-13
5.52811e-13
5.52688e-13
5.5255e-13
5.52397e-13
5.52232e-13
5.52057e-13
5.5188e-13
5.51704e-13
5.51467e-13
4.0563e-13
4.05387e-13
4.05547e-13
4.05677e-13
4.05507e-13
4.05235e-13
4.04794e-13
4.05228e-13
4.0746e-13
4.10866e-13
4.14134e-13
4.16984e-13
4.19402e-13
4.21215e-13
4.22794e-13
4.24352e-13
4.25688e-13
4.26848e-13
4.27887e-13
4.28767e-13
4.29446e-13
4.30027e-13
4.305e-13
4.30842e-13
4.31046e-13
4.31112e-13
4.31022e-13
4.30765e-13
4.30317e-13
4.29703e-13
4.28935e-13
4.28011e-13
4.26968e-13
4.25802e-13
4.24569e-13
4.23268e-13
4.21933e-13
4.20566e-13
4.19211e-13
4.17901e-13
4.16629e-13
4.15439e-13
4.14367e-13
4.13428e-13
4.12654e-13
4.12039e-13
4.11615e-13
4.11357e-13
4.11315e-13
4.11438e-13
4.11803e-13
4.12344e-13
4.13142e-13
4.14111e-13
4.15286e-13
4.16646e-13
4.18239e-13
4.20005e-13
4.21958e-13
4.24064e-13
4.26326e-13
4.28709e-13
4.31211e-13
4.33826e-13
4.36556e-13
4.39403e-13
4.42324e-13
4.45321e-13
4.48397e-13
4.51476e-13
4.54624e-13
4.57753e-13
4.60905e-13
4.64093e-13
4.67265e-13
4.70499e-13
4.73678e-13
4.76853e-13
4.80015e-13
4.83124e-13
4.86163e-13
4.89164e-13
4.92148e-13
4.95096e-13
4.97986e-13
5.00808e-13
5.03583e-13
5.06271e-13
5.08902e-13
5.11477e-13
5.14014e-13
5.16468e-13
5.18875e-13
5.21235e-13
5.23586e-13
5.25923e-13
5.28259e-13
5.30504e-13
5.3264e-13
5.34656e-13
5.36576e-13
5.38462e-13
5.40345e-13
5.4219e-13
5.43991e-13
5.45732e-13
5.47408e-13
5.4902e-13
5.50583e-13
5.5209e-13
5.53533e-13
5.54917e-13
5.56213e-13
5.57451e-13
5.58627e-13
5.59743e-13
5.60895e-13
5.62086e-13
5.63331e-13
5.64687e-13
5.66454e-13
5.66962e-13
5.67809e-13
5.68964e-13
5.69475e-13
5.70098e-13
5.70762e-13
5.71442e-13
5.72134e-13
5.72838e-13
5.73556e-13
5.7427e-13
5.74985e-13
5.75695e-13
5.76407e-13
5.77127e-13
5.77832e-13
5.78483e-13
5.791e-13
5.79687e-13
5.80253e-13
5.80782e-13
5.81278e-13
5.81744e-13
5.82185e-13
5.82575e-13
5.82939e-13
5.83275e-13
5.83615e-13
5.83944e-13
5.84279e-13
5.8459e-13
5.84885e-13
5.85165e-13
5.8545e-13
5.85743e-13
5.86057e-13
5.86389e-13
5.86744e-13
5.87108e-13
5.87486e-13
5.87886e-13
5.88145e-13
5.88415e-13
5.88697e-13
5.88873e-13
5.89061e-13
5.89151e-13
5.89246e-13
5.89303e-13
5.89363e-13
5.89427e-13
5.89497e-13
5.89581e-13
5.89687e-13
5.89805e-13
5.89943e-13
5.9009e-13
5.90262e-13
5.90435e-13
5.90578e-13
5.90675e-13
5.90786e-13
5.90802e-13
5.908e-13
5.90781e-13
5.90739e-13
5.90675e-13
5.90604e-13
5.90533e-13
5.90481e-13
5.90465e-13
5.90446e-13
5.9047e-13
5.90497e-13
5.90548e-13
5.9058e-13
5.90593e-13
5.90581e-13
5.90551e-13
5.90499e-13
5.90422e-13
5.90311e-13
5.90176e-13
5.90036e-13
5.89891e-13
5.89758e-13
5.89631e-13
5.8947e-13
5.89451e-13
5.8941e-13
5.89351e-13
5.89317e-13
5.89266e-13
5.892e-13
5.89112e-13
5.89004e-13
5.88874e-13
5.88727e-13
5.88563e-13
5.88379e-13
5.88195e-13
5.88006e-13
5.87814e-13
5.87689e-13
5.87555e-13
5.87413e-13
5.87324e-13
5.87222e-13
5.87111e-13
5.86993e-13
5.8686e-13
5.86713e-13
5.86549e-13
5.8637e-13
5.86177e-13
5.85972e-13
5.85763e-13
5.85552e-13
5.85264e-13
4.05773e-13
4.05519e-13
4.0549e-13
4.05561e-13
4.05316e-13
4.04958e-13
4.05391e-13
4.07577e-13
4.1138e-13
4.14909e-13
4.17543e-13
4.19428e-13
4.20797e-13
4.21803e-13
4.22672e-13
4.23734e-13
4.24677e-13
4.25494e-13
4.26206e-13
4.26802e-13
4.2723e-13
4.27594e-13
4.27868e-13
4.28033e-13
4.28086e-13
4.27999e-13
4.27762e-13
4.27373e-13
4.26832e-13
4.26146e-13
4.25335e-13
4.24396e-13
4.23365e-13
4.22234e-13
4.2106e-13
4.19855e-13
4.1865e-13
4.17454e-13
4.16301e-13
4.15237e-13
4.14251e-13
4.13377e-13
4.12658e-13
4.12105e-13
4.11754e-13
4.11595e-13
4.1168e-13
4.11955e-13
4.12498e-13
4.13224e-13
4.14226e-13
4.15429e-13
4.16923e-13
4.18614e-13
4.2051e-13
4.22617e-13
4.24974e-13
4.27491e-13
4.30206e-13
4.33056e-13
4.36065e-13
4.39167e-13
4.4238e-13
4.45686e-13
4.49093e-13
4.52608e-13
4.56153e-13
4.59768e-13
4.63407e-13
4.67022e-13
4.70675e-13
4.74264e-13
4.77871e-13
4.81471e-13
4.85051e-13
4.8865e-13
4.92164e-13
4.9566e-13
4.99119e-13
5.02495e-13
5.05763e-13
5.09001e-13
5.12192e-13
5.15323e-13
5.18362e-13
5.21321e-13
5.24214e-13
5.27008e-13
5.29732e-13
5.32399e-13
5.35017e-13
5.37547e-13
5.4002e-13
5.42441e-13
5.44846e-13
5.47227e-13
5.49608e-13
5.51875e-13
5.54037e-13
5.56078e-13
5.58023e-13
5.59939e-13
5.61848e-13
5.63715e-13
5.65537e-13
5.67295e-13
5.68991e-13
5.70621e-13
5.72208e-13
5.73732e-13
5.75198e-13
5.76603e-13
5.7792e-13
5.79186e-13
5.80381e-13
5.81531e-13
5.82716e-13
5.83934e-13
5.8522e-13
5.86596e-13
5.88335e-13
5.889e-13
5.89773e-13
5.90866e-13
5.91493e-13
5.92162e-13
5.92863e-13
5.93582e-13
5.94308e-13
5.95046e-13
5.95796e-13
5.96542e-13
5.97288e-13
5.98031e-13
5.98774e-13
5.99526e-13
6.00256e-13
6.00939e-13
6.0159e-13
6.0221e-13
6.0281e-13
6.03373e-13
6.03905e-13
6.04406e-13
6.04885e-13
6.05312e-13
6.05709e-13
6.06079e-13
6.06451e-13
6.0681e-13
6.07176e-13
6.07512e-13
6.07837e-13
6.08146e-13
6.08461e-13
6.08783e-13
6.09126e-13
6.09488e-13
6.09868e-13
6.10261e-13
6.10666e-13
6.11092e-13
6.11385e-13
6.11683e-13
6.11991e-13
6.122e-13
6.12421e-13
6.1254e-13
6.12667e-13
6.12753e-13
6.12841e-13
6.12932e-13
6.13029e-13
6.13139e-13
6.1327e-13
6.13412e-13
6.13574e-13
6.13744e-13
6.13939e-13
6.14132e-13
6.14298e-13
6.14416e-13
6.14551e-13
6.14587e-13
6.14606e-13
6.14599e-13
6.14573e-13
6.14525e-13
6.1447e-13
6.14414e-13
6.14376e-13
6.1437e-13
6.14364e-13
6.14394e-13
6.14428e-13
6.14486e-13
6.14525e-13
6.14548e-13
6.14539e-13
6.14514e-13
6.14468e-13
6.14394e-13
6.14286e-13
6.14154e-13
6.14014e-13
6.1387e-13
6.13737e-13
6.13602e-13
6.13443e-13
6.13416e-13
6.13367e-13
6.13304e-13
6.1326e-13
6.13202e-13
6.13127e-13
6.13032e-13
6.12915e-13
6.12777e-13
6.12619e-13
6.12446e-13
6.1225e-13
6.12053e-13
6.11849e-13
6.11644e-13
6.11501e-13
6.11351e-13
6.11192e-13
6.11084e-13
6.10964e-13
6.10835e-13
6.10698e-13
6.10546e-13
6.1038e-13
6.10196e-13
6.09997e-13
6.09783e-13
6.09557e-13
6.09326e-13
6.09091e-13
6.08767e-13
4.05857e-13
4.05582e-13
4.05292e-13
4.05289e-13
4.05085e-13
4.05532e-13
4.07515e-13
4.11285e-13
4.14836e-13
4.17306e-13
4.18958e-13
4.20039e-13
4.20738e-13
4.21394e-13
4.21966e-13
4.22663e-13
4.23275e-13
4.23821e-13
4.24297e-13
4.247e-13
4.24959e-13
4.25176e-13
4.25317e-13
4.25367e-13
4.25302e-13
4.25108e-13
4.24784e-13
4.24324e-13
4.23734e-13
4.23016e-13
4.22197e-13
4.21274e-13
4.20287e-13
4.19226e-13
4.18148e-13
4.17081e-13
4.16057e-13
4.1508e-13
4.14185e-13
4.13431e-13
4.12805e-13
4.12324e-13
4.12049e-13
4.11982e-13
4.12177e-13
4.12594e-13
4.1332e-13
4.14277e-13
4.15572e-13
4.1709e-13
4.18922e-13
4.20993e-13
4.23398e-13
4.26028e-13
4.28869e-13
4.31933e-13
4.35279e-13
4.38742e-13
4.42431e-13
4.46216e-13
4.50152e-13
4.54133e-13
4.58191e-13
4.62305e-13
4.66478e-13
4.7076e-13
4.74987e-13
4.79267e-13
4.83497e-13
4.87656e-13
4.91823e-13
4.95843e-13
4.99877e-13
5.0384e-13
5.07762e-13
5.11663e-13
5.1542e-13
5.19138e-13
5.2279e-13
5.26315e-13
5.29685e-13
5.33024e-13
5.36276e-13
5.39441e-13
5.42484e-13
5.45441e-13
5.48316e-13
5.51082e-13
5.53765e-13
5.5639e-13
5.58958e-13
5.61434e-13
5.63831e-13
5.66172e-13
5.68484e-13
5.70767e-13
5.73052e-13
5.75202e-13
5.7726e-13
5.79201e-13
5.81049e-13
5.82868e-13
5.84673e-13
5.86432e-13
5.8815e-13
5.89802e-13
5.91399e-13
5.92932e-13
5.94427e-13
5.95853e-13
5.9723e-13
5.98544e-13
5.99777e-13
6.00965e-13
6.02076e-13
6.03166e-13
6.04285e-13
6.05429e-13
6.06656e-13
6.07945e-13
6.09539e-13
6.10102e-13
6.10908e-13
6.11836e-13
6.12531e-13
6.13143e-13
6.13796e-13
6.14473e-13
6.15155e-13
6.1585e-13
6.16555e-13
6.17261e-13
6.17969e-13
6.18675e-13
6.1938e-13
6.20096e-13
6.20782e-13
6.21432e-13
6.22055e-13
6.22646e-13
6.23216e-13
6.23753e-13
6.24262e-13
6.24739e-13
6.25199e-13
6.25607e-13
6.25986e-13
6.2634e-13
6.26693e-13
6.27036e-13
6.27383e-13
6.27699e-13
6.28007e-13
6.28302e-13
6.28602e-13
6.28911e-13
6.29239e-13
6.29586e-13
6.29949e-13
6.30329e-13
6.30718e-13
6.31129e-13
6.31418e-13
6.31701e-13
6.31993e-13
6.32196e-13
6.32413e-13
6.32527e-13
6.32648e-13
6.32732e-13
6.32816e-13
6.32904e-13
6.32998e-13
6.33105e-13
6.33232e-13
6.33371e-13
6.3353e-13
6.33697e-13
6.33887e-13
6.34076e-13
6.34239e-13
6.34356e-13
6.34485e-13
6.34522e-13
6.34539e-13
6.3453e-13
6.34501e-13
6.34452e-13
6.34396e-13
6.34339e-13
6.34297e-13
6.34289e-13
6.34274e-13
6.34305e-13
6.34332e-13
6.34386e-13
6.34418e-13
6.34434e-13
6.34421e-13
6.34392e-13
6.3434e-13
6.3426e-13
6.34146e-13
6.34007e-13
6.3386e-13
6.33708e-13
6.33568e-13
6.33422e-13
6.33263e-13
6.3322e-13
6.33159e-13
6.33088e-13
6.3303e-13
6.32959e-13
6.32872e-13
6.32764e-13
6.32635e-13
6.32484e-13
6.32314e-13
6.32127e-13
6.31918e-13
6.31706e-13
6.31486e-13
6.31269e-13
6.31108e-13
6.30941e-13
6.30767e-13
6.30641e-13
6.30502e-13
6.30354e-13
6.30198e-13
6.30027e-13
6.29842e-13
6.2964e-13
6.29421e-13
6.29187e-13
6.2894e-13
6.28689e-13
6.28432e-13
6.28077e-13
4.05899e-13
4.055e-13
4.05122e-13
4.05203e-13
4.0552e-13
4.07175e-13
4.10675e-13
4.14249e-13
4.16756e-13
4.18319e-13
4.19279e-13
4.19856e-13
4.20291e-13
4.20686e-13
4.21022e-13
4.21449e-13
4.21827e-13
4.22178e-13
4.22487e-13
4.22743e-13
4.22876e-13
4.22975e-13
4.23009e-13
4.22952e-13
4.22795e-13
4.22519e-13
4.22131e-13
4.21622e-13
4.21006e-13
4.2028e-13
4.19477e-13
4.18601e-13
4.17694e-13
4.16751e-13
4.15821e-13
4.14948e-13
4.14178e-13
4.13502e-13
4.1296e-13
4.12613e-13
4.1247e-13
4.12546e-13
4.1288e-13
4.13479e-13
4.14422e-13
4.15648e-13
4.17278e-13
4.19214e-13
4.21579e-13
4.24242e-13
4.27262e-13
4.30583e-13
4.34287e-13
4.3824e-13
4.4247e-13
4.46815e-13
4.51539e-13
4.56316e-13
4.61322e-13
4.6642e-13
4.71535e-13
4.76715e-13
4.81787e-13
4.86908e-13
4.91973e-13
4.97187e-13
5.02172e-13
5.07187e-13
5.12036e-13
5.16735e-13
5.214e-13
5.25775e-13
5.30158e-13
5.34363e-13
5.38493e-13
5.42541e-13
5.4636e-13
5.50107e-13
5.53743e-13
5.57194e-13
5.60417e-13
5.6362e-13
5.66704e-13
5.69696e-13
5.7253e-13
5.75289e-13
5.77943e-13
5.80488e-13
5.82934e-13
5.85331e-13
5.87657e-13
5.89892e-13
5.92027e-13
5.94114e-13
5.96156e-13
5.98183e-13
6.00212e-13
6.02096e-13
6.03916e-13
6.05616e-13
6.07229e-13
6.08811e-13
6.10374e-13
6.11889e-13
6.13372e-13
6.14794e-13
6.16172e-13
6.17491e-13
6.18778e-13
6.19991e-13
6.2117e-13
6.22283e-13
6.2333e-13
6.24337e-13
6.25273e-13
6.26209e-13
6.27169e-13
6.28137e-13
6.29207e-13
6.3031e-13
6.31643e-13
6.32169e-13
6.32813e-13
6.335e-13
6.34163e-13
6.34648e-13
6.3518e-13
6.35746e-13
6.3631e-13
6.36891e-13
6.37479e-13
6.38076e-13
6.38678e-13
6.3928e-13
6.39882e-13
6.40497e-13
6.41075e-13
6.41633e-13
6.4217e-13
6.42673e-13
6.43157e-13
6.43612e-13
6.44042e-13
6.44441e-13
6.4483e-13
6.45166e-13
6.4548e-13
6.45773e-13
6.46061e-13
6.46344e-13
6.46628e-13
6.46884e-13
6.47132e-13
6.47375e-13
6.47622e-13
6.47879e-13
6.48154e-13
6.48451e-13
6.48758e-13
6.49086e-13
6.49423e-13
6.4978e-13
6.50033e-13
6.50265e-13
6.50507e-13
6.50672e-13
6.50851e-13
6.5093e-13
6.51016e-13
6.5107e-13
6.51122e-13
6.5118e-13
6.51244e-13
6.51321e-13
6.51418e-13
6.51528e-13
6.5166e-13
6.51795e-13
6.51955e-13
6.52116e-13
6.52251e-13
6.52343e-13
6.5244e-13
6.52459e-13
6.52453e-13
6.52426e-13
6.52377e-13
6.52309e-13
6.52234e-13
6.52158e-13
6.52096e-13
6.52069e-13
6.52024e-13
6.52048e-13
6.52048e-13
6.52084e-13
6.52095e-13
6.5209e-13
6.52061e-13
6.52013e-13
6.51943e-13
6.51846e-13
6.51714e-13
6.51557e-13
6.51394e-13
6.51225e-13
6.51069e-13
6.50905e-13
6.50736e-13
6.50665e-13
6.50586e-13
6.50499e-13
6.5042e-13
6.50328e-13
6.50222e-13
6.50096e-13
6.49948e-13
6.49779e-13
6.49589e-13
6.49384e-13
6.49157e-13
6.48926e-13
6.48686e-13
6.48453e-13
6.48269e-13
6.48083e-13
6.4789e-13
6.47741e-13
6.47581e-13
6.47412e-13
6.47235e-13
6.47042e-13
6.46835e-13
6.46611e-13
6.4637e-13
6.46115e-13
6.45846e-13
6.45573e-13
6.45294e-13
6.44906e-13
4.0588e-13
4.05444e-13
4.0512e-13
4.05591e-13
4.06756e-13
4.09683e-13
4.13363e-13
4.16012e-13
4.17645e-13
4.18576e-13
4.1911e-13
4.19442e-13
4.1965e-13
4.19843e-13
4.20021e-13
4.20257e-13
4.20474e-13
4.20676e-13
4.20848e-13
4.2098e-13
4.21009e-13
4.21004e-13
4.20946e-13
4.20802e-13
4.2057e-13
4.20234e-13
4.19803e-13
4.1927e-13
4.18653e-13
4.17951e-13
4.17202e-13
4.1642e-13
4.15647e-13
4.14889e-13
4.14191e-13
4.13599e-13
4.13185e-13
4.1294e-13
4.12914e-13
4.1317e-13
4.1372e-13
4.14602e-13
4.15839e-13
4.17433e-13
4.19509e-13
4.22002e-13
4.25027e-13
4.28501e-13
4.32531e-13
4.36989e-13
4.41858e-13
4.47052e-13
4.52743e-13
4.58633e-13
4.65045e-13
4.70989e-13
4.77607e-13
4.84393e-13
4.91075e-13
4.98092e-13
5.04678e-13
5.11575e-13
5.17834e-13
5.24291e-13
5.30391e-13
5.36774e-13
5.42624e-13
5.48465e-13
5.53932e-13
5.59093e-13
5.64128e-13
5.68639e-13
5.73167e-13
5.77321e-13
5.81391e-13
5.85257e-13
5.88803e-13
5.9222e-13
5.95475e-13
5.9846e-13
6.01148e-13
6.03818e-13
6.06367e-13
6.08827e-13
6.11102e-13
6.13323e-13
6.15413e-13
6.174e-13
6.1928e-13
6.2112e-13
6.22884e-13
6.24585e-13
6.26199e-13
6.27785e-13
6.29312e-13
6.30866e-13
6.32419e-13
6.33838e-13
6.35219e-13
6.36485e-13
6.37682e-13
6.38859e-13
6.40019e-13
6.41136e-13
6.42241e-13
6.43296e-13
6.44321e-13
6.45293e-13
6.46243e-13
6.47116e-13
6.47977e-13
6.48772e-13
6.49525e-13
6.50241e-13
6.5091e-13
6.51588e-13
6.52292e-13
6.52977e-13
6.53786e-13
6.54607e-13
6.55567e-13
6.56027e-13
6.56375e-13
6.56779e-13
6.57265e-13
6.57591e-13
6.57934e-13
6.58318e-13
6.58691e-13
6.59093e-13
6.59489e-13
6.59913e-13
6.60336e-13
6.60771e-13
6.61205e-13
6.61655e-13
6.62063e-13
6.62469e-13
6.62861e-13
6.63219e-13
6.63564e-13
6.63882e-13
6.64183e-13
6.64451e-13
6.64717e-13
6.64935e-13
6.65137e-13
6.65322e-13
6.65501e-13
6.65679e-13
6.65858e-13
6.6601e-13
6.66157e-13
6.66309e-13
6.66462e-13
6.66632e-13
6.66814e-13
6.67031e-13
6.67237e-13
6.67479e-13
6.67725e-13
6.6799e-13
6.68171e-13
6.68322e-13
6.6848e-13
6.68577e-13
6.68681e-13
6.68702e-13
6.68724e-13
6.68719e-13
6.68714e-13
6.68714e-13
6.68718e-13
6.68737e-13
6.68786e-13
6.6883e-13
6.68917e-13
6.68988e-13
6.69094e-13
6.69201e-13
6.69281e-13
6.69324e-13
6.69368e-13
6.69349e-13
6.69303e-13
6.69234e-13
6.69144e-13
6.69037e-13
6.68925e-13
6.68813e-13
6.68714e-13
6.68648e-13
6.68557e-13
6.68556e-13
6.68511e-13
6.68513e-13
6.68488e-13
6.68447e-13
6.68384e-13
6.68303e-13
6.68199e-13
6.68072e-13
6.6791e-13
6.67723e-13
6.67531e-13
6.67334e-13
6.67151e-13
6.66958e-13
6.66772e-13
6.66655e-13
6.6655e-13
6.66438e-13
6.66327e-13
6.66206e-13
6.66071e-13
6.65917e-13
6.65742e-13
6.65546e-13
6.6533e-13
6.651e-13
6.64847e-13
6.64591e-13
6.64325e-13
6.64069e-13
6.63855e-13
6.63645e-13
6.63429e-13
6.63251e-13
6.63064e-13
6.62868e-13
6.62664e-13
6.62445e-13
6.62212e-13
6.61962e-13
6.61696e-13
6.61415e-13
6.61121e-13
6.60822e-13
6.60518e-13
6.60093e-13
4.05813e-13
4.05591e-13
4.05464e-13
4.06495e-13
4.087e-13
4.12198e-13
4.15066e-13
4.16898e-13
4.17931e-13
4.18458e-13
4.18748e-13
4.18896e-13
4.18946e-13
4.19e-13
4.19055e-13
4.19155e-13
4.19249e-13
4.19331e-13
4.19391e-13
4.19417e-13
4.19364e-13
4.1927e-13
4.19136e-13
4.18926e-13
4.18642e-13
4.18271e-13
4.17825e-13
4.17299e-13
4.1672e-13
4.1609e-13
4.15453e-13
4.14831e-13
4.14277e-13
4.138e-13
4.13458e-13
4.13291e-13
4.13429e-13
4.13829e-13
4.14605e-13
4.15817e-13
4.17484e-13
4.19684e-13
4.22361e-13
4.25557e-13
4.29413e-13
4.33918e-13
4.39104e-13
4.44905e-13
4.51431e-13
4.58509e-13
4.66227e-13
4.73924e-13
4.8242e-13
4.90935e-13
5.00442e-13
5.08345e-13
5.17372e-13
5.27116e-13
5.3577e-13
5.45328e-13
5.53702e-13
5.62803e-13
5.70412e-13
5.7852e-13
5.85752e-13
5.93416e-13
6.00204e-13
6.06874e-13
6.12875e-13
6.18424e-13
6.23654e-13
6.28122e-13
6.32542e-13
6.36323e-13
6.40031e-13
6.43304e-13
6.46236e-13
6.48873e-13
6.51361e-13
6.5338e-13
6.55208e-13
6.56835e-13
6.58485e-13
6.59788e-13
6.61102e-13
6.62193e-13
6.63306e-13
6.64177e-13
6.65103e-13
6.65871e-13
6.6669e-13
6.67377e-13
6.6814e-13
6.68809e-13
6.69514e-13
6.70238e-13
6.71012e-13
6.71615e-13
6.72276e-13
6.7285e-13
6.73414e-13
6.73971e-13
6.74538e-13
6.75056e-13
6.75604e-13
6.76113e-13
6.76612e-13
6.77076e-13
6.77539e-13
6.77931e-13
6.78345e-13
6.78693e-13
6.79026e-13
6.79334e-13
6.79617e-13
6.79925e-13
6.80277e-13
6.80572e-13
6.8103e-13
6.81427e-13
6.81924e-13
6.82197e-13
6.82191e-13
6.82273e-13
6.82442e-13
6.82545e-13
6.82636e-13
6.82769e-13
6.82886e-13
6.83031e-13
6.83165e-13
6.83342e-13
6.83521e-13
6.83724e-13
6.83921e-13
6.84144e-13
6.8432e-13
6.84512e-13
6.84699e-13
6.84858e-13
6.85009e-13
6.85136e-13
6.85255e-13
6.85344e-13
6.85434e-13
6.85487e-13
6.85532e-13
6.85562e-13
6.85594e-13
6.85615e-13
6.85654e-13
6.8565e-13
6.85665e-13
6.85677e-13
6.85704e-13
6.85747e-13
6.858e-13
6.85905e-13
6.85959e-13
6.86088e-13
6.862e-13
6.86332e-13
6.86411e-13
6.86452e-13
6.86494e-13
6.8649e-13
6.86485e-13
6.86426e-13
6.86351e-13
6.86262e-13
6.86171e-13
6.86083e-13
6.86003e-13
6.85936e-13
6.85913e-13
6.85856e-13
6.85884e-13
6.85855e-13
6.8589e-13
6.85913e-13
6.85912e-13
6.85882e-13
6.85854e-13
6.85776e-13
6.85667e-13
6.85534e-13
6.85383e-13
6.85219e-13
6.85051e-13
6.84883e-13
6.84728e-13
6.84605e-13
6.84456e-13
6.84399e-13
6.84305e-13
6.84247e-13
6.84169e-13
6.84077e-13
6.83963e-13
6.83832e-13
6.8368e-13
6.83509e-13
6.83304e-13
6.83074e-13
6.8284e-13
6.82601e-13
6.82381e-13
6.82148e-13
6.81931e-13
6.81752e-13
6.81613e-13
6.81463e-13
6.81311e-13
6.81149e-13
6.80975e-13
6.80783e-13
6.80571e-13
6.80339e-13
6.80088e-13
6.79822e-13
6.79537e-13
6.79248e-13
6.78949e-13
6.78663e-13
6.78408e-13
6.78169e-13
6.77923e-13
6.77706e-13
6.77486e-13
6.77258e-13
6.77021e-13
6.76769e-13
6.76504e-13
6.76223e-13
6.75926e-13
6.75614e-13
6.7529e-13
6.74962e-13
6.74628e-13
6.7416e-13
4.05765e-13
4.05968e-13
4.06152e-13
4.0787e-13
4.10857e-13
4.13893e-13
4.16015e-13
4.17255e-13
4.17861e-13
4.18169e-13
4.18286e-13
4.18304e-13
4.18244e-13
4.18203e-13
4.18173e-13
4.18167e-13
4.18161e-13
4.1815e-13
4.18119e-13
4.18061e-13
4.17943e-13
4.17785e-13
4.17595e-13
4.17344e-13
4.17036e-13
4.1666e-13
4.16237e-13
4.15765e-13
4.1528e-13
4.14789e-13
4.14349e-13
4.13981e-13
4.13776e-13
4.13735e-13
4.13977e-13
4.14514e-13
4.1556e-13
4.1704e-13
4.19178e-13
4.21959e-13
4.25424e-13
4.29697e-13
4.3447e-13
4.40108e-13
4.46621e-13
4.54091e-13
4.62457e-13
4.71385e-13
4.81359e-13
4.91872e-13
5.03642e-13
5.14293e-13
5.26333e-13
5.3794e-13
5.51347e-13
5.61725e-13
5.73535e-13
5.86948e-13
5.98007e-13
6.10629e-13
6.20773e-13
6.32233e-13
6.4112e-13
6.50771e-13
6.58999e-13
6.67583e-13
6.7512e-13
6.82183e-13
6.88368e-13
6.93883e-13
6.98727e-13
7.0293e-13
7.06601e-13
7.09879e-13
7.12755e-13
7.15171e-13
7.17287e-13
7.18683e-13
7.20477e-13
7.21015e-13
7.22027e-13
7.22102e-13
7.22937e-13
7.22479e-13
7.22913e-13
7.22251e-13
7.22387e-13
7.21542e-13
7.21475e-13
7.20652e-13
7.20369e-13
7.19534e-13
7.1923e-13
7.18437e-13
7.18154e-13
7.17497e-13
7.17134e-13
7.16491e-13
7.16151e-13
7.15674e-13
7.15367e-13
7.15016e-13
7.14751e-13
7.14397e-13
7.14146e-13
7.13879e-13
7.13662e-13
7.13435e-13
7.13237e-13
7.12985e-13
7.1279e-13
7.12541e-13
7.1231e-13
7.1208e-13
7.11809e-13
7.1168e-13
7.1156e-13
7.1139e-13
7.11347e-13
7.11146e-13
7.11167e-13
7.11023e-13
7.10692e-13
7.10335e-13
7.10127e-13
7.099e-13
7.09698e-13
7.09476e-13
7.09287e-13
7.09072e-13
7.08893e-13
7.08732e-13
7.0862e-13
7.08513e-13
7.0841e-13
7.08336e-13
7.08212e-13
7.08141e-13
7.0806e-13
7.07963e-13
7.07864e-13
7.07749e-13
7.0763e-13
7.07494e-13
7.07354e-13
7.07196e-13
7.07039e-13
7.06868e-13
7.06711e-13
7.06531e-13
7.06375e-13
7.06185e-13
7.06029e-13
7.0586e-13
7.05727e-13
7.05595e-13
7.05494e-13
7.05436e-13
7.05306e-13
7.05286e-13
7.05212e-13
7.05195e-13
7.0513e-13
7.05028e-13
7.0492e-13
7.04787e-13
7.04648e-13
7.0447e-13
7.04277e-13
7.04073e-13
7.03868e-13
7.03666e-13
7.03477e-13
7.03299e-13
7.03168e-13
7.02998e-13
7.02922e-13
7.02792e-13
7.02717e-13
7.02629e-13
7.02529e-13
7.024e-13
7.02277e-13
7.02116e-13
7.01923e-13
7.01705e-13
7.01473e-13
7.01233e-13
7.0099e-13
7.0075e-13
7.0052e-13
7.00323e-13
7.00099e-13
6.99963e-13
6.99802e-13
6.99667e-13
6.99517e-13
6.99355e-13
6.99174e-13
6.98978e-13
6.98762e-13
6.98531e-13
6.9827e-13
6.97984e-13
6.97695e-13
6.97401e-13
6.9713e-13
6.96846e-13
6.96585e-13
6.9633e-13
6.96144e-13
6.95945e-13
6.95739e-13
6.95525e-13
6.95299e-13
6.95058e-13
6.94799e-13
6.94521e-13
6.94225e-13
6.93915e-13
6.93588e-13
6.93258e-13
6.92919e-13
6.92593e-13
6.92287e-13
6.92012e-13
6.91728e-13
6.91463e-13
6.91203e-13
6.90934e-13
6.90657e-13
6.90366e-13
6.90062e-13
6.89743e-13
6.89409e-13
6.8906e-13
6.88701e-13
6.88338e-13
6.87969e-13
6.8745e-13
4.05736e-13
4.06446e-13
4.07107e-13
4.09471e-13
4.12494e-13
4.14916e-13
4.16453e-13
4.17244e-13
4.17643e-13
4.17789e-13
4.17799e-13
4.17712e-13
4.17588e-13
4.1748e-13
4.17383e-13
4.173e-13
4.17219e-13
4.17135e-13
4.17037e-13
4.16917e-13
4.16753e-13
4.16557e-13
4.16338e-13
4.16076e-13
4.15779e-13
4.15442e-13
4.15092e-13
4.14737e-13
4.14426e-13
4.14171e-13
4.14056e-13
4.14112e-13
4.14499e-13
4.15206e-13
4.16457e-13
4.1821e-13
4.20743e-13
4.23986e-13
4.28262e-13
4.33449e-13
4.39505e-13
4.46738e-13
4.54284e-13
4.63427e-13
4.7372e-13
4.8495e-13
4.97696e-13
5.1032e-13
5.24737e-13
5.39272e-13
5.56337e-13
5.70186e-13
5.86644e-13
6.01499e-13
6.18675e-13
6.32635e-13
6.46719e-13
6.63107e-13
6.76267e-13
6.91259e-13
7.02662e-13
7.15472e-13
7.25287e-13
7.35234e-13
7.44013e-13
7.52253e-13
7.59972e-13
7.66176e-13
7.72016e-13
7.76452e-13
7.80436e-13
7.83907e-13
7.86015e-13
7.89042e-13
7.90212e-13
7.92039e-13
7.9292e-13
7.92965e-13
7.9434e-13
7.93036e-13
7.93705e-13
7.9218e-13
7.92257e-13
7.90402e-13
7.90091e-13
7.88057e-13
7.87296e-13
7.85205e-13
7.84119e-13
7.82104e-13
7.80667e-13
7.78681e-13
7.77218e-13
7.75288e-13
7.73834e-13
7.71963e-13
7.70291e-13
7.68421e-13
7.66879e-13
7.65227e-13
7.63805e-13
7.62347e-13
7.60991e-13
7.59555e-13
7.58257e-13
7.56983e-13
7.55829e-13
7.54703e-13
7.53644e-13
7.52558e-13
7.51576e-13
7.50575e-13
7.49639e-13
7.48723e-13
7.47825e-13
7.47104e-13
7.46379e-13
7.4567e-13
7.44956e-13
7.4414e-13
7.43497e-13
7.42855e-13
7.42066e-13
7.41219e-13
7.40562e-13
7.39926e-13
7.39322e-13
7.38697e-13
7.38108e-13
7.37483e-13
7.36912e-13
7.36346e-13
7.35865e-13
7.3538e-13
7.34914e-13
7.3447e-13
7.33993e-13
7.33592e-13
7.33186e-13
7.32775e-13
7.3237e-13
7.31961e-13
7.31552e-13
7.31137e-13
7.30723e-13
7.30302e-13
7.29899e-13
7.29486e-13
7.2909e-13
7.28675e-13
7.28279e-13
7.27858e-13
7.2749e-13
7.2711e-13
7.2677e-13
7.26435e-13
7.26135e-13
7.25862e-13
7.25539e-13
7.25309e-13
7.25039e-13
7.24819e-13
7.24572e-13
7.24296e-13
7.24013e-13
7.23715e-13
7.23415e-13
7.23088e-13
7.22748e-13
7.22403e-13
7.22058e-13
7.21716e-13
7.21394e-13
7.21082e-13
7.20812e-13
7.2051e-13
7.20294e-13
7.20045e-13
7.1983e-13
7.19608e-13
7.19384e-13
7.19136e-13
7.18894e-13
7.18624e-13
7.18326e-13
7.18005e-13
7.17671e-13
7.17336e-13
7.17001e-13
7.1667e-13
7.16349e-13
7.16058e-13
7.15742e-13
7.15512e-13
7.15262e-13
7.15032e-13
7.14791e-13
7.14541e-13
7.14277e-13
7.13999e-13
7.13704e-13
7.13398e-13
7.13066e-13
7.12711e-13
7.12353e-13
7.11992e-13
7.11656e-13
7.11309e-13
7.10988e-13
7.10648e-13
7.10401e-13
7.10138e-13
7.09867e-13
7.09588e-13
7.09299e-13
7.08998e-13
7.0868e-13
7.08346e-13
7.07994e-13
7.0763e-13
7.07252e-13
7.06872e-13
7.06485e-13
7.06109e-13
7.05743e-13
7.05423e-13
7.05093e-13
7.0477e-13
7.04462e-13
7.04145e-13
7.0382e-13
7.03481e-13
7.03131e-13
7.02767e-13
7.02388e-13
7.01997e-13
7.01596e-13
7.01191e-13
7.00781e-13
7.00203e-13
4.05832e-13
4.06994e-13
4.08188e-13
4.10937e-13
4.13561e-13
4.1545e-13
4.16532e-13
4.17106e-13
4.17338e-13
4.17386e-13
4.17309e-13
4.1716e-13
4.16994e-13
4.16839e-13
4.16694e-13
4.16558e-13
4.16425e-13
4.1629e-13
4.16147e-13
4.15989e-13
4.15803e-13
4.15597e-13
4.15382e-13
4.15145e-13
4.14904e-13
4.14662e-13
4.14458e-13
4.14308e-13
4.14292e-13
4.14436e-13
4.14905e-13
4.15713e-13
4.17133e-13
4.19111e-13
4.21993e-13
4.25685e-13
4.30444e-13
4.36313e-13
4.43625e-13
4.52247e-13
4.61431e-13
4.72466e-13
4.84027e-13
4.97542e-13
5.12829e-13
5.28298e-13
5.46763e-13
5.63373e-13
5.8337e-13