/*--------------------------------*- C++ -*----------------------------------*\
| =========                 |                                                 |
| \\      /  F ield         | OpenFOAM: The Open Source CFD Toolbox           |
|  \\    /   O peration     | Version:  2312                                  |
|   \\  /    A nd           | Website:  www.openfoam.com                      |
|    \\/     M anipulation  |                                                 |
\*---------------------------------------------------------------------------*/
FoamFile
{
    version     2.0;
    format      ascii;
    arch        "LSB;label=32;scalar=64";
    class       volScalarField;
    location    "0.004";
    object      thermo:psiGasEff;
}
// * * * * * * * * * * * * * * * * * * * * * * * * * * * * * * * * * * * * * //

dimensions      [-2 4 2 0 0 0 0];

internalField   nonuniform List<scalar> 
48128
(
0.00835055
0.00835077
0.00839777
0.00845317
0.00845909
0.00847765
0.00849193
0.00851515
0.00854801
0.00859359
0.0085809
0.00860951
0.00860566
0.00867132
0.00879353
0.00893114
0.00903414
0.00911132
0.00915896
0.00917575
0.00916165
0.0091213
0.00905523
0.00896257
0.00884278
0.00869658
0.00852367
0.00831598
0.00808573
0.00783162
0.00755754
0.00726526
0.00695942
0.00664153
0.00631914
0.00599209
0.0056652
0.00534013
0.0050255
0.0047152
0.00441617
0.00413046
0.00385819
0.00359974
0.00335934
0.00312935
0.00292035
0.00271881
0.00253732
0.0023641
0.00220897
0.00206086
0.00192824
0.00180328
0.00169145
0.00158658
0.00149166
0.00140531
0.0013262
0.00125456
0.0011892
0.00112986
0.00107573
0.00102637
0.000981376
0.000940343
0.000903027
0.000868922
0.00083761
0.000809539
0.000783399
0.000760182
0.000738507
0.000718845
0.000701248
0.000684769
0.00067051
0.000656693
0.000644811
0.000633246
0.000623191
0.000613223
0.000604816
0.000596587
0.000589516
0.000582572
0.000576529
0.000570557
0.000565343
0.000560217
0.000555775
0.00055137
0.000547546
0.000543833
0.000540782
0.000538122
0.000536066
0.00053404
0.000531918
0.000529668
0.000527413
0.00052519
0.000523396
0.000521818
0.000520397
0.000519013
0.000517641
0.000516287
0.000514957
0.000513627
0.00051226
0.000510804
0.000509234
0.000507569
0.000505823
0.000504092
0.000502401
0.000501571
0.000501159
0.000501642
0.000502559
0.000499268
0.000498673
0.000498282
0.000495983
0.000494097
0.000492292
0.000490478
0.000488954
0.000487661
0.000486628
0.000485742
0.000484934
0.00048432
0.0004838
0.000483536
0.000483251
0.000482904
0.000482513
0.000482096
0.000481652
0.000481158
0.000480617
0.000480039
0.000479365
0.000478608
0.000477807
0.000476952
0.000476198
0.000475431
0.000474784
0.000474118
0.000473433
0.000472762
0.000472123
0.000471664
0.000471268
0.000471254
0.0004714
0.000471642
0.000472038
0.000472542
0.000472552
0.000472722
0.000472747
0.000472604
0.000472335
0.000471882
0.000471355
0.000470749
0.000470162
0.000469588
0.000469128
0.000468708
0.000468506
0.000468459
0.000468578
0.000468768
0.000469134
0.000469556
0.000469869
0.000470099
0.000470256
0.000470161
0.000469964
0.000469712
0.000469354
0.000468903
0.000468423
0.000467986
0.000467645
0.00046753
0.000467452
0.000467606
0.000467815
0.000468162
0.000468485
0.000468782
0.000469033
0.000469141
0.000469162
0.000469082
0.000468853
0.00046853
0.000468184
0.000467809
0.000467537
0.000467279
0.000467079
0.000467342
0.000467507
0.000467733
0.000468064
0.000468365
0.000468629
0.00046884
0.000468899
0.000468889
0.000468807
0.000468653
0.000468406
0.000468161
0.000467872
0.000467642
0.000467703
0.000467715
0.000467846
0.000468093
0.000468323
0.000468563
0.000468796
0.000469015
0.000469111
0.000469143
0.000469113
0.000469019
0.000468866
0.000468696
0.000468473
0.000468374
0.00839159
0.00837293
0.00840307
0.00844488
0.00844264
0.00845434
0.0084625
0.00847776
0.00848318
0.0084762
0.00843034
0.00844038
0.00846682
0.00854429
0.0086436
0.00870818
0.00879771
0.00887266
0.0089235
0.0089458
0.00893988
0.00890948
0.00885563
0.00877715
0.00867326
0.00854285
0.00838443
0.00820677
0.00799877
0.00776352
0.00750816
0.00723016
0.00693933
0.00663411
0.00632295
0.00600576
0.00568844
0.0053702
0.00505978
0.00475351
0.00445757
0.00417304
0.00390148
0.00364259
0.00340043
0.00316863
0.002957
0.00275311
0.00256864
0.00239245
0.0022337
0.0020825
0.00194642
0.00181844
0.00170313
0.00159493
0.00149662
0.00140707
0.00132538
0.00125125
0.00118358
0.00112202
0.00106581
0.00101454
0.000967788
0.000925173
0.000886339
0.000850822
0.000818355
0.00078917
0.000761947
0.000737586
0.000714967
0.000694419
0.000675974
0.000658745
0.000643659
0.000629144
0.00061657
0.000604336
0.000593607
0.000583041
0.000574039
0.000565255
0.000557622
0.000550143
0.000543581
0.000537104
0.000531402
0.000525808
0.000520902
0.000516043
0.000511764
0.000507607
0.000504097
0.000500983
0.00049844
0.000495922
0.000493327
0.000490625
0.000487939
0.000485314
0.000483114
0.000481123
0.000479285
0.000477491
0.000475716
0.000473973
0.000472266
0.00047057
0.000468856
0.000467072
0.000465202
0.00046326
0.000461258
0.000459286
0.000457378
0.000456247
0.000455522
0.000455546
0.000456022
0.000452711
0.000451704
0.000450985
0.000448685
0.000446621
0.000444714
0.000442836
0.000441212
0.000439799
0.000438625
0.00043759
0.000436627
0.000435841
0.000435137
0.000434664
0.00043417
0.000433625
0.000433039
0.00043244
0.000431822
0.000431168
0.00043048
0.000429763
0.000428983
0.000428125
0.000427205
0.00042625
0.000425378
0.000424501
0.000423727
0.000422943
0.000422149
0.000421369
0.000420627
0.000420042
0.000419525
0.00041935
0.000419308
0.000419358
0.000419549
0.000419807
0.000419652
0.000419654
0.000419501
0.00041924
0.000418846
0.00041832
0.000417727
0.000417065
0.00041644
0.000415822
0.000415327
0.000414856
0.000414606
0.000414489
0.00041452
0.000414623
0.000414881
0.000415166
0.000415369
0.000415501
0.000415563
0.000415403
0.000415171
0.000414884
0.000414514
0.000414068
0.000413598
0.000413177
0.000412846
0.000412724
0.00041263
0.000412741
0.00041291
0.000413192
0.00041346
0.000413698
0.000413897
0.000413967
0.000413962
0.00041387
0.000413651
0.000413352
0.000413042
0.000412711
0.000412474
0.000412261
0.000412101
0.000412344
0.000412502
0.000412712
0.000413009
0.000413282
0.000413521
0.000413712
0.000413768
0.000413766
0.000413703
0.000413581
0.000413376
0.000413186
0.000412956
0.000412788
0.000412876
0.000412919
0.000413068
0.000413314
0.000413546
0.000413783
0.000414014
0.000414232
0.000414342
0.000414396
0.000414397
0.000414344
0.000414243
0.000414129
0.000413974
0.000413956
0.00837837
0.00837191
0.00840067
0.00844485
0.00844381
0.00846154
0.00847548
0.00847842
0.00846479
0.00841482
0.0084176
0.00845285
0.0084887
0.00853093
0.0086534
0.0087954
0.00889504
0.00896222
0.00900643
0.00902489
0.00901747
0.00898776
0.00893528
0.00885835
0.00875516
0.00862545
0.00846777
0.00828446
0.00807458
0.00783948
0.00758489
0.00730771
0.00701695
0.00671039
0.00639727
0.00607743
0.00575765
0.00543628
0.0051224
0.00481268
0.00451181
0.00422215
0.00394551
0.00368114
0.00343384
0.00319678
0.00298044
0.00277195
0.0025834
0.00240325
0.00224092
0.00208622
0.00194717
0.00181635
0.00169866
0.00158873
0.00148956
0.00139884
0.0013155
0.00123984
0.0011708
0.00110802
0.00105071
0.000998473
0.000950896
0.000907609
0.000868188
0.000832187
0.000799248
0.00076962
0.000742082
0.000717471
0.000694598
0.000673919
0.000655306
0.000637999
0.000622793
0.000608196
0.000595577
0.000583291
0.000572488
0.000561861
0.000552852
0.000544072
0.00053646
0.000528989
0.000522451
0.000515979
0.000510291
0.00050471
0.00049982
0.000494967
0.00049069
0.000486529
0.000483012
0.000479895
0.000477334
0.000474789
0.000472168
0.000469445
0.000466734
0.000464096
0.000461878
0.000459855
0.000457982
0.000456152
0.000454342
0.000452565
0.000450821
0.00044909
0.000447342
0.000445528
0.000443633
0.000441669
0.000439653
0.000437661
0.000435756
0.000434578
0.000433815
0.000433678
0.000434056
0.00043101
0.000429761
0.000428889
0.000426742
0.000424618
0.000422678
0.000420823
0.000419201
0.000417768
0.000416567
0.000415504
0.000414517
0.000413697
0.000412958
0.000412433
0.00041189
0.000411298
0.000410668
0.000410025
0.000409363
0.000408667
0.000407939
0.000407185
0.000406372
0.000405491
0.000404553
0.000403587
0.000402695
0.000401805
0.00040101
0.000400205
0.000399393
0.000398595
0.000397838
0.000397229
0.000396687
0.000396469
0.000396371
0.000396364
0.000396485
0.000396675
0.000396485
0.000396416
0.00039621
0.00039591
0.000395479
0.000394929
0.000394311
0.000393641
0.000393001
0.000392371
0.000391863
0.000391375
0.000391104
0.000390955
0.000390947
0.000391011
0.000391219
0.00039146
0.000391614
0.000391703
0.000391717
0.000391539
0.000391297
0.000390994
0.000390614
0.000390165
0.000389695
0.000389277
0.000388945
0.000388815
0.000388706
0.000388797
0.000388949
0.000389203
0.00038944
0.00038965
0.000389825
0.000389878
0.00038986
0.000389759
0.000389543
0.000389249
0.000388948
0.00038863
0.000388399
0.000388203
0.00038805
0.000388272
0.000388435
0.000388635
0.000388914
0.000389175
0.000389401
0.000389581
0.000389634
0.000389634
0.000389575
0.000389463
0.000389273
0.000389099
0.000388892
0.00038874
0.000388833
0.00038889
0.000389042
0.000389285
0.000389519
0.000389754
0.000389984
0.0003902
0.000390313
0.000390375
0.000390387
0.00039035
0.000390267
0.000390173
0.000390045
0.000390054
0.00837952
0.00838715
0.00840533
0.00845205
0.00845222
0.0084718
0.00846809
0.00842468
0.00837921
0.00838393
0.00841745
0.00846618
0.00853625
0.00865377
0.0087524
0.00885528
0.00894162
0.00900646
0.00905028
0.00907074
0.00906577
0.00903944
0.00899066
0.00891683
0.00881724
0.00869168
0.00853896
0.00835945
0.0081532
0.0079212
0.00766796
0.00739162
0.00710116
0.00679332
0.00647916
0.00615679
0.00583567
0.00550991
0.00519205
0.0048782
0.00457191
0.00427711
0.00399532
0.00372503
0.00347259
0.00323
0.00300894
0.00279531
0.00260192
0.00241704
0.00225073
0.00209182
0.00194938
0.00181516
0.00169469
0.00158178
0.00148005
0.00138722
0.00130215
0.00122507
0.00115485
0.00109102
0.00103281
0.000979784
0.000931584
0.00088784
0.000848147
0.000811878
0.000778843
0.000749084
0.000721482
0.000696869
0.00067391
0.00065335
0.000634738
0.000617612
0.00060249
0.000587991
0.000575538
0.000563398
0.000552683
0.000542147
0.000533301
0.000524663
0.000517187
0.000509853
0.000503457
0.000497116
0.000491562
0.000486114
0.000481363
0.00047663
0.000472477
0.000468425
0.000465027
0.000462029
0.000459571
0.000457116
0.000454586
0.000451961
0.000449347
0.000446815
0.000444696
0.000442754
0.000440958
0.000439204
0.000437469
0.000435768
0.000434095
0.000432434
0.000430758
0.00042902
0.000427203
0.000425317
0.000423385
0.000421469
0.000419676
0.000418535
0.000417843
0.000417615
0.000417936
0.000415374
0.000413926
0.000412925
0.000411006
0.000408916
0.000407013
0.00040525
0.000403696
0.000402305
0.000401135
0.000400099
0.000399146
0.000398352
0.000397635
0.000397118
0.000396582
0.000396003
0.00039539
0.00039476
0.000394111
0.000393428
0.000392712
0.00039197
0.000391173
0.00039031
0.000389394
0.000388453
0.000387582
0.000386713
0.000385934
0.000385144
0.00038435
0.000383573
0.000382836
0.000382243
0.000381714
0.000381497
0.000381385
0.000381365
0.000381457
0.000381634
0.000381452
0.000381351
0.000381137
0.000380836
0.000380409
0.000379863
0.000379252
0.000378594
0.000377963
0.000377343
0.000376842
0.000376361
0.000376091
0.000375935
0.000375913
0.000375963
0.000376147
0.000376367
0.000376504
0.000376572
0.000376568
0.000376392
0.000376148
0.000375846
0.000375469
0.000375029
0.000374568
0.000374158
0.000373831
0.000373699
0.000373584
0.000373668
0.000373812
0.00037405
0.000374271
0.000374466
0.00037463
0.000374673
0.000374652
0.000374549
0.000374339
0.000374054
0.00037376
0.000373454
0.000373228
0.000373045
0.000372898
0.000373097
0.000373269
0.000373465
0.000373731
0.000373986
0.000374205
0.000374378
0.000374431
0.000374433
0.000374379
0.000374275
0.000374095
0.00037393
0.000373742
0.000373597
0.000373688
0.000373758
0.000373909
0.000374148
0.000374382
0.000374617
0.000374846
0.00037506
0.000375175
0.000375244
0.000375263
0.000375235
0.000375164
0.000375083
0.000374972
0.000374996
0.00837252
0.00839954
0.00841263
0.00845763
0.00845761
0.00846614
0.0084213
0.00837252
0.00835839
0.00839699
0.00845202
0.00853862
0.00862022
0.00873032
0.00882637
0.00892649
0.00900552
0.00906561
0.00910626
0.00912602
0.00912194
0.00909737
0.00905066
0.00897949
0.00888355
0.00876144
0.00861233
0.00843585
0.00823211
0.00800156
0.00774926
0.00747286
0.00718198
0.00687159
0.00655531
0.0062289
0.00590526
0.00557358
0.00525092
0.00493183
0.00461857
0.00431777
0.00403036
0.0037532
0.00349469
0.00324513
0.0030187
0.00279922
0.00260102
0.00241123
0.00224143
0.002078
0.00193245
0.00179516
0.00167273
0.00155711
0.00145388
0.00135962
0.00127359
0.00119575
0.00112494
0.00106079
0.00100226
0.000949138
0.000900964
0.000857488
0.000818194
0.000782261
0.000749852
0.000720468
0.000693346
0.000669221
0.000646597
0.000626619
0.0006084
0.000591867
0.000577181
0.00056313
0.000551175
0.000539491
0.000529156
0.000519003
0.000510591
0.000502365
0.000495283
0.00048832
0.000482291
0.000476282
0.000471063
0.000465929
0.000461487
0.000457034
0.000453178
0.000449398
0.000446281
0.000443545
0.000441316
0.000439069
0.000436749
0.000434342
0.000431948
0.000429645
0.000427732
0.000425968
0.000424347
0.000422762
0.000421194
0.00041966
0.000418143
0.000416633
0.0004151
0.000413504
0.000411832
0.000410093
0.00040831
0.000406541
0.000404931
0.000403889
0.000403323
0.000403055
0.000403337
0.000401312
0.000399738
0.00039865
0.000396974
0.000395018
0.000393209
0.000391579
0.000390137
0.00038883
0.000387732
0.000386761
0.000385882
0.000385154
0.000384498
0.000384022
0.000383527
0.000382998
0.000382437
0.000381858
0.000381255
0.00038062
0.000379949
0.000379252
0.000378501
0.000377685
0.000376821
0.000375933
0.000375107
0.000374285
0.000373544
0.00037279
0.00037204
0.000371305
0.000370613
0.000370059
0.00036957
0.000369378
0.000369274
0.000369262
0.000369346
0.000369531
0.000369386
0.000369277
0.000369075
0.00036879
0.000368389
0.00036787
0.000367287
0.000366656
0.000366052
0.000365457
0.000364978
0.00036452
0.000364268
0.000364118
0.000364099
0.000364151
0.000364326
0.000364536
0.000364676
0.000364736
0.000364732
0.000364568
0.000364337
0.000364041
0.000363675
0.000363254
0.000362814
0.000362421
0.000362107
0.000361979
0.00036187
0.000361956
0.000362097
0.000362327
0.000362541
0.000362731
0.000362891
0.000362928
0.000362909
0.000362813
0.000362615
0.000362341
0.000362059
0.000361769
0.00036155
0.000361383
0.000361247
0.000361424
0.000361607
0.000361805
0.00036206
0.000362313
0.000362529
0.0003627
0.000362755
0.000362761
0.000362713
0.000362618
0.000362452
0.000362295
0.000362127
0.000361989
0.000362075
0.000362158
0.00036231
0.000362545
0.000362781
0.000363017
0.000363245
0.00036346
0.000363577
0.000363652
0.000363678
0.000363659
0.000363599
0.000363529
0.000363431
0.000363469
0.00836364
0.00839748
0.00841033
0.00845857
0.00845046
0.00842514
0.00837518
0.00835003
0.00837456
0.0084323
0.00851435
0.00860104
0.0086988
0.00880771
0.00890075
0.00899187
0.00906512
0.00912172
0.00916014
0.00917966
0.00917683
0.00915378
0.0091094
0.00904121
0.00894936
0.00883068
0.00868525
0.00851103
0.00830972
0.0080799
0.00782804
0.00755079
0.00725924
0.006945
0.00662593
0.00629424
0.0059676
0.00562809
0.00529952
0.00497426
0.00465185
0.0043426
0.00404781
0.00376245
0.00349854
0.00324159
0.00300928
0.00278257
0.00257885
0.00238321
0.00220938
0.00204097
0.00189279
0.00175272
0.00162902
0.00151021
0.00140724
0.00131236
0.00122602
0.00114867
0.00107775
0.00101442
0.000956225
0.00090388
0.000856601
0.000814299
0.000776152
0.000741288
0.000710242
0.000681891
0.000655923
0.000632873
0.000611177
0.000592353
0.000575048
0.000559623
0.00054581
0.000532666
0.000521625
0.000510769
0.000501193
0.000491824
0.000484218
0.000476697
0.000470254
0.000463872
0.00045842
0.000452916
0.000448223
0.000443568
0.000439599
0.000435567
0.000432164
0.000428789
0.000426093
0.000423723
0.000421814
0.000419847
0.000417815
0.000415721
0.000413654
0.000411683
0.000410062
0.000408548
0.000407172
0.000405824
0.00040449
0.00040319
0.000401895
0.000400597
0.00039927
0.000397878
0.000396412
0.000394884
0.000393302
0.000391757
0.000390406
0.000389515
0.000389123
0.000388862
0.000389094
0.000387621
0.000386029
0.000384895
0.000383466
0.000381722
0.000380068
0.000378607
0.000377312
0.00037612
0.000375127
0.000374247
0.000373475
0.000372844
0.000372279
0.000371869
0.000371437
0.000370983
0.000370506
0.000370004
0.000369474
0.000368912
0.00036831
0.000367683
0.000367003
0.000366259
0.000365472
0.000364658
0.000363903
0.000363146
0.000362463
0.000361758
0.000361075
0.000360401
0.000359773
0.00035928
0.00035885
0.000358699
0.000358618
0.000358631
0.000358722
0.000358929
0.000358835
0.000358732
0.000358558
0.000358306
0.000357945
0.000357468
0.000356929
0.000356342
0.000355779
0.000355221
0.000354778
0.000354358
0.000354137
0.000354004
0.000354003
0.000354066
0.000354246
0.000354454
0.000354606
0.000354674
0.00035468
0.000354543
0.000354332
0.00035405
0.000353703
0.000353311
0.000352903
0.000352536
0.000352245
0.000352127
0.000352034
0.000352131
0.000352272
0.000352504
0.000352716
0.000352909
0.000353071
0.000353108
0.000353099
0.000353017
0.000352834
0.000352577
0.000352314
0.000352044
0.000351838
0.000351692
0.000351571
0.000351732
0.000351927
0.000352132
0.000352382
0.000352635
0.000352852
0.000353023
0.000353084
0.000353099
0.00035306
0.000352976
0.000352826
0.00035268
0.000352534
0.000352405
0.000352486
0.000352587
0.000352741
0.000352972
0.000353213
0.000353451
0.000353682
0.000353897
0.000354019
0.000354101
0.000354135
0.000354126
0.000354077
0.000354019
0.000353936
0.000353988
0.00834361
0.00838889
0.00840154
0.00844968
0.0084178
0.00838089
0.00834803
0.0083589
0.00840732
0.00848256
0.00856777
0.00867155
0.00877461
0.00887864
0.00896922
0.0090537
0.00912264
0.00917625
0.00921276
0.00923191
0.00923053
0.00920844
0.00916736
0.00910257
0.00901453
0.00889883
0.00875667
0.00858417
0.00838493
0.00815463
0.00790293
0.0076235
0.00733063
0.00701068
0.00668775
0.00634832
0.00601741
0.00566725
0.00533112
0.0049996
0.00466478
0.00434473
0.00404066
0.00374526
0.00347454
0.00320908
0.00296989
0.00273523
0.00252597
0.0023247
0.00214661
0.00197299
0.00182359
0.00168142
0.00155801
0.00143546
0.00133526
0.00124227
0.00115557
0.00108065
0.0010109
0.000949682
0.00089293
0.000842449
0.000796864
0.000756717
0.00072066
0.000687666
0.000658653
0.000631998
0.000607948
0.000586613
0.000566523
0.000549494
0.000533666
0.000519925
0.000507432
0.000495714
0.000485999
0.000476365
0.000467932
0.000459761
0.000453288
0.000446764
0.000441252
0.000435729
0.000431103
0.000426353
0.000422424
0.000418469
0.000415196
0.000411808
0.000409065
0.000406251
0.000404117
0.000402225
0.000400726
0.000399107
0.000397469
0.000395783
0.000394147
0.000392607
0.00039135
0.000390147
0.000389073
0.000388015
0.000386976
0.000385971
0.000384953
0.000383922
0.000382845
0.000381706
0.000380495
0.000379232
0.000377887
0.000376642
0.000375611
0.000374925
0.00037472
0.000374499
0.0003747
0.000373718
0.000372266
0.000371102
0.000369907
0.000368455
0.000367001
0.000365739
0.000364616
0.000363572
0.00036271
0.000361953
0.000361316
0.000360811
0.000360364
0.000360041
0.000359693
0.000359342
0.000358971
0.00035857
0.000358138
0.00035767
0.000357163
0.000356624
0.000356035
0.000355384
0.000354695
0.000353979
0.00035331
0.000352638
0.000352026
0.000351387
0.000350787
0.000350192
0.000349647
0.000349232
0.000348879
0.000348782
0.000348737
0.00034879
0.000348893
0.000349134
0.00034912
0.000349024
0.000348892
0.000348684
0.00034838
0.000347956
0.000347472
0.000346944
0.000346438
0.000345929
0.000345533
0.000345167
0.000344989
0.000344879
0.000344909
0.000345001
0.000345188
0.000345399
0.000345576
0.000345663
0.00034569
0.000345587
0.0003454
0.000345145
0.000344829
0.000344475
0.000344107
0.000343778
0.000343516
0.000343418
0.000343346
0.000343465
0.000343615
0.00034385
0.000344068
0.00034427
0.00034444
0.000344485
0.000344491
0.000344431
0.00034427
0.000344035
0.000343797
0.000343553
0.000343366
0.000343246
0.000343144
0.000343297
0.000343504
0.000343721
0.000343971
0.000344228
0.000344449
0.000344626
0.000344697
0.000344724
0.000344696
0.000344627
0.000344498
0.000344365
0.000344245
0.000344131
0.000344207
0.000344327
0.000344489
0.000344718
0.000344964
0.000345208
0.000345443
0.000345662
0.00034579
0.00034588
0.000345925
0.000345927
0.000345891
0.000345847
0.000345779
0.000345849
0.0083105
0.00837758
0.00837436
0.00840532
0.00837549
0.00834456
0.00834506
0.00838171
0.00844645
0.00852832
0.00862959
0.00873867
0.00884299
0.00894247
0.00903089
0.00911022
0.00917577
0.00922699
0.00926218
0.00928081
0.00928157
0.00926118
0.00922373
0.00916187
0.00907742
0.00896419
0.00882506
0.00865343
0.0084557
0.00822373
0.00797145
0.0076882
0.00739262
0.00706346
0.00673595
0.00638827
0.00605086
0.00568516
0.00533668
0.00499672
0.00464805
0.00431507
0.003999
0.00369131
0.00341148
0.00313678
0.00289003
0.00264727
0.00243443
0.00222965
0.00205006
0.00187035
0.00172342
0.00158112
0.00146064
0.00133696
0.00124024
0.00115126
0.00106675
0.000995302
0.000928883
0.00087062
0.000816679
0.000769036
0.000726109
0.000688919
0.000655914
0.00062552
0.000599209
0.000574692
0.00055313
0.000533766
0.00051571
0.000500796
0.000486706
0.00047499
0.000463955
0.000454014
0.000445743
0.000437555
0.000430395
0.000423608
0.000418311
0.000412983
0.000408585
0.000404129
0.000400551
0.000396723
0.000393803
0.000390674
0.000388299
0.000385689
0.000383813
0.000381699
0.000380315
0.000378957
0.000377993
0.000376779
0.000375735
0.000374554
0.000373475
0.00037243
0.000371596
0.000370756
0.000370041
0.000369321
0.000368634
0.000367968
0.000367266
0.000366535
0.000365761
0.000364901
0.000363992
0.00036302
0.000361959
0.000361083
0.000360431
0.000359995
0.000359981
0.000359789
0.000359991
0.000359406
0.000358233
0.000357111
0.00035611
0.000354969
0.000353806
0.000352749
0.000351831
0.000350944
0.000350249
0.000349624
0.000349155
0.000348789
0.000348479
0.000348259
0.000348001
0.000347782
0.000347535
0.00034725
0.000346933
0.000346577
0.000346182
0.000345745
0.000345263
0.00034472
0.000344149
0.000343549
0.000342989
0.00034241
0.000341894
0.000341323
0.000340831
0.000340322
0.000339889
0.000339556
0.000339305
0.000339268
0.000339266
0.000339376
0.00033952
0.000339777
0.000339838
0.00033979
0.0003397
0.000339547
0.00033931
0.000338949
0.000338533
0.000338077
0.000337641
0.000337195
0.000336856
0.000336555
0.000336425
0.000336348
0.000336432
0.000336545
0.00033675
0.000336978
0.000337185
0.000337301
0.000337349
0.000337286
0.000337135
0.000336919
0.000336642
0.000336336
0.000336017
0.000335734
0.000335515
0.000335434
0.000335399
0.000335538
0.000335708
0.000335948
0.000336182
0.000336397
0.000336579
0.000336642
0.000336668
0.000336631
0.000336502
0.000336295
0.000336087
0.000335874
0.000335715
0.000335628
0.000335546
0.000335699
0.000335921
0.000336152
0.000336408
0.000336672
0.000336901
0.000337087
0.000337172
0.000337215
0.000337204
0.000337152
0.000337047
0.000336932
0.000336842
0.000336746
0.000336821
0.000336963
0.000337134
0.000337364
0.00033762
0.000337872
0.000338112
0.000338337
0.000338473
0.000338576
0.000338633
0.000338648
0.000338628
0.000338599
0.000338549
0.000338639
0.00827181
0.00835885
0.00833363
0.00835311
0.00833191
0.00832809
0.00835413
0.00840811
0.0084825
0.00857943
0.0086885
0.00879928
0.00890284
0.00899882
0.00908467
0.00916044
0.00922344
0.00927273
0.00930711
0.00932623
0.00932969
0.00931089
0.0092767
0.00921757
0.00913647
0.00902499
0.0088885
0.00871632
0.00851967
0.008284
0.00802862
0.00773963
0.00744318
0.00710277
0.00676496
0.00640282
0.00605497
0.00567195
0.00530672
0.00495115
0.00458503
0.00423841
0.00390944
0.00359287
0.00330338
0.00302062
0.00276755
0.00251576
0.00230406
0.00209796
0.00192265
0.001739
0.00159753
0.00145888
0.00134491
0.00122526
0.00112993
0.00104743
0.000968586
0.000901856
0.000840014
0.000786138
0.000736237
0.000692253
0.000652934
0.000619319
0.000589912
0.000562675
0.000539289
0.000517241
0.00049856
0.000481041
0.000465467
0.000452449
0.000440144
0.0004303
0.000420589
0.000412326
0.000405346
0.000398258
0.00039251
0.000386794
0.000382763
0.000378189
0.000375076
0.000371368
0.000368944
0.000365808
0.000363969
0.000361535
0.000360058
0.000358129
0.000357157
0.000355716
0.000355165
0.000354405
0.000353975
0.000353239
0.000352848
0.000352224
0.000351791
0.000351311
0.000350948
0.00035051
0.00035021
0.00034989
0.000349608
0.00034932
0.000348962
0.000348555
0.000348105
0.000347559
0.000346973
0.000346331
0.000345583
0.000345144
0.000344896
0.000344735
0.000344836
0.000344793
0.000345005
0.000344687
0.000343836
0.00034285
0.000342064
0.000341232
0.000340411
0.000339576
0.00033888
0.000338165
0.000337663
0.000337171
0.000336902
0.00033667
0.000336523
0.000336409
0.000336254
0.000336177
0.000336064
0.000335909
0.000335722
0.000335491
0.00033522
0.000334897
0.000334535
0.000334115
0.000333677
0.000333204
0.000332769
0.000332295
0.000331885
0.000331395
0.000331016
0.000330611
0.0003303
0.000330065
0.000329934
0.000329961
0.000330017
0.00033018
0.00033037
0.000330665
0.000330788
0.000330802
0.000330774
0.00033068
0.000330508
0.000330231
0.000329897
0.000329525
0.000329165
0.000328794
0.000328521
0.000328298
0.000328219
0.000328191
0.000328325
0.000328474
0.000328698
0.00032895
0.000329188
0.000329338
0.000329415
0.000329403
0.000329307
0.000329128
0.000328897
0.000328648
0.000328387
0.000328158
0.000327981
0.000327938
0.000327939
0.000328103
0.000328298
0.00032855
0.000328802
0.000329035
0.000329235
0.000329322
0.000329373
0.000329364
0.000329271
0.000329102
0.000328928
0.000328752
0.000328626
0.00032858
0.00032852
0.00032868
0.000328917
0.000329167
0.000329434
0.000329707
0.000329947
0.000330146
0.000330249
0.000330312
0.000330321
0.000330291
0.000330213
0.000330122
0.000330065
0.000329991
0.000330069
0.000330235
0.000330418
0.000330653
0.000330918
0.000331181
0.00033143
0.000331663
0.00033181
0.000331926
0.000331998
0.000332029
0.000332027
0.000332017
0.000331987
0.0003321
0.00823283
0.00832526
0.00829412
0.00830506
0.00830221
0.00832306
0.00836827
0.00843463
0.00851866
0.00862894
0.0087412
0.00885203
0.00895373
0.00904699
0.0091305
0.00920356
0.00926463
0.00931274
0.00934734
0.00936761
0.00937309
0.00935633
0.00932496
0.00926813
0.0091901
0.0090791
0.00894445
0.00876992
0.00857179
0.00833219
0.00807577
0.00777554
0.00747208
0.00711492
0.00676172
0.00637876
0.00601374
0.00560936
0.00522652
0.00485262
0.00446682
0.00411123
0.00376806
0.00344703
0.00314894
0.00285634
0.00260762
0.00234839
0.00214401
0.00194057
0.00177481
0.00159584
0.00146094
0.00132803
0.00122328
0.00111448
0.00101839
0.000943853
0.000874508
0.000814195
0.000758479
0.000709935
0.000664802
0.000624762
0.000589562
0.000559581
0.000533554
0.000509934
0.00048904
0.000469546
0.000453198
0.000437303
0.000423728
0.000412237
0.000401404
0.000392853
0.000384113
0.000376949
0.000371012
0.00036418
0.00035992
0.000354847
0.000351506
0.000347147
0.000345034
0.000341627
0.000340002
0.00033725
0.000336093
0.000334151
0.000333149
0.000331782
0.000331278
0.000330413
0.000330422
0.000330079
0.000329968
0.00032962
0.000329719
0.000329607
0.000329751
0.000329823
0.000329903
0.000329876
0.000329995
0.000330084
0.000330207
0.000330296
0.000330303
0.000330247
0.000330126
0.000329928
0.000329677
0.00032936
0.000328979
0.000329001
0.00032914
0.000329277
0.000329468
0.000329544
0.000329763
0.000329717
0.000329171
0.000328398
0.000327855
0.00032736
0.000326832
0.000326267
0.000325786
0.000325284
0.000324946
0.000324627
0.000324545
0.000324462
0.000324477
0.000324476
0.000324439
0.000324505
0.000324533
0.00032452
0.000324466
0.00032437
0.00032423
0.000324036
0.000323796
0.000323512
0.000323213
0.000322883
0.000322571
0.000322224
0.000321914
0.00032153
0.000321259
0.000320982
0.000320791
0.000320667
0.00032066
0.000320757
0.000320883
0.000321105
0.000321351
0.000321671
0.000321872
0.000321956
0.00032199
0.000321962
0.000321875
0.000321686
0.000321438
0.000321157
0.000320884
0.0003206
0.0003204
0.000320249
0.000320246
0.00032027
0.000320449
0.000320646
0.000320896
0.000321173
0.000321446
0.000321633
0.000321751
0.000321795
0.000321748
0.000321626
0.000321449
0.000321261
0.000321062
0.000320894
0.000320772
0.000320772
0.000320808
0.000321004
0.000321228
0.000321496
0.000321769
0.000322025
0.000322247
0.000322363
0.000322444
0.000322467
0.000322413
0.00032229
0.000322155
0.00032202
0.000321939
0.000321932
0.000321902
0.000322072
0.000322326
0.000322597
0.000322879
0.000323163
0.000323418
0.000323634
0.000323759
0.000323845
0.000323878
0.000323873
0.000323826
0.000323763
0.000323742
0.000323695
0.000323779
0.00032397
0.000324169
0.000324411
0.000324688
0.000324964
0.000325224
0.000325466
0.000325628
0.00032576
0.000325849
0.000325898
0.000325917
0.000325928
0.00032592
0.00032606
0.0081989
0.00828974
0.00825836
0.00826571
0.00828222
0.0083223
0.00838166
0.00845872
0.00855765
0.00867231
0.00878709
0.008896
0.00899574
0.0090867
0.00916812
0.00923919
0.00929906
0.00934695
0.0093825
0.00940331
0.00941049
0.00939635
0.00936734
0.00931192
0.0092364
0.00912373
0.00898866
0.00881173
0.00861476
0.0083652
0.0081021
0.00778239
0.00746298
0.00708211
0.00670883
0.00630253
0.00591559
0.00548688
0.00508944
0.00469685
0.00428265
0.00393748
0.00358755
0.00325381
0.00295892
0.00265872
0.00242252
0.0021662
0.00197147
0.00177497
0.00162344
0.00145916
0.00133295
0.0012085
0.00111261
0.00101764
0.000926273
0.000859935
0.000798387
0.000744957
0.000695273
0.000651164
0.000610287
0.000575101
0.000543688
0.00051604
0.000493256
0.000471867
0.00045359
0.000435689
0.000421069
0.000406549
0.000393886
0.000383589
0.000373291
0.000365769
0.000357482
0.000351454
0.000345118
0.000338341
0.000335261
0.000330414
0.000327228
0.000323011
0.000321117
0.000317874
0.000316378
0.000313865
0.000312755
0.000311069
0.000310153
0.000308958
0.00030874
0.000308079
0.00030824
0.00030804
0.000308021
0.000307777
0.000308128
0.000308294
0.00030882
0.000309255
0.000309651