/*--------------------------------*- C++ -*----------------------------------*\
| =========                 |                                                 |
| \\      /  F ield         | OpenFOAM: The Open Source CFD Toolbox           |
|  \\    /   O peration     | Version:  2312                                  |
|   \\  /    A nd           | Website:  www.openfoam.com                      |
|    \\/     M anipulation  |                                                 |
\*---------------------------------------------------------------------------*/
FoamFile
{
    version     2.0;
    format      ascii;
    arch        "LSB;label=32;scalar=64";
    class       volVectorField;
    location    "0.004";
    object      U;
}
// * * * * * * * * * * * * * * * * * * * * * * * * * * * * * * * * * * * * * //

dimensions      [0 1 -1 0 0 0 0];

internalField   nonuniform List<vector> 
48128
(
(12.2795 -4.82536 0)
(17.2655 -2.60649 0)
(20.3862 -0.337673 0)
(19.8539 0.571386 0)
(18.6025 0.700635 0)
(17.2238 0.740671 0)
(15.5958 0.703885 0)
(13.7905 0.717314 0)
(11.3048 1.19166 0)
(6.31619 3.12159 0)
(-3.15246 5.37918 0)
(-18.934 7.75061 0)
(-42.6227 10.2753 0)
(-68.8347 9.9743 0)
(-91.2213 7.54323 0)
(-109.452 4.6805 0)
(-124.08 3.66446 0)
(-135.84 3.01172 0)
(-145.662 2.61695 0)
(-153.999 2.33563 0)
(-161.057 2.14214 0)
(-167.265 2.00774 0)
(-172.785 1.8954 0)
(-177.591 1.80134 0)
(-181.696 1.7126 0)
(-185.1 1.63603 0)
(-187.783 1.64515 0)
(-189.649 1.81725 0)
(-190.719 1.66727 0)
(-191.143 1.51141 0)
(-190.836 1.15296 0)
(-189.582 0.915897 0)
(-187.56 0.681044 0)
(-184.76 0.40152 0)
(-181.237 0.214982 0)
(-177.068 -0.0378442 0)
(-172.236 -0.233384 0)
(-166.619 -0.661511 0)
(-160.247 -0.920983 0)
(-153.419 -1.22929 0)
(-145.759 -1.62483 0)
(-137.504 -1.88649 0)
(-128.85 -2.14264 0)
(-119.707 -2.47097 0)
(-110.099 -2.68329 0)
(-100.282 -2.94969 0)
(-90.0939 -3.08817 0)
(-79.8733 -3.36561 0)
(-69.1894 -3.56117 0)
(-58.3752 -3.81662 0)
(-47.4653 -3.8482 0)
(-36.5594 -4.10236 0)
(-25.4313 -4.21559 0)
(-14.1585 -4.45562 0)
(-2.94486 -4.4339 0)
(8.14934 -4.24524 0)
(19.4043 -3.70285 0)
(30.6305 -3.26066 0)
(41.8264 -3.28803 0)
(52.8596 -3.26153 0)
(63.7035 -3.23868 0)
(74.2868 -3.17761 0)
(84.5852 -3.11143 0)
(94.6312 -3.04934 0)
(104.458 -2.99035 0)
(114.127 -2.9488 0)
(123.591 -2.87948 0)
(132.821 -2.80783 0)
(141.868 -2.75741 0)
(150.488 -2.71538 0)
(158.954 -2.63221 0)
(167.014 -2.50703 0)
(174.852 -2.43891 0)
(182.535 -2.33804 0)
(189.901 -2.25515 0)
(197.225 -2.17041 0)
(204.099 -2.05529 0)
(210.892 -1.97938 0)
(217.296 -1.87626 0)
(223.555 -1.77945 0)
(229.371 -1.66742 0)
(235.034 -1.59503 0)
(240.431 -1.51184 0)
(245.731 -1.44243 0)
(250.738 -1.35653 0)
(255.569 -1.29367 0)
(260.156 -1.21184 0)
(264.531 -1.15098 0)
(268.68 -1.07796 0)
(272.677 -1.02889 0)
(276.499 -0.962584 0)
(280.134 -0.912785 0)
(283.595 -0.855796 0)
(286.943 -0.814568 0)
(290.206 -0.773361 0)
(293.44 -0.741595 0)
(296.6 -0.696062 0)
(299.576 -0.645878 0)
(302.305 -0.595808 0)
(304.784 -0.550491 0)
(307.06 -0.51269 0)
(309.267 -0.490028 0)
(311.458 -0.465163 0)
(313.58 -0.438578 0)
(315.608 -0.411089 0)
(317.529 -0.383198 0)
(319.323 -0.357474 0)
(321.008 -0.333869 0)
(322.6 -0.31331 0)
(324.106 -0.292128 0)
(325.502 -0.274821 0)
(326.801 -0.255363 0)
(327.971 -0.239461 0)
(329.05 -0.22385 0)
(330.041 -0.212511 0)
(330.964 -0.198575 0)
(331.95 -0.206227 0)
(333.012 -0.189286 0)
(334.139 -0.199562 0)
(335.46 -0.169853 0)
(337.385 -0.179018 0)
(337.373 -0.119803 0)
(337.885 -0.0928457 0)
(338.996 -0.128519 0)
(338.967 -0.0931743 0)
(339.197 -0.0915023 0)
(339.518 -0.102303 0)
(339.894 -0.107912 0)
(340.319 -0.105028 0)
(340.788 -0.102627 0)
(341.288 -0.0977765 0)
(341.798 -0.0928465 0)
(342.313 -0.0878346 0)
(342.829 -0.0822045 0)
(343.352 -0.0763383 0)
(343.878 -0.069871 0)
(344.398 -0.062222 0)
(344.823 -0.0544075 0)
(345.21 -0.0485711 0)
(345.549 -0.0449961 0)
(345.88 -0.0411618 0)
(346.151 -0.0377121 0)
(346.403 -0.0346182 0)
(346.605 -0.0312213 0)
(346.809 -0.0320122 0)
(346.918 -0.0226465 0)
(347 -0.0201396 0)
(347.036 -0.0141585 0)
(347.076 -0.0114846 0)
(347.107 -0.00971527 0)
(347.146 -0.00694778 0)
(347.154 -0.00348754 0)
(347.144 -0.00204319 0)
(347.122 -0.000975908 0)
(347.123 -0.00230847 0)
(347.138 -0.000169907 0)
(347.19 -0.0018354 0)
(347.274 0.00278963 0)
(347.399 0.00450487 0)
(347.535 0.00605234 0)
(347.694 0.00969491 0)
(347.862 0.0157899 0)
(347.852 0.0150721 0)
(347.868 0.01888 0)
(347.846 0.0205557 0)
(347.761 0.020525 0)
(347.634 0.0235296 0)
(347.45 0.0224566 0)
(347.247 0.0232963 0)
(347.021 0.0199902 0)
(346.819 0.0179269 0)
(346.62 0.0151846 0)
(346.476 0.0109365 0)
(346.325 0.0130049 0)
(346.278 0.00365391 0)
(346.226 0.0115126 0)
(346.241 0.00757269 0)
(346.261 0.00892305 0)
(346.316 0.011823 0)
(346.374 0.0131178 0)
(346.36 0.0180455 0)
(346.319 0.0174048 0)
(346.246 0.0249669 0)
(346.108 0.0177011 0)
(345.931 0.0207636 0)
(345.739 0.0197435 0)
(345.521 0.0190007 0)
(345.284 0.0185516 0)
(345.043 0.0163424 0)
(344.834 0.0135574 0)
(344.662 0.011355 0)
(344.567 0.00837898 0)
(344.443 0.0142569 0)
(344.439 0.00618068 0)
(344.419 0.00961117 0)
(344.439 0.00979433 0)
(344.422 0.0132578 0)
(344.381 0.0147437 0)
(344.306 0.0174025 0)
(344.2 0.0170787 0)
(344.061 0.0181243 0)
(343.889 0.0172594 0)
(343.675 0.017037 0)
(343.437 0.0159604 0)
(343.207 0.0142456 0)
(342.982 0.0135294 0)
(342.788 0.0102283 0)
(342.625 0.00916516 0)
(342.423 0.0100239 0)
(342.431 0.00656742 0)
(342.396 0.0076448 0)
(342.343 0.010695 0)
(342.32 0.00938093 0)
(342.27 0.0115069 0)
(342.193 0.0131762 0)
(342.084 0.0150253 0)
(341.944 0.0146414 0)
(341.774 0.015444 0)
(341.584 0.0141863 0)
(341.376 0.0144899 0)
(341.141 0.0127184 0)
(340.931 0.0120085 0)
(340.712 0.0110779 0)
(340.518 0.00844815 0)
(340.421 0.00739268 0)
(340.31 0.00745183 0)
(340.194 0.00852824 0)
(340.149 0.00740393 0)
(340.081 0.00905875 0)
(339.998 0.0103766 0)
(339.9 0.0113671 0)
(339.778 0.0130682 0)
(339.633 0.0129821 0)
(339.464 0.0132455 0)
(339.276 0.0129438 0)
(339.073 0.0117553 0)
(338.858 0.0116297 0)
(338.646 0.0103376 0)
(338.444 0.00852141 0)
(338.194 0.00898542 0)
(13.3136 -13.3341 0)
(14.6852 -3.94032 0)
(18.7479 -0.726435 0)
(18.7087 0.85245 0)
(17.3667 1.29701 0)
(14.8759 1.81281 0)
(10.4457 2.30246 0)
(3.23933 2.95343 0)
(-8.13435 4.39437 0)
(-25.594 7.99671 0)
(-51.051 11.275 0)
(-78.5763 15.6447 0)
(-101.45 18.1756 0)
(-119.336 15.1203 0)
(-133.353 11.7699 0)
(-143.793 10.5935 0)
(-152.281 8.49229 0)
(-159.731 7.07697 0)
(-165.952 6.06266 0)
(-171.093 5.32969 0)
(-175.229 4.75966 0)
(-178.638 4.34922 0)
(-181.498 3.9794 0)
(-183.74 3.64815 0)
(-185.362 3.32874 0)
(-186.356 3.02297 0)
(-186.732 2.76736 0)
(-186.541 2.50517 0)
(-185.583 2.17694 0)
(-183.719 1.87105 0)
(-181.125 1.46691 0)
(-177.821 1.1035 0)
(-173.71 0.753897 0)
(-168.876 0.345075 0)
(-163.308 0.0529494 0)
(-157.154 -0.298278 0)
(-150.367 -0.569718 0)
(-142.896 -1.07956 0)
(-134.723 -1.40474 0)
(-126.103 -1.76155 0)
(-116.814 -2.3048 0)
(-106.978 -2.69367 0)
(-96.7617 -3.04354 0)
(-86.1802 -3.502 0)
(-75.271 -3.80624 0)
(-64.1849 -4.20684 0)
(-52.7438 -4.41603 0)
(-41.2691 -4.8155 0)
(-29.3782 -5.09607 0)
(-17.4107 -5.47138 0)
(-5.32502 -5.52922 0)
(6.70292 -5.88297 0)
(18.9012 -6.04219 0)
(31.1379 -6.37403 0)
(43.2667 -6.33944 0)
(55.204 -6.56375 0)
(67.2546 -6.9021 0)
(79.2045 -7.04224 0)
(91.0434 -7.13959 0)
(102.65 -7.09559 0)
(114.014 -7.06128 0)
(125.069 -6.94979 0)
(135.801 -6.83617 0)
(146.247 -6.73692 0)
(156.446 -6.64469 0)
(166.451 -6.57435 0)
(176.187 -6.43722 0)
(185.656 -6.30374 0)
(194.928 -6.11679 0)
(203.81 -5.8878 0)
(212.515 -5.72997 0)
(220.806 -5.47423 0)
(228.834 -5.35181 0)
(236.676 -5.14501 0)
(244.173 -4.98068 0)
(251.6 -4.80149 0)
(258.578 -4.56767 0)
(265.44 -4.41338 0)
(271.938 -4.18907 0)
(278.251 -3.9874 0)
(284.16 -3.76507 0)
(289.886 -3.63634 0)
(295.384 -3.45429 0)
(300.727 -3.30861 0)
(305.827 -3.11719 0)
(310.705 -2.98186 0)
(315.391 -2.79911 0)
(319.828 -2.6702 0)
(324.087 -2.51343 0)
(328.152 -2.40566 0)
(332.098 -2.25871 0)
(335.822 -2.15218 0)
(339.424 -2.02846 0)
(342.876 -1.93889 0)
(346.272 -1.84256 0)
(349.592 -1.75887 0)
(352.867 -1.64961 0)
(355.966 -1.54487 0)
(358.857 -1.44686 0)
(361.526 -1.35935 0)
(364.02 -1.28537 0)
(366.431 -1.22999 0)
(368.816 -1.16433 0)
(371.129 -1.10134 0)
(373.355 -1.03948 0)
(375.481 -0.980107 0)
(377.494 -0.926106 0)
(379.406 -0.875209 0)
(381.231 -0.828736 0)
(382.974 -0.783589 0)
(384.615 -0.745595 0)
(386.167 -0.705615 0)
(387.601 -0.673006 0)
(388.944 -0.641124 0)
(390.21 -0.612617 0)
(391.393 -0.587272 0)
(392.615 -0.575521 0)
(393.887 -0.529474 0)
(395.208 -0.523357 0)
(396.665 -0.43551 0)
(398.652 -0.596407 0)
(399.052 -0.330573 0)
(399.856 -0.275697 0)
(401.119 -0.435379 0)
(401.488 -0.333077 0)
(402.022 -0.324861 0)
(402.614 -0.352271 0)
(403.234 -0.350994 0)
(403.875 -0.327572 0)
(404.538 -0.312177 0)
(405.218 -0.29552 0)
(405.897 -0.283335 0)
(406.577 -0.268129 0)
(407.249 -0.251314 0)
(407.927 -0.233971 0)
(408.604 -0.21729 0)
(409.274 -0.20252 0)
(409.871 -0.190635 0)
(410.432 -0.177956 0)
(410.953 -0.168261 0)
(411.457 -0.158374 0)
(411.914 -0.150476 0)
(412.339 -0.142221 0)
(412.729 -0.136253 0)
(413.094 -0.133649 0)
(413.405 -0.121956 0)
(413.692 -0.116936 0)
(413.95 -0.106631 0)
(414.213 -0.0994741 0)
(414.469 -0.0943303 0)
(414.73 -0.0849264 0)
(414.971 -0.0801041 0)
(415.192 -0.0759132 0)
(415.401 -0.071005 0)
(415.617 -0.0689977 0)
(415.844 -0.0587275 0)
(416.096 -0.0537073 0)
(416.37 -0.0386388 0)
(416.671 -0.0291277 0)
(416.981 -0.0250394 0)
(417.307 -0.0148146 0)
(417.653 -0.0200315 0)
(417.844 -0.00358873 0)
(418.051 0.000702874 0)
(418.269 -0.00153173 0)
(418.374 -0.00368149 0)
(418.49 -0.00196776 0)
(418.51 -0.00249702 0)
(418.532 -0.00401712 0)
(418.524 -0.00449405 0)
(418.523 -0.00591824 0)
(418.528 -0.0074002 0)
(418.544 -0.00757968 0)
(418.576 -0.0044447 0)
(418.639 -0.00734501 0)
(418.715 0.00687559 0)
(418.817 0.00216616 0)
(418.931 0.00801612 0)
(419.072 0.0140448 0)
(419.213 0.013916 0)
(419.318 0.02517 0)
(419.378 0.0231953 0)
(419.441 0.0252188 0)
(419.419 0.0167575 0)
(419.378 0.0217512 0)
(419.319 0.0203014 0)
(419.237 0.0177311 0)
(419.133 0.0157312 0)
(419.022 0.0136968 0)
(418.92 0.0115953 0)
(418.841 0.0105877 0)
(418.807 0.0105291 0)
(418.763 0.0184579 0)
(418.782 0.0114705 0)
(418.798 0.0191015 0)
(418.84 0.0191494 0)
(418.861 0.0264793 0)
(418.858 0.0286013 0)
(418.835 0.0307361 0)
(418.789 0.0295969 0)
(418.719 0.0300741 0)
(418.622 0.0255189 0)
(418.49 0.0255746 0)
(418.336 0.023901 0)
(418.179 0.0216903 0)
(418.018 0.0201197 0)
(417.875 0.0190647 0)
(417.745 0.0140641 0)
(417.577 0.0291944 0)
(417.569 0.0142284 0)
(417.533 0.0183508 0)
(417.479 0.0270962 0)
(417.452 0.0259791 0)
(417.406 0.0293436 0)
(417.342 0.0317456 0)
(417.255 0.0333424 0)
(417.145 0.0311708 0)
(417.012 0.0309198 0)
(416.86 0.0282757 0)
(416.693 0.0275167 0)
(416.504 0.0259363 0)
(416.32 0.0237299 0)
(416.132 0.0223937 0)
(415.944 0.0259354 0)
(415.833 0.0193919 0)
(415.711 0.0213978 0)
(415.581 0.0265783 0)
(415.509 0.0244408 0)
(415.422 0.0272856 0)
(415.324 0.029486 0)
(415.218 0.0306723 0)
(415.095 0.0328753 0)
(414.956 0.0310665 0)
(414.798 0.0305165 0)
(414.624 0.0292063 0)
(414.436 0.0271381 0)
(414.236 0.0261076 0)
(414.034 0.0237663 0)
(413.833 0.0224815 0)
(413.563 0.0255846 0)
(9.39109 -20.4132 0)
(10.7337 -6.59021 0)
(15.1263 -1.73419 0)
(14.7624 1.49525 0)
(11.9651 2.78293 0)
(7.05444 4.68821 0)
(-1.68123 7.26942 0)
(-15.8778 11.058 0)
(-37.8088 16.4919 0)
(-64.6599 22.4164 0)
(-87.5843 28.6371 0)
(-105.583 28.947 0)
(-118.188 27.6695 0)
(-126.825 23.7636 0)
(-133.821 19.1588 0)
(-141.771 15.8962 0)
(-148.264 12.9918 0)
(-153.529 10.7229 0)
(-157.966 9.08078 0)
(-161.662 7.91562 0)
(-164.541 6.96583 0)
(-166.946 6.29068 0)
(-168.843 5.67728 0)
(-170.2 5.12731 0)
(-171 4.63284 0)
(-171.243 4.16045 0)
(-170.787 3.62545 0)
(-169.606 3.01762 0)
(-167.751 2.45006 0)
(-165.085 1.81845 0)
(-161.696 1.17774 0)
(-157.604 0.561782 0)
(-152.704 -0.0989867 0)
(-147.087 -0.840164 0)
(-140.695 -1.46035 0)
(-133.687 -2.15272 0)
(-126.011 -2.78655 0)
(-117.69 -3.70626 0)
(-108.638 -4.38629 0)
(-99.1429 -5.10261 0)
(-89.0356 -6.05669 0)
(-78.3366 -6.79252 0)
(-67.2371 -7.42857 0)
(-55.8036 -8.20196 0)
(-44.0557 -8.72901 0)
(-32.1634 -9.43778 0)
(-19.9107 -9.83613 0)
(-7.63725 -10.5494 0)
(5.03001 -11.0494 0)
(17.7406 -11.7139 0)
(30.5708 -11.839 0)
(43.2908 -12.4414 0)
(56.1583 -12.7091 0)
(68.9748 -13.2518 0)
(81.6073 -13.1683 0)
(94.0484 -13.4091 0)
(106.533 -13.6579 0)
(118.788 -13.6395 0)
(130.876 -13.7397 0)
(142.669 -13.6135 0)
(154.183 -13.5166 0)
(165.331 -13.2739 0)
(176.119 -13.0337 0)
(186.581 -12.8118 0)
(196.765 -12.6053 0)
(206.721 -12.4374 0)
(216.345 -12.1348 0)
(225.665 -11.8658 0)
(234.734 -11.5313 0)
(243.328 -11.1343 0)
(251.722 -10.8355 0)
(259.665 -10.3626 0)
(267.337 -10.0934 0)
(274.806 -9.7011 0)
(281.927 -9.38123 0)
(288.961 -9.04074 0)
(295.554 -8.61751 0)
(302.003 -8.31183 0)
(308.137 -7.90931 0)
(314.044 -7.54828 0)
(319.585 -7.14499 0)
(324.934 -6.8887 0)
(330.1 -6.54995 0)
(335.073 -6.2789 0)
(339.839 -5.93441 0)
(344.353 -5.68086 0)
(348.717 -5.35707 0)
(352.819 -5.11829 0)
(356.776 -4.83616 0)
(360.542 -4.63076 0)
(364.211 -4.3714 0)
(367.663 -4.17539 0)
(371.014 -3.95272 0)
(374.22 -3.77944 0)
(377.384 -3.59266 0)
(380.461 -3.42723 0)
(383.506 -3.2335 0)
(386.373 -3.05337 0)
(389.06 -2.88686 0)
(391.553 -2.73853 0)
(393.894 -2.60373 0)
(396.163 -2.48946 0)
(398.409 -2.36193 0)
(400.582 -2.24245 0)
(402.679 -2.12793 0)
(404.683 -2.0199 0)
(406.588 -1.9217 0)
(408.403 -1.8281 0)
(410.143 -1.74132 0)
(411.806 -1.65748 0)
(413.38 -1.58621 0)
(414.877 -1.51356 0)
(416.264 -1.45383 0)
(417.577 -1.39414 0)
(418.815 -1.33955 0)
(419.983 -1.28785 0)
(421.184 -1.24449 0)
(422.422 -1.14575 0)
(423.713 -1.12558 0)
(425.103 -0.935555 0)
(426.929 -1.2113 0)
(427.412 -0.865499 0)
(428.248 -0.720589 0)
(429.406 -0.933421 0)
(429.885 -0.838439 0)
(430.484 -0.80008 0)
(431.124 -0.810382 0)
(431.783 -0.796304 0)
(432.454 -0.749887 0)
(433.137 -0.711717 0)
(433.832 -0.671772 0)
(434.52 -0.641655 0)
(435.208 -0.608708 0)
(435.888 -0.573862 0)
(436.57 -0.538238 0)
(437.253 -0.503422 0)
(437.924 -0.474648 0)
(438.534 -0.455162 0)
(439.114 -0.432451 0)
(439.659 -0.412753 0)
(440.186 -0.392971 0)
(440.674 -0.377455 0)
(441.131 -0.361063 0)
(441.557 -0.349261 0)
(441.96 -0.338739 0)
(442.315 -0.325155 0)
(442.645 -0.314636 0)
(442.95 -0.300867 0)
(443.257 -0.285254 0)
(443.556 -0.274013 0)
(443.859 -0.2552 0)
(444.14 -0.245157 0)
(444.406 -0.235996 0)
(444.66 -0.225555 0)
(444.918 -0.214771 0)
(445.185 -0.196209 0)
(445.471 -0.177248 0)
(445.776 -0.150433 0)
(446.101 -0.123807 0)
(446.435 -0.113876 0)
(446.781 -0.0884908 0)
(447.145 -0.106897 0)
(447.38 -0.0721913 0)
(447.624 -0.0668216 0)
(447.88 -0.072097 0)
(448.037 -0.07655 0)
(448.206 -0.0770307 0)
(448.284 -0.0774981 0)
(448.369 -0.0801499 0)
(448.418 -0.0780852 0)
(448.471 -0.07583 0)
(448.528 -0.0731726 0)
(448.591 -0.0677562 0)
(448.667 -0.0584158 0)
(448.765 -0.0510821 0)
(448.874 -0.0315677 0)
(449.002 -0.0230778 0)
(449.139 -0.0105478 0)
(449.299 -0.00101847 0)
(449.455 0.00163913 0)
(449.588 0.0117295 0)
(449.676 0.0131797 0)
(449.78 0.00548432 0)
(449.793 -0.000219927 0)
(449.789 0.00186711 0)
(449.772 -0.000349844 0)
(449.733 -0.00453425 0)
(449.674 -0.00752989 0)
(449.609 -0.00768059 0)
(449.545 -0.00600323 0)
(449.499 -0.000438131 0)
(449.485 0.00473831 0)
(449.471 0.018512 0)
(449.494 0.0163377 0)
(449.52 0.0292996 0)
(449.568 0.0340206 0)
(449.599 0.0413974 0)
(449.613 0.0448459 0)
(449.602 0.0448917 0)
(449.575 0.0414505 0)
(449.528 0.0389039 0)
(449.457 0.0306837 0)
(449.355 0.0291456 0)
(449.232 0.0267697 0)
(449.103 0.0245243 0)
(448.971 0.0224011 0)
(448.85 0.0277839 0)
(448.734 0.0191867 0)
(448.588 0.0535137 0)
(448.573 0.0326062 0)
(448.536 0.0373049 0)
(448.484 0.0529108 0)
(448.453 0.0519122 0)
(448.408 0.0553507 0)
(448.347 0.0574326 0)
(448.267 0.057569 0)
(448.168 0.0535998 0)
(448.049 0.0510697 0)
(447.913 0.0469161 0)
(447.762 0.0434105 0)
(447.592 0.0419503 0)
(447.423 0.0399052 0)
(447.248 0.0367456 0)
(447.071 0.0521782 0)
(446.955 0.040997 0)
(446.832 0.0438637 0)
(446.701 0.054768 0)
(446.619 0.0534357 0)
(446.525 0.0561094 0)
(446.423 0.0592814 0)
(446.313 0.0605149 0)
(446.19 0.0626318 0)
(446.053 0.0591438 0)
(445.9 0.0568702 0)
(445.732 0.054064 0)
(445.551 0.0509007 0)
(445.359 0.048144 0)
(445.163 0.0459106 0)
(444.966 0.0444351 0)
(444.695 0.0507863 0)
(5.79661 -25.1252 0)
(6.78366 -8.33484 0)
(10.2958 -2.15194 0)
(8.46813 2.54857 0)
(3.05607 5.35715 0)
(-5.73805 9.38782 0)
(-20.1474 15.0629 0)
(-41.784 22.2061 0)
(-65.7675 29.9661 0)
(-85.5909 35.4405 0)
(-100.424 36.9977 0)
(-110.698 35.7333 0)
(-117.923 33.1299 0)
(-123.299 27.5249 0)
(-128.736 22.5664 0)
(-133.758 17.9914 0)
(-138.312 14.6486 0)
(-142.22 12.224 0)
(-145.607 10.4292 0)
(-148.49 9.14984 0)
(-150.667 8.06353 0)
(-152.494 7.2529 0)
(-153.839 6.50853 0)
(-154.683 5.83193 0)
(-154.992 5.16807 0)
(-154.662 4.43885 0)
(-153.667 3.73436 0)
(-151.938 2.94718 0)
(-149.496 2.17582 0)
(-146.27 1.34688 0)
(-142.255 0.492318 0)
(-137.493 -0.396635 0)
(-131.9 -1.31893 0)
(-125.551 -2.35358 0)
(-118.35 -3.23136 0)
(-110.496 -4.18561 0)
(-101.946 -5.05072 0)
(-92.7914 -6.34431 0)
(-82.8249 -7.33666 0)
(-72.4106 -8.31913 0)
(-61.4247 -9.64333 0)
(-49.7969 -10.7114 0)
(-37.7477 -11.586 0)
(-25.3902 -12.6408 0)
(-12.7176 -13.3567 0)
(0.0538531 -14.3594 0)
(13.1976 -14.9193 0)
(26.3355 -15.9278 0)
(39.8756 -16.5991 0)
(53.4214 -17.5315 0)
(67.0633 -17.6679 0)
(80.5226 -18.5081 0)
(94.1101 -18.8272 0)
(107.539 -19.5172 0)
(120.67 -19.3045 0)
(133.544 -19.7066 0)
(146.403 -20.0758 0)
(158.921 -20.0437 0)
(171.205 -20.1285 0)
(183.096 -19.8701 0)
(194.67 -19.6923 0)
(205.791 -19.2697 0)
(216.512 -18.8966 0)
(226.855 -18.5265 0)
(236.883 -18.1918 0)
(246.638 -17.8764 0)
(255.988 -17.366 0)
(265.001 -16.9437 0)
(273.699 -16.3554 0)
(281.857 -15.7468 0)
(289.804 -15.2488 0)
(297.256 -14.5544 0)
(304.44 -14.1398 0)
(311.399 -13.5431 0)
(318.007 -13.0753 0)
(324.508 -12.545 0)
(330.573 -11.9429 0)
(336.467 -11.4908 0)
(342.095 -10.9113 0)
(347.453 -10.3993 0)
(352.475 -9.84471 0)
(357.315 -9.4716 0)
(361.994 -8.98874 0)
(366.455 -8.60155 0)
(370.716 -8.12481 0)
(374.735 -7.77048 0)
(378.619 -7.32794 0)
(382.255 -7.00297 0)
(385.762 -6.61977 0)
(389.1 -6.33688 0)
(392.353 -5.98666 0)
(395.41 -5.72678 0)
(398.377 -5.42287 0)
(401.213 -5.1844 0)
(404.015 -4.91801 0)
(406.729 -4.68275 0)
(409.424 -4.41732 0)
(411.938 -4.18834 0)
(414.303 -3.98035 0)
(416.501 -3.79556 0)
(418.572 -3.61935 0)
(420.586 -3.45701 0)
(422.578 -3.27713 0)
(424.501 -3.11591 0)
(426.36 -2.96311 0)
(428.134 -2.82222 0)
(429.827 -2.69435 0)
(431.439 -2.57107 0)
(432.991 -2.45576 0)
(434.473 -2.34648 0)
(435.879 -2.25553 0)
(437.22 -2.16398 0)
(438.46 -2.09212 0)
(439.647 -2.01308 0)
(440.756 -1.94283 0)
(441.818 -1.87298 0)
(442.91 -1.7874 0)
(444.029 -1.64574 0)
(445.209 -1.59285 0)
(446.457 -1.35082 0)
(448.048 -1.69597 0)
(448.528 -1.3058 0)
(449.292 -1.12758 0)
(450.26 -1.34069 0)
(450.789 -1.29851 0)
(451.36 -1.24282 0)
(451.963 -1.23009 0)
(452.581 -1.19505 0)
(453.206 -1.12417 0)
(453.84 -1.06355 0)
(454.484 -1.00197 0)
(455.123 -0.956973 0)
(455.761 -0.907624 0)
(456.394 -0.855789 0)
(457.025 -0.802512 0)
(457.661 -0.753188 0)
(458.279 -0.718403 0)
(458.849 -0.695618 0)
(459.394 -0.665384 0)
(459.908 -0.638506 0)
(460.405 -0.611796 0)
(460.868 -0.591568 0)
(461.306 -0.569155 0)
(461.714 -0.554212 0)
(462.105 -0.537667 0)
(462.45 -0.524157 0)
(462.77 -0.508149 0)
(463.066 -0.489281 0)
(463.363 -0.464915 0)
(463.651 -0.446828 0)
(463.944 -0.419478 0)
(464.211 -0.406935 0)
(464.468 -0.393308 0)
(464.714 -0.376296 0)
(464.964 -0.356309 0)
(465.221 -0.327564 0)
(465.495 -0.294138 0)
(465.785 -0.253092 0)
(466.092 -0.212166 0)
(466.408 -0.195475 0)
(466.734 -0.161609 0)
(467.076 -0.190763 0)
(467.308 -0.14375 0)
(467.544 -0.138893 0)
(467.788 -0.14872 0)
(467.95 -0.159201 0)
(468.122 -0.164004 0)
(468.211 -0.164572 0)
(468.306 -0.165805 0)
(468.369 -0.162111 0)
(468.434 -0.155344 0)
(468.502 -0.146554 0)
(468.576 -0.134686 0)
(468.661 -0.118186 0)
(468.764 -0.0978792 0)
(468.876 -0.0714398 0)
(469.005 -0.0540111 0)
(469.142 -0.0326587 0)
(469.299 -0.0152657 0)
(469.453 -0.0140848 0)
(469.586 -0.00643992 0)
(469.679 -0.00518815 0)
(469.786 -0.0188435 0)
(469.813 -0.0248407 0)
(469.824 -0.0246542 0)
(469.817 -0.0287006 0)
(469.793 -0.0351324 0)
(469.751 -0.0393916 0)
(469.704 -0.0360785 0)
(469.657 -0.029856 0)
(469.624 -0.0170172 0)
(469.619 -0.00461383 0)
(469.614 0.0119747 0)
(469.639 0.0193251 0)
(469.667 0.0371485 0)
(469.714 0.0457043 0)
(469.745 0.0529589 0)
(469.765 0.0554459 0)
(469.757 0.0559303 0)
(469.737 0.0490991 0)
(469.698 0.0419034 0)
(469.637 0.0311353 0)
(469.549 0.0277744 0)
(469.44 0.0237334 0)
(469.325 0.0225696 0)
(469.207 0.0198744 0)
(469.099 0.0315658 0)
(468.989 0.0241439 0)
(468.861 0.0709783 0)
(468.84 0.0529415 0)
(468.801 0.0564974 0)
(468.751 0.0764487 0)
(468.716 0.078233 0)
(468.669 0.0814627 0)
(468.609 0.0823754 0)
(468.532 0.0798258 0)
(468.437 0.0735862 0)
(468.324 0.0685511 0)
(468.195 0.0626975 0)
(468.053 0.0561468 0)
(467.893 0.0549295 0)
(467.731 0.0543489 0)
(467.564 0.0496879 0)
(467.396 0.0764961 0)
(467.279 0.063171 0)
(467.156 0.0671291 0)
(467.026 0.0842842 0)
(466.939 0.0837095 0)
(466.841 0.0861212 0)
(466.735 0.0899329 0)
(466.623 0.0909849 0)
(466.499 0.0919766 0)
(466.362 0.0864674 0)
(466.21 0.0822758 0)
(466.045 0.0777507 0)
(465.868 0.0733389 0)
(465.68 0.0690323 0)
(465.488 0.0677699 0)
(465.293 0.066393 0)
(465.025 0.0762872 0)
(2.90525 -27.9728 0)
(3.38411 -9.8252 0)
(5.10652 -2.43824 0)
(1.81716 5.73093 0)
(-7.20766 10.7089 0)
(-20.9309 17.4958 0)
(-40.8445 26.4537 0)
(-61.9694 35.8152 0)
(-79.4633 41.4801 0)
(-92.6099 43.2263 0)
(-101.881 43.0173 0)
(-108.575 40.0899 0)
(-113.261 35.3074 0)
(-116.393 29.4176 0)
(-120.077 24.3364 0)
(-123.53 19.8745 0)
(-126.914 16.4871 0)
(-129.915 13.8858 0)
(-132.556 11.9101 0)
(-134.816 10.4471 0)
(-136.419 9.19084 0)
(-137.749 8.20221 0)
(-138.596 7.29041 0)
(-138.952 6.42082 0)
(-138.718 5.52554 0)
(-137.84 4.59606 0)
(-136.263 3.6517 0)
(-133.966 2.60838 0)
(-130.886 1.55348 0)
(-126.991 0.394037 0)
(-122.243 -0.756646 0)
(-116.706 -1.98108 0)
(-110.295 -3.22313 0)
(-103.096 -4.64438 0)
(-94.955 -5.8799 0)
(-86.1215 -7.1884 0)
(-76.5395 -8.35478 0)
(-66.3845 -10.0539 0)
(-55.3134 -11.417 0)
(-43.7932 -12.6723 0)
(-31.739 -14.4075 0)
(-18.9809 -15.8774 0)
(-5.77446 -17.0385 0)
(7.70309 -18.4042 0)
(21.4887 -19.2694 0)
(35.3173 -20.5492 0)
(49.5462 -21.2424 0)
(63.7458 -22.5701 0)
(78.3471 -23.3738 0)
(92.8953 -24.58 0)
(107.507 -24.6941 0)
(121.838 -25.7688 0)
(136.256 -26.0658 0)
(150.388 -26.8738 0)
(164.155 -26.4536 0)
(177.543 -26.9925 0)
(190.881 -27.2914 0)
(203.654 -27.0355 0)
(216.15 -27.0843 0)
(228.105 -26.5672 0)
(239.673 -26.3007 0)
(250.658 -25.5914 0)
(261.136 -25.0535 0)
(271.165 -24.4804 0)
(280.787 -23.9667 0)
(290.134 -23.4501 0)
(298.959 -22.7043 0)
(307.411 -22.0946 0)
(315.505 -21.2585 0)
(323.03 -20.4532 0)
(330.355 -19.7348 0)
(337.146 -18.8233 0)
(343.678 -18.2325 0)
(349.965 -17.4226 0)
(355.9 -16.7833 0)
(361.71 -16.0539 0)
(367.086 -15.2743 0)
(372.283 -14.6624 0)
(377.244 -13.9017 0)
(381.916 -13.2459 0)
(386.266 -12.5446 0)
(390.468 -12.0369 0)
(394.494 -11.3845 0)
(398.286 -10.8625 0)
(401.887 -10.2445 0)
(405.275 -9.78948 0)
(408.546 -9.22524 0)
(411.598 -8.82069 0)
(414.541 -8.3351 0)
(417.345 -7.97578 0)
(420.077 -7.53391 0)
(422.642 -7.21542 0)
(425.123 -6.83057 0)
(427.488 -6.52562 0)
(429.823 -6.17376 0)
(432.075 -5.86806 0)
(434.324 -5.52916 0)
(436.393 -5.2593 0)
(438.355 -5.01574 0)
(440.175 -4.80092 0)
(441.894 -4.58654 0)
(443.566 -4.37606 0)
(445.22 -4.14365 0)
(446.81 -3.94188 0)
(448.353 -3.75196 0)
(449.819 -3.58121 0)
(451.225 -3.42671 0)
(452.563 -3.27753 0)
(453.857 -3.13639 0)
(455.083 -3.0052 0)
(456.253 -2.89495 0)
(457.367 -2.78515 0)
(458.396 -2.70331 0)
(459.388 -2.6038 0)
(460.303 -2.52321 0)
(461.201 -2.43138 0)
(462.121 -2.30964 0)
(463.059 -2.12318 0)
(464.066 -2.034 0)
(465.111 -1.7529 0)
(466.416 -2.08661 0)
(466.844 -1.7571 0)
(467.475 -1.55597 0)
(468.204 -1.73135 0)
(468.739 -1.73909 0)
(469.21 -1.67398 0)
(469.714 -1.63809 0)
(470.237 -1.58341 0)
(470.764 -1.49051 0)
(471.3 -1.40986 0)
(471.844 -1.32547 0)
(472.387 -1.26318 0)
(472.931 -1.19696 0)
(473.473 -1.12845 0)
(474.013 -1.0586 0)
(474.559 -0.991764 0)
(475.083 -0.949513 0)
(475.573 -0.923716 0)
(476.044 -0.88727 0)
(476.486 -0.855082 0)
(476.915 -0.822923 0)
(477.313 -0.799239 0)
(477.692 -0.772344 0)
(478.044 -0.755478 0)
(478.383 -0.73468 0)
(478.681 -0.720736 0)
(478.958 -0.70054 0)
(479.216 -0.677918 0)
(479.472 -0.64404 0)
(479.721 -0.619732 0)
(479.973 -0.581964 0)
(480.201 -0.568784 0)
(480.423 -0.54833 0)
(480.635 -0.526436 0)
(480.852 -0.496878 0)
(481.076 -0.457988 0)
(481.315 -0.409037 0)
(481.568 -0.353214 0)
(481.834 -0.298549 0)
(482.111 -0.274133 0)
(482.395 -0.229048 0)
(482.695 -0.264154 0)
(482.904 -0.214993 0)
(483.107 -0.211127 0)
(483.317 -0.221529 0)
(483.46 -0.235622 0)
(483.613 -0.24682 0)
(483.69 -0.251934 0)
(483.772 -0.253859 0)
(483.828 -0.248344 0)
(483.884 -0.236506 0)
(483.944 -0.221697 0)
(484.009 -0.203567 0)
(484.083 -0.178241 0)
(484.174 -0.145344 0)
(484.274 -0.112684 0)
(484.388 -0.0841436 0)
(484.509 -0.0545662 0)
(484.647 -0.0282552 0)
(484.784 -0.0281447 0)
(484.903 -0.026484 0)
(484.986 -0.0229259 0)
(485.079 -0.0426486 0)
(485.103 -0.0487836 0)
(485.112 -0.0530635 0)
(485.103 -0.0581658 0)
(485.08 -0.0679693 0)
(485.041 -0.0742038 0)
(484.998 -0.0679924 0)
(484.954 -0.0565792 0)
(484.922 -0.0350873 0)
(484.916 -0.0157907 0)
(484.904 0.00654033 0)
(484.927 0.0231206 0)
(484.947 0.0456712 0)
(484.988 0.0587064 0)
(485.011 0.0660316 0)
(485.023 0.0671483 0)
(485.013 0.0672446 0)
(484.991 0.0562382 0)
(484.952 0.0441661 0)
(484.893 0.0313444 0)
(484.808 0.0260842 0)
(484.704 0.0183018 0)
(484.594 0.0186197 0)
(484.481 0.0176358 0)
(484.378 0.032454 0)
(484.271 0.0300327 0)
(484.152 0.0862845 0)
(484.122 0.0751114 0)
(484.078 0.0785145 0)
(484.026 0.101251 0)
(483.985 0.105936 0)
(483.933 0.108993 0)
(483.869 0.108239 0)
(483.79 0.103153 0)
(483.694 0.0943159 0)
(483.582 0.0866201 0)
(483.456 0.0788672 0)
(483.317 0.0690562 0)
(483.161 0.0674108 0)
(483.003 0.0691922 0)
(482.84 0.0630118 0)
(482.678 0.100304 0)
(482.558 0.0867415 0)
(482.434 0.092125 0)
(482.305 0.115172 0)
(482.211 0.115749 0)
(482.108 0.118328 0)
(481.999 0.122601 0)
(481.883 0.123387 0)
(481.755 0.122982 0)
(481.617 0.115453 0)
(481.465 0.109192 0)
(481.3 0.102713 0)
(481.124 0.0969581 0)
(480.938 0.0910346 0)
(480.747 0.0904239 0)
(480.554 0.0892963 0)
(480.286 0.103258 0)
(0.424513 -29.3617 0)
(0.770966 -9.6656 0)
(-2.24598 -1.55248 0)
(-7.28408 9.75836 0)
(-19.6637 18.1425 0)
(-37.3222 27.9954 0)
(-56.213 38.6809 0)
(-72.1326 45.5173 0)
(-84.115 48.5723 0)
(-92.7995 48.7652 0)
(-99.0971 46.6389 0)
(-103.229 41.9967 0)
(-105.756 36.5734 0)
(-107.773 30.7597 0)
(-110.164 25.6848 0)
(-112.63 21.2549 0)
(-115.11 17.7927 0)
(-117.355 15.075 0)
(-119.317 12.9597 0)
(-120.971 11.3508 0)
(-121.992 9.95714 0)
(-122.801 8.79912 0)
(-123.098 7.70422 0)
(-122.877 6.61178 0)
(-122.016 5.52215 0)
(-120.524 4.34916 0)
(-118.289 3.13809 0)
(-115.294 1.79062 0)
(-111.447 0.423183 0)
(-106.744 -1.09514 0)
(-101.109 -2.58097 0)
(-94.6342 -4.17848 0)
(-87.2245 -5.76384 0)
(-79.0029 -7.62347 0)
(-69.7233 -9.2564 0)
(-59.7121 -10.9648 0)
(-48.8669 -12.4389 0)
(-37.4775 -14.6245 0)
(-25.0342 -16.4172 0)
(-12.1508 -17.9075 0)
(1.22087 -20.07 0)
(15.3609 -21.9432 0)
(30.004 -23.3695 0)
(44.8979 -25.0688 0)
(60.2079 -26.1272 0)
(75.579 -27.7706 0)
(91.408 -28.5765 0)
(107.19 -30.268 0)
(123.373 -31.1365 0)
(139.417 -32.5935 0)
(155.391 -32.5342 0)
(170.916 -33.8669 0)
(186.467 -34.0142 0)
(201.481 -34.8604 0)
(216.164 -34.0995 0)
(229.94 -34.6908 0)
(243.766 -34.8857 0)
(256.731 -34.2375 0)
(269.312 -34.2294 0)
(281.321 -33.3928 0)
(292.614 -32.887 0)
(303.36 -31.8533 0)
(313.251 -31.0405 0)
(322.726 -30.1975 0)
(331.589 -29.4271 0)
(340.294 -28.6901 0)
(348.288 -27.6547 0)
(355.883 -26.8035 0)
(363.085 -25.6757 0)
(369.652 -24.6553 0)
(376.066 -23.6949 0)
(381.842 -22.5676 0)
(387.425 -21.7945 0)
(392.696 -20.761 0)
(397.644 -19.953 0)
(402.451 -19.0158 0)
(406.813 -18.0737 0)
(411.018 -17.3069 0)
(415 -16.3687 0)
(418.703 -15.5939 0)
(422.084 -14.7628 0)
(425.375 -14.1396 0)
(428.519 -13.3439 0)
(431.486 -12.7284 0)
(434.292 -11.9889 0)
(436.94 -11.4525 0)
(439.494 -10.7828 0)
(441.87 -10.3151 0)
(444.158 -9.73893 0)
(446.341 -9.31736 0)
(448.467 -8.79428 0)
(450.456 -8.41886 0)
(452.353 -7.94536 0)
(454.155 -7.57587 0)
(455.927 -7.14328 0)
(457.639 -6.775 0)
(459.36 -6.37104 0)
(460.914 -6.08291 0)
(462.412 -5.81551 0)
(463.792 -5.58453 0)
(465.099 -5.34212 0)
(466.366 -5.08958 0)
(467.619 -4.81143 0)
(468.815 -4.57743 0)
(469.983 -4.35888 0)
(471.088 -4.16813 0)
(472.155 -3.99457 0)
(473.166 -3.82624 0)
(474.149 -3.66639 0)
(475.069 -3.52002 0)
(475.955 -3.39996 0)
(476.789 -3.28079 0)
(477.563 -3.1967 0)
(478.31 -3.08102 0)
(478.993 -3.00046 0)
(479.68 -2.88985 0)
(480.385 -2.72322 0)
(481.094 -2.49178 0)
(481.88 -2.36116 0)
(482.68 -2.08001 0)
(483.657 -2.36333 0)
(484.012 -2.13174 0)
(484.463 -1.92933 0)
(484.94 -2.04498 0)
(485.412 -2.1011 0)
(485.744 -2.04657 0)
(486.111 -1.98642 0)
(486.502 -1.90916 0)
(486.895 -1.79587 0)
(487.299 -1.6965 0)
(487.707 -1.59217 0)
(488.122 -1.51559 0)
(488.539 -1.43339 0)
(488.958 -1.3496 0)
(489.375 -1.26438 0)
(489.8 -1.18479 0)
(490.199 -1.14021 0)
(490.58 -1.11187 0)
(490.949 -1.07116 0)
(491.29 -1.03712 0)
(491.62 -0.999723 0)
(491.927 -0.975051 0)
(492.218 -0.943186 0)
(492.485 -0.926194 0)
(492.746 -0.904823 0)
(492.969 -0.892307 0)
(493.177 -0.868405 0)
(493.37 -0.841237 0)
(493.561 -0.80146 0)
(493.747 -0.770564 0)
(493.936 -0.724916 0)
(494.102 -0.710291 0)
(494.265 -0.685694 0)
(494.425 -0.658036 0)
(494.587 -0.618793 0)
(494.758 -0.56951 0)