/*--------------------------------*- C++ -*----------------------------------*\
| =========                 |                                                 |
| \\      /  F ield         | OpenFOAM: The Open Source CFD Toolbox           |
|  \\    /   O peration     | Version:  2312                                  |
|   \\  /    A nd           | Website:  www.openfoam.com                      |
|    \\/     M anipulation  |                                                 |
\*---------------------------------------------------------------------------*/
FoamFile
{
    version     2.0;
    format      ascii;
    arch        "LSB;label=32;scalar=64";
    class       volScalarField;
    location    "0.00017";
    object      alphat;
}
// * * * * * * * * * * * * * * * * * * * * * * * * * * * * * * * * * * * * * //

dimensions      [1 -1 -1 0 0 0 0];

internalField   nonuniform List<scalar> 
109340
(
0.47624499932989
0.32660005136869
0.17624945507727
0.14728851183691
0.14267508161253
0.14559065914165
0.15101295455052
0.16050046647687
0.13988417511408
0.12441990640612
0.11218084991672
0.10219721780275
0.093879019069397
0.086834068533874
0.080787530775487
0.075539656356202
0.070941199001649
0.066878150680474
0.063261795403304
0.060021988312651
0.057102476854753
0.054457561131053
0.052049661874193
0.049847520652582
0.047824845302989
0.045959268594321
0.044231520875119
0.042624745953818
0.04112389375189
0.039715115625897
0.038385058091686
0.037119858332612
0.035903400765666
0.034713786932078
0.033515185170809
0.032238902938648
0.47071176166355
0.22825572387717
0.16721189834549
0.15296031611609
0.151930707074
0.15495386891282
0.13874041144045
0.12068711177739
0.1066599509485
0.095554822754877
0.086563939538557
0.079140589225891
0.072909489767862
0.067605821790818
0.063037601771217
0.059062282630569
0.055571809248767
0.05248277079735
0.049729736914053
0.047260609899395
0.045033304521132
0.043013380084246
0.041172337545314
0.03948637297837
0.037935422545029
0.036502404789516
0.035172606727737
0.033933155032455
0.032772522999438
0.031680030815483
0.030645237890402
0.029657046191041
0.028702121506741
0.027761718409972
0.026804163406201
0.025765416437142
0.27645757656138
0.19481114198094
0.16791265733238
0.1576101027474
0.12608384021294
0.10511392319459
0.089907743956258
0.078448020266364
0.069541632678175
0.062450441708739
0.056687867060938
0.051921409476737
0.047918224899475
0.044511440328645
0.041578806325337
0.039028941601638
0.03679227174783
0.034814921779466
0.03305439296895
0.031476401086803
0.03005285813556
0.028760664172302
0.027580854391232
0.026497851155779
0.025498719411253
0.024572633909565
0.023710447760491
0.022904186885275
0.02214679291761
0.021431720521034
0.020752511528688
0.020102259144774
0.01947245841224
0.018851189629186
0.018218810724564
0.017531791760155
0.15887556916421
0.160485420296
0.10071735769117
0.073320011773714
0.057676365489727
0.047574739146631
0.040534366027137
0.035358404886192
0.031400802567154
0.028282398875468
0.025766133543437
0.023696032855331
0.021965287418045
0.020498396110374
0.019240622488905
0.018151387633162
0.017199902737554
0.016362033833548
0.015616191185291
0.014943878314668
0.014331329193139
0.013768780707333
0.013249152288851
0.012767169276035
0.012318723498924
0.011900442193722
0.011509170337423
0.011142487443978
0.010798081848004
0.010473680798793
0.010166693604149
0.0098732253531631
0.0095869547850634
0.0093000556963762
0.0090032096209194
0.0086753829886039
0.095679369095122
0.031277385334019
0.019018546686336
0.013791994370085
0.010911896799135
0.0091039089000738
0.0078740369621869
0.006990284419012
0.0063292938538701
0.0058200248693083
0.005418967497704
0.0050985272995362
0.0048404274524457
0.0046323552272091
0.0044659352295323
0.0043353013642019
0.0042352640947603
0.0041571431765578
0.0040867276460758
0.0040163903879366
0.0039454554524436
0.0038761786358929
0.0038109526381215
0.003751403260599
0.0036984035887235
0.0036523453764701
0.0036132490440722
0.0035808949221907
0.0035553351436579
0.0035361243635243
0.0035222020622866
0.003512385401366
0.0035049685152976
0.0034967130378685
0.0034793453843489
0.0034288687296617
0.00024095135194684
0.0003596310386936
0.00046270875838725
0.00054312906783772
0.00060060644673806
0.00063850355363885
0.00066127928123548
0.00067310878919452
0.00067731436381103
0.00067665236206685
0.00067271742014943
0.00066676599278486
0.00065966181537892
0.00065198752935554
0.000644133796251
0.00063637818092785
0.00062890064794992
0.00062182089412997
0.00061526098084098
0.00060937101368202
0.00060401291477664
0.00059909418308538
0.00059456284001837
0.00059038304027266
0.00058651987163025
0.0005829331483819
0.00057957411031873
0.0005763817978612
0.00057327617536475
0.00057014680547622
0.00056683393518658
0.0005630819349069
0.00055845769135378
0.0005520659287713
0.00054127906540075
0.00051442777772054
0.028484920157318
0.015321551526411
0.008268774221752
0.0050871329756248
0.0033895858317208
0.0022947037502797
0.0015491122206349
0.0010340478202323
0.00069839512866755
0.00051094760617029
0.00042037231596531
0.00041311114269817
0.0003797773624966
0.00034102351303908
0.00029426395354195
0.00024781517413553
0.00020730746432519
0.00017258262257426
0.00014408883116496
0.00012166727434639
0.00010318781146323
8.7817382960203e-05
7.3672187824885e-05
5.9552006446867e-05
4.8686160302757e-05
4.0267781383446e-05
3.3523407797233e-05
2.8133252190953e-05
2.3951227115101e-05
2.0350412935493e-05
1.761229231721e-05
1.5178797177985e-05
1.3280017026518e-05
1.1596074672572e-05
1.0239154006411e-05
9.0378801721145e-06
8.0524662578803e-06
7.169290230186e-06
6.4431797026697e-06
5.7772607525209e-06
5.2339607872851e-06
4.7222944530974e-06
4.3075904929605e-06
3.9105606227111e-06
3.5862575380228e-06
3.2772506343219e-06
3.0169367648878e-06
2.7772723896716e-06
2.5627588762412e-06
2.3723706163232e-06
2.1968749848731e-06
2.0400577402054e-06
1.8976182565648e-06
1.7684714752091e-06
1.6507857875574e-06
1.5434306699655e-06
1.445213712091e-06
1.3552693543009e-06
1.2727473476603e-06
1.1969118028107e-06
1.1270687837534e-06
1.0626158326448e-06
1.0030227956112e-06
9.4783168414993e-07
8.9663468201018e-07
8.4906104361847e-07
8.0478149911653e-07
2.4999676625354e-06
0.00023589014201204
0.0010025049766141
0.00095620191844328
0.00085163855997607
0.00077278089406925
0.00071460324854907
0.00067127969690824
0.00063837793782966
0.00061291408280364
0.00059283918500639
0.00057665969204727
0.00056330584355452
0.00055195632340061
0.0005420256420975
0.00053309514859919
0.00052487928938002
0.0005161867540698
0.00050887893123849
0.00050188564215995
0.00049521524628339
0.00048899656210678
0.0004834895154824
0.00047909871085835
0.0004763552713234
0.00047580248333426
0.00047773174952635
0.00048172214660792
0.00048614391698509
0.00048809882699749
0.00048403001317624
0.00047022120660123
0.00044414481398438
0.00040588117660256
0.00035881394861295
0.0003092653793674
0.00026392216631661
0.00021782748091249
0.00019162657991573
0.00017345297764217
0.00016178838045288
0.00015462575465619
0.00015029757962057
0.00014740313277378
0.0001454175769194
0.00014470838037916
0.0001446498700549
0.00014510994305904
0.00014568400528442
0.00014619974365903
0.00014653323028675
0.00014663800298085
0.00014647265942065
0.00014603201084966
0.00014535514335617
0.00014437983071041
0.00014300738593093
0.00014146042520913
0.0001398775308272
0.00013835118501199
0.0001368966922281
0.00013550052325567
0.00013414240666683
0.00013280940585862
0.00013150334063019
0.00013022504896023
0.00012897361293523
0.0001277447060114
0.0001265565077435
0.00012543104856147
0.00012440724231265
0.00012345010676902
0.00012246829427746
0.02183188417682
0.011831033300749
0.0069339366800372
0.0045392120240147
0.0030650615801365
0.0020543890687388
0.0013747024366808
0.0009148539836838
0.00060868802064989
0.00041254707960742
0.00029138061610123
0.00022342482379734
0.00018306428862184
0.00015420709467946
0.0001339467033991
0.00011855907351812
0.00010632990946389
9.643185276247e-05
8.7422486127566e-05
7.9245610346e-05
7.1952239299634e-05
6.5461691263708e-05
5.9648837916452e-05
5.4464765804213e-05
4.5469079335669e-05
3.7629908671787e-05
3.1442582362811e-05
2.6498690702875e-05
2.2520598879025e-05
1.9280979270822e-05
1.6620443388473e-05
1.4426029313407e-05
1.2589169929478e-05
1.1052303718076e-05
9.7468167451396e-06
8.6413192940976e-06
7.6909865103575e-06
6.877711124716e-06
6.1714835481399e-06
5.5610913335693e-06
5.0264479110531e-06
4.5599654525881e-06
4.1481298169909e-06
3.7851873619984e-06
3.4631675006306e-06
3.1766394388742e-06
2.9213945694324e-06
2.69238365485e-06
2.4875584571589e-06
2.3026562535264e-06
2.1360592116535e-06
1.984881882679e-06
1.847832355966e-06
1.7231976661473e-06
1.6096252345832e-06
1.505906702971e-06
1.4110014537473e-06
1.3240129451251e-06
1.244128978704e-06
1.1706395017045e-06
1.102902998147e-06
1.040348791048e-06
9.8246608550113e-07
9.2881108463997e-07
8.7900255392971e-07
8.3271596768298e-07
7.8854122571811e-07
1.0846830995208e-05
0.00050511939625787
0.0010184733681178
0.00092671110209054
0.0008287034321081
0.00075587337925364
0.00070206557550073
0.00066180658890499
0.00063108386479689
0.00060719330985851
0.00058825306611897
0.00057288456195102
0.00056010538027588
0.00054915738308977
0.00053950941344897
0.00053077897127031
0.00052270503038989
0.00051600953901763
0.0005086807540233
0.00050168250905826
0.0004950049739955
0.00048877867253251
0.00048326212289171
0.00047885860287983
0.00047609766234242
0.00047552172846967
0.00047742385115877
0.00048138806717008
0.0004857937190771
0.00048775544052425
0.00048372966041593
0.0004700088043761
0.00044405964106148
0.0004059383576885
0.00035898415996031
0.00030948765525732
0.00026413554223792
0.00021793690987892
0.00019161381265106
0.00017331501556552
0.00016154060199814
0.00015428111645754
0.00014987042450723
0.00014690918751551
0.00014484987336572
0.00014403960050284
0.00014389675176405
0.00014426922447936
0.00014476536791622
0.00014520939688941
0.0001454814721021
0.00014553362080869
0.00014532440734445
0.00014484828699485
0.00014415067915479
0.00014314957948612
0.00014177532396505
0.00014023930011459
0.0001386748564277
0.00013716716885976
0.00013572907239436
0.0001343491433693
0.0001330089193471
0.00013169636673643
0.00013041354286207
0.00012916278695949
0.00012794354013419
0.0001267539965059
0.00012561413802037
0.00012454564877836
0.00012357962669567
0.00012266725016444
0.00012170953061228
0.015906949117763
0.0079176668060973
0.0047739395844286
0.0031780545085255
0.0021123689818162
0.0014513140378754
0.00099185877726235
0.00068591287328297
0.00048298895840595
0.00034940402633015
0.00026853883200055
0.00021202430521312
0.00017379083817027
0.00014657496855343
0.00012542972516809
0.00010858520211117
9.5184512521625e-05
8.3928890227471e-05
7.3832964338223e-05
6.5241314504919e-05
5.8197496444551e-05
5.223593698645e-05
4.7172351242766e-05
4.2982458095863e-05
3.9426878184881e-05
3.6324710560433e-05
3.0763090781609e-05
2.5935420136821e-05
2.2039993686218e-05
1.8875308575438e-05
1.6274115420094e-05
1.4125099055569e-05
1.2333500753488e-05
1.0829183506864e-05
9.5580366119034e-06
8.4763752525533e-06
7.5512801518513e-06
6.7547384681015e-06
6.0661429938319e-06
5.4679159828926e-06
4.9457468471715e-06
4.4883720734309e-06
4.0851427960119e-06
3.729553054879e-06
3.4134258985316e-06
3.1329260261642e-06
2.8818411352206e-06
2.6576563029179e-06
2.4558962865916e-06
2.2744425196414e-06
2.1104620080292e-06
1.9620107753783e-06
1.8271982583518e-06
1.7044436300036e-06
1.5925836540755e-06
1.4903972279024e-06
1.396894359941e-06
1.3111499844794e-06
1.2323800592532e-06
1.1598866127376e-06
1.0930488504238e-06
1.0313051588474e-06
9.7415386008165e-07
9.2115794042859e-07
8.7194521406453e-07
8.2621616545103e-07
7.8210553956251e-07
1.1316927306144e-05
0.00051512884481936
0.0010186233212715
0.00092554056551432
0.00082783240680939
0.00075523566988836
0.00070154408473945
0.00066136105813881
0.00063070934473573
0.00060687640297398
0.00058797454374167
0.00057262898017894
0.00055986251004991
0.00054892422880992
0.00053928660422494
0.00053056976821217
0.00052250965293818
0.00051584555774902
0.00050854123432255
0.00050155598841798
0.00049489453410308
0.00048868262441247
0.00048317711852185
0.0004787791533514
0.00047601589144151
0.00047542978420632
0.00047731936716761
0.00048127710172136
0.00048570034984155
0.00048772301153242
0.00048381655942777
0.0004702814623638
0.00044456762798185
0.00040668982202836
0.00035988962221012
0.00031042798035645
0.00026497711219385
0.00021845618118667
0.00019178772838348
0.00017314446208202
0.00016107094426822
0.00015355689316005
0.00014894436971007
0.00014581616398398
0.00014361582919785
0.00014258923675392
0.00014227197757095
0.0001424700280277
0.00014281560238809
0.00014312249999
0.00014327620550636
0.00014322540719412
0.00014292932809995
0.00014238234007452
0.0001416391204259
0.00014057533602254
0.00013918787536658
0.00013766621205172
0.00013613332358377
0.00013466073097354
0.00013325551485572
0.00013190858598404
0.00013060416939042
0.00012933293781851
0.00012809774529477
0.00012690316229113
0.00012575111431166
0.00012464305363052
0.00012360376868636
0.00012265138298675
0.00012180001581776
0.00012098851483342
0.00012009181082853
0.0082779139878255
0.004417213863698
0.0027011650324183
0.0017536731821294
0.0012080318908903
0.00086842980659881
0.00064735795992251
0.00049704290619524
0.00039132023403866
0.00031716545699926
0.00025874244591404
0.00021173886284717
0.000174654362416
0.00014572042686043
0.00012329578644729
0.00010608238761902
9.2089923833795e-05
8.0485318854714e-05
7.0518061449986e-05
6.1764034843481e-05
5.4135917791661e-05
4.7904346305192e-05
4.2787348083734e-05
3.8426083720258e-05
3.4779160110725e-05
3.1794726027762e-05
2.9234927786759e-05
2.5370147677346e-05
2.1574054585194e-05
1.8482599814178e-05
1.5943632134636e-05
1.3838226519913e-05
1.2085131801919e-05
1.0610470239032e-05
9.3652953003839e-06
8.3046289444559e-06
7.3987751351735e-06
6.6184687579046e-06
5.9453989723062e-06
5.3596442455623e-06
4.8496396433241e-06
4.4021500627956e-06
4.0090019130651e-06
3.6612836639725e-06
3.3530935839674e-06
3.0786363280124e-06
2.8335014703737e-06
2.614076753483e-06
2.4166729914882e-06
2.2390804931327e-06
2.078407110168e-06
1.9330437372348e-06
1.8008903091964e-06
1.6805978043512e-06
1.5708454665398e-06
1.4705599664131e-06
1.3787598384911e-06
1.2945500184795e-06
1.2171721672797e-06
1.1459340595262e-06
1.0802243728463e-06
1.0194937170991e-06
9.6325992708836e-07
9.1110007558806e-07
8.6265928110652e-07
8.1764686434238e-07
7.7422705437853e-07
1.2004152067464e-05
0.0005294013167644
0.001018686738864
0.00092390989858348
0.00082656680363745
0.00075430103374027
0.00070079182666464
0.00066072574259121
0.00063017339788088
0.00060641976652857
0.00058757032594958
0.00057225596131779
0.00055950791905612
0.00054858426077813
0.00053896245810884
0.00053026624139972
0.00052222983658307
0.00051561010074544
0.00050833462105662
0.00050137491086788
0.00049473905531812
0.00048855056653286
0.00048306381929617
0.00047867659608171
0.00047591289827582
0.0004753153276829
0.00047718963541785
0.00048114290214348
0.00048559938177808
0.0004877205620365
0.00048400161995146
0.00047075290401161
0.00044539958766078
0.00040789295462796
0.00036136424442499
0.00031197045231521
0.00026634869148011
0.00021933979575009
0.00019213747235408
0.0001729528301571
0.00016040582602671
0.00015248756356485
0.0001475576398782
0.00014415253984832
0.0001417594103769
0.00014041001343172
0.00013982290529733
0.00013976304014955
0.00013988260942564
0.00013998784036462
0.00013996587140376
0.00013976383256747
0.00013933949505575
0.00013868966489555
0.00013787131805815
0.0001367211387312
0.00013532133669577
0.00013382576835495
0.00013234293213592
0.00013092479755406
0.00012957357000445
0.00012828256067469
0.00012703874882251
0.00012583939618051
0.00012468646856371
0.00012358640720481
0.00012254256406983
0.00012156564002057
0.00012068360194901
0.00011990315914038
0.00011922077571008
0.00011855917696508
0.00011774894093592
0.0032054068545314
0.0022644677385419
0.0015955210028841
0.0012085405984331
0.00093244330808521
0.00071724403830048
0.0005699938296901
0.00046548599805174
0.00038694606117149
0.00031484272825904
0.00026123002699551
0.00021708823845653
0.00018059304695077
0.00015102093819944
0.0001265930882249
0.00010699534407776
9.1811657360853e-05
7.9279951718881e-05
6.8699328125109e-05
5.9907814475423e-05
5.2608922523241e-05
4.6299537837685e-05
4.0996106739695e-05
3.6662381095355e-05
3.299251569528e-05
2.9844064002208e-05
2.7215492298096e-05
2.4766488101887e-05
2.1093315337711e-05
1.8089177018738e-05
1.5616293972015e-05
1.3564026697417e-05
1.1849179357766e-05
1.040726074942e-05
9.1873919962981e-06
8.149179595496e-06
7.2601846839341e-06
6.4958752105962e-06
5.8350091461395e-06
5.2608994689451e-06
4.7601226119841e-06
4.3211852515335e-06
3.9350895990926e-06
3.5936169665987e-06
3.2911064995316e-06
3.0217448510906e-06
2.7816319626658e-06
2.5664141958924e-06
2.3732208186631e-06
2.199253377209e-06
2.0421319678151e-06
1.8998914661775e-06
1.770715853599e-06
1.6531498530782e-06
1.5457780370591e-06
1.4476095474101e-06
1.3576859172462e-06
1.2751958309403e-06
1.199379503955e-06
1.1295535109898e-06
1.0651185220381e-06
1.0055423499718e-06
9.5036052993139e-07
8.9916452551894e-07
8.5161275261247e-07
8.0740223212045e-07
7.651252223952e-07
1.293378134715e-05
0.00054755094269358
0.0010186933159364
0.00092184660480196
0.00082491090685189
0.00075306780036387
0.00069981359123619
0.00065990825555044
0.00062948174702432
0.00060582551604998
0.00058703970540779
0.00057176376894896
0.00055903972734269
0.00054813577864349
0.0005385356640939
0.00052986697556055
0.00052186302714045
0.00051529709383789
0.00050805786036196
0.00050113364647303
0.00049453236748078
0.00048837563019771
0.00048291485984221
0.00047854338564829
0.0004757812913622
0.00047517109489453
0.0004770264022648
0.00048097539771084
0.00048547757756111
0.00048773122124796
0.0004842631670886
0.00047139734459173
0.00044652668824645
0.00040952175957581
0.00036337833564268
0.0003140932083111
0.00026824808229046
0.00022061038639769
0.00019269665810521
0.00017277805902683
0.00015958341970509
0.00015110877672112
0.00014573978149373
0.00014195259231883
0.00013929598550401
0.00013753496740389
0.00013658377747321
0.00013617885705466
0.00013600082094114
0.00013583818700918
0.00013558509486497
0.0001351831157197
0.00013459001997778
0.00013381980960848
0.00013287840655415
0.00013163562036639
0.0001302330552575
0.00012878514006628
0.00012737666851905
0.00012603962062301
0.00012477278861748
0.00012357077291242
0.00012242535768049
0.00012134090784309
0.00012031804338459
0.00011936227615909
0.0001184823597683
0.00011769888132662
0.00011703166284103
0.00011647739767821
0.00011600949580094
0.00011553648272982
0.00011482986495903
0.0010984474671587
0.00095833107676567
0.00098933180014784
0.0010325207898457
0.001075583233722
0.00093726441062386
0.00071196454824801
0.00054148175837304
0.00041970952909133
0.00033787809184453
0.00027547792681669
0.00022717006189724
0.00018853769391401
0.0001571340526035
0.00013154827849651
0.00011061670121312
9.3507957296505e-05
7.9567905758394e-05
6.8259267333491e-05
5.9015206987403e-05
5.1449823133145e-05
4.5306097205639e-05
4.0126588109805e-05
3.5734805397292e-05
3.2084874732265e-05
2.897025615424e-05
2.628292107115e-05
2.398280519379e-05
2.0578181890914e-05
1.7678232335924e-05
1.5282069621089e-05
1.328689685352e-05
1.1617242513177e-05
1.0211466861656e-05
9.0185124508086e-06
8.0027144068921e-06
7.1322932620408e-06
6.3830971764565e-06
5.7342154737818e-06
5.1708535360361e-06
4.678821964485e-06
4.2476752351907e-06
3.8679066380031e-06
3.5325096785469e-06
3.2350050546056e-06
2.9702864921837e-06
2.7340926664967e-06
2.5226155982105e-06
2.3328381543888e-06
2.1617834939641e-06
2.0073726011268e-06
1.8675040110027e-06
1.7405826497723e-06
1.6250876996012e-06
1.5197293190743e-06
1.4234327036045e-06
1.335229348456e-06
1.2543417092652e-06
1.1800240954115e-06
1.111602707998e-06
1.0484896446463e-06
9.9014592056851e-07
9.360894597521e-07
8.859126592219e-07
8.3929614339245e-07
7.9593432491476e-07
7.5482109059775e-07
1.4146622765943e-05
0.00056936835104737
0.0010185465763255
0.00091936716292899
0.0008228766423438
0.0007515367519141
0.00069861254875342
0.0006589142752892
0.00062863905887813
0.00060509451250447
0.00058638132583754
0.00057115007786334
0.00055845552786721
0.00054757670508666
0.00053800451926051
0.00052937030966934
0.0005214068873688
0.00051490232237992
0.00050770818418778
0.00050082925986179
0.00049427220884237
0.00048815563258809
0.00048272724906965
0.00047837576580102
0.00047561693899714
0.00047499252610706
0.00047682492666269
0.00048076889536263
0.00048532782227676
0.00048774618390869
0.00048458754701687
0.00047219330039795
0.00044792411148141
0.00041155420369267
0.0003659171270946
0.00031679962168523
0.00027068951259866
0.00022231495299918
0.00019352010559986
0.00017267617171011
0.00015865393719385
0.00014946796406218
0.0001435292531896
0.00013924643803543
0.00013622987224171
0.00013400748751004
0.00013258750168942
0.0001317551759713
0.00013120474344827
0.00013071104938628
0.00013017163457138
0.0001295240382473
0.00012872956058449
0.00012781407745714
0.00012670865280542
0.00012539266717709
0.00012400901906475
0.00012264099565201
0.00012133863970146
0.00012012061060768
0.00011898320737049
0.00011791776047463
0.00011692860738919
0.00011601991622483
0.00011519000020546
0.00011444823083113
0.0001138045184268
0.0001132781345431
0.0001128817935403
0.00011259840470213
0.00011237898007281
0.00011211808045247
0.00011151978357785
1.5053960003634e-05
0.00019807942727948
0.00028269085843093
0.0003793287904462
0.00046465975791879
0.0005401404772439
0.00061165737201668
0.00066194015091975
0.00050983799460962
0.00039532502447582
0.0003135451557426
0.00025417326476614
0.00020837761551049
0.00017209902841089
0.00014294722210205
0.00011920734112152
9.9792281884972e-05
8.4114572449461e-05
7.1438822758097e-05
6.116733190594e-05
5.2883280440733e-05
4.6145434999793e-05
4.0671722040432e-05
3.6167046694856e-05
3.226429541317e-05
2.9104284676429e-05
2.638015210891e-05
2.4040322735707e-05
2.0821578113365e-05
1.7888798977194e-05
1.5467291334492e-05
1.3452497763744e-05
1.1760897021909e-05
1.0333916616203e-05
9.1248862318063e-06
8.0944530719795e-06
7.2101963774604e-06
6.4493081261327e-06
5.7909060085148e-06
5.2186920646339e-06
4.7188379425379e-06
4.2812032190546e-06
3.8960102256315e-06
3.5558412695234e-06
3.254101296044e-06
2.9859569856419e-06
2.7467725691613e-06
2.532804763018e-06
2.3407887423205e-06
2.1679574526499e-06
2.0120621770768e-06
1.8709502392737e-06
1.7429623891267e-06
1.626563943132e-06
1.5205334895175e-06
1.4237048295433e-06
1.3350601242551e-06
1.2537698036985e-06
1.1791035986507e-06
1.110415206959e-06
1.0470893252212e-06
9.8858229809414e-07
9.3442012365889e-07
8.8420198184211e-07
8.3756173547502e-07
7.9420592911692e-07
7.5385847479365e-07
4.1649551413412e-06
0.00032795864817275
0.0010147811699694
0.00094515160869566
0.00084181502382218
0.00076545404405998
0.0007089224533899
0.00066660633591309
0.00063445744855301
0.00060956992439704
0.00058988281047904
0.00057393820491401
0.00056072391617462
0.00054947760421312
0.00053965032360051
0.00053085002819823
0.00052278562287132
0.00051442315159416
0.00050728236259404
0.00050045762675983
0.00049395374429642
0.00048788601210102
0.0004824974251239
0.00047817083477618
0.00047541664303503
0.00047477597245473
0.00047658190487919
0.00048052011400336
0.00048514440852138
0.00048775428141137
0.00048495934140192
0.00047312411642878
0.00044957324303836
0.00041397095906101
0.0003689668650613
0.00032010394431544
0.0002737178559565
0.00022568893621725
0.00019530358462707
0.00017275494567053
0.00015717443720267
0.00014666081779269
0.00013962129019542
0.00013440893017706
0.00013055339628577
0.00012766899603687
0.00012534294712755
0.00012373103580514
0.00012249202118388
0.00012139263994537
0.00012033330283891
0.00011924262896847
0.00011811734426424
0.00011691866008895
0.00011556960169087
0.0001141964945438
0.00011289941932296
0.00011171795486462
0.00011065264037297
0.00010970862661564
0.00010888618244605
0.00010819695484243
0.00010761082264212
0.00010711428163292
0.00010672740350084
0.00010644738695053
0.00010627913260219
0.00010622857092137
0.00010629175010919
0.00010643603592896
0.00010661680222906
0.00010669237779559
0.0001062561470954
3.3515698125945e-06
2.2993363721853e-05
4.8956179637977e-05
7.8905793240807e-05
0.00011444646832848
0.00015587130566478
0.00019840041149382
0.0002420695574211
0.00028243276292306
0.00030936835053336
0.00031601116652767
0.00026259671730634
0.00021186276742875
0.00017263764899014
0.00014208797208836
0.00011799313578577
9.8402175260656e-05
8.2545577272046e-05
6.9822184212534e-05
5.9532371366854e-05
5.1230262476173e-05
4.4471498170741e-05
3.8945062981386e-05
3.4407250635574e-05
3.0716887727964e-05
2.7650803433818e-05
2.4933168459673e-05
2.200637020909e-05
1.8898701541055e-05
1.6327274706445e-05
1.4188320697061e-05
1.239269775746e-05
1.0882082867754e-05
9.6010482259653e-06
8.5086613023134e-06
7.5703141118271e-06
6.7628452528379e-06
6.0645458916494e-06
5.4579102480532e-06
4.9278884627424e-06
4.4637053564536e-06
4.0557586118467e-06
3.6958747826844e-06
3.3769119745595e-06
3.0935363073405e-06
2.8410997630246e-06
2.6155660344487e-06
2.4134018943975e-06
2.2316804218579e-06
2.0680171246633e-06
1.9201458385931e-06
1.7862387059985e-06
1.6646262833726e-06
1.5539939207785e-06
1.4531436717386e-06
1.3610138731177e-06
1.276674819115e-06
1.1992832128706e-06
1.1281640333331e-06
1.0626970317276e-06
1.0023301249367e-06
9.4655687003321e-07
8.9493373781441e-07
8.4708227736543e-07
8.0265235064033e-07
7.6135264378946e-07
7.2264739981471e-07
2.0397004253502e-05
0.00065476798380912
0.0010139096460623
0.00090907850048062
0.00081467598808016
0.00074524522123689
0.00069369950379246
0.00065489212859048
0.00062521318786191
0.00060207085578163
0.000583616343209
0.00056855363708768
0.00055598173199043
0.00054521345419151
0.00053576437067574
0.00052727502695743
0.00051947793317675
0.00051320167564352
0.00050619217292532
0.0004995012496194
0.00049312885356069
0.00048718244757532
0.00048189363707371
0.00047763106576748
0.00047489183192524
0.00047421475728785
0.00047595773165957
0.00047987782289211
0.00048465170481225
0.00048771627990328
0.00048579601259046
0.00047532014390252
0.00045353861344941
0.00041986308514105
0.00037651382474387
0.00032845142346598
0.00028165593357124
0.00023224678395491
0.0001993792873344
0.00017397576785418
0.0001556510472682
0.00014273288967079
0.00013360851690748
0.00012674498807277
0.00012133043714792
0.00011702491669417
0.00011349231247652
0.00011060942968748
0.00010818271771537
0.0001060729873528
0.00010419654851552
0.00010247320946988
0.00010083364976058
9.9246898683744e-05
9.7823334827678e-05
9.6680932847018e-05
9.5846843973743e-05
9.5280101842458e-05
9.4948129130608e-05
9.4805624980321e-05
9.484999971866e-05
9.5070856124754e-05
9.5415057600705e-05
9.58564578894e-05
9.6335790153616e-05
9.6845714375723e-05
9.741865540525e-05
9.8057705651544e-05
9.8752267694295e-05
9.9488740963863e-05
0.0001001897758379
0.0001006465153482
0.00010038019607217
3.0561130955942e-06
7.7321940872719e-06
1.4889727252996e-05
2.4867939339752e-05
3.8100305932353e-05
5.4461046184198e-05
7.4222971543347e-05
9.6466715879768e-05
0.00012066960601793
0.00014545392273559
0.00016615180584625
0.00017715279730145
0.00017640090942875
0.00016439808915208
0.00014221698376543
0.0001175458344491
9.8348488260723e-05
8.277126980338e-05
7.0094761513597e-05
5.9761153113031e-05
5.1397421530982e-05
4.4579015568565e-05
3.8975118190929e-05
3.4348838561841e-05
3.0512178468725e-05
2.731173670773e-05
2.3813832375762e-05
2.0505069810041e-05
1.7736532969176e-05
1.5407039312556e-05
1.3442313706205e-05
1.178368650199e-05
1.0376075553084e-05
9.1779681083824e-06
8.1500510431062e-06
7.2670880344055e-06
6.506056506725e-06
5.8465146979766e-06
5.2710752795609e-06
4.7669437248142e-06
4.3243649207726e-06
3.9341487824553e-06
3.5887721676357e-06
3.2819133234064e-06
3.0089945169107e-06
2.7653436020426e-06
2.547269026945e-06
2.3513979254301e-06
2.1751692213615e-06
2.0162438341451e-06
1.8725295227526e-06
1.7422153900243e-06
1.6237660247442e-06
1.5159560350534e-06
1.4176093213515e-06
1.3277182637137e-06
1.2453712644359e-06
1.1697962263683e-06
1.1003412741142e-06
1.0363841493442e-06
9.773884780969e-07
9.2287596114604e-07
8.7242714149186e-07
8.256771697478e-07
7.8229430906077e-07
7.4197268886398e-07
7.0592557675248e-07
3.0909446094027e-05
0.00072866296029523
0.0010060773858008
0.00089946980743036
0.00080749957832408
0.00073974166251751
0.00068936388933375
0.000651333686761
0.00062215619983006
0.00059933456181034
0.00058108641969452
0.00056616708381352
0.0005537075082158
0.00054304434613479
0.00053371030922812
0.00052535128724611
0.00051770016527356
0.00051161211659099
0.00050476537857855
0.00049824037721154
0.00049203125932167
0.00048623625714857
0.00048107360392961
0.00047689492057156
0.0004741803786632
0.00047346354972805
0.00047513069125165
0.00047902050548527
0.00048395776457719
0.00048754874712513
0.00048666443780912
0.00047782875681216
0.00045822261601859
0.00042697764536664
0.00038583223157017
0.00033908233297916
0.00029223238624013
0.00024166128305471
0.00020613060831017
0.00017737902913252
0.00015559737867493
0.00013947564970531
0.00012751080877446
0.00011842862796496
0.00011100033106584
0.00010487679138986
9.9731267920067e-05
9.5397872390536e-05
9.1705343645655e-05
8.8579539967181e-05
8.5963233621431e-05
8.3783164639288e-05
8.1976991627074e-05
8.0603116441358e-05
7.9791094683723e-05
7.944701782868e-05
7.9551228427817e-05
8.0110564303288e-05
8.1048056310544e-05
8.2263841068453e-05
8.3646832225721e-05
8.5055261583244e-05
8.6491838136367e-05
8.7923983738299e-05
8.9339564790604e-05
9.07273463151e-05
9.2063647912963e-05
9.3330683837588e-05
9.4521493778923e-05
9.5579752347114e-05
9.6431725376636e-05
9.6967073033644e-05
9.6670289774261e-05
2.7339376247199e-06
4.8849771124286e-06
6.8365117142067e-06
1.0920481332709e-05
1.6626919200451e-05
2.4090262448302e-05
3.3461023778641e-05