/*--------------------------------*- C++ -*----------------------------------*\
| =========                 |                                                 |
| \\      /  F ield         | OpenFOAM: The Open Source CFD Toolbox           |
|  \\    /   O peration     | Version:  2312                                  |
|   \\  /    A nd           | Website:  www.openfoam.com                      |
|    \\/     M anipulation  |                                                 |
\*---------------------------------------------------------------------------*/
FoamFile
{
    version     2.0;
    format      ascii;
    arch        "LSB;label=32;scalar=64";
    class       volScalarField;
    location    "0.00017";
    object      cSound;
}
// * * * * * * * * * * * * * * * * * * * * * * * * * * * * * * * * * * * * * //

dimensions      [0 1 -1 0 0 0 0];

internalField   nonuniform List<scalar> 
109340
(
555.98203622071
554.91871384753
552.8900082435
550.42427663748
547.68708675117
544.81919270785
541.87557238305
538.8846339579
535.87973816826
532.79234477528
529.48928526393
525.84858507886
521.73038275695
516.97411059995
511.40325863118
504.83173263508
497.06954480837
487.93192421753
477.24912468775
464.8784846815
450.71543073925
434.70879851774
416.87245162118
397.29319757773
376.13059240818
353.61088844235
330.01167782869
305.63998256921
280.80550417516
255.79231006175
230.83199564153
206.07958913542
181.59630194808
157.35537108331
133.30053597963
109.48706496199
556.14056777844
554.77597483729
552.49855775142
549.86430821746
547.04491079631
544.16369258584
541.25706655518
538.32336402632
535.32081427931
532.18104179637
528.80015624966
525.05331714778
520.79416919778
515.8567011907
510.06037393612
503.21553426182
495.13293490348
485.63014363495
474.54229047525
461.73428196793
447.11323463758
430.64287445062
412.35458402622
392.35375065416
370.81793471755
347.98841439926
324.15315960715
299.62326038741
274.70530404132
249.67300563448
224.74019156931
200.03546699452
175.5784690876
151.28105834054
126.95128828977
102.64201957935
556.73207561212
555.15459698984
552.64926519131
549.95321310228
547.15784374461
544.31788103139
541.42694429623
538.48500683324
535.47245071083
532.32404418503
528.93896321608
525.19150292077
520.93412839572
516.00006631524
510.20847662105
503.37036600503
495.29573123948
485.80187716535
474.72318974709
461.92390170004
447.30983853302
430.84373455364
412.55618807752
392.55187967816
371.00814662594
348.16632374176
324.31495062473
299.76614973098
274.82785964856
249.77474688942
224.82058879543
200.08983934615
175.57903063312
151.13111733847
126.38932659034
100.96027005636
557.55417848895
555.65606072836
553.02688592078
550.2568585247
547.40901077005
544.51095346322
541.57230637369
538.59715105947
535.56210920267
532.40093504775
529.01300531092
525.2713498855
521.02657046905
516.11020496653
510.33936513175
503.52284112446
495.46869485812
485.99217048109
474.92489034933
462.12924804644
447.50736707515
431.02006627413
412.69659335704
392.64100854887
371.0320375753
348.113233718
324.1768812089
299.5398584977
274.51537256471
249.38291524793
224.35971896367
199.57059268578
174.98580392414
150.36426384098
125.0893566199
97.912727944747
558.84773776446
556.38632042036
553.37670128457
550.4191176471
547.49449045116
544.56835046231
541.62081180077
538.64923611132
535.62384621448
532.47568560315
529.10537907762
525.38503289105
521.16221646805
516.26399932675
510.5013334815
503.67503978553
495.58395792624
486.03328250396
474.83555839022
461.84907957489
446.96165201182
430.12939355563
411.38252553073
390.83213260843
368.67426437732
345.17604416339
320.65984891744
295.47600702229
269.97130805958
244.45574736536
219.16875963104
194.26448605495
169.69687076088
145.16698368324
119.78300921323
90.870112032452
561.25148082765
556.7743852846
553.46057861427
550.44153910876
547.51328238266
544.59315347189
541.65277643169
538.6765769433
535.61725484112
532.37768685181
528.82065104401
524.77038959461
520.01807548468
514.32801657208
507.44640347226
499.11372099893
489.08146055753
477.13895313543
463.14803728414
446.93910926742
428.49504866982
407.90329707624
385.36809848139
361.20666643449
335.82854160372
309.69993565624
283.30162372561
257.08551602644
231.4370584419
206.646954329
182.88611198348
160.24618520877
138.5790444485
117.53687873888
96.196709779542
70.961631930954
86.945346414541
68.052735277231
54.113743481701
44.658935474683
38.47119256975
34.292648715037
31.487084583004
29.669174691431
28.594131687327
28.098923991527
28.026039683354
28.396257330329
29.014397779746
29.808923904304
30.724716234996
31.692750495889
32.673503392957
33.636592413421
34.562908776729
35.443728251356
36.273617313309
37.04996162522
37.774168434051
38.449039140904
39.077751269601
39.663984673008
40.20965718806
40.719001460082
41.196770621443
41.642360028067
42.062888973235
42.456115346743
42.828108846143
43.177803846139
43.509223797236
43.822231381649
44.119665286001
44.401514983252
44.670218954997
44.925456124748
45.169653029881
45.402054140284
45.625126018101
45.83788446449
46.042562741746
46.23835311483
46.426909524581
46.607968557235
46.782292944972
46.950310308272
47.112156593909
47.268448321658
47.419385616017
47.565302687826
47.706451781636
47.843093316765
47.975456074763
48.10376360658
48.228218504525
48.349012336757
48.466320395882
48.580308085516
48.691130235808
48.798931051497
48.903844013829
49.00599433865
49.105497961241
49.202236424993
49.874036379072
50.705768131434
51.130920119317
51.506467507383
51.853835691202
52.172180849298
52.46206834289
52.726023282633
52.967537662924
53.190280642938
53.397690334986
53.592799479023
53.778173280064
53.956000917796
54.128177384951
54.296396798845
54.482911648632
54.647774814441
54.81324020662
54.98079894528
55.152078925404
55.329024748496
55.514226075282
55.71135870816
55.925458062953
56.16244729153
56.427325498152
56.721211685069
57.038677965636
57.366989458026
57.687896692302
57.981481859737
58.230355370038
58.421672556927
58.5491797757
58.617609983292
58.644689207291
58.641551153537
58.632673894816
58.622409309183
58.613666870174
58.60647676969
58.601606864816
58.599721469695
58.601080205289
58.60573282958
58.613819950904
58.625154981594
58.639652855605
58.657095553671
58.67731059932
58.700054985817
58.725107918565
58.75225245114
58.781393041621
58.812715689356
58.846833394369
58.884599806976
58.926997612344
58.974904817298
59.028969867949
59.08953908121
59.156401649211
59.228903380662
59.305782144345
59.385044600574
59.463287004148
59.536774671999
59.603750433431
59.66633125198
59.740386917962
59.863352433773
79.516208306381
61.202516230133
48.764826367616
40.880776874003
35.722702838706
32.378730430052
30.206173401048
28.876711625704
28.178820506139
27.962664060461
28.124500190469
28.572868473802
29.271424693325
30.107087604319
31.027344374872
31.990196088441
32.956532345787
33.902106915446
34.810897829868
35.673316769783
36.484906526116
37.244787087716
37.953985848782
38.614861724894
39.230503322528
39.804512153381
40.340176462634
40.84067118795
41.309165808614
41.748295358549
42.160682018084
42.548718201269
42.914322815935
43.25955215903
43.585920892084
43.895139160799
44.188408750129
44.467133177225
44.732282560643
44.984999094774
45.226088790063
45.456477309614
45.676832432195
45.887899525013
46.090262338813
46.28450120895
46.471145677591
46.650645571932
46.823479859331
46.990004381367
47.150621814925
47.305642307921
47.455407100676
47.600197795713
47.740286022477
47.875917334185
48.00732387183
48.134719852005
48.258305469464
48.378268252275
48.494782899122
48.608012283375
48.718108338258
48.825213124055
48.929461202413
49.030981943071
49.129904072976
49.23386840244
50.185732073087
50.824617070304
51.229493273483
51.597796738988
51.937761028116
52.248634836605
52.531563875887
52.789415358848
53.025779825083
53.244293221073
53.448295766807
53.640696173984
53.823948767176
54.0001559243
54.171147309084
54.338571846767
54.483214499336
54.64802393875
54.81343887553
54.980936673888
55.152143159205
55.328998271318
55.514084742291
55.711069758793
55.924980895384
56.161739909502
56.426357491449
56.719980353362
57.037221029012
57.365384867816
57.686253028056
57.979911764277
58.228966371765
58.420559690984
58.548409602378
58.617184297712
58.64456638387
58.641529889219
58.632680722556
58.622439129488
58.613718227504
58.606561495433
58.60183038039
58.600161579152
58.601852512075
58.606977825272
58.615687104594
58.627812140076
58.64326874408
58.661842116074
58.683350188405
58.707541541969
58.734180564974
58.763032149227
58.793986316713
58.827281571378
58.863601882302
58.903881999691
58.949182551456
59.000419348302
59.05822913815
59.12290013573
59.194102644861
59.271044631481
59.352277628913
59.435577234453
59.517231225144
59.593322694316
59.661989477749
59.725426014046
59.800414803217
59.925280010966
75.628447915735
56.195695866986
44.655153022813
37.689560185221
33.341712435631
30.674162193855
29.084579784554
28.207376093804
27.845806063944
27.843358683771
28.194970624228
28.74696365461
29.467263849491
30.305879074765
31.213319941561
32.153568602758
33.096583242516
34.020729081054
34.910290367658
35.755878721529
36.55363709361
37.302361866428
38.002363154967
38.655773553802
39.265521131859
39.834529144785
40.365855092072
40.862822446154
41.328212016762
41.764790365981
42.174934590025
42.561027770628
42.925024307337
43.268791968885
43.593985152061
43.902090413602
44.194481767633
44.472358100078
44.736837733307
44.988915079915
45.229495861609
45.459408004884
45.679369641622
45.890096672693
46.092150296024
46.286150096377
46.472550871788
46.651883137389
46.824529557188
46.990925243854
47.151411933699
47.306342951426
47.456019684215
47.600731593507
47.740753359618
47.876328424396
48.007688408362
48.135044393008
48.258596405152
48.378530780065
48.49502226976
48.608232935061
48.718313749119
48.825406164697
48.929644155299
49.03115876032
49.130074737246
49.234775142492
50.194702311628
50.828275236406
51.232691196376
51.60072867882
51.940331735132
52.250850546551
52.533477996107
52.791085701852
53.027261575764
53.245634554432
53.449534109722
53.641857093962
53.8250473519
54.001197022507
54.172126514908
54.339475672552
54.483937448106
54.648657123365
54.813966593396
54.981339293215
55.152393233132
55.329058115751
55.513901507463
55.710571832081
55.92407984928
56.160344460877
56.424399994945
56.717453423466
57.0342034558
57.36204097492
57.682812487026
57.976612845259
58.226039132956
58.418204971344
58.546783974755
58.616296395549
58.644329450733
58.641507897709
58.632713178249
58.622517112809
58.613824568359
58.606757626167
58.602330754184
58.60114837251
58.60358567041
58.609765954921
58.619870444392
58.633768815653
58.651387807046
58.672515771824
58.696953708515
58.72442948858
58.754674218184
58.787408626314
58.822501649762
58.860316055378
58.901696815424
58.947763226008
58.999749850551
59.058648632108
59.125055574932
59.199105420012
59.280182249911
59.367163534198
59.458173777196
59.550415771155
59.639554761604
59.721264224237
59.793422670902
59.858603443919
59.935444398659
60.064297727197
68.491329602487
48.234940387095
38.444175084451
33.041227576205
30.258035691822
28.645777833474
27.854076359321
27.551771478908
27.582991340883
27.851640895632
28.371892816744
29.003913487524
29.744672692666
30.572763483089
31.453791814418
32.36529965885
33.279259459403
34.175287652175
35.040411472905
35.865866158675
36.646369418373
37.380194484128
38.068423370656
38.712224354356
39.313856201689
39.876251699107
40.402304403728
40.894660888899
41.35614897714
41.789399546188
42.196758118082
42.580351943299
42.942253272344
43.284155899483
43.607743833198
43.914415847725
44.205556580316
44.482298958807
44.745793040425
44.996964625096
45.236756588568
45.465931675101
45.68526998575
45.895400385387
46.09695315244
46.290470413068
46.476464992932
46.655409724315
46.827718170619
46.993808583815
47.154019995917
47.308710556283
47.458168368377
47.602689209543
47.742533857037
47.877951026559
48.009168377265
48.136396760017
48.259834906868
48.37966730328
48.496067109132
48.609195329596
48.719202536601
48.826229659127
48.930409481556
49.031874239932
49.130746500572
49.236440171929
50.207514684798
50.833638944905
51.237306261917
51.604934891702
51.944021019212
52.254032579254
52.536227790119
52.793486403167
53.029392679652
53.247564992427
53.451317568049
53.643530555977
53.826632374781
54.002700297221
54.173541989331
54.340786627168
54.485040626594
54.649623021409
54.814772190609
54.981954480993
55.15277703991
55.329153585826
55.513628628078
55.709822370389
55.922720405682
56.158236394868
56.421440230288
56.713629147188
57.029631467533
57.356967525954
57.677583204608
57.971587560522
58.221564720564
58.414600721331
58.544291177316
58.61492296756
58.643962437245
58.641481856622
58.632773804614
58.622648214347
58.613980397669
58.607079548552
58.603111204222
58.602691259737
58.606289049774
58.614114217091
58.626412460901
58.643109629497
58.664165261809
58.689370531229
58.718508143422
58.751268221962
58.787328068957
58.826333584138
58.868152791868
58.913355072297
58.963045548335
59.018643835274
59.081649746985
59.153150658747
59.233632647593
59.322925674924
59.419909616566
59.522868965029
59.629204761019
59.735109808252
59.835455718685
59.925336279062
60.002038061283
60.06950611638
60.148608357259
60.283093753034
53.630225920008
36.702584054484
30.673380741481
28.198859074963
27.281782725474
26.947270311498
26.983375154696
27.218125848616
27.608936493417
28.11343951349
28.697296603982
29.362008495318
30.103887109533
30.909120575765
31.757908388086
32.628653114024
33.503991532605
34.366186945698
35.201521512237
36.001261187967
36.760650934561
37.477488793029
38.150816900377
38.782509510106
39.37438931563
39.928657042702
40.447771327605
40.93450160252
41.391225481692
41.820402088466
42.224302306652
42.604958667202
42.964275091143
43.303977070474
43.625624725503
43.930623880833
44.220250473425
44.495690664913
44.757992208574
45.008117823664
45.246948792292
45.475276924395
45.693834008243
45.903262120866
46.104179545087
46.297111109288
46.482580463472
46.661027868215
46.832898424021
46.998572701362
47.158415542588
47.312759567395
47.461906721159
47.60614528106
47.745728560186
47.880905179682
48.011899790316
48.138925601632
48.262178160517
48.381840388798
48.498083893011
48.611069045966
48.720945967545
48.827854067455
48.931927452597
49.03329462883
49.132071167359
49.239159213903
50.224017753941
50.840659113052
51.243301167955
51.610375271188
51.948796565012
52.258154907912
52.539791166375
52.796599120629
53.032158289853
53.250072575894
53.45363677628
53.645709436464
53.828698506312
54.004661886315
54.175391026735
54.342502467843
54.486519357992
54.650920207256
54.815855548523
54.982783369734
55.153297170902
55.32928925702
55.513273381853
55.708832263794
55.920917696702
56.15543499083
56.417500877386
56.70853166222
57.023527619348
57.350182741434
57.670576578293
57.964839084666
58.215539278217
58.40972949377
58.540902793829
58.613038440833
58.643449169838
58.641451204342
58.632870605018
58.622842340581
58.61419868531
58.607556000325
58.604207118163
58.604835813653
58.610036698515
58.620153797383
58.635527690957
58.656186538603
58.68213942272
58.713199509139
58.749126774389
58.789559200025
58.834088993533
58.882245041035
58.933967734736
58.990131009164
59.052228648469
59.122106636695
59.201626580802
59.291946708856
59.393289886104
59.504915372925
59.624852312162
59.750417952093
59.877901180588
60.00215446567
60.117026099407
60.216835175488
60.298372482954
60.367760988886
60.448835096239
60.590097893077
26.703921299863
24.533836404152
24.767074972838
25.315931077159
25.846742624077
26.370633909972
26.877587272241
27.410547894695
27.94853244273
28.52996400422
29.147753742941
29.818529827255
30.54040736146
31.308646657388
32.11344544491
32.938921372849
33.769888405531
34.591470363739
35.391865568001
36.162150852407
36.896687307104
37.592626624172
38.249361062448
38.866811827525
39.446813733783
39.991277628114
40.502371588085
40.982208816721
41.43315955561
41.857505796699
42.257289160105
42.634406911445
42.990688592286
43.327780978291
43.647129253607
43.9501335405
44.238011427658
44.511906500563
44.772825477875
45.021738813381
45.25947460573
45.48682681941
45.704489104542
45.913124643661
46.113309397999
46.305582858767
46.490440323206
46.668334542324
46.839694568544
47.004895346261
47.164305867553
47.318246470757
47.467027403909
47.610923120617
47.750192149946
47.885075378521
48.015797152353
48.14256914284
48.265584671528
48.385026894133
48.501066579518
48.61386333902
48.723565452162
48.830311571969
48.934236620094
49.035464127305
49.134107035528
49.243235136636
50.243822958886
50.849308415798
51.250641280972
51.617007426766
51.954621062819
52.263186609041
52.544141957729
52.800402345959
53.035541061159
53.25314375894
53.456481441524
53.648386123502
53.831240228215
54.007077885686
54.177670887768
54.34462099079
54.488370913885
54.652548252814
54.817218446022
54.983829838457
55.153959291127
55.329472505035
55.512845305729
55.707613976861
55.918687619394
56.151959739574
56.412603909269
56.70218310333
57.015911003653
57.341699321802
57.661793929081
57.956360315614
58.207948609241
58.403565687661
58.536585336413
58.610606945608
58.642762690202
58.641409891347
58.633008338556
58.623107651232
58.614496399618
58.608212473827
58.605650921462
58.607633793787
58.614926040273
58.628054441946
58.64751617127
58.673491178032
58.706085465591
58.745162267382
58.790465764283
58.841559823254
58.897898550837
58.958866490222
59.024604744719
59.096417850735
59.176350397408
59.266813992768
59.370098522484
59.487323730802
59.618141285737
59.760713676609
59.9118092892
60.067399905032
60.222037087148
60.368963138723
60.500743200472
60.610827325939
60.696396528386
60.766033053088
60.847841126802
60.996495726905
26.005814602683
22.921005185705
24.12125491422
25.124112222152
25.944715363124
26.645694770546
27.247840700379
27.817244936498
28.380698383677
28.953975800959
29.555589512575
30.191130927033
30.86452534227
31.576413000536
32.322301208169
33.092509056772
33.873852897963
34.654015994398
35.420592778165
36.164563570666
36.879337224873
37.560836997886
38.206931770706
38.817509906741
39.39271849489
39.933971115741
40.443317398348
40.922540073597
41.373544155904
41.798348057154
42.199052154209
42.577422743536
42.935077961661
43.27361431668
43.594521984758
43.899105091738
44.188541080149
44.463980193038
44.726426328654
44.976810753828
45.215968351464
45.444697677233
45.663686263563
45.873587159408
46.074979932745
46.268417893347
46.454386906037
46.633345609852
46.805714455914
46.971884396713
47.132219935388
47.287044441677
47.43666784107
47.581368019044
47.721411389935
47.85703627669
47.988466190056
48.115913234077
48.239575583539
48.359639007985
48.476274530562
48.589642828383
48.69989450747
48.807169438318
48.911596336915
49.0133010001
49.112399711645
49.209552715582
49.99409335314
50.746914374736
51.163549945439
51.536091482336
51.880032614629
52.19485019845
52.481643698533
52.743075931402
52.982626781507
53.203901217157
53.410238145266
53.604555265574
53.789307781698
53.966579274963
54.138174838376
54.305711200446
54.490594083657
54.654507327084
54.818862924516
54.98509781687
55.154769464971
55.329711928692
55.512355865984
55.70618215898
55.916048552697
56.147833178161
56.406774758665
56.694607993371
57.006800584477
57.331529418095
57.65123743411
57.946143933699
58.198775294406
58.396072861482
58.531297983943
58.607597242926
58.64138667817
58.641325669532
58.633309884113
58.623654704233
58.615129636071
58.60954844295
58.608463601935
58.613023887484
58.624351355561
58.6433643649
58.670923319477
58.707568377721
58.753666901412
58.809244666197
58.874038344427
58.947455288549
59.028629902672
59.116727053063
59.212425496587
59.317954548497
59.436460602561
59.571443625492
59.7258180892
59.900137084563
60.092365351273
60.29817944273
60.511421407148
60.724864821506
60.929448580077
61.11579019474
61.274258570013
61.397730397433
61.485641268866
61.550911704972
61.630618197674
61.790896776389
34.289568560431
28.756379717287
28.465523091219
28.488224416624
28.659905726521
28.919294875245
29.254640511208
29.662859521729
30.081746702392
30.545122969324
31.050878726582
31.588794568804
32.160705132167
32.767242626457
33.405192291529
34.067931154091
34.745785052997
35.428674463897
36.107552407768
36.772969439009
37.418174762267
38.038732131147
38.631936763796
39.196413304906
39.732009728688
40.239236932706
40.718877210233
41.17206510075
41.600483756062
42.005645957003
42.389050799972
42.752053203066
43.09617691282
43.422720657937
43.732923786342
44.027896677291
44.308756666005
44.576480757634
44.831974409273
45.076048694311
45.309487463528
45.532999556859
45.747226694358
45.952748962325
46.150121859603
46.339852163515
46.522402584532
46.698195646989
46.867628682815
47.03107546641
47.188870849392
47.341329287723
47.488735567789
47.63136156026
47.769455447523
47.903248667405
48.032956240032
48.158777969571
48.280905367479
48.399516035066
48.514777283089
48.626844344908
48.735864165385
48.841972649287
48.945297639694
49.045957730498
49.144059807427
49.265517814762
50.321486341844
50.885124911126
51.280779598229
51.643783249543
51.978020546738
52.283394489911
52.561624616267
52.815714366909
53.049204226702
53.265599089003
53.468068934575
53.659334665024
53.841672443675
54.017021273886
54.187075303409
54.353380520519
54.496156272642
54.659425404882
54.823011347127
54.988321449044
55.156865528356
55.33040021609
55.511245665375
55.702746593262
55.909631413613
56.137733195365
56.392438921387
56.675896499541
56.98419922488
57.306191115703
57.624816318807
57.920459933352
58.175586877484
58.37694960021
58.517569799061
58.599514257006
58.638620327322
58.641024351798
58.633956284594
58.624750997251
58.616613513817
58.612300352073
58.613897443293
58.623274104151
58.642352253926
58.672975991744
58.716958075151
58.775871886673
58.850953851576
58.942837929091
59.051439641756
59.17592560974
59.314667797385
59.466758253709
59.634199322743
59.821555988927
60.03446079619
60.278018167483
60.554621500697
60.86118372744
61.189380855384
61.527408976924
61.861529932815
62.177125379534
62.460069129401
62.69751633361
62.879236710074
63.000137592064
63.065889788103
63.100070886051
63.160327867435
63.325423960349
37.748234870586
32.59800467152
31.926161316299
31.615847630099
31.470076738882
31.423432652409
31.482899587633
31.629048320874
31.855055364363
32.157165047474
32.503526981832
32.90380969127
33.350983298978
33.839389119797
34.361470690768
34.913337553174
35.487301023423
36.074668681268
36.667077569439
37.256857365929
37.83684581697
38.401386531895
38.946697848579
39.470372667243
39.971095047886
40.448523758134
40.902748379554
41.334358746743
41.744294756715
42.133494671761
42.503078090801
42.854248474367
43.1880705219
43.505656106595
43.807951466956
44.096001643603
44.370760236945
44.633087098034
44.883776303489
45.12358061973
45.353227198258
45.573343454778
45.784519193425
45.987297175053
46.182207531228
46.369712556864
46.550249771838
46.724216399754
46.891992727989
47.053927301211
47.210339873609
47.361527212325
47.507765478993
47.649315538829
47.786415118539
47.919287247566
48.048139730861
48.173169498368
48.294562299436
48.412489023702
48.527110456313
48.638578352872
48.747035433204
48.852617768812
48.955450326126
49.055641727345
49.153272849923
49.298859509552
50.38512311833
50.916963140772
51.30766609606
51.667203806631
51.99825387598
52.300806774183
52.57669469093
52.828954979106
53.061082654462
53.276498614404
53.478275225982
53.669031674633
53.850950949174
54.025892251243
54.19548654783
54.361236101619
54.503223424328
54.665702527596
54.828343960981
54.992513958802
55.159663456657
55.331453892436
55.510069931025
55.698688503434
55.90187291654
56.125387238505
56.3747783881
56.652684724965
56.955969672957
57.274325339938
57.591358569205
57.887708657353
58.145766055211
58.352033210005
58.499228876696
58.588242423214
58.63432790627
58.640254787678
58.634807834187
58.626384103505
58.618939014477
58.616232848793
58.621249950197
58.637070471564
58.666968012495
58.714451061386
58.783237213459
58.877067894476
58.99940059132
59.152781965883
59.338077645637
59.553985695818
59.79739145735
60.067030485934
60.367284977548
60.706585596479
61.092250659823
61.528191513156
62.01046892925
62.524204363142
63.047027571624
63.554681222189
64.024178237617
64.434019264615
64.767841232351
65.014883364813
65.170634175664
65.239382693415
65.23812022037
65.21256904457
65.235731074367
65.400971426168
40.275512120802
35.186311909904
34.40080141468
33.99820667466
33.742062393749
33.582237744775
33.493412593698
33.495191933048
33.579437361932
33.721424241455
33.94847282968
34.223211316955
34.540980715979
34.911308976581
35.327055577285
35.777333777961
36.254889838376
36.753066678463
37.263585966633
37.778965502802
38.292925208877
38.800102442936
39.295665738906
39.776469557847
40.240313813933
40.685907122449
41.112753382197
41.520795977863
41.910295316991
42.281776109617
42.635985528852
42.973723858648
43.295770672934
43.603000845074
43.896273751426
44.176380478299
44.444111865237
44.700161112605
44.945270778651
45.180125993391
45.405323266404
45.621443448474
45.829001314966
46.028538087355
46.220509279548
46.405352852122
46.583467093285
46.75523569109
46.921018878035
47.081132542249
47.235880026366
47.385538148467
47.530374823059
47.670636756251
47.806547525994
47.93832007837
48.066154159874
48.190243112907
48.310764414003
48.427882295706
48.541750754863
48.652514791351
48.760315580694
48.865280118362
48.967525109747
49.067162527191
49.164249130748
49.356181744546
50.454281567472
50.954179038473
51.339490590544
51.694831521421
52.021978843896
52.321164532548
52.594329690907
52.844508884679
53.075117300709
53.289459737641
53.490482501122
53.680680600621
53.862130168432
54.036601508373
54.205657994492
54.370755975866
54.511846377633
54.673397583861
54.834931263917
54.9977607915
55.163266730855
55.332999840095
55.508986859124
55.694207443184
55.893028307499
56.111109106665
56.35415180283
56.62534053802
56.922436876232
57.236158187722
57.550951281411
57.847822591968
58.109089534498
58.320965966395
58.475700582378
58.573087954729
58.627843496105
58.638600591313
58.635677540519
58.628522129735
58.622093422781
58.621221113405
58.630264530826
58.654073776724
58.698237210217
58.769166959447
58.874403195115
59.022256948322
59.221245378422
59.478532840141
59.797328121387
60.175433554205
60.606308740138
61.085439165935
61.618187060464
62.215069080221
62.881206966713
63.608273218765
64.370036145744
65.128230110391
65.845682040446
66.489516683997
67.034484822745
67.461450060897
67.76216312447
67.938144583913
67.998308982961
67.962608769849
67.866372080805
67.771248588023
67.762456859757
67.91762899977
42.519473233538
37.099840704249
36.267489770862
35.830042974488
35.539626512013
35.33063939337
35.186513204874
35.106292521611
35.101433668159
35.156499426684
35.266792460841
35.455202677064
35.691118249781
35.95154791775
36.269552153245
36.630145919363
37.022411253649
37.438774927531
37.874248270469
38.321066939132
38.77249957245
39.223320700252
39.669381117397
40.106665216809
40.532567851905
40.945260503604
41.34356767935
41.726809559062
42.094703654935
42.447336701286
42.78503252018
43.108249369709
43.417544616079
43.713541239411
43.996845610146
44.268077197223
44.527911851885
44.776967559342
45.01583502035
45.245103531283
45.46526340353
45.676848028259
45.880357745397
46.076221783503
46.264873986566
46.446681242468
46.622036260848
46.791296242048
46.954778316763
47.112785970699
47.265589010253
47.413463705716
47.556663003856
47.695414005201
47.829931303112
47.960411993091
48.087056984171
48.210046484068
48.329547882246
48.44571829259
48.558704262093
48.668648150352
48.775680850431
48.879923003846
48.981494278942
49.080506957814
49.177000809507
49.452964989759
50.527845475601
50.996816688092
51.376082091397
51.726517375976
52.049122400044
52.344439822045
52.614540239104
52.862425183735
53.091389544515
53.304585942686
53.50480347845
53.694393728086
53.875316341104
54.049247584617
54.217682413841
54.382031406433
54.522114958078
54.682602671344
54.842874116804
55.004174983371
55.167804232886
55.33518759523
55.508177160505
55.689532357085
55.883387325755
56.095259155449
56.330982481905
56.59431268452
56.884012713457
57.191997253737
57.503739891799
57.800764001285
58.065332642501
58.283324931338
58.446367254836
58.553271928061
58.618314286658
58.635368926897
58.636088251841
58.630867604894
58.625812050519
58.626859881762
58.640053034667
58.67280731025
58.734510219749
58.836786817549
58.993724053118
59.22223315878
59.54038159886
59.965096189825
60.506214025241
61.159345890954
61.902999621307
62.71827633044
63.604764704653
64.564843080515
65.585502332623
66.628769510176
67.633253776311
68.550839538272
69.348592636229
70.002751586483
70.501287926156
70.840874578935
71.028524085749
71.080489752623
71.019197355097
70.87597325323
70.701899430863
70.565865193814
70.538322542581
70.661775340331
44.862398337216
38.593353769398
37.751901641478
37.290292091145
36.989146505721
36.76226647589
36.597342516429
36.478777908144
36.42077500513
36.419854364284
36.468036166085
36.567508931112
36.736313241838
36.939673545708
37.17172698797
37.449378614572
37.769164877049
38.116662514496
38.484741798779
38.867897043382
39.261745379444
39.660287263645
40.05879176204
40.453901357546
40.842339418446
41.22186112409
41.59096121222
41.948636076274
42.294171664256
42.627180673218
42.947602793797
43.255586747324
43.551410401224
43.835441118566
44.108117234618
44.369917774226
44.621312117356
44.862775666495
45.094804760923
45.317927851417
45.532582283282
45.739204942235
45.938223845495
46.130002224256
46.314932014826
46.493390468851
46.665694832235
46.832165069956
46.993084465622
47.148729867345
47.299380575616
47.445268195061
47.586626072947
47.723669347149
47.856600635315
47.985624828725
48.110916664551
48.232648465701
48.350980299897
48.466061265098
48.578037290728
48.687037782157
48.793188405792
48.896611576804
48.997419865385
49.095723852781
49.191527561925
49.617145918584
50.602904413661
51.044766660049
51.417505500088
51.762298060043
52.079760881417
52.370762322821