/*--------------------------------*- C++ -*----------------------------------*\
| =========                 |                                                 |
| \\      /  F ield         | OpenFOAM: The Open Source CFD Toolbox           |
|  \\    /   O peration     | Version:  2312                                  |
|   \\  /    A nd           | Website:  www.openfoam.com                      |
|    \\/     M anipulation  |                                                 |
\*---------------------------------------------------------------------------*/
FoamFile
{
    version     2.0;
    format      ascii;
    arch        "LSB;label=32;scalar=64";
    class       volScalarField;
    location    "0.00017";
    object      dydt;
}
// * * * * * * * * * * * * * * * * * * * * * * * * * * * * * * * * * * * * * //

dimensions      [0 0 -1 0 0 0 0];

internalField   nonuniform List<scalar> 
109340
(
0
0
0
0
0
0
5.8513813862597e-08
0.0014192367387533
0.0090478047815532
0.026754057763434
0.058108179524503
0.10646510842227
0.17508695054886
0.26736028083865
0.38701661265062
0.53837899477912
0.72676420201594
0.95892088200537
1.2436215550522
1.5923339022313
2.0202606272965
2.5472905044332
3.1995058251599
4.0113034812013
5.0287899446699
6.3145299551956
7.955230165843
10.074105901174
12.851985582754
16.564952404247
21.65506927047
28.872171595517
39.574161368408
56.386682140703
84.698571429385
136.19087937976
0
0
0
0
0
0
2.4068549414696e-05
0.0022425630871912
0.01143504468919
0.031549089397172
0.066118160869067
0.11847169584891
0.19189589114474
0.28984841754399
0.41619182121842
0.57551750521739
0.77342027259574
1.0170849073562
1.3158984137694
1.6821885049798
2.132222047233
2.6872782724232
3.3752808896476
4.2331596952243
5.310548671031
6.6751359260465
8.421230598836
10.683848393842
13.663016511336
17.667708743375
23.200214754508
31.130249412722
43.082976223915
62.336806571101
96.257789755661
161.53544726325
0
0
0
0
0
0
1.0975645670541e-05
0.0019774355918751
0.01075205565711
0.030409195823706
0.064542304791249
0.11652758109532
0.18969393585888
0.28752790881806
0.41389336669143
0.57331395365644
0.77135183480695
1.0151269031432
1.3139846351726
1.6802062503916
2.1300622192491
2.6847946509204
3.3722817249376
4.2294148625394
5.3057740451131
6.6690167211653
8.4133928339602
10.673834943385
13.650271796826
17.651841950767
23.18203165649
31.117830600057
43.130846551723
62.727450797807
98.327941360528
172.60362643383
0
0
0
0
0
0
4.2781401985506e-06
0.0018005019960203
0.010358090192956
0.029854908382058
0.063901799878455
0.11585170091771
0.18899870055708
0.28678612408851
0.41304608278635
0.57228439259021
0.77003703812929
1.0134039354745
1.3117683361342
1.6773906081624
2.1267166044408
2.6810300034993
3.3682890136492
4.2255640294063
5.302570281775
6.6673108905623
8.4144900827188
10.679728330221
13.664077176391
17.678899731835
23.232368514368
31.213917952236
43.363808418251
63.501202306498
101.7361990263
192.44423599013
0
0
0
0
0
0
2.4587698278893e-06
0.0016987818516931
0.010033254174438
0.029217252208159
0.062887522401528
0.11441532426327
0.187114752226
0.28445158565128
0.41028373501659
0.56914580018277
0.76658914645715
1.0097199397459
1.3086005705927
1.6753545688603
2.1274178337544
2.6867843276935
3.3825384767161
4.2535593296232
5.3517883250457
6.7487098590849
8.5439189424949
10.880191338255
13.969376608172
18.140023374637
23.932001277621
32.277521539857
45.072329364902
66.622256357896
109.58117328693
231.70582704952
0
0
0
0
0
0
7.4668987641274e-05
0.0032245205464321
0.01489712104004
0.039501777100959
0.080896024245995
0.14271639299137
0.22865322672259
0.34275292246264
0.4897701596627
0.67557869667273
0.90763782489663
1.1951238603542
1.5487642945049
1.9911621530474
2.5446654633766
3.2399593364408
4.1178702940508
5.2325643596313
6.6566658449958
8.4889438984729
10.866357841851
13.983814310887
18.128487295125
23.743207149642
31.561437518787
42.796605593372
60.016974468207
89.060188514243
147.9775334238
346.99652124457
231.64792506303
388.19980202135
601.85795651611
855.09814818801
1131.3927098908
1450.247529869
1816.1839248336
2231.52310508
2693.5626514804
3191.2998499204
3738.8887141905
4207.4351755442
4639.1620688047
5009.8198467352
5283.2279615496
5473.2936324378
5581.091149052
5620.1629657273
5605.6766347092
5545.6854245913
5451.6012723852
5336.6358046499
5207.8908686395
5070.0167768911
4927.5227399162
4782.1954305039
4640.5311622423
4503.868046004
4364.1841295447
4237.1577914541
4107.0870964468
3988.1883535053
3870.7478329033
3760.3105790443
3654.1770931165
3552.8138654425
3456.2982715467
3363.9756972888
3275.7672377683
3192.0085349418
3111.1374531251
3035.1406193956
2960.976150642
2891.695214871
2823.6633329113
2760.2001486064
2697.8220537061
2639.3166939516
2582.1735601323
2527.7281284864
2475.5353835654
2425.277622869
2376.9869207079
2330.4899689554
2285.7248323891
2242.5949734142
2201.023459325
2160.9261262191
2122.2284853913
2084.8591150279
2048.7543388286
2013.8543481782
1980.1025814233
1947.4449765348
1915.8319609643
1885.2219946696
1855.5671286053
1824.9018417125
1914.4619877698
1408.9052497001
1269.4893501544
1180.7082227542
1101.9652114357
1031.6534527936
969.29241289154
914.12159846498
865.17850358022
821.47284984574
782.0965684343
746.24628818597
713.26061078203
682.59061460084
653.78646721284
626.47931578968
597.17148997565
572.11707747815
547.75377827575
523.85454898945
500.14522929496
476.29010014032
451.89834771561
426.58699989821
400.12166996655
372.58679477758
344.46662390276
316.5263394864
289.51865176231
263.93227692218
239.97854119762
217.7848245872
197.62703642814
180.07645853793
165.93116647014
155.78133469293
148.35337874272
145.52012920015
143.90598591367
142.8000073372
141.83356074776
140.86395078089
139.80226900043
138.62357399485
137.30370964183
135.90083857109
134.34994529277
132.68935254635
130.89090199965
128.97340558421
126.92455299819
124.75253952592
122.45503432687
120.03084334096
117.46018436248
114.72768232648
111.80281402709
108.66253114506
105.29755796757
101.72534894422
97.986646247722
94.145750465601
90.288461561287
86.508760062936
82.921529705265
79.653699749217
76.857757734634
74.728080853779
73.632910488222
74.104713448341
77.647894455987
88.092083744554
291.6531442494
497.71333357252
755.01850736909
1033.9126233312
1354.115451762
1705.3623014474
2100.2488496427
2535.5080411375
3002.0805499083
3488.6743593292
3975.7875793261
4446.0262743247
4822.6134915712
5134.3397587425
5371.1573318607
5524.5960547989
5605.8771784154
5624.3580672809
5591.2474567885
5519.0175911101
5418.4553876306
5298.0435092635
5165.2459592119
5025.6487972946
4882.9493907123
4739.8416056176
4598.4788062508
4460.2948997348
4326.0693174806
4196.4745562768
4071.98810204
3952.2164577883
3837.901321631
3728.3392790323
3623.9741793221
3524.0971886916
3428.9957413461
3338.0175421282
3251.3505600743
3168.4131783324
3089.3292777821
3013.5895699154
2941.2986339485
2872.0170079457
2805.7851266425
2742.2837623083
2681.4635728851
2623.128232521
2567.1377114793
2513.3830444887
2461.7255726
2412.0836561552
2364.3221579918
2318.3526826437
2274.0741399691
2231.4061184718
2190.265709177
2150.5756165928
2112.2634430183
2075.2609140257
2039.5044621094
2004.9349230592
1971.4974066725
1939.1400203412
1907.8121775568
1877.4636043364
1848.0448452498
1819.8944690591
1767.201181699
1358.9557215116
1245.5765177098
1159.8984804207
1083.3318639036
1015.0922176907
954.63887975196
901.14291428801
853.62390585658
811.10270847123
772.70012931815
737.64226020126
705.30089132546
675.15222159485
646.76998996698
619.80463339212
597.17295523626
572.1430507292
547.79250950109
523.90733554591
500.21288287726
476.37402419019
452.00025237505
426.70858320494
400.26393595067
372.74905998
344.64602049849
316.71849870982
289.71869257425
264.13550087231
240.18037604756
217.98047579739
197.8105215609
180.240564486
166.06885578007
155.88407054231
148.4134393549
145.55430033803
143.92238882949
142.80201966836
141.82285068746
140.84032073034
139.76603790831
138.57428146439
137.24006653364
135.81655960238
134.24391980307
132.55588571446
130.72774260773
128.77553336033
126.68849613083
124.47399202074
122.12996609761
119.65462232048
117.02882317637
114.23547140587
111.24437381512
108.03403170978
104.59805535451
100.95828883521
97.159953855118
93.271862130407
89.382859226166
85.590308120287
82.0099065131
78.769717061148
76.02110391684
73.958137091577
72.947579135735
73.514531805698
77.20668993003
87.906231544507
344.01180820526
629.2642347429
935.20708135418
1270.7797729652
1648.7028995763
2048.3693813884
2464.2985832257
2899.0921922155
3343.1092630293
3809.0437286205
4207.6856018886
4593.5795109807
4929.6530232723
5200.2122007949
5404.5658938546
5539.7182384346
5608.5133439275
5617.967173842
5580.0318987839
5506.6845526465
5406.12737496
5285.8523618982
5153.7588156557
5014.9470575474
4872.7511600276
4730.4109040474
4589.9792694521
4452.3824641356
4318.9001475494
4189.914178629
4065.9315869881
3946.8754876321
3832.8514871257
3723.8806899546
3619.712813616
3520.3338493054
3425.3799230525
3334.8001730644
3248.2646925102
3165.6499389707
3086.680454034
3011.2094975184
2939.0351377076
2869.9611948267
2803.8542353761
2740.5024820355
2679.8158454963
2621.5756235798
2565.7151768511
2512.0481376961
2460.4962058941
2410.9204152021
2363.2360633922
2317.3381335883
2273.1279153191
2230.5213873872
2189.4352149483
2149.795873434
2111.5309971285
2074.5729671852
2038.8577800472
2004.3265165142
1970.9245927559
1938.6005818168
1907.3027010018
1876.9807345094
1847.5856757412
1819.8063397391
1761.2409304637
1357.3687643653
1244.6946535986
1159.1290550682
1082.6799059255
1014.5516290351
954.18972789932
900.76393760601
853.30027281271
810.82338017424
772.45584042113
737.42635215311
705.10795317392
674.97897811616
646.61438191832
619.66726980741
597.06790471437
572.05275731809
547.72218270191
523.8572835599
500.1863337738
476.37524632657
452.03425585128
426.78041518891
400.37685892109
372.90211096935
344.83452026905
316.93471643829
289.95506804116
264.38673669513
240.44299756032
218.25089205972
198.08036955257
180.50235079223
166.30049043159
156.06237180855
148.52014033505
145.61532064505
143.95079225903
142.8041570076
141.80061533354
140.79153966587
139.6878738756
138.46653405876
137.09840223786
135.62935283618
134.00901628432
132.2616574872
130.36831679208
128.34036710783
126.16962602423
123.8617594452
121.41515576026
118.82734379185
116.08035604904
113.15306446134
110.01645058245
106.65342138385
103.0640179822
99.280127764802
95.357013856802
91.372935736728
87.42299953601
83.610651109078
80.052730426418
76.878572292889
74.235980570426
72.318836558865
71.486633524602
72.268359334246
76.280295782532
87.528022214476
465.7217387314
923.0802182815
1349.7356998708
1822.171442335
2234.8560524518
2668.9660526214
3070.7091074439
3458.6757247868
3836.9735941109
4213.2834429326
4501.6939250477
4797.798403938
5067.4564413595
5288.2826925838
5458.7251185938
5565.9104918518
5615.5296414469
5615.0042296397
5571.2630190979
5493.0072159621
5390.5057764062
5271.4489697932
5139.7150924074
5001.3141910796
4860.3878614182
4719.0970777532
4579.2723033902
4442.6412858395
4310.005757284
4181.8099800841
4058.4084170608
3940.1082998223
3826.6448628773
3718.1990220987
3614.5035354183
3515.5205510122
3420.9477181335
3330.7081811972
3244.4720154387
3162.1364595974
3083.4161777082
3008.1986430805
2936.2116272001
2867.357290506
2801.4069467323
2738.2448715314
2677.6849663504
2619.6039843364
2563.8629863783
2510.3233641598
2458.8812830544
2409.4060635934
2361.8147731429
2315.9982192793
2271.8715266908
2229.3400398249
2188.3246486869
2148.7502751013
2110.5451193181
2073.6424322699
2037.9792167576
2003.4970797044
1970.1411972803
1937.8594925968
1906.5979229772
1876.3109552916
1846.9593070679
1819.5512026221
1752.4964408485
1355.1860729406
1243.4402419186
1158.0361284313
1081.7505772775
1013.7769394796
953.54371438702
900.21909222195
852.83490694984
810.4215254276
772.10445109298
737.11540588835
704.82972092414
674.7286900409
646.38909482872
619.46673162411
596.90360715788
571.91286541952
547.61028161006
523.77636232588
500.14124626064
476.37244537428
452.08146533469
426.8853231274
400.54439424224
373.13120272287
345.11757226854
317.25964725621
290.3102075064
264.76401144585
240.83747490067
218.65757370942
198.48884123546
180.89447459929
166.64636654095
156.33303760323
148.6824836937
145.70833176834
143.99512884367
142.80957855661
141.77036978699
140.72244132851
139.57653966715
138.30781799836
136.88722957308
135.35412064913
133.65922863946
131.82520843449
129.83157650224
127.68949191047
125.39051365935
122.9403519555
120.33724159325
117.57733791652
114.64370474894
111.51156271032
108.15554519388
104.56511095094
100.75167543916
96.762935915239
92.668840280032
88.561455226637
84.543748434564
80.724868174274
77.221024485209
74.159279626925
71.68337985274
69.989344121802
69.403545468763
70.514109340636
74.990250829554
87.041856777003
886.07234163902
1720.0584921505
2405.8040462341
2958.2418995691
3332.2514739824
3657.5443826168
3918.7661200321
4160.8599191597
4380.4952770146
4588.9201784185
4810.50815616
5028.8084718658
5226.7563616886
5391.6827588851
5515.1733950525
5594.6736366232
5625.583790188
5611.3580207581
5559.9386658401
5478.7539891738
5374.3317401437
5253.2531572131
5123.096895324
4986.060943523
4845.8392371091
4705.4528878557
4567.0762894723
4431.4433704551
4299.6741822241
4172.3867884619
4049.8092139822
3932.1518041364
3819.4392404571
3711.5553334328
3608.4174918872
3509.8655435998
3415.7750408753
3325.8748904898
3240.0194503868
3157.98424592
3079.5822843388
3004.6102868843
2932.8899107427
2864.2553500869
2798.5197577231
2735.5472370133
2675.1631198043
2617.2525418766
2561.6544467917
2508.2608574087
2456.9410610213
2407.5918275457
2360.1067438873
2314.38790952
2270.3518200288
2227.9078918268
2186.9763384265
2147.4779849024
2109.3430497928
2072.5056103223
2036.9038382257
2002.4795034146
1969.1774864904
1936.9435564059
1905.7267474199
1875.4827844623
1846.1817384061
1819.3346992767
1740.9714660948
1352.4158363795
1241.8337761192
1156.6354261517
1080.5537986037
1012.7743463277
952.70527200573
899.51197848738
852.23088733093
809.89978271895
771.64791099818
736.71081211033
704.46720327895
674.40200184906
646.09465770017
619.20384679267
596.68275188821
571.72503210156
547.45925454366
523.66681930696
500.07964347239
476.36726672859
452.14295808723
427.02367868443
400.7662329832
373.43552163935
345.49429657
317.69257023152
290.78370570905
265.26697214374
241.36324725593
219.20002442827
199.03514258744
181.41951737272
167.11121474524
156.69871886093
148.90496051563
145.83755357281
144.05868466781
142.82133175692
141.73501455822
140.63590578386
139.43388165483
138.10310219353
136.61376463267
134.99528482124
133.202927751
131.2526546169
129.12560639681
126.82997997333
124.35860855566
121.71650741961
118.90205148147
115.91125195989
112.72632604949
109.32052520968
105.67504933362
101.79117703958
97.698469621393
93.466322436528
89.182924917176
84.955163930231
80.891104329486
77.100537137972
73.699074796551
70.810943949691
68.56741757132
67.163760505074
66.889790438092
68.421968567565
73.482811159041
86.550136667236
4223.9521981723
5007.9932821983
5052.4701028986
4919.7932647864
4836.0440125143
4789.7681741204
4799.288017108
4826.3984977428
4907.6240292768
5005.0762728343
5131.465830715
5260.9428535087
5386.4823843075
5496.1237987579
5576.7129098696
5623.1055796045
5632.3928680772
5605.5344315665
5546.3692906397
5460.7304385172
5354.817150363
5234.2644088657
5103.2593498498
4967.4775012293
4828.9105911116
4690.0078261039
4552.525519905
4418.3603073496
4287.87747756
4161.5758086385
4039.9288690552
3923.179578674
3811.2125808571
3703.9771579139
3601.4873431603
3503.4896533896
3409.8597061791
3320.3989088468
3234.9597180501
3153.2779067504
3075.2067534353
3000.5349842016
2929.1079565833
2860.7172016625
2795.2235434963
2732.46071466
2672.2867840659
2614.5531654789
2559.1256822771
2505.8883858172
2454.7147187317
2405.5020259478
2358.1378828813
2312.5335079832
2268.5993739684
2226.2536921078
2185.4134945405
2146.0007307584
2107.9462611633
2071.1841353491
2035.6526488968
2001.2931509052
1968.0506971799
1935.8711015666
1904.7077670456
1874.5218514743
1845.2645601621
1819.3481402477
1726.5178847429
1349.0694847313
1239.889240394
1154.943016158
1079.1015647787
1011.5519387095
951.68029684819
898.64697236811
851.49204508364
809.26112305966
771.08841262264
736.21408887353
704.0213992029
673.9995327439
645.73147780886
618.87909077424
596.40642838422
571.48960229107
547.26927227102
523.52833888417
500.00103116891
476.35926628796
452.21823719899
427.194779719
401.04151455458
373.81412970881
345.9638203079
318.23264600982
291.3744340555
265.89488278727
242.02095784798
219.87938228009
199.7201580295
182.0786542699
167.69686108268
157.16354337972
149.19380883009
146.00897005121
144.14758244497
142.84579791644
141.70130954989
140.53959903626
139.26897957362
137.86130640134
136.2863821081
134.56406216912
132.65064266378
130.55645224124
128.26188855812
125.77378647185
123.08547530874
120.2016242853
117.12307987941
113.84312057612
110.34230680448
106.59751777129
102.60220763758
98.375065277607
93.971535487769
89.488847066934
85.033204722442
80.716198365577
76.653833539103
72.959637184142
69.739210300346
67.099148673458
65.155561791903
64.088804980766
64.194359479771
66.212301748019
71.946571385108
86.189551660013
17932.353364823
10797.856381338
8405.9787204994
7114.7376899796
6340.4073958738
5873.4899902033
5624.1176420159
5484.2808162799
5417.9027624708
5404.7006245375
5424.2174691513
5468.5081337007
5524.892725821
5581.2596612541
5625.3417247737
5647.2117380973
5642.7750266211
5609.2652627535
5548.40259358
5463.7926492247
5360.0791641777
5242.0599266814
5114.3973253434
4979.9159911812
4843.1975612604
4706.2311220763
4569.9803612284
4436.1636589159
4306.0075724005
4180.1361297128
4058.466884794
3941.3565773911
3829.1208768878
3721.6100302895
3618.6513697189
3520.1649342236
3426.0795196681
3336.1253366757
3250.1500829719
3167.970024286
3089.4182760512
3014.2643648385
2942.3571321858
2873.5157135689
2807.5928410998
2744.4055346781
2683.8222355018
2625.6953163468
2569.900049898
2516.3038791969
2464.7868150328
2415.2423778126
2367.5654818293
2321.6629293079
2277.4375600445
2234.8096696763
2193.7006345218
2154.0354544772
2115.7399771168
2078.7452341432
2042.9899362462
2008.4160622995
1974.9706251132
1942.6017042213
1911.2557768695
1880.8814857468
1851.4419414015
1820.6943288156
1868.1527598224
1388.5002607742
1260.4820225826
1173.2265328808
1095.5007608403
1026.1953470333
964.71367321625
910.25549306665
861.87959547874
818.62779038802
779.61443307468
744.05508339569
711.30563041733
680.83614041317
652.21082942353
625.07802404476
596.07502206379
571.20710630668
547.04094316686
523.36144736433
499.90545263809
476.34785942652
452.30630153159
427.39749226295
401.36906718586
374.26570476823
346.52467117262
318.87879987156
292.08230294128
266.64809004326
242.81003917711
220.69474692221
200.5433847238
182.87250970646
168.40331069754
157.72320946151
149.74538994381
146.34023321301
144.32506934711
142.90522826901
141.65553762705
140.38308362199
138.99178046453
137.44902808541
135.72204452452
133.81437340986
131.68305917569
129.32925352122
126.73128479645
123.89351231378
120.81163899066
117.49211464791
113.9341451914
110.13111004367
106.06537159194
101.72551863498
97.130986729921
92.338923478032
87.460189148758
82.632136278412
77.988479757595
73.665522813574
69.766420987362
66.374005646538
63.564265945016
61.414487560324
59.997453405451
59.493275803318
60.243554879173
63.046485582646
69.883258277477
86.081875267152
11155.076461714
12571.188258727
10530.737646666
9124.9182448721
8127.2645141001
7415.976273536
6890.198202299
6488.5807491581
6249.733387581
6068.7549863349
5934.2405628103
5847.9722861091
5792.606514661
5754.4212239189
5721.3378462462
5682.7229784201
5632.2668171996
5566.6451743301
5484.0485314223
5385.9034682056
5275.0295168964
5154.3053594316
5026.7645296308
4895.2965690767
4761.8649655617
4628.0763135348
4496.120830213
4367.2158415541
4241.3762670171
4119.3657708851
4001.5023302253
3888.2761135664
3779.3664033899
3674.9062068923
3574.8031364085
3479.0724109862
3387.4208044171
3299.72735665
3215.8277820264
3135.6068070365
3058.8407377542
2985.3522785838
2914.9774521015
2847.5784619562
2782.9831896207
2721.0361736963
2661.5988850591
2604.5462095703
2549.7517979085
2497.087369688
2446.4444327726
2397.7162737671
2350.8085273943
2305.6254783214
2262.079517583
2220.0888750081
2179.5777839046
2140.4765021513
2102.7149889122
2066.2271881185
2030.9511960821
1996.8293809513
1963.8096329278
1931.8409910564
1900.8809246831
1870.879921447
1841.7921896637
1821.3443107927
1669.1247991441
1336.357144404
1232.1134987068
1148.222398706
1073.324262887
1006.6598897903
947.55968820467
895.15990722341
848.50931079303
806.67574883497
768.81385220218
734.18518209493
702.19291004447
672.34284135734
644.23291552531
617.53656545165
595.2472039419
570.50040973853
546.4685257868
522.94130013082
499.66198920552
476.31280900463
452.51746530124
427.8928990436
402.174775788
375.38107866802
347.91494677862
320.48518687024
293.84513615696
268.52581115881
244.77826912124
222.73027029715
202.60265329428
184.86882589376
170.20369228393
159.18669444295
150.77314670532
146.99494125133
144.71324835608
143.0944970716
141.67034277498
140.21622404869
138.62649501303
136.86167046392
134.88429956622
132.67431240749
130.18012299892
127.38404254715
124.25706256465
120.78986300244
116.97912266284
112.844830406
108.40400793099
103.66323645782
98.632635415511
93.352046613665
87.930407413932
82.518409836975
77.314967234398
72.509393240419
68.221135083496
64.533063040699
61.461361918983
59.004306349254
57.155826315683
55.930759993367
55.391800354671
55.714739934083
57.316748598031
61.095610016801
69.374309849078
88.108060305948
8617.7232830056
10987.138658771
10272.724021003
9349.759391705
8576.6519909818
7965.5334818451
7463.812887978
7060.5705320397
6726.395936872
6461.9232217729
6260.2232420098
6084.4169769416
5953.4654501994
5848.8743561035
5763.3952198325
5684.4351809821
5604.1757537806
5518.0878962331
5423.3143474062
5319.0950265184
5206.0433894691
5086.0928802424
4961.1780414669
4833.2777501344
4704.1800289535
4575.2814119504
4447.8639364843
4322.8243896737
4200.784489512
4082.5133652291
3968.1321725193
3857.781208973
3751.5811972049
3649.5029909269
3551.7007919027
3457.9169351297
3368.0427729131
3281.9283938537
3199.4948367859
3120.5629153389
3044.9421770631
2972.4904083328
2903.0683548221
2836.5362290884
2772.7107247349
2711.4704277138
2652.6743878614
2596.2115615158
2541.9508039618
2489.7750909207
2439.5793776007
2391.2646566206
2344.7392776053
2299.9069420863
2256.68545548
2214.9956732731
2174.7644734686
2135.9226867443
2098.3998685921
2062.1346284932
2027.0671099244
1993.1412851582
1960.3044988885
1928.5088937562
1897.710061335
1867.8587543621
1838.8857713369
1828.9582494738
1619.8220902315
1326.1338014844
1225.3486728277
1142.4256562299
1068.369114809
1002.4619521287
944.01282754284
892.14766108511
845.92212120023
804.42107905671
766.8170323979
732.3929670901
700.56946491678
670.86629316967
642.89377952719
616.33451357083
594.19836403063
569.60276070651
545.73934961219
522.40241487113
499.34368600573
476.25427562899
452.76562320188
428.49566896556
403.16686252695
376.76447566595
349.64938813518
322.4981944599
296.06091419149
270.88992243214
247.25817499937
225.29762334984
205.20721259699
187.41129333809
172.53057086092
161.12805491976
152.19521710714
147.95552898378
145.33580849559
143.46865579149
141.83396188123
140.16764794381
138.34270115787
136.3214930396
134.05329355722
131.48628170229
128.54426555267
125.16691737067
121.30998913991
116.98130519936
112.21037763597
107.04023189638
101.54543221233
95.778995897044
89.847808165776
83.926262582496
78.190393400616
72.921618168878
68.385340929097
64.704079250275
61.866865750769
59.759402818529
58.251210668731
57.212801582437
56.547098711056
56.228946307895
56.339592497246
57.153540466189
59.183072342775
63.575868646029
73.012702885071
93.620293785391
7508.1821560553
9239.1023332698
9360.9721164861
8879.015905911
8346.8253202162
7882.7583492595
7477.9672609864
7128.3915155175
6819.9040110401
6562.4803784752
6338.8080993039
6158.2139406393
5997.9610705148
5866.2098170492
5750.7124669888
5646.7905754779
5547.8792259032
5448.2910164003
5345.4230719183
5237.7865864043
5124.730795522
5006.7417378318
4885.3259283619
4761.8084089901
4637.5637681181
4513.7596562708
4391.2820973353
4270.9925483761
4153.5453255884
4039.3462000679
3928.6899986897
3821.7886222007
3718.7875817944
3619.6537318254
3524.3663044541
3432.8279909801
3344.9922006832
3260.8464754222
3180.128351502
3102.7178100367
3028.479874742
2957.2861527934
2889.0253470461
2823.5019046465
2760.6103803495
2700.2072840818
2642.1927207032
2586.4327929325
2532.8078556352
2481.2177220932
2431.5559625774
2383.7379863744
2337.6655553877
2293.2503103144
2250.4136755911
2209.0800695684
2169.1820861429
2130.6458944589
2093.4064879325
2057.4028411002
2022.5777339827
1988.8797991394
1956.2604464623
1924.6679272849
1894.0550391013
1864.3744460866
1835.5269044621
1847.142480539
1565.6572658581
1314.4992958949
1217.3989128204
1135.6360691171
1062.583988236
997.56778860561
939.87243987978
888.61996643498
842.87795982428
801.75367663765
764.44052380358
730.24944105198
698.62032357544
669.08875284005
641.27849506954
614.88211042206
592.923870536
568.50904024143
544.84703722799
521.73711682828
498.94073480071
476.15926884095
453.03403511678
429.18568050386
404.32134319678
378.39066028819
351.70472906224
324.89890146155
298.71397004285
273.72674539069
250.23656797583
228.38395923748
208.34738981316
190.49829512948
175.39864079466
163.58588171405
154.07352191759
149.29273696086
146.26653310741
144.1060891828
142.23179918426
140.32739930207
138.24683912053
135.93740681081
133.33316364842
130.34143868351
126.83771555502
122.72826522927
117.95073282316
112.57214396711
106.67575415992
100.39673307451
93.981454485269
87.597456465871
81.462642832444
75.887176771235
71.245754214493
67.831176530818
65.740348018613
64.819614569161
64.744834136677
65.118986287186
65.618368274726
65.972905156378
66.050447827578
65.892478309329
65.733151863797
66.075651289011
67.700976342107
72.083583321863
82.011412945822
102.7427502236
7050.3702629806
7911.7463957093
8357.9883166853
8231.9144197593
7901.9220518157
7567.6176857108
7254.6156530896
6975.7353921089
6710.6404091957
6486.8829573971
6282.6558292318
6103.4195974961
5930.0181944543
5804.3174907183
5680.3564312001
5568.2051311817
5459.9280814153
5355.683876597
5249.8674222483
5141.7930867205
5030.9277856811
4916.8813907573
4800.3147351031
4682.1707042703
4563.4814099199
4445.2026884906
4328.1389661139
4212.9640699166
4100.3050973097
3990.5934250667
3884.1139526676
3781.0347438162
3681.4600140849
3585.4486808646
3493.0382696751
3404.1643249418
3318.7301831089
3236.6787218264
3157.8522822474
3082.1702932797
3009.5572914548
2939.8069863345
2872.8177548773
2808.4707463359
2746.6345916767
2687.2324233132
2630.1047094111
2575.1539657137
2522.273331796
2471.3585054105
2422.3320683811
2375.0873444799
2329.5415918124
2285.6120061191
2243.2239468042
2202.3114710763
2162.7953905585
2124.6127570335
2087.7005919902
2052.0001103823
2017.4593175162
1984.0262394067
1951.6480527407
1920.2754914297
1889.860720114
1860.36761324
1831.6292481443
1876.7286289977
1511.6848627112
1302.1123363764
1208.3641290787
1127.8923265576
1055.99348392
991.99351796756
935.14918002938
884.58093237422
839.37527936766
798.66674030572
761.67586823019
727.74526061193
696.33584920009
667.00077051048
639.37788573955
613.17036269897
591.41538745829
567.21058795175
543.78217897423
520.93428764208
498.43947254697
476.01183493408
453.30391202155
429.93935069286
405.61126873028
380.23153199918
354.05396813294
327.66361377853
301.78504541783
277.0196381719
253.69732348042
231.97391258821
212.00899812056
194.122228513
178.81440966975
166.58990810588
156.4706409844
151.08793906437
147.59400358191
145.0998086254
142.96568145276
140.81235310362
138.45677198192
135.83100292271
132.85200166805
129.38129763407
125.23955435589
120.27722469395
114.31722777806
107.66861327233
100.67708323848
93.732264958211
87.275644804199
81.60253949916
77.039029161489
74.040003505635
73.009437186241
74.041090420746
76.714349574764
80.258686435317
83.995016639551
87.162935893391
89.184716582151
89.774343660642
89.021534640333
87.27819860925
85.197757093135
83.679462573881
83.949133035468
87.512816322347
96.653579491095
114.54630052746
6976.8034297602
6945.9601219927
7446.4435415925
7558.9338018802
7400.4900225754
7171.4714727552
6935.796897844
6719.0642204981
6501.467277078
6310.185251899
6133.912314223
5966.8102083225
5817.7063786618
5689.5885369293
5571.3668539503
5458.7407511577
5350.1072345134
5244.3649167995
5139.7437039055
5034.6204341187
4927.5375038154
4818.3411181137
4707.4508300818
4595.3737617099
4482.8392256307
4370.6040139563
4259.3790337081
4149.7689660644
4042.2631203196
3937.3064707477
3835.2025839334
3736.1546870048
3640.2864850646
3547.6567180605
3458.3011116043
3372.2075061892
3289.3350159217
3209.6116440162
3132.9382291756
3059.2127844393
2988.3113344996
2920.1135188209
2854.5575119942
2791.5400537233
2730.9138164752
2672.5837862067
2616.4454663874
2562.3939509089
2510.356023648
2460.2231737843
2411.8949928492
2365.3012283232
2320.3498020061
2276.9753634878
2235.1051593954
2194.6598613013
2155.5798485746
2117.7972873045
2081.2570726254
2045.9063470201
2011.6874674615
1978.5493579617
1946.4423929728
1915.3220298444
1885.1488862573
1855.879804838
1827.2881129968
1917.8851087338
1462.2313830024
1288.9357471393
1198.242319267
1119.2077255052
1048.6018572245
985.73476195025
929.8317538703
880.01517420673
835.39590551975
795.14066861113
758.50442631974
724.86297186235
693.69956419126
664.5870092972
637.17767438252
611.18587200811
589.66056229079
565.69503053261
542.53159272926
519.97991610201
497.82476637006
475.7934107177
453.55146612223
430.72807618072
407.00483440908
382.25325303465
356.66443258579
330.76350158724
305.25016005509
280.74721953448