/*--------------------------------*- C++ -*----------------------------------*\
| =========                 |                                                 |
| \\      /  F ield         | OpenFOAM: The Open Source CFD Toolbox           |
|  \\    /   O peration     | Version:  2312                                  |
|   \\  /    A nd           | Website:  www.openfoam.com                      |
|    \\/     M anipulation  |                                                 |
\*---------------------------------------------------------------------------*/
FoamFile
{
    version     2.0;
    format      ascii;
    arch        "LSB;label=32;scalar=64";
    class       volScalarField;
    location    "0.00017";
    object      k;
}
// * * * * * * * * * * * * * * * * * * * * * * * * * * * * * * * * * * * * * //

dimensions      [0 2 -2 0 0 0 0];

internalField   nonuniform List<scalar> 
109340
(
6.9102454577982
6.9065758462478
6.9081860569677
6.9109729277542
6.9112735481393
6.9075626924084
6.8993118956374
6.8870608023382
6.8716417662249
6.8527612132152
6.8305531174678
6.805226871682
6.7769919418184
6.7460476437395
6.7125821876638
6.6767772612347
6.6388097688531
6.5988521248767
6.5570736004287
6.5136388186652
6.4687057624278
6.422423206569
6.3749290677665
6.3263485528343
6.2767918283652
6.2263505863326
6.1750926874792
6.123055023095
6.0702334528671
6.0165662037359
5.961905304308
5.9059622756683
5.848188792618
5.7874679344907
5.7212081147714
5.642862021897
6.9056818680571
6.9045147422616
6.9058146183716
6.9059215592663
6.9026920902562
6.8954853601543
6.8841762481924
6.8684397199245
6.8485328930466
6.824866353958
6.7977007964346
6.7672695146068
6.7338077070552
6.6975494924237
6.6587263774928
6.6175654214144
6.5742903344632
6.5291219526022
6.4822784462261
6.4339730550361
6.3844103791182
6.3337807670258
6.2822568909355
6.2299911915481
6.1771128334119
6.1237228711001
6.0698895138389
6.0156416824235
5.9609571664565
5.9057446549929
5.8498094670688
5.7927866900116
5.7339885984404
5.6719980675903
5.60353305005
5.5202854769012
6.9002902309459
6.9004699786151
6.9005604259252
6.8976536835388
6.890294860366
6.8779402813331
6.8603826042786
6.8377411048492
6.8102742627141
6.7783653468564
6.7424011515222
6.7027490748059
6.6597742683857
6.6138419693973
6.5653155683536
6.5145549635271
6.4619143683049
6.407748255874
6.3524122896834
6.2962454855735
6.2395619080262
6.1826308987893
6.1256829978152
6.0689122326154
6.0124586028288
5.9564165221058
5.900845288793
5.8457395014222
5.7910457934515
5.7366349300853
5.682261064222
5.6275094599729
5.5716014942712
5.5129350522402
5.4477882155943
5.3662055228715
6.8892010826931
6.8946816751646
6.8930826263175
6.8836904011738
6.8663293707012
6.8410492164723
6.8081565596532
6.7681149663833
6.7215501562332
6.6692259511908
6.6119858015594
6.550700924974
6.486243753084
6.4194665368143
6.3512086042066
6.2822840025604
6.2134845917226
6.1457546621236
6.0798047349416
6.0162467272127
5.955550764962
5.8979888060173
5.8436594182694
5.792569727732
5.7446676077043
5.699852460853
5.6578570597146
5.6185915925517
5.581899452859
5.5475828826067
5.515326181869
5.4845952653041
5.4543242064151
5.4221141247593
5.3817166096007
5.313956738524
6.8768301966214
6.9038454896771
6.9107809670413
6.8974262926715
6.8631613394289
6.8094768814395
6.7395836058841
6.6575662860711
6.567855868925
6.4748566680593
6.382625665528
6.2950291520787
6.2154086466333
6.1467592705408
6.09182685916
6.0532033441496
6.0334391863566
6.0357831357779
6.0605563149384
6.1051389481865
6.1658841703744
6.2397412205855
6.3243267044082
6.4178199719595
6.5188047974358
6.6261456019169
6.7388823461148
6.8561680687056
6.9780430295575
7.1037322151346
7.2314366036657
7.3587916586738
7.4824757190373
7.5954071591722
7.6777013421516
7.6561629922298
8.3369461421394
12.369339582696
15.807622354469
18.424969804469
20.230741642827
21.355859603594
21.963613563307
22.203093960368
22.190968612773
22.022273803519
21.751946808359
21.422611907811
21.063247955167
20.693178859149
20.325206423082
19.968297019467
19.628182392735
19.308611741794
19.013190720179
18.745516354532
18.501082945077
18.276986452736
18.07174682035
17.884553181325
17.714844338562
17.56219548293
17.426321670768
17.307118118997
17.204725392238
17.119633903643
17.052926990239
17.00680669783
16.984632026357
16.994182940461
17.043820297141
17.124656470655
5.5389418852193
5.3993726385972
5.2226381334613
5.0089496391634
4.7594774955345
4.4731600784329
4.1544192565401
3.8106226094041
3.4514559627376
3.0929656411973
2.751988541925
2.4632965302172
2.2183569968844
1.9912751791919
1.7838910518073
1.5958270484298
1.4291461884715
1.2831214292171
1.1556901455633
1.0453792334485
0.94995356523606
0.86676991562903
0.79432644615811
0.73133060122446
0.67631853276676
0.62837153571662
0.58514287764041
0.54639319968372
0.5134575814281
0.4816630148871
0.45561481220293
0.42987824703352
0.40829421005113
0.38723612923063
0.36901166190555
0.35143066919417
0.33601117999276
0.3210743026844
0.30805285347197
0.29519935840263
0.28417699258956
0.27299505418442
0.26353420589237
0.25376175783637
0.24546695723265
0.23697711298607
0.22955547087834
0.22231803511948
0.21551986084215
0.20922408557487
0.20309248974213
0.19737215934275
0.19193161804737
0.1867720420124
0.18185927049345
0.17718624101408
0.17273690002561
0.16850586213478
0.16448109496707
0.16064960757037
0.15699480651703
0.15350069004043
0.15015252009929
0.14693857786712
0.14385007950349
0.14088092202166
0.13802518224274
0.76458517829969
3578.9383536581
3538.7465568964
2269.9833639324
1551.5718376947
1122.2481195653
850.77101530562
670.90916596187
546.67375041857
457.5946392206
391.52743638205
340.97954865095
301.19085723754
269.05066136356
242.48509850816
220.0776779291
200.84383560706
182.08288143168
167.51672376387
154.51878071287
142.83084535339
132.2727997688
122.72655830738
114.13037008855
106.47373523599
99.780032954878
94.060087145322
89.220804688879
84.95823770794
80.721203025046
75.810100143292
69.50536801353
61.37908934908
51.554707343558
40.844533974443
30.619544648447
22.278303353096
15.495289987646
12.624808304345
10.987527338821
10.081604593702
9.5975738913608
9.3657585716884
9.2883620931669
9.2995742351118
9.4115838160339
9.5848238429889
9.7968867585627
10.016225626991
10.221134846575
10.399529896239
10.542762998732
10.646746104506
10.708260394057
10.726527523357
10.69605119031
10.615959038347
10.507569224953
10.390558549784
10.278784537569
10.176149640737
10.081342626403
9.991974268003
9.906338714628
9.8236739811829
9.7435276164651
9.6645750693862
9.5846316359645
9.5030956272932
9.4218896593344
9.345677013321
9.2808022999482
9.2370612151166
5.4051528565297
5.2449550498654
5.0342908276629
4.7794386631709
4.483064820728
4.1520784167434
3.7960626073982
3.4258213663296
3.0530129806836
2.6889322231074
2.3447550649125
2.0299488597678
1.7593300035258
1.5275904783101
1.3339360052469
1.1764499418176
1.0502242944244
0.94956965821013
0.8659764248617
0.79563264717929
0.73563866204832
0.68385639572961
0.63868293318189
0.59877102105633
0.5630447327467
0.53078233900701
0.50145693696313
0.47443458485895
0.44968886235308
0.42697540608277
0.40610103583235
0.38702950603718
0.36931783211935
0.35303616037909
0.33781712077657
0.32377463261402
0.31062215374065
0.29848023186825
0.28710527859519
0.27658444188907
0.26670409423662
0.25751477003385
0.24884408468454
0.24071500267623
0.23304116449806
0.22580703624403
0.2189957657068
0.2125522142703
0.20648978987483
0.20073204387764
0.19527858509144
0.19007429434434
0.18512096253652
0.18039520488865
0.17588700461804
0.17158556859897
0.16748385792554
0.16357367939241
0.15984462664356
0.15628466954762
0.15288015537898
0.14961697993119
0.14648194148867
0.14346456088142
0.14055798315454
0.13775893510212
0.13486968569402
18.619860435716
4569.7717691614
3145.1186188151
2047.6924457079
1421.2868460213
1041.175155817
797.82021768237
634.81102673846
521.10112330075
438.8404237566
377.32678292524
329.90565764588
292.3201783415
261.77254196256
236.38670389966
214.87401091729
196.33432206851
182.01954363898
167.46508206576
154.47457054775
142.79267896416
132.23954062184
122.69697755581
114.10318528056
106.44765585501
99.753965534245
94.033512293194
89.194064684097
84.9330656606
80.700959258946
75.799522940213
69.50947913685
61.401183226676
51.593865842969
40.893499822972
30.66936753859
22.319229041874
15.513900810376
12.627442020059
10.979054627305
10.065397897994
9.5752161420157
9.3377539306695
9.2556676146187
9.2614786812002
9.3661960261757
9.5325695085417
9.7372542116263
9.949420964704
10.147785416186
10.320293149688
10.458421022761
10.557866738003
10.615373543637
10.630789946117
10.597846994268
10.517533224748
10.410458612248
10.295727830055
10.186430173561
10.086119056408
9.9936857212586
9.9069173446085
9.824107076611
9.7445508816131
9.6678601476483
9.5927740466898
9.5173160812365
9.4411145672675
9.3657922491732
9.2949103306199
9.2340744488229
9.1929440922775
5.2460535348012
5.0677956598767
4.8326007773427
4.5518199957984
4.2358335594688
3.8978969336446
3.5479464318736
3.1951334863336
2.8489706500495
2.5125767178213
2.206560282337
1.9248660769881
1.6752389823053
1.4591328757216
1.275063994308
1.1215020528652
0.99515651730016
0.89146415108875
0.80369018240932
0.72919868162075
0.66609872198878
0.61272729521618
0.56729967886566
0.52841108330447
0.49495123167178
0.46581468079067
0.44012426915198
0.41731332136639
0.39683907069578
0.37843022470676
0.36172905515957
0.34655969670803
0.33265129776807
0.31974252567023
0.30771873007962
0.29640871996505
0.28578221590607
0.27576991677132
0.26638512979731
0.25756223829713
0.24927066884799
0.24145333177576
0.23405050895784
0.22705068277961
0.22038877106889
0.21409399285904
0.20810144418238
0.20244577328016
0.19705729949781
0.19194660681579
0.18706648381756
0.18240760993387
0.17794427882568
0.17366462041947
0.16956752475774
0.16564560096885
0.16189589957323
0.15831073373319
0.15488270842294
0.15160184121909
0.14845672715129
0.14543481835987
0.14252432439446
0.13971587552586
0.13700387706573
0.13438827037194
0.13160075827468
20.675920146186
4576.9334805791
3134.0447477433
2041.0524629884
1417.1229664518
1038.4783210196
796.00539022942
633.54320847841
520.18988101195
438.1661911674
376.81062584794
329.49665741092
291.98627367442
261.49381632039
236.15087102247
214.67337605677
196.16358156055
181.8893461303
167.3571596686
154.38505562616
142.71925092971
132.1799361805
122.64884482188
114.06403240288
106.41493083442
99.72553548279
94.00829435865
89.172752670685
84.919489986933
80.702321831618
75.825591600158
69.570621342615
61.503842073496
51.735386317784
41.057052316454
30.83129331567
22.453439443855
15.587202237215
12.656013880981
10.974844638184
10.037833151134
9.5298697953769
9.2775655596955
9.1833063656623
9.1786045007292
9.2678271144408
9.4206043944818
9.6116126800293
9.8111064444641
9.9980573680675
10.16024842588
10.289194346836
10.380243606984
10.430089065461
10.439525051811
10.400505980045
10.318309830538
10.212624403565
10.101563712367
9.9967516511435
9.9009357482052
9.8131814172945
9.7314940759351
9.6542489329205
9.5808578620739
9.5109420644385
9.4434098763837
9.3767308647492
9.3110709117896
9.2474435774707
9.1879053049453
9.1364392651075
9.1021311997749
5.1633908836
4.9024084644353
4.5616463995563
4.1937119323357
3.8451511870383
3.5075685859402
3.1867467855071
2.8800775345929
2.5866734651375
2.3053437493483
2.0523343835762
1.8128025124291
1.5938358795504
1.4000091924131
1.2305110493977
1.0862158407949
0.96558503290476
0.8645262931858
0.77785395489985
0.70369797008927
0.63996129507583
0.58507285526675
0.53813970480815
0.49779143448526
0.46289504742391
0.43267886660051
0.40641999422798
0.3833869911336
0.36304942307297
0.34502836052172
0.32899347349265
0.31459408750969
0.30163668947286
0.28982792391649
0.27903401790945
0.26907459895058
0.259893179628
0.25136793454292
0.2434750001131
0.23610453824832
0.22924234506286
0.22277508124319
0.21667328584435
0.21085242711352
0.20530159126411
0.19998945114036
0.19492465972843
0.19010002194944
0.18549031118728
0.18109322952345
0.17687159417283
0.17282503253588
0.16892582859614
0.16517263605152
0.16155861688773
0.15808574485026
0.15475272127606
0.15155558579437
0.14848963395785
0.14554653737051
0.14271638676268
0.13998832273206
0.13735246046373
0.13480107649449
0.13233058275684
0.12994254845785
0.12737715213049
23.874803427623
4576.5650243088
3116.2907082399
2031.0994154429
1411.0346838566
1034.5760582941
793.39440898721
631.72456287379
518.88274669932
437.19743068229
376.06742424108
328.90684256802
291.5043491893
261.09138455575
235.81030672046
214.38367773929
195.91743723915
181.69384230901
167.19428640351
154.25082460766
142.61022285683
132.092751353
122.5800225974
114.00990668372
106.37179872
99.69023861548
93.979137193626
89.150823185156
84.910554127051
80.716987176864
75.878524986332
69.677100442181
61.673332143061
51.964429566483
41.323087453966
31.095202047163
22.671792734768
15.710581144393
12.70871598948
10.974926607077
10.000143562413
9.4635586182819
9.1876272324226
9.073271304881
9.0536858913411
9.1197559635052
9.2520900433888
9.4228306421084
9.6039316647157
9.77416413044
9.9214048978826
10.03690048776
10.115611777154
10.154283384794
10.154229629389
10.106720528795
10.022403311343
9.9194303478511
9.814244665589
9.7163794215548
9.6278528734931
9.54780702956
9.4744988963817
9.4066773545647
9.3436791555891
9.2849730911138
9.2296456076503
9.1771747386977
9.127846137278
9.0814721253124
9.0384367547999
9.0013569075937
8.977205386894
7.0918981579699
5.8855010449485
4.79182407264
4.0385500914736
3.4923347288478
3.0573413219809
2.7456866616251
2.5180248025636
2.3118689761647
2.1026536294752
1.8952710989719
1.6959086259547
1.5111302086593
1.3426351348259
1.1914438135706
1.0585439754451
0.94450508917998
0.84612543284091
0.76112565891644
0.68788708665067
0.62491354378732
0.5707292131021
0.52365388856808
0.48291242576291
0.44752236212906
0.41662859879013
0.38952025114774
0.36574466563372
0.34479030507232
0.32623060536946
0.3097641688401
0.29508801338291
0.28193742433315
0.27009696310164
0.2593696760532
0.24960914444801
0.24068436283409
0.23252306527508
0.22502590102713
0.21812296818572
0.21174149612632
0.20581353443206
0.20027702592726
0.19506716944014
0.19015862095178
0.18551318549289
0.18112917737143
0.17697157458288
0.17303102890689
0.16927729325907
0.16568527507344
0.16223123924
0.15889790196144
0.15567586128788
0.15255525508477
0.14954271907537
0.14663942039628
0.14384680422401
0.14116097412573
0.13857498982208
0.13608028356298
0.13366762486907
0.13132866295675
0.12905703064396
0.12685049511155
0.12471011324269
0.12241040259235
28.596589998749
4571.9269373979
3092.3486479107
2017.8467824613
1403.031603409
1029.4865657867
790.00715325732
629.3721620101
517.19196771718
435.94176434759
375.10175213949
328.13900849416
290.87622961007
260.56653045011
235.36596159704
214.00558783741
195.59619244567
181.43338161881
166.97684966474
154.07179142244
142.46513974737
131.97715927397
122.4893326264
113.93930930746
106.31647157588
99.64600813082
93.943587084638
89.125384141403
84.902776343293
80.740893999227
75.95339823423
69.823220463173
61.903645188802
52.275594661465
41.687169099376
31.458606239149
22.973695100769
15.886654724581
12.788478239013
10.981983090984
9.9547243535908
9.3783472586669
9.0695871162413
8.9272760585898
8.8874666719854
8.9238599603642
9.0285584344677
9.1723245646652
9.3291215793219
9.4771820922933
9.604663373246
9.7022935466735
9.7645834161083
9.7894077848509
9.7754616514559
9.718798222103
9.6334449746974
9.535662231672
9.4393719916724
9.3518145194673
9.2744429329813
9.2063852823916
9.1462512675343
9.0932129808431
9.0463119880518
9.0047165299424
8.9679471242756
8.9363727253807
8.9095719322561
8.8858562286877
8.8639569127577
8.8455505720136
8.8339237228712
11.402775837821
7.578840735858
5.79790335905
4.5695019810802
3.7182600794507
3.1205315697043
2.6729147796762
2.3435480750432
2.0825524593211
1.8969515658495
1.7500980703728
1.5970084877583
1.4393906294646
1.2890791709836
1.1537380671811
1.0335544691223
0.92682897576272
0.83206470472793
0.74909614575568
0.67699425649739
0.61459591945442
0.56071048826892
0.51424306079819
0.4737213309877
0.43835214950885
0.4073638095733
0.38012514672867
0.35599393273717
0.33464009723907
0.31568918817637
0.29879641075561
0.28368385870438
0.27014759138511
0.25797743014166
0.24696020298298
0.23698240789597
0.22791430914604
0.21966257553138
0.21212127929956
0.20523071817385
0.1988986690947
0.19306583766698
0.18765652605853
0.18262541068561
0.17791864546629
0.17350876053107
0.16937423728857
0.16549355206789
0.16184556391863
0.15839498964866
0.15512300016024
0.15200113563463
0.14901583224593
0.14615023614804
0.14339565476334
0.14074779782769
0.13820390894159
0.13576253233892
0.1334189446638
0.1311643124546
0.12898841929813
0.12688109653
0.12483216342118
0.12283477778558
0.12088862984767
0.11899621668912
0.11696826664444
35.394356171188
4563.3281662254
3062.9046058001
2001.4520431934
1393.1751367569
1023.2454114345
785.86955932616
626.50581490176
515.13131964248
434.4077915921
373.91884656709
327.19640224521
290.10402820709
259.92071620331
234.81890086988
213.53985097401
195.20025158968
181.10811314236
166.70487724189
153.84768119437
142.28354106891
131.83255712822
122.37597522697
113.8512589983
106.24783662642
99.591621542849
93.90035422454
89.094969102812
84.89436959966
80.771740235912
76.047235739963
70.005470308385
62.191121398554
52.665593984235
42.146986748134
31.921831269863
23.361464974521
16.121506056326
12.900740028567
11.00063063311
9.9051994512542
9.2772760144972
8.9261585309993
8.7473531436703
8.6801889606327
8.6826835686446
8.7518860227583
8.8620478116268
8.9883668411596
9.1087339190004
9.2114882036778
9.2868174785818
9.3289815115328
9.3369924315673
9.3063567629444
9.2418323704837
9.1580627799369
9.0691808336304
8.9857635083541
8.9131876612146
8.8525201806312
8.8025404435726
8.7625240466107
8.7315793455488
8.7084506094054
8.6922284696532
8.6824018250448
8.6791091125051
8.6809536934243
8.6847229591159
8.6877760918449
8.6911282186626
8.6932419076179
6.3610405815253
6.8164041439208
5.1302313215901
4.3970436955377
3.7611102196014
3.2342589159616
2.8245564417697
2.4958874642491
2.1735816874409
1.9095713572141
1.7014794891598
1.5353426217331
1.4079902852563
1.2833950336642
1.1569591570569
1.0393065655631
0.93355138422286
0.84022694227818
0.75796965619903
0.68535819443773
0.62177717771356
0.56644063221125
0.51839769334704
0.47680637172053
0.44040574063101
0.40841687470174
0.38032775953928
0.35550753782798
0.33344912001538
0.31375214436488
0.2961838228575
0.28044945452105
0.26627275315978
0.25348340509423
0.24192785331213
0.23145127368424
0.2219177139295
0.21325557142431
0.20536297603151
0.19815362100315
0.19154420577797
0.18548243935975
0.17989395721277
0.17472460531381
0.16991840455816
0.16544894680588
0.1612824887761
0.15739739635965
0.15376648893916
0.15036326822091
0.14716280230308
0.14413528947454
0.14126206582719
0.13852488661005
0.13591569449129
0.13342484792386
0.13104575792948
0.12877430623107
0.12660565566737
0.12453302193443
0.12254585652227
0.12063294689247
0.11878353766689
0.11699005471343
0.11524654878612
0.1135516084284
0.11190503683253
2.0873095761998
4203.4225746136
3398.9729263918
2190.2167972453
1503.860928994
1092.1509162476
830.95754511188
657.28444547062
536.95931022971
450.4353709995
386.06474912604
336.66715490995
297.68332906952
266.13176024446
240.01891290547
217.9795532245
199.05771724733
180.71837169314
166.37854087099
153.57834021482
142.06494924347
131.6582560156
122.2391990601
113.74499217321
106.16506460698
99.526189327788
93.848556027777
89.058585291992
84.883992281258
80.807689699713
76.157664493285
70.22085583289
62.532328583262
53.131036143976
42.700265370302
32.486124708567
23.839079999485
16.584912151359
13.133419716913
11.056067753421
9.8300274300869
9.1038433037879
8.6729080893539
8.4249709023384
8.2964526078571
8.2484401693881
8.24927686624
8.2977306228998
8.3672730057744
8.4362485359865
8.4932695799052
8.527831178029
8.536182274408
8.5134525994206
8.459219868353
8.3876019942797
8.3125497981942
8.2443962876077
8.1889996410867
8.1494783058902
8.127171119345
8.1221314938299
8.1312457716207
8.1517001350947
8.1822209014817
8.2206208673026
8.2651378963642
8.3143154238807
8.3654469620884
8.414070416669
8.458688328321
8.49749242258
8.5214559305466
4.1626284617387
3.4200322997943
3.1716406237676
2.932955991059
2.7932165435419
2.6350718200967
2.4564555970144
2.2844330888706
2.112612468266
1.9380967363613
1.7374821293436
1.5042331776871
1.3289436497952
1.1859784983264
1.072132417657
0.9761452672231
0.88288161767987
0.79734169347202
0.72085548183688
0.65378243608651
0.59525972116502
0.54397207966372
0.49880388264991
0.45900196095495
0.42399315338487
0.3932193484538
0.36600834209533
0.34184083622038
0.32043695239507
0.30135461309147
0.2842541197644
0.26879571202244
0.25484483158786
0.2421930569697
0.23068948876552
0.22018014397794
0.21060112737255
0.20185293124063
0.19384529997619
0.18648400038844
0.1797162134571
0.17348470643764
0.16773477787675
0.16240967276594
0.15747399535326
0.15289406465782
0.14864026967277
0.14468299739201
0.14099755598759
0.13756154982989
0.13434622462756
0.13132808899806
0.12848408709758
0.12580091478137
0.12326686078976
0.12087301367483
0.11861098772643
0.116471327065
0.1144469273128
0.11252873841864
0.11070696234862
0.10897033267057
0.10730852047243
0.10571367671076
0.10417914618985
0.10270245394123
0.10121141247624
81.174082933264
4502.2791608885
2945.2467791945
1935.1141741586
1353.4666869115
998.16392075469
769.2874295544
615.04206492057
506.87379816656
428.22817872708
369.12518524148
323.35739918094
286.94767747565
257.27445180506
232.57344984092
211.62506646774
193.56940387697
179.74681969372
165.56334543395
152.90364137702
141.51546768692
131.2183246436
121.8924405873
113.47443549263
105.95373521357
99.3589679647
93.716036293113
88.964213002192
84.852589291029
80.888119925741
76.418603571921
70.738459234033
63.361206101735
54.273022473801
44.074420138344
33.914376689609
25.095279378932
17.47231067278
13.632788729875
11.24088190864
9.7748091224311
8.8639692035314
8.285569977707
7.9110725226171
7.668278519005
7.5139850524859
7.418968279734
7.3641602189795
7.3339644293493
7.314609632197
7.2962767162736
7.2687624271342
7.224781731842
7.1645724600325
7.1008916226802
7.0486267920549
7.0186661535654
7.0149016040003
7.0407160798854
7.0962478790243
7.1822744616556
7.2942439570348
7.4239898263727
7.5643154447784
7.707429978549
7.8496359489239
7.9904579767283
8.1266575636931
8.2534837307994
8.3681085362863
8.4668822578269
8.5475252015675
8.5946764953909
3.6623251407706
2.035752773384
2.0915058155208
2.0226948613428
1.9979530838194
1.9807891339688
1.9644579891782
1.9196405287568
1.8703794720417
1.7905247580196
1.6941298488553
1.5731704219039
1.3919389020233
1.2025794787775
1.0612593257051
0.94723230423818
0.85458084466915
0.77926701538037
0.70823280517072
0.64385672800751
0.58665526943946
0.53626536795809
0.49206799193513
0.45328768760464
0.41908940651365
0.38875021150116
0.36172776231151
0.33764057596373
0.31618299351015
0.29698492742002
0.27977139984473
0.26430220678488
0.25032730443185
0.23766220478633
0.22609813141302
0.2155492164551
0.20591118417613
0.19708408241759
0.18896186229403
0.18147161103173
0.17456251554594
0.16817231538534
0.16224839300719
0.1567446701503
0.15163683420783
0.14688504859799
0.14246040402445
0.13833132117167
0.13447864464146
0.13087993721827
0.12751113603935
0.12434866005314
0.12137308541102
0.11857265058646
0.11593520075167
0.11345151326304
0.11111146327982
0.10890594717145
0.10682657459655
0.10486275696061
0.10300480330275
0.10124298263554
0.099568235986141
0.097972773339048
0.096450331905097
0.094996187855027
0.09381391880573
190.95238100469
4425.5812994628
2844.3950909957
1877.9736058541
1319.4558936849
976.73903206531
755.11620209592
605.22957506508
499.77639974283
422.88247981219
364.94992961642
319.99333714751
284.16883545585
254.93673853296
230.58473851758
209.92524395069
192.11793507576
178.52106595231
164.53184048917
152.04647927607
140.81369133578
130.65278118013
121.44331836434
113.12131926424
105.67610118634
99.138193482358
93.539979103316
88.835469554166
84.799380343498
80.968470080903
76.715913618091
71.348464014509
64.356770266301
55.666613730999
45.781972802532
35.736778521648
26.765530881955
18.742660072145
14.433245840446
11.635926463762
9.846515042404
8.6792766702849
7.8963250007624
7.3514327499158
6.9588843657566
6.6682431729638
6.4459451177477
6.2703305823734
6.1294368708256
6.0160105517776
5.9240056810259
5.8461894775833
5.7794902239708
5.7308162928187
5.7137718844217
5.7357888674694
5.8068372884009
5.9348235218933
6.1188213357439
6.35124491299
6.617864571197
6.9044517663903
7.2039555505654
7.5054520663408
7.7983157116034
8.0741347900813
8.325309110209
8.5451198530123
8.7301024413956
8.8742576643947
8.9830138436432
9.0735750669029
9.1235143219193
3.4050214637166
1.553633821058
1.4751102275475
1.4821350928467
1.4887196154261
1.5095893365075
1.5316058276128
1.5476058688203
1.5524384636837
1.5518302397969
1.5212444363184
1.4633493116537
1.3942437990171
1.2711318326371
1.1005186688458
0.95993511005271
0.85252813790004
0.76562010415879
0.69373032498146
0.63484993668678
0.58063332708398
0.53180005176802
0.48820240515278
0.44958889304732
0.41554881175888
0.38550324402493
0.35885001913201
0.33507553049444
0.31378061862554
0.29464819749565
0.27741773920406
0.26186001888147
0.24775918302288
0.23496055255194
0.2233294411379
0.21273826007127
0.20306858218097
0.19418573083724
0.18602746043941
0.17851255694928
0.17156306491167
0.16511724804587
0.15911643429654
0.15354230455638
0.14835081016213
0.14351230257133
0.13898845970395
0.1347574518408
0.13079904031878
0.12708814814412
0.12360478435768
0.12032546265624
0.11723692249959
0.11432678728907
0.11158347335439
0.1089970402857
0.10655699498072
0.10425621356176
0.10208471425323
0.10003282852864
0.098090995711977
0.096250180185603
0.094503373393374
0.09284351570087
0.09126417194931
0.089760428434483
0.089223708310222
417.96913677613
4287.8166228826
2727.6798628769
1811.9844627775
1280.1570591035
952.01027829666
738.74066343626
593.8558534793
491.51306961772
416.62464299889
360.03565348107
316.01449959999
280.86924980657
252.15288811216
228.21113762308
207.8923417825
190.37799918991
177.04265186005
163.28339038058
151.00437877231
139.95551751015
129.95621184657
120.88560695559
112.67912251593
105.32581863376
98.858315883562
93.314926703223
88.665878195386
84.715187310052
81.034447488006
77.027624201252
72.019381186317
65.479172780419
57.268454325447
47.785371845639
37.937892411349
28.873379082911
20.472337735046
15.642264671282
12.362391346459
10.166560140657
8.6683066842815
7.6059751105422
6.8324633949532
6.2470930967731
5.7893858667516
5.4233793544488
5.1284741706435
4.89520389229
4.7189078386811
4.594567048137
4.5166582799459
4.4856958585533
4.5104916680475
4.6097635335096
4.7892610421781
5.0487171621825
5.3852256194961
5.7942671751665
6.2724983617894
6.8021110260912
7.3544561996077
7.8893556850198
8.3781349320413
8.8040246849197
9.163130619162
9.4542702790745
9.6778712823527
9.8363405712186
9.9321883374543
9.9949883445178
10.062767600818
10.10528807909
3.5079510614601
1.360826692033
1.143702423572
1.1387311982651
1.1576903839475
1.1866102478247
1.2199212028819
1.2526786540664
1.2837307851316
1.3005303084884
1.3181610918738
1.3109923630364
1.2733292085993
1.2303603875322
1.1419186179586
1.0146149732527
0.87657161161808
0.77455001462778
0.69425293188177
0.62870385443134
0.57375945517392
0.52774798842057
0.48576008174189
0.44791134617497
0.41406569451438
0.38395453682812
0.35720426784329
0.33340409701704
0.31216300542635
0.29314100927535
0.2760218606365
0.26051712080084
0.24641858941775
0.23357521692678
0.22185338883284
0.2111440643427
0.20136288310019
0.19240534497349
0.1841853811498
0.17661984056456
0.16961311363113
0.16312418672321
0.15710326439788
0.151500913353
0.14628327888932
0.1414013644198
0.13683829199624
0.132564200108
0.1285521444569
0.12478163280171
0.12122751831456
0.11787887650628
0.11472040781807
0.11173883846518
0.10892301178132
0.10626139949456
0.10374909339412
0.10137461298995
0.099128121453609
0.097000182495819
0.094981872629035
0.093067147493237
0.091249085552777
0.089519863522397
0.087874444411514
0.086308449730285
0.089344190233435
922.04493807156
4103.0928239642
2597.6490708812
1738.3623675858
1236.1741989513
924.27697264927
720.33107283788
581.02110182797
482.14219238111
409.48946437488
354.40317763986
311.4335505295
277.05672781256
248.92804136755
225.45604743905
205.52839931235
188.3503651762
175.31058929976
161.81574030877
149.77356504546
138.93584869041
129.12256225999
120.21253822405
112.14058611132
104.89603645676
98.512677533052
93.034730174717
88.448900024863
84.590450930849
81.071811818558
77.330434717021
72.716922604292
66.68338938418
59.026774367219
50.035428937956
40.484795704738
31.418871309253
22.714666006923
17.360796456109
13.555353133698
10.887531922556
8.9834075695788
7.576631833444
6.5006946951081
5.6682924453662
5.0125852702003
4.4964077867977
4.099728334749
3.8127466404185
3.627713304045
3.5329527987399
3.5121716093039
3.587152951583
3.7850636986076
4.081899642644
4.4680812625693
4.9796207327426
5.6405697647861
6.4320870689993
7.2856771857586
8.1291158099721
8.906710817133
9.5757788996127
10.117007113885
10.531759640506
10.835168131197
11.044724636785
11.174712270116
11.236675356405
11.255310101685
11.26981894284
11.316512789238
11.349593691229
4.1924743772182
1.2283114203603
0.98095902263915
0.91719190164833
0.93235190481719
0.96086906331322
0.99740549800817
1.0300766573595
1.0701746734528
1.0973117790208
1.1223035229404
1.150865583267
1.1478807605196
1.1145066839867
1.0897060474786
1.0256443971901
0.92724473837616
0.80568201398928
0.70921605706987
0.63470631405261
0.57470291207437
0.52508398645784
0.4828545905632
0.44647919049714
0.41347294516737
0.38369438871493
0.35695458459024
0.33302122506182
0.31161018178932
0.2924160786868
0.27519705686444
0.25969612196917
0.24562204703795
0.23278791427693
0.22106755760359
0.2103493169335
0.20052020885609
0.19148067403482