/*--------------------------------*- C++ -*----------------------------------*\
| =========                 |                                                 |
| \\      /  F ield         | OpenFOAM: The Open Source CFD Toolbox           |
|  \\    /   O peration     | Version:  2312                                  |
|   \\  /    A nd           | Website:  www.openfoam.com                      |
|    \\/     M anipulation  |                                                 |
\*---------------------------------------------------------------------------*/
FoamFile
{
    version     2.0;
    format      ascii;
    arch        "LSB;label=32;scalar=64";
    class       volScalarField;
    location    "0.00017";
    object      nut;
}
// * * * * * * * * * * * * * * * * * * * * * * * * * * * * * * * * * * * * * //

dimensions      [0 2 -1 0 0 0 0];

internalField   nonuniform List<scalar> 
109340
(
0.00071887868764496
0.0004929975280168
0.00026604957836272
0.00022233676614025
0.000215376815502
0.00021978249435706
0.0002279726443599
0.00024230025671303
0.00021118117618898
0.0001878389917497
0.00016936532515336
0.00015429639505985
0.00014174171978361
0.00013110940640862
0.00012198470352548
0.0001140662070201
0.00010712875827161
0.00010100040730665
9.5547406860211e-05
9.0664076341485e-05
8.6265752281258e-05
8.2283760502874e-05
7.8661764217056e-05
7.535307256947e-05
7.2318632370221e-05
6.9525506163539e-05
6.6945697848984e-05
6.4555233162003e-05
6.2333423083507e-05
6.0262251301961e-05
5.8325834340035e-05
5.6509885853002e-05
5.4801026829741e-05
5.3185497820958e-05
5.1645637590058e-05
5.0151292640777e-05
0.00071052560795097
0.00034454869827211
0.00025240803799512
0.00023089945455553
0.00022934979012965
0.00023391819611856
0.00020944663337767
0.00018219655503695
0.00016102365328237
0.0001442614591586
0.00013069075099604
0.00011948637419129
0.00011008193712954
0.00010207778824468
9.5184222110761e-05
8.9186162495886e-05
8.392060690363e-05
7.9261768613429e-05
7.5111024014161e-05
7.1389904740164e-05
6.8035096277131e-05
6.4994875573137e-05
6.2226557042687e-05
5.9694633164863e-05
5.7369364705714e-05
5.5225681466431e-05
5.3242321955595e-05
5.1401137353015e-05
4.968651175956e-05
4.8084885354943e-05
4.6584332440453e-05
4.5174153060156e-05
4.3844438699309e-05
4.2585534484785e-05
4.1387145207149e-05
4.0232844043571e-05
0.00041730283324055
0.00029406378938132
0.0002534655680204
0.00023791833532079
0.00019033202570169
0.00015867969526157
0.00013572723161223
0.00011842973769326
0.00010498632234662
9.4282870012836e-05
8.558497710517e-05
7.8390810935611e-05
7.2348960414269e-05
6.720759470253e-05
6.2782242164251e-05
5.8935029655143e-05
5.5561007882433e-05
5.2578936179184e-05
4.9924761355352e-05
4.7546849956618e-05
4.5402948858374e-05
4.3458369413439e-05
4.1684711422203e-05
4.005874950914e-05
3.8561330666741e-05
3.7176600580851e-05
3.5891397702865e-05
3.469455938381e-05
3.3576646147167e-05
3.2529523323968e-05
3.1546057010506e-05
3.0619959396947e-05
2.9745448674594e-05
2.8917725736316e-05
2.813508927725e-05
2.7399348612365e-05
0.00023981557382745
0.00024224887987513
0.00015203328835229
0.00011067905696853
8.7066193350308e-05
7.1818600632979e-05
6.119174447307e-05
5.3379082499056e-05
4.7405454814534e-05
4.2698566001181e-05
3.8900613377396e-05
3.5776189245338e-05
3.3164096621613e-05
3.0950397466746e-05
2.9052498681206e-05
2.7409180057032e-05
2.5974003215055e-05
2.4710580756996e-05
2.3586371701984e-05
2.2573512404749e-05
2.1651293709923e-05
2.0805066801772e-05
2.0024256037325e-05
1.9301043505271e-05
1.8629414582336e-05
1.8004522977435e-05
1.7421931158462e-05
1.6878428417488e-05
1.6371142536644e-05
1.5897531900716e-05
1.5455019368656e-05
1.5039828289446e-05
1.4646012566538e-05
1.4268658989576e-05
1.3909407118028e-05
1.3581781091386e-05
0.00014442238335327
4.7212212537055e-05
2.8708506870397e-05
2.081946151899e-05
1.6472201901109e-05
1.3743212076685e-05
1.1886849071327e-05
1.0552931678371e-05
9.5552628866703e-06
8.7866162488589e-06
8.1813215042552e-06
7.6977328545752e-06
7.3082698560101e-06
6.9943557929279e-06
6.7433588761083e-06
6.5464372486642e-06
6.3957726722403e-06
6.2782779737948e-06
6.1725146340594e-06
6.0669861619479e-06
5.9606984758954e-06
5.8570930318409e-06
5.7598296942393e-06
5.6714254485212e-06
5.5932805751569e-06
5.5260963668347e-06
5.4700522257161e-06
5.4250212233377e-06
5.3913736481639e-06
5.3688597260187e-06
5.3565134406294e-06
5.35355530207e-06
5.3591609834623e-06
5.3718444741867e-06
5.3871726821381e-06
5.3969996801179e-06
3.6369556163041e-07
5.428500662076e-07
6.9845879337292e-07
8.1987089978766e-07
9.066536880494e-07
9.6388162365309e-07
9.9828431463465e-07
1.0161635271925e-06
1.0225342065605e-06
1.021557681639e-06
1.0156420040814e-06
1.0066851213359e-06
9.9599246852521e-07
9.8444546069185e-07
9.7263604352915e-07
9.6098584470212e-07
9.4976966010192e-07
9.3917191370728e-07
9.2938134375104e-07
9.2063111410008e-07
9.1272037634405e-07
9.0551929977325e-07
8.9896218377093e-07
8.9301162447565e-07
8.8763693519893e-07
8.8280674748013e-07
8.7848689330574e-07
8.7463929227981e-07
8.7121847539172e-07
8.6816606185236e-07
8.6540339810706e-07
8.6279616052118e-07
8.6012870588719e-07
8.5689416419237e-07
8.5114539127871e-07
8.3329606036962e-07
4.5048447635059e-05
2.4925481891307e-05
1.4070998617646e-05
9.2348305178332e-06
6.6960122129864e-06
5.040673131794e-06
3.8720434102726e-06
3.0121525958454e-06
2.4289247022301e-06
2.1717288888868e-06
2.239521663088e-06
2.7888760794553e-06
3.2838470490912e-06
3.8015521532431e-06
4.2210781245002e-06
4.5566110765469e-06
4.8489046744408e-06
5.0879073444594e-06
5.3027588517384e-06
5.5269430509308e-06
5.719227535801e-06
5.8783742338736e-06
5.8980131102203e-06
5.6468611363056e-06
5.4179787729829e-06
5.2106738828187e-06
5.0168194759148e-06
4.8367816558054e-06
4.6794240174792e-06
4.5224488688622e-06
4.3904218296024e-06
4.256065644562e-06
4.1406110552722e-06
4.0250443796973e-06
3.9228048933369e-06
3.8219270885735e-06
3.7316649300496e-06
3.6423018116169e-06
3.5629224206286e-06
3.4828018116043e-06
3.4129351653577e-06
3.3404994309619e-06
3.27834050553e-06
3.2128481013852e-06
3.156588012185e-06
3.0979604727681e-06
3.046056546657e-06
2.9946397524379e-06
2.9456228352243e-06
2.8995873006266e-06
2.8541204539492e-06
2.8111403142358e-06
2.7697669686809e-06
2.7300867816493e-06
2.6918782381175e-06
2.6551244990253e-06
2.6197259588215e-06
2.5856682450082e-06
2.5528842404874e-06
2.5213062388778e-06
2.4908385786727e-06
2.4613910690306e-06
2.4328840252735e-06
2.4052597843437e-06
2.3784768588641e-06
2.3525025588517e-06
2.3272784974166e-06
7.5362299692398e-06
0.00039551524749262
0.0004775113375532
0.00042118443819845
0.00038005956778778
0.00035020325862935
0.0003284581047419
0.00031252422804436
0.00030063822647272
0.00029159140878626
0.00028454598535763
0.00027889922080763
0.00027421696820424
0.00027018022786822
0.00026656001490954
0.00026319559885503
0.00025998277366485
0.0002564521474289
0.0002533891142881
0.0002503927426396
0.00024750158254348
0.00024480595480489
0.00024246183632365
0.00024070490412837
0.00023984813855079
0.00024023349797411
0.00024209508418215
0.00024530509036433
0.00024908648377368
0.00025192865270375
0.00025185757927976
0.00024669375369436
0.00023482609583337
0.00021602976611962
0.00019195730133483
0.00016602943879969
0.00014198667966706
0.00011738821361705
0.0001033400695994
9.3605277814543e-05
8.7384796753082e-05
8.3603517567706e-05
8.1361031778939e-05
7.9899834702591e-05
7.8936075453591e-05
7.8661710181198e-05
7.8787726089696e-05
7.9191390624047e-05
7.9685519806796e-05
8.0151847740544e-05
8.0537147971892e-05
8.08023435663e-05
8.0929421051816e-05
8.0910867633789e-05
8.0768996305119e-05
8.0461090569217e-05
7.993806992447e-05
7.9322366917987e-05
7.8691719865493e-05
7.8097345437172e-05
7.7550915135262e-05
7.704647994276e-05
7.6573932230953e-05
7.6126606343737e-05
7.5700944016861e-05
7.5293756470073e-05
7.4898120091773e-05
7.4504254381886e-05
7.4112276667259e-05
7.3734873089815e-05
7.339943887779e-05
7.3141717418076e-05
7.2992843372714e-05
3.4808266204575e-05
1.9566861884027e-05
1.2139192383451e-05
8.589749608448e-06
6.4061934289575e-06
4.8446602085461e-06
3.7398927291786e-06
2.9345962971612e-06
2.3506994540486e-06
1.956120923578e-06
1.7265201101448e-06
1.6792396175505e-06
1.7515591051031e-06
1.8860128330455e-06
2.0947722061701e-06
2.3602664746244e-06
2.677132008136e-06
3.0443202745359e-06
3.4261719583893e-06
3.8155470479883e-06
4.2119776657721e-06
4.611002697647e-06
5.0065922924734e-06
5.3982458766827e-06
5.2759753191796e-06
5.0707502216338e-06
4.8842677985134e-06
4.7133556366325e-06
4.556861240702e-06
4.4128059716577e-06
4.2795641089385e-06
4.1567549034581e-06
4.0418805442717e-06
3.9353897896727e-06
3.8350736966827e-06
3.7416646552661e-06
3.653352561551e-06
3.570910589194e-06
3.4927572052049e-06
3.4195498585729e-06
3.3499476771533e-06
3.2844219330369e-06
3.2219018535038e-06
3.1626604624138e-06
3.1061747279191e-06
3.0523682814725e-06
3.0011557865634e-06
2.9521435318782e-06
2.9055020643795e-06
2.8607070137598e-06
2.8178382200966e-06
2.7765250895574e-06
2.7368419950673e-06
2.6986457295469e-06
2.6618840579078e-06
2.6264847060614e-06
2.5924007195314e-06
2.5595786007701e-06
2.5279525364994e-06
2.4974503091775e-06
2.467990042957e-06
2.4394880371902e-06
2.411868041632e-06
2.3850728134673e-06
2.3590661345195e-06
2.3338309149461e-06
2.3060045749911e-06
3.2831307095465e-05
0.00049190052044525
0.00046169230923961
0.0004092149430167
0.00037141991409527
0.0003439146900682
0.0003238590324317
0.00030910145904308
0.00029803859321304
0.00028957349123692
0.00028293573108631
0.00027757118107459
0.00027307970450452
0.00026916821046396
0.00026562758211518
0.00026231270368954
0.00025913089631077
0.00025641240801736
0.00025335436621871
0.00025036063886052
0.00024747145860133
0.00024477705549154
0.00024243301486102
0.00024067450577411
0.00023981395778786
0.0002401931915254
0.00024204722510973
0.00024525065932001
0.00024903075711876
0.00025188193913725
0.00025183480702177
0.00024671180360359
0.0002348979468258
0.0002161566783569
0.00019212093742903
0.00016620056474709
0.0001421343922227
0.0001174658088538
0.00010334481540142
9.3538404081973e-05
8.7255725420047e-05
8.3420246523168e-05
8.1131865764029e-05
7.9634761544355e-05
7.8632690491124e-05
7.8305370355907e-05
7.8384778268014e-05
7.8741940511282e-05
7.9193453594943e-05
7.9622065071075e-05
7.9974680407946e-05
8.0212778877177e-05
8.031755292655e-05
8.0281614227837e-05
8.0130306017917e-05
7.9810899230832e-05
7.9289847967171e-05
7.8683641384982e-05
7.8067383884739e-05
7.7488388863116e-05
7.6957264646707e-05
7.6468989160532e-05
7.6014182526094e-05
7.5586262971882e-05
7.5181868646531e-05
7.4798028199617e-05
7.4428007186039e-05
7.4062680028844e-05
7.3702904911793e-05
7.3359903525118e-05
7.3055900167249e-05
7.2822896448786e-05
7.2690602862465e-05
2.5475099631908e-05
1.3285358094741e-05
8.5983408259609e-06
6.2913864283832e-06
4.701417788266e-06
3.7047771857901e-06
2.9562125318053e-06
2.4279576156531e-06
2.0626036026531e-06
1.8311858289493e-06
1.7399746066554e-06
1.7193318014763e-06
1.776933604944e-06
1.8961701384548e-06
2.0548979741455e-06
2.2474167298554e-06
2.4753566181706e-06
2.720969509056e-06
2.9576285202745e-06
3.1998725135228e-06
3.4610029948122e-06
3.7291960179032e-06
4.0056174290175e-06
4.3034101295358e-06
4.6150443491006e-06
4.9328382020077e-06
4.8118759695274e-06
4.6407723894072e-06
4.4840235413632e-06
4.3406998249282e-06
4.2085730492734e-06
4.0866062254898e-06
3.9739010176468e-06
3.8691903759012e-06
3.7718376820604e-06
3.6809325987117e-06
3.595790418725e-06
3.515636766597e-06
3.4402858900291e-06
3.3691852365203e-06
3.3020630544011e-06
3.2385175146143e-06
3.1781078560414e-06
3.1207870662543e-06
3.0660606060342e-06
3.0141319497269e-06
2.9644351485961e-06
2.9172048188543e-06
2.8718906437494e-06
2.8286079843414e-06
2.7870227201768e-06
2.7470948540506e-06
2.708641198191e-06
2.6715779334693e-06
2.6359007180251e-06
2.6015376002199e-06
2.5684522027148e-06
2.5365733420557e-06
2.5058430870896e-06
2.4761912585519e-06
2.4475418638996e-06
2.4198121565367e-06
2.392927246659e-06
2.3668298757381e-06
2.3414856693012e-06
2.3169049432014e-06
2.2884321516856e-06
3.425432780184e-05
0.00049364257362398
0.00046112892252132
0.00040865368063735
0.00037100520039671
0.00034361957903492
0.00032362588789663
0.00030890420168478
0.00029786869030926
0.00028942397797375
0.00028279985288043
0.00027744374194596
0.00027295757244002
0.00026905033501554
0.00026551458253995
0.00026220599381112
0.00025903167804047
0.00025633140468858
0.00025328227799087
0.00025029635938391
0.000247414336317
0.00024472601550587
0.00024238629832004
0.00024062932829774
0.00023976640647202
0.00024013909381146
0.00024198430602494
0.00024518192642888
0.00024896867212161
0.00025184974174779
0.00025186494967105
0.00024684167218509
0.00023515689234671
0.00021654968322875
0.00019261036602176
0.00016671667126672
0.00014259702132788
0.00011775730950271
0.00010344915961811
9.3455207663429e-05
8.7009728842301e-05
8.3035394725452e-05
8.0636687976446e-05
7.9048332753987e-05
7.7972316024248e-05
7.7529647660226e-05
7.7512502214423e-05
7.7777238860588e-05
7.8147223463923e-05
7.8504224416124e-05
7.8794861298591e-05
7.8980958603633e-05
7.9042579285018e-05
7.8972741622727e-05
7.8801436506746e-05
7.845433115067e-05
7.7933101832684e-05
7.7342671978806e-05
7.6753487140941e-05
7.6205282505839e-05
7.5706203211069e-05
7.5252188635341e-05
7.4834782416159e-05
7.4447954310081e-05
7.4088593377707e-05
7.3753650938493e-05
7.3436833937984e-05
7.3130524942634e-05
7.283708106887e-05
7.2564597596933e-05
7.2327875372283e-05
7.215056977826e-05
7.2058345515964e-05
1.3390927059667e-05
7.6646684249458e-06
5.1886533172194e-06
3.8308844864609e-06
3.0438068809363e-06
2.5613332438856e-06
2.2530855292288e-06
2.0584354738664e-06
1.9461394959482e-06
1.9144449862106e-06
1.8973142544712e-06
1.9093921818793e-06
1.9542068651395e-06
2.0335899175741e-06
2.1530206769464e-06
2.3147634424587e-06
2.5017326281973e-06
2.706644297727e-06
2.9134536322201e-06
3.107873100544e-06
3.2891596469319e-06
3.4848482163879e-06
3.6925981732114e-06
3.9010098309629e-06
4.1214137666714e-06
4.365094365642e-06
4.6168692037052e-06
4.578817417201e-06
4.4232282110797e-06
4.280260758796e-06
4.1486646928098e-06
4.0268307194231e-06
3.914197551249e-06
3.8094166611607e-06
3.7120408804894e-06
3.6210446574682e-06
3.5362026652112e-06
3.4566830471855e-06
3.3823566597868e-06
3.3122236388784e-06
3.2465056685919e-06
3.1844790226713e-06
3.1259810102763e-06
3.0705064879973e-06
3.0179016840213e-06
2.9677262279203e-06
2.9199141805813e-06
2.8743028171208e-06
2.8306332307076e-06
2.788888647794e-06
2.7487652127277e-06
2.7102737288952e-06
2.6731723358906e-06
2.6374406344986e-06
2.602998300959e-06
2.5698268664507e-06
2.5378775309519e-06
2.5070874174835e-06
2.4774028767561e-06
2.4487514730614e-06
2.4210552961365e-06
2.394232403823e-06
2.3682137571729e-06
2.3429433819698e-06
2.3184032822397e-06
2.2946108385365e-06
2.2670881976618e-06
3.6328361196826e-05
0.00049552539194394
0.00046037955572728
0.00040789318307273
0.00037041788552798
0.00034319409519263
0.00032329075874766
0.0003086216591305
0.00029762483622346
0.00028920847107414
0.00028260315808143
0.00027725880181631
0.00027278022123887
0.00026887925853864
0.00026535071124932
0.00026205142197728
0.0002588884439552
0.00025620985926135
0.00025317355506355
0.00025020006561362
0.00024732968436865
0.00024465157268449
0.00024231961238073
0.00024056644601964
0.0002397017745319
0.00024006673851056
0.00024190096161215
0.00024509217944616
0.00024889142035399
0.00025181969980587
0.00025193157721947
0.00024706129320207
0.00023557420496165
0.00021717494204122
0.00019339513211685
0.00016754960830342
0.00014334569170906
0.00011824738167368
0.00010365086534317
9.3363691627154e-05
8.6661555667564e-05
8.2467750358722e-05
7.9896682045064e-05
7.8158283601972e-05
7.6978632417413e-05
7.6363005677498e-05
7.6199656069081e-05
7.6326098471019e-05
7.6576043421602e-05
7.6827082309854e-05
7.7026937378148e-05
7.7136631102061e-05
7.7135316964082e-05
7.7017248480034e-05
7.6812556793392e-05
7.6427783442086e-05
7.5910602283025e-05
7.5347554888359e-05
7.4801482670153e-05
7.4301914201254e-05
7.3855002206963e-05
7.3457220250131e-05
7.3101247329081e-05
7.2782774151554e-05
7.2497844500095e-05
7.2242595501156e-05
7.2010711003901e-05
7.1798213313277e-05
7.1606811619772e-05
7.1438429316494e-05
7.1299362215201e-05
7.1205525218321e-05
7.1171371989436e-05
5.3664990617034e-06
4.3510270765426e-06
3.6359797631589e-06
3.2801742535125e-06
2.9820037488483e-06
2.6932188767461e-06
2.5027016443899e-06
2.3931808477352e-06
2.337471769565e-06
2.247054236288e-06
2.2262504402637e-06
2.2318135383843e-06
2.2600469482402e-06
2.3168418973633e-06
2.3912224653253e-06
2.4933682795975e-06
2.6353872155989e-06
2.7912451771164e-06
2.9497299289817e-06
3.1152967966227e-06
3.2873348938472e-06
3.4477629024535e-06
3.6116494696414e-06
3.7903203128278e-06
3.9719077275443e-06
4.1540473872672e-06
4.351631459258e-06
4.5198448457187e-06
4.3676366287281e-06
4.2268193379802e-06
4.0966379495282e-06
3.9759906360552e-06
3.8638866115453e-06
3.7596064396776e-06
3.6624158372744e-06
3.5717401951421e-06
3.4869263585458e-06
3.4076457570786e-06
3.3333029954324e-06
3.2635293256465e-06
3.1979399605869e-06
3.1361467001869e-06
3.0777939980683e-06
3.0224697469629e-06
2.9700691606738e-06
2.9203346230397e-06
2.8732392867812e-06
2.8283638704886e-06
2.7856210227472e-06
2.7448875172744e-06
2.7059779355836e-06
2.6687307866461e-06
2.6330167451964e-06
2.59864119126e-06
2.5654708200911e-06
2.5335032679539e-06
2.5026980826128e-06
2.4730264320795e-06
2.444424353627e-06
2.4168155374024e-06
2.3901208177739e-06
2.3642608430358e-06
2.3391673634194e-06
2.3147877599594e-06
2.291110332522e-06
2.2681319699708e-06
2.2426606105875e-06
3.9138934810486e-05
0.00049721140097528
0.00045945812402426
0.00040696345722849
0.00036966958285672
0.00034264030444925
0.00032285556586325
0.00030825627833594
0.00029730883688433
0.00028892777460024
0.00028234570845666
0.00027701601382864
0.00027254719702997
0.00026865459074017
0.00026513568215182
0.00026184874923699
0.0002587008345574
0.00025604752948846
0.0002530280867817
0.00025007137958546
0.00024721687557278
0.00024455281821419
0.00024223175356411
0.00024048435832938
0.00023961826126024
0.00023997396853543
0.00024179433743363
0.00024497770137963
0.00024879391450618
0.00025178528277053
0.00025202563123028
0.00024735892599778
0.00023613634230183
0.00021801934530763
0.00019446419655259
0.00016869348141002
0.00014438017425065
0.00011894911767199
0.0001039686884909
9.3284188242772e-05
8.6231288138522e-05
8.1735595694408e-05
7.8926145918483e-05
7.6980159023826e-05
7.5658621379993e-05
7.482292118392e-05
7.4461757935273e-05
7.4404240246077e-05
7.4495429624656e-05
7.4606465678967e-05
7.468702751523e-05
7.4696371063713e-05
7.4612819960795e-05
7.4440131693639e-05
7.4179931782585e-05
7.3758812194309e-05
7.3256238489546e-05
7.273811388102e-05
7.2255468705863e-05
7.1827688566035e-05
7.1459565362161e-05
7.1147194944947e-05
7.0885197942746e-05
7.0670746298416e-05
7.0497729625256e-05
7.0360758050985e-05
7.0253613348716e-05
7.017453692053e-05
7.0121267478125e-05
7.0088527528355e-05
7.0073033200991e-05
7.0084806755267e-05
7.0120121789002e-05
2.4463495397547e-06
2.9477813217612e-06
3.6266213298541e-06
4.2883795078039e-06
5.0158533075616e-06
4.8939552187343e-06
4.1791757556648e-06
3.5852361891767e-06
3.1691742439856e-06
2.9364057692532e-06
2.7909076713341e-06
2.7123693862126e-06
2.6823151628555e-06
2.6890874739537e-06
2.7255294225348e-06
2.7852240101948e-06
2.8638373170512e-06
2.9587642239798e-06
3.0694306085127e-06
3.1915126403699e-06
3.3247506861003e-06
3.4741666939495e-06
3.6238240277538e-06
3.7754078964192e-06
3.9377125492702e-06
4.102023887446e-06
4.2656278548118e-06
4.4360753638601e-06
4.3132554830592e-06
4.176247649352e-06
4.0488547126361e-06
3.930211843733e-06
3.8197362154304e-06
3.7166906733442e-06
3.6202264967623e-06
3.5300990865195e-06
3.4457075000232e-06
3.3666391496436e-06
3.2923338763375e-06
3.222615262605e-06
3.1569917907045e-06
3.0952007428704e-06
3.0367888900801e-06
2.9815511206449e-06
2.9291862355278e-06
2.8795644505813e-06
2.8325299800785e-06
2.7878787696643e-06
2.7454331668775e-06
2.7049230105839e-06
2.6662616308768e-06
2.629257164011e-06
2.5938213386654e-06
2.5598210989484e-06
2.5271858517091e-06
2.495844014878e-06
2.4657024012527e-06
2.4367480316829e-06
2.4089440104918e-06
2.3821907606081e-06
2.3564124886244e-06
2.3314920515655e-06
2.30730904722e-06
2.2837878918272e-06
2.260941289996e-06
2.2387850291379e-06
2.2151797276113e-06
4.2794221215359e-05
0.00049852815499051
0.00045833320899478
0.00040588198227938
0.00036877383872279
0.00034196186517675
0.00032232223849504
0.00030781023515551
0.00029692227522079
0.00028858249250833
0.00028202738333714
0.00027671487678132
0.00027225790507914
0.00026837580962656
0.00026486909009323
0.00026159761162764
0.00025846838782421
0.00025584387008351
0.00025284531994844
0.00024990960959574
0.00024707515345041
0.00024442895463274
0.00024212181597437
0.00024038204166248
0.00023951475108575
0.00023985953852225
0.00024166306313155
0.00024483667888134
0.00024867343800875
0.00025174222425423
0.00025214071412122
0.0002477260833737
0.00023683354142749
0.00021907342590484
0.00019581093645616
0.00017015024805421
0.00014570988071069
0.00011988873833647
0.0001044333426301
9.3248364841736e-05
8.5747431058067e-05
8.0865742723317e-05
7.7746973471951e-05
7.553170740714e-05
7.4015255049338e-05
7.2932249258865e-05
7.2317378509821e-05
7.2031486089599e-05
7.1924570535644e-05
7.186236306015e-05
7.1795774362878e-05
7.1682454844845e-05
7.1502117478864e-05
7.1266424406431e-05
7.0933435932134e-05
7.0491463725479e-05
7.0020867568022e-05
6.9572386480457e-05
6.917927312998e-05
6.885474560928e-05
6.8602394365431e-05
6.841497323879e-05
6.8292196235545e-05
6.822841807806e-05
6.8215610420606e-05
6.824692145902e-05
6.8312629075153e-05
6.8408761766825e-05
6.8527991759747e-05
6.8657147772777e-05
6.8783562625789e-05
6.8913935031097e-05
6.9021771310022e-05
9.8446804091713e-07
1.90855081806e-06
2.2157074211387e-06
2.7768331164693e-06
3.3667255238043e-06
4.0298244168679e-06
4.842182804278e-06
5.6663544500199e-06
4.7931713822679e-06
4.1410125985889e-06
3.7106222740827e-06
3.4470930128991e-06
3.2819178996409e-06
3.1860506443138e-06
3.1411226571269e-06
3.1300178261267e-06
3.143287607085e-06
3.1812279340142e-06
3.2390840177096e-06
3.3132644616097e-06
3.4056591964437e-06
3.5128153417316e-06
3.6375245904927e-06
3.7744204825401e-06
3.9052588818031e-06
4.0614099976506e-06
4.2171301134151e-06
4.3767482139561e-06
4.2940218384896e-06
4.1584893518019e-06
4.032432066862e-06
3.9149587289317e-06
3.804982204351e-06
3.7020057160066e-06
3.6056177309973e-06
3.5152661858518e-06
3.4303340274601e-06
3.3506224981076e-06
3.2756564546348e-06
3.2050871717707e-06
3.1385433563219e-06
3.0758673822643e-06
3.0166392204153e-06
2.9605894872804e-06
2.9074141785168e-06
2.8570494702363e-06
2.8092914078888e-06
2.7639894726544e-06
2.7209281773347e-06
2.6799239724567e-06
2.6408384057004e-06
2.6034819224873e-06
2.5677523722581e-06
2.5335240682237e-06
2.5007448455579e-06
2.4693175030941e-06
2.4391551138787e-06
2.4101962495449e-06
2.3823866620724e-06
2.3556684670511e-06
2.3299526936501e-06
2.3051417441586e-06
2.2811502311737e-06
2.257931804642e-06
2.2354253804184e-06
2.2136121030523e-06
2.1924973899998e-06
1.2608489278242e-05
0.00045075275987684
0.00047261944313585
0.00041606627637253
0.00037583279052201
0.00034704533160288
0.0003260180042713
0.0003105009778476
0.00029889873005547
0.00029005521317451
0.00028314580943569
0.00027758550208023
0.00027295938910191
0.00026896775822273
0.00026539645637209
0.00026209416285739
0.00025895732826927
0.00025559835536764
0.00025262469645848
0.00024971404683862
0.00024690364239353
0.00024427901377282
0.00024198886606769
0.00024025864685139
0.0002393904085069
0.00023972259536594
0.00024150627295418
0.00024466789350074
0.00024852779049579
0.00025168673017714
0.00025227104769677
0.0002481546382196
0.00023765571004935
0.00022032658972623
0.00019742784960518
0.00017192424126476
0.00014734980143217
0.00012173824470007
0.00010542703856001
9.3320750354298e-05
8.4976730801901e-05
7.9375461969212e-05
7.5660277673656e-05
7.2941480962099e-05
7.0971889021459e-05
6.9535795518296e-05
6.8430984868514e-05
6.7727789137994e-05
6.725384241348e-05
6.6874046379112e-05
6.6539819838615e-05
6.6206250100298e-05
6.5872500498093e-05
6.5510510789133e-05
6.5075270548218e-05
6.4637830969824e-05
6.4256707641609e-05
6.3962306629723e-05
6.3762112707678e-05
6.3665161232029e-05
6.3675425098126e-05
6.3795234872276e-05
6.4002016554765e-05
6.4274249532557e-05
6.460905042012e-05
6.4988162079794e-05
6.5393882324162e-05
6.5811084806864e-05
6.6221330526659e-05
6.6604581594461e-05
6.6958053453465e-05
6.7275488675156e-05
6.7492875854457e-05
4.9070772686036e-07
1.2601823904445e-06
1.5037219107399e-06
1.7753624190158e-06
2.1384051573034e-06
2.6181286283323e-06
3.1640439810805e-06
3.8121104350233e-06
4.5725954950604e-06
5.266283731374e-06
5.7704534813781e-06
5.2470565180948e-06
4.7140847403225e-06
4.3459063398387e-06
4.1014538345112e-06
3.9455922671476e-06
3.8395096178331e-06
3.7747160545778e-06
3.7477343975207e-06
3.7481611637849e-06
3.7745805689452e-06
3.8208752992501e-06
3.8850540373995e-06
3.966550089992e-06
4.0712843619855e-06
4.1908924265599e-06
4.3000889540598e-06
4.2989658591149e-06
4.1608110681884e-06
4.0324708688428e-06
3.9135472995361e-06
3.802894625027e-06
3.7000352813434e-06
3.6036012160412e-06
3.5129001959989e-06
3.4272215491815e-06
3.3465163009478e-06
3.2703648395971e-06
3.1984238558674e-06
3.130275969206e-06
3.0658131343871e-06
3.0048038436904e-06
2.9469825872329e-06
2.8920240629374e-06
2.8397930144e-06
2.7901518954684e-06
2.7429682389812e-06
2.6980698090802e-06
2.6553128357591e-06
2.6145787353485e-06
2.5756903059201e-06
2.5385256992375e-06
2.5029502537926e-06
2.4689041413048e-06
2.4363104737877e-06
2.4050950789309e-06
2.3751787713387e-06
2.3464756154609e-06
2.3189379673555e-06
2.2925033774482e-06
2.2671010157462e-06
2.2426418828424e-06
2.219048050655e-06
2.1962716772112e-06
2.1742687915568e-06
2.1530243094257e-06
2.1317693461852e-06
6.1416667691983e-05
0.00049911136891172
0.00045275151204024
0.00040156862957182
0.00036529719315423
0.00033923822745755
0.00032015748456496
0.0003060032863337
0.00029534767440529
0.00028716042026956
0.00028070328073606
0.00027545497539489
0.00027104570493112
0.00026720885769447
0.00026375501588392
0.00026054874523916
0.00025749671117865
0.00025497934623943
0.00025206723194523
0.00024921859968167
0.00024646794713189
0.00024389725511619
0.00024165004958777
0.00023994472365941
0.0002390757297368
0.00023937816891356
0.00024111307847659
0.00024424243469838
0.00024815271027597
0.00025152333606307
0.00025255241804997
0.00024915977047461
0.00023962898751102
0.00022337952211354
0.00020142883397633
0.00017641347271063
0.0001516603062767
0.00012533175252479
0.00010768449205311
9.4035182894003e-05
8.4205615638097e-05
7.7300637453509e-05
7.245401694615e-05
6.8838561953285e-05
6.6022519367847e-05
6.3820391638903e-05
6.2064270392635e-05
6.0679859109655e-05
5.9572523817261e-05
5.8664848692653e-05
5.7915306480125e-05
5.7276017468742e-05
5.6706439742567e-05
5.6184145745229e-05
5.5771391190146e-05
5.5539950576461e-05
5.5513661685934e-05
5.5683458915337e-05
5.6044261748042e-05
5.6577038288364e-05
5.7282137749452e-05
5.8141697466307e-05
5.9103850646982e-05
6.0130300813801e-05
6.1156830456267e-05
6.2148723963113e-05
6.3098589907239e-05
6.3985895089319e-05
6.4789361324313e-05
6.5508008449508e-05
6.6136494015646e-05
6.665636543089e-05
6.6975151702054e-05
5.6178837454422e-07
9.6246230425398e-07
1.1467431913133e-06
1.3101739456929e-06
1.5472856905081e-06
1.8508934430113e-06
2.2374574612804e-06
2.6998452171571e-06
3.252940739673e-06
3.9046301032426e-06
4.5652452337661e-06
5.0778342321419e-06
5.4042457356961e-06
5.485393209386e-06
5.2569065798388e-06
4.8793388796958e-06
4.6327742044308e-06
4.4583200894776e-06
4.3378717339308e-06
4.2594444716947e-06
4.2204346707906e-06
4.2120158712942e-06
4.2273375756249e-06
4.2633604447725e-06
4.31828423767e-06
4.3898486201848e-06
4.3292052435448e-06
4.1987885369458e-06
4.0737552123175e-06
3.9541614549645e-06
3.8403992613115e-06
3.733314181642e-06
3.6324753341228e-06
3.5379284086864e-06
3.4489418451077e-06
3.3656352983559e-06
3.2878197109403e-06
3.2147113577154e-06
3.1454580420607e-06
3.0796738529002e-06
3.0172319493417e-06
2.9578585707996e-06
2.9013187550233e-06
2.8474054208424e-06
2.79609158827e-06
2.7471651515542e-06
2.7005067609265e-06
2.6559478651364e-06
2.6134233128129e-06
2.572811468402e-06
2.5339675651529e-06
2.4967546075758e-06
2.461073278827e-06
2.426882920771e-06
2.3941045928079e-06
2.3626715063502e-06
2.3325032349688e-06
2.3035395812803e-06
2.2757371570617e-06
2.2490279469686e-06
2.2233490287526e-06
2.1986301960467e-06
2.1748067770215e-06
2.1518288504679e-06
2.1296632095423e-06
2.1082785243392e-06
2.0920559274619e-06
9.182982457648e-05
0.00049836969536768
0.00044685207649553
0.00039752505935563
0.00036230224073288
0.00033689556066608
0.0003182689432856
0.00030441605125169
0.00029395247634461
0.00028588635191413
0.00027950643997086
0.00027431075969327
0.00026994389410437
0.00026614957034319
0.00026274523151221
0.00025959814469501
0.00025661445410641
0.00025418537607062
0.00025134992607227
0.00024857860764719
0.00024590275957955
0.0002434000669908
0.00024120768696854
0.00023953532428791
0.00023866781830661
0.00023893531680015
0.00024060949544875
0.00024369325855977
0.00024765237760104
0.00025126358810933
0.00025281563204117
0.00025029323582878
0.00024194981623586
0.00022705877666579
0.0002063648952795
0.00018212905367746
0.00015740130915399
0.00013048893227812
0.00011141017409672
9.5949365157238e-05
8.4245050535869e-05
7.5600179584973e-05
6.9209010958118e-05
6.4386207971118e-05
6.0474700315086e-05
5.7288016141428e-05
5.4657837558436e-05
5.2494277982247e-05
5.0712527456602e-05
4.9274999761583e-05
4.8157846659234e-05
4.7320734817846e-05
4.6725578071383e-05
4.6407534105711e-05
4.6444534828595e-05
4.6797073434567e-05
4.7475026060893e-05
4.8507534818527e-05
4.9867661506889e-05