/*--------------------------------*- C++ -*----------------------------------*\
| =========                 |                                                 |
| \\      /  F ield         | OpenFOAM: The Open Source CFD Toolbox           |
|  \\    /   O peration     | Version:  2312                                  |
|   \\  /    A nd           | Website:  www.openfoam.com                      |
|    \\/     M anipulation  |                                                 |
\*---------------------------------------------------------------------------*/
FoamFile
{
    version     2.0;
    format      ascii;
    arch        "LSB;label=32;scalar=64";
    class       volScalarField;
    location    "0.00017";
    object      omega;
}
// * * * * * * * * * * * * * * * * * * * * * * * * * * * * * * * * * * * * * //

dimensions      [0 0 -1 0 0 0 0];

internalField   nonuniform List<scalar> 
109340
(
9612.533486611
9900.3879570645
10701.303974619
12429.926591634
15313.891871933
19240.99856618
23813.047139695
28423.662837861
32539.082745119
36482.101769087
40330.292586649
44104.898685691
47812.259877787
51453.574755076
55028.064943091
58534.227056909
61970.379158334
65334.906074605
68626.3899346
71843.657173891
74985.792059604
78052.135285488
81042.284408671
83956.079521533
86793.563742085
89554.912001459
92240.321423029
94849.863027046
97383.284160969
99839.718459706
102217.23138242
104512.01920725
106716.77395366
108816.65438149
110778.14858602
112516.78121869
9719.1174966542
10817.539030547
13664.074549725
17963.359090779
22965.863795282
28030.3303359
32868.402500311
37697.967003446
42531.222919388
47309.006811407
52013.63328795
56636.328287716
61170.868560672
65612.212094269
69956.198935411
74199.463641231
78339.404075244
82374.164326886
86302.623766706
90124.410145295
93839.955088947
97450.463766155
100957.80948681
104364.34334628
107672.67277751
110885.41976295
114004.97369182
117033.24074541
119971.3353858
122819.14808363
125574.61190512
128232.32529224
130780.29434394
133190.72159624
135393.07971119
137208.4327651
9961.6490496985
13962.466212528
21389.006972201
28991.686051597
36201.447627975
43344.803946059
50545.366046206
57736.690446441
64868.204833669
71893.922468987
78780.194603976
85504.270140941
92050.725127934
98409.145553729
104572.81138793
110537.90931551
116303.04442962
121869.11188231
127239.71266419
132421.92682203
137426.35808721
142265.59767973
146952.75051256
151500.2916212
155919.3756769
160219.50444748
164408.34479739
168491.53311773
172472.43122703
176351.64441092
180125.87317425
183785.6604256
187309.37815808
190642.06855371
193629.6758084
195851.57292571
11922.804192372
28461.149866693
45339.298393288
62195.058303856
78863.323483947
95254.560186053
111259.39648034
126793.39264595
141788.53852431
156193.20683993
169971.24794442
183102.25496774
195580.29356533
207411.44095844
218611.44109836
229203.64598607
239219.36639021
248709.4383803
257767.69787912
266517.97112207
275066.73941763
283488.09750109
291829.040109
300116.91990384
308365.43909176
316578.92119645
324754.87408677
332885.94492187
340959.67586655
348958.75141203
356863.10384409
364671.40181067
372410.18206394
380001.66159417
386912.00594923
391256.25002853
46687.875817955
146230.07731863
240722.41019848
331297.05522787
416651.1180856
495479.28413269
566978.14243652
630873.62725148
687354.80612335
736899.90374852
780146.05124714
817777.03526529
850462.38974358
878817.07086675
903381.67834184
924656.13191124
943347.97303595
961375.58116587
981861.79770182
1006288.5896259
1034423.0957678
1065330.734319
1098005.8508906
1131606.1597235
1165470.7304314
1199064.432116
1231959.4161155
1263804.8380735
1294297.7958751
1323136.1178442
1350026.7821256
1374561.6218494
1396202.8276678
1413929.0881689
1425181.9637429
1418596.1545328
4713521.9950837
5536061.7693545
6151139.4490698
6580935.4999627
6861788.6030413
7031111.5657538
7120903.3147968
7155979.9242155
7154215.6123878
7129531.0894301
7089791.5295314
7041072.878521
6987523.912071
6931947.4018794
6876240.7056222
6821774.8567083
6769465.0977575
6719945.1772038
6673842.1555459
6631794.7039201
6593166.3790909
6557555.1222415
6524773.7993106
6494735.5238003
6467388.8359036
6442700.4640542
6420656.558544
6401269.9235115
6384591.4523998
6370728.2481524
6359884.9979991
6352452.4454842
6349019.0404483
6350918.6631708
6359640.1985856
6374229.43126
113841.36002973
114013.97452969
113256.431183
112679.86920309
113173.77802984
115154.81777434
119275.27218878
125748.21974745
133859.96532345
144396.06991266
157593.64382748
169305.53023966
178684.19100784
182263.82778219
181162.71693388
177406.08110203
171999.3485474
165782.12518431
159252.34889513
152737.45437363
146406.88633814
140354.90790887
134676.95498704
129510.99443946
124828.5681995
120593.14204801
116636.2234977
112966.27356083
109726.66283504
106504.91113419
103774.72367938
101003.6693355
98607.23564732
96206.673194435
94068.318955231
91951.170456615
90043.234398404
88151.482027203
86460.724400959
84759.160690413
83264.691188407
81722.826130165
80386.465483935
78983.428356594
77763.381310804
76494.556683072
75361.526407078
74238.657567572
73166.142747444
72156.505006645
71157.644892355
70210.710701009
69295.222384278
68412.492697234
67558.505402767
66733.684646098
65937.011252627
65169.173369434
64429.515588091
63716.816740944
63028.896316793
62363.389536832
61717.911145565
61090.522871408
60479.915525517
59885.55527456
59307.54845024
101454.59751367
9048799.9548612
7410811.5946088
5389523.3490627
4082443.8303868
3204562.1847086
2590196.4452183
2146742.8946554
1818377.3794587
1569300.827913
1375972.4491982
1222590.5388461
1098366.9581425
995819.21107413
909682.94172122
836175.37256132
772527.47470865
710007.24017004
661104.65808491
617105.66801563
577090.63467624
540316.92110688
506168.55901215
474150.58077788
443921.45746604
415346.04372963
388525.39060459
363713.62924579
341079.27664647
320412.95088402
301003.84653933
281747.57963123
261381.04085602
238646.31374461
212779.26752679
184422.38237876
156904.1786549
132000.39007489
122167.60016985
117381.49381481
115370.23565081
114798.68515805
115113.56686252
116250.07896125
117811.45923044
119646.31577872
121653.76916802
123711.5130996
125696.93529359
127522.13622899
129127.11907639
130475.9556891
131555.94054836
132346.37950644
132805.01199786
132934.4545872
132802.29368031
132466.66272348
132041.31981795
131615.03095951
131218.9498085
130847.54337762
130487.93469123
130129.78235096
129769.50431417
129406.84690553
129036.28365497
128645.42723744
128225.66050641
127780.64522953
127326.2732823
126887.94613475
126547.49134721
138182.36399857
136971.39938932
133956.96857481
130116.87325186
125925.19316809
121957.51949599
118606.38859108
116070.74860901
114353.73120389
113580.49569717
113571.96602995
114161.36668273
114853.63999207
115303.79356389
115667.35511906
116102.75080364
116615.49279343
116948.3441954
116606.34628605
115713.23292679
114386.75836937
112733.08443375
110861.30459371
108817.01986294
106718.60626411
104675.30755952
102667.78105733
100657.49784964
98683.905126723
96758.255138596
94893.083850326
93108.57027322
91372.772667109
89708.054156548
88086.213589267
86532.242315816
85023.86465783
83586.587906035
82200.182184821
80883.289710097
79614.405937009
78404.899030662
77235.15364502
76111.55403401
75025.13055799
73977.651260055
72970.47580378
71999.28186929
71068.540066214
70168.683095519
69300.850452923
68457.618142628
67640.354419498
66846.567859404
66076.132841143
65328.980672526
64605.697978596
63906.488100502
63230.865427919
62577.689323111
61945.207524342
61331.302982541
60733.812530454
60151.019319556
59582.044393667
59026.95616032
58486.304475151
567137.34794581
9290032.3931859
6812152.9336172
5003953.2540344
3826630.7004119
3027422.7472242
2463479.9026352
2053730.2822954
1748435.0522627
1515471.6748487
1333613.0487179
1188544.3451611
1070457.3555618
972523.98978075
889917.76387572
819152.13367479
757664.65853247
709870.2634806
660991.49805531
617008.21363462
577006.65673209
540244.83772095
506106.71828732
474097.51570302
443875.98135207
415307.21541579
388492.42023149
363685.32068946
341054.52130999
320392.00402921
300989.06436576
281743.63010428
261395.14651531
238687.35509427
212852.90593629
184532.27030401
157029.05322805
132071.62970873
122187.4747273
117374.83373871
115355.15691996
114782.87994937
115093.54361242
116226.47491025
117781.53110818
119611.15800366
121612.50843815
123660.32826218
125634.38659454
127449.41251056
129044.50629931
130383.4771611
131451.54892428
132226.70776787
132668.78007105
132786.96389094
132646.65646859
132307.78887458
131882.5778158
131457.50380171
131061.2987963
130689.39227481
130329.85444799
129972.12311271
129613.04443532
129252.8744454
128886.61687141
128503.53346017
128096.9125785
127669.0916853
127230.11159045
126801.8013444
126466.74714847
196063.81030533
191817.06846945
183393.24666444
172979.21101057
162386.7282019
152652.2384667
144213.90490729
137220.84401351
131659.44650142
127031.02584159
123536.14691425
120587.165255
118278.7002547
116474.53372867
114920.05919904
113506.97753787
111988.15174702
110267.12944417
108112.56310486
105775.60146997
103418.86056369
101133.93387817
98965.924272499
96924.121489471
95001.551610845
93173.443170551
91466.25389748
89923.246897203
88500.666206391
87181.846239049
85950.523116622
84803.790134318
83709.004399171
82638.095985586
81583.237673029
80525.440772478
79476.883418419
78440.958233079
77431.102621257
76446.446311497
75489.372777349
74556.74724196
73644.608540559
72754.301385941
71880.109165211
71030.066510006
70199.357972439
69397.174984672
68615.878507316
67859.034506856
67120.544968393
66400.18624217
65695.035187577
65004.512218719
64330.011975863
63672.191766457
63032.475123386
62411.258175919
61808.622104438
61223.801148439
60655.439378168
60101.697549955
59560.659269294
59030.806125128
58511.51636842
58003.359510403
57506.952162746
603600.23018975
9271755.9731092
6796461.0213718
4994577.461789
3819684.9126008
3022174.4754366
2459646.8329619
2050937.4913745
1746373.143387
1513924.9838074
1332428.6487775
1187616.1094853
1069713.0365877
971914.10783893
889408.29073651
818720.32342406
757295.72168351
709586.66321548
660753.53157807
616809.03392351
576843.09266076
540113.95522162
506005.68461153
474023.8158407
443827.52529946
415282.38447126
388489.2202429
363700.3508762
341085.04199858
320438.37437179
301056.54518102
281843.09694049
261543.86316186
238907.69797679
213161.17696291
184932.2751073
157460.78869507
132367.17366455
122340.42236498
117434.27586945
115364.49181822
114768.76610133
115053.9015492
116173.30873053
117716.1968342
119539.13624188
121536.57958843
123578.73358371
125546.44950365
127356.93451439
128945.57155672
130274.36648968
131324.70752953
132072.01435767
132478.86732265
132567.6457565
132399.57845757
132043.8529246
131610.48557726
131181.87246898
130781.03680092
130403.93369617
130039.71898813
129677.82691127
129316.23378555
128955.54244996
128592.2795141
128219.11058487
127834.21267233
127437.39900325
127031.31756123
126630.17483003
126316.12805707
385588.75428064
363254.42698736
324908.08928719
283354.1218305
246847.53382439
216559.23070616
193035.15051902
174987.64645034
160887.00836093
149445.13528383
140878.57469647
133747.77028894
127860.10626076
123012.01333619
118958.20394183
115574.23282795
112826.51512863
110235.37310023
107328.89885985
104178.52455711
100975.54244647
97877.921179086
94991.109628268
92331.311014503
89884.611287565
87644.46340644
85595.723878528
83730.569752214
82077.931715929
80609.191814468
79301.051748732
78124.487824203
77062.20381662
76081.969943444
75169.974386882
74308.555790834
73494.990031202
72719.405022564
71983.833936793
71282.788842202
70612.026734049
69956.523392739
69313.692287977
68670.243146446
68027.925611727
67388.106510251
66756.982456799
66137.785071602
65529.616898093
64933.832932589
64345.835487826
63766.633861862
63193.018395448
62626.105737131
62066.355106038
61516.107140947
60977.221866975
60450.858130227
59937.620703939
59437.039230671
58948.007916393
58468.978411842
57998.337374621
57534.927020371
57078.327903763
56629.44943672
56185.353645202
657194.61712764
9235783.0672512
6768959.8060387
4979488.5027063
3809304.9471555
3014550.8701524
2454120.2849738
2046922.3211799
1743412.1200481
1511703.4057077
1330726.1914346
1186280.9779649
1068641.8093856
971035.79493185
888674.10835353
818097.74631898
756763.93370829
709160.22838791
660393.95924088
616509.92868191
576599.70424036
539921.93838604
505860.92224678
473922.72933362
443767.25590676
415260.51977872
388502.53660548
363744.05493725
341155.00649354
320534.83996323
301187.03587613
282023.53974239
261800.02243073
239274.51794424
213671.80756648
185588.03187921
158161.6612572
132861.97903095
122610.8045254
117550.2640888
115393.07695761
114754.6595744
114993.85202555
116088.41554259
117612.97397761
119426.36205312
121419.05253484
123454.89722216
125416.92199791
127222.89896445
128804.353848
130118.47087903
131141.11894898
131844.27625231
132194.91777499
132238.82825875
132029.0316493
131649.00125224
131203.87879029
130768.89775998
130361.55420472
129977.78839233
129607.89647994
129243.18239062
128882.16498046
128524.91008529
128170.45518618
127818.98483539
127471.75765549
127123.06544533
126767.42784205
126413.74219198
126135.06155574
1321512.9782803
1071666.4482109
803340.64379752
593671.31241906
446650.92677278
346667.61330303
280007.33735587
234427.24602472
202799.46665492
180225.49652629
163733.79563966
151135.70928566
141142.35390435
133049.20141282
126366.31547506
120814.73837022
116191.58073418
112002.85335024
108069.36296903
104350.89700152
100801.96604368
97374.719387653
94075.656062581
90995.527320403
88149.406592914
85529.024354244
83121.203065205
80919.739087982
78942.076546493
77181.109312647
75614.240910837
74217.481979707
72967.313142866
71841.818401822
70819.286388361
69884.462701824
69024.790914847
68235.691691856
67508.384726945
66836.527703794
66211.842228411
65626.245870386
65071.614946601
64538.998160744
64024.980788204
63524.633112009
63040.060117773
62570.299539399
62115.782259658
61670.02917014
61229.351834203
60789.660782488
60348.230694441
59906.639597441
59464.817876724
59026.0612516
58592.533160528
58166.30277706
57748.145863578
57337.842991123
56934.479023414
56536.750275589
56143.337586917
55753.28886577
55366.384285789
54983.623040371
54582.66935909
730643.03198889
9195136.9747959
6730425.4429669
4958299.686668
3795366.6421963
3004569.376161
2446936.7630228
2041717.2536036
1739578.187911
1508826.0896716
1328519.4033578
1184548.8784527
1067250.8570252
969894.20404924
887718.92069307
817287.03482836
756070.97588343
708592.5881858
659914.28773203
616111.25462596
576275.94967896
539667.30065803
505670.00743765
473790.93633776
443691.02345004
415236.73896366
388526.82855084
363810.19023152
341257.44800395
320673.6037579
301371.72105654
282274.91763851
262152.13035559
239775.02816415
214369.37923996
186483.82839813
159119.45819435
133558.40745611
123003.16974886
117726.0937556
115442.13902499
114740.06127918
114912.32734978
115968.53230489
117467.99650695
119266.39349497
121250.94390487
123276.90645492
125230.79102069
127028.96466204
128598.81685996
129889.75780895
130870.0491583
131507.1260908
131780.40767288
131764.57067259
131503.40740021
131095.81377474
130638.85904745
130197.90426459
129785.88501033
129399.13217261
129029.07141378
128670.11397398
128320.61452389
127979.24268265
127651.04450588
127344.94757694
127059.48213266
126780.46667613
126495.97866462
126212.09904883
125982.72075815
4661139.2413548
2571032.2132477
1598706.5733392
1065554.4764088
741301.59943977
536967.84906486
404408.93930424
317091.22954876
259015.20777473
219741.18004104
192181.88936434
172290.53958004
157192.4404241
145323.11419552
135774.57176518
127956.81411028
121306.74987777
115448.70414293
110231.98952535
105561.12295541
101360.87621333
97552.971997065
94067.291706665
90810.411880745
87742.615201899
84882.092174555
82240.939465508
79802.734822794
77584.112175458
75591.587157278
73797.760592173
72180.297140149
70724.148514184
69410.519414989
68216.782348796
67131.942216848
66144.415666307
65246.842850574
64428.848126282
63684.523733046
63002.593063542
62375.86951725
61794.392975925
61251.812662569
60739.956820885
60255.209948868
59796.096945064
59361.817977407
58950.830007896
58558.039925308
58179.961922653
57811.43728168
57450.307014053
57093.925902901
56741.238348721
56392.8662964
56050.522914433
55714.63712034
55384.825916548
55060.373259578
54739.320862041
54420.557189891
54102.922870946
53785.545595175
53468.27464409
53152.140621087
52803.059357434
827082.60989418
9153601.6984079
6682702.7710204
4931118.2328259
3777857.8371557
2992279.3025638
2438148.7389622
2035363.8162332
1734902.9110714
1505315.8208465
1325824.6137046
1182431.5557265
1065548.5948985
968495.32215658
886547.01379924
816291.28662675
755219.05496018
707885.29380533
659315.6530478
615613.3069202
575871.50744181
539349.18359528
505431.42812017
473626.30840018
443596.21336382
415208.09285477
388558.98376752
363895.51398053
341388.97294158
320850.98348199
301606.33123059
282592.24606067
262594.22978562
240401.56293129
215243.27246946
187609.66636789
160328.6260381
134470.56228985
123530.85426234
117971.29796089
115515.99073034
114724.42720571
114810.36665973
115810.34566741
117275.67451935
119051.3614605
121020.50991201
123030.19544264
124969.35017089
126752.49645459
128301.25847129
129554.95872293
130471.40197338
131015.30642703
131198.44880838
131105.69538569
130790.47858183
130356.04055609
129890.97892762
129449.14083037
129040.97972843
128663.94630966
128309.30222815
127975.69680656
127660.67115299
127364.40390022
127098.04823195
126871.30841643
126677.48565957
126494.08314861
126305.99172523
126115.68639551
125949.27285437
6461398.7627261
3571507.8055137
2315392.0380668
1583474.235257
1117141.9211363
802580.60436176
583322.96733494
440474.99786045
345081.9927386
279997.69640542
234968.24764361
203237.40611111
180251.198939
162949.0540715
149438.46191104
138462.31401936
129327.41326225
121603.17776059
114943.51750587
109112.00743582
103975.53314854
99441.096796488
95416.537902894
91820.199373579
88545.691921185
85525.881324734
82708.713253526
80079.435933001
77654.267387859
75448.586691445
73450.41849347
71635.354020087
69980.025886928
68471.910780209
67097.477148587
65841.748945153
64692.741917561
63646.552706179
62693.685639999
61824.721258259
61029.651029719
60302.482619783
59633.89854356
59016.829609266
58443.136796162
57909.024162677
57410.380540517
56945.729322369
56512.512979958
56107.28877621
55725.788441059
55362.508273858
55013.897505608
54676.759675378
54350.084828813
54033.08718165
53725.881221673
53428.97129451
53142.362523653
52865.25828073
52595.856068772
52332.116755147
52071.773285084
51812.926534323
51554.639128484
51296.976679801
51039.986338384
165547.95187095
9325339.6291174
7191775.4882013
5264105.5563087
4001409.5813865
3146997.8610671
2548808.7597162
2116851.450926
1796458.9884007
1552929.7545447
1363483.8880204
1212841.2773252
1090577.3567598
989455.99280368
904378.74034371
831684.12011949
768689.26080497
707040.4323737
658599.66663367
615016.82488078
575386.20275612
538966.70852798
505143.8979259
473427.25709915
443480.86153136
415172.33357105
388596.76347033
363997.8422086
341547.285766
321064.561659
301888.24753614
282972.16742227
263121.50703333
241146.72772811
216282.8874229
188956.04523006
161785.62690808
136234.19815375
124573.54295727
118473.84114943
115679.04928001
114693.42134121
114629.60956557
115503.15117287
116897.72841397
118621.49714269
120548.85490967
122515.89382304
124413.30793164
126151.30970483
127641.90826643
128807.04110427
129586.43151333
129955.52159292
129991.31309159
129763.04848774
129364.70141853
128894.60562038
128430.4941185
128005.30381427
127634.34412602
127315.64528434
127046.71210888
126826.84269951
126642.02380745
126494.12761064
126390.0781329
126336.09441754
126325.56452064
126328.70314989
126328.16953378
126308.89184039
126257.11710555
5625908.8155786
2713918.4976136
2109193.5956476
1652032.2609312
1306214.8367918
1006471.4894376
776365.81909192
599256.79693919
462016.04111891
368019.80964586
301099.75497605
250971.99767933
215052.6345205
188553.38602324
168524.44661789
152968.04911412
140405.93499055
129990.11247831
121230.6916205
113788.06292472
107379.20909685
101798.67535457
96906.416635319
92594.184251181
88771.343482697
85364.565707402
82295.130067152
79516.992556614
77013.098442507
74732.000030034
72633.367635059
70681.872238448
68876.324740163
67208.617838064
65669.240768146
64244.502673169
62931.451226729
61721.838736958
60606.507677395
59574.300228788
58619.428379815
57735.784251584
56917.464868445
56157.787498139
55452.63142586
54797.756676309
54189.570101613
53624.630802765
53100.167365884
52613.274930333
52159.308251763
51734.000186606
51333.056621038
50954.151146139
50595.711062279
50257.06248942
49937.709597995
49636.708899753
49353.164648606
49085.527866875
48831.949516014
48590.162122745
48357.907545424
48133.242261262
47914.566310479
47701.483671881
47477.656369044
1321694.6796978
9020590.2756841
6505216.88138
4818887.810589
3705111.1048097
2942368.6364462
2402840.6851076
2009919.8027889
1716193.6324272
1491250.7034399
1315001.3219424
1173902.9172277
1058668.9707869
962821.56970721
881778.3012069
812228.30788721
751735.4415555
704946.58624207
656822.16667465
613532.22260426
574173.9213302
538006.56584301
504417.19666616
472919.06970081
443180.64125628
415071.13374478
388680.85001955
364245.52151249
341936.98387039
321592.90343325
302585.11940598
283908.02856852
264413.77881639
242963.28490762
218808.89279001
192243.68846952
165470.31978919
139408.49242752
126599.36885946
119539.10826452
116082.62760576
114668.77241294
114356.25417242
114922.10612978
116146.40871671
117736.42968223
119536.86449224
121360.86548375
123109.8492964
124684.70975726
125981.83726745
126907.60894996
127406.72425638
127519.46950517
127321.40029411
126910.93022042
126431.33132297
125978.19425453
125627.77812184
125426.287655
125384.19032248
125456.32953461
125609.24110876
125798.7294659
126027.29606892
126304.05659789
126634.49355168
127007.01541096
127389.49052893
127741.7637072
128021.33502607
128232.69235149
128326.34606974
5202136.7419565
2115150.6551334
1823865.9111859
1543836.8836383
1291263.2076131
1070179.9941255
877986.74306598
711018.73416957
574981.10839539
458564.5018033
371092.84651894
309811.29946031
257563.95436079
219233.04909479
191280.28005244
170200.07171766
153867.54489645
140762.24987708
129904.23577609
120772.84959736
113023.99778963
106367.32375102
100585.03607264
95521.573281331
91055.764529905
87090.603244371
83555.23519031
80413.808171756
77614.627544172
75106.929952785
72849.560894142
70795.597135794
68913.696971409
67175.526843002
65555.7969856
64044.139470605
62628.490087506
61306.929452496
60074.513717003
58925.593975099
57855.185970712
56856.104293006
55922.291449804
55048.244624022
54231.712167071
53467.862503603
52753.211391913
52083.598095991
51456.893333027
50870.395606392
50320.745140103
49804.117583617
49317.135924077
48858.00199574
48425.286472423
48018.318652471
47636.145414097
47277.653944595
46941.525854627
46625.813210523
46328.669934715
46048.208933719
45782.566542535
45530.002684806
45289.006953275
45058.651766517
44842.930618756
2079415.7223468
8880117.1913108
6365406.4524061
4724164.0788588
3641865.120723
2899233.9054103
2372572.6874278
1988165.7769901
1700194.5551121
1479197.8595019
1305694.171678
1166535.857016
1052695.9181599
957870.18631755
877598.18585658
808654.63887394
748663.73269876
702326.26562556
654592.75465179
611663.57280377
572639.73603446
536782.02637908
503480.29903449
472253.18270084
442774.82375349
414916.45023444
388762.62521918
364538.0675657
342412.9465864
322245.13981577
303446.08440034
285059.49742612
265992.22627045
245163.89345713
221849.61614002
196216.79133598
170046.43116259
143634.09788807
129550.51867989
121271.53154889
116879.44846341
114804.97424652
114093.88591813
114177.13484872
115071.0020802
116398.57027867
117932.67728267
119447.88695816
120866.32590085
122090.5242189
123012.26263176
123543.9284721
123690.07431308
123488.92056545
123023.55714205
122567.25573853
122313.51449819
122348.48759262
122701.18852272
123315.11246102
124083.36070708
124988.87035607
125980.00468039
127004.4699884
128000.83155277
128937.68612061
129807.33165766
130584.91773728
131249.39470238
131747.11195185
132096.25796655
132416.36003039
132579.0207922
5186696.8072044
1812393.2880905
1556095.5589707
1383907.8657971
1210792.0949745
1046059.0558491
893720.0210705
755413.11375887
631821.89725021
526312.63896324
433353.05412721
355970.847058
302730.55764159
256498.18640852
217841.41518801
189408.37543751
168149.49693703
151777.78990899
138767.98543049
128092.27839654
119112.29504879
111439.58991397
104811.16353934
99049.165743664
94009.310673747
89571.097915361
85636.4175893
82130.880972031
78999.537218989
76197.925381725
73680.256425692
71406.444772285
69344.434576947
67464.599638849
65740.674444872
64154.839388293
62687.062850489
61321.58826871
60048.430643193
58852.682141223
57724.691241746
56655.787241335
55644.283682651
54693.029407761
53798.711964354
52958.817864976
52168.368233822
51424.26390511
50723.586862917
50062.803811771
49439.14402928
48848.861230183
48289.851681838
47760.451709557
47259.538384391
46786.413078341
46340.006194663
45919.482383741
45523.1503597
45149.236664099
44795.988453171
44461.770473119
44145.324293459
43845.302778255
43560.326187348
43289.498645904
43104.214725024
3225903.5850636
8621144.4034704
6194589.9178715
4614358.3689845
3568505.271458
2849141.954011
2337518.7037954
1963008.2567169
1681679.9559199
1465216.0477608
1294857.0511771
1157917.1938766
1045672.5673245
952021.05808048
872641.78741248
804406.35066704
745005.63239844
699187.86722569
651916.29853592
609411.50968239
570779.64178092
535284.60185251
502321.00714369
471414.62620492
442246.61999191
414691.31675189
388825.19559638
364859.71988849
342961.37066344
323008.24405457
304455.5286645
286403.2546063
267818.76860927
247685.6959243
225304.43928571
200739.70356382
175389.70060529
148921.02678411
133607.3059957
123960.60512966
118385.82696481
115362.22906931
113912.74738288
113447.41020519
113667.69400416
114479.74044317
115484.56563685
116438.5651559
117274.33305444
117897.99458201
118225.04752608
118276.41672677
118037.56821376
117749.39175286
117671.14634629
117974.46837881
118790.56180143
120082.89360975
121799.87871145
123881.24543069
126178.28552093
128477.30692894
130563.89094622
132322.02816452
133737.47170746
134865.02797678
135755.41888805
136444.7196659
136941.86288965
137220.46363734
137407.4112488
137704.71428484
137892.53140268
5829014.8878918
1657494.7112562
1368480.0490572
1234641.4580512
1114605.6154159
991952.19883556
872877.96180888
759355.16600669
654986.6668357
559547.20705327
475695.58854651
400346.21373071
334949.81912721
288790.91539839
249714.24771542
213796.69635173
185955.50363617
164975.5152882
148817.3158538
136040.05140149
125641.65768155
116938.70816039
109498.36762941
103063.21535239
97461.304268591
92551.41841834
88214.976045915
84361.697182284
80922.272754045
77839.56364385
75064.880850408
72557.403210019
70281.940996443
68209.884003513
66319.248948081
64592.079074225
63009.221632637
61552.79719372
60207.096578127
58954.630524689
57783.133234754
56684.166093855
55647.877910391
54668.993446164
53741.396593363
52858.772018286
52019.826793416
51223.573864829
50468.399413015
49752.543930445
49072.777884271
48427.773650839
47815.158398965
47233.077372376
46680.38635592
46155.891688256
45659.389696172
45189.03761434
44743.027241615
44319.567484812
43917.033862118
43534.471333592
43170.777145825
42824.622156561
42495.174378427
42181.557826224
42283.869788443
4846033.918145
8346403.3965627
5998800.3696337
4489129.0482352
3485588.0256009
2792640.2334542
2298031.2957174
1934684.2483185
1660807.792382
1449404.0535112
1282545.1869025
1148072.8167234
1037607.1208517
945273.98007131
866906.00279658
799480.10973376
740757.96043863
695529.29887849
648788.71589207
606769.04810065
568583.43626818
533501.12891632
500923.33709699
470384.77135531
441576.35472664
414374.99252777
388848.4758155
365192.73620748
343566.53430965
323867.84246673
305597.18661224
287916.25380588
269855.74500611
250466.97396128
229078.05063643
205672.93933318
181328.72103414
155156.18910332
138832.18832536
127851.95229663
120986.78653515
116802.86908044
114293.62967208
112878.2534416
112218.3406541
112020.7402163
112056.66982066
112099.84671008
112111.70287619
112091.38343571
112023.40116047
111988.10847705
112152.47662719
112802.85972518
114037.44707613
115849.15015596
118441.71466668
121884.21580113
125885.00996342
129767.95321765
133135.83870964
135811.4004242
137801.10063098
139200.90827868
140153.09235239
140807.46461579
141261.60547447
141561.75041911
141711.70825747
141776.548069
141894.15708413
142199.59224388
142377.86898521
7382363.6457065
1542480.7262926
1256373.3110282
1114075.7521546
1022393.4639354
929084.72758081
836563.0643509
744129.04056613
656777.55385531
573242.24862498
497452.70910434
430823.85643383
367585.54866131
311156.98464621
272307.74916355
239374.54981279
207777.52945614
181487.88725003
161281.38582446
145612.22862905
133203.85684353
123131.64710663
114728.19464517
107557.4282704
101352.31446915
95933.349867236
91166.072478597
86945.954403913
83191.143889422
79833.483065776
76814.794649606
74085.216031943
71605.900432194
69347.260718298
67285.039543947
65399.239392683
63672.184988334
62088.2120445
60630.750187035
59283.467350346
58033.793757319
56869.84890153
55780.294434785
54758.433254184
53797.913384776
52891.542774536
52034.517664428
51220.569513524
50443.861478279
49701.479401533
48989.86671037
48307.672269915
47655.753921002
47033.19783571
46439.856548802
45876.234200239
45340.587765274
44831.465722709
44346.617659194
43884.226044925
43443.35748871
43022.55195978
42620.839560117
42237.345495073
41870.992419036
41521.219031081
44105.547636756
7122253.1857228
8020192.0373351
5786530.9878982
4351061.7269842
3393812.1526323
2730091.8205559
2254303.3477578
1903285.7320595