/*--------------------------------*- C++ -*----------------------------------*\
| =========                 |                                                 |
| \\      /  F ield         | OpenFOAM: The Open Source CFD Toolbox           |
|  \\    /   O peration     | Version:  2312                                  |
|   \\  /    A nd           | Website:  www.openfoam.com                      |
|    \\/     M anipulation  |                                                 |
\*---------------------------------------------------------------------------*/
FoamFile
{
    version     2.0;
    format      ascii;
    arch        "LSB;label=32;scalar=64";
    class       volScalarField;
    location    "0.00017";
    object      p;
}
// * * * * * * * * * * * * * * * * * * * * * * * * * * * * * * * * * * * * * //

dimensions      [1 -1 -2 0 0 0 0];

internalField   nonuniform List<scalar> 
109340
(
389520.82201293
387960.89128109
385011.59937543
381473.4901236
377604.0146974
373613.4627482
369583.70934343
365564.87367855
361644.05192953
357812.07792105
354014.64974412
350248.14660435
346516.13408468
342821.05540981
339164.63030439
335548.37992122
331971.73503504
328432.33198523
324925.4081704
321444.31207972
317979.05913735
314518.77760912
311051.0957829
307561.2361287
304029.4534787
300430.1044093
296728.94224903
292879.85135914
288819.49376616
284458.90208692
279670.00561994
274262.78169235
267950.13938745
260306.96720547
250745.07926517
238535.90844267
389754.25471389
387752.25241909
384446.5439305
380676.96937204
376704.8635335
372710.3085704
368745.47257894
364821.12440928
360933.50320944
357085.98328847
353272.9805671
349495.43626887
345755.80550463
342055.62059039
338395.8838203
334776.19320529
331196.58632405
327654.15311006
324143.33166552
320656.36824611
317183.05943093
313712.29317223
310231.33386249
306724.57696122
303171.14414606
299543.54127155
295805.02763631
291905.78748458
287776.85766319
283320.5790609
278394.55108912
272783.22111718
266148.15113902
257966.59986456
247384.83699306
233490.71465719
390627.13274511
388306.15151081
384663.96392221
380803.272925
376862.7580462
372922.4420276
368975.06905797
365032.82707601
361120.61355993
357246.14166847
353408.4591575
349608.14751542
345847.04387404
342126.66365201
338448.54968461
334813.78454003
331222.09196189
327670.6601012
324153.45349173
320662.34306895
317186.3420779
313714.14737504
310232.87873046
306726.72626991
303174.67385933
299548.97395031
295812.75732942
291916.09841191
287789.87607674
283335.79196083
278409.81785392
272790.19516793
266110.27802945
257759.08896801
246642.97274698
231017.94480678
391845.4204055
389041.66914459
385209.56720029
381235.12370578
377214.28485161
373188.34215592
369171.74576029
365178.73049299
361225.71720236
357318.41506703
353456.39651669
349639.13307071
345866.7891029
342139.66742444
338458.00075304
334821.74802371
331230.15986874
327680.02807763
324164.39989612
320675.38043821
317200.52691024
313729.08623725
310248.52153629
306743.01611418
303192.10310038
299567.9294369
295833.71256161
291939.54950189
287816.15198755
283364.31976122
278438.07063655
272810.03016526
266076.64104548
257513.99089428
245629.99266806
227078.17511581
393774.56160352
390116.71087161
385716.11616491
381466.24836504
377334.06739377
373267.45615302
369237.38760659
365245.80282363
361296.35969302
357389.4983794
353526.86062414
349708.90907982
345935.99212867
342208.55178797
338527.06738058
334891.97217994
331303.51565625
327759.704189
324246.83175813
320763.7105465
317292.62550652
313824.36240028
310346.93962273
306844.02619731
303296.27529855
299675.55991164
295945.21298749
292055.31226265
287936.24189421
283487.67996365
278558.03010642
272927.26603471
266144.08409968
257375.59215844
244628.70490113
221614.82997501
397399.32822302
390688.70176495
385836.10208249
381496.58174285
377359.19284983
373301.21742226
369281.55079206
365292.81838047
361341.31144181
357428.57666272
353557.35488109
349728.52626068
345942.6460981
342200.22224229
338501.81597733
334848.12906171
331240.14301422
327684.14724798
324195.40336852
320706.90310686
317228.22856853
313752.93851634
310269.17814815
306761.28875948
303208.74011404
299583.76678588
295849.42390513
291955.77023235
287833.23811422
283381.0434675
278437.47445421
272809.24803839
266001.14179109
257133.39078118
243916.1901828
216053.43701423
223830.55878984
209150.0946257
196869.17183256
186879.57496003
178095.03590996
168562.96454527
157991.82248537
146308.72163467
133628.14282963
120237.96730808
106000.08954589
92996.848999814
80556.560726797
69058.73164213
58988.011265372
50217.095392099
42750.811140166
36452.652765861
31157.677705507
26757.222311531
23109.199480732
20056.702856462
17496.823575083
15349.808945435
13541.137379457
12019.603586504
10700.595296653
9561.0909453104
8622.4549244505
7752.9348106109
7055.2685439649
6396.6850929535
5853.9554755392
5349.8920912499
4920.9721896885
4526.6542841198
4186.0793299634
3870.3306131854
3598.3377722844
3340.5749768165
3121.6927510365
2908.513756947
2729.9891912967
2553.061129941
2404.6483582871
2258.121827148
2131.9541551141
2011.5528727074
1901.8309587358
1801.3499548802
1706.5486273946
1619.7587899585
1539.0402812962
1464.1922624624
1394.4640853636
1329.4698268808
1268.7348125618
1211.9498869248
1158.7863668658
1108.9618708143
1062.1937724438
1018.2348987079
976.86140736077
937.87495671338
901.09018944874
866.32925887754
833.44109154539
802.68194669353
1480.3653854389
5380.8335793692
5916.2447187546
5925.922776389
5914.9424895724
5903.8512820211
5893.856766013
5885.5467630229
5879.7682412183
5877.2749548096
5878.3264411926
5883.108771624
5891.3297843652
5902.8165406983
5917.4132002291
5934.9794456218
5957.8081179103
5980.5225057294
6005.1437642515
6031.2736515551
6058.7051198687
6087.2780219301
6116.78826716
6146.9372200989
6177.2011080546
6206.889450548
6235.3232528147
6261.8668979431
6286.0401765929
6307.5467843385
6326.2134548937
6341.5856079215
6353.8123130978
6363.1184460406
6368.6941646835
6370.1653401355
6365.242263213
6360.1729047183
6353.7971157079
6346.186225771
6337.6869238228
6328.5521273056
6319.1608543116
6309.7760858512
6301.2384403899
6289.6550786857
6279.2728024275
6267.4857908834
6256.218583212
6244.2485748454
6232.5443795109
6220.6104850415
6208.6664555975
6196.5216170145
6184.6831823345
6172.6023895436
6160.4223620266
6148.2487201636
6136.3274460097
6124.6085624198
6113.0942849348
6101.740386239
6090.4328589695
6079.393137048
6068.6484733664
6058.3080266136
6048.2751821664
6038.6675277343
6029.1953126196
6019.9807178623
6009.6579455753
5998.7169008981
216281.40124407
200783.87817391
189186.90122652
180185.03358265
170775.97170177
160945.14808317
150062.16135473
138247.353135
125741.40663928
112798.93731419
99787.269910345
87035.472255902
75592.626523371
65092.526176654
55708.594649741
47574.88666924
40601.714733597
34702.091858628
29755.991503408
25621.646378616
22168.155844902
19282.726781624
16862.245296348
14821.882103576
13096.322874998
11630.177170934
10377.44004077
9300.556784657
8372.644259013
7567.0055516324
6864.2729501897
6251.3135656175
5710.1638288366
5234.2647574157
4810.3701303398
4434.9812833431
4098.0926507679
3797.7887262255
3526.5626714196
3283.2562251164
3062.3640348617
2863.0162446568
2681.1428722479
2515.8451021971
2364.6297437006
2226.1541922864
2099.214902894
1982.2036283104
1874.746240813
1775.2716568213
1683.4408790973
1598.1312535059
1519.0202588916
1445.4671620193
1376.9841464424
1313.1068119148
1253.433944545
1197.6189809245
1145.340326312
1096.3155409879
1050.2829622749
1007.0037758334
966.25513895418
927.83772338626
891.57775871784
857.32750283895
824.97997861211
800.42684715714
2579.7762175729
5680.0553208138
5924.3846967216
5921.4926828772
5910.4777954619
5899.9519868287
5890.6549722248
5883.2184487272
5878.4291141063
5876.9532472019
5878.9413565758
5884.5729646686
5893.5328461392
5905.7093886974
5920.9380797195
5939.0531481762
5956.7549713576
5979.0714807796
6003.5305451458
6029.4813631115
6056.7396304163
6085.1381640583
6114.4698556833
6144.4314929654
6174.4938443146
6203.9667069575
6232.1758214925
6258.4929781122
6282.4706148371
6303.8590903193
6322.5418081828
6338.0953227974
6350.681265962
6360.4800467027
6366.5487938579
6368.6027139117
6364.2097625133
6359.4545049114
6353.2850951053
6345.8475009298
6337.465703619
6328.4101442557
6318.9985325774
6309.489444132
6300.8265242188
6289.3412352432
6278.9279118071
6267.2325315666
6255.9583180735
6244.0443647913
6232.3560406634
6220.4540514263
6208.5328807533
6196.4360059032
6184.5956757893
6172.5163556376
6160.339583029
6148.1692897807
6136.254364282
6124.5238810718
6112.9957672803
6101.6359297935
6090.340319927
6079.3017974482
6068.5666450949
6058.2065075096
6048.136420113
6038.4768508679
6029.0303768611
6019.9902903604
6009.7807704028
5998.7622175369
209758.07821382
191484.64081144
180958.76290449
171680.97334945
161714.76200502
151434.75540824
140731.66969599
129457.9502422
117821.11111645
105659.22738814
94375.565235963
83145.293336232
72544.125107871
62829.621399721
54076.497643388
46372.189876107
39722.832851582
34073.00978961
29303.164182306
25283.650874578
21912.155360748
19089.615063495
16713.599145344
14706.320892848
13006.948205525
11559.123524194
10319.739349905
9255.611504773
8335.198577725
7536.9180850578
6839.5081480802
6229.6310378443
5692.8744989514
5218.6043747513
4798.1378479115
4423.520850539
4089.2354817867
3789.4185072823
3519.997937798
3277.0659400103
3057.3993092579
2858.3665225486
2677.1638164866
2512.3474826146
2361.3865506259
2223.5057902119
2096.5812665027
1980.1618171036
1872.6324110053
1773.4909120227
1681.7147683914
1596.6931681658
1517.7333177448
1444.2564149763
1375.8628570352
1312.0687813031
1252.4921385081
1196.7569450212
1144.5487231632
1095.5835367766
1049.6059603613
1006.3763708637
965.67196342977
927.29277970939
891.06677597254
856.85615193517
824.53639449817
800.45048657483
2622.5017585451
5688.6462895598
5925.7617884172
5922.5428145988
5911.138410405
5900.3115601139
5890.8764270968
5883.4546898065
5878.7271548223
5877.2909990715
5879.2914218241
5884.9089082145
5893.8533840511
5906.011972457
5921.2287882963
5939.3065645851
5956.9033878113
5979.2726206566
6003.6748983714
6029.6177017522
6056.8689075519
6085.2552368763
6114.5644830989
6144.4864725422
6174.4934002108
6203.9153064671
6232.0558842643
6258.2953302387
6282.1936818856
6303.5042112264
6322.1290550243
6337.6393847279
6350.2543339017
6359.8107065608
6365.7743897983
6367.9764531938
6363.5330019969
6358.8034493254
6352.691994911
6345.3054783023
6336.9764532807
6327.9727800105
6318.6253873036
6308.9338178287
6300.1656058127
6288.9050971576
6278.4305793117
6266.875700433
6255.5866618555
6243.7495826433
6232.0665843671
6220.2067023989
6208.3264438134
6196.3002725012
6184.406509407
6172.3087717061
6160.1474820318
6147.98424394
6136.1021935488
6124.3779642633
6112.8452797814
6101.4842759731
6090.2132651687
6079.1847325271
6068.4828042794
6058.1619057632
6048.0672039172
6038.3759901733
6028.9476582575
6019.8461529387
6009.8874770332
5998.7698707659
197522.76802382
176228.78797056
166028.79686828
155357.62685988
146430.02748611
136445.75830719
126750.03358025
116912.89935287
106898.82670979
96656.905368934
87406.998730195
77852.020175417
68545.154762704
59838.992304074
51838.477759626
44744.73060537
38546.962157393
33204.498920563
28657.611957919
24815.999710559
21568.46552873
18819.828355878
16506.974315755
14548.958127474
12881.539530319
11458.866424464
10240.776397911
9191.310063441
8282.7828818618
7493.5114971605
6804.6041466535
6199.5617886447
5667.9462366879
5197.2750813207
4780.1661472483
4408.141611385
4076.2180880066
3778.0511937106
3510.426120932
3268.6305307821
3050.2684863608
2851.8741845613
2671.7674774914
2507.3375873839
2357.1656889004
2219.5575960545
2093.2123392877
1977.058215683
1869.8505681562
1770.995520287
1679.4148408758
1594.6506754739
1515.8685824491
1442.6034690451
1374.3398677472
1310.6704446965
1251.2035152964
1195.5703149435
1143.4611736167
1094.5855904047
1048.6849361998
1005.5195697587
964.87301787823
926.5500696353
890.38225721455
856.23255072536
823.9374612863
800.63823009185
2686.221599027
5699.4532630793
5927.4128033305
5923.8197598168
5911.9727068026
5900.8076915169
5891.2212140606
5883.8091050112
5879.1568359314
5877.767043344
5879.7748088094
5885.3741142783
5894.2997053656
5906.4382080526
5921.643850308
5939.6991571637
5957.2524618578
5979.6235401331
6003.9958942536
6029.9238388531
6057.161572885
6085.5264050689
6114.7955377588
6144.6512366429
6174.5703948719
6203.9030447541
6231.9484312383
6258.0947298154
6281.9061777288
6303.1339851519
6321.6962072454
6337.1543766409
6349.7298556519
6359.1751782634
6365.0636529587
6367.2132446287
6362.7165526776
6358.0002922971
6351.8975007164
6344.5233543151
6336.2005813605
6327.195419289
6317.8433453223
6308.107006471
6299.245652598
6288.072613991
6277.6442165302
6266.1193498702
6254.879737256
6243.082942121
6231.4405165898
6219.6168349762
6207.7723990692
6195.8614031301
6183.9506791665
6171.8680388646
6159.7104332062
6147.5734343343
6135.7389444239
6124.0304420913
6112.5228691357
6101.1685422047
6089.9596314284
6078.9763017057
6068.3401471111
6058.0031575283
6047.8377392465
6038.1711373949
6028.7246755108
6019.6710654307
6010.0061300567
5998.6150619234
171063.27243606
151334.70066451
140117.32382215
130615.19561981
123376.89122079
116069.61187733
109185.92288143
102106.03466047
94925.107885101
87549.333999142
79707.765283854
71699.37175561
63801.530093189
56241.595885709
49199.302103585
42780.572398417
37090.865845448
32137.756326526
27868.508078392
24218.283880407
21117.346953186
18489.703651917
16246.254763879
14342.303139503
12721.351840279
11333.691790157
10138.406031717
9108.2508346948
8215.7558252171
7438.2050345785
6758.6430653208
6161.7746078897
5635.586744476
5170.1417771659
4756.8998056525
4388.6530148984
4059.145220447
3763.7447925333
3497.8873032198
3257.9316461165
3040.8180253839
2843.7620290019
2664.5715347244
2500.9899531167
2351.587433207
2214.545760886
2088.8262014177
1973.0198276261
1866.3186912339
1767.7395448512
1676.5130187116
1591.972491672
1513.4432835864
1440.4397115266
1372.3770510736
1308.8766091326
1249.5415318237
1194.0430070965
1142.0591141459
1093.2952615869
1047.4908657483
1004.4099090377
963.8422652217
925.59644641747
889.50704141541
855.4254995407
823.1650802037
800.784007095
2770.6222627826
5712.4847294121
5929.0735854129
5925.1634120333
5912.9271305869
5901.4408497699
5891.7059082787
5884.2949985491
5879.7186153384
5878.3701637731
5880.3789513537
5885.957096957
5894.8609726496
5906.979283427
5922.1722852544
5940.209699444
5957.736607264
5980.0902948592
6004.4348926179
6030.3397977199
6057.5552473975
6085.8897783745
6115.1060415191
6144.8785529383
6174.6888464804
6203.9006086312
6231.8230791239
6257.85470072
6281.5594981275
6302.6968151201
6321.1987673464
6336.5929322664
6349.0830474864
6358.4077595688
6364.188561721
6366.2690813014
6361.7147981812
6357.0106728026
6350.9132514935
6343.5373961679
6335.2059745527
6326.2009546608
6316.8818649211
6307.1013178487
6298.0772908177
6287.0667738211
6276.6082504643
6265.1884901145
6253.9639054395
6242.2343473806
6230.6232517193
6218.8446138296
6207.0555004107
6195.202891012
6183.2169600664
6171.118182393
6158.9961752901
6146.9256651978
6135.1767953092
6123.525511797
6112.0882370213
6100.7749890671
6089.651320792
6078.7546542244
6068.111515395
6057.716890893
6047.611581723
6037.9667095393
6028.5303743631
6019.5211741731
6010.1352392647
5998.391201263
103571.32242357
99978.423845482
98736.492707793
98528.035209362
97174.723639671
94954.225000383
91674.976084567
87837.294803317
82973.673505289
77570.446771797
71517.048494004
65180.523891001
58706.387104494
52307.8988915
46211.847719248
40556.052400426
35438.020981439
30900.864816443
26942.22809675
23522.831715903
20587.571757765
18076.533483086
15936.895861035
14100.123608372
12527.723264557
11178.383103789
10016.764245495
9008.5375710312
8133.3292322462
7370.811116923
6702.8968670843
6114.8943110319
5596.2407639065
5137.2332438987
4728.6703131309
4364.5674767717
4038.6697456486
3746.2224808558
3482.6013609289
3244.8129628581
3029.3609747799
2833.8217657178
2655.7036234744
2493.2873764057
2344.7026134988
2208.4753802921
2083.344140879
1968.1386004699
1861.9583479216
1763.776575658
1672.945220273
1588.69969132
1510.4977754994
1437.7525611903
1369.9495704522
1306.6653672611
1247.5162558835
1192.184061581
1140.3403599458
1091.7038266007
1046.0170370116
1003.0475711613
962.58140397123
924.4274925765
888.42467308348
854.40631717322
822.22222140926
801.18696842562
2875.5711877023
5727.6169587039
5930.5865364329
5926.432408063
5913.9365714072
5902.1958415511
5892.3336202232
5884.9194407166
5880.4044167184
5879.0861992469
5881.0883021488
5886.6437680314
5895.5251587656
5907.6247327682
5922.8031903545
5940.8217671007
5958.3195247457
5980.653742549
6004.9741713399
6030.8575797976
6058.0437957096
6086.3319431509
6115.4760880902
6145.1464900119
6174.8253315889
6203.8858179306
6231.6575028365
6257.5570110837
6281.1507025428
6302.1770168395
6320.5639202737
6335.8596932167
6348.2404458511
6357.4571584144
6363.1359409268
6365.06454085
6360.4835680262
6355.7702121331
6349.6444995034
6342.2422061285
6333.8936124426
6324.8897244599
6315.6049560007
6305.8383524084
6296.6863871344
6285.7901655933
6275.3315801607
6263.9990900642
6252.8260576722
6241.1558710996
6229.5824902567
6217.8460904832
6205.9805050349
6194.0639230432
6182.0037833206
6169.9421812177
6157.9176750086
6145.9802849594
6134.3778852329
6122.8487514271
6111.5374107611
6100.3462633724
6089.3807002431
6078.5159335453
6067.8308994763
6057.4474488464
6047.3611396729
6037.7043149283
6028.2628022603
6019.2952209661
6010.1626451635
5998.03825087
10105.898953189
46045.914691376
60043.491827825
68587.486226656
73709.698983718
76083.119939168
76074.741355426
74620.712224646
72073.818343553
68639.226027561
64521.775586293
59835.956173339
54776.586310265
49539.71700574
44336.512621567
39356.112172702
34718.845994679
30513.49268903
26771.243002377
23488.927929756
20637.341767645
18175.448855623
16054.27979005
14235.715529091
12665.502191931
11308.172625736
10138.395416436
9124.7429475675
8241.6709557157
7468.5355383818
6792.3939149956
6198.1191464477
5672.2951510155
5206.0816466038
4791.9803266203
4422.7088556515
4091.7230204515
3794.8293533195
3527.4817157241
3286.0578541214
3067.2296780637
2868.7364639136
2687.9937354083
2523.1111513783
2372.2075876814
2233.9863381975
2107.0103771816
1990.146862437
1882.3667529762
1782.7827598482
1690.6704429361
1605.2509798381
1525.9473861696
1452.1759184674
1383.4842132153
1319.3960403321
1259.4885702464
1203.4247278272
1150.9027585927
1101.6511702465
1055.3964379458
1011.8962707631
970.93397830365
932.31890513692
895.87474385986
861.4620217376
828.93261892448
799.53761838542
1814.2846387876
5511.8926262244
5927.3845571508
5930.2438571921
5918.121910642
5905.8657654517
5895.360041756
5887.2658558651
5882.0285980295
5879.9125822081
5881.0491194333
5885.7165765201
5893.7634039224
5905.0442795216
5919.4577064852
5936.7675571322
5958.982622458
5981.2889610562
6005.5817858691
6031.4406995449
6058.5964578704
6086.8337177544
6115.8927208394
6145.4383867726
6174.9584956286
6203.8427690999
6231.4460246649
6257.189339406
6280.6350224479
6301.5201525451
6319.7739176286
6334.9556156244
6347.202421703
6356.3163797063
6362.0197039364
6363.9952250794
6358.6310360449
6353.8823448346
6347.6926405397
6340.2156725181
6331.7739937707
6322.6700213589
6313.2993990607
6303.3957875962
6293.9096588704
6283.1182849864
6272.654224053
6261.4724457746
6250.3816542297
6238.8123254654
6227.1851904141
6215.2234302985
6203.276058938
6191.2363157795
6179.127274
6167.1958471525
6155.3683110646
6143.7326315893
6132.3703170369
6121.1172331137
6110.1093925913
6099.0762566605
6088.1918548501
6077.5506966755
6067.0467765204
6056.8686540507
6046.9440455379
6037.3936024172
6028.0863360259
6019.2523900246
6010.6833223123
5997.9926483692
7949.7054037924
14678.953743574
25102.384548445
33683.962901665
40457.205181875
45377.133667234
48655.370283563
50593.027078164
50758.213067436
50023.467943576
48505.811815552
46229.902647507
43387.045249527
40142.068176182
36677.291428139
33174.667664417
29770.493146757
26563.695867656
23623.359594325
20976.282606865
18624.232964085
16553.569975598
14740.822394993
13157.707065446
11779.02776582
10580.233035891
9532.3844525871
8612.6433920683
7808.5083073671
7102.1728792105
6479.9582949527
5927.9486839767
5439.0774237008
5004.1948718366
4616.2013494275
4268.112122989
3955.878913498
3674.9118939484
3421.3139784613
3191.3970568139
2982.7278562208
2792.9384106549
2619.8855049481
2461.5500210772
2316.4955412515
2183.3831147445
2060.9726209671
1948.124705457
1843.8970997129
1747.5417524245
1658.264779183
1575.430679605
1498.4096519707
1426.719272543
1359.8924434636
1297.5008811356
1239.1610343099
1184.5089769709
1133.2639291814
1085.1580670772
1039.9511232098
997.41616763988
957.34989388657
919.57274900668
883.90725162988
850.20463828789
818.30920678453
805.59878093542
3312.7599130553
5779.9306397732
5934.1974448548
5929.3796260758
5916.8507925959
5904.8894546252
5894.8793955897
5887.4773740688
5883.0366722844
5881.7260281498
5883.6893828078
5889.1904324151
5898.0129905717
5910.0634844929
5925.1777910351
5943.1064894494
5960.4905512728
5982.7194558754
6006.9392825927
6032.7292067413
6059.7994133776
6087.9024312263
6116.7482889984
6145.9884351031
6175.1289605444
6203.6006658152
6230.7989679139
6256.1591970661
6279.249357962
6299.7915174533
6317.7045252158
6332.5936097928
6344.5110107146
6353.3409535709
6358.8389946364
6360.6984633198
6355.2065962834
6350.4592261708
6344.1489674
6336.5246464475
6327.9384501866
6318.746416757
6309.3418331985
6299.4726327367
6289.716334152
6279.0481947536
6268.6129403846
6257.6526902563
6246.5560192015
6234.9783408585
6223.2636668148
6211.4113468451
6199.5819782619
6187.611400548
6175.5932073027
6163.8999529311
6152.4757527696
6141.2570123575
6130.3461178583
6119.3976076602
6108.5112707936
6097.8358935958
6087.2353630217
6076.6922611175
6066.3503590682
6056.2934867942
6046.4868459443
6037.0208793547
6027.9292366203
6019.2657042535
6011.0460889504
5997.9237473047
7689.6990679713
8435.5039857561
12980.277490945
18438.809260499
23496.637947468
27786.732507226
31262.625322805
33850.80881585
35572.400156896
36394.714628124
36377.322588679
35820.351251977
34553.289996307
32798.582409728
30665.93873017
28321.15402688
25897.995916467
23500.4543157
21208.786298702
19073.615588959
17123.091092482
15365.382204727
13796.159563076
12403.7600873
11172.392705003
10086.537152142
9129.0888093218
8284.3426316565
7538.8726986919
6877.821252624
6291.0471328386
5770.0372497148
5305.832790308
4891.6057364491
4519.4966881346
4185.3445225943
3884.7021017299
3613.471734326
3367.7564697997
3144.6321287705
2941.9148062005
2757.1497924897
2588.2836394811
2433.4973810694
2291.6320355708
2161.2379387838
2041.1877728897
1930.3529953308
1827.9322586398
1733.1533837922
1645.2813420261
1563.6574999412
1487.7035629337
1416.9725702646
1350.9933860223
1289.3566307317
1231.6778037067
1177.6295321772
1126.9396176813
1079.3289884568
1034.5578949575
992.4113425883
952.69836049075
915.24990425691
879.8994437961
846.48478405366
814.85686998241
817.50826125013
3701.1378778587
5818.190493224
5937.4202525746
5931.1200334682
5918.6144560617
5906.7475844052
5896.807688048
5889.4579122331
5885.040362043
5883.7195835623
5885.6851781556
5891.1764354625
5899.9702205317
5911.9814260664
5927.0261202446
5944.8574582208
5962.1442337837
5984.2648270319
6008.3807561914
6034.0664647357
6061.0098401572
6088.9320074721
6117.5125983218
6146.3875147704
6175.0734214942
6203.0655619951
6229.7904944687
6254.7044048976
6277.3632713149
6297.4778102391
6314.951935909
6329.4661298561
6340.9737408522
6349.4434971449
6354.6746520191
6356.4159112247
6350.571387516
6345.8019214387
6339.4241660044
6331.7566148364
6323.146076412
6313.988252604
6304.632599927
6294.8240184034
6284.8477462586
6274.2924927889
6263.751539654
6252.857591645
6241.88823644
6230.4373405305
6218.7693275936
6207.2887389678
6195.5888381112
6183.8582703075
6172.2455603233
6160.9691054732
6149.8531242316
6139.0527919509
6128.3648702962
6117.991914845
6107.436067152
6096.8451894881
6086.3672762083
6076.0441802482
6065.7857344914
6055.7432229787
6045.941104781
6036.5963691664
6027.5773102451
6018.8856967776
6010.6984343437
5997.1665194647
7008.8106013456
6996.0439997143
8443.8247267013
11608.815203753
15088.653109523
18361.669676708
21271.352007238
23690.503254615
25642.441695613
26932.018339738
27654.057700306
27775.53893039
27453.025666855
26618.929784885
25414.887457908
23937.138571005
22282.993121681
20554.904310529
18826.776097022
17155.096652815
15580.363618839
14124.57980286
12795.598381478
11594.090201613
10514.607545387
9548.6120916117
8686.9862170463
7919.06677553
7234.4641398899
6623.7650349216
6078.6015066226
5591.1333464498
5153.788484799
4761.058644366
4408.0441068732
4089.986076959
3802.7243159733
3541.8266593759
3305.1054379198
3090.0345859256
2894.0314528679
2714.9948709772
2550.8052649362
2400.4167262926
2262.2309969294
2135.0764232716
2017.7081215038
1909.2661867769
1809.0021919272
1716.0829246046
1629.8561162468
1549.6411327989
1474.9636222689
1405.370098779
1340.3977060372
1279.6459147994
1222.7380258234
1169.4024009662
1119.3564733178
1072.3355942222
1028.099643898
986.42862201811
947.14928953027
910.09164044647
875.08498996653
841.99138989663
810.5941903791
844.41293021565
4133.1391434675
5856.3922332806
5940.9597032271
5932.7319844267
5920.1780013297
5908.4540837258
5898.6683139351
5891.43269753
5887.0820060403
5885.7871315005
5887.8090645292
5893.3095710103
5902.0758980985
5914.0301042459
5928.9794958925
5946.6853798544
5963.8582503642
5985.8406316934
6009.8165384685
6035.355430329
6062.1277564898
6089.832615417
6118.1119109738
6146.566963346
6174.7751836046
6202.2438908972
6228.4268294496
6252.8100090254
6274.9694727631
6294.5771678334
6311.5112746414
6325.5733459883
6336.5801724275
6344.6102314387
6349.5131416136
6351.1136820065
6345.0713921182
6340.394418266
6334.0261967504
6326.3643319263
6317.7662346288
6308.6541437232
6299.3244329064
6289.6077116999
6279.5427187659
6268.8386921127
6258.3778162825
6247.642356086
6236.84490002
6225.5469110568
6214.1209836091
6202.8928631389
6191.6002828721
6180.1996224688
6168.8999931402
6158.0395168597
6147.5532617867
6137.4324021522
6127.0796626287
6116.6239253383
6106.2408745961
6095.8752796439
6085.499941351
6075.2138014915
6064.9940936229
6054.9891021207
6045.4156979992
6036.1216846389
6027.2480859104
6018.6171865321
6010.3167928912
5997.2269576938
6365.1829698039
6365.1485400685
6596.42134128
8180.1769881747
10492.492218464
12891.658453382
15183.3884826
17215.126876885
18992.964912799
20337.238780526
21291.652273431
21814.51385136
22030.048464062
21674.858680237
21077.496289431
20175.195302641
19094.276849113
17875.64336178
16603.503455948
15323.391389985
14075.904109506
12891.104716045
11784.106616482
10763.13304388
9830.1770082322
8983.1555871077
8217.7312288375
7528.1145878526
6907.3331260752
6348.7554786244
5846.0995166227
5393.4783278999
4985.5993738543
4617.5869073202
4284.715681756
3982.9917833375
3709.483311667
3460.9435510885
3234.7232114033
3028.4913091899
2839.5732032855
2666.660407089
2508.2305343572
2362.6391386032
2228.7163916587
2104.9739357278
1990.7365073852
1885.1209950312
1787.2678509876
1696.5000912914
1612.0507167934
1533.4789749505
1460.2888834126
1391.989734285
1328.1604499825
1268.3793723019
1212.3992932856
1159.9001949588
1110.6016433858
1064.2540182034
1020.6170069505
979.50570282568
940.7436413492
904.14763185571
869.57547854405
836.87090755388
805.87119254403
903.8392376844
4577.6951905029
5886.2884007537
5943.0672655144
5933.8542282792
5921.4223169237
5909.9318219347
5900.380287019
5893.3347690065
5889.1122981341
5887.9062220208
5890.0233214283
5895.5387189452
5904.2734020513
5916.1511995463
5930.9830758975
5948.5402341497
5965.5790907205
5987.3915792934
6011.1873648716
6036.5438315814
6063.1108382775
6090.5395793337
6118.451319834
6146.459420108
6174.1593640067
6201.0599974292
6226.6557295929
6250.4523982376
6272.0367030257
6291.0692151206
6307.3803770077
6320.8924048168
6331.3557920313
6338.8825359027
6343.3897361284
6344.7635154767
6338.5305547824
6333.9473606359
6327.6469567268
6320.0910890209
6311.6355796005
6302.6874306487
6293.4725106189
6283.9283146595
6273.938521057
6263.4334812707
6253.0957437929
6242.550121689
6232.015038079
6221.0138559091
6210.1005327686
6199.1067373264
6188.1021169406
6177.7571508572
6167.4523896435
6156.9482426317
6146.4110479453
6136.0041761256
6125.6689555066
6115.2939246561
6104.9660282647
6094.6784718067
6084.4359223809
6074.3143984019
6064.2296496931
6054.5026498683
6045.1179864306
6036.0146090429
6027.1782360102
6018.4472358177
6009.901064863
5997.4523904068
5845.3832641508
5823.4223698256
5783.9103737921
6372.2449682889
7807.67163959
9539.9566505132
11310.535176955
12949.628693639
14477.029928387
15706.680039434
16709.010495252
17396.467665891
17745.211193279
17732.093557433
17491.791814398
17007.413866841
16328.828893463
15501.023661165
14584.597991057
13620.519866081
12649.025712212
11699.832078601
10791.748747462
9936.4403034971
9140.5942955065
8406.9438383757
7734.6761695953
7121.5623563876
6564.1229669685
6057.9820360052
5598.8353182066
5182.4092974329
4804.6532714098
4461.7553443144
4150.110754185
3866.5910438745
3608.2899147148
3372.4969774158
3156.8261679947
2959.6455516161
2779.0470567799
2613.3857555705
2461.0944875132
2320.5731508805
2190.930281164
2071.2901102107
1960.6067351061
1858.1106439955
1762.8796521205
1674.309301075
1591.9996186458
1515.2963664461
1443.7585208807
1376.8846357208
1314.2685831068
1255.6811662438
1200.7468864104
1149.1944946342
1100.7371602949
1055.1223621391
1012.1844194374
971.7137714871
933.53148538812
897.47997248836
863.38883099867
831.11513184959
800.25639501183
1046.7059233558
4985.3728983216
5910.3751391147
5944.3314371752
5934.4105763036
5922.3041670024
5911.1700301405
5901.9433442736
5895.1598167331
5891.1300569915