/*--------------------------------*- C++ -*----------------------------------*\
| =========                 |                                                 |
| \\      /  F ield         | OpenFOAM: The Open Source CFD Toolbox           |
|  \\    /   O peration     | Version:  2312                                  |
|   \\  /    A nd           | Website:  www.openfoam.com                      |
|    \\/     M anipulation  |                                                 |
\*---------------------------------------------------------------------------*/
FoamFile
{
    version     2.0;
    format      ascii;
    arch        "LSB;label=32;scalar=64";
    class       volScalarField;
    location    "0.00017";
    object      pTsat;
}
// * * * * * * * * * * * * * * * * * * * * * * * * * * * * * * * * * * * * * //

dimensions      [1 -1 -2 0 0 0 0];

internalField   nonuniform List<scalar> 
109340
(
389520.82196042
387960.89133796
385011.59939063
381473.49012864
377604.01469749
373613.46275005
369583.70934177
365564.8736784
361644.05193434
357812.07792295
354014.64974924
350248.14660635
346516.13409367
342821.05540864
339164.6303015
335548.37991879
331971.73503573
328432.33198293
324925.40817462
321444.31207742
317979.05913805
314518.77760672
311051.09578724
307561.2361303
304029.45347356
300430.10441211
296728.94224722
292879.85136032
288819.49376476
284458.90208373
279670.00561869
274262.78169394
267950.13938579
260306.9672054
250745.07926562
238535.90844207
389754.25471937
387752.252444
384446.54393441
380676.9693778
376704.86353741
372710.30857075
368745.47257814
364821.12440894
360933.50321577
357085.98329125
353272.98056819
349495.43627131
345755.80550745
342055.62059041
338395.88381995
334776.19320176
331196.58632567
327654.15311537
324143.33166457
320656.36824834
317183.0594283
313712.29317094
310231.33386362
306724.57696173
303171.14414659
299543.54127607
295805.0276342
291905.78748218
287776.85766172
283320.57906277
278394.55109044
272783.22111697
266148.15113936
257966.59986439
247384.83699254
233490.7146571
390627.13274409
388306.15151825
384663.96393098
380803.27292977
376862.75804752
372922.44202706
368975.06906162
365032.82707847
361120.61356165
357246.14167106
353408.45915296
349608.1475158
345847.04387609
342126.66365437
338448.54968313
334813.78453993
331222.09196165
327670.66010002
324153.45349314
320662.34306651
317186.34208254
313714.14737425
310232.87873193
306726.72627385
303174.6738562
299548.97394712
295812.75733
291916.09841105
287789.87607725
283335.7919618
278409.81785388
272790.19516828
266110.27803022
257759.08896819
246642.97274691
231017.94480617
391845.42039325
389041.66914744
385209.56720501
381235.12370507
377214.28485247
373188.34215948
369171.7457616
365178.73049583
361225.71720226
357318.41507278
353456.39651376
349639.13306927
345866.78910674
342139.66742357
338458.00075256
334821.74801849
331230.15986658
327680.02807227
324164.39989425
320675.38043862
317200.5269086
313729.08623721
310248.52153822
306743.01611756
303192.10310222
299567.92943725
295833.71256163
291939.54950639
287816.15198629
283364.31976313
278438.07063556
272810.0301665
266076.64104594
257513.99089331
245629.99266795
227078.17511591
393774.56159286
390116.71087414
385716.1161648
381466.24836487
377334.06739313
373267.45615415
369237.38760643
365245.80282068
361296.35968825
357389.49837896
353526.86062278
349708.90907567
345935.99212826
342208.55178592
338527.0673813
334891.97217948
331303.51565954
327759.70418583
324246.83176124
320763.71054009
317292.62550892
313824.36239946
310346.93962162
306844.02619731
303296.27529987
299675.55991135
295945.21298895
292055.31226221
287936.24189334
283487.67996324
278558.03010746
272927.26603508
266144.08409977
257375.59215901
244628.70490114
221614.82997458
397399.32821426
390688.7017638
385836.10208271
381496.5817439
377359.19284793
373301.21742127
369281.55079055
365292.81838325
361341.31144359
357428.57666392
353557.35487766
349728.52625955
345942.64609284
342200.22224307
338501.8159776
334848.12905999
331240.14301663
327684.14724886
324195.4033707
320706.90310792
317228.22856737
313752.9385148
310269.17814836
306761.28875887
303208.74011015
299583.7667853
295849.42390537
291955.77023196
287833.23811583
283381.04346793
278437.47445352
272809.2480383
266001.14179123
257133.39078104
243916.19018281
216053.43701394
223830.55878218
209150.09463295
196869.17176703
186879.57587222
178095.03186534
168562.96415045
157991.82254024
146308.72193193
133628.14292208
120237.96272709
106000.10426352
92996.850889538
80556.557735947
69058.732562674
58988.010730694
50217.096013041
42750.810895154
36452.65264714
31157.677967786
26757.222215596
23109.199238994
20056.702319301
17496.822120416
15349.807286777
13541.141363018
12019.60420763
10700.58436436
9561.1046655201
8622.4578188652
7752.9339371233
7055.2635168682
6396.676876701
5853.9347364354
5349.883589787
4920.9600320214
4526.6469297592
4186.0619353931
3870.3245372664
3598.328539357
3340.5703433564
3121.7001429713
2908.510790602
2729.9896727027
2553.0603840965
2404.6456787193
2258.1246082485
2131.9520383162
2011.5582196904
1901.8298211526
1801.3503969456
1706.5486802077
1619.7587153655
1539.0402844424
1464.1922452909
1394.4640749426
1329.4698148612
1268.7348023012
1211.9498736429
1158.7863529888
1108.9618552828
1062.193756996
1018.2348847436
976.86139718388
937.8749510353
901.09018740888
866.32925649958
833.44109186039
802.6818949342
1480.3627422941
5380.8365503555
5916.2446315881
5925.9225252762
5914.9423289182
5903.8511990852
5893.856738007
5885.5467117266
5879.7681670814
5877.2748589531
5878.3263286648
5883.1086632179
5891.3296943965
5902.8164417512
5917.4131022487
5934.9793496404
5957.8084970536
5980.5224666638
6005.1437243601
6031.273614287
6058.7050841867
6087.2779871813
6116.788233365
6146.9371878247
6177.2010780619
6206.8894212048
6235.3232270938
6261.8668758839
6286.0401601749
6307.546775062
6326.2134539136
6341.5856149005
6353.8123269845
6363.1184662366
6368.6941837017
6370.1653571045
6365.2422734193
6360.1729140659
6353.7971246623
6346.1862349708
6337.6869338635
6328.5521384511
6319.1608636149
6309.7760934485
6301.2384476834
6289.6550865336
6279.2728098922
6267.4857974585
6256.2185899681
6244.2485812736
6232.5443855685
6220.610491052
6208.6664614591
6196.5216223083
6184.6831874582
6172.6023945996
6160.4223675113
6148.2487263016
6136.3274528242
6124.6085696374
6113.0942920114
6101.7403939293
6090.432866777
6079.3931450893
6068.6484816551
6058.3080348653
6048.2751897456
6038.6675347781
6029.195318846
6019.9807243359
6009.6579533404
5998.7169176991
216281.40123868
200783.87820594
189186.90418304
180185.05259541
170775.97899153
160945.13392797
150062.16086079
138247.35303352
125741.40663395
112798.93960399
99787.269678078
87035.471590266
75592.627491342
65092.525706366
55708.594769059
47574.886734528
40601.714695361
34702.091983938
29755.991433236
25621.646382763
22168.155888452
19282.726811063
16862.245433924
14821.882279459
13096.322580709
11630.176357912
10377.441445444
9300.55563189
8372.6437858822
7567.0070125037
6864.2722399187
6251.3145062341
5710.1629436215
5234.2649781819
4810.3693511255
4434.9817289004
4098.0919589925
3797.7888985925
3526.5622264183
3283.256634405
3062.3636738968
2863.0168894871
2681.1430066068
2515.8454472576
2364.6300163455
2226.1539898171
2099.2150055667
1982.2032242396
1874.7463300657
1775.2715869851
1683.4408951568
1598.1312615141
1519.0202204549
1445.4671649195
1376.9841277102
1313.1068056529
1253.4339304427
1197.6189695255
1145.3403105404
1096.3155254521
1050.2829456059
1007.0037614109
966.25512823798
927.83771834977
891.57775850536
857.32750693115
824.97998148352
800.42702778638
2579.7753742435
5680.0568266596
5924.3846439671
5921.4925634336
5910.4777184685
5899.9519472894
5890.654944266
5883.2184011855
5878.429040221
5876.9531498467
5878.9412481471
5884.5728550598
5893.532745598
5905.7092852337
5920.9379768781
5939.0530470693
5956.7552663011
5979.0714494005
6003.5305147069
6029.4813349115
6056.7396036405
6085.138138148
6114.4698305675
6144.4314688699
6174.4938214614
6203.9666855165
6232.175800307
6258.4929588669
6282.4705988331
6303.8590795619
6322.5418043094
6338.0953260171
6350.6812760808
6360.4800616132
6366.5488102079
6368.6027285636
6364.2097713008
6359.4545132045
6353.285103015
6345.8475088106
6337.4657116051
6328.4101527197
6318.9985395061
6309.4894545271
6300.8265337161
6289.3412447798
6278.9279211427
6267.2325401634
6255.9583267956
6244.0443734636
6232.3560492397
6220.4540599864
6208.5328892138
6196.436014041
6184.5956839902
6172.5163637019
6160.3395911847
6148.1692980557
6136.2543728316
6124.5238898987
6112.9957761138
6101.6359391666
6090.340329271
6079.3018067708
6068.5666538613
6058.2065151821
6048.1364265584
6038.4768567961
6029.0303834471
6019.9902974454
6009.7807795794
5998.7622358298
209758.07821373
191484.64077157
180958.76191146
171680.98993315
161714.75521988
151434.74894391
140731.6692972
129457.95039796
117821.11098981
105659.22797518
94375.565072634
83145.293510153
72544.124990244
62829.621500319
54076.497726031
46372.189825885
39722.832893516
34073.010002977
29303.164126713
25283.650812409
21912.155424777
19089.615036276
16713.599189436
14706.320971385
13006.948177748
11559.123385996
10319.73954981
9255.6114616733
8335.1984892302
7536.9184519548
6839.5077332729
6229.6313843911
5692.8741250776
5218.6046884095
4798.137549731
4423.5211174468
4089.2352273105
3789.4187528866
3519.997706899
3277.0661355752
3057.3991092085
2858.3666464635
2677.1636543477
2512.3475612537
2361.3864978044
2223.5058295335
2096.5813385661
1980.1617908722
1872.6325039508
1773.4908359618
1681.7148171938
1596.6931190557
1517.7333268202
1444.2564010764
1375.8628441495
1312.0687735486
1252.4921255552
1196.7569338046
1144.54870787
1095.5835218515
1049.6059445557
1006.3763576615
965.67195401629
927.29277555782
891.06677651536
856.85615669816
824.53637797111
800.4509268038
2622.500712855
5688.6477805292
5925.761803098
5922.5427462401
5911.1383538753
5900.3115221472
5890.876391148
5883.454635723
5878.7270782054
5877.2909045214
5879.2913189619
5884.9088053991
5893.8532871566
5906.0118743711
5921.2286910576
5939.30646935
5956.9036847995
5979.2725885642
6003.6748674811
6029.6176732989
6056.8688807224
6085.2552110427
6114.5644581359
6144.4864484558
6174.4933772822
6203.9152842891
6232.0558623962
6258.295309625
6282.1936646259
6303.5041989157
6322.1290496055
6337.639386705
6350.254343173
6359.8107210656
6365.774404371
6367.9764664748
6363.5330101323
6358.803457387
6352.6920030407
6345.305486824
6336.976462398
6327.9727909183
6318.6253963562
6308.9338235692
6300.1656110141
6288.9051039387
6278.4305856334
6266.8757065842
6255.5866680526
6243.7495888868
6232.0665905926
6220.2067086589
6208.3264500088
6196.3002786584
6184.4065157461
6172.3087782924
6160.1474891032
6147.9842515981
6136.1022018187
6124.3779730083
6112.8452887138
6101.4842855794
6090.2132749835
6079.1847426151
6068.4828145248
6058.1619159099
6048.0672137222
6038.3759990545
6028.9476651908
6019.8461588892
6009.887483462
5998.7698862196
197522.76802496
176228.78812067
166028.79700202
155357.58700279
146430.02436046
136445.76251715
126750.03381085
116912.89893916
106898.82678296
96656.905368773
87406.998902611
77852.020140843
68545.154660701
59838.992389527
51838.477648843
44744.730644369
38546.962280608
33204.498872689
28657.61193592
24815.99971383
21568.46563298
18819.828315685
16506.974376187
14548.958198106
12881.539543718
11458.866388492
10240.776352006
9191.3102389357
8282.7826517022
7493.5116071195
6804.6040659871
6199.5617824954
5667.9463006096
5197.2750177761
4780.1662361864
4408.1415430851
4076.2181633752
3778.051153044
3510.4261550283
3268.6305340396
3050.2684631624
2851.8742359953
2671.7674074625
2507.3376724381
2357.1656001882
2219.5576843516
2093.2122670038
1977.0582774152
1869.8505451406
1770.9955356961
1679.4148478835
1594.6506582103
1515.8685918263
1442.6034448802
1374.3398654326
1310.6704319109
1251.2035056536
1195.5703031573
1143.4611598058
1094.5855762649
1048.6849218459
1005.5195580516
964.87301004711
926.5500673464
890.38226148043
856.23256249054
823.93749536691
800.63842939032
2686.2208786658
5699.4547279318
5927.4128772034
5923.8197420186
5911.9726705711
5900.8076562628
5891.2211720867
5883.8090463257
5879.1567578988
5877.7669497994
5879.77470777
5885.374012922
5894.299607555
5906.4381101378
5921.6437534736
5939.6990624737
5957.2527574336
5979.6235080123
6003.9958632215
6029.9238102284
6057.1615458398
6085.5263792039
6114.7955129602
6144.651212915
6174.5703720159
6203.9030220534
6231.9484102052
6258.0947101321
6281.9061608626
6303.1339731991
6321.6962021512
6337.1543790377
6349.7298652962
6359.1751928091
6365.0636676039
6367.2132577176
6362.7165607568
6358.0003003248
6351.8975087696
6344.5233625713
6336.2005898617
6327.1954289358
6317.8433536032
6308.1070134948
6299.2456589212
6288.0726213783
6277.6442238534
6266.1193572906
6254.8797445609
6243.0829495979
6231.4405241865
6219.6168427523
6207.7724068946
6195.8614106479
6183.950687146
6171.8680472993
6159.7104422322
6147.5734439678
6135.7389546913
6124.0304528065
6112.5228798642
6101.1685537963
6089.9596431363
6078.9763134778
6068.3401588599
6058.0031679887
6047.8377487017
6038.1711453761
6028.724682247
6019.6710715071
6010.006136382
5998.6150777133
171063.27243237
151334.7006699
140117.32363212
130615.19592714
123376.89068389
116069.61021199
109185.92268869
102106.03437809
94925.107922643
87549.333975411
79707.765251267
71699.371707987
63801.530089236
56241.59584503
49199.302052049
42780.572490318
37090.865881219
32137.75629849
27868.50812952
24218.283874778
21117.346934958
18489.703625695
16246.254847002
14342.303170654
12721.351833784
11333.691819275
10138.406003284
9108.2508405103
8215.7558462785
7438.2049179653
6758.6431753731
6161.7744995736
5635.5868833786
5170.1416714891
4756.8999196996
4388.6529354428
4059.1453253162
3763.7447171596
3497.8873921005
3257.9315698095
3040.8180988558
2843.7619662761
2664.5715815772
2500.9899266049
2351.5874531229
2214.5457795345
2088.8261945114
1973.019875749
1866.318665979
1767.7395888975
1676.5129955927
1591.9725072101
1513.4432702896
1440.4397042481
1372.377045307
1308.8765959892
1249.541524945
1194.0429948491
1142.0591026041
1093.2952484495
1047.4908534105
1004.4098990818
963.84225931039
925.59644615616
889.50704876301
855.42550660592
823.16507423432
800.78407933356
2770.6209373283
5712.4861667867
5929.0737021046
5925.1634311797
5912.9271125287
5901.4408174777
5891.7058625376
5884.2949356197
5879.718536084
5878.370071792
5880.3788523086
5885.9569972358
5894.8608746828
5906.9791857485
5922.1721889106
5940.2096054599
5957.7368992161
5980.0902627587
6004.4348616664
6030.3397691794
6057.5552205819
6085.8897528877
6115.1060171979
6144.8785297459
6174.6888245132
6203.9005877093
6231.8230586132
6257.8546815141
6281.5594818303
6302.6968036433
6321.1987626553
6336.592935064
6349.0830574374
6358.407774335
6364.1885764669
6366.2690942549
6361.7148059531
6357.0106806406
6350.9132594358
6343.5374042728
6335.2059829819
6326.200963913
6316.8818722065
6307.101324245
6298.0772966721
6287.0667802595
6276.6082570996
6265.1884968082
6253.9639123386
6242.2343545006
6230.6232591651
6218.8446215869
6207.0555081931
6195.2028995899
6183.2169697744
6171.1181926904
6158.9961862482
6146.9256768282
6135.1768076876
6123.5255246808
6112.0882498215
6100.775002811
6089.6513343151
6078.7546674396
6068.1115275687
6057.7169025161
6047.611591713
6037.9667177541
6028.5303804576
6019.5211793618
6010.1352447124
5998.3912160169
103571.32242156
99978.423898448
98736.492763955
98528.034263777
97174.723517598
94954.225699333
91674.975890339
87837.294951797
82973.673594178
77570.446803455
71517.048515547
65180.523862606
58706.387085838
52307.898827916
46211.847721877
40556.052458989
35438.020952621
30900.864833697
26942.228119814
23522.831681198
20587.571748705
18076.533508192
15936.895890775
14100.123550812
12527.723251604
11178.383128888
10016.764247041
9008.5375215578
8133.3292396863
7370.811052466
6702.896864574
6114.8943067841
5596.2407452995
5137.2332697757
4728.6703027146
4364.567520112
4038.6697412138
3746.2225041747
3482.6013636734
3244.8129686481
3029.3609936569
2833.8217464828
2655.7036567823
2493.2873499346
2344.702656796
2208.4753593422
2083.3441798672
1968.1386002697
1861.9583669994
1763.7765931877
1672.9452159963
1588.6997082607
1510.4977598992
1437.752564922
1369.9495559668
1306.6653609306
1247.5162474272
1192.1840511549
1140.340350214
1091.7038151057
1046.0170271025
1003.0475630066
962.5813994434
924.42749321143
888.42467673085
854.40631808491
822.22223580074
801.1871733514
2875.5699976792
5727.61834261
5930.5866695239
5926.4324462897
5913.936565977
5902.1958118854
5892.3335718416
5884.9193747567
5880.4043371018
5879.0861091805
5881.0882049567
5886.6436682945
5895.5250609245
5907.6246353371
5922.8030945674
5940.8216738869
5958.3198120277
5980.6537103175
6004.9741403418
6030.8575512372
6058.0437689891
6086.3319178511
6115.4760641612
6145.1464674946
6174.8253105473
6203.8857975779
6231.6574828029
6257.5569923654
6281.1506867532
6302.1770058338
6320.5639160184
6335.8596965831
6348.2404561249
6357.4571734683
6363.1359558537
6365.0645538682
6360.4835733583
6355.770218017
6349.6445053783
6342.2422124098
6333.8936186379
6324.8897311193
6315.604961265
6305.838357671
6296.6863925799
6285.7901718674
6275.3315867701
6263.9990970302
6252.8260649858
6241.1558789546
6229.5825009976
6217.8461022833
6205.9805181662
6194.0639360057
6182.0037966962
6169.9421949533
6157.9176893895
6145.9803000456
6134.3779006275
6122.848767087
6111.5374267565
6100.3462798478
6089.3807159934
6078.5159485941
6067.8309123754
6057.4474604944
6047.3611495912
6037.7043227167
6028.2628077424
6019.2952253241
6010.1626495683
5998.0382648434
10105.898937978
46045.914703809
60043.491518022
68587.486416181
73709.698791989
76083.120141842
76074.741440172
74620.712414326
72073.818466607
68639.226139264
64521.775599588
59835.956186235
54776.586269093
49539.716944625
44336.512617219
39356.112185588
34718.845991742
30513.492722849
26771.243027788
23488.927930942
20637.341782271
18175.448881528
16054.27976799
14235.715522516
12665.502208881
11308.172645715
10138.395404833
9124.7429255851
8241.6709480233
7468.5355167448
6792.3938815331
6198.1191492292
5672.2951011474
5206.0816701996
4791.9803000954
4422.7089013365
4091.7229947681
3794.8293865306
3527.4817009095
3286.057882849
3067.2296694377
2868.7364761608
2687.9937449763
2523.1111522162
2372.2076107168
2233.9863318607
2107.0104082431
1990.1468585523
1882.3667798312
1782.7827647821
1690.6704540877
1605.2509903775
1525.9473793277
1452.1759216496
1383.484199299
1319.3960367212
1259.4885603897
1203.4247197215
1150.9027501984
1101.6511602441
1055.3964292003
1011.8962624158
970.93397227342
932.31890141628
895.87474569061
861.46203050833
828.93262419872
799.5374758895
1814.2820956115
5511.8951111458
5927.3847539772
5930.2439117369
5918.1219203113
5905.8657440787
5895.3599972907
5887.2657929111
5882.0285217507
5879.9124983094
5881.0490245233
5885.7164793243
5893.7633062419
5905.0441820932
5919.4576106688
5936.7674645923
5958.9829041731
5981.2889286709
6005.581754833
6031.440671034
6058.5964312542
6086.8336926744
6115.8926972709
6145.4383644677
6174.9584753455
6203.8427488561
6231.4460050034
6257.1893210478
6280.6350070546
6301.5201420231
6319.7739138426
6334.9556194198
6347.2024323472
6356.3163947105
6362.0197189259
6363.9952385803
6358.6310379987
6353.8823486505
6347.6926442918
6340.2156762653
6331.7739975132
6322.6700255998
6313.2994026215
6303.395792395
6293.9096647218
6283.1182923048
6272.6542322143
6261.4724549223
6250.3816644386
6238.812336901
6227.1852022789
6215.2234424157
6203.2760722424
6191.2363306489
6179.1272901962
6167.1958646546
6155.3683299653
6143.7326515096
6132.3703381451
6121.1172546365
6110.1094126237
6099.0762762243
6088.1918726641
6077.5507129668
6067.0467919209
6056.8686673031
6046.9440562535
6037.3936102352
6028.0863397861
6019.2523917941
6010.6833241636
5997.9926606623
7949.7054151748
14678.953705747
25102.384366922
33683.962893124
40457.205195094
45377.133725831
48655.370220854
50593.027231134
50758.213189041
50023.468109256
48505.812113826
46229.902583098
43387.04521839
40142.068177343
36677.291397698
33174.667624353
29770.493129228
26563.695900861
23623.359596832
20976.282618569
18624.232970049
16553.569969345
14740.822406673
13157.707089925
11779.027750842
10580.233018597
9532.384435291
8612.6434055509
7808.5083016869
7102.1728798002
6479.958298826
5927.9486806267
5439.0774231069
5004.1948536233
4616.2013481804
4268.1120955721
3955.8789169304
3674.9118776521
3421.3139873994
3191.397042606
2982.727865483
2792.9384104762
2619.8855181319
2461.5500300836
2316.495550837
2183.3831310001
2060.9726246837
1948.12472005
1843.8971002626
1747.5417642003
1658.2647841441
1575.4306825646
1498.4096534055
1426.7192640098
1359.892440067
1297.5008714549
1239.1610286624
1184.5089708583
1133.2639235225
1085.1580634351
1039.951118965
997.41616501697
957.34989211434
919.5727482272
883.90725144548
850.20464136649
818.30921165714
805.5982963552
3312.7619696164
5779.9316565004
5934.1974991591
5929.3796527346
5916.8507934078
5904.8894290032
5894.8793478676
5887.4773095255
5883.03659654
5881.7259434945
5883.689289146
5889.1903341257
5898.0128932802
5910.0633880779
5925.1776972506
5943.1063985978
5960.4908197125
5982.7194229245
6006.9392511937
6032.7291780423
6059.7993869122
6087.9024066841
6116.7482662133
6145.9884137055
6175.1289380587
6203.6006461127
6230.7989490241
6256.1591794721
6279.2493432951
6299.7915076843
6317.7045222306
6332.5936143531
6344.511021962
6353.3409690271
6358.8390102286
6360.6984776628
6355.2066000867
6350.4592315074
6344.1489726852
6336.5246518289
6327.9384556988
6318.7464223842
6309.3418383052
6299.4726380541
6289.7163397501
6279.0482015836
6268.612948657
6257.6527003768
6246.5560315124
6234.9783557907
6223.2636846333
6211.4113682985
6199.5820025927
6187.6114269965
6175.5932360122
6163.8999835226
6152.4757847779
6141.2570449631
6130.3461507587
6119.397639789
6108.511301912
6097.835923409
6087.2353895285
6076.6922839848
6066.3503778566
6056.2935014448
6046.4868560694
6037.0208842023
6027.929238759
6019.2657023252
6011.0460860648
5997.9237567743
7689.6990714215
8435.5039773726
12980.277485275
18438.809247074
23496.637897571
27786.732669174
31262.625317382
33850.808630598
35572.39980968
36394.714372734
36377.323285176
35820.346012112
34553.290394758
32798.582515923
30665.938665232
28321.154096396
25897.995897537
23500.454292775
21208.78623269
19073.615567324
17123.09107907
15365.382192221
13796.159570557
12403.760098602
11172.392707123
10086.537161595
9129.0888187814
8284.3425919859
7538.8726543174
6877.8212435801
6291.0471258907
5770.0372406914
5305.8327904603
4891.6057526032
4519.4966995181
4185.3445254067
3884.7020965608
3613.4717347785
3367.7564561496
3144.6321273303
2941.9148037759
2757.149798115
2588.2836445521
2433.4973898255
2291.6320502915
2161.237949339
2041.1877857421
1930.3529980392
1827.9322646138
1733.153385683
1645.2813433263
1563.6575002952
1487.7035573862
1416.9725669187
1350.9933785127
1289.3566250817
1231.6777985384
1177.6295279698
1126.9396166716
1079.3289873264
1034.5578951599
992.41134220928
952.69835912584
915.24990235588
879.89944201748
846.48478167185
814.85686177516
817.50805553245
3701.1412286171
5818.191370545
5937.4203172793
5931.1200553316
5918.6144550553
5906.7475602888
5896.8076431966
5889.4578509338
5885.0402887006
5883.7194997927
5885.6850845353
5891.176338735
5899.9701235821
5911.9813306423
5927.0260278618
5944.8573687373
5962.1444866079
5984.2647931692
6008.3807243144
6034.0664356308
6061.0098135964
6088.9319830852
6117.5125757582
6146.3874946731
6175.0734025625
6203.0655429287
6229.7904761979
6254.7043880565
6277.3632573709
6297.4778012008
6314.9519335939
6329.4661349788
6340.973752518
6349.4435129688
6354.674668237
6356.4159260802
6350.571390549
6345.8019261668
6339.4241703333
6331.7566190154
6323.1460805828
6313.9882568901
6304.6326043953
6294.8240238344
6284.847753082
6274.2925016456
6263.7515512624
6252.8576065062
6241.8882555003
6230.4373645041
6218.7693568006
6207.2887736361
6195.5888778495
6183.8583137707
6172.2456059493
6160.9691531659
6149.8531723936
6139.0528393083
6128.3649170313
6117.9919596588
6107.4361091114
6096.8452283033
6086.3673107955
6076.044209256
6065.7857576316
6055.743240207
6045.9411158409
6036.5963755529
6027.5773104039
6018.8856910392
6010.698428969
5997.1665290942
7008.8106038561
6996.0440131718
8443.8247103005
11608.81518265
15088.653106136
18361.669698281
21271.352095226
23690.502687214
25642.441116179
26932.018462327
27654.059237121
27775.542321234
27453.02693128
26618.929561183
25414.888792486
23937.138925527
22282.993184056
20554.904391442
18826.776146165
17155.096670316
15580.363603953
14124.579766065
12795.598347567
11594.090171605
10514.607528167
9548.6120944431
8686.9862156974
7919.0667722164
7234.4641451293
6623.7650447868
6078.6014956628
5591.1333231383
5153.7884697824
4761.0586457
4408.0441029911
4089.9860737725
3802.7243225433
3541.8266720581
3305.1054424553
3090.0345882872
2894.0314571457
2714.9948777206
2550.8052682802
2400.4167369914
2262.23100898
2135.0764366899
2017.7081313605
1909.2661960405
1809.0021969282
1716.0829272406
1629.8561159451
1549.6411290493
1474.9636189913
1405.3700936682
1340.3977021888
1279.6459109441
1222.7380225975
1169.4024008348
1119.3564742735
1072.335597098
1028.0996463062
986.4286226822
947.14928841415
910.09163579524
875.08498316986
841.99138100809
810.59414347256
844.41361624576
4133.1466304467
5856.3929815407
5940.9597881071
5932.7320100882
5920.1780002906
5908.4540597158
5898.6682697961
5891.4326370709
5887.0819323787
5885.7870446385
5887.8089698625
5893.3094756107
5902.0758018972
5914.0300099447
5928.979404667
5946.6852912512
5963.8584737596
5985.8405970794
6009.8165060018
6035.3554008071
6062.1277297273
6089.832591192
6118.1118891637
6146.5669428243
6174.7751639572
6202.2438725226
6228.4268121019
6252.8099931067
6274.9694597887
6294.5771596531
6311.5112729371
6325.573351387
6336.5801840278
6344.6102471294
6349.5131578718
6351.1136977616
6345.071394646
6340.3944224956
6334.0262004583
6326.3643353879
6317.7662380861
6308.6541473615
6299.3244371027
6289.607717266
6279.5427265068
6268.8387032133
6258.3778315294
6247.642376834
6236.844927555
6225.5469472938
6214.121029653
6202.8929185558
6191.6003459105
6180.1996900348
6168.9000624748
6158.0395861254
6147.5533294062
6137.4324679488
6127.0797273695
6116.6239871979
6106.2409336315
6095.8753294903
6085.4999893747
6075.2138408849
6064.9941234891
6054.9891218721
6045.4157092261
6036.1216878592
6027.2480793708
6018.6171767085
6010.316785587
5997.226967415
6365.1829771838
6365.1485363397
6596.4213318464
8180.1770098556
10492.492234009
12891.658423991
15183.388507982
17215.127096563
18992.964727291
20337.237450773
21291.656583769
21814.514766994
22030.05588999
21674.856516571
21077.495839702
20175.194646589
19094.275695534
17875.643714411
16603.503258507
15323.391440161
14075.904127093
12891.104698287
11784.106644157
10763.133080542
9830.1770405385
8983.1555819079
8217.7312046258
7528.1145729853
6907.333118887
6348.7554623665
5846.0995007714
5393.4783257331
4985.5993813879
4617.5869129247
4284.7156836839
3982.9917936497
3709.4833268331
3460.943553658
3234.7232091368
3028.4913140142
2839.5732194018
2666.6604050502
2508.2305332658
2362.6391449783
2228.7164031769
2104.9739457215
1990.7365163198
1885.1210024195
1787.2678598506
1696.5000949475
1612.0507142577
1533.4789724347
1460.2888807587
1391.9897321643
1328.1604486532
1268.3793710985
1212.3992944185
1159.9001969527
1110.6016471858
1064.2540229608
1020.6170116802
979.50570575411
940.74364123188
904.14762986993
869.57547533235
836.87090432717
805.87123312016
903.84181195251
4577.7023857409
5886.2889347624
5943.0673213387
5933.8542518145
5921.4223138759
5909.9317957392
5900.3802410601
5893.3347071123
5889.1122224088
5887.9061350838
5890.0232254904
5895.5386246498
5904.2733071565
5916.151106439
5930.9829856086
5948.540146136
5965.579299335
5987.3915442059
6011.1873319339
6036.543801881
6063.1108113675
6090.5395550101
6118.4512973999
6146.4593992912
6174.1593455066
6201.0599799188
6226.6557130102
6250.4523831188
6272.036690665
6291.069207267
6307.3803751448
6320.8924095597
6331.355802666
6338.8825505474
6343.3897518231
6344.7635311524
6338.5305567367
6333.9473646012
6327.6469600013
6320.0910920352
6311.6355825715
6302.6874338775
6293.4725146872
6283.9283203628
6273.9385298858
6263.4334948479
6253.0957637453
6242.5501504137
6232.0150781493
6221.0139102233
6210.1006020858
6199.1068228583
6188.1022124195
6177.7572516054
6167.4524884224
6156.9483376915
6146.4111401304
6136.0042690708
6125.6690472073
6115.2940118124
6104.966106759
6094.678538074
6084.4359754097
6074.3144378142
6064.2296732837
6054.5026610209
6045.1179878211
6036.0146014552
6027.1782241074
6018.4472237683
6009.9010578416
5997.4523954715
5845.3833029141
5823.4223820109
5783.9103887059
6372.2449536504
7807.6716470003
9539.9566297845
11310.535195222
12949.628888156
14477.030845037
15706.677128646
16709.009454466
17396.465091245
17745.209861016
17732.092467398
17491.782813517
17007.412168901
16328.828708071
15501.025247129
14584.598636383
13620.520021985
12649.025708947
11699.832040766
10791.748747274
9936.4403412938
9140.5943601546
8406.9438670542
7734.6761629302
7121.5623460363
6564.122957062
6057.9820171462
5598.8352954652
5182.4092731648
4804.653245104
4461.7553180279
4150.1107437461
3866.5910559037
3608.2899352387
3372.4969973934
3156.8261823586
2959.6455560067
2779.0470560794
2613.3857445937
2461.0944751379
2320.5731371002
2190.9302764754
2071.2901077156
1960.6067394365
1858.1106510921
1762.8796538303
1674.309298871
1591.9996157398
1515.2963641741
1443.7585193871
1376.8846379774
1314.2685847744
1255.6811678344
1200.7468885684
1149.1944993455
1100.7371653435
1055.1223675947
1012.1844254261
971.7137765013
933.53148957619
897.47997516443
863.38883257747
831.11514843767
800.25633536619
1046.7098385812
4985.378293126
5910.3755604409
5944.3314939464
5934.410593918
5922.3041598738
5911.1700002884