/*--------------------------------*- C++ -*----------------------------------*\
| =========                 |                                                 |
| \\      /  F ield         | OpenFOAM: The Open Source CFD Toolbox           |
|  \\    /   O peration     | Version:  2312                                  |
|   \\  /    A nd           | Website:  www.openfoam.com                      |
|    \\/     M anipulation  |                                                 |
\*---------------------------------------------------------------------------*/
FoamFile
{
    version     2.0;
    format      ascii;
    arch        "LSB;label=32;scalar=64";
    class       volScalarField;
    location    "0.00017";
    object      rho;
}
// * * * * * * * * * * * * * * * * * * * * * * * * * * * * * * * * * * * * * //

dimensions      [1 -3 0 0 0 0 0];

internalField   nonuniform List<scalar> 
109340
(
662.48312478169
662.47807100055
662.46846231404
662.45684145647
662.44401134808
662.43064338473
662.41699733118
662.40320441329
662.38941196589
662.37528878944
662.36019571976
662.34352243364
662.32453798871
662.30235428908
662.27591198439
662.24395751924
662.20499654994
662.15723742005
662.09850672202
662.02613796647
661.93680973853
661.82635307668
661.68948017202
661.51941722916
661.30738006986
661.04184105067
660.70744344013
660.28335529127
659.74066107034
659.03803405702
658.11417060758
656.87370930412
655.1592705957
652.69271426107
648.94513331095
642.83294090885
662.48388009685
662.47739440558
662.46661427131
662.45421155513
662.44101199359
662.42759855364
662.41413959741
662.40062416612
662.38685295177
662.3724958294
662.35704423478
662.33986729894
662.3201922952
662.29708689192
662.26944312119
662.23594532721
662.19503527405
662.14483622386
662.08306392785
662.0069051977
661.91285065127
661.79648326033
661.65218681582
661.47274696063
661.24878216146
660.96793774661
660.61368918264
660.16350571009
659.58590850627
658.83552766387
657.84430697984
656.50475287383
654.63539637468
651.90489554365
647.64465565436
640.4075339352
662.4866992025
662.47919334369
662.46732699753
662.45462979931
662.44153997787
662.42831523793
662.4149250544
662.4013680546
662.38754843298
662.37315113801
662.35768213476
662.34050722329
662.32084918837
662.29777342367
662.27017213811
662.23673475716
662.19590230767
662.14580037946
662.08414565426
662.00812704775
661.91423445434
661.79805088148
661.65396017451
661.47474597865
661.25102454629
660.97043639384
660.61645068221
660.16653020135
659.58919245659
658.83905852509
657.84803222088
656.50835405024
654.63656726994
651.8904633469
647.5476421998
639.86162620815
662.49062405985
662.48157836155
662.46911306543
662.45605792032
662.44271479364
662.42921370405
662.41559831616
662.40188536061
662.38796125897
662.37350628322
662.35802745483
662.34088524166
662.32129488278
662.29831563221
662.27083253778
662.23752755071
662.19683562617
662.14687523744
662.08535092228
662.00944038837
661.91560583608
661.7993990849
661.65515783233
661.47559703439
661.25124031566
660.96959128749
660.61392578939
660.16143022147
659.58022317833
658.82432972642
657.82470805359
656.47194656408
654.57780686106
651.78204224857
647.27486545775
638.75149586237
662.49681575388
662.4850574302
662.47077119664
662.45682471206
662.44311869442
662.42948513604
662.41582735163
662.40212976447
662.38824917097
662.37385410612
662.35845821308
662.34141868223
662.32193772445
662.29905431646
662.27162332338
662.23828313431
662.19740941433
662.14703998602
662.08472370817
662.00750763651
661.91159784357
661.79222607886
661.64328468478
661.45685853581
661.22261149393
660.92683406495
660.5511053597
660.07021443276
659.44884841529
658.63601285531
657.55497513936
656.08463968019
654.01441123234
650.93340931041
645.85740789159
635.32868869566
662.50836514663
662.48686530705
662.47109031699
662.45681848007
662.4430636026
662.42942906092
662.41577829207
662.4020358753
662.38797632926
662.37313294071
662.35683188176
662.33818167498
662.31606786713
662.28913168773
662.25573330985
662.21389673548
662.1612316848
662.09485724014
662.01133149257
661.90573439143
661.77213792031
661.60288713381
661.38804362643
661.1146194422
660.76550937886
660.31795752107
659.74132879519
658.99371655121
658.01654987517
656.72551661342
654.99388658108
652.62452555046
649.27223976064
644.26384475576
635.94195650545
617.34094541585
632.31746381513
614.69429525602
587.64658068606
550.86370848876
506.20962874444
455.23755656836
400.07615460862
343.29197606024
287.53263477285
235.27227515967
187.70616839953
148.12838328707
115.65007652702
89.706403807672
69.712970425775
54.385853837104
42.75346839324
33.920153554315
27.172427979229
22.013485844739
18.042262236003
14.939055034102
12.491024145075
10.546079309061
8.9860772143918
7.7278243274352
6.6821514512363
5.8167470227097
5.1183076468555
4.5000036332068
4.0113855188311
3.5664440369401
3.2071272200736
2.8809777211443
2.6101072250634
2.3647300394854
2.1578156884857
1.9683345218109
1.8083337427112
1.658807645189
1.5335239709282
1.4136743850198
1.313935160871
1.2171941592911
1.1361105136824
1.0579048202271
0.99043729448866
0.92742425250854
0.87002387746438
0.81817071770163
0.76972232809257
0.72570422676337
0.6851185559413
0.64777105383182
0.61324688827424
0.58130252491146
0.55166601154935
0.52414664362733
0.49855271483011
0.47471892841473
0.45248568010238
0.4317135293161
0.41227727130152
0.39406623534203
0.37697851376833
0.36091822271671
0.34580369616763
0.33172648611876
0.59641546738862
2.0994347599562
2.2702693900745
2.240803509322
2.2066643451912
2.1756300209083
2.1479285735731
2.1234091690819
2.1019622378695
2.0834567283288
2.0676277058706
2.0542342903188
2.0429191851534
2.0334095781429
2.0254715374503
2.0189004313939
2.0127995056602
2.0082905587328
2.0043938554074
2.0008570170544
1.9974865192426
1.9940851553774
1.9903987617578
1.9860704499529
1.9805835189649
1.9733228731997
1.9637674786318
1.9517073493069
1.9374486302343
1.9218401297988
1.9060928164391
1.8913775103828
1.8788205197071
1.8692382454031
1.8627139866099
1.8587810205924
1.8556161371646
1.8543297480703
1.8530254788989
1.8514475512313
1.8495123938352
1.8472917983488
1.8448488807998
1.8422193484218
1.8396290672072
1.8359440851458
1.8323953253686
1.8282367636012
1.8240344966157
1.8194488703479
1.8147740450471
1.8098813920561
1.8048503208775
1.7996402745625
1.7944055441631
1.7889771780119
1.7833610838923
1.7775380713587
1.7715222140458
1.765249184136
1.7586854199873
1.7518024838039
1.7445859066859
1.7371426668257
1.7295597208784
1.7219873145689
1.7145961281655
1.7076321733011
1.701108898493
1.6949345203943
1.687820728932
1.677812349693
627.20401092639
604.64643585788
571.20246934979
528.44519230053
478.45283214219
424.05231128745
367.57803327633
311.74781389571
258.93910562936
210.90063670993
168.76765220816
133.05114587468
104.51506234634
81.763548090753
63.943321166055
50.231226113966
39.717842208915
31.675988229675
25.516083449975
20.7691336528
17.082768508837
14.196845047153
11.914058206024
10.089343459557
8.6181390063113
7.420978102558
6.4375150521182
5.6220474168331
4.9421337994215
4.3693202311439
3.8836813301033
3.4704979658742
3.1146868259128
2.8084350705319
2.5414986208562
2.3094820819537
2.1051897658092
1.9260365436094
1.7669405799335
1.6262628718361
1.5004581058487
1.3883597603403
1.2874795747177
1.1968344674151
1.1149291878741
1.0407126738569
0.97342265562052
0.91201076154489
0.85615423194539
0.80492597718291
0.7580486404041
0.71488005846314
0.67516948828162
0.63854164067441
0.60469397216948
0.57335445104322
0.54428370405907
0.51727770597259
0.49214887065712
0.46873385042841
0.4468830822591
0.42646193366477
0.40734653093488
0.38942671772859
0.37260615000187
0.35680218110708
0.34195126549999
0.33038078468054
1.0268735087604
2.2059559018242
2.2646076561686
2.2311771157114
2.1978517124352
2.1678123985134
2.1410659718359
2.1174569807486
2.0968540980791
2.0791051253277
2.0639196772433
2.051069427845
2.0402016608466
2.0310746911568
2.0234590611792
2.0171468632055
2.0124203493457
2.0077837837471
2.0038395141692
2.0002508892172
1.9968321913878
1.9933842559981
1.9896525083001
1.9852793176718
1.9797470030133
1.9724409990439
1.9628411166685
1.9507378439887
1.9364446608197
1.9208212551053
1.9050924311018
1.8904363776306
1.8779819414702
1.8685321007837
1.8621334669425
1.8583505197089
1.8553219433076
1.8541210535629
1.8528753430616
1.851346586628
1.8494443501891
1.847244731682
1.8447870274738
1.8421074069233
1.8394599039949
1.8357740477925
1.8321775460584
1.8279965414809
1.823733011752
1.8190940431721
1.8143444949272
1.8093728683579
1.8042522301895
1.7989532499631
1.7936093556907
1.7880639720084
1.7823183373176
1.7763481547967
1.7701641235477
1.7636940511145
1.7569101247935
1.7497908043796
1.7423320115443
1.7346408725257
1.7268207422469
1.7190241260367
1.7114422097387
1.7043309035648
1.697734635749
1.691576265285
1.6844599190511
1.6743502692233
624.41165481771
595.96939345904
555.21637016262
505.14370684134
449.30469754088
391.7412797495
335.51671670925
282.50611740822
234.16470390496
190.80751547272
154.33490565698
123.31785625526
97.80379389254
77.300527542467
61.039396923597
48.315563642322
38.452845966911
30.845215906938
24.96357032902
20.388722061466
16.815211628371
14.007292359786
11.776549240544
9.9879991254132
8.5431191560782
7.3638579461173
6.393160519837
5.588595129505
4.9152310554987
4.3484457616324
3.866897621942
3.456437527789
3.1036250772562
2.7988250610155
2.5340521256149
2.3027800955064
2.1000327119511
1.9213418030124
1.7632668043854
1.6229192983537
1.4977749574959
1.3859337975775
1.2854015360028
1.1950676149453
1.1132946063595
1.0394117485454
0.97213901372077
0.9110277815227
0.85514988796261
0.80408525443585
0.75724616582972
0.71421297996817
0.67458107900258
0.63799140775524
0.60418951825358
0.57289091747963
0.54386620421242
0.51689812222894
0.49180256586855
0.46841560006507
0.4465904603534
0.42619223600235
0.40709714552997
0.38919482183152
0.37238972867187
0.35660339807101
0.34176484888243
0.33037972950042
1.0435264431151
2.2089762366573
2.2648534168877
2.2313232793644
2.1978833888216
2.1677627245014
2.1409909248414
2.117407452802
2.0968423574041
2.0791192074017
2.0639464944843
2.0510973793567
2.0402289220266
2.0310999280593
2.0234846867109
2.0171652370982
2.0124165695234
2.007804384618
2.0038486441134
2.0002663250222
1.996856177207
1.9934177526816
1.9896958832356
1.985331998734
1.9798101131111
1.972522058548
1.9629387753641
1.9508492670126
1.936563458827
1.9209363981028
1.9051947094133
1.8905149073676
1.8780438573585
1.8684851110895
1.8620091003563
1.8582231921119
1.8551388895741
1.853932060946
1.8526998452378
1.8511830059708
1.849294275407
1.8471040954515
1.8446455015103
1.8418821582791
1.8391574087153
1.8354712291813
1.8317700756291
1.8275197417223
1.8231183468826
1.8183444446072
1.8134168403742
1.8082573128758
1.8029301225939
1.7974179422552
1.7918109794198
1.7859916819536
1.779951546689
1.7736434590309
1.7670786561006
1.7601663662351
1.7528870157108
1.74523348384
1.7372262030007
1.7289806571163
1.7206356628535
1.7123711296563
1.7043916221574
1.6969896027078
1.6902372172141
1.6839982574862
1.6768892525913
1.6665912873244
618.17333116255
576.30853917731
520.5907708434
457.77252350244
396.88197246677
339.05388680372
287.32064169474
241.46634464161
201.07511999981
165.66966753437
136.37300494309
110.8933346533
89.373525162658
71.656742214377
57.266421963709
45.828605429994
36.810458781594
29.736201813847
24.204284126184
19.873408905609
16.458890761489
13.746465717393
11.587328399403
9.8502920310386
8.4386478155657
7.2838571721181
6.3321990597016
5.5407637259623
4.877444511171
4.3181031672177
3.8430735670762
3.4365074769948
3.0875103211824
2.7853282305253
2.522949237805
2.2934356872334
2.0922928680127
1.91468874793
1.7577673377915
1.6181416450286
1.4938021984789
1.3823774434331
1.2824775077063
1.1924040849466
1.1110676759116
1.0373720638578
0.97040588334313
0.90946444306465
0.85375732069802
0.80285737590594
0.75612411165524
0.71322810370757
0.67369039236451
0.63720780519848
0.60347540548726
0.57224088198131
0.54327279680604
0.51635616144397
0.49130974032391
0.46796666636279
0.44617913919844
0.4258123439776
0.40674534298158
0.38886986162237
0.37209198692171
0.35633357087702
0.34150722910415
0.33043472007537
1.0683639257842
2.2127095392954
2.2650781563812
2.2314443257767
2.1978848756876
2.1676829935815
2.1408924640018
2.1173415880621
2.0968259278997
2.0791359533756
2.0639778211792
2.0511310044642
2.0402626427793
2.0311326871445
2.023519971494
2.0172004251508
2.0124522542116
2.0078505218434
2.0038961275122
2.0003223128177
1.9969240013006
1.9934987733122
1.98978965439
1.9854376366435
1.9799300492212
1.9726653591175
1.9631100055785
1.9510491058834
1.9367847605906
1.9211629389511
1.9054093136606
1.8906975392768
1.8781767841741
1.8685280175474
1.8619585823441
1.8580863416654
1.8549229254889
1.8536985370591
1.8524633437193
1.8509454563354
1.8490567489988
1.8468555029701
1.8443665973171
1.841542190927
1.8387176044822
1.8349544177362
1.8311302886988
1.8267149173384
1.8221156952557
1.8171028107252
1.8118995340067
1.8064292028119
1.8007610308667
1.7949059296418
1.7888931016092
1.7826407464834
1.7761129068773
1.7692554248058
1.7620648986124
1.7544318470798
1.746357388167
1.737846513331
1.7289722337767
1.7198644896307
1.7107138283636
1.7017269026293
1.6931569010132
1.685364837124
1.6784125969676
1.6721156031777
1.66502777403
1.654442478289
597.2994344515
520.44441414602
438.81459607169
368.43793272806
312.69011135996
266.31478018141
227.75141043535
194.50514820804
165.54042182366
140.11354221881
117.34081008264
97.269881750841
79.906766730225
65.183964828756
52.940739002703
42.911969039722
34.8380157072
28.403076426427
23.290039802673
19.230211633139
16.003517999622
13.428862897456
11.351075583996
9.6726341634253
8.3064658591607
7.1843337796904
6.2540893851933
5.4795003780083
4.8294565356572
4.2796198005135
3.8119776846057
3.4114834633127
3.0666480691379
2.7681778852293
2.5085609084874
2.281570883497
2.0821161330397
1.9062646176291
1.7505187745704
1.6120276339416
1.4884964764359
1.377864688133
1.2785420095989
1.1889673416102
1.1080905769625
1.0347258143814
0.96811682752355
0.90738487354701
0.8519538636046
0.80121804728554
0.7546743371954
0.71190819418484
0.67250466493471
0.63615928300432
0.60253194686687
0.57138647903217
0.54248889983723
0.51564181420618
0.49065928414423
0.46737266319194
0.44563375562216
0.42530939302297
0.40628154007237
0.38844361112176
0.37170306908781
0.35597672941889
0.34116853366036
0.3304583736618
1.1012440269312
2.2171613773696
2.2651827296068
2.231481808059
2.1978379429646
2.1675749732414
2.1407781428798
2.117265681799
2.09680627394
2.0791524235045
2.0640100013337
2.0511668511644
2.0402994885881
2.0311702463993
2.0235613918393
2.0172454016516
2.0125056562508
2.0079110572203
2.003962542239
2.0003990293054
1.9970150582084
1.9936068767885
1.9899149249471
1.9855803734367
1.9800944187584
1.9728601664989
1.9633436106503
1.9513241681929
1.9370918364097
1.9214837536928
1.9057219264564
1.89096970381
1.8783733970925
1.8686129374586
1.861916563277
1.8579286552512
1.8546616752278
1.8534103468496
1.8521686064031
1.8506438869595
1.8487509940472
1.8465334558311
1.8440151623548
1.8411117247913
1.8381393717716
1.8342807340184
1.8302565475139
1.8256262605994
1.8207293207594
1.8153766813126
1.8097680978327
1.8038456982194
1.7976836130804
1.791298524624
1.7846764665649
1.7777742072386
1.7705317006054
1.7628653963135
1.7547497437984
1.7460613708135
1.736832657047
1.7270933905612
1.71698919002
1.7066938768732
1.6964324939316
1.6864948907706
1.6772306135315
1.668989558691
1.6618611099589
1.655551229814
1.6485239588733
1.6376164528822
449.01492996403
325.10249942792
272.79710264911
240.77178530119
214.43674441507
191.51470482237
170.36003864549
151.03098279692
132.43498212577
115.06519085303
98.705496608115
83.753365356844
70.289165363033
58.43396853507
48.265219641952
39.715549784175
32.651281321735
26.892275840292
22.238413947166
18.491296902979
15.474790923598
13.040853024126
11.072996253739
9.4651510920291
8.1480997208647
7.0624300342678
6.1615597675665
5.4063116015171
4.7709166205904
4.2330416575277
3.774418452705
3.3807069698709
3.0413735008371
2.7474615773592
2.4911463263032
2.2669938942351
2.069907143459
1.8959846009195
1.7416874342934
1.6045516428267
1.4820509916359
1.3723421825877
1.2736832430043
1.1847891352773
1.1044040439764
1.0315055011123
0.96524747935018
0.90485136028707
0.84971575842795
0.79920344989308
0.75287900331518
0.71027823965838
0.67104954438889
0.63484424610764
0.60135243602893
0.57032116158978
0.54152089923664
0.51476052498455
0.48985119559979
0.46663043273047
0.44495165657854
0.42468337488333
0.40570614004315
0.38791371588913
0.37121535346119
0.35552064008636
0.34074935823251
0.33057339728898
1.1420987751475
2.2222829454921
2.2651094807042
2.2313856711873
2.1977210838378
2.1674353112352
2.1406511269683
2.117184072967
2.0967819670576
2.0791647077805
2.0640383939215
2.0512005890348
2.0403357178446
2.0312093170945
2.0236054507939
2.0172947746273
2.0125646523337
2.0079794883922
2.0040417446609
2.000493498773
1.9971269873477
1.9937372264632
1.990064606361
1.9857522808583
1.9802945852361
1.9730981434868
1.9636310396375
1.9516673210419
1.9374825949079
1.9218932451693
1.906110481852
1.8913034403541
1.8786129813527
1.8687265960859
1.8618815083198
1.8577291532652
1.8543437832424
1.8530489004243
1.8517875161422
1.8502469680144
1.8483469849788
1.8461071207244
1.8435493061454
1.8405646538032
1.8374241743573
1.8334112124021
1.8291329863895
1.8241990828101
1.8189082135893
1.8130820290204
1.806914015216
1.8003600428685
1.7934683029089
1.7863035528071
1.7788347235298
1.771029404623
1.7627825997038
1.7539738618867
1.7445508974501
1.7343885245926
1.7235665474952
1.7121810849009
1.7004632253682
1.6886164304497
1.6769728024552
1.6659367430217
1.655900969532
1.6472362755612
1.6400099443655
1.6338057591684
1.626929022363
1.6157189487655
15.291466512079
103.78525452473
127.58491786241
136.60483225983
138.01533532148
134.03573740682
126.31852339091
116.81940083121
106.36757147021
95.465786557459
84.499345535977
73.735540977511
63.492635260961
54.016413091643
45.508321931667
38.085195746577
31.74774124321
26.440912984558
22.05525503771
18.461349194186
15.528059802852
13.136311265729
11.181154026607
9.5821452932481
8.2617555408621
7.1660543844108
6.2554750131884
5.492736010716
4.8489689820096
4.301754036644
3.8357229589138
3.4361784554239
3.0909204802996
2.7914370668078
2.5307415091806
2.302657128548
2.1018934468261
1.9248088272341
1.7678613307216
1.6282526371959
1.5035122577091
1.3918684500339
1.2915069924159
1.2010584065838
1.1192425223179
1.0451190391935
0.97774570726198
0.91635833651278
0.86029048182889
0.80896235656979
0.7619027401503
0.71863391065657
0.6787890987817
0.64201639863083
0.60803224078635
0.57655801944348
0.54734532657787
0.52019406420408
0.49492537478508
0.47138008418208
0.44940368412843
0.42885965504784
0.40962673299496
0.39159817582374
0.37467666764968
0.35878278298174
0.34383549505978
0.33032962576882
0.72758214252398
2.1471403618223
2.2716369208906
2.2398658242119
2.2056313965332
2.174488813023
2.1468737176082
2.1226503773677
2.1015653204488
2.0833183570553
2.0676089042255
2.0542395163016
2.042912699015
2.0333744284009
2.0254173734739
2.0188100749515
2.0126231154111
2.008047514511
2.0041229655285
2.0005932993247
1.997249097918
1.9938828597626
1.9902337201428
1.9859470085042
1.9805224824462
1.9733728295544
1.9639688462989
1.9520730761412
1.9379419594061
1.9223741039481
1.9065696412972
1.8916996459011
1.8788968552093
1.8688692756471
1.8618894023511
1.8576057379598
1.8538867600787
1.8524998211878
1.8511952784038
1.8496172234245
1.8476844437609
1.845370962505
1.8426952441974
1.8395084187783
1.8360182165548
1.8316693701016
1.8268871575377
1.8213385282368
1.8152428402961
1.8084403842044
1.8010780506335
1.7931206327411
1.7847312562446
1.775937269286
1.7667129257185
1.7570059302967
1.7466216905929
1.7353979224755
1.7232128596836
1.7100189103898
1.6960036905608
1.6813661163824
1.6665193627984
1.6518955572689
1.6379504193659
1.6252152244449
1.614144057657
1.6050983833165
1.5980287515265
1.5922924470491
1.5859026845738
1.5743313047171
6.8300734372569
18.246060081098
32.556667524852
44.44489112395
53.51954407147
59.535387782905
62.704693367058
63.500143688077
61.76640019373
58.745096636248
54.76366289043
50.046481425156
44.942502992816
39.724198945695
34.643319050214
29.90504978651
25.628839205023
21.868023121668
18.630504757093
15.883087381399
13.572438610681
11.639086531737
10.024329627658
8.674351814586
7.5447661558297
6.5978316959778
5.7982911247905
5.1189916048572
4.542071527095
4.0489504328505
3.6254373784474
3.2587539796171
2.9410754414706
2.6642926401511
2.4221187580466
2.2088779130118
2.0208612883889
1.8543942748866
1.7064374451152
1.5742664660843
1.4559612850907
1.3497582250798
1.2541216373642
1.1676639076284
1.0893526961924
1.0182599255203
0.95355314069885
0.89449202247949
0.84045857238223
0.79095612765341
0.74548787864003
0.70365198878306
0.66506569214546
0.62942658663691
0.59645258442147
0.56588776735487
0.53750682504501
0.51109980361957
0.48650030099637
0.46355309430607
0.44211974446789
0.42207223292278
0.40329623951756
0.38569102256035
0.3691596692685
0.35362008579736
0.33898948761816
0.33210922489124
1.3118659659154
2.2394388682877
2.2638185370046
2.2301731954431
2.1968198077015
2.1667447544961
2.1401475330873
2.1168720517261
2.0966360977676
2.0791220932144
2.064053059357
2.0512473218061
2.0404020400558
2.031295637836
2.0237098696903
2.0174159447128
2.0127186351519
2.0081634520634
2.0042696571146
2.0007830044207
1.9974905927617
1.9941798558732
1.9905880018867
1.9863657927587
1.9810276381885
1.9740021793214
1.9647602552858
1.9530381266892
1.9390497950627
1.9235452332277
1.9076921010326
1.892669983179
1.8795951281472
1.8692150151572
1.8618271950756
1.8571498398431
1.8530560889541
1.851513331801
1.8501134321088
1.8484638420566
1.8464644550793
1.844045551423
1.8411915640935
1.8377128101803
1.8336601588647
1.8286254748645
1.8228358702647
1.8159833689692
1.8081182355334
1.7991192773021
1.7891119208875
1.7781692301707
1.7664573222072
1.7540055963486
1.7407457100001
1.72654512696
1.7111023995435
1.6941632342524
1.6756908227465
1.655839022325
1.6351578916927
1.6143627900071
1.5941456547045
1.5752253613327
1.5582896744954
1.5439117759587
1.532489404895
1.5242049969407
1.5187263938519
1.51489397054
1.5099310462401
1.4987677320733
5.4399721270004
8.0337630391696
12.984360683427
18.980639697079
24.623963879758
29.424192878364
33.17290642813
35.730462669494
37.095547122883
37.251658652288
36.394951354577
34.887476561479
32.641167853408
29.970154859397
27.053356430596
24.090526671229
21.228854045494
18.565574291584
16.158790394285
14.030269336528
12.178229463939
10.583771824656
9.2197789328928
8.056752220685
7.0658105692483
6.2215668541726
5.5007400982337
4.8835682806356
4.353853387454
3.8964111604961
3.5002385530063
3.1563607890003
2.8564751251412
2.5941644279605
2.3630584452082
2.1592024711057
1.9788361701134
1.8186748689507
1.6757735342082
1.5478728904772
1.4332225784381
1.3300665405342
1.2369451711714
1.1525978078846
1.0761430569612
1.0066171585485
0.94325594656602
0.88533287054126
0.83230649865825
0.78367338161391
0.73897137636319
0.69779201213343
0.65977963071528
0.62465149340233
0.59212506320032
0.56195634815175
0.53392049178728
0.50782553169842
0.4835098245774
0.46081425929219
0.43960190839008
0.41975042727603
0.40115156289008
0.38370949817458
0.36733240262968
0.35193295351158
0.33743148295633
0.33659556334073
1.4620900100071
2.251476947983
2.2626745056852
2.2288010149537
2.1957597045341
2.1659792602878
2.1396169084361
2.116519825084
2.0964085933531
2.0789734435811
2.0639625327638
2.0511949460749
2.040372970469
2.0312846293008
2.0237098623399
2.017424166479
2.0127519952699
2.0082178463573
2.0043575282338
2.0009181052242
1.9976834270426
1.9944373718991
1.9909169614712
1.9867797734295
1.9815553999635
1.97469638689
1.9656699294301
1.9541817787359
1.9403875584386
1.924977584873
1.909075715437
1.8938745255096
1.8804717749032
1.8696600811618
1.8617694582879
1.8566069555948
1.8519675319834
1.8501954181914
1.8486731665202
1.8469615372474
1.8449114974044
1.8424017187058
1.8393476575693
1.8354836686726
1.8306932708771
1.8246470641476
1.8173003168348
1.8083370005904
1.7976567624168
1.785030614137
1.7705380576604
1.7544349930227
1.7368540670304
1.7179866966279
1.6976919858252
1.6756436782943
1.6515076233059
1.625262810481
1.5972261955312
1.5683578693782
1.5397255840478
1.5125360074783
1.4878169705628
1.4664113436727
1.448845537811
1.4354465884554
1.4262620029658
1.4210473488741
1.4189757473384
1.4180396853127
1.4151011912943
1.4047714425962
4.3484059731312
5.6985755292821
7.2118443997357
10.196735941102
13.52285652866
16.693174410499
19.525119686352
21.819457992883
23.561595008581
24.576909982911
24.912339385731
24.609780109155
23.850069753918
22.5930119031
21.015646198784
19.246273900706
17.398288733477
15.573643452858
13.839744635098
12.239556180612
10.796182751483
9.5149197583381
8.3894981758408
7.4082118438325
6.5561536099103
5.8177508471047
5.1785425094176
4.6246453012053
4.1437389042931
3.7252725480188
3.3602923770129
3.0409961442469
2.7604431341855
2.5133711717325
2.2952905891768
2.1021602478301
1.9305531089687
1.777162618769
1.6400169748882
1.5171258439928
1.4066073637404
1.3069264111699
1.2166328814284
1.1348639043722
1.0605523581931
0.9928856044167
0.93105988273785
0.87448667127523
0.82265681038387
0.7750485533776
0.73124353053086
0.69082935662551
0.65350159252228
0.61897751352986
0.58698217143984
0.55727752721173
0.52964476042383
0.50391780704555
0.47993181997535
0.45753543159345
0.43659238754438
0.41697935421155
0.39859634757806
0.38134786595526
0.36514105445209
0.34989923990338
0.33551694172181
0.34690738965312
1.6284350819858
2.2629601370601
2.2612111174332
2.2270184016088
2.1943314434529
2.1649146765814
2.1388531603609
2.1159801826969
2.0960240609155
2.0786898588744
2.0637622485163
2.0510444451873
2.0402512136555
2.0311804304092
2.0236144234383
2.0173351233848
2.0126908923106
2.008178367797
2.0043518673578
2.0009605619714
1.9977874850403
1.9946171618699
1.9911856396031
1.987153179283
1.9820828065431
1.9754360203732
1.9666753752789
1.9554747510696
1.9419319050087
1.9266566264376
1.9107144479884
1.89531877013
1.8815388005466
1.870223584687
1.8617487931062
1.8560110411977
1.8507641008237
1.8487136360372
1.847034656027
1.8452446243722
1.8431343243573
1.840523032861
1.8372247353852
1.8328893230243
1.827187559619
1.8196520565669
1.8101006030452
1.7979202440693
1.782730283682
1.7640882638574
1.7420669256431
1.7170695552722
1.6895889847275
1.660050595507
1.6284076452748
1.594416874348
1.5580701321603
1.5200598434849
1.4817051258239
1.4448562613425
1.4110698967459
1.3814637063435
1.3567294505624
1.337306878878
1.3232063224973
1.3141711286017
1.3097642412655
1.3091242805841
1.3109141477815
1.3127190433732
1.3112476493642
1.3024058065206
3.5389731521662
4.6563333963851
5.0525649996514
6.4327895217459
8.4113466987059
10.489847110567
12.493594770914
14.268334734425
15.782137408313
16.873799877864
17.575125288545
17.821735444895
17.758742617659
17.205112906952
16.419366702512
15.384425129744
14.228308650264
13.001410629565
11.778289429355
10.599419296395
9.4953723694374
8.4845362470661
7.5721931599581
6.7579537261003
6.0366685816646
5.400775721825
4.8418476812749
4.3512718356683
3.9204857547054
3.5418464849974
3.2085701054019
2.9146727576534
2.6549908028148
2.4250057987217
2.2206421526564
2.038506510178
1.8759860573145
1.7305079540983
1.5999710821619
1.4825674270689
1.3764417823672
1.2804976043892
1.1936094909764
1.11465978026
1.042810607103
0.97712308736574
0.91707609125576
0.86208171568295
0.81159179294804
0.76516401933859
0.72233671700492
0.68281135981915
0.64627794310048
0.61244180566251
0.58104982613905
0.55185804399376
0.52470635079113
0.49940940884258
0.47580532619345
0.45375054065804
0.43311012901559
0.41377662134221
0.39564956553757
0.37862883478137
0.36263399202861
0.34758116629075
0.33338663463979
0.36999436909403
1.7985106901542
2.2707091544009
2.2587817006686
2.224703914976
2.19249786153
2.1635257229054
2.1378264816663
2.1152253440343
2.0954588006896
2.078255534688
2.063430734434
2.050769820553
2.0400095000763
2.0309559076459
2.023398196052
2.017125366335
2.0125109948798
2.0080200454676
2.0042258586689
2.0008851237538
1.9977799193401
1.9946878903435
1.9913507514169
1.9874486859686
1.9825653938009
1.9761717941135
1.967730935627
1.9568792633556
1.9436460210617
1.9285567611061
1.9125995243984
1.8969998010129
1.8828194333302
1.8709454764525
1.8618151613444
1.8554032945174
1.8494483858954
1.8470275327597
1.8451384806957
1.8432573801189
1.8411024329288
1.8384189522736
1.834895376354
1.8300542613506
1.823289503684
1.8138883503389
1.8012381726515
1.7843043699566
1.7622484287791
1.7342327764343
1.7002762896849
1.661109497222
1.6184555016279
1.573909630839
1.5276825378541
1.4799545947585
1.4316906176676
1.3847598481122
1.3415812281154
1.3036195887387
1.2715869861865
1.2457813948075
1.2261247393526
1.2123525382954
1.2039380498221
1.2002436095518
1.2004532543524
1.2035007117783
1.2076719243905
1.2105826946732
1.209807953249
1.203077174094
2.9166683092798
3.9324415127348
4.0827509640164
4.6137292142103
5.7551947206787
7.1337588813946
8.5522176295679
9.8748563775524
11.095149316043
12.054767297586
12.80479649319
13.268376096645
13.412650948757
13.253362701203
12.903797086921
12.350612614003
11.6456925187
10.841545104287
9.9936906554308
9.1382747399388
8.3067234619177
7.5209113181542
6.7924739946062
6.1264991713518
5.524179836897
4.9836746962596
4.500913944929
4.0711822040507
3.6893695745855
3.3502276791392
3.048926385429
2.7810158749134
2.5425046637403
2.3298274349069
2.1397879776567
1.9696601313577
1.8170225199567
1.6797155665612
1.5558780177257
1.4441310632545
1.3430563493681
1.2514431145276
1.1681861152621
1.0922259602029
1.0228855300757
0.95953128735564
0.90148632715728
0.84823019276849
0.79919800126453
0.75399203558353
0.71232290115608
0.67380211275024
0.63815025769638
0.60507252232412
0.57432620075006
0.54575452684164
0.51914394552427
0.49433277949909