/*--------------------------------*- C++ -*----------------------------------*\
| =========                 |                                                 |
| \\      /  F ield         | OpenFOAM: The Open Source CFD Toolbox           |
|  \\    /   O peration     | Version:  2312                                  |
|   \\  /    A nd           | Website:  www.openfoam.com                      |
|    \\/     M anipulation  |                                                 |
\*---------------------------------------------------------------------------*/
FoamFile
{
    version     2.0;
    format      ascii;
    arch        "LSB;label=32;scalar=64";
    class       volScalarField;
    location    "0.00017";
    object      rhoHat;
}
// * * * * * * * * * * * * * * * * * * * * * * * * * * * * * * * * * * * * * //

dimensions      [1 -3 0 0 0 0 0];

internalField   nonuniform List<scalar> 
109340
(
661.22301274777
661.2181909275
661.20896765148
661.1977154254
661.18516825647
661.17195645949
661.15832213687
661.144357675
661.13006136439
661.11479983587
661.09747623409
661.07687885192
661.05152978018
661.01964010106
660.97908041569
660.92733325413
660.8614064392
660.77771921393
660.67193571841
660.53874113509
660.37152386286
660.16198369243
659.89959428788
659.57087716622
659.15837053241
658.63918176006
657.9828525999
657.14812704611
656.07784365993
654.69048429744
652.86544488775
650.41572601559
647.0339597079
642.1798114538
634.83378123114
622.93408358168
661.22373163534
661.21754382806
661.20718534385
661.1951541179
661.18221625631
661.16892739156
661.15544740497
661.14171753976
661.1273507315
661.11167317139
661.09368379566
661.0721141549
661.04540638456
661.01168605532
660.96872885941
660.9138995653
660.844076111
660.75550944967
660.64364487278
660.50287821115
660.32622331152
660.10488587096
659.82768623242
659.48027160159
659.04399637066
658.49433252211
657.79851654314
656.91194659139
655.77242584366
654.29051663043
652.3324335365
649.68759040312
646.00201477019
640.63306707339
632.29499240863
618.24500900135
661.22641085914
661.21926342056
661.20787299956
661.19556180165
661.18273641387
661.16964107511
661.15623936769
661.14248701923
661.12810688507
661.11244060449
661.09450044536
661.07301248974
661.04641196736
661.0128199354
660.97001058849
660.91535380806
660.84572710925
660.75738575651
660.64577849422
660.50530661206
660.32898512692
660.10802038687
659.83123323809
659.484267451
659.04847327299
658.49931367942
657.80401266273
656.91795543645
655.77893781322
654.29750554908
652.33979818516
649.6947218687
646.00446941851
640.60534282099
632.10761907614
617.19720103535
661.23013051434
661.22153929876
661.20959449686
661.19695283595
661.18389301659
661.17053516309
661.15691765651
661.14302554296
661.12857492621
661.11290489731
661.09502804369
661.07366352171
661.04723711566
661.01386168873
660.97130152854
660.91691534308
660.84757006642
660.75950802357
660.64815672062
660.50789416054
660.33168481827
660.11067068914
659.833579076
659.48591641129
659.04884607369
658.49755836343
657.79889218046
656.9076838786
655.760940321
654.26803541224
652.29325996365
649.62231456464
645.88818025558
640.39236114134
631.57699728376
615.06520303035
661.2359737668
661.22485107
661.21119035798
661.19769898102
661.18429035561
661.17080513112
661.15714836292
661.14328221777
661.12890690698
661.11335592154
661.09564806423
661.07449252208
661.04828829607
661.015107083
660.97265177838
660.91819210903
660.84847273107
660.75957018398
660.64662308794
660.50372500669
660.32334569519
660.0959817378
659.80946856003
659.44805646266
658.99119092381
658.41164850527
657.67289751631
656.72502537702
655.4982661438
653.89213296097
651.75590471358
648.85261169762
644.7723434541
638.7201479005
628.80769863628
608.49028433196
661.24679289112
661.22656988567
661.21149952709
661.19769520955
661.18423785859
661.17074986968
661.15709732778
661.14315408613
661.12844638121
661.11203277645
661.09255247647
661.06821473766
661.03678311375
660.99553193552
660.94117260646
660.86974326165
660.77645238544
660.65550964987
660.49997402151
660.30022965907
660.0443906704
659.71718379214
659.29880948002
658.76342232997
658.07703124221
657.19449681442
656.0551822179
654.57636621622
652.64282853454
650.08941881829
646.66923182344
642.00063251758
635.42100863771
625.65111080286
609.58348686027
574.43534437919
602.7082622962
569.53294600038
520.41668395077
457.16249669785
385.87757910197
311.90003594065
240.71961812305
177.08128433517
124.09793374009
82.984952060392
52.742737856213
32.798944387148
19.959125201475
11.987316375942
7.2263693282897
4.3900538047516
2.7081097600822
1.7016891789158
1.0901565583763
0.71435411243626
0.47913224084065
0.32801461561432
0.22901113889262
0.16303423047945
0.11820746122828
0.087319865199965
0.065250869124279
0.049357230092062
0.038195140477167
0.029497814274268
0.023410773447664
0.018501139334996
0.014935486210689
0.012054169544206
0.0098763957808754
0.0081092969779673
0.006741131505025
0.0056109147446395
0.0047291748006801
0.0039799645161835
0.003397771695465
0.0028869969242402
0.0024920351139577
0.0021375985457457
0.0018614338091425
0.0016127293264059
0.0014133944660268
0.0012380440214369
0.0010895987997146
0.00096303459616998
0.00085204924749793
0.00075708584839229
0.0006745061964154
0.00060274459025433
0.00054000882351368
0.00048504112194847
0.00043669147931025
0.00039407592179275
0.00035641182786811
0.00032304437080805
0.00029340072850492
0.00026699819703913
0.00024342446124048
0.0002223285170595
0.00020340615735859
0.00018639134887444
0.00017105934512052
0.000157372536642
0.00050679376535179
0.0062831613124441
0.0073414266439991
0.0071447115726224
0.0069217354991529
0.0067220787241462
0.0065462461686865
0.006392451994214
0.0062592750384236
0.0061452604391468
0.006048270607379
0.0059664469107168
0.0058973726452929
0.0058392222392301
0.005790463108744
0.0057497768196715
0.0057115613093837
0.0056828872964028
0.005657723569092
0.0056345928727368
0.0056123588312116
0.005589866926105
0.0055656417331271
0.0055376307695476
0.0055029006216898
0.0054580149493573
0.0054001671704829
0.0053284334046035
0.0052448777095933
0.0051545708944254
0.0050644327489338
0.0049809490537802
0.0049101313241851
0.0048561919756207
0.0048194586234207
0.0047973449013285
0.0047800212168083
0.0047732073203761
0.0047664880209191
0.0047584252145778
0.0047485212827416
0.0047371395353137
0.0047245878806232
0.0047110417792635
0.0046976782834143
0.004678674175991
0.0046603458949028
0.0046388874041128
0.0046172073891919
0.004593581565838
0.0045695156981538
0.0045443731053358
0.0045185628151647
0.0044918895453743
0.0044651319646352
0.0044374431378165
0.0044088497019297
0.0043792522689676
0.0043487178585981
0.0043169322924181
0.0042837384601451
0.0042490165381985
0.0042127266031844
0.0041754282964535
0.0041375823743299
0.0040999603205838
0.0040634378203419
0.0040292437431733
0.0039974906147102
0.0039677708544459
0.0039340484747366
0.0038872585787837
592.99757303828
551.04329071007
491.64568306937
420.63032608382
344.62680220414
270.53434531194
203.11065289272
145.95679597698
100.58372351176
66.640340226791
42.613056014578
26.443645896758
16.289672367709
9.9523148918285
6.0760425327566
3.7428577533436
2.3359559840533
1.4832335318072
0.96086516919831
0.63560337261337
0.42935196186859
0.29611660579587
0.20826343423411
0.14916502944513
0.10870422244336
0.080508323572754
0.060518453677671
0.046111572907069
0.03559650708937
0.027798791991052
0.021942602938955
0.017507953350778
0.014090493865404
0.011447237814069
0.0093677099142102
0.0077300417622661
0.0064186593958149
0.0053692528283293
0.0045160477885129
0.003823341846017
0.0032527817588728
0.0027834401452267
0.0023922993853245
0.0020663219851162
0.0017922322327901
0.0015608865074432
0.0013648899472402
0.0011975973772799
0.0010549117532037
0.000932064068492
0.00082631802536537
0.00073459358563477
0.00065499852737005
0.00058563623286045
0.00052500405432454
0.00047182635056875
0.0004250459839038
0.00038378273206352
0.00034728623901842
0.00031492496812191
0.00028615777714946
0.00026052204633908
0.00023761897793229
0.00021710832195454
0.00019870086813667
0.0001821512676552
0.00016725764502901
0.00015607474447599
0.0015021306440857
0.0069361269732697
0.0073029872433632
0.0070815878583788
0.0068648537980422
0.0066723158226032
0.0065030975397633
0.0063554191334863
0.0062277607261443
0.0061185772786811
0.0060256270918631
0.0059471616304299
0.0058808215657065
0.0058249821321832
0.005778149443481
0.0057389963907246
0.0057094029134257
0.0056800130550503
0.0056545890069759
0.0056311752107314
0.0056086796132548
0.0055859370110696
0.0055614703642146
0.005533224171915
0.0054982611643013
0.0054531496840362
0.0053950902363671
0.0053231626725427
0.0052394692577289
0.005149135557321
0.0050591481233255
0.0049760230910507
0.0049057772791672
0.0048525495388525
0.0048164760641751
0.0047951370169153
0.0047785118164132
0.0047721352182699
0.0047657160339158
0.0047579053761753
0.0047481701461856
0.0047368953718014
0.004724265492897
0.004710459468825
0.0046967966557343
0.004677781402568
0.0046592003142756
0.0046376178172052
0.0046156136798081
0.004591703907203
0.0045672453799637
0.0045416884700815
0.0045154110548162
0.00448827461739
0.0044609537882998
0.0044326641097066
0.0044034090475054
0.0043730638262443
0.0043416785220391
0.0043089023481557
0.0042746094882968
0.004238717418076
0.0042012404065097
0.0041627415541885
0.0041237629872297
0.0040850890106128
0.0040476930477709
0.0040128479584973
0.0039808097531002
0.0039512347636512
0.0039175862891563
0.0038704453844349
587.73849588466
535.3337733577
464.46851448321
384.28524883161
303.83548041739
230.7953938085
169.15011953198
119.80008771724
82.213785048206
54.51720646496
35.617065486145
22.704804028012
14.258574867701
8.8918938983336
5.534778055803
3.4618087623801
2.1889747007573
1.4061528604338
0.91954049602499
0.6124414793155
0.41595514802553
0.28823120225753
0.20346488477129
0.14617138473016
0.10681228133866
0.079269921336151
0.059684174980596
0.045561423740009
0.035209615525412
0.027531936198013
0.021753377126245
0.017365402520696
0.013990542761483
0.011368559394946
0.0093128548025065
0.0076849916198336
0.0063872413556876
0.005342955309992
0.004497317243767
0.0038075345444015
0.0032412115582743
0.0027736473816673
0.0023846415445568
0.0020601612776556
0.0017870070511126
0.0015569390713659
0.0013612911252047
0.0011949965196391
0.001052432704262
0.00093011669748377
0.00082456459383995
0.00073322509869078
0.0006538525733184
0.00058462697638995
0.00052412691386194
0.00047106288652965
0.00042439326407273
0.0003832190028682
0.00034679706059731
0.00031449695163177
0.00028578268009061
0.00026019222348161
0.00023732774823765
0.00021684951855938
0.00019846983812438
0.00018194808813793
0.00016707521655279
0.00015607222454223
0.0015512346162887
0.0069551146625715
0.0073044976732888
0.007082432787398
0.0068649774764435
0.0066719515634888
0.0065025989702616
0.0063550912406618
0.006227667028551
0.0061186384626488
0.0060257632163245
0.0059473044828837
0.005880961118927
0.0058251109615908
0.005778281423626
0.0057390879780219
0.0057093709651359
0.0056801206431079
0.0056546336196179
0.0056312578452371
0.005608813301252
0.0055861276174605
0.0055617206719423
0.0055335320241734
0.0054986336493204
0.0054536298513086
0.0053956704072315
0.0053238247408829
0.0052401747461419
0.0051498211215548
0.0050597617401422
0.0049765057219617
0.00490616562527
0.0048523624064027
0.0048158781287233
0.0047945093570618
0.0047775817560802
0.0047711672630673
0.0047648143481056
0.0047570632172462
0.0047473962188451
0.004736167413546
0.0047235294564782
0.0047092847351138
0.0046952129044113
0.004676180850951
0.0046570449186516
0.0046350866241347
0.0046123528263984
0.0045877281106077
0.004562335586854
0.0045357951537499
0.0045084417599917
0.0044801987052328
0.0044515254585253
0.0044218330832331
0.0043910760839216
0.0043590173115997
0.0043257095036144
0.0042907157007583
0.0042539577711034
0.0042154323154693
0.0041752806929125
0.0041341123314151
0.0040926448639773
0.0040517945734386
0.0040125990169819
0.0039764942300635
0.0039438602439035
0.0039140661534138
0.0038806478980737
0.0038329066521852
576.06713895049
500.56364573161
408.25387381928
315.458886089
236.94953281442
172.77390937514
123.95131787854
87.451187073463
60.570592485867
41.065833536748
27.788026284568
18.347591556047
11.899152703018
7.6368205291081
4.8694870440524
3.1133825403647
2.0053132459293
1.3064965463166
0.86424829195269
0.58175586331798
0.39844510421756
0.27755623423456
0.19695418130533
0.14215308314164
0.10420579742451
0.077550320151959
0.058547559855888
0.044781514290754
0.034668423537374
0.027147821954327
0.021484889531147
0.017165236639674
0.013844859867278
0.011258982454956
0.0092309733537226
0.0076226574468623
0.0063399760362883
0.0053059736444769
0.0044691446898659
0.0037851209770359
0.0032239446530393
0.0027594037466943
0.0023737555365742
0.0020509608215722
0.0017798485225327
0.001550808730155
0.0013564414669596
0.0011908765243728
0.0010490087390143
0.00092726267911347
0.00082211995193271
0.00073119687024337
0.00065212288107275
0.00058318878849317
0.00052288523900079
0.00046999233628719
0.00042346547774108
0.00038241415191609
0.00034610086478037
0.00031389315459063
0.00028525539736712
0.00025972763301008
0.00023691691859917
0.00021648682770703
0.00019815189380945
0.0001816721145817
0.00016682292564441
0.00015612362162759
0.001625945674415
0.0069785942941962
0.0073058446381338
0.0070830934356345
0.0068648896447865
0.0066713825092495
0.0065019418592005
0.0063546522693496
0.0062275344380707
0.0061187054751763
0.0060259164673409
0.0059474716946193
0.0058811300765664
0.0058252757960511
0.0057784620290358
0.005739269284069
0.0057095579494559
0.0056803687627092
0.005654891839812
0.0056315673484271
0.0056091935531051
0.0055865870794782
0.0055622579186281
0.0055341435827085
0.0054993344364469
0.0054544706441155
0.0053966761549165
0.0053249951013727
0.005241464958202
0.0051511372333626
0.0050610068417536
0.0049775710371831
0.0049069577128773
0.0048526710580383
0.0048156844719021
0.0047938486323114
0.0047764903956444
0.0047699744740439
0.0047636013345398
0.0047558420363947
0.0047461738260552
0.0047348843096098
0.0047220823749152
0.0047075121405844
0.0046929102669921
0.004673460013114
0.0046536650264084
0.004630830690747
0.0046070483699787
0.004581164869512
0.0045543267972861
0.0045261648216683
0.0044970412747554
0.0044670232904984
0.0044362671642759
0.0044043630377353
0.0043711290419168
0.0043362950632659
0.0042998445737892
0.0042612581115231
0.0042205708375813
0.0041778533472387
0.0041335138713658
0.0040882405515004
0.0040430034993391
0.0039988474624311
0.0039570326871645
0.0039193001107927
0.0038859656304717
0.0038561578297382
0.0038231469085395
0.0037745174481321
537.82401351844
408.10159678657
289.88921713866
204.17869384349
146.926411962
106.4738992134
77.792035493826
56.677954910762
41.008144963759
29.342819419438
20.553420540548
14.104299493624
9.5046248294273
6.315293700868
4.1592597342305
2.7283852539495
1.7954355359032
1.1915638464262
0.79995603254495
0.54457292908214
0.37662266777443
0.26483021902809
0.18897475639188
0.13705299139889
0.10095475023452
0.07543750114329
0.057106772262678
0.043793308491231
0.033986802345164
0.026664554883726
0.021137193603384
0.016915334454018
0.013657683732233
0.011120293474964
0.0091256015433951
0.0075437210449611
0.0062782261980043
0.0052592349075133
0.0044322181788428
0.0037564896128706
0.0032009845477536
0.0027413745686329
0.0023591400464531
0.0020391314327048
0.0017702767233694
0.0015428895206782
0.0013500220098068
0.0011854208827266
0.0010445676565881
0.00092346566982504
0.00081896281067839
0.00072848265690362
0.00064982412360326
0.00058126448790574
0.00052124710273649
0.00046858595269639
0.00042224085680875
0.00038135398001715
0.0003451825532817
0.00031309470686264
0.00028455663747873
0.00025911287349711
0.00023637556814848
0.00021601131422272
0.00019773681584878
0.00018130777345571
0.00016649144840658
0.00015614493842742
0.0017275568384199
0.0070066293390636
0.0073063963842528
0.0070832082711823
0.0068644832640334
0.0066706236340441
0.0065011743789012
0.0063541402846297
0.0062273711821095
0.0061187605902067
0.0060260653775854
0.0059476432441694
0.0058813091459498
0.0058254609105806
0.0057786709402139
0.0057395001220391
0.0057098397641027
0.0056806933213669
0.0056552529021126
0.0056319908546247
0.0056097033835236
0.0055871995004277
0.0055629751106949
0.0055349690388538
0.0055002931027126
0.0054556126714038
0.0053980458425908
0.0053266023404797
0.0052432503063318
0.0051529929512397
0.0050628082476409
0.0049791436066122
0.0049081166001446
0.0048532279656832
0.0048155588356955
0.0047930972177399
0.004775174912705
0.0047685057413731
0.0047620922024803
0.0047542934648042
0.0047446010858359
0.0047332214480169
0.0047202571125038
0.0047052655494304
0.0046898813398948
0.0046699097744425
0.0046490513925292
0.0046250726094799
0.0045997183440774
0.0045720473612048
0.0045430899080896
0.0045125751456767
0.0044808944815398
0.0044481487253532
0.0044142814663213
0.0043790755029909
0.0043422307510776
0.004303336110407
0.0042622736707838
0.0042184729839418
0.0041721407491957
0.0041234903013856
0.0040732963518866
0.0040224667034319
0.0039721387542242
0.003923745024587
0.0038789738768867
0.003839481585024
0.0038056849230177
0.003776188977852
0.0037438902347475
0.0036944075651555
303.77385430149
159.00022367095
111.83313025674
87.037255956504
68.977707680489
54.970233445151
43.457621806472
34.123176618218
26.210999117204
19.764945262281
14.527305054748
10.44639096462
7.3478860926577
5.0711843394501
3.4547462644913
2.3357346980478
1.5763539056056
1.0677333782037
0.72909090688673
0.50337720608288
0.35205777905377
0.24969246693988
0.17979522132308
0.13121493896087
0.09712801451923
0.072889987571095
0.055423266012423
0.042627117684665
0.033164964699591
0.026085197348344
0.020721343264274
0.016610373759387
0.013432794399973
0.010953826049531
0.0089989581983514
0.0074472583055556
0.0062045972045706
0.0052024388889234
0.0043874791416674
0.0037215894463181
0.0031732386291106
0.0027193599140665
0.0023411847888266
0.0020247759922691
0.0017584740409065
0.0015332730045432
0.0013419993657323
0.0011787934660313
0.0010390642814421
0.00091881478528977
0.00081505672810245
0.00072514008895819
0.0006470063288484
0.00057885574220939
0.00051920249697923
0.00046683458356778
0.00042073087328631
0.00038004757480425
0.00034404311002495
0.00031209813999694
0.00028368366952336
0.00025834848285045
0.00023570464300671
0.0002154207814225
0.0001972170195822
0.00018084256834355
0.0001660815150073
0.00015624905013145
0.0018581228048371
0.0070389475002641
0.0073057837625434
0.0070824624752679
0.0068636272724141
0.0066696570079379
0.0065003169591411
0.0063535814131774
0.0062271685691515
0.006118780683988
0.0060261827756918
0.0059477940413681
0.0058814767220894
0.0058256473093019
0.00577888798705
0.0057397495791496
0.0057101477619024
0.0056810579841362
0.0056556825202947
0.0056325116930227
0.0056103289734317
0.0055879370640795
0.0055638319449469
0.0055359636357999
0.0055014613490549
0.0054570090487966
0.0053997321643282
0.005328607061907
0.005245519099802
0.0051553584346968
0.005065049103498
0.0049810761354216
0.0049095335800591
0.0048539635334142
0.0048154927495387
0.0047921475797579
0.0047735785147252
0.0047666668286113
0.0047601434149702
0.0047522569179479
0.0047425241863381
0.0047310214684742
0.0047178399107166
0.0047024115438268
0.0046861341186684
0.0046653312699212
0.0046431223964865
0.004617533074831
0.0045901011283338
0.00455994631231
0.0045280713857854
0.0044942816044966
0.0044588465332294
0.0044221151967685
0.0043839477041379
0.0043441828434094
0.0043023020323418
0.0042577227284133
0.0042102121177596
0.0041592199323919
0.0041052123751255
0.0040487523314734
0.0039910406420609
0.0039331348221159
0.0038766717604191
0.0038235893487903
0.0037757309538462
0.0037347950752187
0.0037010551811238
0.0036725437096796
0.0036414955268675
0.0035914700008619
0.34859503189087
16.140975837354
24.387642358127
27.946601095146
28.512238615608
26.875363308024
23.853328107838
20.385109342396
16.886397364404
13.589878412963
10.636291034811
8.0902598000647
5.9916109316169
4.3311343032956
3.070122275014
2.1472841505191
1.490027238157
1.0320711242159
0.71709128470167
0.50174471532804
0.35449676557636
0.2533764357537
0.18333980628079
0.13449152131624
0.099867179482251
0.075053281815314
0.057132542643337
0.044006250442969
0.034263284265093
0.026942242203416
0.021402615734844
0.017162053625175
0.013875733763446
0.011308642530883
0.0092883984882723
0.0076843002327509
0.0063985686033639
0.0053624148736366
0.0045208325514758
0.003832744463578
0.0032661485018908
0.0027975707941104
0.0024074085545367
0.0020809610463741
0.0018062166268835
0.001574153963815
0.0013771016302878
0.0012090716696559
0.0010651779598242
0.00094147054579774
0.00083477884979943
0.00074236136557271
0.00066206815071956
0.00059205434456688
0.00053084099030332
0.00047713573620578
0.00042986113615784
0.000388140435443
0.00035123196057052
0.0003185055468235
0.00028940823924523
0.00026347189281423
0.00024029772394346
0.00021954647279959
0.00020092455707837
0.00018418744708765
0.00016911376367235
0.00015604484389758
0.00075403029680088
0.0065718144175628
0.0073496675691698
0.0071380650878576
0.0069146367019446
0.0067145064814413
0.0065394067757603
0.0063875667844555
0.0062566531595478
0.0061442157874647
0.0060479479059734
0.0059662788294732
0.0058971516832047
0.0058388527443229
0.0057900000816167
0.0057491222006636
0.0057104466797244
0.005681415140534
0.0056561194167364
0.0056330597871048
0.0056110105728278
0.005588760803108
0.0055647999832158
0.0055370912198254
0.0055027935408878
0.0054586227329667
0.0054017153835522
0.0053309790774998
0.0052481897269987
0.0051581405547294
0.0050677007263478
0.0049833731997098
0.0049112155476547
0.0048548797454777
0.0048156732145239
0.0047916078668242
0.0047713037165455
0.0047638821672307
0.0047571192738121
0.00474902844501
0.0047391199475098
0.0047272232985585
0.0047134100996393
0.0046969078728092
0.0046787814261284
0.0046561844451058
0.004631304840798
0.0046024654433223
0.0045708052102891
0.0045355511078429
0.0044974855103443
0.0044564797455544
0.0044133936009316
0.0043684076032275
0.0043214151279662
0.0042721640037922
0.0042197157886301
0.0041633161757968
0.0041024469488542
0.0040370046725224
0.0039680376581339
0.0038966522017103
0.003824928575457
0.0037549670790258
0.003688919783821
0.0036291986877168
0.0035778014354999
0.0035362614014565
0.0035042478085738
0.0034787805469467
0.0034509425751579
0.0034008999180888
0.068821986925512
0.49490558096436
1.5771684167037
2.9406694153213
4.2649764425223
5.2776402344524
5.8533419912394
6.0005082381268
5.6744275637528
5.1296535047389
4.4545624182115
3.7170684354877
2.9947377406539
2.3372548809698
1.7756319261766
1.3215819942855
0.96947134905168
0.70495068661264
0.51103232282618
0.37096452434492
0.27055264946974
0.19872871729399
0.14724350596435
0.11013358742686
0.08322936617432
0.063583578787735
0.049058957643423
0.038201512591979
0.030049079171317
0.02385810211852
0.019112394773101
0.015429652339188
0.012558497194482
0.010298534144015
0.008505512672135
0.0070690953968264
0.0059130837039865
0.0049759664392586
0.0042110948021234
0.0035819730195623
0.0030621360186993
0.0026302982653204
0.0022695911980244
0.0019664697528987
0.0017107187595822
0.0014940163396835
0.0013095775742328
0.0011518683188151
0.0010164770200128
0.00089988932531837
0.00079908081927071
0.00071163157692578
0.00063548153285597
0.00056898818753648
0.00051074914749527
0.0004595827283228
0.00041449721692299
0.00037464467292869
0.00033933782266987
0.00030798261845294
0.00028007323185464
0.00025517189683877
0.00023290462332598
0.00021295220908951
0.00019503280689798
0.00017890873143672
0.00016436570242417
0.00015768202225552
0.0024516950690101
0.0071476159352386
0.0072968437862677
0.0070742380465738
0.0068575338626307
0.0066650094537719
0.0064969246647735
0.0063514265079507
0.0062260568405339
0.0061183096412516
0.0060260669397341
0.005947878520717
0.0058816865797584
0.0058259827150198
0.0057793361896366
0.0057403031778978
0.0057109035931378
0.0056819984934324
0.0056568899904785
0.0056340895044329
0.0056123522803866
0.0055904400647
0.005566833121613
0.0055395259672795
0.0055057602517177
0.0054623333938257
0.0054063758900795
0.0053366355295319
0.0052546441049577
0.005164928924867
0.0050741958491243
0.0049890116536777
0.0049153632849495
0.004857117508958
0.0048157080155378
0.0047895112324183
0.0047671756388519
0.0047588900263245
0.0047516035676505
0.0047431246654492
0.0047328576191881
0.0047203921710275
0.0047056190403969
0.0046875516637741
0.0046664412995572
0.0046401984666178
0.0046099967210307
0.0045742965467255
0.0045333995545505
0.0044867627917076
0.0044351043370572
0.0043788889898582
0.0043190505689703
0.0042558255025946
0.0041889438028742
0.0041178165133879
0.0040410826335131
0.0039576894037081
0.0038677066791397
0.0037721734813929
0.0036739509256449
0.0035765337867069
0.0034831440131862
0.00339694349402
0.0033207936968309
0.0032569410993106
0.0032068221779424
0.0031709565659577
0.0031477185215958
0.0031320272939774
0.0031120062663506
0.0030665550518141
0.043423072019218
0.095438399962484
0.24959588163356
0.53374865776523
0.89875987492724
1.2837215587472
1.6318739127337
1.8931330276605
2.0401531606439
2.0566226046412
1.9621483237675
1.8019205820545
1.5762533121693
1.3277578227781
1.0809185722651
0.85629118608116
0.66425658805914
0.50749952099321
0.38402762755952
0.28919939388676
0.21764906833434
0.16420986212422
0.12447976771948
0.094957648146291
0.072962585365348
0.056514071179059
0.044136273423798
0.034756817039373
0.027601937969858
0.022088282020714
0.017810765442636
0.01447201659424
0.011843987651019
0.0097616966964642
0.0080944006627122
0.0067536559859347
0.0056689011461268
0.0047854837931447
0.0040606237905405
0.0034624790683293
0.0029669284138714
0.0025538617226031
0.0022076496664325
0.0019158891547619
0.0016693486128054
0.0014599387524885
0.0012813562603163
0.0011283270877845
0.00099679166056288
0.00088334331748952
0.00078512878204984
0.00069979163023548
0.00062538921599953
0.00056036099955592
0.00050334227093296
0.0004531995613728
0.00040896782076083
0.00036984539636797
0.00033516625260283
0.00030434313680117
0.0002768827726452
0.0002523639741564
0.00023042693983882
0.00021076349096361
0.00019310138857437
0.00017720091406975
0.00016285459561083
0.00016193196638425
0.0030457323427227
0.0072240848954204
0.0072888867710703
0.0070650528233136
0.0068505137319388
0.0066599605273163
0.0064934136083346
0.0063490625765654
0.0062244851408697
0.0061172358721193
0.0060253571395248
0.0059474060258942
0.0058813609598194
0.0058257709611631
0.0057791968157597
0.0057402211669775
0.0057109792579895
0.0056822080416237
0.0056573064909982
0.0056347939758843
0.0056134083304502
0.0055918928892005
0.0055687285988915
0.0055419501807694
0.0055088816008215
0.0054664510053524
0.0054117563924299
0.0053433603799056
0.0052624589772958
0.0051732516599901
0.0050822215088435
0.0049960276850098
0.0049205808279229
0.0048599962979998
0.0048158736847419
0.0047870516079465
0.0047617775546436
0.0047522296957718
0.0047442672616802
0.0047354422311972
0.0047248933857047
0.0047119295908764
0.0046960761338486
0.0046759475588234
0.0046509291365791
0.0046193340273415
0.004580953777904
0.0045342311218377
0.004478750284473
0.0044135144880335
0.0043391343441272
0.0042571281694113
0.0041684270849274
0.0040742053306382
0.0039739895466251
0.0038664645081958
0.0037504194506088
0.0036262411323131
0.0034959450100032
0.0033643388542359
0.0032364052111162
0.0031173101274318
0.0030110660206735
0.0029206491741356
0.0028475977561782
0.0027926383344445
0.0027554725327168
0.0027347849715624
0.0027271008407843
0.002724331730791
0.0027139731910975
0.002675014103928
0.027624641007767
0.047834096701878
0.076709083533936
0.15346760539983
0.27007254800404
0.41172268191014
0.56343418324414
0.70374081450856
0.82059978235552
0.89271256917185
0.91695216880219
0.89446640589307
0.83969976222
0.75309189416657
0.65112037691759
0.54566844341215
0.44552747451318
0.35665258196928
0.28139054811514
0.21986862802321
0.17090179697386
0.13261443283138
0.10299849058644
0.080236416273352
0.062782434945975
0.049391955002227
0.039100239917296
0.031156728619197
0.024993255786669
0.020184118826976
0.016410289656906
0.013429938514954
0.01105837143065
0.0091611332906285
0.0076352722552322
0.0064003573485962
0.0053947197936564
0.0045687982905096
0.0038886199056476
0.0033258407963761
0.0028574017259599
0.0024654860254314
0.0021355092707662
0.0018571990329859
0.0016211764244436
0.0014202532989559
0.0012483316078166
0.0011007633175657
0.00097374046113019
0.00086394656345812
0.00076874313642472
0.00068585367587559
0.00061350786785697
0.00055019651061861
0.00049461014704111
0.00044566167703952
0.00040242435083915
0.00036415841927639
0.00033020951195789
0.00030001480865
0.00027309362048566
0.00024903330211273
0.00022749241989722
0.00020816982461319
0.00019079805208477
0.00017515332364093
0.0001610054132174
0.00017195339444076
0.0037786993676459
0.0072974010955402
0.007278806868106
0.0070531857717309
0.0068411243303639
0.0066530107770193
0.0064884338969344
0.0063455261947447
0.0062219372042982
0.0061153266467846
0.0060239671113571
0.0059463260462076
0.0058804628737956
0.0058249872007963
0.0057784762838282
0.0057395514677245
0.0057104871757154
0.0056818572623527
0.0056571689918123
0.0056349545834182
0.0056139486173021
0.0055928997497299
0.0055702849264232
0.0055441561707055
0.0055120222974705
0.0054708596439328
0.0054177257396599
0.0053509871613417
0.0052715033435595
0.0051830287824086
0.005091745842267
0.0050044519950598
0.0049269335727935
0.0048636190187517
0.0048163458117769
0.0047844150224476
0.0047558611068388
0.004744777929939
0.0047359467267214
0.0047266827684005
0.0047157978968795
0.0047022785717619
0.0046851133640793
0.0046624684198924
0.0046326274472226
0.0045932012219705
0.0045432922594384
0.0044798979939442
0.0044013178470248
0.0043057336880181
0.0041940689731121
0.0040689910234339
0.0039336164869481
0.0037906216682166
0.003640349762575
0.003482310359791
0.0033172485815796
0.0031490194826216