/*--------------------------------*- C++ -*----------------------------------*\
| =========                 |                                                 |
| \\      /  F ield         | OpenFOAM: The Open Source CFD Toolbox           |
|  \\    /   O peration     | Version:  2312                                  |
|   \\  /    A nd           | Website:  www.openfoam.com                      |
|    \\/     M anipulation  |                                                 |
\*---------------------------------------------------------------------------*/
FoamFile
{
    version     2.0;
    format      ascii;
    arch        "LSB;label=32;scalar=64";
    class       volScalarField;
    location    "0.00017";
    object      T;
}
// * * * * * * * * * * * * * * * * * * * * * * * * * * * * * * * * * * * * * //

dimensions      [0 0 0 1 0 0 0];

internalField   nonuniform List<scalar> 
109340
(
372.99990992529
372.99864670983
372.99643061802
372.99360713183
372.99058573953
372.98756159317
372.98460686253
372.98175775168
372.97897546125
372.97618136443
372.97338201119
372.97058042267
372.96777350561
372.96495361687
372.96211027388
372.95923009469
372.95629598943
372.95328665846
372.95017518976
372.94692788424
372.94350273817
372.93984848883
372.93590162838
372.93158163452
372.92678545113
372.92137927265
372.91518701808
372.90797346207
372.89941779571
372.8890712311
372.87628504856
372.86008185609
372.83891329225
372.8101859407
372.7692515229
372.70735873356
372.99970798066
372.99803123012
372.99547466601
372.99259466899
372.98963932013
372.98670515851
372.98381288871
372.98095229617
372.97811796903
372.97529818729
372.9724851944
372.96967431698
372.96685904517
372.96403050978
372.96117711436
372.95828456005
372.95533528881
372.95230668258
372.94917015304
372.94589014136
372.94242271395
372.93871397153
372.93469694725
372.9302863184
372.92537247237
372.91981245557
372.91341754596
372.90593437797
372.89701542355
372.88617085173
372.87268561525
372.85546694061
372.8327464695
372.80147370341
372.75589553573
372.68456540208
372.99974755955
372.9977647647
372.99511085129
372.99227987365
372.98938023897
372.98646539424
372.98354769283
372.98064439635
372.97776891571
372.9749183756
372.97208412989
372.96925882296
372.96643441037
372.96360129616
372.96074788479
372.95785997895
372.95492006333
372.95190577209
372.94878866543
372.94553358931
372.94209658927
372.93842430278
372.93445028633
372.93008936393
372.92523186279
372.91973461481
372.91340883581
372.90600109093
372.89716373374
372.88640662046
372.87301385649
372.85588834758
372.83323463964
372.80188628603
372.75561951661
372.6807736874
372.99970853394
372.99740710331
372.99462121372
372.99169749312
372.98873339402
372.98575589865
372.98278138011
372.97982512159
372.9768990644
372.97400736563
372.97114627475
372.96830929395
372.96548798023
372.96267288345
372.95985429778
372.95701854707
372.95414893638
372.95122379766
372.9482153191
372.94508980942
372.94180376347
372.93830395124
372.93452295029
372.93037430845
372.92574634339
372.92049353018
372.9144241446
372.90728112035
372.89871213081
372.88822026551
372.875079135
372.85817418015
372.8356515734
372.80415404412
372.75667869068
372.6754154613
372.99949489888
372.99643822213
372.99302017935
372.98967563813
372.98640917577
372.98321817096
372.98011415148
372.9771252015
372.97427105678
372.97154654586
372.96895485023
372.96649552368
372.96416116812
372.96194296176
372.95983115712
372.95781348463
372.95587446613
372.95399393721
372.95214168368
372.95028725732
372.94835249766
372.94626079796
372.94392688971
372.9412477397
372.93809641524
372.93430833993
372.92966878462
372.92389145856
372.91658368471
372.90719221581
372.89490595431
372.87849395845
372.85586812113
372.82317706856
372.77184146098
372.67543611312
373.00336039186
373.01757888902
373.03288972911
373.04808507308
373.06273317211
373.07659671147
373.08954856959
373.10153460054
373.11254424553
373.12258646544
373.13168444057
373.13986485252
373.14715359212
373.15357460807
373.15914653321
373.1638825267
373.16778948921
373.17087166504
373.17317925111
373.17482922711
373.17581218147
373.17607604953
373.17554336458
373.1740903199
373.17159330196
373.1678332206
373.16252210026
373.15526447291
373.14550498923
373.13244659953
373.11490068917
373.09106004151
373.05779536462
373.00925930122
372.93190293348
372.77562280899
372.60914086251
372.45436016807
372.2174492142
371.87853117953
371.42751106377
370.85337255057
370.14147303567
369.27899391842
368.25512220272
367.06425661916
365.70372052624
364.19303234049
362.57272323647
360.86994387214
359.12506422348
357.37290578005
355.64249352381
353.95584552392
352.32702991072
350.76572897229
349.27716201499
347.86185296378
346.51874215357
345.24557072005
344.03852102403
342.89483120601
341.80872178188
340.7741323508
339.79673734165
338.85886346004
337.97111311948
337.11916988906
336.30725542673
335.52934523033
334.78360847618
334.06894629917
333.38166710238
332.72126540979
332.08568081682
331.4721359817
330.88245935214
330.30971065566
329.76049911254
329.22416941044
328.71025705648
328.20727274315
327.72407949517
327.25216711655
326.79548092244
326.35135546379
325.9187766296
325.49844739426
325.08915577729
324.69056800227
324.30201843839
323.92310778802
323.55334836325
323.19238820759
322.8398437421
322.4953677786
322.15860589875
321.82923738625
321.50695758007
321.19148273482
320.88254425819
320.5799071194
320.28329508889
319.97914108523
321.73738501392
321.53238574909
320.58018361507
319.64039435755
318.73847370841
317.88431693965
317.08391028426
316.33849159454
315.64531666539
314.9991820617
314.39362257185
313.82183487054
313.27724337692
312.75387673874
312.24635127913
311.74979478052
311.19844953898
310.71046646473
310.21955390172
309.72047501741
309.20635942202
308.66787081843
308.09267144562
307.46611638709
306.774103566
306.0080589829
305.1696959387
304.27163812597
303.33211531393
302.36742887697
301.3891054324
300.40822478134
299.44602932348
298.54436928213
297.76685189586
297.17633784373
296.72152606307
296.54204794564
296.4359899339
296.35998887042
296.29114871582
296.22077244309
296.14340992622
296.05749358185
295.96215696155
295.85671982728
295.74131413109
295.61537778112
295.47886986597
295.33140933052
295.172888855
295.00295621644
294.82127626346
294.62707578828
294.41890017074
294.19420227312
293.94977424196
293.68257457792
293.39045801921
293.07286675128
292.7312288375
292.3692156611
291.99299823102
291.61093238892
291.23451909783
290.87832952068
290.56136876214
290.30921803677
290.16681995739
290.19616168369
290.54946488713
291.55569175415
372.56585213699
372.37288840899
372.07898020918
371.67133391881
371.14419991531
370.4883684678
369.69439241357
368.75564408375
367.66743852248
366.42935254694
365.04543113214
363.53282172521
361.9217537344
360.24397812233
358.52908395869
356.80873772408
355.11003324415
353.45367961003
351.85444413338
350.32106968781
348.8581172239
347.46698501789
346.14650832777
344.89408539601
343.70675680939
342.58026953764
341.51083235593
340.49428787232
339.52731794699
338.60621050765
337.72748819395
336.88874824348
336.08629650382
335.31841650487
334.58189679721
333.87543539192
333.19622566469
332.54327905092
331.9141566741
331.30808422819
330.72297788838
330.15820601959
329.61195909398
329.08367468423
328.57194958185
328.07609275175
327.59515724233
327.12830358061
326.67498520534
326.23428341679
325.80575421788
325.38858864997
324.98244613923
324.58670547808
324.20093487498
323.82463824689
323.45741499667
323.09885991859
322.74860927355
322.40630995092
322.07163451375
321.74426491837
321.42389876779
321.11025133822
320.80305879435
320.50207117777
320.20709935231
319.93276457115
322.01060628825
321.2922763121
320.33722220437
319.40592753993
318.5155207629
317.67487632702
316.88875322769
316.15721794562
315.47675067461
314.84171010376
314.24548027947
313.68127866883
313.14268235106
312.6238927207
312.11967868158
311.62528718561
311.19753942158
310.70970175352
310.21892990164
309.7200259183
309.20613424204
308.66793301463
308.09310078175
307.46700528494
306.77554330817
306.01011654946
305.17239120286
304.27494411363
303.33599170239
302.37185093146
301.39407219983
300.41372020782
299.45194152594
298.55038811091
297.77241341399
297.18078938495
296.72411630844
296.54340398617
296.43646670685
296.35974566992
296.29022098679
296.21909502847
296.14086611977
296.05391387997
295.95741833927
295.85060885116
295.73355840959
295.60566450883
295.46685654347
295.31672947284
295.15514842006
294.98174523454
294.79615246004
294.597563898
294.38444967843
294.15413527414
293.90335433483
293.62908903294
293.32933130853
293.00378807339
292.65426148647
292.28487447536
291.90221826192
291.51514412185
291.13556380646
290.77849223254
290.46326126619
290.2158261547
290.08149403227
290.12172009421
290.49308107912
291.5275999995
372.54633500209
372.31181356219
371.95328640775
371.46584803527
370.8518041342
370.11134951767
369.24692299317
368.25601872622
367.13800503483
365.89198030445
364.52677428403
363.05417388119
361.49069121493
359.86272801615
358.19849434604
356.52546229744
354.86894482169
353.24974462349
351.6821657198
350.17491848981
348.73334825376
347.35986946603
346.05382651008
344.81323367826
343.63540996111
342.51688196705
341.45432656041
340.44398155503
339.48196126088
338.56523035654
337.69039478402
336.85466122865
336.0553324939
335.28968478309
334.55570499203
333.85092735163
333.17381383413
332.5221991791
331.8947895021
331.28980513395
330.70609958893
330.142240001
329.59708686013
329.06966508508
328.558746535
328.0637531404
327.58340750588
327.11740153466
326.66452827605
326.2245259153
325.79643046244
325.3798857562
324.9741732973
324.57883770988
324.19344242011
323.81751140773
323.45064109537
323.09241256273
322.74246597718
322.40044970008
322.06604156469
321.73892252212
321.41879078339
321.1053624289
320.79836644017
320.4975716681
320.20276068791
319.93202014608
322.01112353256
321.28368569321
320.32905390904
319.39816963055
318.50833561838
317.66840742082
316.88301511996
316.15216324676
315.47229644778
314.83774453585
314.24189388168
313.67798637776
313.13962788521
312.62104535061
312.11703087472
311.62285101861
311.19557084583
310.70800654004
310.21754177897
309.71902349294
309.20562398439
308.66805420691
308.09402845292
307.46894228723
306.77869022604
306.01461992623
305.1782934324
304.28219068599
303.3444981514
302.38156619591
301.40499790963
300.4258276848
299.46499333334
298.56371260171
297.78477413196
297.19073782609
296.72995440854
296.54649943767
296.43760430386
296.35928318508
296.28826261844
296.21547156945
296.1353490373
296.04615795723
295.94714115657
295.83730593441
295.71664352536
295.58442969976
295.44054794446
295.28451456887
295.1161461142
294.93502930241
294.74072957504
294.53236178243
294.30821865671
294.06536416434
293.80043105399
293.51048292697
293.19385732086
292.85088691971
292.48422483957
292.09898494298
291.70269445791
291.30524830945
290.91942661227
290.56120363766
290.25036761332
290.01377298266
289.89683323811
289.961565942
290.37231109399
291.46803903905
372.50710944784
372.17744027106
371.6801880677
371.04034023321
370.28828087139
369.43202619586
368.48687110551
367.45343350201
366.32637572412
365.10351467862
363.79161972245
362.38849031585
360.90259155283
359.35184209671
357.75986343155
356.15190979761
354.55184228713
352.9805779585
351.45323283576
349.98013907231
348.567189685
347.21652541663
345.92965579076
344.70519628953
343.54053181093
342.43294123979
341.37942119429
340.37681054609
339.42162888923
338.5106302259
337.64096373016
336.80951209927
336.01404647516
335.25179435042
334.52077844886
333.81871907009
333.14396496893
332.49450652399
331.86904387183
331.26580383489
330.68371718701
330.12121535879
329.57748717648
329.05112538269
328.54143078849
328.04728801129
327.56799868622
327.10272869906
326.65069884872
326.2113839342
325.78397368348
325.36807160403
324.96294602682
324.5681947619
324.18329141297
323.8078382561
323.44140626756
323.08359758048
322.73404937668
322.39240876088
322.05834847377
321.73155199663
321.41172478079
321.09858605944
320.79185320167
320.49132895111
320.19679346697
319.93032635503
322.01212090865
321.27102266038
320.31718735939
319.38697818387
318.49800532958
317.65911883056
316.87478014448
316.14490496344
315.46588948153
314.83202915863
314.23671661896
313.67322794407
313.13520859107
312.61692164967
312.11319188158
311.61931388708
311.19259469104
310.70541587337
310.21541657646
309.71748241845
309.2048275244
308.66821283122
308.09540754217
307.47184981341
306.78343157963
306.02141962424
305.18722053283
304.29316601834
303.35739413846
302.39630452273
301.42158239178
300.44422193475
299.48485175125
298.58403040132
297.80367926484
297.20602393485
296.73905911815
296.55141775323
296.43951985736
296.35876101794
296.28547826868
296.21015989313
296.12720225092
296.03470041313
295.93185785739
295.8174697873
295.6913096572
295.55252550566
295.40087574358
295.23576917107
295.05694140049
294.86389734021
294.6561030976
294.4325537828
294.19122168501
293.92884256689
293.64197540936
293.32790607309
292.98558635592
292.61643983686
292.22448624343
291.81637368838
291.40108816679
290.98989415097
290.59670153953
290.23843641389
289.93577507754
289.71719033722
289.62526138814
289.72903178329
290.19831273667
291.38430624849
372.40221195144
371.79698708567
370.99613139826
370.11858196405
369.21856713491
368.28949037579
367.32614288004
366.31474802666
365.23863498798
364.09347856074
362.86686790787
361.55777047106
360.1695046007
358.71479216753
357.21327234912
355.68670299475
354.15748649775
352.64623531256
351.16910763758
349.73766144916
348.35928077251
347.03833186634
345.77514972343
344.57034033898
343.42247761711
342.32908967262
341.2872066277
340.29430353576
339.34762514966
338.4438949451
337.5803799068
336.75446053225
335.96357539209
335.20554225869
334.47810897421
333.7794101739
333.10743804845
332.46071607026
331.83750449255
331.23647367108
330.65621213091
330.09555126756
329.55332906129
329.02845332443
328.52006700109
328.02713261454
327.54899408354
327.08468583801
326.63368263685
326.19517587032
325.7686347113
325.35343523883
324.94904259549
324.55497617221
324.17069813888
323.79581999321
323.42991245797
323.0726139051
322.72354531029
322.38235507585
322.04871257477
321.72230854801
321.40285466012
321.09006105208
320.78366975574
320.48347905715
320.1892619874
319.92869810846
322.0122708027
321.25435384597
320.30162709619
319.3723996193
318.48460093246
317.64708459211
316.86411671157
316.13550036133
315.45757180916
314.82459233631
314.22996711073
313.66701525032
313.12943136613
312.61152452951
312.10816107645
311.61467238808
311.18860589471
310.70193238115
310.21255290059
309.71539749459
309.20373420688
308.66839127265
308.09721195097
307.47569247358
306.78972226945
306.03045984211
305.19910858348
304.30780020373
303.37460378659
302.41598368032
301.44373596479
300.46880628473
299.51142116214
298.61127221093
297.82912613249
297.22673777405
296.75164950071
296.55838124118
296.44243007475
296.35840898808
296.28212248547
296.20346956307
296.11678320574
296.01994658944
295.91202138895
295.79158441562
295.65807292352
295.5104737104
295.34831644462
295.17086959017
294.97774818534
294.76834196712
294.54198249981
294.29748050249
294.03233879246
293.74299819303
293.4260800948
293.07933812817
292.70284154125
292.29970691992
291.87587231905
291.43997478984
291.00264912667
290.57653746887
290.17696606789
289.82234821725
289.53377221942
289.34077666761
289.2826713115
289.43890977173
289.98405004661
291.28481943585
371.79369399141
370.24970738051
369.19571910781
368.32078278237
367.4826326526
366.64705070184
365.78867667269
364.89189350097
363.93373421189
362.90271382527
361.79016616143
360.595385399
359.32027336083
357.97419955966
356.5736454231
355.13899002602
353.69087877228
352.2491904385
350.83097404403
349.44879900794
348.11144233591
346.82418337215
345.59018191347
344.40916788995
343.28096425261
342.20427023389
341.17690412944
340.19597925458
339.259423864
338.36456823919
337.50867840854
336.68923638842
335.9040893871
335.15109591661
334.42803115384
333.73318837804
333.06473925312
332.42109195502
331.80061796768
331.20209775616
330.62407864809
330.06546920149
329.52503482119
329.00190525595
328.49500613826
328.00352859795
327.52662420689
327.06355418996
326.61364691591
326.17615108693
325.75055989121
325.33621393328
324.93266920127
324.53935441439
324.15581578561
323.78160730769
323.41632976819
323.05961754305
322.71109127473
322.37041440925
322.03725958095
321.71132016002
321.39229808544
321.07990193578
320.77391391039
320.47412963767
320.18024721952
319.92907380963
322.00910067019
321.23366881802
320.28238806315
319.35449371558
318.46820523067
317.63238770867
316.85109995738
316.12401147467
315.44738882846
314.81546465427
314.22166487327
313.65935969654
313.12230162023
312.60485474136
312.10193544403
311.6089204264
311.1835939185
310.69754612629
310.2089384916
309.71275432751
309.20232659657
308.66856618202
308.09941039195
307.48043030061
306.7975138386
306.04168609982
305.21389939719
304.32603332072
303.39606473667
302.44053640194
301.47138474771
300.49950067206
299.54462702333
298.64540089531
297.86116212615
297.25301068259
296.76804989418
296.56768840532
296.44661482621
296.35851475389
296.27851463189
296.19577715828
296.10451909274
296.00237097377
295.88817248969
295.7602213942
295.61753722834
295.45884421512
295.28335598697
295.09015526765
294.87869863276
294.64820486599
294.3978477931
294.12614148284
293.83004982339
293.50591495249
293.15068852477
292.76297382865
292.3446647375
291.90140053669
291.44146408935
290.97511877909
290.51541966578
290.0771316448
289.67672250084
289.33279839398
289.06621325314
288.90586007704
288.8922301086
289.11229284879
289.74732261067
291.18082086653
362.97992956491
366.58894121872
366.3321447742
365.91399765645
365.42803433308
364.85617983194
364.20461289205
363.47881473993
362.68216395432
361.81081694704
360.85430067797
359.80906690744
358.67784907111
357.46646735418
356.18778439585
354.86022730006
353.50366943177
352.13748347558
350.77961118663
349.44485703564
348.14393234904
346.88447919707
345.67072076552
344.50534768169
343.38838489459
342.31892270803
341.29650779326
340.31899698523
339.38428828001
338.48971515255
337.63353006342
336.81336655956
336.02684868837
335.2719741149
334.54702636492
333.85008183084
333.17933356384
332.53334435528
331.91060321193
331.30969989417
330.72930966694
330.16837552325
329.6257005253
329.10032114954
328.59121302483
328.09762836781
327.6186646699
327.15361210672
326.70172546986
326.26237190154
325.83496638654
325.41887533955
325.01361613002
324.61864564146
324.2335500434
323.85783978612
323.49109530999
323.13293938313
322.78302225927
322.44101098949
322.10656407805
321.77936958342
321.45914464437
321.14562398073
320.83851293498
320.5375734582
320.24263257001
319.94006944257
321.86017452468
321.44434664618
320.49586868987
319.56143926767
318.66551748988
317.81852576249
317.02548630685
316.28692807622
315.59975411148
314.95854640857
314.35685469496
313.78807557907
313.24589594395
312.72459087174
312.21900617867
311.72446917978
311.17754906512
310.69224503181
310.20455720805
309.70953165698
309.20057818178
308.66870620863
308.10196531327
307.48601655967
306.80675037672
306.05503718459
305.23152940799
304.3478003089
303.42170778076
302.46989363238
301.50445157082
300.53622141754
299.58439267441
298.68638620862
297.89985629876
297.28497354999
296.79983457261
296.58619270778
296.45558147545
296.35999247302
296.27321169686
296.18312540092
296.08363895529
295.97192632797
295.84637151445
295.70474322335
295.54530695679
295.3662290758
295.16605212413
294.94347033486
294.69756471213
294.42728280978
294.131599685
293.8082598651
293.45363187487
293.0640234921
292.63724925248
292.17429922467
291.68154368146
291.16938391376
290.65082364826
290.14157091869
289.65728331366
289.2135438561
288.8267608777
288.51488218157
288.29505078895
288.19698152983
288.26687463352
288.5975063346
289.38454766186
291.0359538617
353.86024990533
359.05437581051
359.88504870058
360.27794770804
360.44368664002
360.42091642525
360.2169194402
359.85788934476
359.36734793141
358.76156739064
358.0491189767
357.23985653175
356.33772159428
355.34546205668
354.27403496163
353.14012860232
351.96186585553
350.75771974597
349.5447500148
348.33808296609
347.15015789081
345.98953884521
344.86217981439
343.77179719815
342.72047852828
341.70904967126
340.73723710801
339.80375822357
338.90806113298
338.04844658964
337.22322131622
336.43032292667
335.66837492897
334.93575112992
334.23076168416
333.55168066847
332.897246066
332.26613458487
331.65695346572
331.06837629267
330.49933436071
329.94881831891
329.41578972045
328.89924880719
328.39839218651
327.91243465624
327.44062100212
326.98219055293
326.53650349134
326.10297722861
325.68100816102
325.27006343782
324.86960401295
324.47919800981
324.09838551733
323.7267505098
323.36387933149
323.00938365438
322.66293365002
322.32419806384
321.99287131145
321.66864616684
321.35125684823
321.04044746088
320.73598761774
320.43761585124
320.14505323396
319.95037335405
321.99047712723
321.15007012229
320.20322398188
319.28151807442
318.40192974538
317.57316773965
316.79867227732
316.07763284467
315.40608663853
314.77823429992
314.18762408003
313.62782830664
313.09282029194
312.57718055793
312.0760219322
311.58490518657
311.16230883337
310.67883495711
310.19341920562
309.70125383751
309.19593935196
308.66872943034
308.10795343655
307.49950410889
306.82929090544
306.08781827837
305.2749991667
304.40163073235
303.48523851127
302.54269899279
301.58647240155
300.62734082978
299.68322929869
298.7887481053
297.99755844275
297.36761898993
296.85885711396
296.62300920747
296.47593603051
296.36777266188
296.26976202601
296.16771181634
296.05477848163
295.92750365365
295.78330196187
295.6188189429
295.43076629853
295.21579128568
294.97077545967
294.6928897105
294.38025226814
294.03208640956
293.64741274965
293.22352532503
292.75724091586
292.24728144104
291.69792494423
291.11878826104
290.52765842545
289.94581161029
289.39234858456
288.88558935744
288.43727324119
288.05712257244
287.75365597868
287.53670147529
287.42054639296
287.43216433095
287.62478763422
288.09789994906
289.07240347618
290.9699982608
349.47409169788
354.04324307548
355.07694536709
355.72670905655
356.15394877923
356.41980695253
356.51865986655
356.47147276897
356.26864717476
355.92637747714
355.46622400659
354.89734900672
354.21461000472
353.43603727912
352.57093346134
351.63124540808
350.63234367525
349.59091970135
348.52324280174
347.4439517774
346.366062544
345.30068853275
344.25546391507
343.23589747797
342.24544939329
341.28649065838
340.36006614654
339.46624623721
338.60487103313
337.77489490472
336.9751811458
336.20510611869
335.46320400144
334.74833375241
334.05882559212
333.39360276427
332.75161801022
332.13155903107
331.53221896385
330.95244092132
330.3914414668
329.84813521745
329.32159960925
328.8109069046
328.31543097975
327.83437142305
327.36701133113
326.91264595471
326.47070243355
326.04062624648
325.62184489066
325.21382179872
324.81607310366
324.42818049861
324.04971033479
323.68024727739
323.31939372547
322.96679591583
322.62212746548
322.28505881851
321.95528062668
321.63251311871
321.31649724803
321.00701135106
320.70382672733
320.4066543314
320.11506389223
320.02776090815
321.95526268401
321.07867345188
320.1339406532
319.21761176928
318.34425106498
317.52179169417
316.75317716554
316.03725737144
315.3699286952
314.74542416778
314.15742713753
313.59969108076
313.06637709252
312.55224942923
312.05258829857
311.56311169356
311.14275066728
310.66154263254
310.17896010744
309.69034491954
309.18954590054
308.66812103639
308.1147534471
307.51563687618
306.85673141099
306.12812126223
305.32880714118
304.46858382658
303.56448807954
302.63364113912
301.68894559779
300.74122092836
299.80701832892
298.91779122167
298.12261779821
297.47646342471
296.94014777605
296.67720914793
296.50952947825
296.38592451263
296.27458858539
296.15876754479
296.02999982961
295.88463044503
295.71850091207
295.52628388837
295.30165806129
295.03770193051
294.72864695838
294.37109884733
293.96372257088
293.50627082962
293.00008178015
292.44498436266
291.84454908244
291.20930267193
290.55261476165
289.90423454838
289.30000346468
288.76733010804
288.31936385733
287.95556004443
287.66976436981
287.45268069098
287.29623726874
287.2002030669
287.17677644554
287.26178377336
287.51568717025
288.05996441874
289.13550702182
291.12651272858
346.78033850148
350.43034810359
351.45456852601
352.15124766234
352.66566079977
353.04959424983
353.30156441607
353.41697854945
353.4094698266
353.2650374192
352.99012090588
352.60852844063
352.12334795817
351.530383302
350.84250489474
350.07545761496
349.23946102235
348.34955987719
347.42088540125
346.4674798949
345.50195482383
344.5348840856
343.57556364731
342.63084541233
341.7057325624
340.80352999711
339.9264871386
339.07588822961
338.25225393085
337.45549230352
336.6853689147
335.94128700539
335.22216049086
334.52721854755
333.85582458253
333.20680207342
332.57927396138
331.97194548069
331.38402744003
330.81482053083
330.26326598127
329.72853604548
329.20963822807
328.7060720603
328.21704746117
327.74187075643
327.27983141914
326.83034825161
326.39294153382
325.96701078255
325.55204905555
325.14752798042
324.75303446166
324.36817095886
323.99249955383
323.62562670367
323.26717265224
322.91682845083
322.57427357406
322.23918574816
321.91126555831
321.59023902487
321.27589806683
320.96798522287
320.66623228911
320.37039996168
320.07962255163
320.21129708555
321.89030334916
320.99252101697
320.05189518913
319.14205323328
318.27622238433
317.46129352284
316.69956786916
315.98954104137
315.32699845235
314.70625836841
314.1211839142
313.56575156532
313.03434846929
312.52194932297
312.02402835112
311.5364809565
311.11868632747
310.64016978703
310.1609496392
309.67653729045
309.18107497154
308.66648349181
308.12187243127
307.53380640544
306.88835087346
306.17512562566
305.39208021802
304.54778019256
303.6585712526
302.74179054357
301.81082823947
300.87668919423
299.95456193997
299.07258668068
298.27498308429
297.61297810123
297.04733144476
296.75339707351
296.56136059254
296.41978593987
296.29348398574
296.16237765727
296.01645350969
295.85074091411
295.65919764179
295.43302054269
295.16154735861
294.83337553859
294.4386671385
293.97524347608
293.44314651924
292.847252005
292.2030119145
291.52171761493
290.82111829982
290.13290581393
289.50413471951
288.98290753205
288.59918650124
288.35180974123
288.21247403979
288.13915218227
288.09668681317
288.05613394715
288.00340381658
287.9433653217
287.90235226339
287.93634552974
288.12986729228
288.62813852511
289.65576220184
291.48984413131
345.22238969235
347.55940314998
348.59724244789
349.26336961628
349.79462693087
350.21997346678
350.53883785733
350.7513311555
350.84456445228
350.8336346305
350.70471874579
350.46366986378
350.11745861735
349.67929348519
349.14828051611
348.52556540867
347.8321397877
347.0787992301
346.27792338565
345.44205510616
344.58392971284
343.71401160516
342.84091565479
341.97234749157
341.11426937184
340.27108644875
339.44596004002
338.64104365275
337.85768052343
337.09661485962
336.35809000405
335.64194386577
334.94790561262
334.27553821966
333.62413597804
332.99283159519
332.38119813908
331.78847924387
331.21373689951
330.65641545388
330.11544064166
329.59023337694
329.08031442372
328.58484494166
328.10325906126
327.63475086827
327.17887471895
326.73515961667
326.30299211442
325.88190170404
325.47133192232
325.07091095046
324.68025815585
324.29891726374
323.92650722326
323.56262869337
323.20701242353
322.85932435022
322.51923635465
322.18645251974
321.86068885558
321.54172071086
321.22929499289
320.92312865355
320.62299646097
320.32869235993
320.03901920904
320.53493629439
321.80689750147
320.89132470115
319.95659163774
319.05483578204
318.19790638492
317.39170171278
316.63782572094
315.93440523331
315.27716021887
314.66054958073
314.07866822904
313.52575770634
312.99647157964
312.48601763306
311.99008539041
311.50476145588
311.08987274188
310.61446365443
310.13911345369
309.65952220647
309.17016298813
308.66336842895
308.12874653491
307.55331501189
306.92329615286
306.22785027915
305.46376448185
304.63815064115
303.76641282965
302.86603259594
301.95089533126
301.032364036
300.12439428297
299.25184026952
298.45402402181
297.77787958863
297.18324281816
296.85579498279
296.63633438353
296.47475709642
296.33264904461
296.18599246097
296.02202374252
295.83429392094
295.61452834574
295.34968305459
295.02298411512
294.61596561411
294.10554389186
293.50197036478
292.82288737055
292.09564563689
291.36255887476
290.66109574852
290.03392704462
289.54314393486
289.24989847431
289.17704994529
289.2826129347
289.48245827132
289.70771755161
289.89011884763
289.98413592666
289.97045943885
289.85826365068
289.67569292626
289.47706253895
289.34271307207
289.38608163088
289.73694143697
290.5542818155
291.96431026286
344.47093216289
345.14949509013
346.24517633767
346.86798197952
347.37965169474
347.81046894874
348.1568511475
348.41738099089
348.57752391969
348.63867836996
348.6184154984
348.48094919611
348.24200535237
347.90798699737
347.50556269933
347.01329923533
346.44279608596
345.80650081473
345.11999974047
344.39241301428
343.63392469601
342.85542310223
342.0659519701
341.2725941008
340.48170867126
339.69847829879
338.92658513153
338.16892592649
337.4275124471
336.70371429808
335.99838865548
335.31194572986
334.64449763819
333.99589274477
333.36583079034
332.75398330691
332.15988446131
331.5828796116
331.02225441194
330.47778016789
329.94872219974
329.43443151933
328.93444181435
328.44789417727
327.97431861565
327.51342234992
327.0645498023
326.62725291386
326.20095423693
325.78517434415
325.37967280081
324.98396266638
324.59763942372
324.22029209335
323.85154043192
323.49117164319
323.13881430427
322.794154908
322.45688669858
322.12672280901
321.80345995016
321.4868212671
321.17655441622
320.87244882592
320.57426793066
320.28177299692
319.99277642507
321.08189340009
321.70477630474
320.776395559
319.84819362876
318.95584379214
318.10914947727
317.31280870495