/*--------------------------------*- C++ -*----------------------------------*\
| =========                 |                                                 |
| \\      /  F ield         | OpenFOAM: The Open Source CFD Toolbox           |
|  \\    /   O peration     | Version:  2312                                  |
|   \\  /    A nd           | Website:  www.openfoam.com                      |
|    \\/     M anipulation  |                                                 |
\*---------------------------------------------------------------------------*/
FoamFile
{
    version     2.0;
    format      ascii;
    arch        "LSB;label=32;scalar=64";
    class       volScalarField;
    location    "0.00017";
    object      TpSat;
}
// * * * * * * * * * * * * * * * * * * * * * * * * * * * * * * * * * * * * * //

dimensions      [0 0 0 1 0 0 0];

internalField   nonuniform List<scalar> 
109340
(
372.99990992529
372.99864670983
372.99643061802
372.99360713183
372.99058573953
372.98756159317
372.98460686253
372.98175775168
372.97897546125
372.97618136443
372.97338201119
372.97058042267
372.96777350561
372.96495361687
372.96211027388
372.95923009469
372.95629598943
372.95328665846
372.95017518976
372.94692788424
372.94350273817
372.93984848883
372.93590162838
372.93158163452
372.92678545113
372.92137927265
372.91518701808
372.90797346207
372.89941779571
372.8890712311
372.87628504856
372.86008185609
372.83891329225
372.8101859407
372.7692515229
372.70735873356
372.99970798066
372.99803123012
372.99547466601
372.99259466899
372.98963932013
372.98670515851
372.98381288871
372.98095229617
372.97811796903
372.97529818729
372.9724851944
372.96967431698
372.96685904517
372.96403050978
372.96117711436
372.95828456005
372.95533528881
372.95230668258
372.94917015304
372.94589014136
372.94242271395
372.93871397153
372.93469694725
372.9302863184
372.92537247237
372.91981245557
372.91341754596
372.90593437797
372.89701542355
372.88617085173
372.87268561525
372.85546694061
372.8327464695
372.80147370341
372.75589553573
372.68456540208
372.99974755955
372.9977647647
372.99511085129
372.99227987365
372.98938023897
372.98646539424
372.98354769283
372.98064439635
372.97776891571
372.9749183756
372.97208412989
372.96925882296
372.96643441037
372.96360129616
372.96074788479
372.95785997895
372.95492006333
372.95190577209
372.94878866543
372.94553358931
372.94209658927
372.93842430278
372.93445028633
372.93008936393
372.92523186279
372.91973461481
372.91340883581
372.90600109093
372.89716373374
372.88640662046
372.87301385649
372.85588834758
372.83323463964
372.80188628603
372.75561951661
372.6807736874
372.99970853394
372.99740710331
372.99462121372
372.99169749312
372.98873339402
372.98575589865
372.98278138011
372.97982512159
372.9768990644
372.97400736563
372.97114627475
372.96830929395
372.96548798023
372.96267288345
372.95985429778
372.95701854707
372.95414893638
372.95122379766
372.9482153191
372.94508980942
372.94180376347
372.93830395124
372.93452295029
372.93037430845
372.92574634339
372.92049353018
372.9144241446
372.90728112035
372.89871213081
372.88822026551
372.875079135
372.85817418015
372.8356515734
372.80415404412
372.75667869068
372.6754154613
372.99949489888
372.99643822213
372.99302017935
372.98967563813
372.98640917577
372.98321817096
372.98011415148
372.9771252015
372.97427105678
372.97154654586
372.96895485023
372.96649552368
372.96416116812
372.96194296176
372.95983115712
372.95781348463
372.95587446613
372.95399393721
372.95214168368
372.95028725732
372.94835249766
372.94626079796
372.94392688971
372.9412477397
372.93809641524
372.93430833993
372.92966878462
372.92389145856
372.91658368471
372.90719221581
372.89490595431
372.87849395845
372.85586812113
372.82317706856
372.77184146098
372.67543611312
373.00336039186
373.01757888902
373.03288972911
373.04808507308
373.06273317211
373.07659671147
373.08954856959
373.10153460054
373.11254424553
373.12258646544
373.13168444057
373.13986485252
373.14715359212
373.15357460807
373.15914653321
373.1638825267
373.16778948921
373.17087166504
373.17317925111
373.17482922711
373.17581218147
373.17607604953
373.17554336458
373.1740903199
373.17159330196
373.1678332206
373.16252210026
373.15526447291
373.14550498923
373.13244659953
373.11490068917
373.09106004151
373.05779536462
373.00925930122
372.93190293348
372.77562280899
372.60914086251
372.45436016807
372.21744919788
371.87853122701
371.42751135081
370.85337247604
370.1414731133
369.2789936882
368.25512233424
367.06425856906
365.70375849187
364.19302498941
362.57271860957
360.86994672563
359.12506235638
357.37290930169
355.6424919534
353.95584463288
352.32703238766
350.76572799154
349.27715811546
347.86184346963
346.51871752872
345.24554743734
344.03861285783
342.89490491573
341.80834462796
340.77444572159
339.79652948358
338.85872513817
337.97126282541
337.11868643799
336.30780992923
335.52877216223
334.78439382191
334.06836943388
333.38243788209
332.72069017389
332.08617747763
331.47160683258
330.88259978088
330.30934685077
329.76044551191
329.22411410438
328.7100654516
328.20760313494
327.72381683565
327.25284342532
326.79527899823
326.35144487363
325.91877920672
325.49843486355
325.08915545193
324.69056453253
324.30201585043
323.92310493363
323.55334567055
323.19238469084
322.83983983829
322.49536326266
322.15860117656
321.82923295076
321.50695420359
321.19148079032
320.88254356984
320.57990616821
320.2832958827
319.97914657613
321.73843932728
321.53239619518
320.58018703172
319.64039594198
318.73847421555
317.88431680749
317.08390981785
316.33849084419
315.64531558421
314.99918062806
314.39362086437
313.82183303533
313.27724150276
312.75387495873
312.24634959235
311.74979319974
311.19844892773
310.71046609342
310.21955367364
309.72047492532
309.20635945317
308.66787095855
308.09267167764
307.46611669126
306.77410391826
306.00805935655
305.16969631067
304.27163849079
303.3321156603
302.36742919519
301.38910570325
300.40822499257
299.44602945251
298.54436933312
297.76685193298
297.17633792628
296.72152620797
296.54204811643
296.43599011613
296.35998906144
296.29114890855
296.2207726273
296.14341008998
296.05749373129
295.96215707726
295.85671990715
295.74131417047
295.61537779914
295.47886986597
295.33140930539
295.17288881169
295.00295615366
294.8212761891
294.62707570046
294.4189000674
294.19420216081
293.94977412324
293.6825744527
293.39045788523
293.07286660821
292.73122868527
292.36921549445
291.99299805683
291.61093221339
291.23451892688
290.87832936064
290.56136861995
290.30921792422
290.16681987918
290.19616166735
290.54946499966
291.5556923158
372.56585213699
372.37288840899
372.07898006831
371.67133307429
371.14420063361
370.48836927806
369.69439239096
368.75564380457
367.66743866527
366.42935117896
365.04542817364
363.53282003547
361.92175686699
360.24397589084
358.52908398052
356.80873855777
355.11003286799
353.45368073974
351.85444371295
350.32106929723
348.85811802581
347.46698530633
346.14650917616
344.89408468048
343.70675387138
342.58027715864
341.51083793414
340.49426630729
339.52733999968
338.60618893473
337.72750664861
336.88873118121
336.08630382093
335.31840860587
334.58189872743
333.87543115141
333.19622704333
332.54327460108
331.91416460618
331.30807668648
330.72299515597
330.1581926228
329.61199030495
329.08364780178
328.57197693244
328.07605742624
327.59517114969
327.12827823097
326.6749948817
326.23427638713
325.8057567789
325.38859001161
324.98243858026
324.58670570114
324.20093061586
323.82463661314
323.45741138084
323.09885681251
322.7486048197
322.40630535069
322.0716293726
321.74426028472
321.42389518819
321.11024959505
320.80305873277
320.50207266956
320.20710090253
319.93289682597
322.01091792389
321.29228231863
320.33722417792
319.40592850773
318.51552083306
317.67487590352
316.88875253229
316.15721701335
315.47674946503
314.84170863331
314.24547862026
313.6812769605
313.14268066676
312.62389114349
312.11967721238
311.62528583416
311.19753898896
310.70970155204
310.21892983726
309.7200259818
309.20613442038
308.66793329401
308.09310114508
307.46700571169
306.7755437727
306.0101170154
305.17239166326
304.27494454944
303.33599210201
302.37185128555
301.39407249655
300.41372042962
299.4519416599
298.55038817147
297.77241345142
297.18078946708
296.72411645614
296.54340416401
296.43646690053
296.35974587513
296.29022119708
296.21909523331
296.14086630974
296.05391405443
295.95741847639
295.85060895473
295.73355847818
295.60566455606
295.46685656777
295.31672947284
295.15514840226
294.98174519516
294.79615240183
294.59756382285
294.38444958605
294.15413516994
293.90335422099
293.62908891013
293.32933117444
293.00378792611
292.65426132568
292.28487429949
291.90221807919
291.51514393731
291.13556362787
290.77849206646
290.46326111875
290.21582603839
290.08149394976
290.12172008371
290.49308119281
291.52760056996
372.54633500209
372.31181356219
371.95328639992
371.46584708808
370.85180245057
370.11134907058
369.24692290287
368.25601900556
367.13800482977
365.89198126659
364.52677398484
363.05417476423
361.4906896611
359.86272833517
358.19849532717
356.52546138723
354.86894533234
353.2497465462
351.68216487043
350.17491755613
348.7333491381
347.35986908987
346.05382767359
344.81323535267
343.63540864013
342.51688028678
341.45433392639
340.44397672938
339.4819577811
338.5652411091
337.6903782206
336.85467740145
336.05531417369
335.28970305269
334.55568729777
333.85094535681
333.17379606647
332.52221797663
331.89477085621
331.2898226331
330.70608034672
330.14225377378
329.5970714471
329.0696736995
328.55874257402
328.06375506179
327.58341697608
327.11739469618
326.66454254792
326.22451306316
325.79643889821
325.37987695268
324.97417454177
324.578834685
324.19343944562
323.81750940196
323.45063778725
323.09240949498
322.74246166142
322.40044527188
322.0660366926
321.73891827043
321.41878763284
321.10536100553
320.7983666779
320.49757370094
320.20276266915
319.93215999516
322.01142209257
321.28369138951
320.32905591822
319.39817074405
318.50833581775
317.66840706401
316.88301443033
316.15216228697
315.47229520592
314.83774304271
314.24189221346
313.6779846647
313.13962619892
312.62104376547
312.11702939628
311.62284965765
311.1955704297
310.7080063538
310.21754172921
309.71902356971
309.20562417533
308.66805449906
308.09402882918
307.46894272648
306.77869070234
306.01462041664
305.17829390771
304.28219113418
303.34449855905
302.38156655626
301.40499821132
300.42582790813
299.46499347259
298.56371266292
297.78477417029
297.19073790451
296.72995455295
296.54649961543
296.43760450012
296.35928339337
296.28826283168
296.21547177618
296.13534922855
296.0461581306
295.94714129231
295.83730603952
295.71664360166
295.58442975177
295.44054797029
295.28451456887
295.11614609471
294.93502926094
294.74072951335
294.53236170194
294.30821856086
294.06536405679
293.80043093468
293.51048279589
293.19385717593
292.85088675968
292.48422466456
292.09898475517
291.7026942671
291.3052481198
290.91942643187
290.56120347289
290.25036746929
290.01377287284
289.89683316164
289.961565942
290.37231122359
291.46803963713
372.50710944784
372.17744027106
371.68018809756
371.04035176125
370.2882739319
369.43202681697
368.48687115969
367.45343354444
366.32637586352
365.10351479794
363.79161988657
362.38848997884
360.90259098817
359.35184255116
357.75986281685
356.15190979761
354.55184373339
352.98057754511
351.45323253954
349.98013996224
348.56719067973
347.21652500062
345.92965690387
344.70519769423
343.54053183818
342.43294021463
341.37942068531
340.37681511951
339.42162074148
338.51063502228
337.64095915026
336.8095132918
336.01404848237
335.2517923891
334.52078243641
333.81871627698
333.14396903057
332.49450495702
331.86904535638
331.26580504542
330.68371391514
330.12122077294
329.57747892906
329.05113520937
328.5414203788
328.04729962971
327.56799031521
327.10273753035
326.65069642693
326.21138591724
325.78397514438
325.36806820415
324.9629476048
324.56818980216
324.18329058476
323.80783518706
323.4414037442
323.0835943759
322.73404546853
322.39240457043
322.05834404772
321.7315482245
321.41172216794
321.09858528269
320.79185479917
320.49133358602
320.19679465672
319.93047133731
322.01240214637
321.27102809
320.31718940537
319.38697943572
318.49800566649
317.65911854716
316.87477946266
316.1449039687
315.46588819863
314.83202763833
314.23671493665
313.6732262217
313.13520689667
312.61692004915
312.1131903856
311.61931250866
311.19259426219
310.70541567504
310.21541651446
309.71748248241
309.20482770266
308.66821311187
308.09540790879
307.47185024441
306.78343204871
306.02142011669
305.18722100666
304.29316646516
303.35739454749
302.39630488616
301.4215826977
300.44422216718
299.48485190064
298.5840304657
297.80367930325
297.20602400883
296.73905925904
296.55141793061
296.43952005597
296.35876122844
296.2854784814
296.21016009709
296.12720243753
296.03470057818
295.93185798867
295.81746989091
295.69130973451
295.55252555443
295.40087576411
295.23576916483
295.05694137369
294.86389729006
294.65610302502
294.43255368977
294.1912215779
293.92884244857
293.64197527761
293.32790592688
292.98558619478
292.61643966094
292.22448605315
291.81637348799
291.40108796746
290.98989395882
290.59670136297
290.2384362572
289.93577494843
289.71719024228
289.62526133388
289.72903180746
290.19831289226
291.38430688454
372.40221195144
371.79698710569
370.99613148435
370.11858122981
369.21856834103
368.28948965183
367.32614241086
366.31474791965
365.23863522011
364.09347869784
362.86686807049
361.55777014056
360.16950447153
358.71479199271
357.21327193507
355.68670378669
354.15748678381
352.64623484139
351.16910820223
349.73766158912
348.35927995838
347.03833162188
345.77515112576
344.5703407432
343.42247773341
342.32909038708
341.28720583559
340.29430408779
339.34762567489
338.44389074984
337.58038452821
336.75445547723
335.96358239237
335.20553625785
334.47811611909
333.77940496536
333.10744579937
332.46071026284
331.83751186736
331.23646727813
330.65621882436
330.09554542475
329.55333368383
329.02845098717
328.52006893797
328.02713570823
327.54899275649
327.08469341694
326.63367892444
326.1951833037
325.76863098711
325.35343795503
324.94904008105
324.55497441897
324.17069668743
323.79581686049
323.42991057124
323.07261062336
322.72354201418
322.38235119197
322.04870875894
321.72230534085
321.40285268738
321.09006097547
320.78367249242
320.48348179157
320.18926396736
319.92885423158
322.01253272931
321.25435904137
320.30162911906
319.3724009525
318.48460137548
317.64708436916
316.86411603087
316.13549932664
315.45757048122
314.82459078509
314.22996541011
313.66701351411
313.12942965747
312.61152290726
312.10815955638
311.61467098567
311.18860544647
310.70193216372
310.21255281949
309.71539753867
309.20373436496
308.66839153397
308.09721230026
307.47569288904
306.78972272513
306.03046031355
305.19910905054
304.30780064794
303.37460419557
302.41598404619
301.44373627556
300.46880652431
299.51142131614
298.61127228447
297.82912617212
297.22673784391
296.75164963779
296.55838141612
296.44243027216
296.35840919552
296.28212269123
296.20346975837
296.11678338686
296.01994674448
295.91202151332
295.79158451491
295.65807299735
295.510473754
295.34831645681
295.17086957539
294.97774814807
294.76834190476
294.54198241081
294.2974803917
294.03233866704
293.74299805577
293.42607994317
293.07933796113
292.70284135987
292.29970672568
291.8758721172
291.43997458114
291.00264892646
290.57653727883
290.1769659009
289.82234807565
289.53377211172
289.34077659177
289.28267128954
289.43890982432
289.98405023384
291.28482012566
371.79369399141
370.24970752883
369.19571939288
368.32078228771
367.48263203902
366.64705173795
365.78867626684
364.89189346183
363.93373460291
362.90271407232
361.79016648519
360.59538522758
359.32027310341
357.97419916835
356.57364540477
355.13899055526
353.69087860667
352.2491904931
350.83097447689
349.44879863063
348.11144198089
346.82418377572
345.59018253654
344.40916675369
343.28096418575
342.20427098261
341.17690394706
340.19597773284
339.25942408617
338.36456524182
337.50867839764
336.68923588856
335.90408851119
335.15109717585
334.42803088465
333.73319098836
333.06473933857
332.4210936039
331.80061865425
331.20209801182
330.62408077163
330.06546708917
329.52503873053
329.00190222276
328.49501160439
328.00352623331
327.52662967609
327.06355470811
326.6136499075
326.1761544731
325.75055922084
325.33621720635
324.93266609461
324.5393549848
324.15581253311
323.78160565891
323.41632755913
323.05961473505
322.71108847771
322.37041101338
322.03725650507
321.71131754118
321.39229657719
321.0799021071
320.77391533203
320.47412959124
320.18024871013
319.92926713211
322.00933864506
321.23367370315
320.28238999609
319.35449504195
318.4682057268
317.63238751866
316.85109926436
316.1240103983
315.44738745538
314.81546307066
314.22166315137
313.65935794159
313.12229989202
312.60485309259
312.10193389529
311.60891899558
311.18359344452
310.69754588316
310.20893838555
309.71275434757
309.202326731
308.66856641978
308.09941071784
307.4804306954
306.79751427852
306.04168655391
305.2138998532
304.32603375916
303.39606514416
302.44053676947
301.47138506317
300.49950091869
299.54462718115
298.64540097481
297.86116216786
297.25301074989
296.76805002718
296.56768857484
296.446615018
296.35851495296
296.27851482984
296.19577734664
296.10451926768
296.00237112181
295.88817261113
295.76022149152
295.6175372992
295.45884425404
295.28335599254
295.09015524388
294.87869858196
294.64820478726
294.39784768203
294.12614135208
293.83004967105
293.50591478675
293.15068834483
292.76297363656
292.34466453574
291.90140032971
291.44146388552
290.97511857022
290.51541947065
290.07713146544
289.67672235121
289.33279827496
289.06621316804
288.90586003186
288.89223012032
289.11229293366
289.74732283679
291.18082162326
362.97992957443
366.58894105598
366.33214715663
365.91399666406
365.42803379907
364.85617979237
364.20461298001
363.47881519469
362.68216440314
361.81081720002
360.8543010262
359.80906698439
358.677848731
357.46646695322
356.18778432031
354.86022738686
353.50366954115
352.13748365108
350.77961165176
349.44485723385
348.14393240465
346.88447978973
345.67072033848
344.50534769394
343.38838544586
342.31892335402
341.29650729346
340.31899605119
339.38428798867
338.48971398529
337.63352863231
336.81336642105
336.02684610247
335.2719752026
334.54702481295
333.85008489929
333.17933187952
332.53334677306
331.91060217082
331.30970238626
330.72930912853
330.16837658335
329.62570181416
329.1003211808
328.59121606949
328.09762768376
327.61866920085
327.15361188571
326.70172981168
326.26237316603
325.83496839793
325.41887752409
325.01361475993
324.61864621716
324.23354692511
323.85783877026
323.49109282689
323.13293718285
322.7830198727
322.44100806704
322.10656138094
321.77936691908
321.45914263825
321.14562262527
320.83851364881
320.53757666496
320.2426340004
319.94009069532
321.86094170205
321.44435480158
320.49587099686
319.56144069233
318.66551817182
317.81852572995
317.02548570682
316.28692704718
315.59975276136
314.95854482918
314.3568529711
313.78807380119
313.24589417948
312.72458917174
312.21900457166
311.72446768699
311.1775485614
310.69224475825
310.20455707179
309.7095316476
309.20057828823
308.66870641991
308.10196561427
307.48601693186
306.8067507978
306.05503762584
305.23152985089
304.34780073956
303.42170818534
302.46989400086
301.50445189073
300.53622167137
299.58439284393
298.6863862977
297.89985634462
297.28497361466
296.79983469849
296.5861928685
296.45558165748
296.35999266359
296.27321188563
296.1831255793
296.08363912073
295.97192646745
295.84637163206
295.70474331652
295.54530702072
295.36622910571
295.16605211835
294.94347029632
294.69756464371
294.42728270991
294.13159955207
293.80825970468
293.45363169281
293.06402329529
292.63724904252
292.17429900779
291.68154346207
291.16938369717
290.65082345162
290.14157073012
289.65728315363
289.21354372705
288.82676077081
288.51488210456
288.29505075273
288.19698153779
288.26687469502
288.59750647614
289.3845479551
291.03595472966
353.86024993859
359.05437576319
359.88504545266
360.27794754522
360.44368689972
360.42091659171
360.21691863935
359.85789010358
359.36734884195
358.76156704979
358.04912014779
357.2398564294
356.33772132157
355.34546213695
354.27403457724
353.14012819545
351.96186640617
350.75771978531
349.54474996334
348.33808328568
347.1501579478
345.98953885633
344.86218010525
343.77179789021
342.72047821132
341.7090491544
340.73723655278
339.80375876715
338.90806080771
338.04844626952
337.22322146541
336.43032244741
335.66837483657
334.93574999213
334.23076149734
333.5516785891
332.89724621608
332.26613320175
331.65695417674
331.06837497625
330.49933521937
329.94881841904
329.41579127727
328.8992501305
328.39839352444
327.91243710555
327.44062169117
326.9821929149
326.53650372519
326.10297929466
325.68100921923
325.27006402189
324.86960431114
324.4791961144
324.09838462402
323.72674814334
323.3638778015
323.00938199452
322.66293204452
322.32419695867
321.99287001065
321.66864531317
321.35125625106
321.0404471953
320.73598757257
320.43761702015
320.14505554226
319.95071566602
321.99063202862
321.15007380455
320.20322561731
319.28151911615
318.40193012552
317.57316747767
316.79867148074
316.07763164093
315.4060851461
314.77823262241
314.18762227906
313.62782647391
313.09281848134
312.57717881371
312.07602028501
311.58490365808
311.16230826414
310.67883461573
310.19341900138
309.70125376066
309.19593939248
308.66872957795
308.10795367703
307.49950442477
306.82929128615
306.08781867722
305.27499957757
304.40163114101
303.4852389045
302.54269936012
301.58647272885
300.62734109788
299.68322948717
298.78874821284
297.99755850005
297.36761905342
296.85885722861
296.62300935093
296.47593618964
296.36777282467
296.26976218291
296.16771196297
296.05477861391
295.92750376294
295.78330205038
295.6188190047
295.43076632778
295.21579127902
294.97077541522
294.69288962722
294.38025214721
294.03208625179
293.64741255598
293.2235251022
292.75724067069
292.24728118561
291.69792469194
291.11878802556
290.52765822154
289.94581144688
289.3923484369
288.88558925221
288.43727317453
288.05712253174
287.75365596094
287.53670147529
287.42054642261
287.43216438905
287.62478774489
288.0979001559
289.07240385751
290.96999925683
349.47409174726
354.04324285199
355.07694608197
355.72670896469
356.15394846989
356.41980916407
356.51865971785
356.47147109521
356.26864389077
355.92637427218
355.46623155103
354.8973587334
354.21460364741
353.43603537678
352.57093338276
351.63124594901
350.63234351143
349.59091937908
348.52324140194
347.44395171543
346.36606236188
345.30068813002
344.25546414291
343.2358977706
342.24544937926
341.28649089055
340.36006618375
339.46624462554
338.60486904886
337.77489436802
336.97518092616
336.20510582907
335.46320396948
334.74833487183
334.05882625199
333.39360298733
332.75161752539
332.13155899191
331.53221762933
330.95244074075
330.39144130212
329.84813586085
329.32160029932
328.81090810804
328.31543310533
327.83437306675
327.36701335314
326.91264645598
326.4707034623
326.04062666118
325.62184513079
325.21382186836
324.8160719042
324.42817967567
324.04970856049
323.68024581747
323.31939236436
322.96679475984
322.62212716757
322.28505850242
321.95528068084
321.63251299219
321.31649679571
321.00701066249
320.70382604306
320.40665402168
320.11505943867
320.0283650076
321.95536959328
321.07867743676
320.13394238761
319.21761268743
318.34425130033
317.52179131255
316.75317626721
316.03725608041
315.36992712823
314.74542242715
314.15742527148
313.59968918647
313.06637522033
312.55224762249
312.05258658952
311.56311010258
311.14275003062
310.66154222176
310.17895983254
309.69034477169
309.1895458702
308.66812111328
308.11475361839
307.51563712817
306.85673170617
306.12812160863
305.3288075115
304.46858420612
303.56448845483
302.63364149905
301.68894592785
300.74122120834
299.80701853655
298.91779134958
298.12261787118
297.4764634901
296.94014787841
296.67720927249
296.50952961385
296.38592464864
296.2745887141
296.15876766193
296.02999993159
295.88463052614
295.71850097006
295.52628391784
295.30165805336
295.03770188206
294.72864686543
294.37109870817
293.96372238835
293.50627060661
293.00008152634
292.44498409218
291.84454881316
291.2093024363
290.55261454995
289.90423439456
289.30000337236
288.76733007339
288.31936385733
287.9555600719
287.66976440116
287.45268071688
287.29623728967
287.2002030861
287.176776477
287.26178382479
287.51568726772
288.05996463727
289.13550743755
291.12651379868
346.78033859769
350.4303488447
351.4545688797
352.15124583026
352.66566052222
353.04959476572
353.30156598921
353.41697009379
353.40946233231
353.26504139718
352.99014776612
352.60854562875
352.12335888768
351.53035927061
350.84250599915
350.07545542368
349.23946147268
348.34956145728
347.42088633352
346.46748030855
345.50195448134
344.53488311249
343.57556293138
342.63084453533
341.70573198399
340.80353011818
339.92648706868
339.07588811357
338.25225415031
337.45549285555
336.68536831094
335.94128568159
335.22215969878
334.52721845484
333.85582435484
333.20680178191
332.57927453515
331.97194628257
331.38402781028
330.81482078962
330.26326636363
329.72853683176
329.20963857162
328.70607349763
328.21704922974
327.7418728334
327.27983307563
326.8303498123
326.39294247987
325.96701130773
325.55204898095
325.14752718225
324.75303372662
324.36816979894
323.99249860509
323.62562572309
323.26717179721
322.91682841442
322.5742738679
322.23918661071
321.91126632221
321.59023924443
321.27589769401
320.96798355244
320.66622975865
320.37039775219
320.07964792216
320.2121510283
321.89036800789
320.99252418028
320.05189675529
319.14205401952
318.2762224703
317.4612930013
316.69956685307
315.98953965334
315.32699680271
314.70625656133
314.12118198055
313.56574961286
313.03434654512
312.52194746754
312.02402659439
311.53647931562
311.11868563619
310.64016931498
310.16094930095
309.67653707714
309.18107487274
308.66648349853
308.12187253362
307.53380657883
306.88835111901
306.17512591889
305.39208054409
304.54778053808
303.65857160401
302.74179088965
301.8108285652
300.87668947956
299.95456216201
299.07258682858
298.27498317353
297.6129781704
297.04733153449
296.75339718075
296.56136070742
296.41978605298
296.29348409054
296.16237775021
296.01645358584
295.8507409705
295.65919767225
295.43302054269
295.16154731255
294.83337544503
294.43866699685
293.97524328888
293.44314628292
292.84725173894
292.20301164318
291.52171736118
290.82111809109
290.13290568208
289.50413468041
288.98290757104
288.5991865816
288.35180985298
288.21247414168
288.13915224371
288.09668682115
288.05613392315
288.00340376663
287.94336526187
287.90235220734
287.93634550409
288.12986733234
288.6281386933
289.65576259543
291.48984513126
345.22238976033
347.5594028167
348.59724212839
349.26337077408
349.79462706947
350.21997264638
350.53883951427
350.75133467446
350.84456174456
350.83361208735
350.7047818023
350.46369027747
350.11746532006
349.67926663426
349.1482747318
348.52557347669
347.83214955993
347.07879726289
346.27791870805
345.44205633343
344.58393015458
343.71401121097
342.84091647772
341.97234886225
341.11427049026
340.2710862124
339.44595904813
338.64104296175
337.85768015679
337.09661398323
336.35808908215
335.64194377445
334.94790602683
334.27553854949
333.62413613194
332.99283258145
332.38119933022
331.78847970271
331.21373705751
330.65641593601
330.11544191156
329.59023309205
329.08031421778
328.58484574524
328.10326073004
327.63475241202
327.1788762385
326.73516087598
326.30299374938
325.88190234992
325.47133140191
325.07091042747
324.68025759095
324.29891673558
323.92650692059
323.56262837233
323.20701272583
322.85932491753
322.51923746444
322.18645396725
321.86069032385
321.54172167739
321.22929494248
320.92312796853
320.62299513422
320.3286908324
320.03901220347
320.53644777988
321.8069395022
320.89132703669
319.95659280642
319.05483634469
318.19790628695
317.39170103238
316.63782457126
315.93440373686
315.27715848032
314.66054770598
314.07866623891
313.52575571056
312.99646962428
312.48601575143
311.99008360763
311.50475978494
311.08987200992
310.6144631363
310.1391130672
309.65952194074
309.17016283491
308.66336837857
308.12874657504
307.5533151347
306.92329634215
306.2278505168
305.4637647569
304.63815094258
303.76641314621
302.86603291586
301.95089563985
301.03236431456
300.12439450894
299.25184042819
298.45402412127
297.77787966058
297.18324289109
296.8557950673
296.63633447464
296.4747571849
296.3326491257
296.18599252972
296.02202379479
295.83429395212
295.61452834574
295.34968302162
295.02298403852
294.61596548821
294.10554370385
293.50197012371
292.82288710339
292.09564538088
291.36255867665
290.66109563656
290.03392705453
289.54314405276
289.24989864458
289.17705010776
289.28261307087
289.48245834884
289.70771757095
289.89011881302
289.98413583749
289.97045930149
289.8582634703
289.67569278376
289.47706236268
289.34271292765
289.38608168115
289.73694157335
290.55428214819
291.96431087226
344.47093247451
345.1494957705
346.24517742796
346.86798149897
347.37965253907
347.81046827257
348.15685096213
348.41738554784
348.57754441138
348.63862477456
348.61837907286
348.48090390117
348.24190324916
347.90801390948
347.50552484938
347.01326699559
346.4427842273
345.80649446155
345.12000012663
344.39241654805
343.6339246381
342.85542195766
342.06595196272
341.27259544069
340.48171109389
339.69847943576
338.92658483072
338.16892541643
337.42751192918
336.70371322942
335.99838728402
335.31194412318
334.6444957584
333.99589073847
333.36582988894
332.75398426487
332.15988643586
331.58288159541
331.02225593542
330.4777808119
329.94872188374
329.4344302473
328.93444019481
328.44789255798
327.97431800814
327.51342226517
327.06455049089
326.62725420064
326.20095456752
325.7851737863
325.37967235384
324.98396198065
324.59763901473
324.22029265121
323.85154073201
323.49117211117
323.13881491044
322.79415619935
322.45688818158
322.1267244963
321.80346186264
321.48682298712
321.17655586934
320.87244986565
320.57426890891
320.28177374952
319.99277289352
321.08355648061
321.70479855987
320.776397681
319.84819461637
318.95584410249
318.10914916335
317.31280784488