/*--------------------------------*- C++ -*----------------------------------*\
| =========                 |                                                 |
| \\      /  F ield         | OpenFOAM: The Open Source CFD Toolbox           |
|  \\    /   O peration     | Version:  2312                                  |
|   \\  /    A nd           | Website:  www.openfoam.com                      |
|    \\/     M anipulation  |                                                 |
\*---------------------------------------------------------------------------*/
FoamFile
{
    version     2.0;
    format      ascii;
    arch        "LSB;label=32;scalar=64";
    class       volScalarField;
    location    "0.00017";
    object      Y.Liq;
}
// * * * * * * * * * * * * * * * * * * * * * * * * * * * * * * * * * * * * * //

dimensions      [0 0 0 0 0 0 0];

internalField   nonuniform List<scalar> 
109340
(
0.99999
0.99999
0.99999
0.99999
0.99998999999996
0.99998999999894
0.99998999996971
0.99998999940579
0.99998999594958
0.99998998498005
0.99998995984743
0.9999899120004
0.99998983107928
0.99998970491241
0.99998951939817
0.99998925825948
0.99998890261298
0.99998843031994
0.99998781505283
0.99998702500831
0.99998602116489
0.99998475504389
0.99998316579652
0.99998117634178
0.99997868803055
0.99997557319278
0.99997166440677
0.99996673853503
0.99996049203899
0.99995250104746
0.99994215344662
0.99992852635469
0.99991015022457
0.99988452686191
0.99984708879785
0.99978882080721
0.99999
0.99999
0.99999
0.99999
0.99998999999994
0.99998999999829
0.99998999995106
0.99998999912393
0.9999899946461
0.99998998137643
0.99998995215747
0.99998989796114
0.99998980795841
0.9999896694914
0.99998946792894
0.99998918637251
0.99998880519456
0.99998830132411
0.9999876472219
0.99998680948631
0.99998574700125
0.9999844085373
0.99998272963955
0.99998062846506
0.99997800000088
0.99997470793094
0.99997057285045
0.99996535457501
0.99995872448975
0.99995022028553
0.99993916775968
0.99992453681958
0.99990465514421
0.99987659806235
0.99983476088536
0.99976743364001
0.99999
0.99999
0.99999
0.99999
0.99998999999997
0.99998999999925
0.99998999997501
0.99998999932877
0.99998999530154
0.99998998275144
0.99998995448569
0.99998990143423
0.99998981272684
0.99998967566914
0.99998947560148
0.99998919561385
0.99998881607937
0.99998831394598
0.99998766170298
0.99998682598541
0.99998576569955
0.9999844296113
0.99998275325483
0.99998065474961
0.99997802903294
0.99997473971139
0.99997060726799
0.99996539139413
0.99995876338004
0.99995026083454
0.9999392093962
0.99992457785669
0.99990468339852
0.99987653685249
0.99983419632492
0.99976414516367
0.99999
0.99999
0.99999
0.99999
0.99998999999999
0.99998999999985
0.9999899999929
0.99998999952948
0.99998999599851
0.99998998426864
0.99998995711148
0.99998990541352
0.99998981826233
0.99998968292161
0.99998948468394
0.99998920658128
0.99998882891678
0.99998832855191
0.99998767785477
0.99998684329013
0.99998578348452
0.99998444676855
0.99998276806649
0.9999806646374
0.9999780302303
0.99997472678778
0.99997057246212
0.99996532367761
0.99995864712887
0.99995007384694
0.99993891955173
0.99992413725828
0.99990400798687
0.99987542010961
0.99983188386897
0.99975661902186
0.99999
0.99999
0.99999
0.99999
0.99999
0.99998999999999
0.99998999999923
0.99998999966017
0.99998999657286
0.99998998569554
0.99998995977914
0.99998990959412
0.99998982401233
0.99998968998543
0.99998949235557
0.99998921351543
0.99998883289627
0.99998832619809
0.99998766410109
0.9999868110076
0.99998572257207
0.99998434301133
0.99998260169075
0.999980408195
0.99997764581528
0.99997416207763
0.99996975524311
0.9999641541181
0.99995698665044
0.9999477285513
0.9999356138671
0.99991947240852
0.99989737534676
0.99986577955261
0.99981694638516
0.99972734127184
0.99999
0.99999
0.99999
0.99999
0.99999
0.99999
0.99998999999188
0.99998999919591
0.99998999380539
0.99998997670661
0.99998993787467
0.99998986454295
0.99998974120512
0.99998954944708
0.99998926757615
0.99998887001069
0.99998832637706
0.99998760038179
0.99998664881057
0.99998541525791
0.99998382766072
0.99998179500742
0.99997920061407
0.99997589372645
0.99997167821302
0.99996629665773
0.99995940758269
0.99995055147163
0.999939097959
0.99992415911369
0.9999044368413
0.99987795628653
0.99984144106304
0.99978883173126
0.99970650698923
0.99954755740505
0.99969285753718
0.99953430423038
0.99928348748014
0.99891853468711
0.99842937605579
0.99780595471571
0.99703314768939
0.99609802847126
0.99499024260375
0.99370551858339
0.99224440231358
0.9906248426919
0.98889610416028
0.98708931212366
0.98524698744518
0.98340796465891
0.98160296470932
0.97985448328664
0.97817679092154
0.97657829823947
0.97506298914475
0.97363085672208
0.97227943270677
0.97100508134155
0.96980317856496
0.96866914181184
0.96759831889956
0.96658539393928
0.96562734324351
0.96471813397318
0.96385520199288
0.96303487956176
0.96225339930138
0.9615088163352
0.96079727032467
0.96011758418736
0.95946633352753
0.95884262317095
0.95824362758949
0.95766851250309
0.95711507345667
0.95658238796315
0.95606888125973
0.95557346719321
0.95509515632765
0.95463270025362
0.9541855405048
0.95375242259774
0.953332964296
0.95292609964919
0.95253141962749
0.95214813924549
0.95177574945983
0.95141368659056
0.95106145322046
0.95071858191517
0.95038463730969
0.95005921295985
0.94974192823248
0.94943242336414
0.94913036179092
0.94883542635925
0.94854731809355
0.94826575800129
0.94799048632788
0.94772126065727
0.94745784768842
0.94719834450948
0.94608372843871
0.94447380963252
0.94339837190459
0.94238975208184
0.94143876488521
0.94055261017951
0.93973334094131
0.93897736928452
0.93827777445655
0.93762635539723
0.93701481819234
0.93643545018611
0.93588141644636
0.9353467111003
0.93482599500174
0.93431438664981
0.93374378539499
0.93323645487805
0.93272429999416
0.93220239767712
0.9316650210625
0.93110496063522
0.93051250920247
0.92987439452821
0.92917357396459
0.92839142867739
0.9275134743545
0.92653736642333
0.92547919518324
0.92437455934684
0.92327400017926
0.92223432624371
0.92131010615795
0.92055049596382
0.91999324866996
0.91964573370129
0.91944739704751
0.91940696349336
0.91940224275682
0.9194094481656
0.919414333477
0.91941446474867
0.91940625740493
0.91938745827445
0.91935715784267
0.91931476217552
0.91926017768758
0.91919357271661
0.91911527102091
0.91902566171295
0.91892522416708
0.9188144679246
0.91869389086497
0.91856383049136
0.91842414026444
0.91827350767517
0.91810927260293
0.91792811863641
0.91772659337054
0.91750192641647
0.91725252227812
0.91697824665494
0.91668124411409
0.91636559239074
0.91603805192417
0.9157084676108
0.91539214130094
0.91510745540183
0.91487295312135
0.91470119254383
0.91459157008766
0.91453319433717
0.99965075529445
0.99945065148916
0.99913650125685
0.99869482977821
0.99812299247025
0.9974110846863
0.99655004820667
0.99553370654788
0.99435865812667
0.99302638165643
0.99154282894649
0.98992860205444
0.9882158688755
0.986441623582
0.98463808099793
0.98283884333059
0.98107308003839
0.97936161816611
0.97771886535585
0.97615295578075
0.97466745562392
0.97326254494093
0.97193606817961
0.97068450785186
0.9695038067119
0.96838893305938
0.96733531356464
0.96633844957998
0.96539404268065
0.96449819732585
0.96364710197398
0.96283747744083
0.96206613915814
0.96133031142755
0.9606273882026
0.95995503317112
0.9593110979886
0.95869363362131
0.95810085349735
0.95753113844393
0.95698297900212
0.95645502869121
0.95594601428197
0.95545481126324
0.95498034394669
0.95452166305263
0.95407785062687
0.95364809858202
0.9532316255339
0.95282773945382
0.95243577256673
0.95205511865488
0.9516852055453
0.95132550237993
0.95097551928588
0.95063479641008
0.95030290603086
0.94997944768095
0.94966404656011
0.94935634799907
0.94905602000814
0.94876274969405
0.9484762427793
0.94819622290794
0.94792242794348
0.94765460453279
0.94739250745791
0.94712255740936
0.94552099559609
0.9441884524515
0.94313580800292
0.94214113924668
0.94120635605933
0.94033753059355
0.93953509401803
0.9387943665855
0.93810794530207
0.93746751965497
0.93686490597386
0.93629262041421
0.93574406663896
0.93521344191207
0.93469555948935
0.93418564024246
0.93374278357113
0.93323558583281
0.9327235713196
0.93220184343318
0.93166468580779
0.93110490425857
0.93051281384643
0.92987516878209
0.92917494884759
0.92839353736829
0.92751641418288
0.92654115590091
0.92548374671742
0.92437968241143
0.92327942450705
0.92223975843252
0.92131523197795
0.92055497019028
0.9199967200969
0.91964800921029
0.91944837215943
0.91940734384485
0.91940231996569
0.91940927731496
0.91941392450123
0.91941376457534
0.91940493589999
0.91938524662462
0.91935370149329
0.9193096268909
0.91925286383001
0.91918353356501
0.91910193262721
0.9190084427858
0.91890355286219
0.91878779200692
0.91866168543978
0.91852561081011
0.91837943203742
0.91822165292785
0.91804939086136
0.9178590983105
0.91764712935745
0.91741066461712
0.91714823176655
0.91685997463382
0.91654848543934
0.91621837213618
0.91587705609466
0.91553519366571
0.91520911110503
0.91491788528345
0.91468054572998
0.91450933668129
0.91440235515083
0.91434712079869
0.99963322220391
0.99938929137742
0.99900188110444
0.99847294500375
0.99780682288207
0.99700399181297
0.99606663796648
0.99499468610494
0.99378853650646
0.99244920393918
0.99098642338668
0.98941576944333
0.98775631636572
0.98603708653155
0.98428916346999
0.9825418224409
0.98082221120884
0.97915089470205
0.97754215490559
0.97600449663603
0.97454211253075
0.97315616106224
0.97184529362294
0.97060653772402
0.96943614551039
0.96832999572774
0.96728399146913
0.96629359720244
0.96535474698245
0.96446363975659
0.96361673043286
0.96281066538221
0.96204249084035
0.96130938200467
0.96060887648649
0.95993862095009
0.9592965633573
0.95868073883543
0.95808942712506
0.957520985217
0.95697396798458
0.95644699863317
0.9559388685891
0.95544841842007
0.95497463447508
0.9545165386909
0.95407325571215
0.95364396168422
0.95322789550339
0.95282436505532
0.95243270682763
0.95205232394212
0.95168264595706
0.95132315364075
0.95097335513151
0.95063279626071
0.95030105074544
0.94997772034453
0.94966243134961
0.94935483145306
0.94905458954147
0.94876139402098
0.94847495256506
0.94819499004654
0.94792124439274
0.94765346223907
0.94739140102807
0.94712048620483
0.94550419630564
0.94417940542657
0.94312729465506
0.9421331785629
0.94119921130787
0.94033124393179
0.93952957737577
0.93878950414513
0.93810360869352
0.93746358237083
0.93686126326186
0.93628919789554
0.93574082056094
0.93521035718371
0.93469264823069
0.93418293873657
0.93374060456083
0.93323367760762
0.93272197603342
0.93220063359748
0.93166395777529
0.93110478885569
0.93051349068907
0.92987687531005
0.9291779715499
0.92839816792029
0.92752286779945
0.92654947716613
0.92549374989981
0.9243909570061
0.9232913839624
0.92225176295372
0.92132659080675
0.92056491382546
0.92000445934692
0.919653107083
0.91945056787016
0.9194082035514
0.91940250075003
0.91940890029272
0.91941306543848
0.91941220723204
0.91940202514039
0.9193803669045
0.91934605911337
0.9192982474482
0.919236619486
0.91916118631652
0.91907217308656
0.9189699415375
0.91885499660523
0.91872791222639
0.91858927715479
0.91843956364288
0.91827862534827
0.91810454373025
0.91791393854484
0.91770273926919
0.91746687797843
0.91720345593746
0.91691131884251
0.91659129377649
0.91624703410257
0.91588438619712
0.91551227343949
0.91514333483157
0.9147959235646
0.91449070805028
0.91424766333204
0.91407823179118
0.91397760891845
0.9139296422758
0.99959467376374
0.99924788576467
0.99870853612694
0.99801538843479
0.99719666303592
0.99626938268744
0.9952459199158
0.99412987641196
0.99291666121446
0.99160466815462
0.99020075176401
0.98870633416646
0.98713154444696
0.98549662506116
0.98382768360817
0.98215058692479
0.98049162792719
0.97887205872808
0.97730658572024
0.97580508095563
0.9743728389672
0.97301162651058
0.97172108971598
0.97049921365769
0.96934282541432
0.96824827547131
0.96721175534639
0.96622959996706
0.96529784812406
0.96441282411954
0.96357117434097
0.9627697164395
0.96200554418656
0.96127599319549
0.96057860696318
0.95991116118629
0.95927158771518
0.95865801969539
0.95806871869934
0.95750211295111
0.95695674008639
0.95643127230102
0.95592448864785
0.95543526392938
0.95496258578621
0.95450549443127
0.95406312795527
0.95363466254141
0.95321935653334
0.95281650650382
0.95242547129221
0.95204564649871
0.9516764765953
0.9513174433391
0.95096806174112
0.95062788249347
0.9502964823165
0.94997346648757
0.9496584632835
0.94935112316304
0.94905111691256
0.94875813516195
0.94847188763256
0.94819210080565
0.94791851320614
0.94765087422306
0.9473889429832
0.94711663772163
0.94548040648958
0.94416601547203
0.94311497219133
0.94212173114623
0.94118894605617
0.94032221370694
0.93952165488107
0.93878251732253
0.93809737116926
0.93745791328855
0.93685601301888
0.93628426034834
0.93573613339984
0.93520589963651
0.93468843701103
0.93417902102364
0.93373729311934
0.93323076840591
0.93271954573992
0.93219878915382
0.93166284346307
0.9311046023893
0.9305145038679
0.92987944728172
0.92918253530323
0.9284051661363
0.92753263038577
0.9265620776794
0.92550891447729
0.92440807116225
0.92330956556939
0.92227004762653
0.9213439347925
0.92058013662089
0.92001634344008
0.91966097761604
0.91945400076077
0.91940956005949
0.91940280204247
0.91940834440111
0.91941182593512
0.91940982011368
0.91939759657418
0.91937292175857
0.91933434820673
0.91928073628838
0.91921151581973
0.91912650203131
0.91902578839916
0.91890968686562
0.91877871939835
0.9186335286082
0.91847481137903
0.91830320520615
0.91811844570261
0.9179179316634
0.91769749575725
0.91745224224186
0.91717747081717
0.91687025179398
0.91653006688803
0.91615899054868
0.91576250907174
0.91534856589694
0.91492855252486
0.91451840849139
0.91413923814058
0.91381412083172
0.91356415333858
0.91339910911705
0.91330955176928
0.91327333033644
0.99946717358292
0.99882231787771
0.99796091149624
0.99701816229256
0.99604359733517
0.99503920788078
0.99399775192304
0.99290693572173
0.99174998897724
0.99052258119312
0.98921385221554
0.98782350993719
0.98635590810918
0.98482545541837
0.98325392710636
0.9816650654487
0.98008193829536
0.97852624027674
0.97701424632096
0.97555716137694
0.97416166224891
0.97283096700157
0.97156566363996
0.97036464287539
0.96922563193596
0.9681456691223
0.96712141304248
0.96614942170479
0.96522644052468
0.96434892675831
0.96351370930776
0.96271783613644
0.96195851889652
0.96123322011443
0.96053957389691
0.95987544471756
0.95923882421536
0.95862790041154
0.95804097578435
0.95747651962389
0.95693309298305
0.95640939856653
0.9559042244259
0.9554164779968
0.95494514377165
0.9544892947571
0.95404806645597
0.95362065740019
0.95320632350837
0.95280437000081
0.95241416119168
0.95203509653094
0.95166662962975
0.95130824336051
0.95095946079972
0.95061983496044
0.95028894747663
0.94996640596277
0.94965184133792
0.94934490661675
0.94904527459982
0.94875263808527
0.94846670865817
0.94818721435935
0.94791389468019
0.94764650519284
0.94738481712511
0.9471105307578
0.94544970543884
0.94414840104243
0.94309890665566
0.94210688456239
0.941175642601
0.94031051282573
0.93951139115778
0.93877346033885
0.93808927548053
0.93745054527114
0.9368491801742
0.9362778262378
0.9357300184665
0.93520007843977
0.93468293138859
0.93417389034992
0.93373285532765
0.93322686004612
0.93271627663363
0.93219630229595
0.93166133006383
0.93110432551122
0.93051582551188
0.9298828459473
0.92918858860621
0.92841446710665
0.92754562521698
0.92657887373283
0.92552915711923
0.92443094976264
0.92333390979295
0.9222945722884
0.92136724434059
0.92060065425453
0.92003243294648
0.91967171182255
0.91945877176478
0.91941147305595
0.91940326142005
0.9194076471532
0.91941024383032
0.91940661598719
0.91939166445407
0.91936290090756
0.91931848642346
0.91925687349745
0.91917709524741
0.91907864973282
0.91896140122633
0.91882555397744
0.91867163387956
0.91850037756376
0.91831265720616
0.91810935935317
0.91788984735166
0.91765055470475
0.91738618037732
0.91709067986332
0.91675854902933
0.91638702795221
0.91597679553486
0.91553204724166
0.91506116194393
0.91457530294131
0.91408960482289
0.91362455406127
0.91320468503456
0.91285601764324
0.91260047610626
0.91244490180429
0.91237287402134
0.91235333440728
0.99859887882213
0.99703618462833
0.99595978003896
0.99504501186181
0.99415723809359
0.99326550742485
0.99234525120832
0.99138195560906
0.9903545231715
0.98925254569211
0.98806925873005
0.98680408882229
0.98545994335351
0.98404748997921
0.98258503531725
0.98109475841569
0.97959837484703
0.97811692370984
0.97666727619104
0.97526209023728
0.97390973050981
0.97261484994908
0.97137937810342
0.97020323389407
0.96908497755972
0.96802242334239
0.96701286927838
0.96605330910505
0.96514085531824
0.96427235464569
0.96344487131891
0.96265566578974
0.96190215749232
0.9611819232301
0.96049273121139
0.95983252068268
0.95919938817926
0.95859156006668
0.95800740977398
0.95744543258772
0.95690424749225
0.95638257635885
0.95587924507427
0.95539317657785
0.95492337596302
0.95446893537757
0.9540290020002
0.9536027926884
0.95318956612716
0.95278864172366
0.95239938425184
0.95202120478919
0.95165355998144
0.95129593968159
0.95094787189661
0.95060891294851
0.95027864944194
0.9499566913143
0.94964267282563
0.94933624892863
0.94903709422286
0.94874490314297
0.94845938881058
0.9481802801241
0.94790732113534
0.94764027612622
0.9473789116667
0.94710185278065
0.94541250479975
0.94412661022706
0.94307916615444
0.94208873477123
0.94115939579474
0.94029622594172
0.93949886054836
0.93876239520769
0.93807937026615
0.93744151509858
0.93684079177512
0.93626991486239
0.93572248907911
0.93519290225145
0.93467613645379
0.93416754955464
0.93372729315141
0.93322195010183
0.93271216044533
0.93219315968613
0.93165939918881
0.93110393367114
0.93051742325687
0.9298870291267
0.92919607797752
0.92842600600028
0.92756177898828
0.92659978994089
0.92555440915538
0.92445953746829
0.92336438515097
0.92232532451583
0.92139652919573
0.92062651974232
0.92005282915361
0.91968543754117
0.9194650401545
0.91941403610733
0.91940393562152
0.91940685733002
0.91940835258649
0.91940262020602
0.91938424615268
0.91935028438692
0.91929835112764
0.91922633392696
0.91913268238099
0.91901639801513
0.91887695878106
0.91871435345933
0.91852907308571
0.91832197790218
0.91809423320889
0.9178470124217
0.91757891303252
0.91728506697846
0.91695861195083
0.91659201365772
0.91617891310854
0.91571721215828
0.91520975179565
0.91466425173917
0.91409343610346
0.91351309395322
0.91294400042692
0.91241180145317
0.91194521415075
0.91157315201962
0.9113172323284
0.91117970183584
0.91113386931246
0.91113601350145
0.98757090322315
0.99286053022138
0.99274132428657
0.99237591714311
0.99190001580953
0.99131140336023
0.9906302302314
0.98986612001931
0.98902104835045
0.98809442953317
0.98707899875031
0.98597369985642
0.98478316858665
0.98351454388294
0.98218172156028
0.98080428528953
0.97940359100359
0.97800003702017
0.97661282121462
0.9752562586103
0.97394090988847
0.97267377370477
0.97145877605608
0.97029748322133
0.9691898072858
0.96813451502447
0.96712968862118
0.96617298686205
0.96526190425291
0.96439366829168
0.96356562487506
0.9627752309923
0.96202007119728
0.961297878156
0.96060650224694
0.95994395630724
0.9593084011874
0.95869811071564
0.95811148985774
0.95754705229735
0.95700343772338
0.95647938037413
0.95597372350379
0.95548539277796
0.95501339792697
0.95455682844427
0.95411483655099
0.95368663819901
0.95327149492433
0.95286872337654
0.95247768481671
0.95209779020039
0.95172849186978
0.95136927967703
0.95101967776176
0.95067924012203
0.95034755159365
0.95002422012665
0.94970887784286
0.94940117702113
0.94910078999007
0.94880740884283
0.94852074530138
0.94824053111079
0.94796651131666
0.94769844257239
0.94743610642253
0.94717597760121
0.94586476450991
0.94437599367138
0.94331138669302
0.94230902610164
0.94136595462818
0.94048840076224
0.93967703910112
0.9389277855559
0.93823360149011
0.93758631618341
0.93697782571186
0.93640070712377
0.93584843015554
0.93531528236
0.93479618640898
0.93428648301195
0.93372060610425
0.93321603381814
0.93270718648582
0.93218934452721
0.93165702786977
0.93110339709881
0.93051925891008
0.92989194788682
0.92920494197327
0.92843970887191
0.9275810089873
0.92662474338737
0.92558459719471
0.92449377654723
0.92340095953476
0.92236229663686
0.92143181096849
0.92065781943297
0.92007766683953
0.91970230036788
0.91947734740132
0.91941917513008
0.91940541271329
0.91940561374674
0.91940501912676
0.91939533486092
0.91937062493896
0.91932690456331
0.91926065658779
0.91916856297924
0.91904779554886
0.91889617942628
0.91871221054875
0.91849525127805
0.91824561047631
0.91796440880808
0.91765356325068
0.91731452050242
0.91694406329397
0.91653451222637
0.91607585146449
0.91555778772727
0.91497304721478
0.9143221412908
0.91361384605084
0.91286457134437
0.91209651749745
0.91133555625952
0.91061382993655
0.90996558794422
0.90942606861898
0.90902728892664
0.90878682817427
0.90869630889992
0.90870704684495
0.90874941786626
0.97725388265931
0.98477229636564
0.98575856158698
0.98627719488933
0.98651695647601
0.98653689751458
0.98635690451343
0.98599505889323
0.98549325409362
0.98486715518301
0.98412477350794
0.98327831302166
0.98233553173779
0.98130319431236
0.9801939755416
0.97902533078616
0.97781676176838
0.97658729502755
0.97535402157333
0.97413335247865
0.97293738693587
0.97177448615171
0.97065015500119
0.9695676653302
0.96852849314538
0.96753291271001
0.96658024705464
0.96566932076401
0.96479850997978
0.96396580744991
0.96316925915041
0.96240690525443
0.96167679075963
0.96097703434101
0.96030582643561
0.95966145785331
0.95904231928547
0.95844691253364
0.95787381138325
0.95732170349159
0.95678936308085
0.95627565291714
0.9557795161236
0.95529997578214
0.95483611897744
0.95438709553019
0.95395211558248
0.95353044148876
0.95312138557116
0.9527243011146
0.95233859009759
0.95196369452902
0.9515990969345
0.95124431396941
0.95089889200298
0.95056240671656
0.9502344579885
0.949914670617
0.94960269021245
0.94929818229603
0.94900083078337
0.94871033739109
0.94842642190175
0.94814882371777
0.94787729737832
0.94761160813213
0.94735153758311
0.94705772148967
0.9452669936613
0.94403602486483
0.94299787028808
0.94201515848996
0.94109394684366
0.94023876559426
0.93944846833332
0.93871781045598
0.93803930837516
0.93740482418917
0.93680655111933
0.93623748653025
0.93569151904366
0.93516330144322
0.93464803883188
0.93414126266985
0.93370383911872
0.93320114746344
0.93269460808454
0.93217961349957
0.93165085260314
0.93110174600199
0.93052346035394
0.92990375851642
0.92922650093061
0.92847325450622
0.92762830425007
0.92668636236776
0.92565942215996
0.92457894317261
0.92349224744801
0.92245486865891
0.92152049193018
0.92073705295125
0.9201413600908
0.91974667726655
0.91950077816389
0.91942978934907
0.91940892898524
0.91940445696609
0.91939972481906
0.9193832680366
0.91934746455183
0.91928615069879
0.91919327967581
0.91906266105803
0.91888829103542
0.91866460833428
0.91838703327836
0.91805259173517
0.91766052377214
0.9172123732322
0.91671182496462
0.91615999181506
0.9155495249778
0.91486610075382
0.91409354671248
0.91321835179314
0.91223696468767
0.91116284950614
0.91002477234611
0.90886260880788
0.90772125292421
0.9066489496184
0.90569325495579
0.90489906258217
0.9043050760187
0.90393827031587
0.90380061385795
0.90385347118683
0.90399325372394
0.90411720917525
0.97196963012196
0.97952815584929
0.98071040905244
0.9814591806792
0.98196681332282
0.98229853765445
0.98244253710216
0.98241785284011
0.98223133844086
0.98188341673169
0.9814162184646
0.98083377107996
0.98013129391849
0.97932788524477
0.97843793794618
0.9774747354915
0.97645536385947
0.97539736737852
0.97431734528958
0.97323002467906
0.97214892052701
0.97108483019269
0.97004530826424
0.96903556402203
0.96805887961895
0.96711696639506
0.96621059310619
0.96533960627568
0.96450324952921
0.96370044536627
0.9629299267544
0.962190281467
0.96148007849645
0.96079783416794
0.96014211613135
0.95951149368278
0.95890458624599
0.9583200829759
0.95775673780962
0.9572133735078
0.95668888762785
0.95618225307667
0.9556925080502
0.95521874806834
0.95476013211281
0.95431587254623
0.95388522785944
0.95346750736342
0.95306206547885
0.95266829994822
0.95228564389285
0.95191356669281
0.9515515741098
0.95119920458746
0.95085602534094
0.95052162688945
0.95019562307788
0.94987764930541
0.94956736162533
0.94926443680715
0.94896856980751
0.94867947290531
0.94839687503175
0.9481205199504
0.94785016799146
0.94758559920096
0.94732662546736
0.94699952929254
0.9451460244461
0.94395541039981
0.94292551746667
0.94195068266837
0.94103719629334
0.94018912807391
0.93940493137127
0.93867917106362
0.93800439701695
0.93737263779755
0.93677631909914
0.93620869536876
0.93566390317523
0.93513681847287
0.93462282991591
0.93411760893064
0.93368247300477
0.93318208819563
0.93267838655635
0.9321669033503
0.93164253921905
0.93109903583521
0.9305280039089
0.92991773705578
0.92925258625108
0.92851428262885
0.92768658381948
0.92676277957312
0.92575276809619
0.9246857863951
0.92360736884807
0.92257218412255
0.92163354237393
0.92083903404048
0.92022491646954
0.91980680812004
0.91953436979148
0.91944633607994
0.91941539997467
0.91940456692415
0.91939429258043
0.91936964074871
0.9193200510711
0.91923593227338
0.91910699839842
0.91892185490601
0.9186681783242
0.91833314376529
0.91790480112542
0.91737403028287
0.91673671235425
0.9159948826528
0.91515597143526
0.91422168786706
0.91317840419987
0.91200226690844
0.91067266185425
0.90918339463223
0.90755359292874
0.90583387236619
0.90409539860071
0.90241360116143
0.90086070428538
0.89950509225586
0.89840045909
0.89758559934162
0.89708313515845
0.89689486330349
0.89698936395344
0.89726437962163
0.89757313774027
0.8977548466081
0.96773707699259
0.97573190736834
0.9769754457613
0.97775552951056
0.97833948610702
0.97877229404896
0.97908053321561
0.9792311585941
0.97923705187024
0.97911741183528
0.97884007188552
0.97845230262957
0.97796806122051
0.97736740732096
0.9766666847026
0.9758852267918
0.97503746558943
0.97413812011891
0.97320323535426
0.97224738159407
0.97128304736526
0.9703207545587
0.9693698730495
0.96843696439759
0.96752686408584
0.96664278269661
0.96578657012923
0.96495916296321
0.96416086240113
0.96339144129138
0.96265024216253
0.96193640466138
0.9612489639661
0.96058684470523
0.95994895573874
0.9593341852851
0.9587414105363
0.95816954528461
0.95761754025363
0.9570843809997
0.95656911408671
0.95607082327329
0.95558864945238
0.95512177140938
0.95466942366088
0.95423088004792
0.95380545453265
0.95339250365597
0.95299142662205
0.95260166615396
0.95222269422363
0.95185401277522
0.95149515453012
0.95114568370027
0.95080519126263
0.95047328782244
0.95014960309683
0.94983378674355
0.94952550917787
0.94922446033146
0.94893034846228
0.94864289848694
0.94836184991448
0.94808695825281
0.94781799320757
0.94755473585951
0.94729697262631
0.94690820963689
0.94501038420626
0.94386020011088
0.94283977106201
0.94187450163539
0.94097049811956
0.94013094593291
0.93935385988229
0.93863368053911
0.93796306842011
0.93733429893134
0.93674010423149
0.93617405226005
0.93563056821144
0.93510477827925
0.93459227178409
0.93408887049612
0.93365633448323
0.93315866053373
0.93265829008379
0.9321509359469
0.93163175131865
0.93109485408583
0.93053237526917
0.9299332342483
0.92928237698243
0.92856178852367
0.92775469661907
0.92685279264728
0.92586351593014
0.92481341007253
0.92374574722326
0.92271403612359
0.9217711676373
0.92096441425076
0.92032983614385
0.91988495727943
0.91958094707394
0.91947124101829
0.91942673265532
0.91940751312145
0.91939035868588
0.91935647313786
0.91929105350807
0.91917922130128
0.91900366578777
0.91874382041075
0.91837521812104
0.91787041012999
0.91720105587446
0.91634367760223
0.91528553581057
0.91402974960414
0.91259463908655
0.91099170018205
0.90920548342903
0.90720881608047
0.90499480272043
0.90259854491722
0.90010744147335
0.89764127401027
0.89531245906786
0.89321853389513
0.89143688539828
0.89002766479542
0.88902008876685
0.888416660727
0.88820159901432
0.88833201058178
0.88872353275944
0.88922757255392
0.88964894693161
0.88983795380522
0.96379201886588
0.97271228644186
0.97403159111343
0.97480632549026
0.97539638023508
0.97586506230731
0.97622686628406
0.97647559242599
0.97659555146466
0.97659865593739
0.97649264290544
0.97624191538196
0.9758958400256
0.97547059496493
0.97493666989566
0.97430937643766
0.97361149938101
0.97285552795849
0.97205326269972
0.97121890985808
0.97036550327131
0.96950353960351
0.96864127574755
0.96778671221616
0.96694539793628
0.96612145772991
0.9653178297066
0.96453651542178
0.96377871809914
0.96304495377186
0.96233525376295
0.961649335496
0.96098669848534
0.96034666105845
0.95972847938952
0.95913134263137
0.95855438806776
0.95799673897084
0.95745752524934
0.9569358937037
0.95643104277315
0.95594219182791
0.95546858334052
0.95500950495281
0.95456426752251
0.95413222997343
0.95371277232726
0.95330530330828
0.95290926963781
0.95252415608311
0.9521494782547
0.95178476846974
0.95142958594213
0.95108351726768
0.95074617707475
0.95041720122018
0.95009623734856
0.94978295146678
0.94947703031917
0.94917818052854
0.94888612553843
0.94860060330788
0.94832136544041
0.94804817389288
0.94778079885386
0.94751902323548
0.94726261700222
0.94675709449526
0.94486243181546
0.94374968087152
0.94274077579072
0.94178689732929
0.94089399971959
0.94006426629946
0.93929520678089
0.93858119349778
0.93791509189417
0.93728951561665
0.93669758271217
0.93613322696025
0.93559119447286
0.93506687844019
0.93455607637175
0.93405476345268
0.93362514417678
0.93313057660499
0.93263400350284
0.93213135798808
0.9316180834963
0.93108872161047
0.93053598618946
0.92994950652942
0.9293149307138
0.92861460599145
0.92783127819111
0.92695494131176
0.92599026651404
0.92496064736037
0.92390659254903
0.92288006700512
0.92193349137157
0.92111391081446
0.92045756534475
0.91998340153079
0.91964358835643
0.91950753123322
0.91944555318733
0.91941556791057
0.91939033184577
0.91934691341279
0.91926508705565
0.9191224274603
0.91889034638701
0.91853234556297
0.9180033464831
0.91724850634363
0.91620625812112
0.91482453629843
0.91307030591292
0.91095174299618