/*--------------------------------*- C++ -*----------------------------------*\
| =========                 |                                                 |
| \\      /  F ield         | OpenFOAM: The Open Source CFD Toolbox           |
|  \\    /   O peration     | Version:  2312                                  |
|   \\  /    A nd           | Website:  www.openfoam.com                      |
|    \\/     M anipulation  |                                                 |
\*---------------------------------------------------------------------------*/
FoamFile
{
    version     2.0;
    format      ascii;
    arch        "LSB;label=32;scalar=64";
    class       volScalarField;
    location    "0.00017";
    object      Ybar.Liq;
}
// * * * * * * * * * * * * * * * * * * * * * * * * * * * * * * * * * * * * * //

dimensions      [0 0 0 0 0 0 0];

internalField   nonuniform List<scalar> 
109340
(
0.9990918842927
0.99908824294345
0.99908127742423
0.99907277969469
0.99906330378419
0.9990533256488
0.99904302808949
0.99903248060177
0.99902168075409
0.99901014778071
0.99899704958802
0.99898146630945
0.99896227597264
0.99893812058947
0.99890738374376
0.99886815438233
0.99881816094113
0.99875468467431
0.99867443289036
0.99857336842431
0.99844646744466
0.99828742040959
0.99808822147369
0.99783861312925
0.99752529639106
0.9971308199274
0.9966319386835
0.99599712327624
0.99518261463284
0.99412587808679
0.9927341584872
0.99086317840038
0.98827482181353
0.98454816616997
0.97888246300523
0.96963650432928
0.9990924276406
0.99908775478882
0.99907993202028
0.99907084580852
0.99906107462945
0.99905103813961
0.99904085707928
0.99903048669648
0.99901963311407
0.99900778466508
0.99899418138318
0.99897786028648
0.99895763873703
0.99893209385556
0.99889953718656
0.99885796828353
0.99880501690508
0.99873783641991
0.99865296775875
0.99854615367514
0.99841208525266
0.99824407660575
0.99803362382622
0.99776980218079
0.99743840812758
0.99702073888722
0.99649178224421
0.99581743871353
0.9949500720797
0.99382103284733
0.99232735525704
0.99030642087297
0.98748370861108
0.98335787878354
0.97691715112945
0.96596988325159
0.99909445171194
0.99908905423759
0.99908045196928
0.99907115418489
0.99906146791858
0.99905157762291
0.9990414557514
0.99903106852847
0.99902020515755
0.99900836563314
0.99899480004637
0.99897854126764
0.99895840142493
0.99893295421445
0.99890051003919
0.99885907231636
0.99880627049401
0.99873926122012
0.99865458806631
0.99854799795427
0.99841418289791
0.99824645754867
0.9980363184388
0.99777283830845
0.99744181057803
0.99702452577895
0.99649596240045
0.99582201138348
0.99495503128211
0.99382636054445
0.99233297706546
0.99031187586687
0.98748559809094
0.98333656991373
0.9767721158841
0.96514938530976
0.99909726190087
0.99909077405944
0.99908175312881
0.99907220579981
0.99906234250401
0.99905225395634
0.99904196912529
0.99903147646403
0.9990205601523
0.99900871825811
0.99899520109254
0.99897903627318
0.99895902877423
0.99893374608422
0.99890149110068
0.99886025877649
0.99880767053836
0.99874087322426
0.99865639430714
0.99854996303368
0.99841623307826
0.99824847020769
0.99803809985718
0.99777409031112
0.99744209268052
0.99702318959568
0.99649206539516
0.99581419080791
0.99494131854534
0.99380388384474
0.99229743346242
0.99025646926093
0.98739637770851
0.9831725399926
0.97636092456371
0.96347735434456
0.99910167662447
0.99909327720019
0.99908296067481
0.9990727718895
0.99906264542809
0.99905246090334
0.99904214656647
0.99903167362759
0.99902081435191
0.99900906263349
0.99899567346276
0.99897966686244
0.99895982746424
0.99893469149842
0.99890251525033
0.9988612261095
0.99880835264406
0.99874091577282
0.9986552236836
0.99854678936183
0.99840989061634
0.99823730237583
0.99801977132209
0.99774530896038
0.9973982562306
0.99695785223192
0.99639620186578
0.99567513235605
0.9947411829641
0.99351716604029
0.99188696225913
0.98966731215167
0.98653980025183
0.98188329939932
0.97421073551099
0.95829979989373
0.99910984568677
0.99909455090808
0.99908314741793
0.99907270043287
0.99906251612013
0.99905230947935
0.99904197947856
0.99903143047966
0.99902030263829
0.99900788106796
0.99899313252099
0.9989746974451
0.99895087801936
0.99891960507753
0.99887838205422
0.99882420101174
0.99875342355468
0.99866165169944
0.99854361140588
0.9983919955347
0.99819776549073
0.99794929963722
0.99763152006425
0.99722472458037
0.99670296773649
0.99603173815451
0.99516457985162
0.99403795193073
0.9925630604154
0.99061211351383
0.98799309792249
0.98440724422307
0.97933199789253
0.97174847644081
0.95914996153305
0.93101364312316
0.95371955956381
0.92702656493426
0.88604133769735
0.83029903014475
0.76263700909379
0.68543374747274
0.60192950949963
0.51602757978687
0.43174544355408
0.35282977459831
0.28107879730382
0.22147401013541
0.17261764393987
0.13365316069189
0.103674897906
0.080731632345887
0.063349615136608
0.050172389075564
0.040123417037511
0.03245308636805
0.026557708117739
0.021957917530758
0.018334624999635
0.01545962963632
0.013155698254436
0.011300420563124
0.0097631892400005
0.008486861976686
0.0074621000648731
0.0065546265595756
0.00583669693576
0.0051864971234358
0.0046581000716914
0.0041831185992576
0.0037850401376709
0.0034285432704755
0.0031249101075345
0.0028500152408309
0.0026156988647321
0.0023988588290301
0.0022158330904999
0.0020419381906802
0.0018966197528813
0.00175611949521
0.0016383489526021
0.0015246091223487
0.001426947670969
0.0013351993783796
0.0012523224538171
0.0011770947037298
0.0011069630962345
0.0010432448423216
0.0009845142007967
0.00093049345287452
0.00088057620139993
0.00083440664359825
0.00079158908224416
0.00075184491215677
0.00071489470094798
0.00068049755895979
0.00064842120774771
0.00061846271054295
0.00059043995669169
0.00056419205700998
0.00053957099767412
0.0005164377224857
0.00049467313640352
0.00047440594608856
0.00085083312714006
0.0029932857480502
0.0032337211169026
0.0031884018274016
0.0031366754773379
0.0030896550391391
0.0030476542646848
0.0030104335262695
0.0029778030275377
0.0029495363072295
0.0029252161846031
0.0029044663979006
0.0028867530541858
0.0028716673492012
0.0028588589270043
0.0028480201646778
0.0028376755317777
0.0028297767862624
0.002822732218111
0.0028161703388443
0.0028098008088465
0.002803324538197
0.0027963561605843
0.0027883569282902
0.0027785550441036
0.0027660386630562
0.0027500442285843
0.0027302844175085
0.0027072501516374
0.0026822445495049
0.0026571103478217
0.0026336396061473
0.0026135444147424
0.0025980820468714
0.002587457350238
0.0025810295549746
0.0025760895058762
0.0025741970056384
0.0025723784078136
0.0025702122543857
0.0025675432606723
0.0025644648573803
0.0025610541043295
0.0025573542704671
0.0025536829295287
0.0025484540677051
0.002543382539494
0.0025374289691548
0.0025313854623644
0.002524778335851
0.0025180191127577
0.0025109316482998
0.0025036274947617
0.0024960512573853
0.0024884175755794
0.0024804877001151
0.0024722630869051
0.0024637088827262
0.0024548365781571
0.0024455507798656
0.0024358009085086
0.0024255480639447
0.0024147783927849
0.0024036525579265
0.0023923085280503
0.0023809805368008
0.0023699439175682
0.002359585394123
0.0023499689451463
0.0023409971869354
0.0023308865210038
0.0023169053259654
0.94598543927235
0.91181657081098
0.86113773771891
0.79634451776967
0.72061140291569
0.63823881576773
0.55277861577099
0.46835586163121
0.38857223855517
0.31607200699544
0.25256016496432
0.19879304481568
0.15589117820012
0.12174135077302
0.095036411032417
0.074522099732051
0.058820163261782
0.046829601641301
0.037660258144795
0.030605394849552
0.025135166268811
0.020859025062261
0.017481301442351
0.014785012740326
0.012613854663693
0.010849153071468
0.009401207064892
0.0082020309766332
0.0072029168414652
0.0063623366101652
0.0056501060369294
0.0050448496046701
0.0045239741641906
0.0040760706086117
0.0036859521530718
0.0033471279068475
0.0030490059867473
0.0027877488487081
0.0025558895312779
0.0023510161408829
0.0021678914962496
0.0020048485024634
0.0018581601589767
0.0017264862205084
0.0016075101985085
0.0014998169706219
0.0014021702481093
0.0013131363535136
0.0012321623127344
0.0011579532002855
0.0010900657075719
0.0010275810966295
0.00097012699158429
0.00091715042684919
0.00086821701246988
0.00082292545874551
0.00078092942165807
0.00074192987971269
0.00070565442001168
0.00067186449412368
0.00064034267249296
0.00061089281986596
0.00058333492401869
0.00055750882915565
0.00053327459847235
0.00051051200735014
0.00048912852372357
0.00047242690675185
0.0014643781041067
0.003144503903043
0.0032247965890947
0.0031738682314944
0.003123376067877
0.0030778466587389
0.0030372741157546
0.0030014091795809
0.0029700292166279
0.0029428772604358
0.0029195024817177
0.002899548086764
0.0028824884533862
0.0028679599322873
0.0028556189322776
0.0028451535413573
0.0028371377854444
0.0028290597722316
0.0028219490679296
0.00281531530054
0.0028088791620557
0.0028023388513985
0.0027953085051932
0.0027872484390492
0.0027773855547408
0.0027648086970629
0.0027487555491546
0.0027289392888892
0.002705860585546
0.0026808374117686
0.0026557314450589
0.0026323447273322
0.0026123926201641
0.0025971137877699
0.0025866614459199
0.0025804387235118
0.0025756840977518
0.0025739084222715
0.0025721701921112
0.0025700716203578
0.0025674477619017
0.0025643977987712
0.0025609648962484
0.0025571931554517
0.0025534385122608
0.0025482038231055
0.0025430598403568
0.0025370679106721
0.0025309302409035
0.0025242386947303
0.0025173639081869
0.0025101535200609
0.0025027104351031
0.0024949949156292
0.0024871926766586
0.0024790818132833
0.0024706568337359
0.0024618751883503
0.0024527430218387
0.0024431540365322
0.0024330661134956
0.0024224508098158
0.0024113099343984
0.0023998057629587
0.0023881006425294
0.0023764340749518
0.0023651119663729
0.0023545362028565
0.0023448145858617
0.0023358692497766
0.0023257641983057
0.0023116542710722
0.94177306155449
0.89869772448562
0.83694217102889
0.76107843591409
0.67651464757956
0.58938235023247
0.5043312858577
0.42420425947212
0.35120118838331
0.28579739346225
0.23083463379778
0.18415653436461
0.14581515199323
0.11504939438811
0.090688652806588
0.07165879209448
0.056932318660719
0.045591654406812
0.036838195298384
0.030040298643204
0.024738333167633
0.020578297776845
0.017277931814032
0.014635311817686
0.012503168934172
0.010765060645174
0.0093359349656397
0.008152767024522
0.0071635210058605
0.0063316121341316
0.0056256026005441
0.0050242001824602
0.0045078449710579
0.0040619947147274
0.0036751090018612
0.0033373318318635
0.0030415117580206
0.0027808949374327
0.0025505685452418
0.0023461386879676
0.0021640223141427
0.002001310289573
0.0018551768625075
0.0017239048223194
0.0016051604058495
0.0014979152808423
0.0014003171212923
0.0013117068667664
0.0012307112785574
0.0011567408751142
0.001088906806904
0.0010266220082522
0.000969276685182
0.00091635868025588
0.00086749045384595
0.00082225854388768
0.00078032882256093
0.00074138411148359
0.0007051566687192
0.00067140724119701
0.00063992237605126
0.00061050556894379
0.00058297695022536
0.00055717608371221
0.00053296415968164
0.00051022690030453
0.00048886142180637
0.00047242257691365
0.0014881073400638
0.0031487899678778
0.0032251155397583
0.0031740441982658
0.0031233923845942
0.0030777523877695
0.0030371487967728
0.003001324005473
0.0029700000312646
0.0029428858136591
0.0029195298001392
0.0028995776268349
0.0028825176692125
0.0028679869307672
0.002855647110546
0.0028451721416284
0.0028371265465298
0.002829083681197
0.0028219577933669
0.0028153341349978
0.002808911542921
0.0028023864882084
0.0027953724215593
0.0027873285234443
0.0027774841339975
0.0027649372930704
0.0027489128762516
0.0027291212096051
0.0027060573331906
0.0026810321747625
0.0026559096439819
0.0026324894567117
0.0026125120602602
0.0025970776729781
0.0025865117021348
0.0025802769386367
0.0025754364750682
0.0025736485583451
0.0025719270973853
0.0025698436316459
0.0025672373229867
0.0025641985906392
0.0025607613632069
0.0025568675200715
0.0025529974062468
0.002547752133434
0.0025424491650884
0.0025363447238765
0.0025299952176244
0.0025230929320607
0.0025159441686065
0.0025084428734358
0.0025006799938402
0.0024926327822465
0.0024844269104417
0.0024758937093034
0.0024670129942814
0.002457709359947
0.0024479883495281
0.0024377180261887
0.0024268688994895
0.002415434730967
0.0024034541549988
0.0023911042399031
0.0023786003841591
0.0023662244620039
0.0023543060763383
0.0023433003562123
0.0023333555394703
0.0023243094071136
0.0023142364372255
0.0022998918382808
0.93235733613599
0.86896105976111
0.78454676693855
0.68940531955118
0.59724614345774
0.50975669003146
0.43154563947971
0.36227712710074
0.3013175326876
0.24794042690022
0.20381161025418
0.16548643111325
0.1331636042264
0.10659202666747
0.085043840308693
0.067943500173163
0.054482445055974
0.043940148919496
0.035709188249017
0.029275078830581
0.024209945184978
0.020192136574336
0.016998161259724
0.014431949262939
0.012349079806711
0.010647209242819
0.0092462673905471
0.0080824203848802
0.0071080452213182
0.0062871238286514
0.0055906465007987
0.0049950541180005
0.004484227717879
0.0040423013750181
0.0036588595332934
0.0033237220805047
0.0030301980180841
0.0027712214160591
0.0025425398481157
0.0023392000951818
0.0021582310643122
0.0019961486183836
0.0018509236641752
0.0017200393367104
0.0016019320792347
0.001494954791375
0.0013978131644455
0.0013094373704335
0.0012287021835407
0.0011549600702017
0.00108728732207
0.0010251975407061
0.00096799066011815
0.00091522812899707
0.00086645988923807
0.00082132155864538
0.00077947353652208
0.00074060351295775
0.00070444704897702
0.00067076111866054
0.00063933059787685
0.00060995923587123
0.00058247121172683
0.00055670909514022
0.00053253632847487
0.0005098391137104
0.00048849155220708
0.00047249939998489
0.0015235021314167
0.0031540781562704
0.003225391875207
0.0031741730048485
0.0031233554232888
0.0030776064021649
0.0030369825716149
0.0030012092145531
0.0029699585721141
0.0029428930586555
0.0029195587698599
0.0028996107654825
0.0028825518775232
0.0028680206932813
0.0028556853234176
0.0028452111337255
0.0028371679880487
0.0028291410734032
0.0028220185589936
0.0028154087237566
0.0028090050809547
0.0028025014533579
0.002795508946166
0.0027874863860504
0.0027776679185467
0.0027651608106517
0.0027491834866029
0.0027294396768944
0.0027064125597538
0.0026813994919202
0.0026562624798625
0.0026327972196239
0.0026127474408652
0.0025971816466587
0.0025864763119438
0.0025801101076577
0.0025751470638347
0.0025733287077316
0.0025716001116105
0.0025695129852159
0.0025669050696333
0.0025638479228513
0.0025603629533959
0.0025563759708011
0.0025523551223511
0.0025469866563557
0.0025414918116061
0.0025351323403485
0.0025284763638791
0.0025212050793964
0.0025136308770815
0.0025056501333959
0.0024973610460556
0.0024887806001007
0.0024799496016238
0.0024707474143649
0.0024611137752594
0.0024509616136516
0.0024402746824242
0.0024288954078646
0.0024168251587147
0.0024040784615365
0.0023907716357117
0.0023771072867328
0.00236337854852
0.0023499119351143
0.002337110205847
0.0023255280102471
0.0023153010200881
0.0023061952050513
0.0022961881377483
0.0022814874573459
0.90082056117992
0.78444501011612
0.66085692857569
0.55435995511743
0.47002903234988
0.39992424632257
0.34166212164509
0.29147308428917
0.24778432795895
0.20946978780742
0.1751967681121
0.14502907938121
0.11896651032194
0.096898625587022
0.078574731580076
0.063588328461572
0.051541832799238
0.0419555591363
0.034350176337628
0.028320484364596
0.023535088750838
0.019721971874433
0.016648940297471
0.014169713845923
0.012154185276456
0.010500613872428
0.0091313634401451
0.0079924137230653
0.0070375625822173
0.0062307071716524
0.0055450596182178
0.0049584270466052
0.0044537036870224
0.0040172384371389
0.0036378429184348
0.0033064065758828
0.003015353878256
0.0027589457841118
0.0025319775936712
0.0023303051851188
0.0021505056666275
0.0019895941162512
0.0018451971984544
0.001715054999663
0.0015976042404828
0.0014911203024713
0.0013944906489994
0.0013064249739503
0.0012260901586378
0.0011525856336565
0.0010851911717878
0.0010232873509925
0.00096627807411344
0.00091371253005404
0.00086509767226455
0.00082008833956549
0.00077834256796043
0.00073957347225592
0.00070350943026672
0.00066990528762998
0.000638545111846
0.00060923518394939
0.00058180378332041
0.00055609592766944
0.00053197698275002
0.00050932645145923
0.00048800493764188
0.00047253013373096
0.0015703598099303
0.0031603778342661
0.0032254862729707
0.0031741737991383
0.0031232409695154
0.0030774122700789
0.0030367867907713
0.0030010738802172
0.0029699068683813
0.0029428947839842
0.0029195842289505
0.0028996426503202
0.0028825863703884
0.0028680573623834
0.0028557285578525
0.002845260560363
0.0028372312830357
0.0028292159887459
0.0028221037179687
0.0028155108387062
0.0028091304596667
0.0028026546415226
0.0027956911421584
0.0027876993407268
0.0027779190333282
0.0027654640813751
0.0027495515418573
0.0027298762298327
0.0027069029689732
0.0026819155338313
0.0026567700883759
0.0026332479711673
0.0026130888795373
0.0025973594869908
0.0025864650671842
0.0025799228465152
0.0025747990515539
0.0025729351411447
0.0025711933600474
0.0025690936432158
0.0025664775444462
0.0025633932449661
0.0025598598586747
0.0025557520434092
0.0025515093939941
0.0025459861292549
0.0025401842814666
0.0025334899759352
0.0025263758471842
0.002518579960136
0.0025103820875409
0.0025017048613879
0.0024926540523254
0.0024832555925934
0.0024734895316436
0.0024632863669216
0.0024525497639497
0.0024411493054771
0.0024290364425641
0.0024160355367587
0.0024021951174965
0.0023875704588425
0.0023723860662465
0.0023569133745301
0.0023415022764739
0.0023266045013901
0.0023127624674601
0.002300520658418
0.0022900528826898
0.0022809659539444
0.0022710980942202
0.0022560098772132
0.6767137071792
0.48920328552082
0.41005463583198
0.3615846629558
0.32174988507609
0.28710013102281
0.25515363133575
0.22598680751019
0.19795911347511
0.17180678795083
0.14720607941655
0.1247494911749
0.10455422078763
0.086796926184676
0.07158722832196
0.058818024786491
0.048283074063493
0.039707417266519
0.032787614330786
0.027224123372662
0.022751684978131
0.019147900698185
0.016237988964827
0.013863485585803
0.011920742285631
0.010321133866066
0.0089952569503058
0.0078848878404766
0.0069516466045842
0.0061624022234402
0.0054900467157427
0.0049133686806276
0.0044167548192847
0.0039869505654168
0.0036124242624402
0.0032851255601331
0.0029975587560706
0.0027439561629487
0.0025191222331235
0.0023194173846125
0.0021411329940792
0.0019815615813945
0.0018381380113477
0.0017089865904804
0.0015922515211286
0.0014864503144239
0.0013903271791387
0.001302755733186
0.0012228453124661
0.0011496701095942
0.0010825917745335
0.001020929605898
0.00096417419388796
0.00091181148918777
0.00086339407981195
0.00081854965510262
0.00077694540538629
0.00073830184617412
0.00070234395586699
0.00066883526095964
0.00063756215315107
0.00060833342006674
0.00058097527252131
0.00055533325687121
0.00053127547739248
0.00050867094473975
0.00048740227511325
0.00047268547453209
0.0016285896258858
0.0031676216381548
0.003225317388981
0.0031739762064882
0.0031230193586017
0.0030771659874747
0.0030365663422738
0.003000924269879
0.0029698429241572
0.0029428854864446
0.0029195996373323
0.002899667195028
0.0028826158735492
0.0028680922749073
0.002855771837317
0.0028453127628831
0.0028372993775782
0.0028292993738956
0.002822204700663
0.0028156362895503
0.0028092841869912
0.0028028390333902
0.0027959088260455
0.0027879560430282
0.0027782251873643
0.0027658351057035
0.0027500048559423
0.0027304206191809
0.0027075253860393
0.0026825723904194
0.0026574017029269
0.0026338026980044
0.0026135074282342
0.0025975926387487
0.002586475835987
0.0025796863833827
0.0025743773194362
0.0025724425247326
0.0025706681249321
0.0025685422326518
0.0025659131367969
0.0025627919167826
0.0025591940677971
0.0025549593755399
0.0025504620432292
0.0025446956249807
0.0025385028622308
0.0025313386701971
0.0025236177109201
0.0025150929043253
0.0025060352480092
0.0024963869715912
0.0024862189648933
0.0024756251210234
0.0024645597065175
0.0024529654209012
0.0024406798988883
0.0024275185266373
0.0024133944650098
0.0023981325218354
0.0023818536075814
0.0023647148601334
0.0023470701977697
0.002329243452591
0.0023117453971844
0.0022951959926152
0.0022802046624019
0.002267348212878
0.0022567666453459
0.0022478866115807
0.0022383054020522
0.0022228741613044
0.022797310804753
0.1555413881176
0.19117893961899
0.20461615395777
0.20662705049184
0.20054881353335
0.18887240127255
0.17453533526421
0.15878530618408
0.14237919203774
0.12589575759369
0.1097373592288
0.094380731522838
0.080192382826139
0.067470879789351
0.056387039829785
0.046937729452962
0.039036345811954
0.032515775867771
0.027179861448183
0.022830722985629
0.019289220478485
0.016397938529897
0.014036191436818
0.01208831753275
0.010473778613393
0.009133462505136
0.0080119188679071
0.0070662592533781
0.006263211620006
0.0055799158710604
0.0049946052469025
0.0044892586365122
0.0040512522674439
0.0036702757728504
0.0033371909836674
0.0030442262570778
0.002785979675436
0.002557257366311
0.0023539248084538
0.0021723644166722
0.0020099566081178
0.0018640457389972
0.0017326188414986
0.0016137974172249
0.0015062053618983
0.0014084561443077
0.0013194386077807
0.0012381692264398
0.001163806596007
0.0010956562451194
0.0010330228631744
0.00097537053063384
0.00092218352727584
0.00087305026626298
0.00082756193096654
0.00078535876743496
0.00074614769506337
0.00070966848566634
0.00067568903833123
0.00064398437809181
0.00061435602676026
0.00058662748804416
0.00056064359996226
0.00053626271015686
0.00051336930346398
0.00049184634286396
0.00047239496722301
0.0010377023731466
0.0030611124840062
0.0032353868382102
0.003186782353777
0.0031349457421407
0.0030878092664209
0.0030459708227367
0.003009203795145
0.0029771094336216
0.00294922282189
0.0029250805836909
0.0029043717699281
0.0028866482512076
0.0028715283870474
0.0028586991749313
0.0028478156297571
0.0028373635096221
0.0028293793653738
0.002822306200568
0.0028157675330515
0.0028094512649109
0.0028030448060142
0.002796154788028
0.0027882473062039
0.0027785747521877
0.0027662643652573
0.0027505382480526
0.0027310649395874
0.0027082585753513
0.0026833456749852
0.0026581496898327
0.0026344625532862
0.0026140049297312
0.0025978817473475
0.0025865590288312
0.0025795646071479
0.0025737809234239
0.0025716981099857
0.0025698534379407
0.0025676678639121
0.0025649874258401
0.0025617528876013
0.002557973459814
0.0025534314607794
0.0025484083305366
0.0025421202197406
0.0025351536053256
0.0025270403849146
0.0025180825053336
0.002508057716296
0.0024971725605707
0.0024853831445982
0.0024729219498571
0.0024598333108696
0.0024460744703116
0.0024315541806661
0.0024159795443266
0.0023991030190268
0.0023807421883203
0.0023608391779491
0.002339681944502
0.0023175922079339
0.002295199797603
0.0022731653842752
0.0022521943541184
0.0022330953219806
0.0022165697857863
0.002203181708108
0.0021928959917129
0.0021848027441123
0.0021760530495684
0.0021602612215004
0.01007653530227
0.027125022522654
0.048446775693584
0.066170276061336
0.079698629516422
0.088657774988478
0.093359684645109
0.094508738483441
0.091881632808743
0.087332124343381
0.0813521776542
0.074281477653896
0.066642587907182
0.058843396116126
0.051259713863984
0.044196548562682
0.037830426390282
0.032238928938908
0.027431637212067
0.023357292770429
0.019934995768411
0.017075033072542
0.014689215521381
0.012696931369015
0.011031763578676
0.0096373231796903
0.0084611573998153
0.0074628846247373
0.0066158656836351
0.0058925337396899
0.0052718457072772
0.0047349103771924
0.0042701016229747
0.0038654448465622
0.0035116461452895
0.0032003472086683
0.0029260548854031
0.0026833648528582
0.002467794694871
0.0022753481414559
0.002103190085262
0.001948733831277
0.0018097204888015
0.0016841186380727
0.0015704106119373
0.0014672352980353
0.0013733746545357
0.001287742793238
0.0012094380174692
0.0011377299413689
0.0010718952411451
0.0010113450940845
0.00095552118651044
0.00090398196971618
0.00085631462124979
0.00081214725752527
0.00077115034739062
0.00073301891453613
0.00069751000516355
0.00066439751364871
0.00063347998093227
0.00060457092468058
0.00057750415715174
0.00055213309801119
0.0005283169669959
0.00050593627920629
0.00048487104828082
0.00047483696575899
0.0018705713248836
0.0031918264130738
0.0032232048728417
0.0031720092980151
0.003121524560997
0.0030759999902445
0.0030356927414325
0.0030003443016563
0.0029695146023369
0.00294271479917
0.0029195183871738
0.0028996377229553
0.0028826197375272
0.0028681295781522
0.0028558397781914
0.0028454100550464
0.0028374516176105
0.0028295021146996
0.0028224794669518
0.0028160102225733
0.0028097778537941
0.002803463405723
0.0027966718235105
0.0027888779028858
0.0027793557883546
0.0027672542629969
0.002751794491792
0.0027326040504136
0.0027100326396365
0.0026852341298516
0.0026599836618439
0.0026360843567281
0.0026152338860478
0.0025985917251184
0.002586657436316
0.0025790620081673
0.0025726997765525
0.0025703649576365
0.0025683679942424
0.0025660697112254
0.0025632847997173
0.0025598845479591
0.0025558264211866
0.0025508306543268
0.0025449524709132
0.0025376067746353
0.0025290959483951
0.0025189785232056
0.0025073149164904
0.0024939318200933
0.0024790052272679
0.0024626443878253
0.0024450945681501
0.0024264034625432
0.0024064620838207
0.0023850556802307
0.0023617335768259
0.0023361212014197
0.0023081726817144
0.002278148447889
0.0022468906690826
0.0022154878517491
0.0021849999857094
0.002156520241417
0.0021310889196031
0.0021095764279107
0.0020925953987598
0.0020804384228846
0.0020726426358536
0.002067528692898
0.0020610653199464
0.0020460916223768
0.0079823922538936
0.011879929356967
0.019223494469601
0.028122076832992
0.036501681799496
0.043631450327077
0.049197077737278
0.052988441165077
0.055002299578518
0.055214103446447
0.053918220462483
0.051654583799881
0.048294631666583
0.044306522100463
0.039958372451309
0.035547470731317
0.031292474456088
0.027337260106864
0.023767223569906
0.02061361077807
0.017872819719652
0.015515904769386
0.013501901064778
0.0117865030524
0.010326466317524
0.0090838325676858
0.0080239020247003
0.0071172545728538
0.0063397861182361
0.0056689873256035
0.005088533292826
0.0045851070309053
0.0041464272927174
0.0037629985523066
0.0034254366155614
0.0031278852305283
0.0028647966634758
0.0026313297786895
0.002423156327437
0.0022369474423596
0.0020701274605657
0.0019201164613524
0.0017847732786876
0.0016622480414212
0.0015512443255604
0.0014503514621561
0.0013584485162568
0.0012744738598223
0.0011976324654125
0.0011271888359521
0.0010624668920716
0.0010028702351946
0.0009478797368211
0.00089708135553516
0.00085006371768962
0.00080647031932166
0.00076597390294013
0.0007282945747259
0.00069319655865024
0.00066044850097871
0.00062985082847499
0.00060122561496285
0.00057441522840445
0.00054928019420398
0.00052568698914903
0.00050350883399184
0.00048263073222998
0.00048117862707071
0.0020847747889926
0.0032087182624213
0.003221323752491
0.003169841193821
0.0031198326018293
0.0030747537837637
0.0030348022603459
0.0029997243613715
0.0029690846922894
0.0029424062066591
0.0029192994796577
0.0028994781005271
0.0028824975325928
0.0028680369632928
0.0028557669418269
0.0028453538086803
0.0028374380429424
0.002829525477309
0.0028225588945098
0.0028161671234296
0.0028100296860539
0.0028038235816766
0.0027971547051394
0.0027895089602411
0.002780182408203
0.0027683580395101
0.0027532496881152
0.0027344376400657
0.0027121834737016
0.0026875515788808
0.0026622518578755
0.0026381044581145
0.0026167814289866
0.0025995050316225
0.0025868187771923
0.0025784834566117
0.0025712893514965
0.0025685884976274
0.0025663933650531
0.0025639908054182
0.0025611196140036
0.0025575699638066
0.0025531955732218
0.0025476020045352
0.0025406000512566
0.0025317017110722
0.0025208153541143
0.0025074709799347
0.0024915032438907
0.0024725780173735
0.0024508046711447
0.0024265547939946
0.0024000445198475
0.0023715555995312
0.0023408725605723
0.0023075020665524
0.0022709561482099
0.0022312195766057
0.0021888055076361
0.0021451779942678
0.0021019779072335
0.0020610223651842
0.0020238535781963
0.0019917362355692
0.0019654624592131
0.0019455205296786
0.0019319902998846
0.0019245218218495
0.0019219164590904
0.0019212328404111
0.0019179027241834
0.0019042725732054
0.0063529441301775
0.008394211981739
0.010636788425929
0.015051105440314
0.019972370650544
0.024665368960404
0.028858585896419
0.032254711266003
0.034830026008715
0.036325991337926
0.036810662281758
0.036349336231201
0.03521026278992
0.033334824158053
0.030984856015782
0.0283537096014
0.02560910961079
0.022902350498437
0.020333126908425
0.017964628210516
0.015830513459414
0.013938062772698
0.012277505141316
0.010831084546492
0.0095763863925772
0.0084900985630283
0.0075506171034885
0.0067372563546192
0.0060316947687488
0.0054182616685649
0.0048836727336892
0.0044163636602286
0.0040060707738623
0.0036450076767516
0.0033265364779339
0.0030446925333494
0.0027944218088694
0.0025708653902959
0.0023711080076492
0.0021922180794894
0.0020314311126974
0.0018864918147948
0.0017552750578324
0.0016365070749417
0.001528626058761
0.0014304397270187
0.0013407725711395
0.0012587612692525
0.0011836598795193
0.0011147056847731
0.0010512869519264
0.00099280181870567
0.00093880475474013
0.00088888303583133
0.00084263543479491
0.00079971508274382
0.00075980307884848
0.00072265689443017
0.0006880365467412
0.00065572151702166
0.00062551366086057
0.00059723350953846
0.00057073537617799
0.00054588036878304
0.00052253351726621
0.00050058318756952
0.00047987533675874
0.00049582034435921
0.0023219524851442
0.0032247973663815
0.003218949626811
0.0031670502179159
0.0031175836811819
0.0030730543051965
0.0030335561637306
0.0029988163997246
0.0029684117593395
0.0029418870260556
0.0029189064770159
0.0028991613553469
0.0028822262550766
0.0028677950487944
0.0028555423662409
0.0028451441840008
0.0028372761971158
0.0028294027241239
0.00282249427131
0.002816183203851
0.0028101486851783
0.0028040697056642
0.0027975520837359
0.0027900872517943
0.0027810192315112
0.0027695447608101
0.0027548685554365