/*--------------------------------*- C++ -*----------------------------------*\
| =========                 |                                                 |
| \\      /  F ield         | OpenFOAM: The Open Source CFD Toolbox           |
|  \\    /   O peration     | Version:  2312                                  |
|   \\  /    A nd           | Website:  www.openfoam.com                      |
|    \\/     M anipulation  |                                                 |
\*---------------------------------------------------------------------------*/
FoamFile
{
    version     2.0;
    format      ascii;
    arch        "LSB;label=32;scalar=64";
    class       volScalarField;
    location    "0.00017";
    object      yPlus;
}
// * * * * * * * * * * * * * * * * * * * * * * * * * * * * * * * * * * * * * //

dimensions      [0 0 0 0 0 0 0];

internalField   uniform 0;

boundaryField
{
    inlet
    {
        type            calculated;
        value           uniform 0;
    }
    outlet
    {
        type            calculated;
        value           uniform 0;
    }
    nozzleWalls
    {
        type            calculated;
        value           nonuniform List<scalar> 
144
(
35.085699874052
34.67188439663
34.241490099108
33.816962168001
33.404679396424
33.00676629184
32.623973564996
32.25623081302
31.903545204892
31.565901193411
31.243391866597
30.936211917762
30.644652881324
30.369109747839
30.110083391512
29.868153585655
29.643931526348
29.437425011095
29.245691090501
29.066572653848
28.899792328515
28.745364620438
28.603366475483
28.47391081048
28.357253134599
28.253841262334
28.16442332901
28.090208685272
28.03313693761
27.996388975554
27.985697415014
28.010016015884
28.088783349327
28.269619375446
28.720648687695
30.876798841176
35.324638681094
34.987047930967
34.564469121103
34.13442705815
33.712627160386
33.303806308165
32.909636994906
32.530634169318
32.166649114017
31.817722329173
31.483848966435
31.165149963438
30.861843931493
30.574247382721
30.302783278912
30.047974012324
29.810415494012
29.590693620883
29.388238025966
29.199751378664
29.023721686569
28.860025153775
28.708695880014
28.569819704943
28.443533123151
28.33013482994
28.230137116367
28.144383595323
28.074235899476
28.021881146177
27.99095281524
27.987983695624
28.023472571661
28.121321856382
28.343906093866
28.943201079986
35.177417399866
34.778595762989
34.348980760361
33.922078514309
33.506455479958
33.104834156098
32.718241707145
32.346757434179
31.990307420771
31.648898788856
31.322591240778
31.011555412815
30.7160581847
30.436467769561
30.173261017351
29.926999208222
29.698297734611
29.487508030057
29.292410662467
29.11019410809
28.940331230646
28.782810069815
28.637695240448
28.505087357891
28.385197584504
28.27841749561
28.185409633274
28.107246822971
28.04565190717
28.003424846467
27.985486860199
27.99985511712
28.062212460448
28.20975000027
28.559103426057
29.829303549843
35.259817966492
34.884008811669
34.456747905664
34.02792407944
33.609114008882
33.203853438569
32.813456125822
32.438227066378
32.078008634865
31.732839780888
31.402744759373
31.087869822484
30.788457625073
30.504850297378
30.23749738328
29.98694266366
29.753794311519
29.538563167129
29.3399189002
29.154586588724
28.981641134009
28.821030715374
28.672805523158
28.537058478132
28.413960038975
28.303852750271
28.207320923304
28.125315723185
28.059368870405
28.011952171445
27.987218938991
27.992616170454
28.040682592801
28.161077283307
28.437704472647
29.278963361772
)
;
    }
    tipWalls
    {
        type            calculated;
        value           nonuniform List<scalar> 
304
(
9.2156947943789
3.0187352225568
4.5537568012799
4.8724524402129
4.7606663675627
4.4745265254203
4.0545600408078
3.3736203989836
2.3470470935095
1.2896195120762
0.36317772781705
0.56014242926949
0.56545971948499
0.50817146667935
0.4461769470485
0.39426444950869
0.35377956151227
0.32228450962679
0.29671996611629
0.27505281505811
0.25620664782332
0.23954088249982
0.22470484683642
0.21145493624274
0.19964134087821
0.18915336446309
0.17984515046787
0.17156436426372
0.16415203465213
0.15745017476231
0.15131264177966
0.14561221363314
0.14025191692751
0.1351715977735
0.13035752903217
0.12584049334738
0.12168099262634
0.11794267500363
0.11465935177522
0.11181689499986
0.10935107179221
0.10716266097573
0.10516006350388
0.1032575977929
0.10139468875326
0.099538712351045
0.097679186729783
0.09581979907824
0.093975971086893
0.092163635276785
0.090403617703206
0.088719566199704
0.087140970048758
0.085696082546038
0.084391192547539
0.083197996302406
0.082057853392079
0.080905322668397
0.079685496487756
0.078394592149002
0.077099769741922
0.075898609421208
0.074896253684405
0.074264311138348
0.075245007239961
0.14518874776492
0.14462143699266
0.14326198779639
0.1418045554821
0.14027334239245
0.13867368184371
0.13703686869951
0.13543398681491
0.1339974143403
0.13295720342584
0.13298162753701
0.13616226959722
0.24879497672423
0.24833205021404
0.24606154982362
0.2436615000064
0.24125512584303
0.23933379395287
0.23783287599319
0.23667183687644
0.23590638089708
0.23555794660048
0.23574602381128
0.23643544515104
0.23773065999526
0.23980095365009
0.24271810832931
0.24680844330395
0.25213730000705
0.25791002169764
0.2617722875402
0.2544115715257
1.5842546335456
4.031306709053
4.7984822050143
4.8466091441499
4.6313937426101
4.2858766691667
3.7569315893117
2.9028001936332
1.7830197112735
0.83970985911835
0.44323698806391
0.57936580864277
0.54124254068919
0.47594847174498
0.41871020014484
0.37263542105069
0.33708886473066
0.30896691598186
0.28549154030917
0.26531779999809
0.24762209637263
0.23190933277396
0.21789721789282
0.20537317322063
0.19424072163023
0.18436124279668
0.17558610938877
0.16775970557715
0.16072174632934
0.1543194079565
0.14841461317313
0.14289443269156
0.13767872274711
0.13273029978121
0.12805853422108
0.12371176690451
0.11975608146343
0.116243789172
0.11318593132911
0.11054274001973
0.10822811545249
0.10614392176534
0.10420079449331
0.10232384197653
0.10046691445052
0.09860944553007
0.096748423185157
0.094895059807775
0.093064674545612
0.0912756602105
0.08955042453224
0.087915066782338
0.086400673356795
0.085027066697136
0.083783738405198
0.082625694240639
0.081486992114241
0.080306039213412
0.07904568347676
0.077741964186873
0.076480950398855
0.075365601271958
0.074513682309984
0.074281399072293
0.075580289167871
0.14528047816344
0.14398603776767
0.1425466086357
0.14104931423315
0.13948056046187
0.13785772088365
0.13622342369385
0.1346824121126
0.1334153573345
0.13275295056572
0.13387275839911
0.13605073199773
22.54943874348
2.1412537545946
4.3318011196528
4.8512668362139
4.8099815949432
4.556025376353
4.1771192976751
3.5782089040715
2.6321455102089
1.5236711155785
0.60714822741869
0.51916588201193
0.57522801034408
0.52535887098559
0.4602557498591
0.40635047420332
0.36293647903711
0.32946920651261
0.30270876258472
0.28018512928052
0.26069381450843
0.24352342510625
0.22825540967828
0.21463077353734
0.20246461265454
0.19165887917234
0.18206985365134
0.17354684840699
0.16593249679757
0.15906726216041
0.15280152643726
0.14700220071706
0.14156422624235
0.13641699040731
0.13153507146898
0.1269388897493
0.12268360593785
0.11883518354329
0.11543739895851
0.11248889324827
0.1099374680311
0.10768878461731
0.10564831627819
0.10372764581568
0.10185892722535
0.10000292961249
0.098144429225807
0.096283720493415
0.094434682509384
0.092612702142687
0.090837472122121
0.089131959029872
0.087523979853054
0.086043870692795
0.084705230545124
0.083488637812615
0.082341735405719
0.081197990267397
0.079998473138325
0.078721020273483
0.077418769986383
0.076184415867798
0.075121857860977
0.0743693545396
0.074537126625022
3.2910689320532
3.6246715644232
4.7023800158136
4.8683690783559
4.6999818425918
4.3844690550641
3.9155365861016
3.1502551475241
2.0574193444807
1.0674270495131
0.33651141528125
0.57594097683976
0.55363658198569
0.49262632238623
0.43197781885583
0.38299543046803
0.34518120702776
0.31547662013511
0.29098948928428
0.2701003487116
0.25184878849955
0.23566984482003
0.22125454919224
0.20836936167976
0.19690088119643
0.1867216546179
0.17768470966148
0.16963615960928
0.1624158986563
0.15586827090578
0.14985089934179
0.14424336996741
0.13895691776053
0.13394261875842
0.12919839923437
0.1247644184298
0.12070489103468
0.11707884592839
0.113909108936
0.11116866489288
0.10878179890645
0.10664821993266
0.10467793048603
0.10278988201546
0.10093077304002
0.099074217635919
0.097213724214382
0.095356843211936
0.093519203869481
0.091717833496955
0.089974464437985
0.088313763046775
0.086766434792132
0.085357224636979
0.084084290958113
0.082910732943814
0.081773264178331
0.080608203904912
0.07936754019466
0.078067744819672
0.076786612356011
0.075625124215778
0.074691871172914
0.074217794162543
0.076994890742204
)
;
    }
    wedge1
    {
        type            wedge;
    }
    wedge2
    {
        type            wedge;
    }
    defaultFaces
    {
        type            empty;
    }
}


// ************************************************************************* //
