/*--------------------------------*- C++ -*----------------------------------*\
| =========                 |                                                 |
| \\      /  F ield         | OpenFOAM: The Open Source CFD Toolbox           |
|  \\    /   O peration     | Version:  2312                                  |
|   \\  /    A nd           | Website:  www.openfoam.com                      |
|    \\/     M anipulation  |                                                 |
\*---------------------------------------------------------------------------*/
FoamFile
{
    version     2.0;
    format      ascii;
    arch        "LSB;label=32;scalar=64";
    class       volScalarField;
    location    "4800";
    object      cSound;
}
// * * * * * * * * * * * * * * * * * * * * * * * * * * * * * * * * * * * * * //

dimensions      [0 1 -1 0 0 0 0];

internalField   nonuniform List<scalar> 
20400
(
1458.126977
1458.126977
1458.126979
1458.126972
1458.126977
1458.126971
1458.12698
1458.126484
1458.126979
1458.12677
1458.126979
1458.126979
1458.126977
1458.12698
1458.12698
1458.12698
1458.126871
1458.126707
1458.126926
1458.126621
1458.126433
1458.126508
1458.126385
1458.126486
1458.126401
1458.126567
1458.126625
1458.126553
1458.126564
1458.126498
1458.126524
1458.126424
1458.126388
1458.126462
1458.126392
1458.126432
1458.126504
1458.126501
1458.126547
1458.126505
1458.126506
1458.12656
1458.126484
1458.126545
1458.126471
1458.126556
1458.126605
1458.126673
1458.12669
1458.126578
1458.126555
1458.126552
1458.126556
1458.126527
1458.126449
1458.126384
1458.126434
1458.126384
1458.126416
1458.126431
1458.126504
1458.126485
1458.126516
1458.126613
1458.126668
1458.126694
1458.126661
1458.126709
1458.126696
1458.126807
1458.126819
1458.126783
1458.126846
1458.126816
1458.126843
1458.126784
1458.126834
1458.126822
1458.126823
1458.126775
1458.126798
1458.126819
1458.126771
1458.126737
1458.126714
1458.126729
1458.126715
1458.126672
1458.126666
1458.12669
1458.12667
1458.126648
1458.126706
1458.126659
1458.126652
1458.126682
1458.126605
1458.126559
1458.126526
1458.126504
1458.126543
1458.126495
1458.126477
1458.126461
1458.12648
1458.126439
1458.126477
1458.126503
1458.126497
1458.126524
1458.126508
1458.126551
1458.126573
1458.126577
1458.126527
1458.126553
1458.126554
1458.126514
1458.126523
1458.126487
1458.126532
1458.126547
1458.126534
1458.126553
1458.126523
1458.126566
1458.126539
1458.126528
1458.126524
1458.126528
1458.126512
1458.126543
1458.126536
1458.126519
1458.126573
1458.126596
1458.126601
1458.126584
1458.12658
1458.126601
1458.126609
1458.126617
1458.126611
1458.126612
1458.126624
1458.126644
1458.126615
1458.126625
1458.126634
1458.126631
1458.126679
1458.126691
1458.126712
1458.126712
1458.126713
1458.126709
1458.126708
1458.126682
1458.126679
1458.126685
1458.126712
1458.126687
1458.126731
1458.126747
1458.126771
1458.126763
1458.126772
1458.126752
1458.126768
1458.126747
1458.126797
1458.126801
1458.126819
1458.126795
1458.126795
1458.126793
1458.12681
1458.126803
1458.126826
1458.126826
1458.126824
1458.12683
1458.126833
1458.126867
1458.126848
1458.126832
1458.126833
1458.126822
1458.126864
1458.126868
1458.126879
1458.126898
1458.126895
1458.126896
1458.126822
1458.126836
1458.12683
1458.126772
1458.126833
1458.126871
1458.12693
1458.126946
1458.126754
1458.126737
1458.126628
1458.126619
1458.126981
1458.12683
1458.126821
1458.126795
1458.126728
1458.126871
1458.126822
1458.126844
1458.126849
1458.126793
1458.126835
1458.126813
1458.126833
1458.126797
1458.1268
1458.126829
1458.1268
1458.126813
1458.126806
1458.126793
1458.126796
1458.126809
1458.126808
1458.126796
1458.126798
1458.126824
1458.126814
1458.12681
1458.126794
1458.126798
1458.126793
1458.126767
1458.126763
1458.126774
1458.126755
1458.126762
1458.12674
1458.126767
1458.126748
1458.126711
1458.126684
1458.126643
1458.126627
1458.126637
1458.126637
1458.126625
1458.126626
1458.126627
1458.126611
1458.126599
1458.126614
1458.126615
1458.126608
1458.126608
1458.126604
1458.126608
1458.126602
1458.126612
1458.126642
1458.126664
1458.126657
1458.126652
1458.126639
1458.126646
1458.126662
1458.126664
1458.126674
1458.126714
1458.12666
1458.126685
1458.126664
1458.126666
1458.126687
1458.12665
1458.126665
1458.126672
1458.126683
1458.126685
1458.126676
1458.126723
1458.126742
1458.126718
1458.126755
1458.126736
1458.126771
1458.126774
1458.126723
1458.126708
1458.126718
1458.12675
1458.126784
1458.126767
1458.126782
1458.126769
1458.126741
1458.126739
1458.126693
1458.126711
1458.126708
1458.126691
1458.126666
1458.126595
1458.126556
1458.126551
1458.126539
1458.126552
1458.126506
1458.126504
1458.126499
1458.126479
1458.12646
1458.126482
1458.126452
1458.126462
1458.126462
1458.126435
1458.12637
1458.126399
1458.126442
1458.126458
1458.126401
1458.126424
1458.1264
1458.126419
1458.126415
1458.126399
1458.126353
1458.126373
1458.126369
1458.126396
1458.12644
1458.126471
1458.126458
1458.126486
1458.126491
1458.12646
1458.126399
1458.126425
1458.1264
1458.126369
1458.126413
1458.126368
1458.1263
1458.126306
1458.126322
1458.126334
1458.126288
1458.12633
1458.126323
1458.12631
1458.126365
1458.126376
1458.126369
1458.126386
1458.126444
1458.126471
1458.1264
1458.12645
1458.12642
1458.126411
1458.126459
1458.126481
1458.126528
1458.126502
1458.126527
1458.126531
1458.126505
1458.126529
1458.126516
1458.126505
1458.126545
1458.12652
1458.126555
1458.126549
1458.126563
1458.126576
1458.126579
1458.126605
1458.12658
1458.126564
1458.12665
1458.126602
1458.12661
1458.126671
1458.126638
1458.126613
1458.126552
1458.126532
1458.126535
1458.12652
1458.126579
1458.126524
1458.126492
1458.126502
1458.126448
1458.126434
1458.126442
1458.126408
1458.12637
1458.126356
1458.126318
1458.12637
1458.126329
1458.126342
1458.126368
1458.126302
1458.126338
1458.126304
1458.126238
1458.126268
1458.126249
1458.126264
1458.126265
1458.126232
1458.126249
1458.126244
1458.126248
1458.126201
1458.126145
1458.126214
1458.126209
1458.126232
1458.126232
1458.126191
1458.12619
1458.126178
1458.126216
1458.126237
1458.126217
1458.126172
1458.126176
1458.126234
1458.126226
1458.126205
1458.126193
1458.126207
1458.126264
1458.12624
1458.126233
1458.126234
1458.126228
1458.126166
1458.126136
1458.126116
1458.126129
1458.126152
1458.126203
1458.126197
1458.126206
1458.126181
1458.126187
1458.126201
1458.126187
1458.126147
1458.126063
1458.126047
1458.12611
1458.126098
1458.126081
1458.12607
1458.126049
1458.126059
1458.126047
1458.126034
1458.126014
1458.126031
1458.126053
1458.126026
1458.126011
1458.12603
1458.125987
1458.126024
1458.125991
1458.126005
1458.125972
1458.12598
1458.126015
1458.126022
1458.126001
1458.125993
1458.125987
1458.126004
1458.126
1458.126001
1458.126036
1458.126101
1458.12619
1458.126191
1458.126175
1458.126212
1458.126193
1458.12622
1458.126247
1458.126232
1458.126976
1458.126977
1458.126969
1458.12698
1458.12698
1458.126891
1458.126975
1458.126817
1458.12698
1458.126979
1458.126921
1458.12698
1458.126968
1458.126978
1458.126731
1458.126645
1458.126528
1458.126419
1458.126446
1458.126431
1458.126331
1458.126351
1458.126346
1458.12637
1458.126372
1458.12642
1458.126442
1458.126412
1458.126407
1458.126493
1458.126521
1458.126512
1458.126518
1458.126504
1458.126509
1458.12656
1458.126586
1458.126578
1458.12658
1458.126545
1458.126536
1458.126566
1458.126529
1458.126537
1458.126523
1458.126582
1458.126572
1458.126586
1458.126606
1458.126579
1458.126636
1458.126633
1458.126645
1458.126665
1458.126667
1458.126669
1458.126645
1458.126641
1458.126663
1458.126688
1458.126709
1458.126674
1458.12668
1458.126675
1458.126688
1458.126711
1458.12669
1458.126718
1458.126713
1458.126686
1458.12668
1458.126684
1458.126699
1458.126717
1458.126722
1458.12671
1458.126734
1458.126722
1458.126709
1458.126715
1458.126726
1458.126733
1458.126726
1458.126753
1458.12676
1458.126725
1458.126714
1458.126717
1458.12671
1458.126717
1458.126713
1458.126723
1458.126737
1458.126683
1458.126672
1458.126664
1458.126679
1458.126713
1458.126714
1458.126724
1458.126741
1458.126756
1458.126759
1458.126792
1458.126816
1458.126804
1458.126822
1458.126831
1458.126829
1458.126845
1458.126841
1458.126866
1458.126845
1458.12683
1458.126817
1458.12683
1458.126866
1458.126868
1458.126869
1458.126885
1458.126877
1458.126899
1458.126901
1458.126892
1458.126934
1458.126938
1458.126915
1458.126924
1458.126918
1458.126924
1458.1269
1458.126926
1458.126919
1458.126895
1458.126873
1458.126896
1458.126923
1458.126919
1458.126924
1458.126923
1458.126932
1458.126928
1458.126936
1458.126939
1458.126942
1458.126947
1458.12693
1458.126954
1458.126978
1458.126981
1458.126965
1458.126947
1458.126957
1458.126943
1458.126957
1458.126965
1458.126942
1458.126949
1458.126966
1458.126953
1458.126959
1458.126953
1458.126945
1458.126926
1458.126931
1458.126935
1458.126926
1458.126933
1458.126937
1458.126927
1458.126927
1458.126923
1458.12693
1458.126918
1458.126912
1458.126906
1458.126911
1458.126916
1458.126927
1458.126916
1458.126923
1458.126921
1458.12695
1458.12696
1458.126943
1458.126933
1458.126927
1458.126929
1458.12693
1458.126949
1458.126934
1458.126938
1458.126929
1458.12693
1458.126944
1458.126966
1458.126949
1458.126918
1458.126965
1458.126933
1458.126949
1458.126954
1458.126937
1458.12695
1458.126938
1458.126954
1458.12695
1458.126952
1458.126938
1458.126941
1458.126953
1458.12695
1458.126958
1458.126953
1458.126949
1458.126961
1458.126961
1458.126954
1458.126956
1458.126946
1458.12694
1458.126945
1458.126944
1458.126913
1458.12691
1458.126919
1458.12694
1458.126946
1458.126944
1458.126938
1458.126919
1458.126942
1458.12694
1458.126948
1458.126948
1458.126954
1458.12695
1458.126954
1458.126957
1458.12698
1458.126973
1458.126981
1458.12698
1458.126981
1458.126981
1458.126981
1458.12698
1458.126965
1458.12698
1458.126981
1458.126973
1458.126977
1458.12698
1458.126981
1458.12698
1458.126979
1458.126981
1458.12698
1458.126973
1458.126979
1458.126979
1458.126979
1458.12698
1458.126975
1458.126976
1458.12698
1458.126963
1458.126967
1458.126976
1458.126979
1458.126979
1458.126964
1458.126961
1458.126973
1458.126968
1458.126957
1458.126957
1458.126969
1458.126982
1458.126972
1458.126976
1458.126977
1458.126975
1458.126972
1458.126979
1458.126979
1458.126971
1458.126953
1458.12696
1458.12696
1458.126952
1458.126959
1458.126959
1458.126971
1458.126965
1458.126955
1458.126978
1458.126974
1458.126975
1458.12698
1458.12698
1458.12698
1458.12698
1458.12698
1458.126974
1458.126965
1458.126957
1458.126963
1458.126961
1458.126956
1458.126961
1458.126957
1458.126947
1458.126944
1458.126949
1458.126933
1458.126918
1458.126934
1458.126939
1458.126929
1458.126922
1458.126924
1458.126913
1458.126918
1458.126932
1458.126928
1458.126899
1458.126908
1458.126914
1458.126921
1458.126929
1458.126918
1458.126935
1458.126948
1458.126935
1458.126914
1458.126933
1458.12692
1458.126901
1458.126894
1458.126893
1458.126874
1458.126877
1458.126865
1458.126843
1458.126852
1458.126854
1458.12685
1458.126838
1458.126859
1458.126859
1458.126856
1458.126869
1458.126878
1458.126877
1458.1269
1458.126904
1458.12689
1458.126866
1458.126871
1458.126838
1458.126824
1458.126777
1458.126753
1458.126741
1458.126714
1458.126718
1458.12673
1458.126711
1458.126712
1458.126698
1458.126687
1458.126719
1458.126702
1458.1267
1458.126702
1458.126702
1458.126689
1458.126692
1458.126718
1458.126712
1458.126716
1458.126733
1458.126739
1458.126747
1458.126743
1458.126738
1458.126742
1458.126704
1458.126681
1458.126672
1458.126656
1458.126677
1458.126692
1458.126691
1458.126685
1458.126671
1458.126672
1458.126652
1458.126645
1458.126673
1458.126671
1458.126665
1458.12666
1458.126661
1458.126645
1458.126632
1458.126624
1458.126634
1458.126638
1458.126611
1458.126611
1458.126613
1458.12661
1458.126595
1458.126614
1458.126625
1458.126638
1458.12665
1458.126638
1458.126634
1458.126611
1458.126626
1458.126626
1458.12658
1458.12658
1458.126558
1458.126571
1458.126555
1458.126551
1458.126545
1458.126535
1458.126508
1458.126501
1458.126501
1458.126524
1458.126532
1458.126562
1458.126564
1458.126554
1458.126539
1458.126554
1458.126559
1458.126524
1458.126536
1458.126531
1458.126541
1458.126547
1458.126544
1458.126532
1458.126537
1458.126556
1458.126559
1458.126562
1458.126556
1458.126535
1458.126508
1458.126504
1458.126516
1458.126535
1458.126529
1458.126539
1458.126517
1458.126527
1458.126552
1458.12658
1458.126595
1458.126628
1458.126637
1458.126633
1458.126641
1458.126646
1458.126645
1458.126634
1458.126642
1458.126629
1458.126606
1458.12661
1458.12663
1458.126641
1458.126641
1458.126632
1458.12663
1458.126637
1458.126642
1458.126645
1458.126641
1458.126628
1458.126648
1458.126641
1458.126637
1458.126652
1458.126653
1458.126648
1458.126648
1458.126659
1458.126665
1458.126656
1458.126665
1458.126648
1458.12698
1458.126977
1458.126977
1458.126979
1458.126875
1458.126925
1458.126977
1458.12698
1458.126979
1458.126879
1458.126769
1458.126815
1458.126666
1458.126662
1458.126673
1458.12661
1458.126499
1458.12644
1458.126452
1458.12646
1458.126439
1458.126478
1458.126451
1458.126478
1458.126517
1458.126481
1458.126532
1458.126509
1458.126518
1458.126536
1458.126564
1458.126571
1458.12654
1458.126531
1458.126533
1458.126603
1458.126615
1458.126602
1458.126618
1458.126599
1458.126605
1458.126585
1458.126611
1458.126651
1458.126653
1458.126679
1458.126671
1458.126669
1458.126653
1458.126661
1458.126663
1458.126645
1458.126634
1458.126668
1458.12666
1458.126657
1458.126692
1458.126699
1458.126687
1458.126696
1458.126675
1458.126668
1458.126664
1458.126679
1458.126692
1458.12668
1458.126656
1458.126656
1458.126676
1458.126691
1458.126672
1458.12667
1458.126664
1458.126659
1458.12668
1458.126692
1458.12671
1458.126702
1458.126714
1458.12673
1458.126709
1458.126707
1458.126714
1458.126714
1458.126727
1458.126721
1458.126718
1458.126745
1458.126742
1458.126763
1458.126773
1458.126776
1458.126775
1458.126771
1458.126772
1458.126799
1458.126808
1458.126812
1458.126807
1458.126802
1458.126802
1458.126806
1458.126835
1458.126842
1458.126819
1458.12682
1458.126816
1458.126823
1458.126818
1458.126816
1458.126822
1458.12681
1458.126822
1458.126822
1458.126815
1458.126818
1458.126821
1458.126823
1458.126806
1458.126799
1458.126804
1458.12683
1458.126841
1458.126818
1458.126818
1458.126802
1458.126795
1458.126794
1458.126788
1458.126795
1458.126782
1458.126791
1458.126807
1458.126798
1458.126813
1458.126813
1458.1268
1458.1268
1458.126806
1458.126796
1458.126808
1458.126808
1458.126819
1458.126823
1458.126819
1458.126821
1458.126819
1458.126815
1458.126823
1458.126815
1458.126823
1458.126815
1458.126806
1458.126798
1458.12679
1458.126799
1458.126795
1458.126802
1458.126796
1458.126799
1458.126819
1458.126806
1458.126815
1458.126827
1458.126827
1458.126848
1458.126845
1458.12684
1458.126832
1458.126838
1458.126848
1458.12684
1458.126838
1458.126822
1458.126844
1458.126853
1458.126854
1458.126848
1458.126852
1458.126853
1458.126852
1458.126841
1458.126871
1458.126868
1458.126863
1458.126867
1458.126865
1458.126871
1458.126855
1458.126875
1458.126875
1458.12689
1458.126873
1458.126842
1458.126857
1458.126883
1458.126873
1458.12683
1458.126903
1458.126848
1458.12686
1458.126847
1458.126814
1458.126843
1458.126837
1458.126856
1458.12684
1458.126849
1458.126874
1458.126847
1458.126847
1458.126861
1458.126872
1458.126871
1458.126875
1458.126872
1458.12688
1458.126884
1458.126884
1458.126872
1458.126863
1458.126867
1458.126867
1458.126867
1458.126872
1458.126871
1458.12688
1458.126875
1458.126867
1458.126868
1458.12687
1458.12688
1458.126878
1458.126888
1458.126891
1458.126899
1458.126892
1458.12688
1458.126882
1458.126871
1458.126872
1458.126867
1458.12686
1458.126867
1458.126853
1458.126856
1458.126848
1458.126849
1458.126857
1458.126856
1458.126848
1458.126847
1458.126847
1458.126844
1458.126845
1458.126848
1458.126855
1458.126851
1458.12686
1458.126876
1458.12687
1458.126857
1458.126849
1458.126849
1458.126856
1458.126847
1458.126835
1458.126836
1458.126832
1458.126832
1458.12684
1458.126851
1458.126856
1458.12686
1458.126853
1458.126843
1458.126843
1458.126848
1458.126847
1458.126844
1458.126848
1458.126858
1458.126871
1458.126874
1458.126874
1458.12687
1458.126875
1458.126871
1458.126871
1458.126866
1458.126851
1458.126866
1458.126862
1458.126872
1458.126871
1458.126875
1458.126867
1458.126881
1458.126875
1458.12687
1458.126871
1458.126872
1458.126867
1458.126874
1458.126882
1458.126879
1458.126878
1458.126868
1458.126863
1458.12685
1458.126844
1458.12685
1458.12685
1458.126854
1458.126852
1458.126843
1458.126836
1458.126824
1458.126847
1458.126852
1458.126852
1458.126852
1458.126846
1458.126848
1458.126846
1458.126847
1458.126835
1458.126821
1458.126827
1458.126827
1458.126813
1458.126827
1458.12685
1458.126848
1458.126854
1458.126854
1458.12685
1458.126844
1458.126856
1458.126847
1458.126847
1458.126846
1458.126844
1458.126827
1458.126825
1458.126824
1458.12684
1458.126851
1458.126854
1458.12686
1458.126863
1458.126866
1458.126862
1458.126852
1458.126858
1458.126843
1458.126838
1458.126842
1458.126844
1458.126836
1458.126847
1458.126871
1458.126858
1458.126847
1458.126847
1458.126847
1458.126867
1458.126866
1458.126863
1458.12685
1458.126839
1458.126844
1458.126839
1458.126842
1458.126843
1458.12684
1458.126848
1458.126861
1458.126865
1458.126879
1458.126875
1458.126877
1458.126869
1458.126877
1458.126877
1458.126885
1458.126883
1458.126893
1458.126916
1458.12691
1458.126902
1458.1269
1458.126886
1458.126869
1458.12687
1458.126874
1458.126873
1458.126877
1458.126867
1458.126866
1458.126861
1458.126862
1458.126856
1458.126858
1458.126844
1458.126852
1458.126859
1458.126871
1458.126865
1458.126865
1458.126854
1458.126848
1458.12683
1458.126817
1458.126823
1458.126815
1458.12683
1458.126828
1458.126823
1458.126824
1458.126821
1458.126835
1458.126847
1458.126843
1458.126847
1458.12684
1458.126835
1458.126826
1458.126835
1458.126842
1458.126847
1458.126852
1458.12685
1458.126823
1458.126827
1458.12682
1458.126816
1458.126797
1458.126797
1458.126792
1458.126782
1458.126778
1458.126777
1458.126773
1458.126789
1458.126796
1458.126792
1458.12677
1458.126773
1458.126778
1458.126782
1458.126781
1458.126774
1458.126788
1458.126773
1458.126772
1458.126777
1458.126765
1458.126764
1458.126761
1458.126765
1458.126769
1458.126766
1458.126774
1458.126788
1458.126797
1458.126817
1458.126822
1458.126809
1458.126811
1458.126818
1458.12683
1458.12684
1458.12685
1458.126842
1458.126842
1458.126846
1458.126838
1458.126842
1458.126844
1458.12684
1458.126835
1458.126832
1458.126831
1458.12682
1458.126834
1458.12683
1458.12682
1458.126799
1458.126795
1458.126799
1458.126795
1458.126808
1458.126818
1458.126796
1458.1268
1458.126792
1458.126787
1458.126799
1458.126799
1458.126822
1458.126795
1458.126925
1458.126905
1458.126953
1458.126976
1458.126977
1458.126828
1458.126854
1458.126778
1458.12668
1458.126646
1458.126656
1458.126684
1458.12663
1458.126609
1458.126536
1458.126533
1458.126536
1458.126494
1458.126479
1458.126501
1458.126508
1458.126502
1458.126491
1458.12649
1458.126479
1458.126513
1458.126541
1458.126549
1458.126528
1458.126529
1458.126529
1458.126555
1458.126574
1458.126582
1458.126602
1458.126598
1458.12661
1458.126609
1458.126615
1458.12663
1458.126611
1458.126632
1458.126624
1458.126645
1458.126651
1458.126645
1458.126655
1458.126651
1458.126664
1458.126659
1458.126633
1458.126636
1458.126663
1458.126675
1458.126675
1458.126675
1458.126673
1458.12666
1458.126683
1458.126675
1458.126657
1458.126652
1458.126674
1458.126703
1458.126715
1458.126709
1458.126713
1458.126721
1458.126718
1458.126711
1458.126718
1458.126731
1458.126762
1458.126776
1458.126793
1458.126795
1458.126799
1458.126816
1458.126819
1458.126839
1458.126845
1458.126835
1458.126826
1458.126845
1458.126846
1458.126847
1458.126849
1458.126839
1458.126851
1458.126842
1458.126841
1458.126826
1458.126831
1458.126823
1458.126816
1458.126818
1458.126834
1458.126853
1458.126862
1458.126865
1458.126849
1458.126845
1458.126846
1458.126841
1458.126851
1458.126849
1458.126849
1458.126853
1458.126846
1458.126857
1458.126858
1458.126854
1458.126857
1458.126843
1458.126843
1458.126835
1458.126829
1458.126834
1458.126821
1458.126826
1458.126827
1458.126822
1458.126826
1458.126819
1458.126816
1458.126834
1458.126834
1458.12685
1458.126835
1458.126834
1458.126827
1458.126829
1458.126831
1458.126837
1458.126839
1458.126845
1458.126848
1458.126839
1458.126835
1458.126837
1458.126845
1458.126837
1458.126834
1458.126854
1458.126849
1458.126852
1458.126845
1458.126849
1458.126849
1458.126857
1458.126856
1458.126856
1458.126841
1458.126849
1458.126848
1458.126841
1458.126844
1458.126838
1458.126846
1458.126849
1458.126856
1458.126846
1458.126857
1458.126869
1458.126875
1458.126854
1458.126853
1458.126854
1458.126864
1458.126863
1458.126868
1458.126868
1458.126848
1458.126836
1458.126848
1458.126864
1458.126876
1458.126867
1458.126902
1458.126884
1458.126872
1458.126868
1458.126871
1458.126887
1458.126914
1458.126906
1458.12693
1458.126922
1458.126891
1458.126931
1458.12693
1458.126923
1458.126906
1458.126894
1458.126908
1458.126908
1458.126906
1458.12689
1458.126853
1458.126869
1458.126888
1458.126886
1458.126882
1458.126867
1458.126864
1458.12689
1458.126884
1458.12691
1458.126906
1458.126903
1458.126913
1458.126903
1458.126917
1458.126915
1458.126913
1458.1269
1458.1269
1458.126903
1458.126907
1458.126908
1458.126914
1458.126913
1458.126921
1458.126929
1458.126933
1458.126933
1458.126922
1458.126927
1458.126926
1458.126927
1458.126937
1458.126942
1458.126934
1458.12693
1458.12693
1458.126934
1458.126922
1458.12693
1458.126933
1458.126934
1458.126927
1458.12693
1458.126938
1458.126931
1458.126927
1458.126933
1458.126931
1458.12693
1458.126938
1458.126934
1458.126934
1458.126944
1458.126948
1458.12695
1458.126944
1458.126942
1458.126944
1458.126956
1458.126962
1458.12695
1458.126944
1458.126954
1458.126953
1458.126952
1458.126953
1458.126954
1458.126952
1458.126946
1458.126953
1458.126954
1458.126952
1458.126954
1458.126956
1458.126957
1458.126953
1458.126961
1458.126954
1458.126957
1458.126956
1458.12696
1458.126957
1458.126956
1458.126949
1458.126936
1458.126934
1458.126942
1458.126937
1458.126952
1458.126967
1458.126956
1458.126968
1458.126968
1458.126965
1458.126959
1458.126957
1458.126959
1458.126963
1458.126961
1458.126941
1458.126945
1458.126949
1458.126952
1458.126949
1458.126945
1458.126918
1458.126906
1458.126901
1458.126895
1458.126883
1458.126879
1458.126893
1458.126895
1458.126894
1458.126895
1458.126889
1458.12689
1458.126889
1458.126887
1458.126898
1458.126893
1458.126895
1458.126905
1458.126899
1458.126906
1458.126899
1458.126887
1458.126877
1458.126879
1458.126882
1458.126887
1458.126898
1458.126894
1458.126901
1458.126891
1458.126883
1458.126879
1458.126877
1458.126868
1458.12686
1458.126862
1458.126862
1458.126852
1458.126858
1458.126856
1458.126859
1458.126881
1458.126878
1458.126874
1458.126878
1458.126878
1458.126874
1458.12687
1458.126863
1458.126867
1458.126878
1458.126897
1458.12692
1458.12692
1458.126909
1458.126889
1458.126851
1458.126851
1458.126843
1458.126848
1458.126836
1458.12684
1458.126846
1458.126844
1458.126844
1458.126838
1458.126835
1458.126835
1458.126823
1458.126825
1458.126828
1458.126823
1458.126827
1458.126827
1458.126811
1458.126808
1458.12682
1458.126827
1458.126823
1458.126824
1458.126834
1458.126842
1458.126846
1458.126838
1458.126817
1458.126803
1458.126815
1458.126813
1458.126809
1458.126804
1458.126805
1458.126803
1458.126803
1458.126805
1458.126816
1458.1268
1458.1268
1458.126796
1458.126809
1458.126799
1458.126805
1458.126819
1458.126808
1458.126807
1458.126807
1458.126792
1458.126799
1458.126804
1458.126809
1458.126801
1458.126799
1458.126792
1458.126807
1458.126809
1458.126817
1458.126808
1458.126809
1458.126801
1458.126793
1458.126795
1458.126804
1458.126796
1458.126807
1458.126812
1458.126805
1458.12679
1458.126782
1458.126785
1458.126785
1458.126789
1458.126776
1458.126777
1458.12678
1458.12678
1458.126772
1458.126768
1458.126764
1458.126755
1458.126753
1458.126742
1458.126723
1458.126722
1458.126734
1458.126753
1458.126754
1458.126743
1458.126737
1458.126743
1458.126743
1458.126751
1458.12676
1458.126769
1458.126769
1458.126769
1458.126762
1458.126769
1458.126772
1458.126762
1458.12677
1458.126764
1458.126769
1458.126764
1458.126764
1458.126766
1458.126757
1458.126755
1458.126749
1458.126745
1458.126764
1458.12676
1458.126768
1458.12677
1458.12677
1458.126769
1458.126773
1458.12676
1458.126758
1458.126753
1458.126749
1458.126755
1458.126777
1458.126773
1458.126777
1458.126773
1458.126778
1458.126782
1458.126782
1458.126782
1458.126786
1458.126793
1458.126801
1458.126795
1458.126796
1458.1268
1458.126979
1458.12698
1458.126725
1458.126956
1458.126887
1458.126929
1458.126895
1458.126783
1458.12677
1458.126641
1458.126641
1458.126641
1458.126619
1458.126652
1458.126627
1458.126592
1458.126547
1458.126544
1458.126568
1458.126547
1458.126586
1458.126588
1458.12658
1458.126607
1458.126586
1458.12658
1458.126599
1458.126584
1458.126582
1458.126582
1458.126607
1458.126638
1458.126637
1458.126669
1458.126679
1458.126681
1458.126696
1458.126694
1458.126691
1458.126699
1458.126684
1458.126692
1458.126711
1458.126725
1458.126739
1458.12675
1458.126777
1458.126761
1458.126772
1458.126783
1458.126792
1458.126788
1458.126791
1458.1268
1458.126796
1458.126793
1458.126819
1458.126847
1458.12685
1458.126863
1458.126836
1458.126843
1458.126847
1458.126832
1458.12683
1458.126841
1458.126843
1458.126866
1458.126874
1458.126866
1458.126869
1458.126865
1458.12685
1458.126855
1458.12687
1458.126863
1458.126866
1458.126873
1458.126885
1458.12689
1458.126896
1458.126892
1458.126885
1458.126892
1458.126897
1458.126903
1458.126893
1458.126901
1458.126894
1458.126903
1458.126896
1458.126897
1458.126903
1458.126911
1458.126901
1458.1269
1458.12689
1458.126878
1458.126882
1458.126878
1458.126869
1458.126869
1458.126877
1458.12687
1458.126878
1458.126872
1458.12688
1458.126884
1458.126872
1458.126873
1458.126866
1458.126854
1458.126846
1458.126868
1458.126869
1458.12687
1458.126862
1458.126858
1458.126839
1458.126839
1458.126846
1458.126851
1458.12686
1458.126846
1458.126853
1458.126864
1458.126869
1458.12686
1458.12686
1458.12686
1458.126854
1458.126858
1458.126852
1458.126841
1458.126849
1458.126841
1458.126838
1458.126825
1458.126843
1458.126847
1458.126852
1458.126845
1458.126854
1458.126848
1458.126843
1458.126842
1458.126849
1458.126846
1458.126852
1458.12685
1458.12686
1458.126854
1458.126844
1458.126849
1458.126849
1458.126845
1458.126842
1458.126848
1458.126853
1458.126849
1458.12685
1458.126857
1458.126853
1458.126869
1458.126853
1458.126869
1458.126873
1458.126877
1458.126849
1458.126844
1458.126842
1458.126827
1458.126833
1458.126838
1458.12683
1458.126845
1458.126848
1458.126838
1458.126872
1458.126832
1458.12685
1458.126879
1458.126867
1458.12689
1458.126832
1458.126842
1458.126907
1458.126876
1458.126894
1458.126879
1458.126859
1458.12689
1458.126895
1458.126895
1458.126891
1458.126898
1458.126896
1458.126891
1458.1269
1458.126886
1458.126891
1458.126895
1458.126907
1458.126899
1458.126902
1458.1269
1458.126891
1458.126898
1458.126891
1458.126895
1458.126896
1458.126899
1458.126906
1458.126929
1458.126933
1458.126937
1458.126938
1458.126935
1458.126937
1458.126942
1458.126931
1458.126939
1458.126945
1458.126942
1458.126939
1458.126934
1458.126933
1458.126933
1458.126929
1458.126929
1458.126931
1458.126927
1458.126929
1458.126926
1458.126931
1458.126938
1458.126934
1458.126938
1458.126938
1458.126941
1458.12695
1458.126951
1458.12695
1458.126953
1458.126954
1458.126947
1458.126955
1458.126953
1458.12695
1458.126941
1458.126942
1458.126943
1458.126942
1458.126933
1458.12693
1458.126934
1458.126937
1458.126937
1458.126937
1458.126938
1458.126937
1458.126941
1458.126946
1458.126954
1458.126956
1458.126956
1458.126947
1458.126945
1458.126939
1458.126938
1458.126937
1458.126927
1458.126935
1458.126933
1458.126925
1458.126931
1458.126931
1458.126937
1458.126934
1458.126933
1458.126939
1458.126944
1458.126945
1458.126949
1458.126954
1458.126958
1458.126954
1458.126954
1458.126952
1458.126952
1458.126962
1458.126962
1458.126956
1458.126954
1458.126957
1458.126961
1458.126964
1458.126968
1458.126975
1458.126969
1458.126961
1458.126963
1458.12696
1458.126946
1458.126934
1458.126932
1458.126937
1458.126945
1458.126942
1458.126937
1458.126932
1458.12693
1458.126936
1458.126937
1458.126945
1458.126942
1458.126941
1458.126944
1458.126946
1458.126957
1458.12695
1458.126949
1458.126945
1458.126953
1458.126952
1458.126952
1458.126951
1458.126951
1458.126942
1458.126948
1458.126938
1458.126937
1458.126934
1458.126941
1458.126944
1458.126946
1458.126949
1458.126942
1458.126947
1458.126944
1458.12694
1458.126936
1458.126933
1458.126925
1458.126932
1458.12693
1458.126928
1458.126925
1458.126938
1458.126948
1458.126936
1458.126937
1458.126944
1458.126948
1458.126953
1458.126938
1458.126944
1458.12694
1458.126926
1458.126924
1458.12692
1458.126926
1458.126932
1458.12693
1458.126936
1458.12693
1458.126936
1458.126937
1458.126926
1458.126928
1458.126932
1458.126934
1458.126932
1458.126934
1458.126934
1458.126924
1458.12692
1458.126926
1458.12694
1458.126953
1458.126955
1458.126947
1458.126934
1458.12692
1458.126905
1458.126909
1458.126918
1458.12692
1458.126924
1458.126925
1458.12694
1458.126947
1458.126933
1458.126937
1458.126944
1458.126937
1458.126937
1458.126937
1458.126945
1458.126953
1458.126949
1458.126951
1458.126959
1458.126955
1458.126956
1458.126955
1458.126949
1458.126952
1458.126943
1458.126935
1458.12694
1458.126955
1458.126952
1458.126949
1458.126945
1458.126945
1458.126944
1458.126953
1458.126956
1458.126949
1458.126959
1458.126957
1458.126957
1458.126955
1458.126936
1458.12693
1458.126922
1458.12692
1458.12693
1458.126924
1458.126928
1458.12693
1458.126944
1458.126947
1458.126945
1458.126939
1458.126926
1458.126936
1458.126928
1458.126922
1458.126914
1458.126898
1458.126893
1458.126886
1458.126866
1458.126842
1458.126844
1458.126848
1458.12685