/*--------------------------------*- C++ -*----------------------------------*\
| =========                 |                                                 |
| \\      /  F ield         | OpenFOAM: The Open Source CFD Toolbox           |
|  \\    /   O peration     | Version:  2312                                  |
|   \\  /    A nd           | Website:  www.openfoam.com                      |
|    \\/     M anipulation  |                                                 |
\*---------------------------------------------------------------------------*/
FoamFile
{
    version     2.0;
    format      ascii;
    arch        "LSB;label=32;scalar=64";
    class       volScalarField;
    location    "4800";
    object      maxKappa;
}
// * * * * * * * * * * * * * * * * * * * * * * * * * * * * * * * * * * * * * //

dimensions      [0 0 0 0 0 0 0];

internalField   nonuniform List<scalar> 
20400
(
4.14230043e-05
4.142300427e-05
4.142300442e-05
4.142300442e-05
4.142300446e-05
4.142300446e-05
4.142301827e-05
4.142301827e-05
4.142301015e-05
4.142301015e-05
4.142300422e-05
4.142300426e-05
4.142300426e-05
4.142300418e-05
4.142300418e-05
4.142300575e-05
4.142301195e-05
4.142301195e-05
4.142301176e-05
4.142301971e-05
4.142301971e-05
4.142302109e-05
4.142302109e-05
4.142302063e-05
4.142302063e-05
4.142301677e-05
4.142301428e-05
4.142301631e-05
4.142301787e-05
4.142301787e-05
4.142301944e-05
4.142302101e-05
4.142302101e-05
4.14230209e-05
4.14230209e-05
4.142302032e-05
4.14230178e-05
4.14230178e-05
4.142301768e-05
4.142301768e-05
4.142301764e-05
4.142301829e-05
4.142301829e-05
4.142301864e-05
4.142301864e-05
4.142301692e-05
4.142301554e-05
4.142301313e-05
4.142301531e-05
4.142301623e-05
4.142301634e-05
4.142301634e-05
4.142301665e-05
4.142301837e-05
4.142302112e-05
4.142302112e-05
4.142302112e-05
4.142302112e-05
4.142302043e-05
4.142302001e-05
4.142301825e-05
4.142301825e-05
4.142301779e-05
4.142301462e-05
4.142301343e-05
4.142301324e-05
4.142301324e-05
4.142301224e-05
4.142301224e-05
4.142300926e-05
4.142300979e-05
4.142300979e-05
4.142300884e-05
4.142300884e-05
4.142300976e-05
4.142300976e-05
4.142300868e-05
4.142300868e-05
4.142301002e-05
4.142301002e-05
4.142300968e-05
4.142300964e-05
4.142301075e-05
4.142301174e-05
4.142301174e-05
4.142301148e-05
4.142301282e-05
4.142301312e-05
4.142301312e-05
4.14230127e-05
4.142301362e-05
4.142301362e-05
4.142301324e-05
4.14230135e-05
4.14230135e-05
4.142301419e-05
4.142301565e-05
4.142301679e-05
4.142301771e-05
4.142301771e-05
4.142301771e-05
4.142301825e-05
4.142301893e-05
4.142301893e-05
4.142301955e-05
4.142301955e-05
4.142301886e-05
4.14230179e-05
4.14230179e-05
4.142301759e-05
4.142301759e-05
4.142301668e-05
4.14230158e-05
4.142301706e-05
4.142301706e-05
4.142301633e-05
4.142301744e-05
4.142301744e-05
4.142301821e-05
4.142301821e-05
4.142301713e-05
4.142301687e-05
4.142301687e-05
4.142301717e-05
4.142301717e-05
4.142301656e-05
4.142301698e-05
4.142301713e-05
4.142301713e-05
4.142301748e-05
4.142301748e-05
4.142301671e-05
4.142301729e-05
4.142301729e-05
4.142301606e-05
4.14230151e-05
4.142301541e-05
4.142301556e-05
4.142301556e-05
4.142301507e-05
4.142301484e-05
4.142301468e-05
4.142301468e-05
4.142301464e-05
4.142301445e-05
4.142301457e-05
4.142301457e-05
4.142301438e-05
4.142301411e-05
4.142301411e-05
4.142301288e-05
4.142301254e-05
4.142301181e-05
4.142301181e-05
4.142301189e-05
4.142301193e-05
4.142301262e-05
4.142301273e-05
4.142301273e-05
4.142301265e-05
4.14230125e-05
4.14230125e-05
4.142301154e-05
4.142301105e-05
4.142301036e-05
4.142301036e-05
4.142301066e-05
4.142301066e-05
4.142301082e-05
4.142301082e-05
4.142300944e-05
4.142300932e-05
4.142300944e-05
4.142300944e-05
4.142300951e-05
4.142300951e-05
4.142300921e-05
4.142300921e-05
4.142300856e-05
4.142300863e-05
4.142300863e-05
4.142300848e-05
4.14230084e-05
4.142300771e-05
4.14230084e-05
4.14230084e-05
4.142300867e-05
4.142300867e-05
4.142300752e-05
4.142300741e-05
4.142300722e-05
4.142300664e-05
4.142300664e-05
4.142300867e-05
4.142300867e-05
4.142300836e-05
4.142301008e-05
4.142301008e-05
4.14230089e-05
4.142300783e-05
4.142300584e-05
4.142301039e-05
4.142301085e-05
4.142301402e-05
4.142301444e-05
4.142301444e-05
4.142301444e-05
4.142300499e-05
4.142300886e-05
4.142300978e-05
4.142301134e-05
4.142301134e-05
4.142300867e-05
4.142300867e-05
4.142300798e-05
4.142300951e-05
4.142300951e-05
4.142300893e-05
4.142300893e-05
4.142300939e-05
4.142300939e-05
4.142300928e-05
4.142300932e-05
4.142300932e-05
4.14230092e-05
4.142300951e-05
4.142300951e-05
4.142300939e-05
4.142300908e-05
4.142300943e-05
4.142300943e-05
4.142300931e-05
4.142300897e-05
4.142300905e-05
4.142300947e-05
4.142300947e-05
4.142300958e-05
4.142301031e-05
4.142301035e-05
4.142301035e-05
4.142301058e-05
4.142301058e-05
4.1423011e-05
4.1423011e-05
4.142301023e-05
4.142301222e-05
4.142301299e-05
4.142301398e-05
4.142301421e-05
4.142301421e-05
4.142301394e-05
4.142301429e-05
4.142301429e-05
4.142301421e-05
4.142301486e-05
4.142301501e-05
4.142301501e-05
4.142301455e-05
4.142301478e-05
4.142301478e-05
4.142301486e-05
4.142301486e-05
4.142301494e-05
4.142301494e-05
4.142301448e-05
4.142301348e-05
4.142301344e-05
4.14230136e-05
4.142301386e-05
4.142301386e-05
4.14230136e-05
4.142301321e-05
4.142301317e-05
4.142301272e-05
4.142301329e-05
4.142301329e-05
4.142301317e-05
4.142301317e-05
4.142301306e-05
4.142301356e-05
4.142301356e-05
4.142301302e-05
4.142301264e-05
4.14230126e-05
4.142301283e-05
4.142301283e-05
4.142301122e-05
4.142301164e-05
4.142301164e-05
4.142301111e-05
4.142301111e-05
4.142301007e-05
4.142301172e-05
4.142301191e-05
4.142301191e-05
4.142301153e-05
4.142301026e-05
4.142301023e-05
4.142301023e-05
4.142301038e-05
4.142301099e-05
4.142301103e-05
4.142301233e-05
4.142301233e-05
4.142301195e-05
4.142301264e-05
4.142301344e-05
4.142301566e-05
4.142301631e-05
4.142301646e-05
4.142301673e-05
4.142301673e-05
4.142301769e-05
4.142301776e-05
4.142301788e-05
4.142301868e-05
4.142301895e-05
4.142301895e-05
4.142301918e-05
4.142301918e-05
4.142301891e-05
4.142302006e-05
4.142302151e-05
4.142302151e-05
4.142302033e-05
4.142301925e-05
4.142302063e-05
4.142302063e-05
4.142302067e-05
4.142302067e-05
4.142302032e-05
4.142302094e-05
4.142302201e-05
4.142302201e-05
4.142302155e-05
4.142302155e-05
4.14230204e-05
4.142301906e-05
4.142301902e-05
4.142301902e-05
4.142301814e-05
4.142301937e-05
4.142302071e-05
4.142302071e-05
4.142302101e-05
4.142302155e-05
4.142302155e-05
4.142302224e-05
4.14230235e-05
4.14230235e-05
4.142302327e-05
4.14230227e-05
4.142302384e-05
4.142302384e-05
4.142302296e-05
4.142302323e-05
4.142302323e-05
4.142302151e-05
4.142302155e-05
4.142302155e-05
4.142302078e-05
4.142301902e-05
4.142302067e-05
4.142302067e-05
4.142302025e-05
4.142302036e-05
4.142302036e-05
4.142301868e-05
4.142301807e-05
4.142301776e-05
4.142301776e-05
4.142301703e-05
4.142301768e-05
4.142301768e-05
4.142301753e-05
4.142301768e-05
4.142301768e-05
4.142301726e-05
4.142301726e-05
4.142301642e-05
4.142301642e-05
4.142301585e-05
4.142301562e-05
4.142301554e-05
4.142301577e-05
4.1423016e-05
4.1423016e-05
4.142301493e-05
4.142301493e-05
4.142301458e-05
4.142301344e-05
4.1423015e-05
4.142301665e-05
4.142301692e-05
4.142301692e-05
4.142301726e-05
4.142301726e-05
4.142301761e-05
4.142301806e-05
4.142301806e-05
4.142301948e-05
4.142301971e-05
4.142301971e-05
4.14230209e-05
4.142302174e-05
4.142302212e-05
4.1423023e-05
4.1423023e-05
4.142302269e-05
4.142302269e-05
4.142302212e-05
4.142302346e-05
4.142302346e-05
4.142302384e-05
4.142302526e-05
4.142302526e-05
4.142302495e-05
4.142302495e-05
4.142302449e-05
4.142302545e-05
4.142302545e-05
4.14230251e-05
4.14230251e-05
4.142302698e-05
4.14230279e-05
4.14230279e-05
4.142302595e-05
4.142302545e-05
4.142302545e-05
4.142302663e-05
4.142302667e-05
4.142302698e-05
4.142302698e-05
4.14230256e-05
4.142302614e-05
4.142302713e-05
4.142302713e-05
4.142302698e-05
4.142302572e-05
4.14230264e-05
4.142302656e-05
4.142302656e-05
4.142302591e-05
4.142302533e-05
4.142302541e-05
4.142302541e-05
4.142302564e-05
4.142302774e-05
4.142302847e-05
4.142302874e-05
4.142302874e-05
4.142302816e-05
4.142302736e-05
4.142302644e-05
4.142302644e-05
4.14230269e-05
4.14230269e-05
4.142302663e-05
4.14230269e-05
4.142302843e-05
4.142303046e-05
4.142303069e-05
4.142303069e-05
4.142302889e-05
4.142302988e-05
4.142303019e-05
4.142303065e-05
4.142303065e-05
4.142303084e-05
4.142303126e-05
4.142303164e-05
4.142303164e-05
4.142303088e-05
4.142303153e-05
4.142303172e-05
4.142303172e-05
4.142303241e-05
4.142303241e-05
4.142303229e-05
4.142303229e-05
4.142303283e-05
4.142303283e-05
4.142303249e-05
4.142303153e-05
4.14230321e-05
4.142303229e-05
4.142303241e-05
4.142303241e-05
4.142303203e-05
4.142303203e-05
4.142303195e-05
4.14230305e-05
4.142302824e-05
4.142302663e-05
4.142302705e-05
4.142302705e-05
4.142302656e-05
4.142302656e-05
4.142302541e-05
4.142302502e-05
4.14230043e-05
4.14230045e-05
4.14230045e-05
4.142300442e-05
4.142300671e-05
4.142300671e-05
4.142300882e-05
4.142301827e-05
4.142300422e-05
4.142301015e-05
4.142300671e-05
4.142300453e-05
4.142300464e-05
4.142301004e-05
4.142301248e-05
4.142301551e-05
4.142302014e-05
4.142302014e-05
4.142301956e-05
4.142302262e-05
4.142302262e-05
4.14230222e-05
4.14230222e-05
4.142302155e-05
4.142302151e-05
4.14230204e-05
4.142301948e-05
4.142302048e-05
4.142302048e-05
4.142301845e-05
4.142301749e-05
4.142301998e-05
4.142302101e-05
4.142301891e-05
4.14230209e-05
4.142301975e-05
4.142301772e-05
4.14230178e-05
4.14230165e-05
4.142301768e-05
4.142301764e-05
4.142301699e-05
4.142301829e-05
4.142301718e-05
4.142301864e-05
4.142301623e-05
4.142301577e-05
4.142301558e-05
4.142301558e-05
4.142301561e-05
4.142301626e-05
4.142301634e-05
4.142301623e-05
4.142301707e-05
4.142301929e-05
4.142302112e-05
4.142301971e-05
4.142302112e-05
4.14230202e-05
4.142301978e-05
4.142301772e-05
4.142301825e-05
4.142301737e-05
4.142301462e-05
4.142301305e-05
4.142301244e-05
4.142301324e-05
4.14230119e-05
4.142301247e-05
4.14230127e-05
4.142301282e-05
4.142301278e-05
4.142301266e-05
4.142301247e-05
4.142301213e-05
4.142301213e-05
4.142301155e-05
4.14230119e-05
4.14230119e-05
4.142301182e-05
4.142301167e-05
4.142301159e-05
4.142301159e-05
4.142301109e-05
4.142301174e-05
4.142301174e-05
4.142301174e-05
4.142301293e-05
4.142301312e-05
4.142301243e-05
4.142301301e-05
4.142301362e-05
4.142301247e-05
4.142301331e-05
4.14230135e-05
4.142301312e-05
4.142301484e-05
4.142301614e-05
4.14230171e-05
4.142301771e-05
4.14230166e-05
4.142301798e-05
4.142301848e-05
4.142301893e-05
4.14230184e-05
4.142301955e-05
4.142301848e-05
4.142301775e-05
4.14230179e-05
4.142301714e-05
4.142301759e-05
4.142301637e-05
4.142301576e-05
4.142301564e-05
4.142301706e-05
4.142301633e-05
4.142301629e-05
4.142301744e-05
4.142301717e-05
4.142301821e-05
4.14230169e-05
4.142301648e-05
4.142301687e-05
4.142301633e-05
4.142301717e-05
4.142301595e-05
4.142301671e-05
4.142301702e-05
4.142301713e-05
4.142301702e-05
4.142301748e-05
4.14230166e-05
4.142301679e-05
4.142301729e-05
4.142301576e-05
4.14230151e-05
4.142301495e-05
4.142301545e-05
4.142301556e-05
4.142301495e-05
4.142301472e-05
4.142301449e-05
4.142301468e-05
4.142301464e-05
4.14230143e-05
4.142301373e-05
4.142301457e-05
4.142301426e-05
4.142301403e-05
4.142301411e-05
4.142301273e-05
4.142301239e-05
4.142301181e-05
4.142301181e-05
4.142301177e-05
4.142301189e-05
4.142301193e-05
4.142301265e-05
4.142301273e-05
4.142301258e-05
4.142301181e-05
4.14230125e-05
4.142301128e-05
4.142301082e-05
4.142301013e-05
4.142301036e-05
4.142300802e-05
4.142300818e-05
4.142300841e-05
4.142300821e-05
4.142300795e-05
4.142300818e-05
4.142300821e-05
4.142300867e-05
4.142300806e-05
4.142300753e-05
4.142300764e-05
4.142300795e-05
4.142300783e-05
4.142300779e-05
4.142300783e-05
4.142300814e-05
4.142300729e-05
4.142300737e-05
4.142300752e-05
4.142300741e-05
4.142300745e-05
4.142300729e-05
4.142300775e-05
4.142300718e-05
4.142300718e-05
4.142300676e-05
4.142300722e-05
4.14230081e-05
4.142300767e-05
4.142300695e-05
4.142300721e-05
4.142300844e-05
4.142300637e-05
4.142300794e-05
4.142300748e-05
4.142300798e-05
4.14230089e-05
4.142300809e-05
4.142300821e-05
4.142300771e-05
4.142300817e-05
4.14230079e-05
4.142300721e-05
4.142300798e-05
4.142300798e-05
4.142300756e-05
4.142300725e-05
4.142300729e-05
4.142300717e-05
4.142300725e-05
4.142300702e-05
4.142300691e-05
4.142300691e-05
4.142300725e-05
4.142300752e-05
4.14230074e-05
4.14230074e-05
4.14230074e-05
4.142300725e-05
4.142300729e-05
4.142300702e-05
4.142300717e-05
4.14230074e-05
4.142300736e-05
4.142300733e-05
4.142300702e-05
4.14230071e-05
4.142300679e-05
4.142300671e-05
4.142300648e-05
4.142300668e-05
4.142300702e-05
4.142300698e-05
4.142300729e-05
4.142300725e-05
4.14230074e-05
4.142300759e-05
4.14230074e-05
4.142300778e-05
4.142300771e-05
4.142300794e-05
4.142301375e-05
4.142301421e-05
4.142301394e-05
4.142301394e-05
4.142301429e-05
4.142301425e-05
4.142301421e-05
4.142301467e-05
4.142301501e-05
4.142301459e-05
4.142301455e-05
4.142301478e-05
4.142301478e-05
4.142301486e-05
4.142301478e-05
4.142301494e-05
4.142301463e-05
4.142301379e-05
4.142301317e-05
4.142301337e-05
4.142301352e-05
4.142301386e-05
4.142301367e-05
4.142301321e-05
4.142301317e-05
4.142301287e-05
4.142301176e-05
4.142301329e-05
4.142301256e-05
4.142301317e-05
4.14230131e-05
4.142301252e-05
4.142301356e-05
4.14230131e-05
4.142301294e-05
4.142301264e-05
4.142301256e-05
4.142301283e-05
4.142301153e-05
4.142301095e-05
4.142301164e-05
4.142301057e-05
4.142301111e-05
4.142301011e-05
4.142301004e-05
4.142301153e-05
4.142301191e-05
4.142301164e-05
4.142301072e-05
4.142300977e-05
4.142301023e-05
4.142300981e-05
4.142301019e-05
4.142301099e-05
4.142301103e-05
4.142301233e-05
4.142301183e-05
4.142301191e-05
4.142301241e-05
4.14230131e-05
4.142301512e-05
4.142301623e-05
4.142301635e-05
4.142301673e-05
4.142301635e-05
4.142301765e-05
4.142301772e-05
4.142301784e-05
4.142301841e-05
4.142301895e-05
4.142301834e-05
4.142301918e-05
4.142301891e-05
4.142301891e-05
4.142301967e-05
4.142302151e-05
4.142302071e-05
4.142301948e-05
4.142301902e-05
4.142302063e-05
4.142301998e-05
4.142302067e-05
4.142302013e-05
4.142302025e-05
4.142302071e-05
4.142302201e-05
4.142302143e-05
4.142302155e-05
4.142302078e-05
4.142301952e-05
4.142301864e-05
4.142301902e-05
4.142301822e-05
4.142301807e-05
4.142301895e-05
4.142302071e-05
4.142301994e-05
4.142302067e-05
4.142302155e-05
4.142302029e-05
4.142302159e-05
4.14230235e-05
4.142302335e-05
4.142302289e-05
4.142302254e-05
4.142302384e-05
4.142302266e-05
4.142302285e-05
4.142302323e-05
4.142302166e-05
4.142302136e-05
4.142302155e-05
4.142300743e-05
4.142300842e-05
4.142300927e-05
4.14230111e-05
4.142301198e-05
4.142301248e-05
4.142301367e-05
4.142301378e-05
4.142301325e-05
4.142301397e-05
4.142301374e-05
4.14230142e-05
4.142301478e-05
4.142301332e-05
4.142301409e-05
4.142301416e-05
4.142301405e-05
4.142301416e-05
4.142301485e-05
4.142301432e-05
4.142301393e-05
4.142301393e-05
4.142301367e-05
4.142301317e-05
4.142301294e-05
4.142301263e-05
4.14230129e-05
4.142301229e-05
4.142301294e-05
4.142301336e-05
4.142301282e-05
4.142301344e-05
4.142301401e-05
4.142301454e-05
4.142301462e-05
4.142301462e-05
4.142301493e-05
4.142301428e-05
4.142301504e-05
4.142301577e-05
4.142301573e-05
4.142301558e-05
4.142301569e-05
4.142301585e-05
4.142301607e-05
4.142301585e-05
4.142301665e-05
4.14230173e-05
4.142301783e-05
4.142301726e-05
4.142301711e-05
4.14230181e-05
4.142301799e-05
4.142301768e-05
4.142301764e-05
4.142301837e-05
4.142301741e-05
4.142301718e-05
4.142301661e-05
4.1423016e-05
4.142301653e-05
4.142301669e-05
4.142301783e-05
4.142301738e-05
4.14230173e-05
4.142301933e-05
4.142301921e-05
4.142302013e-05
4.14230194e-05
4.142302024e-05
4.142302051e-05
4.142302082e-05
4.142302135e-05
4.142302177e-05
4.142302155e-05
4.142302185e-05
4.142302135e-05
4.142302093e-05
4.14230194e-05
4.142301929e-05
4.142301971e-05
4.142302021e-05
4.142301948e-05
4.142301925e-05
4.142302066e-05
4.14230204e-05
4.14230207e-05
4.142302021e-05
4.142301967e-05
4.142301982e-05
4.142302044e-05
4.142302024e-05
4.14230194e-05
4.142301921e-05
4.142301929e-05
4.142301929e-05
4.142302021e-05
4.142302143e-05
4.142302143e-05
4.142302089e-05
4.142302005e-05
4.142302036e-05
4.142302001e-05
4.142302086e-05
4.142302059e-05
4.142301971e-05
4.142301864e-05
4.142301829e-05
4.142301695e-05
4.142301634e-05
4.142301657e-05
4.14230163e-05
4.142301626e-05
4.142301649e-05
4.142301707e-05
4.142301661e-05
4.142301718e-05
4.142301822e-05
4.142301791e-05
4.142301714e-05
4.142301672e-05
4.142301665e-05
4.142301699e-05
4.142301699e-05
4.142301668e-05
4.14230163e-05
4.142301642e-05
4.142301649e-05
4.142301695e-05
4.142301577e-05
4.1423016e-05
4.142301623e-05
4.142301554e-05
4.142301565e-05
4.142301603e-05
4.142301573e-05
4.142301535e-05
4.142301492e-05
4.142301527e-05
4.142301504e-05
4.142301577e-05
4.142300427e-05
4.142300427e-05
4.14230045e-05
4.142300717e-05
4.142300717e-05
4.142300671e-05
4.142300434e-05
4.142300648e-05
4.142300564e-05
4.142301019e-05
4.142301145e-05
4.142301302e-05
4.142301325e-05
4.142301321e-05
4.142301382e-05
4.1423017e-05
4.142301952e-05
4.142302014e-05
4.142301937e-05
4.142301979e-05
4.142302262e-05
4.142302205e-05
4.14230222e-05
4.142302151e-05
4.142302147e-05
4.14230201e-05
4.142301948e-05
4.142302032e-05
4.142302048e-05
4.142301803e-05
4.142301722e-05
4.142301665e-05
4.142301699e-05
4.142301734e-05
4.142301722e-05
4.14230155e-05
4.142301497e-05
4.142301527e-05
4.142301508e-05
4.142301596e-05
4.142301638e-05
4.142301588e-05
4.142301634e-05
4.142301676e-05
4.142301646e-05
4.142301516e-05
4.142301577e-05
4.142301538e-05
4.142301481e-05
4.142301558e-05
4.142301359e-05
4.142301401e-05
4.142301401e-05
4.142301324e-05
4.142301336e-05
4.142301336e-05
4.142301301e-05
4.142301297e-05
4.142301286e-05
4.142301274e-05
4.142301297e-05
4.142301312e-05
4.142301328e-05
4.142301278e-05
4.142301251e-05
4.142301339e-05
4.142301339e-05
4.142301339e-05
4.142301301e-05
4.142301289e-05
4.142301297e-05
4.142301309e-05
4.142301331e-05
4.142301331e-05
4.142301286e-05
4.142301251e-05
4.142301209e-05
4.142301209e-05
4.142301194e-05
4.14230119e-05
4.142301194e-05
4.142301194e-05
4.142301175e-05
4.142301174e-05
4.142301148e-05
4.142301163e-05
4.142301174e-05
4.142301125e-05
4.14230114e-05
4.142301128e-05
4.142301117e-05
4.142301071e-05
4.142301067e-05
4.142301228e-05
4.142301262e-05
4.142301312e-05
4.14230117e-05
4.142301037e-05
4.142301044e-05
4.142301037e-05
4.142301014e-05
4.142300983e-05
4.142300937e-05
4.142300883e-05
4.14230088e-05
4.142300895e-05
4.142300883e-05
4.14230088e-05
4.142300883e-05
4.142300883e-05
4.142300903e-05
4.142300903e-05
4.142300868e-05
4.142300887e-05
4.142300887e-05
4.142300883e-05
4.142300876e-05
4.142300906e-05
4.142300933e-05
4.142300933e-05
4.142300925e-05
4.14230086e-05
4.142300879e-05
4.142300879e-05
4.142300914e-05
4.142300941e-05
4.142300945e-05
4.142300964e-05
4.142300964e-05
4.142300983e-05
4.142300983e-05
4.142300967e-05
4.142300937e-05
4.142300937e-05
4.142300895e-05
4.142300929e-05
4.142300929e-05
4.142300929e-05
4.142300941e-05
4.142300941e-05
4.142300906e-05
4.142300906e-05
4.142300883e-05
4.142300875e-05
4.142300875e-05
4.142300875e-05
4.142300887e-05
4.142300887e-05
4.142300887e-05
4.142300887e-05
4.142300875e-05
4.142300902e-05
4.142300925e-05
4.142300959e-05
4.14230096e-05
4.142300944e-05
4.142300944e-05
4.14230094e-05
4.14230094e-05
4.142300936e-05
4.142300913e-05
4.142300913e-05
4.142300902e-05
4.142300852e-05
4.142300852e-05
4.142300799e-05
4.14230081e-05
4.142300841e-05
4.142300841e-05
4.142300833e-05
4.142300814e-05
4.142300818e-05
4.142300867e-05
4.142300867e-05
4.142300818e-05
4.142300829e-05
4.142300795e-05
4.142300795e-05
4.142300783e-05
4.142300779e-05
4.142300814e-05
4.142300814e-05
4.142300733e-05
4.142300752e-05
4.142300752e-05
4.142300745e-05
4.142300745e-05
4.142300775e-05
4.142300775e-05
4.142300718e-05
4.142300718e-05
4.142300699e-05
4.14230081e-05
4.14230081e-05
4.142300787e-05
4.14230071e-05
4.142300844e-05
4.142300844e-05
4.142300844e-05
4.142300794e-05
4.142300794e-05
4.142300817e-05
4.14230089e-05
4.14230089e-05
4.142300821e-05
4.142300821e-05
4.142300817e-05
4.142300817e-05
4.142300721e-05
4.142300798e-05
4.142300798e-05
4.142300798e-05
4.14230074e-05
4.142300729e-05
4.142300729e-05
4.142300725e-05
4.142300725e-05
4.142300698e-05
4.142300691e-05
4.14230074e-05
4.142300752e-05
4.142300752e-05
4.14230074e-05
4.14230074e-05
4.14230074e-05
4.142300729e-05
4.142300729e-05
4.142300725e-05
4.14230074e-05
4.14230074e-05
4.142300737e-05
4.142300733e-05
4.14230071e-05
4.14230071e-05
4.142300675e-05
4.142300668e-05
4.142300679e-05
4.142300702e-05
4.142300702e-05
4.142300729e-05
4.142300729e-05
4.142300748e-05
4.142300759e-05
4.142300759e-05
4.142300778e-05
4.142300771e-05
4.142300794e-05
4.142300794e-05
4.142300786e-05
4.142300771e-05
4.142300794e-05
4.142300798e-05
4.142300798e-05
4.142300805e-05
4.142300805e-05
4.142300798e-05
4.14230079e-05
4.142300786e-05
4.142300786e-05
4.142300744e-05
4.14230074e-05
4.142300778e-05
4.14230079e-05
4.14230079e-05
4.14230079e-05
4.142300809e-05
4.142300832e-05
4.142300832e-05
4.14230084e-05
4.14230084e-05
4.14230084e-05
4.142300805e-05
4.142300778e-05
4.142300763e-05
4.142300786e-05
4.142300809e-05
4.142300809e-05
4.142300809e-05
4.142300797e-05
4.142300805e-05
4.142300805e-05
4.142300786e-05
4.142300728e-05
4.142300725e-05
4.142300721e-05
4.142300732e-05
4.142300732e-05
4.142300728e-05
4.142300728e-05
4.142300751e-05
4.142300786e-05
4.142300786e-05
4.142300755e-05
4.142300755e-05
4.142300728e-05
4.142300728e-05
4.14230074e-05
4.14230074e-05
4.142300724e-05
4.142300732e-05
4.142300732e-05
4.142300728e-05
4.14230074e-05
4.14230074e-05
4.142300713e-05
4.142300709e-05
4.142300713e-05
4.142300743e-05
4.142300759e-05
4.142300797e-05
4.142300805e-05
4.142300805e-05
4.142300789e-05
4.142300789e-05
4.142300782e-05
4.142300816e-05
4.142300839e-05
4.142300862e-05
4.142300797e-05
4.142300789e-05
4.142300782e-05
4.142300782e-05
4.142300801e-05
4.142300801e-05
4.142300801e-05
4.142300801e-05
4.14230085e-05
4.14230087e-05
4.14230087e-05
4.142300854e-05
4.142300893e-05
4.142300892e-05
4.142300835e-05
4.142300793e-05
4.142300793e-05
4.142300778e-05
4.142300793e-05
4.142300804e-05
4.142300804e-05
4.142300797e-05
4.142300797e-05
4.142300801e-05
4.142300804e-05
4.142300858e-05
4.142300862e-05
4.142300862e-05
4.142300862e-05
4.142300801e-05
4.1423008e-05
4.142300774e-05
4.142300755e-05
4.142300755e-05
4.142300758e-05
4.142300781e-05
4.142300766e-05
4.142300816e-05
4.14230082e-05
4.14230082e-05
4.142300808e-05
4.142300827e-05
4.142300827e-05
4.142300793e-05
4.142300881e-05
4.1423008e-05
4.142300797e-05
4.142300797e-05
4.142300797e-05
4.142300816e-05
4.1423008e-05
4.142300804e-05
4.142300827e-05
4.14230082e-05
4.142300831e-05
4.142300831e-05
4.142300866e-05
4.142300858e-05
4.14230085e-05
4.142300866e-05
4.142300854e-05
4.142300854e-05
4.1423009e-05
4.142300908e-05
4.142300873e-05
4.142300854e-05
4.142300865e-05
4.142300862e-05
4.142300835e-05
4.142300812e-05
4.1423008e-05
4.14230082e-05
4.142300881e-05
4.142300923e-05
4.142300888e-05
4.142300892e-05
4.142300904e-05
4.142300919e-05
4.142300915e-05
4.142300923e-05
4.142300923e-05
4.142300915e-05
4.142300885e-05
4.14230093e-05
4.14230093e-05
4.142300942e-05
4.142300904e-05
4.142300934e-05
4.142300915e-05
4.142300877e-05
4.142300907e-05
4.142300911e-05
4.142300911e-05
4.142300953e-05
4.142300934e-05
4.142300919e-05
4.142300904e-05
4.142300927e-05
4.142300934e-05
4.142300953e-05
4.142300911e-05
4.142300904e-05
4.142300881e-05
4.142300907e-05
4.142300904e-05
4.142300927e-05
4.14230095e-05
4.142300946e-05
4.142300919e-05
4.142300942e-05
4.142300911e-05
4.142300896e-05
4.142300915e-05
4.142300957e-05
4.14230098e-05
4.142300972e-05
4.142300972e-05
4.142300961e-05
4.142300999e-05
4.142300995e-05
4.142300988e-05
4.142300988e-05
4.142301011e-05
4.142301022e-05
4.142301034e-05
4.142301057e-05
4.142301064e-05
4.142301095e-05
4.142301152e-05
4.142301152e-05
4.142301118e-05
4.142301064e-05
4.14230106e-05
4.142301091e-05
4.14230111e-05
4.142301091e-05
4.142301091e-05
4.142301068e-05
4.142301045e-05
4.142301037e-05
4.142301041e-05
4.142301053e-05
4.142301041e-05
4.142301026e-05
4.142301033e-05
4.142301037e-05
4.142301014e-05
4.142301034e-05
4.142301018e-05
4.142301034e-05
4.142301034e-05
4.142301026e-05
4.142301053e-05
4.142301057e-05
4.142301076e-05
4.142301087e-05
4.142301034e-05
4.142301045e-05
4.142301022e-05
4.142301014e-05
4.142301014e-05
4.142301018e-05
4.142301007e-05
4.142301045e-05
4.142301049e-05
4.142301064e-05
4.142301076e-05
4.142301057e-05
4.142300995e-05
4.142301007e-05
4.142300995e-05
4.142301007e-05
4.142300991e-05
4.14230098e-05
4.14230098e-05
4.14230098e-05
4.142300969e-05
4.142300949e-05
4.142300965e-05
4.14230098e-05
4.142300968e-05
4.142300934e-05
4.142300943e-05
4.142300943e-05
4.142300648e-05
4.142300633e-05
4.142300717e-05
4.14230053e-05
4.142300851e-05
4.142300912e-05
4.142300897e-05
4.142301226e-05
4.142301367e-05
4.142301375e-05
4.142301356e-05
4.142301382e-05
4.142301444e-05
4.142301677e-05
4.142301784e-05
4.142301922e-05
4.142301906e-05
4.142301853e-05
4.142301899e-05
4.142301814e-05
4.142301841e-05
4.142301811e-05
4.142301811e-05
4.142301841e-05
4.142301841e-05
4.142301749e-05
4.142301699e-05
4.142301703e-05
4.142301703e-05
4.142301699e-05
4.142301699e-05
4.142301661e-05
4.142301653e-05
4.142301562e-05
4.142301504e-05
4.142301504e-05
4.142301474e-05
4.142301489e-05
4.14230147e-05
4.142301516e-05
4.142301466e-05
4.142301431e-05
4.142301431e-05
4.142301378e-05
4.14230137e-05
4.14230137e-05
4.142301355e-05
4.142301355e-05
4.142301324e-05
4.142301404e-05
4.142301404e-05
4.142301401e-05
4.142301339e-05
4.142301336e-05
4.142301286e-05
4.142301286e-05
4.142301328e-05
4.142301328e-05
4.142301286e-05
4.142301328e-05
4.142301335e-05
4.142301351e-05
4.14230132e-05
4.14230127e-05
4.142301339e-05
4.142301339e-05
4.142301282e-05
4.142301232e-05
4.142301293e-05
4.142301301e-05
4.142301312e-05
4.142301331e-05
4.14230127e-05
4.142301236e-05
4.142301186e-05
4.142301209e-05
4.142301167e-05
4.142301106e-05
4.14230119e-05
4.142301194e-05
4.142301175e-05
4.142301174e-05
4.142301136e-05
4.142301155e-05
4.142301159e-05
4.142301048e-05
4.142301048e-05
4.142300972e-05
4.142300918e-05
4.142300922e-05
4.142300949e-05
4.142300933e-05
4.142300926e-05
4.142300899e-05
4.142300895e-05
4.142300887e-05
4.142300872e-05
4.142300757e-05
4.142300841e-05
4.142300845e-05
4.142300811e-05
4.142300807e-05
4.142300872e-05
4.142300849e-05
4.142300883e-05
4.142300864e-05
4.14230088e-05
4.142300883e-05
4.142300868e-05
4.142300903e-05
4.142300868e-05
4.142300868e-05
4.142300887e-05
4.14230088e-05
4.142300872e-05
4.142300864e-05
4.142300914e-05
4.142300933e-05
4.142300918e-05
4.14230086e-05
4.142300868e-05
4.142300879e-05
4.142300879e-05
4.142300925e-05
4.142300945e-05
4.142300948e-05
4.142300964e-05
4.142300944e-05
4.142300983e-05
4.142300956e-05
4.14230091e-05
4.142300937e-05
4.142300895e-05
4.142300895e-05
4.142300929e-05
4.142300929e-05
4.142300914e-05
4.142300941e-05
4.142300906e-05
4.142300906e-05
4.142300875e-05
4.142300864e-05
4.142300875e-05
4.142300872e-05
4.142300875e-05
4.142300887e-05
4.142300864e-05
4.142300887e-05
4.142300864e-05
4.142300887e-05
4.142300914e-05
4.142300937e-05
4.14230096e-05
4.142300933e-05
4.142300944e-05
4.142300925e-05
4.142300822e-05
4.142300837e-05
4.142300803e-05
4.142300803e-05
4.142300799e-05
4.142300822e-05
4.142300783e-05
4.142300741e-05
4.142300772e-05
4.142300795e-05
4.142300783e-05
4.142300791e-05
4.142300779e-05
4.142300852e-05
4.142300837e-05
4.142300821e-05
4.142300841e-05
4.142300829e-05
4.14230081e-05
4.142300783e-05
4.142300741e-05
4.142300821e-05
4.142300733e-05
4.142300722e-05
4.142300737e-05
4.142300737e-05
4.14230084e-05
4.14230081e-05
4.14230063e-05
4.142300714e-05
4.142300664e-05
4.142300706e-05
4.142300764e-05
4.142300676e-05
4.142300634e-05
4.142300634e-05
4.142300657e-05
4.142300672e-05
4.142300664e-05
4.142300656e-05
4.142300637e-05
4.142300699e-05
4.142300779e-05
4.142300779e-05
4.14230071e-05
4.142300706e-05
4.142300729e-05
4.142300756e-05
4.142300783e-05
4.142300748e-05
4.142300702e-05
4.142300691e-05
4.142300656e-05
4.142300649e-05
4.142300637e-05
4.142300675e-05
4.142300637e-05
4.142300633e-05
4.142300645e-05
4.142300668e-05
4.142300668e-05
4.142300683e-05
4.142300664e-05
4.142300668e-05
4.142300649e-05
4.142300652e-05
4.142300614e-05
4.142300576e-05
4.142300561e-05
4.142300553e-05
4.142300591e-05
4.142300584e-05
4.14230058e-05
4.142300572e-05
4.142300568e-05
4.142300572e-05
4.142300557e-05
4.142300572e-05
4.142300568e-05
4.142300561e-05
4.142300607e-05
4.142300584e-05
4.14230058e-05
4.142300576e-05
4.142300599e-05
4.142300591e-05
4.142300561e-05
4.14230058e-05
4.142300607e-05
4.14230058e-05
4.142300584e-05
4.142300576e-05
4.142300794e-05
4.142300798e-05
4.142300798e-05
4.142300805e-05
4.142300802e-05
4.142300794e-05
4.142300775e-05
4.142300786e-05
4.142300759e-05
4.142300713e-05
4.142300733e-05
4.142300767e-05
4.14230079e-05
4.14230079e-05
4.142300771e-05
4.142300798e-05
4.142300832e-05
4.142300828e-05
4.14230084e-05
4.14230084e-05
4.142300817e-05
4.142300786e-05
4.142300771e-05
4.142300759e-05
4.142300778e-05
4.142300809e-05
4.142300809e-05
4.142300794e-05
4.142300797e-05
4.142300805e-05
4.142300794e-05
4.142300767e-05
4.142300728e-05
4.142300721e-05
4.142300721e-05
4.142300732e-05
4.142300717e-05
4.142300728e-05
4.142300728e-05
4.142300744e-05
4.142300786e-05
4.142300744e-05
4.142300755e-05
4.142300725e-05
4.142300728e-05
4.142300717e-05
4.14230074e-05
4.142300702e-05
4.142300717e-05
4.142300732e-05
4.142300728e-05
4.142300724e-05
4.14230074e-05
4.142300721e-05
4.142300698e-05
4.142300705e-05
4.142300709e-05
4.142300736e-05
4.142300751e-05
4.142300789e-05
4.142300805e-05
4.142300789e-05
4.142300789e-05
4.142300778e-05
4.142300782e-05
4.142300808e-05
4.142300828e-05
4.142300862e-05
4.142300797e-05
4.142300782e-05
4.142300782e-05
4.142300782e-05
4.142300801e-05
4.142300793e-05
4.142300801e-05
4.142300797e-05
4.142300831e-05
4.14230087e-05
4.142300854e-05
4.142300854e-05
4.142300893e-05