/*--------------------------------*- C++ -*----------------------------------*\
| =========                 |                                                 |
| \\      /  F ield         | OpenFOAM: The Open Source CFD Toolbox           |
|  \\    /   O peration     | Version:  2312                                  |
|   \\  /    A nd           | Website:  www.openfoam.com                      |
|    \\/     M anipulation  |                                                 |
\*---------------------------------------------------------------------------*/
FoamFile
{
    version     2.0;
    format      ascii;
    arch        "LSB;label=32;scalar=64";
    class       volScalarField;
    location    "4800";
    object      p;
}
// * * * * * * * * * * * * * * * * * * * * * * * * * * * * * * * * * * * * * //

dimensions      [1 -1 -2 0 0 0 0];

internalField   nonuniform List<scalar> 
20400
(
101322.7547
101322.7544
101322.754
101322.7536
101322.7534
101322.7532
101322.753
101322.7528
101322.7527
101322.7525
101322.7524
101322.7523
101322.7522
101322.7522
101322.7521
101322.7521
101322.7521
101322.7522
101322.7523
101322.7525
101322.7527
101322.7529
101322.7532
101322.7536
101322.7539
101322.7544
101322.7549
101322.7555
101322.7561
101322.7568
101322.7575
101322.7583
101322.7591
101322.76
101322.761
101322.762
101322.7631
101322.7642
101322.7654
101322.7667
101322.768
101322.7694
101322.7708
101322.7724
101322.774
101322.7756
101322.7773
101322.7791
101322.7809
101322.7828
101322.7848
101322.7869
101322.789
101322.7911
101322.7934
101322.7957
101322.7981
101322.8005
101322.803
101322.8056
101322.8082
101322.811
101322.8138
101322.8166
101322.8195
101322.8226
101322.8256
101322.8288
101322.832
101322.8353
101322.8386
101322.8421
101322.8456
101322.8491
101322.8528
101322.8565
101322.8603
101322.8642
101322.8681
101322.8722
101322.8763
101322.8805
101322.8847
101322.889
101322.8935
101322.898
101322.9025
101322.9072
101322.9119
101322.9168
101322.9217
101322.9267
101322.9317
101322.9369
101322.9421
101322.9475
101322.9529
101322.9584
101322.964
101322.9698
101322.9756
101322.9815
101322.9875
101322.9936
101322.9997
101323.0061
101323.0125
101323.019
101323.0256
101323.0323
101323.0392
101323.0462
101323.0533
101323.0605
101323.0678
101323.0753
101323.0829
101323.0906
101323.0985
101323.1066
101323.1147
101323.1231
101323.1316
101323.1402
101323.149
101323.158
101323.1672
101323.1766
101323.1862
101323.1959
101323.2059
101323.2161
101323.2265
101323.2371
101323.248
101323.2591
101323.2705
101323.2822
101323.2941
101323.3063
101323.3189
101323.3317
101323.3448
101323.3583
101323.3721
101323.3863
101323.4008
101323.4158
101323.4311
101323.4467
101323.4628
101323.4794
101323.4963
101323.5137
101323.5316
101323.5499
101323.5686
101323.5878
101323.6075
101323.6277
101323.6483
101323.6694
101323.691
101323.713
101323.7355
101323.7585
101323.7819
101323.8057
101323.8299
101323.8545
101323.8794
101323.9046
101323.9302
101323.956
101323.9821
101324.0084
101324.0349
101324.0615
101324.0882
101324.1149
101324.1416
101324.1683
101324.1948
101324.2212
101324.2474
101324.2733
101324.2988
101324.324
101324.3488
101324.3731
101324.3969
101324.4202
101324.4429
101324.4649
101324.4863
101324.507
101324.527
101324.5461
101324.5645
101324.5819
101324.5984
101324.6142
101324.6291
101324.6431
101324.6563
101324.6687
101324.6802
101324.6909
101324.7008
101324.7099
101324.7181
101324.7256
101324.7322
101324.7381
101324.7432
101324.7477
101324.7514
101324.7545
101324.757
101324.7589
101324.7603
101324.7611
101324.7615
101324.7614
101324.761
101324.7602
101324.759
101324.7575
101324.7558
101324.7539
101324.7517
101324.7494
101324.7469
101324.7443
101324.7417
101324.7389
101324.7361
101324.7333
101324.7305
101324.7277
101324.7249
101324.7222
101324.7195
101324.7169
101324.7144
101324.712
101324.7096
101324.7074
101324.7053
101324.7033
101324.7015
101324.6998
101324.6982
101324.6968
101324.6955
101324.6944
101324.6935
101324.6927
101324.6921
101324.6916
101324.6912
101324.6911
101324.691
101324.6911
101324.6914
101324.6918
101324.6923
101324.693
101324.6938
101324.6948
101324.6958
101324.697
101324.6983
101324.6998
101324.7013
101324.7029
101324.7047
101324.7065
101324.7085
101324.7105
101324.7126
101324.7149
101324.7172
101324.7195
101324.722
101324.7245
101324.7271
101324.7297
101324.7325
101324.7352
101324.7381
101324.7409
101324.7439
101324.7469
101324.7499
101324.7529
101324.756
101324.7592
101324.7623
101324.7655
101324.7687
101324.772
101324.7752
101324.7785
101324.7818
101324.7851
101324.7885
101324.7918
101324.7952
101324.7985
101324.8019
101324.8053
101324.8087
101324.812
101324.8154
101324.8188
101324.8222
101324.8255
101324.8289
101324.8322
101324.8356
101324.8389
101324.8422
101324.8456
101324.8489
101324.8521
101324.8554
101324.8587
101324.8619
101324.8651
101324.8683
101324.8715
101324.8746
101324.8778
101324.8809
101324.884
101324.887
101324.8901
101324.8931
101324.8961
101324.8991
101324.902
101324.9049
101324.9078
101324.9107
101324.9135
101324.9163
101324.9191
101324.9218
101324.9245
101324.9272
101324.9298
101324.9325
101324.935
101324.9376
101324.9401
101324.9426
101324.9451
101324.9475
101324.9499
101324.9523
101324.9546
101324.9569
101324.9592
101324.9614
101324.9636
101324.9657
101324.9679
101324.97
101324.972
101324.974
101324.976
101324.978
101324.9799
101324.9818
101324.9836
101324.9855
101324.9872
101324.989
101324.9907
101324.9924
101324.994
101324.9956
101324.9972
101324.9988
101325.0003
101325.0018
101325.0032
101325.0046
101325.006
101325.0073
101325.0086
101325.0099
101325.0112
101325.0124
101325.0136
101325.0147
101325.0158
101325.0169
101325.0179
101325.019
101325.02
101325.0209
101325.0218
101325.0227
101325.0236
101325.0244
101325.0252
101325.026
101325.0268
101325.0275
101325.0282
101325.0288
101325.0294
101325.03
101325.0306
101325.0311
101325.0316
101325.0321
101325.0326
101325.033
101325.0334
101325.0338
101325.0341
101325.0345
101325.0348
101325.035
101325.0353
101325.0355
101325.0357
101325.0358
101325.036
101325.0361
101325.0362
101325.0363
101325.0363
101325.0363
101325.0363
101325.0363
101325.0362
101325.0362
101325.0361
101325.036
101325.0358
101325.0357
101325.0355
101325.0353
101325.0351
101325.0348
101325.0346
101325.0343
101325.034
101325.0337
101325.0333
101325.033
101325.0326
101325.0322
101325.0318
101325.0314
101325.0309
101325.0305
101325.03
101325.0295
101325.029
101325.0284
101325.0279
101325.0273
101325.0267
101325.0261
101325.0255
101325.0249
101325.0243
101325.0236
101325.0229
101325.0222
101325.0215
101325.0208
101325.0201
101325.0193
101325.0186
101325.0178
101325.017
101325.0162
101325.0154
101325.0146
101325.0137
101325.0129
101325.012
101325.0111
101325.0102
101325.0093
101325.0084
101325.0075
101325.0066
101325.0056
101325.0046
101325.0037
101325.0027
101325.0018
101325.0008
101322.755
101322.7547
101322.7544
101322.7542
101322.7539
101322.7537
101322.7535
101322.7534
101322.7532
101322.7531
101322.7529
101322.7528
101322.7527
101322.7526
101322.7526
101322.7525
101322.7526
101322.7526
101322.7528
101322.7529
101322.7531
101322.7534
101322.7537
101322.754
101322.7544
101322.7549
101322.7554
101322.7559
101322.7565
101322.7572
101322.7579
101322.7587
101322.7596
101322.7605
101322.7614
101322.7624
101322.7635
101322.7646
101322.7658
101322.7671
101322.7684
101322.7698
101322.7713
101322.7728
101322.7744
101322.776
101322.7778
101322.7795
101322.7814
101322.7833
101322.7852
101322.7873
101322.7894
101322.7916
101322.7938
101322.7961
101322.7985
101322.8009
101322.8034
101322.806
101322.8087
101322.8114
101322.8142
101322.817
101322.82
101322.823
101322.826
101322.8292
101322.8324
101322.8357
101322.839
101322.8425
101322.846
101322.8495
101322.8532
101322.8569
101322.8607
101322.8646
101322.8685
101322.8726
101322.8767
101322.8809
101322.8851
101322.8895
101322.8939
101322.8984
101322.9029
101322.9076
101322.9123
101322.9172
101322.9221
101322.9271
101322.9321
101322.9373
101322.9426
101322.9479
101322.9533
101322.9589
101322.9645
101322.9702
101322.976
101322.9819
101322.9879
101322.994
101323.0002
101323.0065
101323.0129
101323.0194
101323.0261
101323.0328
101323.0397
101323.0467
101323.0538
101323.061
101323.0683
101323.0758
101323.0834
101323.0912
101323.0991
101323.1071
101323.1153
101323.1236
101323.1321
101323.1408
101323.1496
101323.1587
101323.1679
101323.1772
101323.1868
101323.1966
101323.2066
101323.2168
101323.2272
101323.2379
101323.2487
101323.2599
101323.2713
101323.283
101323.2949
101323.3071
101323.3196
101323.3325
101323.3456
101323.3591
101323.3729
101323.3871
101323.4016
101323.4165
101323.4318
101323.4474
101323.4635
101323.48
101323.4969
101323.5142
101323.532
101323.5502
101323.5689
101323.588
101323.6076
101323.6276
101323.6482
101323.6692
101323.6906
101323.7124
101323.7347
101323.7574
101323.7805
101323.804
101323.8279
101323.8522
101323.8768
101323.9018
101323.927
101323.9526
101323.9784
101324.0043
101324.0305
101324.0568
101324.0831
101324.1095
101324.1359
101324.1623
101324.1885
101324.2146
101324.2405
101324.2661
101324.2915
101324.3164
101324.341
101324.3652
101324.3888
101324.412
101324.4345
101324.4565
101324.4778
101324.4984
101324.5183
101324.5375
101324.5559
101324.5737
101324.5907
101324.6068
101324.6222
101324.6367
101324.6503
101324.6632
101324.6752
101324.6863
101324.6966
101324.706
101324.7146
101324.7223
101324.7292
101324.7353
101324.7406
101324.7453
101324.7492
101324.7525
101324.7551
101324.7571
101324.7586
101324.7596
101324.7601
101324.7601
101324.7597
101324.759
101324.7579
101324.7565
101324.7549
101324.753
101324.7509
101324.7486
101324.7462
101324.7436
101324.741
101324.7383
101324.7355
101324.7328
101324.73
101324.7272
101324.7245
101324.7218
101324.7191
101324.7166
101324.7141
101324.7117
101324.7095
101324.7073
101324.7052
101324.7033
101324.7014
101324.6998
101324.6982
101324.6969
101324.6956
101324.6946
101324.6936
101324.6929
101324.6923
101324.6918
101324.6915
101324.6913
101324.6913
101324.6914
101324.6917
101324.6921
101324.6927
101324.6934
101324.6942
101324.6951
101324.6962
101324.6974
101324.6987
101324.7001
101324.7017
101324.7033
101324.7051
101324.707
101324.7089
101324.7109
101324.7131
101324.7153
101324.7176
101324.72
101324.7224
101324.7249
101324.7275
101324.7302
101324.7329
101324.7357
101324.7385
101324.7414
101324.7443
101324.7473
101324.7503
101324.7534
101324.7564
101324.7596
101324.7627
101324.7659
101324.7691
101324.7724
101324.7756
101324.7789
101324.7822
101324.7855
101324.7889
101324.7922
101324.7955
101324.7989
101324.8023
101324.8056
101324.809
101324.8124
101324.8157
101324.8191
101324.8225
101324.8258
101324.8292
101324.8325
101324.8359
101324.8392
101324.8425
101324.8458
101324.8491
101324.8524
101324.8556
101324.8589
101324.8621
101324.8653
101324.8685
101324.8717
101324.8748
101324.878
101324.8811
101324.8841
101324.8872
101324.8902
101324.8933
101324.8962
101324.8992
101324.9021
101324.905
101324.9079
101324.9108
101324.9136
101324.9164
101324.9192
101324.9219
101324.9246
101324.9273
101324.9299
101324.9325
101324.9351
101324.9377
101324.9402
101324.9427
101324.9451
101324.9476
101324.9499
101324.9523
101324.9546
101324.9569
101324.9592
101324.9614
101324.9636
101324.9657
101324.9679
101324.97
101324.972
101324.974
101324.976
101324.978
101324.9799
101324.9818
101324.9836
101324.9854
101324.9872
101324.989
101324.9907
101324.9924
101324.994
101324.9956
101324.9972
101324.9987
101325.0002
101325.0017
101325.0032
101325.0046
101325.0059
101325.0073
101325.0086
101325.0099
101325.0111
101325.0123
101325.0135
101325.0146
101325.0158
101325.0168
101325.0179
101325.0189
101325.0199
101325.0208
101325.0218
101325.0227
101325.0235
101325.0244
101325.0252
101325.0259
101325.0267
101325.0274
101325.0281
101325.0287
101325.0294
101325.03
101325.0305
101325.0311
101325.0316
101325.0321
101325.0325
101325.0329
101325.0333
101325.0337
101325.0341
101325.0344
101325.0347
101325.0349
101325.0352
101325.0354
101325.0356
101325.0358
101325.0359
101325.036
101325.0361
101325.0362
101325.0362
101325.0362
101325.0362
101325.0362
101325.0362
101325.0361
101325.036
101325.0359
101325.0358
101325.0356
101325.0354
101325.0352
101325.035
101325.0348
101325.0345
101325.0342
101325.0339
101325.0336
101325.0333
101325.0329
101325.0325
101325.0321
101325.0317
101325.0313
101325.0309
101325.0304
101325.0299
101325.0294
101325.0289
101325.0284
101325.0278
101325.0273
101325.0267
101325.0261
101325.0255
101325.0248
101325.0242
101325.0235
101325.0229
101325.0222
101325.0215
101325.0208
101325.02
101325.0193
101325.0185
101325.0178
101325.017
101325.0162
101325.0154
101325.0145
101325.0137
101325.0128
101325.012
101325.0111
101325.0102
101325.0093
101325.0084
101325.0074
101325.0065
101325.0056
101325.0046
101325.0036
101325.0027
101325.0018
101325.0008
101322.7555
101322.755
101322.7547
101322.7545
101322.7544
101322.7542
101322.754
101322.7538
101322.7537
101322.7535
101322.7534
101322.7532
101322.7531
101322.753
101322.753
101322.753
101322.753
101322.7531
101322.7532
101322.7533
101322.7535
101322.7538
101322.7541
101322.7544
101322.7548
101322.7553
101322.7558
101322.7563
101322.757
101322.7576
101322.7584
101322.7592
101322.76
101322.7609
101322.7618
101322.7629
101322.7639
101322.7651
101322.7663
101322.7675
101322.7688
101322.7702
101322.7717
101322.7732
101322.7748
101322.7764
101322.7781
101322.7799
101322.7818
101322.7837
101322.7856
101322.7877
101322.7898
101322.7919
101322.7942
101322.7965
101322.7989
101322.8013
101322.8038
101322.8064
101322.809
101322.8117
101322.8145
101322.8174
101322.8203
101322.8233
101322.8264
101322.8295
101322.8327
101322.836
101322.8394
101322.8428
101322.8463
101322.8499
101322.8535
101322.8573
101322.8611
101322.8649
101322.8689
101322.8729
101322.877
101322.8812
101322.8855
101322.8898
101322.8942
101322.8987
101322.9033
101322.908
101322.9127
101322.9175
101322.9224
101322.9274
101322.9325
101322.9377
101322.9429
101322.9483
101322.9537
101322.9592
101322.9649
101322.9706
101322.9764
101322.9823
101322.9883
101322.9944
101323.0006
101323.0069
101323.0133
101323.0199
101323.0265
101323.0333
101323.0401
101323.0471
101323.0542
101323.0614
101323.0688
101323.0763
101323.0839
101323.0917
101323.0996
101323.1076
101323.1158
101323.1241
101323.1327
101323.1413
101323.1502
101323.1592
101323.1684
101323.1778
101323.1873
101323.1971
101323.2071
101323.2173
101323.2277
101323.2383
101323.2492
101323.2604
101323.2717
101323.2834
101323.2953
101323.3075
101323.32
101323.3328
101323.3459
101323.3593
101323.3731
101323.3872
101323.4016
101323.4164
101323.4316
101323.4471
101323.4631
101323.4794
101323.4962
101323.5134
101323.5311
101323.5492
101323.5677
101323.5867
101323.6061
101323.6259
101323.6462
101323.6669
101323.6881
101323.7097
101323.7318
101323.7543
101323.7773
101323.8006
101323.8243
101323.8484
101323.8729
101323.8977
101323.9229
101323.9483
101323.9739
101323.9998
101324.0259
101324.0521
101324.0784
101324.1048
101324.1311
101324.1574
101324.1837
101324.2098
101324.2357
101324.2614
101324.2868
101324.3119
101324.3367
101324.3611
101324.3849
101324.4083
101324.4311
101324.4533
101324.4748
101324.4957
101324.5158
101324.5352
101324.5538
101324.5717
101324.5889
101324.6052
101324.6206
101324.6352
101324.6489
101324.6617
101324.6736
101324.6846
101324.6947
101324.7041
101324.7125
101324.7202
101324.7271
101324.7332
101324.7386
101324.7432
101324.7472
101324.7505
101324.7532
101324.7553
101324.7568
101324.7578
101324.7584
101324.7585
101324.7582
101324.7575
101324.7565
101324.7552
101324.7536
101324.7518
101324.7498
101324.7475
101324.7452
101324.7427
101324.7401
101324.7374
101324.7347
101324.732
101324.7293
101324.7265
101324.7239
101324.7212
101324.7186
101324.7161
101324.7136
101324.7113
101324.7091
101324.7069
101324.7049
101324.703
101324.7012
101324.6996
101324.6981
101324.6967
101324.6955
101324.6945
101324.6936
101324.6928
101324.6922
101324.6918
101324.6915
101324.6914
101324.6914
101324.6915
101324.6918
101324.6923
101324.6928
101324.6935
101324.6944
101324.6953
101324.6964
101324.6976
101324.699
101324.7004
101324.702
101324.7036
101324.7054
101324.7072
101324.7092
101324.7113
101324.7134
101324.7156
101324.7179
101324.7203
101324.7228
101324.7253
101324.7279
101324.7305
101324.7333
101324.736
101324.7389
101324.7417
101324.7447
101324.7476
101324.7507
101324.7537
101324.7568
101324.7599
101324.7631
101324.7663
101324.7695
101324.7727
101324.776
101324.7793
101324.7826
101324.7859
101324.7892
101324.7925
101324.7959
101324.7992
101324.8026
101324.806
101324.8093
101324.8127
101324.816
101324.8194
101324.8228
101324.8261
101324.8295
101324.8328
101324.8361
101324.8395
101324.8428
101324.8461
101324.8494
101324.8526
101324.8559
101324.8591
101324.8623
101324.8655
101324.8687
101324.8719
101324.875
101324.8782
101324.8813
101324.8843
101324.8874
101324.8904
101324.8934
101324.8964
101324.8994
101324.9023
101324.9052
101324.9081
101324.9109
101324.9137
101324.9165
101324.9193
101324.922
101324.9247
101324.9274
101324.93
101324.9326
101324.9352
101324.9378
101324.9403
101324.9428
101324.9452
101324.9476
101324.95
101324.9524
101324.9547
101324.957
101324.9592
101324.9615
101324.9636
101324.9658
101324.9679
101324.97
101324.972
101324.9741
101324.9761
101324.978
101324.9799
101324.9818
101324.9836
101324.9855
101324.9872
101324.989
101324.9907
101324.9924
101324.994
101324.9956
101324.9972
101324.9987
101325.0002
101325.0017
101325.0031
101325.0045
101325.0059
101325.0073
101325.0086
101325.0098
101325.0111
101325.0123
101325.0135
101325.0146
101325.0157
101325.0168
101325.0179
101325.0189
101325.0199
101325.0208
101325.0217
101325.0226
101325.0235
101325.0243
101325.0251
101325.0259
101325.0266
101325.0273
101325.028
101325.0287
101325.0293
101325.0299
101325.0305
101325.031
101325.0315
101325.032
101325.0325
101325.0329
101325.0333
101325.0337
101325.034
101325.0343
101325.0346
101325.0349
101325.0351
101325.0354
101325.0355
101325.0357
101325.0359
101325.036
101325.0361
101325.0361
101325.0362
101325.0362
101325.0362
101325.0362
101325.0361
101325.036
101325.036
101325.0358
101325.0357
101325.0355
101325.0354
101325.0352
101325.0349
101325.0347
101325.0344
101325.0342
101325.0339
101325.0336
101325.0332
101325.0329
101325.0325
101325.0321
101325.0317
101325.0313
101325.0308
101325.0303
101325.0299
101325.0294
101325.0288
101325.0283
101325.0278
101325.0272
101325.0266
101325.026
101325.0254
101325.0248
101325.0242
101325.0235
101325.0228
101325.0221
101325.0214
101325.0207
101325.02
101325.0192
101325.0185
101325.0177
101325.0169
101325.0161
101325.0153
101325.0145
101325.0136
101325.0128
101325.0119
101325.011
101325.0102
101325.0092
101325.0083
101325.0074
101325.0065
101325.0055
101325.0045
101325.0036
101325.0026
101325.0018
101325.0008
101322.756
101322.7553
101322.755
101322.7548
101322.7547
101322.7545
101322.7543
101322.7542
101322.754
101322.7539
101322.7537
101322.7535
101322.7534
101322.7533
101322.7533
101322.7533
101322.7534
101322.7534
101322.7535
101322.7537
101322.7539
101322.7542
101322.7545
101322.7548
101322.7552
101322.7556
101322.7561
101322.7567
101322.7573
101322.758
101322.7587
101322.7595
101322.7603
101322.7612
101322.7622
101322.7632
101322.7643
101322.7654
101322.7666
101322.7679
101322.7692
101322.7706
101322.772
101322.7735
101322.7751
101322.7768
101322.7785
101322.7802
101322.7821
101322.784
101322.7859
101322.788
101322.7901
101322.7923
101322.7945
101322.7968
101322.7992
101322.8016
101322.8041
101322.8067
101322.8093
101322.8121
101322.8148
101322.8177
101322.8206
101322.8236
101322.8267
101322.8298
101322.8331
101322.8363
101322.8397
101322.8431
101322.8466
101322.8502
101322.8539
101322.8576
101322.8614
101322.8653
101322.8692
101322.8733
101322.8774
101322.8815
101322.8858
101322.8901
101322.8946
101322.8991
101322.9036
101322.9083
101322.913
101322.9179
101322.9228
101322.9278
101322.9329
101322.938
101322.9433
101322.9486
101322.9541
101322.9596
101322.9652
101322.9709
101322.9768
101322.9827
101322.9887
101322.9948
101323.001
101323.0073
101323.0137
101323.0203
101323.0269
101323.0336
101323.0405
101323.0475
101323.0546
101323.0618
101323.0692
101323.0767
101323.0843
101323.092
101323.0999
101323.108
101323.1162
101323.1245
101323.133
101323.1417
101323.1505
101323.1595
101323.1686
101323.178
101323.1875
101323.1973
101323.2072
101323.2173
101323.2277
101323.2383
101323.2491
101323.2602
101323.2715
101323.283
101323.2949
101323.307
101323.3194
101323.3321
101323.3451
101323.3584
101323.372
101323.386
101323.4004
101323.415
101323.4301
101323.4455
101323.4613
101323.4775
101323.4942
101323.5112
101323.5288
101323.5466
101323.5649
101323.5837
101323.6029
101323.6226
101323.6428
101323.6635
101323.6846
101323.7062
101323.7282
101323.7507
101323.7736
101323.7969
101323.8207
101323.8449
101323.8695
101323.8944
101323.9196
101323.9452
101323.971
101323.997
101324.0232
101324.0496
101324.0761
101324.1026
101324.1292
101324.1557
101324.1822
101324.2085
101324.2346
101324.2604
101324.2861
101324.3114
101324.3364
101324.3609
101324.3849
101324.4085
101324.4314
101324.4537
101324.4754
101324.4964
101324.5166
101324.5361
101324.5547
101324.5724
101324.5893
101324.6054
101324.6206
101324.6349
101324.6484
101324.661
101324.6726
101324.6835
101324.6935
101324.7026
101324.711
101324.7186
101324.7253
101324.7314
101324.7367
101324.7413
101324.7452
101324.7485
101324.7511
101324.7532
101324.7548
101324.7558
101324.7564
101324.7565
101324.7563
101324.7556
101324.7547
101324.7534
101324.7519
101324.7501
101324.7481
101324.746
101324.7437
101324.7412
101324.7387
101324.7361
101324.7335
101324.7308
101324.7281
101324.7254
101324.7228
101324.7202
101324.7176
101324.7152
101324.7128
101324.7105
101324.7083
101324.7062
101324.7042
101324.7023
101324.7006
101324.699
101324.6975
101324.6962
101324.695
101324.694
101324.6931
101324.6924
101324.6919
101324.6915
101324.6912
101324.6911
101324.6912
101324.6914
101324.6917
101324.6921
101324.6927
101324.6935
101324.6943
101324.6953
101324.6964
101324.6977
101324.699
101324.7005
101324.702
101324.7037
101324.7055
101324.7074
101324.7093
101324.7114
101324.7136
101324.7158
101324.7181
101324.7205
101324.723
101324.7255
101324.7281
101324.7308
101324.7335
101324.7363
101324.7391
101324.742
101324.7449
101324.7479
101324.7509
101324.754
101324.7571
101324.7602
101324.7634
101324.7666
101324.7698
101324.773
101324.7763
101324.7796
101324.7829
101324.7862
101324.7895
101324.7928
101324.7962
101324.7995
101324.8029
101324.8063
101324.8096
101324.813
101324.8163
101324.8197
101324.8231
101324.8264
101324.8298
101324.8331
101324.8364
101324.8398
101324.8431
101324.8464
101324.8496
101324.8529
101324.8562
101324.8594
101324.8626
101324.8658
101324.869
101324.8721
101324.8753
101324.8784
101324.8815
101324.8846
101324.8876
101324.8907
101324.8937
101324.8966
101324.8996
101324.9025
101324.9054
101324.9083
101324.9111
101324.9139
101324.9167
101324.9195
101324.9222
101324.9249
101324.9276
101324.9302
101324.9328
101324.9354
101324.9379
101324.9404
101324.9429
101324.9454
101324.9478
101324.9502
101324.9525
101324.9548
101324.9571
101324.9593
101324.9616
101324.9637
101324.9659
101324.968
101324.9701
101324.9721
101324.9742
101324.9761
101324.9781
101324.98
101324.9819
101324.9837
101324.9855
101324.9873
101324.989
101324.9907
101324.9924
101324.9941
101324.9957
101324.9972
101324.9988
101325.0003
101325.0017
101325.0032
101325.0046
101325.0059
101325.0073
101325.0086
101325.0099
101325.0111
101325.0123
101325.0135
101325.0146
101325.0157
101325.0168
101325.0179
101325.0189
101325.0199
101325.0208
101325.0217
101325.0226
101325.0235
101325.0243
101325.0251
101325.0259
101325.0266
101325.0273
101325.028
101325.0287
101325.0293
101325.0299
101325.0305
101325.031
101325.0315
101325.032
101325.0324
101325.0329
101325.0333
101325.0336
101325.034
101325.0343
101325.0346
101325.0349
101325.0351
101325.0353
101325.0355
101325.0357
101325.0358
101325.0359
101325.036
101325.0361
101325.0361
101325.0362
101325.0362
101325.0361
101325.0361
101325.036
101325.0359
101325.0358
101325.0357
101325.0355
101325.0353
101325.0351
101325.0349
101325.0347
101325.0344
101325.0341
101325.0338
101325.0335
101325.0332
101325.0328
101325.0324
101325.0321
101325.0316
101325.0312
101325.0308
101325.0303
101325.0298
101325.0293
101325.0288
101325.0283
101325.0277
101325.0272
101325.0266
101325.026
101325.0254
101325.0248
101325.0241
101325.0235
101325.0228
101325.0221
101325.0214
101325.0207
101325.02
101325.0192
101325.0184
101325.0177
101325.0169
101325.0161
101325.0153
101325.0144
101325.0136
101325.0128
101325.0119
101325.011
101325.0101
101325.0092
101325.0083
101325.0074
101325.0064
101325.0055
101325.0045
101325.0036
101325.0026
101325.0018
101325.0009
101322.7564
101322.7556
101322.7552
101322.755
101322.7549
101322.7547
101322.7546
101322.7544
101322.7542
101322.7541
101322.7539
101322.7538
101322.7537
101322.7536
101322.7536
101322.7536
101322.7536
101322.7537
101322.7538
101322.754
101322.7542
101322.7545
101322.7548
101322.7551
101322.7555
101322.7559
101322.7564
101322.757
101322.7576
101322.7583
101322.759
101322.7598
101322.7607
101322.7616
101322.7625
101322.7635
101322.7646
101322.7657
101322.7669
101322.7682
101322.7695
101322.7709
101322.7723
101322.7739
101322.7754
101322.7771
101322.7788
101322.7806
101322.7824
101322.7843
101322.7863
101322.7883
101322.7905
101322.7926
101322.7949
101322.7972
101322.7996
101322.802
101322.8045
101322.8071
101322.8097
101322.8124
101322.8152
101322.8181
101322.821
101322.824
101322.8271
101322.8302
101322.8335
101322.8367
101322.8401
101322.8435
101322.847
101322.8506
101322.8543
101322.858
101322.8618
101322.8657
101322.8696
101322.8737
101322.8778
101322.882
101322.8862
101322.8906
101322.895
101322.8995
101322.9041
101322.9087
101322.9135
101322.9183
101322.9232
101322.9282
101322.9333
101322.9385
101322.9437
101322.949
101322.9545
101322.96
101322.9656
101322.9713
101322.9771
101322.983
101322.989
101322.9951
101323.0012
101323.0075
101323.0139
101323.0204
101323.0271
101323.0338
101323.0406
101323.0476
101323.0547
101323.0619
101323.0692
101323.0767
101323.0843
101323.092
101323.0998
101323.1078
101323.116
101323.1243
101323.1327
101323.1413
101323.1501
101323.1591
101323.1682
101323.1775
101323.1869
101323.1966
101323.2064
101323.2165
101323.2268
101323.2373
101323.248
101323.259
101323.2702
101323.2817
101323.2934
101323.3054
101323.3177
101323.3303
101323.3432
101323.3564
101323.3699
101323.3838
101323.398
101323.4126
101323.4276
101323.4429
101323.4587
101323.4748
101323.4914
101323.5084
101323.5259
101323.5438
101323.5622
101323.581
101323.6003
101323.6201
101323.6403
101323.661
101323.6822
101323.7039
101323.726
101323.7486
101323.7716
101323.795
101323.8189
101323.8432
101323.8679
101323.8929
101323.9183
101323.944
101323.97
101323.9962
101324.0225
101324.0491
101324.0757
101324.1024
101324.1292
101324.1559
101324.1825
101324.2089
101324.2352
101324.2611
101324.2868
101324.3121
101324.337
101324.3614
101324.3854
101324.4088
101324.4316
101324.4538
101324.4754
101324.4962
101324.5163
101324.5356
101324.5541
101324.5717
101324.5885
101324.6044
101324.6194
101324.6336
101324.6469
101324.6593
101324.6709
101324.6816
101324.6915
101324.7006
101324.7089
101324.7163
101324.723
101324.729
101324.7342
101324.7388
101324.7427
101324.7459
101324.7485
101324.7506
101324.7521
101324.7532
101324.7537
101324.7539
101324.7536
101324.753
101324.752
101324.7508
101324.7493
101324.7476
101324.7456
101324.7435
101324.7413
101324.7389
101324.7364
101324.7339
101324.7313
101324.7287
101324.7261
101324.7235
101324.7209
101324.7184
101324.7159
101324.7135
101324.7112
101324.7089
101324.7068
101324.7048
101324.7028
101324.701
101324.6994
101324.6978
101324.6964
101324.6952
101324.694
101324.6931
101324.6922
101324.6916
101324.6911
101324.6907
101324.6905
101324.6905
101324.6906
101324.6908
101324.6912
101324.6917
101324.6923
101324.6931
101324.694
101324.695
101324.6962
101324.6974
101324.6988
101324.7003
101324.7019
101324.7036
101324.7054
101324.7073
101324.7093
101324.7114
101324.7136
101324.7158
101324.7182
101324.7206
101324.7231
101324.7256
101324.7282
101324.7309
101324.7336
101324.7364
101324.7393
101324.7422
101324.7451
101324.7481
101324.7512
101324.7542
101324.7573
101324.7605
101324.7636
101324.7668
101324.7701
101324.7733
101324.7766
101324.7798
101324.7832
101324.7865
101324.7898
101324.7931
101324.7965
101324.7998
101324.8032
101324.8066
101324.8099
101324.8133
101324.8167
101324.82
101324.8234
101324.8267
101324.8301
101324.8334
101324.8368
101324.8401
101324.8434
101324.8467
101324.85
101324.8532
101324.8565
101324.8597
101324.8629
101324.8661
101324.8693
101324.8725
101324.8756
101324.8787
101324.8818
101324.8849
101324.8879
101324.8909
101324.8939
101324.8969
101324.8999
101324.9028
101324.9057
101324.9085
101324.9114
101324.9142
101324.917
101324.9197
101324.9224
101324.9251
101324.9278
101324.9304
101324.933
101324.9356
101324.9381
101324.9406
101324.9431
101324.9456
101324.948
101324.9503
101324.9527
101324.955
101324.9573
101324.9595
101324.9617
101324.9639
101324.9661
101324.9682
101324.9703
101324.9723
101324.9743
101324.9763
101324.9782
101324.9801
101324.982
101324.9838
101324.9856
101324.9874
101324.9892
101324.9909
101324.9925
101324.9942
101324.9958
101324.9973
101324.9989
101325.0004
101325.0018
101325.0033
101325.0047
101325.006
101325.0074
101325.0087
101325.0099
101325.0112
101325.0124
101325.0135
101325.0147
101325.0158
101325.0169
101325.0179
101325.0189
101325.0199
101325.0209
101325.0218
101325.0227
101325.0235
101325.0244
101325.0252
101325.0259
101325.0267
101325.0274
101325.028
101325.0287
101325.0293
101325.0299
101325.0305
101325.031
101325.0315
101325.032
101325.0325
101325.0329
101325.0333
101325.0337
101325.034
101325.0343
101325.0346
101325.0349
101325.0351
101325.0353
101325.0355
101325.0357
101325.0358
101325.0359
101325.036
101325.0361
101325.0361
101325.0362
101325.0361
101325.0361
101325.0361
101325.036
101325.0359
101325.0358
101325.0357
101325.0355
101325.0353
101325.0351