/*--------------------------------*- C++ -*----------------------------------*\
| =========                 |                                                 |
| \\      /  F ield         | OpenFOAM: The Open Source CFD Toolbox           |
|  \\    /   O peration     | Version:  2312                                  |
|   \\  /    A nd           | Website:  www.openfoam.com                      |
|    \\/     M anipulation  |                                                 |
\*---------------------------------------------------------------------------*/
FoamFile
{
    version     2.0;
    format      ascii;
    arch        "LSB;label=32;scalar=64";
    class       surfaceScalarField;
    location    "4800";
    object      phi;
}
// * * * * * * * * * * * * * * * * * * * * * * * * * * * * * * * * * * * * * //

dimensions      [1 0 -1 0 0 0 0];

oriented        oriented;

internalField   nonuniform List<scalar> 
40240
(
1.83213102e-05
-1.832130887e-05
1.235745341e-05
5.963854382e-06
-1.616067465e-05
2.851813079e-05
-6.23037785e-05
4.61431039e-05
-0.0001217267257
5.942294683e-05
-0.0001902238869
6.849716101e-05
-0.0002641602927
7.39364044e-05
-0.0003410655022
7.69052121e-05
-0.0004196304182
7.856491513e-05
-0.0004993172758
7.968685643e-05
-0.0005799586942
8.064141815e-05
-0.0006615098589
8.155116596e-05
-0.0007439764642
8.246660511e-05
-0.0008273008669
8.332440347e-05
-0.0009113170546
8.40161867e-05
-0.0009958733594
8.455630333e-05
-0.001080680665
8.480730675e-05
-0.001165410194
8.472952923e-05
-0.001249879114
8.446892085e-05
-0.00133406145
8.418233481e-05
-0.001417982259
8.392081025e-05
-0.001501674669
8.369241e-05
-0.001585167559
8.349288799e-05
-0.001668435788
8.326823058e-05
-0.00175136143
8.292564324e-05
-0.001833776982
8.241554863e-05
-0.001915533832
8.175685168e-05
-0.001996541308
8.10074743e-05
-0.002076772589
8.023128081e-05
-0.002156261271
7.948867776e-05
-0.002235109188
7.884792042e-05
-0.002313486329
7.837714364e-05
-0.002391576946
7.809061193e-05
-0.002469516923
7.793997955e-05
-0.002547425535
7.790861018e-05
-0.002625362019
7.793648432e-05
-0.002703163927
7.780191193e-05
-0.002780508911
7.734497955e-05
-0.002857179646
7.667073755e-05
-0.00293315214
7.597249111e-05
-0.003008489967
7.533782597e-05
-0.003083263653
7.477368611e-05
-0.003157528436
7.426478251e-05
-0.003231325331
7.379689382e-05
-0.00330468513
7.335980194e-05
-0.003377631156
7.294602403e-05
-0.003450181149
7.254999167e-05
-0.003522349037
7.216788757e-05
-0.003594145884
7.17968471e-05
-0.003665578214
7.143233378e-05
-0.003736645109
7.106689097e-05
-0.003807342919
7.06978109e-05
-0.003877679828
7.03369112e-05
-0.003947666367
6.998653878e-05
-0.004017249391
6.958302355e-05
-0.004086301635
6.905224373e-05
-0.004154860063
6.855843064e-05
-0.004223318895
6.845883291e-05
-0.004291890149
6.857125417e-05
-0.004360284235
6.839408408e-05
-0.004428290353
6.800612028e-05
-0.004495893141
6.760278741e-05
-0.004563133808
6.724066767e-05
-0.004630050977
6.691716716e-05
-0.004696674168
6.662319132e-05
-0.004763027178
6.635300921e-05
-0.004829130278
6.610309877e-05
-0.004895001379
6.587110402e-05
-0.004960656823
6.565544373e-05
-0.005026111911
6.545508565e-05
-0.00509138112
6.526921313e-05
-0.005156478097
6.509697347e-05
-0.005221415814
6.493772178e-05
-0.005286207275
6.479145979e-05
-0.005350866141
6.465886708e-05
-0.005415406999
6.454085668e-05
-0.005479845183
6.443818583e-05
-0.005544196532
6.435134807e-05
-0.005608477393
6.428086028e-05
-0.005672704731
6.422734211e-05
-0.0057368959
6.419116802e-05
-0.005801068032
6.417212953e-05
-0.005865238163
6.417013252e-05
-0.005929424744
6.418657666e-05
-0.005993648688
6.422394648e-05
-0.006057933125
6.42844383e-05
-0.00612230394
6.437081253e-05
-0.006186789463
6.448552334e-05
-0.006251417597
6.46281321e-05
-0.006316214887
6.479729033e-05
-0.00638120541
6.499052132e-05
-0.006446401226
6.519581829e-05
-0.006511790625
6.538939651e-05
-0.006577364304
6.557368142e-05
-0.006643168141
6.580383506e-05
-0.006709250498
6.608236001e-05
-0.006775652806
6.640230928e-05
-0.006842411977
6.675916971e-05
-0.006909563527
6.715154947e-05
-0.006977143013
6.757948626e-05
-0.007045189326
6.804631195e-05
-0.00711374602
6.85566949e-05
-0.007182853928
6.910790719e-05
-0.007252551723
6.969779756e-05
-0.00732287554
7.032381689e-05
-0.007393860793
7.09852536e-05
-0.007465543697
7.168290277e-05
-0.007537961129
7.241743382e-05
-0.007611148879
7.318774973e-05
-0.007685139674
7.399079615e-05
-0.007759964525
7.482484979e-05
-0.00783565897
7.569444388e-05
-0.007912269214
7.661024516e-05
-0.007989853375
7.758416108e-05
-0.008068479879
7.862650375e-05
-0.008148216953
7.973707524e-05
-0.008229121423
8.090447084e-05
-0.008311247397
8.212597297e-05
-0.008394650136
8.340274021e-05
-0.008479388289
8.473815421e-05
-0.008565519349
8.613105861e-05
-0.008653085802
8.75664544e-05
-0.008742105322
8.901951891e-05
-0.008832590486
9.048516341e-05
-0.008924563417
9.197293324e-05
-0.00901796098
9.339756179e-05
-0.00911286517
9.490419358e-05
-0.009209351578
9.648640511e-05
-0.009307493475
9.814189684e-05
-0.009407326456
9.983298338e-05
-0.009508873719
0.0001015472607
-0.009612135219
0.0001032614997
-0.009717084098
0.0001049488809
-0.009823662541
0.0001065784414
-0.009931776186
0.0001081136464
-0.01004131401
0.0001095378204
-0.01015218018
0.0001108661717
-0.0102642815
0.000112101325
-0.01037749876
0.000113217259
-0.01049179303
0.0001142942691
-0.01060706397
0.0001152709342
-0.01072319575
0.0001161317832
-0.01084003321
0.00011683746
-0.0109573448
0.0001173115865
-0.01107477031
0.0001174255126
-0.0111918824
0.0001171120889
-0.01130832269
0.0001164402914
-0.01142376065
0.000115437956
-0.01153804243
0.000114281778
-0.01165092982
0.000112887398
-0.01176207298
0.0001111431564
-0.01187091139
0.0001088384122
-0.01197664096
0.0001057295749
-0.01207842615
0.00010178518
-0.01217565412
9.722798241e-05
-0.01226761122
9.195709333e-05
-0.01235409693
8.648570663e-05
-0.01243438978
8.029285104e-05
-0.01250787744
7.348766013e-05
-0.01257425681
6.637937477e-05
-0.01263263873
5.838192198e-05
-0.01268072601
4.808727092e-05
-0.01271850662
3.778061958e-05
-0.01274538783
2.68812114e-05
-0.01276119867
1.581083609e-05
-0.01276652803
5.329357963e-06
-0.0127586519
-7.876123461e-06
-0.01273606568
-2.25862235e-05
-0.01269908571
-3.697996695e-05
-0.01264688761
-5.219809635e-05
-0.01257855937
-6.832825231e-05
-0.01249328184
-8.527752443e-05
-0.01239022227
-0.0001030595732
-0.01226864329
-0.0001215789767
-0.01212793216
-0.0001407111282
-0.01196757623
-0.0001603559261
-0.01178714573
-0.0001804305072
-0.01158629871
-0.000200847018
-0.01136479526
-0.0002215034453
-0.01112251073
-0.0002422845292
-0.01085944327
-0.0002630674618
-0.01057572022
-0.0002837230575
-0.01027158433
-0.0003041358889
-0.009947269905
-0.0003243144217
-0.009602707386
-0.0003445625218
-0.009238132253
-0.0003645751329
-0.008861146621
-0.0003769856277
-0.00846421178
-0.0003969348423
-0.008051945783
-0.0004122659949
-0.007624013543
-0.0004279322417
-0.00718070021
-0.0004433133291
-0.006722688391
-0.0004580118208
-0.006250847253
-0.0004718411387
-0.005766241309
-0.0004846059458
-0.005270092989
-0.0004961483188
-0.004763750783
-0.0005063422057
-0.004248557665
-0.0005151931185
-0.003725196366
-0.0005233612995
-0.003193065682
-0.0005321306811
-0.002661273045
-0.0005317926398
-0.002129906782
-0.0005313662612
-0.001598539739
-0.0005313670413
-0.001067911901
-0.0005306278397
-0.0005392909003
-0.0005286209995
-1.388335312e-05
-0.0005254075459
0.0005093920535
-0.0005232754069
0.001031504087
-0.0005221120329
0.001551157139
-0.0005196530523
0.002066245927
-0.0005150887889
0.002574783654
-0.0005085377277
0.003075062251
-0.0005002785927
0.003565606365
-0.0004905441153
0.004045142202
-0.0004795358368
0.004512579338
-0.0004674371366
0.004966987378
-0.0004544080415
0.005407571059
-0.0004405836813
0.005833650889
-0.0004260798289
0.006244651441
-0.0004110005502
0.006640097388
-0.00039544595
0.007019615654
-0.0003795182649
0.00738293466
-0.0003633190089
0.00772986987
-0.000346935208
0.008060320269
-0.0003304503992
0.008374088384
-0.0003137681122
0.008670891188
-0.0002968028064
0.008950710977
-0.0002798197896
0.009213683917
-0.0002629729363
0.009460298429
-0.0002466145155
0.009690737254
-0.0002304388245
0.009905087163
-0.0002143499061
0.01010356244
-0.000198475273
0.01028646206
-0.0001828996297
0.01045411906
-0.0001676569925
0.01060703877
-0.0001529197105
0.01074587376
-0.000138834992
0.01087101871
-0.0001251449504
0.01098284945
-0.0001118307477
0.01108177503
-9.892557147e-05
0.01116823535
-8.646032071e-05
0.01124269169
-7.445634389e-05
0.01130561206
-6.292036318e-05
0.01135752931
-5.191725554e-05
0.01139895855
-4.142923781e-05
0.01143032608
-3.136753007e-05
0.01145198471
-2.165862452e-05
0.0114646104
-1.26256983e-05
0.01146902525
-4.414849413e-06
0.01146606786
2.957386656e-06
0.01145643244
9.635421143e-06
0.01143876436
1.766808405e-05
0.01141419634
2.456801829e-05
0.01138288225
3.131409026e-05
0.01134539552
3.748673017e-05
0.01130215171
4.324381536e-05
0.0112535686
4.858310706e-05
0.01120005558
5.351302504e-05
0.0111420047
5.805087389e-05
0.01107979599
6.220871522e-05
0.01101379225
6.600373569e-05
0.01094433118
6.946107776e-05
0.01087172432
7.260685021e-05
0.01079626041
7.546391834e-05
0.01071821548
7.804493263e-05
0.0106378704
8.034507237e-05
0.01055549482
8.237558251e-05
0.0104712964
8.419841508e-05
0.0103855057
8.579071071e-05
0.01029834955
8.715613857e-05
0.01021004991
8.829964913e-05
0.01012078307
8.926683228e-05
0.01003069147
9.009160408e-05
0.009939946644
9.0744826e-05
0.009848712605
9.123403898e-05
0.009757141926
9.157067636e-05
0.009665380125
9.176180267e-05
0.009573577866
9.180225792e-05
0.009481860562
9.171730678e-05
0.009390342162
9.151839829e-05
0.009299131172
9.121099044e-05
0.0092083249
9.080627079e-05
0.009118008922
9.03159771e-05
0.009028275215
8.973370953e-05
0.00893922413
8.905108293e-05
0.008850939465
8.82846656e-05
0.008763480927
8.745853975e-05
0.008676911619
8.656930661e-05
0.008591302211
8.560940733e-05
0.008506706064
8.459614695e-05
0.008423163372
8.35426909e-05
0.008340715583
8.2447793e-05
0.008259407693
8.13078868e-05
0.00817928051
8.012718709e-05
0.008100369397
7.891111208e-05
0.00802270795
7.766144429e-05
0.007946327582
7.638037451e-05
0.007871255743
7.507183746e-05
0.007797516308
7.373943584e-05
0.00772513011
7.238619821e-05
0.00765411529
7.101481589e-05
0.007584487602
6.962769351e-05
0.00751626174
6.82258613e-05
0.007449448584
6.681315729e-05
0.007384053807
6.539477619e-05
0.007320081122
6.3972684e-05
0.007257534109
6.254701284e-05
0.007196416031
6.111807933e-05
0.007136729297
5.968673345e-05
0.007078475233
5.825406311e-05
0.007021654029
5.682120383e-05
0.006966264708
5.538932056e-05
0.006912305113
5.395959682e-05
0.006859771899
5.25332139e-05
0.006808660575
5.111132411e-05
0.00675896556
4.969501449e-05
0.006710680253
4.828530837e-05
0.006663797102
4.688314885e-05
0.006618307693
4.548940991e-05
0.006574202776
4.410491614e-05
0.00653147228
4.273049551e-05
0.006490105375
4.136690536e-05
0.006450090558
4.001481913e-05
0.006411416247
3.867430703e-05
0.006374069943
3.734630454e-05
0.006338037728
3.603221467e-05
0.006303304984
3.473274361e-05
0.006269857013
3.344797159e-05
0.00623767914
3.217787166e-05
0.006206756621
3.0922522e-05
0.006177074561
2.96820612e-05
0.006148617915
2.845664405e-05
0.006121371493
2.724642471e-05
0.00609531992
2.605157032e-05
0.006070447666
2.487225729e-05
0.006046739009
2.370865638e-05
0.006024178057
2.256095304e-05
0.006002748737
2.142931593e-05
0.00598243482
2.031392086e-05
0.005963219901
1.92149185e-05
0.005945087443
1.81324593e-05
0.00592802076
1.70666804e-05
0.005912003056
1.601770439e-05
0.005897017421
1.498563466e-05
0.005883046861
1.397056136e-05
0.005870074295
1.297256533e-05
0.005858082584
1.199171125e-05
0.005847054524
1.102805933e-05
0.005836972872
1.008165255e-05
0.005827820342
9.152533122e-06
0.005819579618
8.24072104e-06
0.005812233397
7.346220959e-06
0.005805764423
6.468973998e-06
0.005800155571
5.608850154e-06
0.005795390166
4.765405956e-06
0.005791453302
3.936862362e-06
0.005788334934
3.118370721e-06
0.005786031088
2.303845655e-06
0.005784531428
1.499661317e-06
0.005783790833
7.405954375e-07
0.005783747919
4.2914981e-08
0.005784357007
-6.09086543e-07
0.00578564429
-1.287285298e-06
0.005787631753
-1.987463643e-06
0.005790310001
-2.678246896e-06
0.005793658361
-3.348361128e-06
0.00579768982
-4.031457829e-06
0.005802371233
-4.681413005e-06
0.005807637458
-5.266226008e-06
0.00581344388
-5.806421785e-06
0.005819781252
-6.33737208e-06
0.005826665915
-6.884661857e-06
0.005834126414
-7.460500111e-06
0.005842139837
-8.013421531e-06
0.005850682428
-8.542592069e-06
0.005859718946
-9.036515353e-06
0.005869217726
-9.498782301e-06
0.005879161221
-9.943496382e-06
0.005889545231
-1.038400745e-05
0.005900367424
-1.0822193e-05
0.005911620487
-1.125306509e-05
0.005923292176
-1.167168816e-05
0.005935361167
-1.206898978e-05
0.005947806353
-1.24451886e-05
0.00596061065
-1.280429766e-05
0.005973763278
-1.315262632e-05
0.00598725176
-1.348848328e-05
0.006001065653
-1.381389093e-05
0.006015196346
-1.413069469e-05
0.006029632285
-1.443594019e-05
0.006044358986
-1.472669971e-05
0.006059362406
-1.500341988e-05
0.006074629106
-1.526670049e-05
0.006090148388
-1.551928304e-05
0.006105908817
-1.576043022e-05
0.006121899479
-1.599066331e-05
0.006138110583
-1.621110063e-05
0.006154531914
-1.642133147e-05
0.006171152341
-1.662042806e-05
0.006187960745
-1.680840142e-05
0.006204946572
-1.69858291e-05
0.006222099558
-1.715298493e-05
0.006239409762
-1.731020555e-05
0.006256867283
-1.745751939e-05
0.006274462557
-1.759527458e-05
0.006292186465
-1.77239073e-05
0.006310029848
-1.784338464e-05
0.00632798328
-1.795343058e-05
0.006346037359
-1.805407888e-05
0.006364182998
-1.814563971e-05
0.006382411525
-1.822852832e-05
0.006400714428
-1.830290271e-05
0.00641908339
-1.836895904e-05
0.006437510221
-1.842683305e-05
0.006455986827
-1.847660405e-05
0.006474505319
-1.851849393e-05
0.006493058086
-1.855276813e-05
0.006511637668
-1.85795808e-05
0.006530236727
-1.859905883e-05
0.006548848058
-1.861133202e-05
0.00656746421
-1.861614914e-05
0.006586077417
-1.861320824e-05
0.006604680465
-1.860304841e-05
0.006623266918
-1.858645096e-05
0.006641830668
-1.856375024e-05
0.006660366051
-1.85353827e-05
0.006678867891
-1.850183927e-05
0.006697330514
-1.846262486e-05
0.006715747667
-1.84171506e-05
0.006734113452
-1.836578635e-05
0.006752423056
-1.830960269e-05
0.006770672803
-1.824974912e-05
0.006788858901
-1.818609796e-05
0.006806976722
-1.811782398e-05
0.006825021455
-1.804473098e-05
0.006842988659
-1.796720592e-05
0.006860874728
-1.788606474e-05
0.006878677038
-1.780231133e-05
0.006896393392
-1.771635328e-05
0.006914020499
-1.762710639e-05
0.006931554742
-1.753424135e-05
0.006948992737
-1.743799744e-05
0.006966334046
-1.734130626e-05
0.006983574969
-1.724092586e-05
0.007000712427
-1.713745625e-05
0.007017744834
-1.703240658e-05
0.007034674163
-1.692932979e-05
0.007051497596
-1.682343182e-05
0.007068212074
-1.671447964e-05
0.007084817427
-1.66053526e-05
0.007101313965
-1.649653852e-05
0.007117701893
-1.63879289e-05
0.00713398104
-1.627914727e-05
0.007150150894
-1.616985202e-05
0.007166210732
-1.605983862e-05
0.007182159779
-1.594904484e-05
0.007197997272
-1.583749532e-05
0.007213722507
-1.572523398e-05
0.007229334808
-1.561229886e-05
0.007244833564
-1.549875828e-05
0.007260218292
-1.538472849e-05
0.007275488608
-1.527031379e-05
0.007290644171
-1.515556135e-05
0.007305684645
-1.504047244e-05
0.007320609683
-1.492503993e-05
0.007335418943
-1.480925954e-05
0.007350112057
-1.469311508e-05
0.007364688637
-1.457657883e-05
0.007379148276
-1.445963918e-05
0.007393490587
-1.434231065e-05
0.007407715205
-1.422461651e-05
0.007421821768
-1.410656452e-05
0.007435809913
-1.398814568e-05
0.007449679261
-1.386934594e-05
0.007463429426
-1.37501651e-05
0.007477060031
-1.36306079e-05
0.007490570719
-1.351068439e-05
0.007503961132
-1.339041308e-05
0.007517230947
-1.326981621e-05
0.00753037988
-1.314893301e-05
0.007543407704
-1.302782506e-05
0.007556314259
-1.290655226e-05
0.007569099451
-1.278519478e-05
0.007581763281
-1.266382673e-05
0.007594305846
-1.254256608e-05
0.007606727404
-1.242155828e-05
0.007619028412
-1.230100914e-05
0.007631209548
-1.218113665e-05
0.007643271721
-1.20621734e-05
0.007655216261
-1.194454192e-05
0.007667045421
-1.182915792e-05
0.007678762148
-1.17167284e-05
0.007690367943
-1.160579283e-05
0.007701860668
-1.149272642e-05
0.007713241766
-1.138110052e-05
0.00772453247
-1.129070161e-05
0.007735771221
-1.123875029e-05
0.007746972396
-1.120117622e-05
0.007758190351
-1.121795376e-05
0.007770035524
-1.184517526e-05
0.007784793856
-1.475833046e-05
-2.169447195e-05
-3.733525448e-06
-1.458778666e-05
-4.802402947e-05
5.025436092e-05
-0.000141406183
0.0001219002818
-0.0002781048233
0.0001828417468
-0.000448994389
0.0002303125115
-0.0006447473525
0.0002642501275
-0.0008571349238
0.0002863239747
-0.001079945169
0.0002997154579
-0.001309114906
0.0003077346517
-0.001542269692
0.0003128416431
-0.001778100673
0.0003164723999
-0.002015856949
0.0003193074404
-0.002255125484
0.0003217351386
-0.002495757983
0.0003239569027
-0.002736868754
0.0003251269584
-0.002977687509
0.0003253750613
-0.003217341307
0.000324461101
-0.003455525542
0.0003229137656
-0.003692247872
0.0003211912521
-0.003927566911
0.0003195013765
-0.004161558407
0.0003179123014
-0.004394284543
0.0003164185468
-0.004625772369
0.0003149807152
-0.004855932414
0.0003134282755
-0.005084509213
0.0003115024439
-0.005311177371
0.0003090837066
-0.005535665977
0.0003062454559
-0.00575782851
0.000303170008
-0.005977658234
0.0003000610088
-0.006195281582
0.0002971120253
-0.006410958828
0.0002945251636
-0.006625069964
0.0002924882818
-0.00683801178
0.0002910324317
-0.007050057796
0.0002899859902
-0.007261385168
0.0002892359853
-0.0074720247
0.0002885760146
-0.007681640155
0.0002874173604
-0.007889665754
0.0002853705821
-0.008095747161
0.0002827521432
-0.008299860305
0.0002800856392
-0.008502121415
0.0002775989355
-0.008702664081
0.0002753163543
-0.008901603621
0.0002732043245
-0.009099033981
0.0002712272483
-0.00929503083
0.0002693566552
-0.009489654789
0.0002675699847
-0.009682953981
0.0002658491834
-0.009874966472
0.0002641803791
-0.01006572227
0.0002625526441
-0.01025524229
0.0002609523536
-0.01044353304
0.0002593576457
-0.01063058656
0.0002577513299
-0.01081639841
0.000256148762
-0.01100097666
0.0002545647909
-0.01118428303
0.0002528893912
-0.0113662039
0.0002509731189
-0.01154684401
0.000249198533
-0.01172683418
0.0002484490026
-0.01190647802
0.0002482150952
-0.01208526483
0.0002471808955
-0.01226288929
0.000245630579
-0.01243934679
0.0002440602851
-0.01261470564
0.0002425995142
-0.01278903661
0.0002412481422
-0.01296240217
0.0002399887445
-0.01313485723
0.0002388080763
-0.01330645078
0.0002376966393
-0.01347722716
0.0002366474864
-0.0136472274
0.0002356556805
-0.01381649009
0.0002347177791
-0.01398505195
0.0002338310692
-0.014152948
0.0002329930268
-0.01432021216
0.0002322018852
-0.01448687845
0.0002314577469
-0.01465298205
0.0002307624618
-0.01481855962
0.0002301184293
-0.01498364897
0.0002295275327
-0.01514828852
0.0002289908939
-0.01531251716
0.0002285095034
-0.01547637437
0.0002280845523
-0.01563990054
0.0002277173315
-0.01580313799
0.0002274095868
-0.01596613287
0.0002271650162
-0.01612893634
0.0002269900489
-0.01629160373
0.0002268913333
-0.016454191
0.0002268717042
-0.01661675056
0.0002269303808
-0.01677933449
0.0002270694465
-0.01694200035
0.0002272940033
-0.01710480909
0.0002276060264
-0.01726781824
0.0002279996761
-0.01743106915
0.0002284467287
-0.01759456176
0.0002288820026
-0.01775828524
0.0002292971631
-0.01792232711
0.0002298456989
-0.01808678038
0.0002305356273
-0.01825173364
0.0002313555684
-0.01841726906
0.0002322945904
-0.01858346515
0.0002333476382
-0.01875039836
0.0002345127012
-0.01891814843
0.0002357963798
-0.01908680294
0.000237211201
-0.01925644409
0.0002387490565
-0.01942715008
0.0002404037834
-0.01959899298
0.0002421667221
-0.01977204168
0.0002440339565
-0.01994636466
0.000246005883
-0.02012203052
0.0002480832931
-0.02029910585
0.0002502630769
-0.02047765215
0.0002525370975
-0.02065772707
0.0002548997662
-0.02083939364
0.0002573610172
-0.02102273049
0.0002599470921
-0.02120783438
0.0002626880529
-0.02139481914
0.0002656112658
-0.02158379785
0.0002687157792
-0.02177485985
0.0002719664659
-0.02196808376
0.0002753498821
-0.02216354209
0.0002788610748
-0.02236130689
0.00028250295
-0.02256144676
0.0002862709274
-0.02276400771
0.0002901274039
-0.02296898881
0.0002940006278
-0.02317636476
0.0002978611101
-0.02338613016
0.0003017383323
-0.02359810558
0.0003053729798
-0.0238123564
0.0003091550128
-0.02402892075
0.0003130507538
-0.02424783802
0.0003170591747
-0.02446905861
0.0003210535682
-0.02469249187
0.0003249805198
-0.02491799146
0.0003287610923
-0.02514535854
0.0003323159591
-0.02537434158
0.0003355614778
-0.0256046269
0.0003383989731
-0.02583586596
0.0003407768789
-0.02606770797
0.0003427081835
-0.02629973121
0.000344124565
-0.02653141113
0.0003448971741
-0.02676242345
0.0003453065942
-0.02699232157
0.0003451690587
-0.02722059082
0.0003444010284
-0.02744661095
0.0003428575894
-0.02766964563
0.0003403462707
-0.02788880747
0.0003365873494
-0.02810311604
0.0003314206547
-0.02831164895
0.0003249732043
-0.02851333029
0.0003171193006
-0.02870741959
0.0003083710734
-0.02889305046
0.0002985182683
-0.02906917532
0.0002872680186
-0.02923457119
0.000274234275
-0.02938768018
0.0002588385712
-0.02952670507
0.0002408100636
-0.02965017189
0.000220694803
-0.02975560329
0.0001973884941
-0.02984200795
0.0001728903732
-0.02990727421
0.0001455591097
-0.02995013497
0.0001163484128
-0.02997265512
8.889953323e-05
-0.02997404
5.976679568e-05
-0.02994938051
2.342778596e-05
-0.02989554341
-1.605649343e-05
-0.02981378405
-5.48781363e-05
-0.02970111319
-9.68600336e-05
-0.02955513917
-0.0001406446571
-0.02937583093
-0.0001871843649
-0.02916133112
-0.0002370860358
-0.02890999676
-0.0002883143299
-0.02862036967
-0.0003418251788
-0.02829111281
-0.0003975851122
-0.02792089283
-0.0004554975095
-0.02750856152
-0.0005153908735
-0.02705318222
-0.0005769582856
-0.02655402474
-0.0006398686078
-0.02601055501
-0.000703825659
-0.02542242851
-0.0007685569991
-0.0247895162
-0.0008337593327
-0.02411193858
-0.0008990810672
-0.02339006788
-0.0009641552272
-0.02262454438
-0.00102859097
-0.02181628818
-0.001091979253
-0.02096649801
-0.001153926054
-0.02007668173
-0.001214130704
-0.01914874483
-0.001272499422
-0.01818428546
-0.001329034498
-0.01717865526
-0.001382615838
-0.01614958522
-0.001426004875
-0.01508901271
-0.001472838504
-0.01399787261
-0.00151907235
-0.01287691545
-0.001564270486
-0.011728044
-0.001606883268
-0.01055366346
-0.001646221678
-0.009356539774
-0.001681729635
-0.008139683871
-0.00171300422
-0.006906386978
-0.001739639097
-0.005660341212
-0.001761238885
-0.004405971241
-0.00177773127
-0.003148218878
-0.001789883051
-0.001878137773
-0.00180187374
-0.0005978192865
-0.001811684753
0.000688485202
-0.001817671528
0.0019760798
-0.00181822244
0.003260000083
-0.001812541284
0.004535530704
-0.001800938165
0.005805321971
-0.001793066676
0.007069639048
-0.001786429109
0.008323932885
-0.001773946889
0.009564519085
-0.00175567499
0.0107881848
-0.001732203439
0.0119920228
-0.001704116599
0.01317340726
-0.001671928575
0.01432999391
-0.001636122484
0.01545970948
-0.001597152709
0.01656072474
-0.001555423297
0.01763142408
-0.001511283021
0.01867038239
-0.00146503814
0.01967635137
-0.001416969532
0.02064825411
-0.001367348686
0.02158518505
-0.001316449198
0.02248640789
-0.001264541853
0.02335134659
-0.001211873912
0.02417960111
-0.001158704913
0.02497070578
-0.001104872784
0.02572423878
-0.001050335801
0.02644018838
-0.0009957693949
0.02711882956
-0.0009416141177
0.02775984788
-0.00088763283
0.02836336307
-0.0008339540206
0.02892981601
-0.00078080285
0.02945972199
-0.0007283812527
0.02995368013
-0.0006768577675
0.030412385
-0.0006263618637
0.03083658263
-0.0005771173412
0.03122702261
-0.0005292749668
0.0315844424
-0.0004825647394
0.03190963368
-0.000437022032
0.03220344351
-0.0003927353994
0.0324667666
-0.0003497834105
0.0327005388
-0.0003082285487
0.03290570009
-0.0002680816547
0.0330833425
-0.0002295596606
0.03323452983
-0.0001926165781
0.03336029587
-0.0001571335645
0.03346162499
-0.0001229877439
0.03353917082
-9.017152393e-05
0.03359371877
-5.896280473e-05
0.03362653342
-2.985726094e-05
0.03363811004
-1.941201874e-06
0.03363245063
2.332749487e-05
0.0336097345
4.728414971e-05
0.03356962505
7.142353899e-05
0.03351251456
9.459722132e-05
0.03343906028
0.0001166980945
0.03335034036
0.000137303024
0.03324731656
0.0001565368189
0.03313088113
0.0001744863046
0.03300192488
0.0001911649586
0.03286132938
0.0002065992404
0.03270994295
0.0002208475099
0.03254856676
0.0002339830363
0.03237795143
0.0002460792517
0.03219881407
0.0002571822839
0.03201186166
0.0002672974913
0.03181773413
0.0002765031136
0.03161712608
0.0002848064628
0.03141065834
0.0002922584487
0.03119890499
0.0002989094894
0.03098241275
0.0003047918885
0.0307617034
0.0003099761848
0.03053728096
0.0003145140388
0.03030962811
0.0003183976813
0.03007920306
0.0003216590882
0.02984644196
0.0003243317783
0.02961176019
0.000326443571
0.02937556967
0.0003279927748
0.02913820032
0.0003290866563
0.0288999774
0.0003297413137
0.0286612172
0.0003299711991
0.02842223442
0.0003297890523
0.02818336656
0.0003291838385
0.02794493371
0.0003281665597
0.02770721004
0.0003267747519
0.02747043522
0.0003250594884
0.02723482431
0.0003230694433
0.02700060285
0.0003207907693
0.02676798988
0.000318222374
0.02653716053
0.0003154254984
0.02630827406
0.000312429161
0.02608149129
0.0003092305636
0.02585697198
0.0003058271974
0.0256348619
0.0003022372651
0.02541529356
0.0002984794506
0.02519839322
0.0002945617886
0.02498427904
0.0002904945481
0.02477305807
0.0002862928037
0.02456482781
0.0002819696954
0.02435967751
0.0002775365016
0.02415768886
0.0002730034665
0.02395893586
0.0002683806901
0.02376348687
0.0002636748506
0.02357139945
0.0002589005768
0.02338271963
0.0002540745976
0.02319748871
0.0002492036053
0.02301574555
0.0002442901755
0.02283752574
0.0002393378863
0.02266286091
0.0002343515593
0.02249177857
0.0002293364106
0.02232430206
0.0002242977095
0.02216045063
0.0002192407567
0.02200023938
0.0002141708432
0.02184367943
0.0002090931657
0.02169077801
0.0002040127357
0.0215415387
0.0001989343245
0.02139596158
0.0001938624268
0.02125404348
0.0001888012536
0.02111577814
0.0001837547503
0.02098115642
0.0001787266378
0.02085016638
0.0001737205272
0.02072279361
0.0001687396845
0.02059902107
0.0001637873533
0.02047883019
0.0001588651949
0.0203621993
0.000153977194
0.02024910319
0.0001491283215
0.0201395146
0.0001443213327
0.0200334053
0.0001395572762
0.01993074619
0.0001348369795
0.01983150719
0.0001301615149
0.0197356572
0.0001255320506
0.0196431641
0.0001209497485
0.01955399477
0.0001164157584
0.01946811511
0.0001119312275
0.01938549006
0.0001074973026
0.01930608361
0.000103115107
0.01922985883
9.878572912e-05
0.01915677793
9.451022451e-05
0.01908680225
9.028959413e-05
0.01901989238
8.612478619e-05
0.01895600814
8.201669835e-05
0.01889510867
7.796614698e-05
0.01883715249
7.397389396e-05
0.0187820975
7.004062046e-05
0.01872990111
6.616695069e-05
0.01868052023
6.235344103e-05
0.01863391135
5.860059363e-05
0.01859003055
5.490885315e-05
0.01854883359
5.127861706e-05
0.0185102759
4.771021899e-05
0.0184743127
4.420393123e-05
0.01844089901
4.075990849e-05
0.01840998979
3.737819276e-05
0.01838153993
3.4058715e-05
0.01835550423
3.080110491e-05
0.01833183734
2.760374509e-05
0.0183104932
2.446251819e-05
0.0182914238
2.137324084e-05
0.0182745812
1.83422545e-05
0.0182599274
1.539440248e-05
0.01824742142
1.254889912e-05
0.01823702813
9.784202271e-06
0.01822869753
7.04331519e-06
0.01822240642
4.303642311e-06
0.01821814942
1.578751651e-06
0.01821585412
-1.053061656e-06
0.01821536459
-3.541928545e-06
0.01821655721
-5.87402958e-06
0.01821939549
-8.104504398e-06
0.01822393297
-1.034390818e-05
0.01823018803
-1.259243149e-05
0.01823812973
-1.482635546e-05
0.01824776284
-1.709361507e-05
0.01825898337
-1.923394584e-05
0.01827172453
-2.128375704e-05
0.01828591793
-2.322991904e-05
0.01830151484
-2.509569005e-05
0.01831848405
-2.691270264e-05
0.01833681263
-2.871258446e-05
0.01835647767
-3.048724266e-05
0.0183774378
-3.221318797e-05
0.01839965365
-3.388754465e-05
0.01842307299
-3.548832878e-05
0.01844764658
-3.701877177e-05
0.01847333274
-3.849046382e-05
0.01850010215
-3.992203852e-05
0.01852791977
-4.130609765e-05
0.0185567537
-4.264782498e-05
0.01858657559
-4.395258014e-05
0.0186173514
-4.521175098e-05
0.01864904213
-4.641743367e-05
0.01868161032
-4.757160247e-05
0.01871501916
-4.867554744e-05
0.01874923721
-4.973732341e-05
0.01878423235
-5.075556762e-05
0.01881997406
-5.173237627e-05
0.01885643373
-5.26707722e-05
0.01889358167
-5.356927374e-05
0.01893138652
-5.442527868e-05
0.01896981698
-5.523885926e-05
0.01900884275
-5.601160232e-05
0.01904843408
-5.674430872e-05
0.01908856225
-5.743838073e-05
0.01912919905
-5.809432261e-05
0.01917031713
-5.87133473e-05
0.01921189002
-5.929680493e-05
0.01925389136
-5.984472285e-05
0.01929629444
-6.035650896e-05
0.01933907271
-6.083235561e-05
0.01938220023
-6.127314722e-05
0.01942565185
-6.168014895e-05
0.01946940291
-6.20539661e-05
0.01951342941
-6.239545629e-05
0.01955770787
-6.270530017e-05
0.01960221522
-6.298395208e-05
0.01964692895
-6.323222537e-05
0.01969182721
-6.345102026e-05
0.01973688849
-6.36408605e-05
0.0197820915
-6.380207565e-05
0.0198274153
-6.393513051e-05
0.01987283967
-6.404051733e-05
0.01991834525
-6.411878516e-05
0.01996391328
-6.417108272e-05
0.02000952583
-6.419899905e-05
0.02005516612
-6.420404596e-05
0.0201008168
-6.418605711e-05
0.02014645896
-6.41440057e-05
0.02019207525
-6.407891399e-05
0.02023765073
-6.399262852e-05
0.02028317106
-6.388611936e-05
0.0203286228
-6.376133618e-05
0.02037399373
-6.362068059e-05
0.02041927141
-6.346378037e-05
0.02046444272
-6.328912861e-05
0.02050949498
-6.309699406e-05
0.02055441647
-6.288869534e-05
0.02059919683
-6.266642385e-05
0.02064382739