/*--------------------------------*- C++ -*----------------------------------*\
| =========                 |                                                 |
| \\      /  F ield         | OpenFOAM: The Open Source CFD Toolbox           |
|  \\    /   O peration     | Version:  2312                                  |
|   \\  /    A nd           | Website:  www.openfoam.com                      |
|    \\/     M anipulation  |                                                 |
\*---------------------------------------------------------------------------*/
FoamFile
{
    version     2.0;
    format      ascii;
    arch        "LSB;label=32;scalar=64";
    class       surfaceScalarField;
    location    "4800";
    object      phiByRho;
}
// * * * * * * * * * * * * * * * * * * * * * * * * * * * * * * * * * * * * * //

dimensions      [0 3 -1 0 0 0 0];

oriented        oriented;

internalField   nonuniform List<scalar> 
40240
(
1.832129827e-08
-1.832129695e-08
1.235744537e-08
5.963850499e-09
-1.616066413e-08
2.851811222e-08
-6.230373794e-08
4.614307386e-08
-1.217266465e-07
5.942290814e-08
-1.902237631e-07
6.849711642e-08
-2.641601207e-07
7.393635626e-08
-3.410652802e-07
7.690516203e-08
-4.19630145e-07
7.856486397e-08
-4.993169507e-07
7.968680455e-08
-5.799583166e-07
8.064136565e-08
-6.615094283e-07
8.155111286e-08
-7.439759798e-07
8.246655141e-08
-8.273003282e-07
8.332434922e-08
-9.113164613e-07
8.4016132e-08
-9.958727111e-07
8.455624828e-08
-1.080679961e-06
8.480725154e-08
-1.165409435e-06
8.472947407e-08
-1.2498783e-06
8.446886585e-08
-1.334060581e-06
8.418228001e-08
-1.417981336e-06
8.392075561e-08
-1.501673691e-06
8.369235552e-08
-1.585166527e-06
8.349283364e-08
-1.668434702e-06
8.326817637e-08
-1.75136029e-06
8.292558925e-08
-1.833775788e-06
8.241549497e-08
-1.915532584e-06
8.175679845e-08
-1.996540008e-06
8.100742156e-08
-2.076771236e-06
8.023122858e-08
-2.156259867e-06
7.948862601e-08
-2.235107732e-06
7.884786908e-08
-2.313484823e-06
7.837709261e-08
-2.391575389e-06
7.809056109e-08
-2.469515316e-06
7.79399288e-08
-2.547423876e-06
7.790855946e-08
-2.62536031e-06
7.793643358e-08
-2.703162167e-06
7.780186128e-08
-2.780507101e-06
7.734492919e-08
-2.857177786e-06
7.667068764e-08
-2.93315023e-06
7.597244165e-08
-3.008488009e-06
7.533777692e-08
-3.083261646e-06
7.477363743e-08
-3.15752638e-06
7.426473416e-08
-3.231323227e-06
7.379684578e-08
-3.304682979e-06
7.335975418e-08
-3.377628957e-06
7.294597654e-08
-3.450178903e-06
7.254994444e-08
-3.522346743e-06
7.216784059e-08
-3.594143544e-06
7.179680035e-08
-3.665575828e-06
7.143228728e-08
-3.736642676e-06
7.10668447e-08
-3.807340441e-06
7.069776487e-08
-3.877677304e-06
7.03368654e-08
-3.947663797e-06
6.998649322e-08
-4.017246775e-06
6.958297825e-08
-4.086298975e-06
6.905219877e-08
-4.154857358e-06
6.855838601e-08
-4.223316145e-06
6.845878834e-08
-4.291887355e-06
6.857120952e-08
-4.360281396e-06
6.839403955e-08
-4.42828747e-06
6.8006076e-08
-4.495890214e-06
6.76027434e-08
-4.563130837e-06
6.72406239e-08
-4.630047962e-06
6.691712359e-08
-4.69667111e-06
6.662314795e-08
-4.763024077e-06
6.6352966e-08
-4.829127133e-06
6.610305573e-08
-4.894998192e-06
6.587106113e-08
-4.960653594e-06
6.565540098e-08
-5.026108639e-06
6.545504303e-08
-5.091377805e-06
6.526917064e-08
-5.156474739e-06
6.509693108e-08
-5.221412415e-06
6.49376795e-08
-5.286203833e-06
6.479141761e-08
-5.350862657e-06
6.465882498e-08
-5.415403473e-06
6.454081466e-08
-5.479841615e-06
6.443814388e-08
-5.544192922e-06
6.435130617e-08
-5.608473741e-06
6.428081842e-08
-5.672701038e-06
6.42273003e-08
-5.736892165e-06
6.419112623e-08
-5.801064255e-06
6.417208775e-08
-5.865234344e-06
6.417009074e-08
-5.929420883e-06
6.418653487e-08
-5.993644785e-06
6.422390466e-08
-6.057929181e-06
6.428439645e-08
-6.122299953e-06
6.437077062e-08
-6.186785434e-06
6.448548135e-08
-6.251413527e-06
6.462809002e-08
-6.316210774e-06
6.479724814e-08
-6.381201255e-06
6.4990479e-08
-6.446397028e-06
6.519577584e-08
-6.511786385e-06
6.538935394e-08
-6.577360021e-06
6.557363872e-08
-6.643163815e-06
6.580379222e-08
-6.709246129e-06
6.608231698e-08
-6.775648394e-06
6.640226604e-08
-6.842407521e-06
6.675912624e-08
-6.909559028e-06
6.715150574e-08
-6.97713847e-06
6.757944226e-08
-7.045184738e-06
6.804626764e-08
-7.113741388e-06
6.855665026e-08
-7.18284925e-06
6.910786219e-08
-7.252547e-06
6.969775218e-08
-7.322870772e-06
7.03237711e-08
-7.393855979e-06
7.098520737e-08
-7.465538835e-06
7.168285609e-08
-7.537956221e-06
7.241738666e-08
-7.611143923e-06
7.318770207e-08
-7.68513467e-06
7.399074797e-08
-7.759959471e-06
7.482480107e-08
-7.835653867e-06
7.569439459e-08
-7.912264062e-06
7.661019527e-08
-7.989848172e-06
7.758411056e-08
-8.068474625e-06
7.862645255e-08
-8.148211647e-06
7.973702332e-08
-8.229116064e-06
8.090441816e-08
-8.311241985e-06
8.212591949e-08
-8.394644669e-06
8.34026859e-08
-8.479382767e-06
8.473809903e-08
-8.565513771e-06
8.613100252e-08
-8.653080167e-06
8.756639737e-08
-8.742099629e-06
8.901946093e-08
-8.832584734e-06
9.048510448e-08
-8.924557605e-06
9.197287334e-08
-9.017955107e-06
9.339750097e-08
-9.112859236e-06
9.490413177e-08
-9.20934558e-06
9.648634228e-08
-9.307487413e-06
9.814183292e-08
-9.40732033e-06
9.983291836e-08
-9.508867527e-06
1.015471946e-07
-9.612128959e-06
1.032614325e-07
-9.717077769e-06
1.049488125e-07
-9.823656143e-06
1.065783719e-07
-9.931769718e-06
1.08113576e-07
-1.004130747e-05
1.095377491e-07
-1.015217357e-05
1.108660995e-07
-1.026427482e-05
1.12101252e-07
-1.0377492e-05
1.132171853e-07
-1.04917862e-05
1.142941947e-07
-1.060705706e-05
1.152708591e-07
-1.072318877e-05
1.161317076e-07
-1.084002615e-05
1.168373839e-07
-1.095733766e-05
1.173115101e-07
-1.107476309e-05
1.174254361e-07
-1.119187511e-05
1.171120126e-07
-1.130831532e-05
1.164402156e-07
-1.142375321e-05
1.154378808e-07
-1.153803491e-05
1.142817035e-07
-1.165092223e-05
1.128873245e-07
-1.176206532e-05
1.11143084e-07
-1.187090366e-05
1.088383413e-07
-1.197663316e-05
1.05729506e-07
-1.207841828e-05
1.017851137e-07
-1.217564619e-05
9.722791907e-08
-1.226760323e-05
9.195703342e-08
-1.235408888e-05
8.648565028e-08
-1.243438168e-05
8.029279874e-08
-1.250786929e-05
7.348761225e-08
-1.257424862e-05
6.637933152e-08
-1.26326305e-05
5.838188394e-08
-1.268071774e-05
4.808723959e-08
-1.271849834e-05
3.778059496e-08
-1.274537953e-05
2.688119389e-08
-1.276119035e-05
1.581082579e-08
-1.276651971e-05
5.329354491e-09
-1.275864359e-05
-7.876118329e-09
-1.273605738e-05
-2.258620878e-08
-1.269907744e-05
-3.697994285e-08
-1.264687937e-05
-5.219806233e-08
-1.257855117e-05
-6.832820779e-08
-1.24932737e-05
-8.527746886e-08
-1.239021419e-05
-1.03059506e-07
-1.226863529e-05
-1.215788974e-07
-1.212792426e-05
-1.407110365e-07
-1.196756843e-05
-1.603558216e-07
-1.178713804e-05
-1.804303896e-07
-1.158629116e-05
-2.008468871e-07
-1.136478786e-05
-2.215033009e-07
-1.112250349e-05
-2.422843713e-07
-1.08594362e-05
-2.630672903e-07
-1.057571332e-05
-2.837228726e-07
-1.027157763e-05
-3.041356907e-07
-9.947263421e-06
-3.243142103e-07
-9.602701126e-06
-3.445622972e-07
-9.238126231e-06
-3.645748953e-07
-8.861140845e-06
-3.76985382e-07
-8.464206262e-06
-3.969345835e-07
-8.051940534e-06
-4.122657262e-07
-7.624008573e-06
-4.279319628e-07
-7.180695529e-06
-4.433130401e-07
-6.722684008e-06
-4.580115222e-07
-6.250843178e-06
-4.718408311e-07
-5.76623755e-06
-4.846056299e-07
-5.270089554e-06
-4.961479954e-07
-4.763747677e-06
-5.063418756e-07
-4.248554895e-06
-5.151927826e-07
-3.725193937e-06
-5.233609583e-07
-3.1930636e-06
-5.321303342e-07
-2.66127131e-06
-5.317922931e-07
-2.129905393e-06
-5.313659148e-07
-1.598538697e-06
-5.313666948e-07
-1.067911205e-06
-5.306274938e-07
-5.392905487e-07
-5.286206548e-07
-1.388334407e-08
-5.254072033e-07
5.093917214e-07
-5.232750657e-07
1.031503414e-06
-5.221116924e-07
1.551156128e-06
-5.196527135e-07
2.06624458e-06
-5.150884531e-07
2.574781975e-06
-5.085373961e-07
3.075060246e-06
-5.002782665e-07
3.56560404e-06
-4.905437955e-07
4.045139564e-06
-4.795355242e-07
4.512576396e-06
-4.674368318e-07
4.966984139e-06
-4.544077452e-07
5.407567533e-06
-4.405833941e-07
5.833647085e-06
-4.26079551e-07
6.244647369e-06
-4.110002822e-07
6.640093058e-06
-3.954456921e-07
7.019611076e-06
-3.795180174e-07
7.382929846e-06
-3.63318772e-07
7.72986483e-06
-3.469349818e-07
8.060315014e-06
-3.304501837e-07
8.374082924e-06
-3.137679077e-07
8.670885534e-06
-2.968026129e-07
8.950705141e-06
-2.798196072e-07
9.213677909e-06
-2.629727648e-07
9.46029226e-06
-2.466143547e-07
9.690730935e-06
-2.304386742e-07
9.905080704e-06
-2.143497663e-07
1.010355585e-05
-1.984751436e-07
1.028645536e-05
-1.828995105e-07
1.045411224e-05
-1.676568832e-07
1.060703185e-05
-1.529196108e-07
1.074586675e-05
-1.388349015e-07
1.087101162e-05
-1.251448688e-07
1.098284229e-05
-1.118306747e-07
1.108176781e-05
-9.892550697e-08
1.116822807e-05
-8.646026433e-08
1.124268436e-05
-7.445629534e-08
1.130560468e-05
-6.292032216e-08
1.135752191e-05
-5.191722169e-08
1.139895112e-05
-4.142921079e-08
1.143031863e-05
-3.136750962e-08
1.145197724e-05
-2.165861039e-08
1.146460293e-05
-1.262569007e-08
1.146901778e-05
-4.414846534e-09
1.146606039e-05
2.957384727e-09
1.145642497e-05
9.635414861e-09
1.14387569e-05
1.766807253e-08
1.14141889e-05
2.456800227e-08
1.138287483e-05
3.131406985e-08
1.134538812e-05
3.748670573e-08
1.130214434e-05
4.324378716e-08
1.125356126e-05
4.858307538e-08
1.120004827e-05
5.351299014e-08
1.114199744e-05
5.805083604e-08
1.107978877e-05
6.220867466e-08
1.101378507e-05
6.600369266e-08
1.094432404e-05
6.946103247e-08
1.087171724e-05
7.260680287e-08
1.079625337e-05
7.546386914e-08
1.071820849e-05
7.804488174e-08
1.063786347e-05
8.034501999e-08
1.055548794e-05
8.23755288e-08
1.047128957e-05
8.419836018e-08
1.038549892e-05
8.579065477e-08
1.029834284e-05
8.715608174e-08
1.021004325e-05
8.829959156e-08
1.012077647e-05
8.926677407e-08
1.003068493e-05
9.009154534e-08
9.939940163e-06
9.074476683e-08
9.848706183e-06
9.12339795e-08
9.757135564e-06
9.157061666e-08
9.665373823e-06
9.176174284e-08
9.573571624e-06
9.180219806e-08
9.48185438e-06
9.171724698e-08
9.390336039e-06
9.151833862e-08
9.299125109e-06
9.121093097e-08
9.208318896e-06
9.080621158e-08
9.118002977e-06
9.031591821e-08
9.028269328e-06
8.973365102e-08
8.939218301e-06
8.905102486e-08
8.850933694e-06
8.828460804e-08
8.763475213e-06
8.745848273e-08
8.676905962e-06
8.656925016e-08
8.59129661e-06
8.560935151e-08
8.506700518e-06
8.459609179e-08
8.42315788e-06
8.354263642e-08
8.340710144e-06
8.244773924e-08
8.259402308e-06
8.130783379e-08
8.179275176e-06
8.012713485e-08
8.100364115e-06
7.891106062e-08
8.022702719e-06
7.766139365e-08
7.946322401e-06
7.638032471e-08
7.871250611e-06
7.507178851e-08
7.797511224e-06
7.373938776e-08
7.725125073e-06
7.238615101e-08
7.654110299e-06
7.101476958e-08
7.584482656e-06
6.962764811e-08
7.516256839e-06
6.822581681e-08
7.449443726e-06
6.681311372e-08
7.384048992e-06
6.539473354e-08
7.320076349e-06
6.397264228e-08
7.257529377e-06
6.254697205e-08
7.196411339e-06
6.111803947e-08
7.136724643e-06
5.968669453e-08
7.078470618e-06
5.825402513e-08
7.02164945e-06
5.682116678e-08
6.966260166e-06
5.538928444e-08
6.912300606e-06
5.395956163e-08
6.859767426e-06
5.253317964e-08
6.808656135e-06
5.111129078e-08
6.758961152e-06
4.969498208e-08
6.710675878e-06
4.828527689e-08
6.663792757e-06
4.688311827e-08
6.618303377e-06
4.548938024e-08
6.574198489e-06
4.410488739e-08
6.531468021e-06
4.273046765e-08
6.490101143e-06
4.136687838e-08
6.450086352e-06
4.001479303e-08
6.411412067e-06
3.867428181e-08
6.374065786e-06
3.734628018e-08
6.338033595e-06
3.603219118e-08
6.303300873e-06
3.473272096e-08
6.269852925e-06
3.344794978e-08
6.237675073e-06
3.217785068e-08
6.206752574e-06
3.092250183e-08
6.177070533e-06
2.968204185e-08
6.148613906e-06
2.845662549e-08
6.121367501e-06
2.724640694e-08
6.095315946e-06
2.605155333e-08
6.070443707e-06
2.487224107e-08
6.046735066e-06
2.370864092e-08
6.024174128e-06
2.256093833e-08
6.002744823e-06
2.142930196e-08
5.982430919e-06
2.031390761e-08
5.963216013e-06
1.921490597e-08
5.945083566e-06
1.813244748e-08
5.928016895e-06
1.706666927e-08
5.911999201e-06
1.601769394e-08
5.897013576e-06
1.498562489e-08
5.883043025e-06
1.397055225e-08
5.870070467e-06
1.297255687e-08
5.858078764e-06
1.199170343e-08
5.847050711e-06
1.102805214e-08
5.836969066e-06
1.008164598e-08
5.827816541e-06
9.152527153e-09
5.819575823e-06
8.240715667e-09
5.812229607e-06
7.346216169e-09
5.805760637e-06
6.46896978e-09
5.800151789e-06
5.608846497e-09
5.795386387e-06
4.765402848e-09
5.791449525e-06
3.936859795e-09
5.788331159e-06
3.118368688e-09
5.786027315e-06
2.303844153e-09
5.784527656e-06
1.499660339e-09
5.783787062e-06
7.405949546e-10
5.783744147e-06
4.291495302e-11
5.784353234e-06
-6.090861458e-10
5.785640517e-06
-1.287284459e-09
5.787627979e-06
-1.987462347e-09
5.790306225e-06
-2.67824515e-09
5.793654583e-06
-3.348358944e-09
5.797686039e-06
-4.0314552e-09
5.802367449e-06
-4.681409952e-09
5.807633671e-06
-5.266222574e-09
5.813440089e-06
-5.806417998e-09
5.819777457e-06
-6.337367948e-09
5.826662115e-06
-6.884657367e-09
5.834122609e-06
-7.460495246e-09
5.842136027e-06
-8.013416305e-09
5.850678612e-06
-8.542586498e-09
5.859715125e-06
-9.03650946e-09
5.869213898e-06
-9.498776107e-09
5.879157387e-06
-9.943489897e-09
5.88954139e-06
-1.038400067e-08
5.900363576e-06
-1.082218594e-08
5.911616632e-06
-1.125305775e-08
5.923288313e-06
-1.167168055e-08
5.935357296e-06
-1.206898191e-08
5.947802474e-06
-1.244518049e-08
5.960606763e-06
-1.280428931e-08
5.973759382e-06
-1.315261774e-08
5.987247855e-06
-1.348847449e-08
6.001061739e-06
-1.381388192e-08
6.015192423e-06
-1.413068547e-08
6.029628353e-06
-1.443593077e-08
6.044355044e-06
-1.472669011e-08
6.059358454e-06
-1.500341009e-08
6.074625144e-06
-1.526669053e-08
6.090144416e-06
-1.551927292e-08
6.105904835e-06
-1.576041994e-08
6.121895487e-06
-1.599065288e-08
6.13810658e-06
-1.621109006e-08
6.154527901e-06
-1.642132076e-08
6.171148316e-06
-1.662041722e-08
6.187956709e-06
-1.680839045e-08
6.204942526e-06
-1.698581802e-08
6.2220955e-06
-1.715297375e-08
6.239405693e-06
-1.731019426e-08
6.256863202e-06
-1.745750801e-08
6.274458465e-06
-1.75952631e-08
6.292182362e-06
-1.772389574e-08
6.310025733e-06
-1.7843373e-08
6.327979154e-06
-1.795341887e-08
6.34603322e-06
-1.805406711e-08
6.364178847e-06
-1.814562787e-08
6.382407363e-06
-1.822851643e-08
6.400710254e-06
-1.830289077e-08
6.419079204e-06
-1.836894706e-08
6.437506023e-06
-1.842682103e-08
6.455982616e-06
-1.8476592e-08
6.474501096e-06
-1.851848185e-08
6.493053852e-06
-1.855275603e-08
6.511633421e-06
-1.857956868e-08
6.530232468e-06
-1.85990467e-08
6.548843787e-06
-1.861131989e-08
6.567459927e-06
-1.8616137e-08
6.586073122e-06
-1.86131961e-08
6.604676158e-06
-1.860303628e-08
6.623262599e-06
-1.858643884e-08
6.641826336e-06
-1.856373814e-08
6.660361707e-06
-1.853537061e-08
6.678863536e-06
-1.850182721e-08
6.697326147e-06
-1.846261282e-08
6.715743287e-06
-1.841713859e-08
6.734109061e-06
-1.836577437e-08
6.752418653e-06
-1.830959075e-08
6.770668387e-06
-1.824973722e-08
6.788854474e-06
-1.81860861e-08
6.806972283e-06
-1.811781216e-08
6.825017004e-06
-1.804471922e-08
6.842984197e-06
-1.79671942e-08
6.860870254e-06
-1.788605307e-08
6.878672552e-06
-1.780229972e-08
6.896388894e-06
-1.771634172e-08
6.91401599e-06
-1.762709489e-08
6.931550222e-06
-1.753422992e-08
6.948988206e-06
-1.743798607e-08
6.966329503e-06
-1.734129495e-08
6.983570415e-06
-1.724091462e-08
7.000707861e-06
-1.713744508e-08
7.017740257e-06
-1.703239547e-08
7.034669575e-06
-1.692931875e-08
7.051492998e-06
-1.682342085e-08
7.068207465e-06
-1.671446874e-08
7.084812807e-06
-1.660534177e-08
7.101309334e-06
-1.649652776e-08
7.117697251e-06
-1.638791821e-08
7.133976387e-06
-1.627913666e-08
7.150146231e-06
-1.616984147e-08
7.166206059e-06
-1.605982814e-08
7.182155095e-06
-1.594903444e-08
7.197992578e-06
-1.583748499e-08
7.213717803e-06
-1.572522372e-08
7.229330093e-06
-1.561228868e-08
7.244828839e-06
-1.549874817e-08
7.260213558e-06
-1.538471845e-08
7.275483863e-06
-1.527030384e-08
7.290639416e-06
-1.515555147e-08
7.30567988e-06
-1.504046263e-08
7.320604909e-06
-1.492503019e-08
7.33541416e-06
-1.480924988e-08
7.350107264e-06
-1.46931055e-08
7.364683835e-06
-1.457656932e-08
7.379143464e-06
-1.445962975e-08
7.393485765e-06
-1.43423013e-08
7.407710375e-06
-1.422460724e-08
7.421816928e-06
-1.410655532e-08
7.435805064e-06
-1.398813656e-08
7.449674403e-06
-1.38693369e-08
7.463424559e-06
-1.375015613e-08
7.477055155e-06
-1.363059901e-08
7.490565835e-06
-1.351067558e-08
7.503956239e-06
-1.339040435e-08
7.517226045e-06
-1.326980755e-08
7.530374969e-06
-1.314892443e-08
7.543402785e-06
-1.302781657e-08
7.556309332e-06
-1.290654385e-08
7.569094515e-06
-1.278518645e-08
7.581758337e-06
-1.266381847e-08
7.594300894e-06
-1.25425579e-08
7.606722443e-06
-1.242155018e-08
7.619023444e-06
-1.230100111e-08
7.631204572e-06
-1.218112871e-08
7.643266737e-06
-1.206216554e-08
7.655211269e-06
-1.194453413e-08
7.667040422e-06
-1.182915021e-08
7.678757141e-06
-1.171672076e-08
7.690362928e-06
-1.160578526e-08
7.701855645e-06
-1.149271893e-08
7.713236736e-06
-1.13810931e-08
7.724527433e-06
-1.129069424e-08
7.735766176e-06
-1.123874296e-08
7.746967344e-06
-1.120116891e-08
7.758185292e-06
-1.121794644e-08
7.770030457e-06
-1.184516754e-08
7.784788779e-06
-1.475832084e-08
-2.16944578e-08
-3.733523017e-09
-1.458777716e-08
-4.80239982e-08
5.02543282e-08
-1.414060909e-07
1.219002024e-07
-2.781046422e-07
1.828416277e-07
-4.489940967e-07
2.303123615e-07
-6.447469328e-07
2.642499555e-07
-8.571343658e-07
2.863237882e-07
-1.079944466e-06
2.997152628e-07
-1.309114054e-06
3.077344513e-07
-1.542268687e-06
3.128414394e-07
-1.778099516e-06
3.164721938e-07
-2.015855636e-06
3.193072325e-07
-2.255124016e-06
3.217349291e-07
-2.495756358e-06
3.239566917e-07
-2.736866973e-06
3.251267467e-07
-2.977685571e-06
3.253748494e-07
-3.217339212e-06
3.244608898e-07
-3.455523292e-06
3.229135554e-07
-3.692245468e-06
3.21191043e-07
-3.927564354e-06
3.195011684e-07
-4.161555697e-06
3.179120945e-07
-4.394281682e-06
3.164183408e-07
-4.625769357e-06
3.149805101e-07
-4.855929253e-06
3.134280715e-07
-5.084505903e-06
3.115022411e-07
-5.311173913e-06
3.090835054e-07
-5.535662373e-06
3.062452565e-07
-5.757824762e-06
3.031698106e-07
-5.977654342e-06
3.000608134e-07
-6.195277549e-06
2.971118319e-07
-6.410954654e-06
2.945249718e-07
-6.625065651e-06
2.924880914e-07
-6.838007329e-06
2.910322423e-07
-7.050053206e-06
2.899858014e-07
-7.26138044e-06
2.89235797e-07
-7.472019836e-06
2.885758267e-07
-7.681635154e-06
2.874171733e-07
-7.889660617e-06
2.853703963e-07
-8.095741891e-06
2.827519591e-07
-8.299854901e-06
2.800854569e-07
-8.50211588e-06
2.775987548e-07
-8.702658416e-06
2.753161751e-07
-8.901597826e-06
2.732041466e-07
-9.099028057e-06
2.712270718e-07
-9.295024778e-06
2.693564798e-07
-9.48964861e-06
2.675698105e-07
-9.682947677e-06
2.658490103e-07
-9.874960043e-06
2.641802071e-07
-1.006571571e-05
2.625524732e-07
-1.025523561e-05
2.609521837e-07
-1.044352624e-05
2.593574769e-07
-1.063057964e-05
2.57751162e-07
-1.081639137e-05
2.561485952e-07
-1.10009695e-05
2.545646251e-07
-1.118427575e-05
2.528892265e-07
-1.13661965e-05
2.509729555e-07
-1.154683649e-05
2.491983707e-07
-1.172682655e-05
2.484488409e-07
-1.190647027e-05
2.482149336e-07
-1.208525696e-05
2.471807345e-07
-1.226288131e-05
2.456304191e-07
-1.243933869e-05
2.440601262e-07
-1.261469743e-05
2.425993563e-07
-1.278902829e-05
2.412479851e-07
-1.296239373e-05
2.399885883e-07
-1.313484868e-05
2.388079208e-07
-1.330644211e-05
2.376964845e-07
-1.347721839e-05
2.366473323e-07
-1.364721851e-05
2.356555271e-07
-1.381648109e-05
2.347176263e-07
-1.398504284e-05
2.33830917e-07
-1.415293879e-05
2.329928751e-07
-1.432020284e-05
2.32201734e-07
-1.448686902e-05
2.314575962e-07
-1.465297251e-05
2.307623115e-07
-1.481854997e-05
2.301182794e-07
-1.498363922e-05
2.295273832e-07
-1.514827866e-05
2.289907448e-07
-1.531250719e-05
2.285093546e-07
-1.547636429e-05
2.280844038e-07
-1.563989035e-05
2.277171833e-07
-1.58031277e-05
2.274094388e-07
-1.596612248e-05
2.271648683e-07
-1.612892584e-05
2.269899011e-07
-1.629159312e-05
2.268911855e-07
-1.645418028e-05
2.268715565e-07
-1.661673974e-05
2.26930233e-07
-1.677932356e-05
2.270692987e-07
-1.694198932e-05
2.272938553e-07
-1.710479795e-05
2.276058782e-07
-1.7267807e-05
2.279995276e-07
-1.74310578e-05
2.2844658e-07
-1.75945503e-05
2.288818536e-07
-1.775827368e-05
2.292970137e-07
-1.792231544e-05
2.298455492e-07
-1.80867686e-05
2.305354772e-07
-1.825172175e-05
2.313554177e-07
-1.841725707e-05
2.322944391e-07
-1.858345305e-05
2.333474862e-07
-1.875038615e-05
2.345125485e-07
-1.891813611e-05
2.357962263e-07
-1.908679051e-05
2.372110465e-07
-1.925643155e-05
2.38748901e-07
-1.942713742e-05
2.404036269e-07
-1.959898022e-05
2.421665644e-07
-1.977202881e-05
2.440337976e-07
-1.994635168e-05
2.460057228e-07
-2.012201742e-05
2.480831315e-07
-2.029909263e-05
2.502629139e-07
-2.047763882e-05
2.52536933e-07
-2.065771362e-05
2.548996002e-07
-2.083938007e-05
2.573608496e-07
-2.10227168e-05
2.599469228e-07
-2.120782057e-05
2.626878818e-07
-2.139480521e-05
2.656110928e-07
-2.158378379e-05
2.687156042e-07
-2.177484567e-05
2.719662888e-07
-2.196806945e-05
2.753497027e-07
-2.216352766e-05
2.788608932e-07
-2.236129233e-05
2.82502766e-07
-2.256143206e-05
2.862707409e-07
-2.276399288e-05
2.901272149e-07
-2.296897385e-05
2.940004363e-07
-2.317634966e-05
2.978609161e-07
-2.338611493e-05
3.017381358e-07
-2.359809021e-05
3.053727809e-07
-2.381234089e-05
3.091548115e-07
-2.40289051e-05
3.130505499e-07
-2.424782223e-05
3.170589682e-07
-2.446904267e-05
3.210533591e-07
-2.469247578e-05
3.249803082e-07
-2.491797523e-05
3.287608782e-07
-2.514534216e-05
3.323157426e-07
-2.537432505e-05
3.355612592e-07
-2.560461022e-05
3.383987527e-07
-2.583584913e-05
3.40776657e-07
-2.606769099e-05
3.427079603e-07
-2.629971408e-05
3.441243409e-07
-2.653139384e-05
3.448969495e-07
-2.676240602e-05
3.453063693e-07
-2.699230399e-05
3.451688338e-07
-2.722057309e-05
3.444008041e-07
-2.744659307e-05
3.428573661e-07
-2.766962761e-05
3.40346049e-07
-2.788878931e-05
3.365871302e-07
-2.810309773e-05
3.314204389e-07
-2.831163051e-05
3.249729926e-07
-2.851331172e-05
3.171190941e-07
-2.870740089e-05
3.083708725e-07
-2.889303164e-05
2.985180738e-07
-2.906915638e-05
2.872678314e-07
-2.923455214e-05
2.742340963e-07
-2.938766104e-05
2.588384025e-07
-2.952668583e-05
2.408099067e-07
-2.965015257e-05
2.206946592e-07
-2.97555839e-05
1.973883655e-07
-2.984198851e-05
1.728902606e-07
-2.990725473e-05
1.455590148e-07
-2.995011545e-05
1.16348337e-07
-2.99726356e-05
8.889947531e-08
-2.997402047e-05
5.976675674e-08
-2.9949361e-05
2.34277707e-08
-2.989552393e-05
-1.605648297e-08
-2.981376463e-05
-5.487810055e-08
-2.970109383e-05
-9.685997049e-08
-2.955511992e-05
-1.406445654e-07
-2.937581179e-05
-1.871842429e-07
-2.916131212e-05
-2.370858814e-07
-2.890997792e-05
-2.883141421e-07
-2.862035102e-05
-3.41824956e-07
-2.829109437e-05
-3.975848532e-07
-2.792087463e-05
-4.554972127e-07
-2.75085436e-05
-5.153905376e-07
-2.705316459e-05
-5.769579097e-07
-2.655400743e-05
-6.398681908e-07
-2.601053805e-05
-7.038252003e-07
-2.542241195e-05
-7.685564982e-07
-2.478950004e-05
-8.337587893e-07
-2.411192286e-05
-8.990804813e-07
-2.339005264e-05
-9.641545988e-07
-2.262452963e-05
-1.028590299e-06
-2.181627396e-05
-1.091978541e-06
-2.096648435e-05
-1.153925302e-06
-2.007666864e-05
-1.214129913e-06
-1.914873235e-05
-1.272498593e-06
-1.818427361e-05
-1.329033632e-06
-1.717864406e-05
-1.382614937e-06
-1.61495747e-05
-1.426003945e-06
-1.508900288e-05
-1.472837543e-06
-1.399786348e-05
-1.519071359e-06
-1.287690706e-05
-1.564269466e-06
-1.172803636e-05
-1.606882221e-06
-1.055365658e-05
-1.646220605e-06
-9.356533674e-06
-1.681728538e-06
-8.139678565e-06
-1.713003103e-06
-6.906382476e-06
-1.739637963e-06
-5.660337522e-06
-1.761237737e-06
-4.405968369e-06
-1.777730111e-06
-3.148216825e-06
-1.789881884e-06
-1.878136549e-06
-1.801872565e-06
-5.978188967e-07
-1.811683572e-06
6.884847531e-07
-1.817670343e-06
1.976078512e-06
-1.818221255e-06
3.259997958e-06
-1.812540103e-06
4.535527747e-06
-1.800936991e-06
5.805318186e-06
-1.793065507e-06
7.069634438e-06
-1.786427944e-06
8.323927458e-06
-1.773945732e-06
9.564512849e-06
-1.755673845e-06
1.078817776e-05
-1.732202309e-06
1.199201498e-05
-1.704115488e-06
1.317339867e-05
-1.671927485e-06
1.432998457e-05
-1.636121417e-06
1.54596994e-05
-1.597151667e-06
1.656071395e-05
-1.555422283e-06
1.763141258e-05
-1.511282036e-06
1.867037022e-05
-1.465037185e-06
1.967633854e-05
-1.416968609e-06
2.064824065e-05
-1.367347795e-06
2.158517097e-05
-1.31644834e-06
2.248639323e-05
-1.264541028e-06
2.335133137e-05
-1.211873122e-06
2.417958534e-05
-1.158704157e-06
2.497068949e-05
-1.104872064e-06
2.5724222e-05
-1.050335116e-06
2.644017114e-05
-9.957687456e-07
2.711881188e-05
-9.416135038e-07
2.775982978e-05
-8.876322513e-07
2.836334458e-05
-8.339534768e-07
2.892979715e-05
-7.808023409e-07
2.945970278e-05
-7.283807778e-07
2.99536606e-05
-6.768573261e-07
3.041236517e-05
-6.263614553e-07
3.083656253e-05
-5.771169649e-07
3.122700225e-05
-5.292746217e-07
3.15844218e-05
-4.825644247e-07
3.190961287e-05
-4.37021747e-07
3.220342251e-05
-3.927351433e-07
3.246674543e-05
-3.497831825e-07
3.270051748e-05
-3.082283477e-07
3.290567864e-05
-2.680814799e-07
3.308332093e-05
-2.29559511e-07
3.323450816e-05
-1.926164525e-07
3.336027412e-05
-1.57133462e-07
3.346160317e-05
-1.229876637e-07
3.353914895e-05
-9.017146513e-08
3.359369686e-05
-5.896276629e-08
3.362651149e-05
-2.985724147e-08
3.363808811e-05
-1.941200609e-09
3.36324287e-05
2.332747966e-08
3.360971258e-05
4.728411888e-08
3.356960316e-05
7.142349242e-08
3.351249271e-05
9.459715964e-08
3.343903847e-05
1.166980184e-07
3.335031861e-05
1.373029345e-07
3.324729489e-05
1.565367169e-07
3.313085953e-05
1.744861909e-07
3.300190337e-05
1.91164834e-07
3.286130796e-05
2.065991057e-07
3.270992162e-05
2.208473659e-07
3.254854554e-05
2.339828838e-07
3.237793031e-05
2.460790912e-07
3.219879308e-05
2.571821162e-07
3.201184079e-05
2.67297317e-07
3.181771338e-05
2.765029333e-07
3.161710546e-05
2.848062771e-07
3.141063786e-05
2.922582582e-07
3.119888464e-05
2.989092945e-07
3.098239255e-05
3.047916898e-07
3.076168334e-05
3.099759827e-07
3.053726105e-05
3.145138337e-07
3.030960835e-05
3.183974737e-07
3.007918345e-05
3.216588785e-07
2.98464225e-05
3.243315668e-07
2.961174088e-05
3.264433581e-07
2.937555052e-05
3.27992561e-07
2.913818132e-05
3.290864417e-07
2.889995856e-05
3.297410987e-07
2.866119851e-05
3.29970984e-07
2.842221588e-05
3.297888372e-07
2.818334818e-05
3.291836239e-07
2.794491549e-05
3.281663458e-07
2.770719197e-05
3.267745388e-07
2.74704173e-05
3.250592765e-07
2.723480655e-05
3.230692327e-07
2.700058524e-05
3.207905601e-07
2.676797243e-05
3.182221665e-07
2.653714323e-05
3.154252927e-07
2.630825691e-05
3.124289573e-07
2.608147428e-05
3.09230362e-07
2.585695512e-05
3.05826998e-07
2.563484519e-05
3.02237068e-07
2.541527699e-05
2.984792559e-07
2.519837679e-05
2.945615965e-07
2.498426275e-05
2.904943587e-07
2.477304192e-05
2.86292617e-07
2.456481179e-05
2.819695115e-07
2.435966163e-05
2.775363206e-07
2.41576731e-05
2.730032885e-07
2.395892024e-05
2.683805151e-07
2.376347137e-05
2.636746787e-07
2.357138408e-05
2.58900408e-07
2.338270438e-05
2.540744319e-07
2.319747358e-05
2.492034428e-07
2.301573054e-05
2.442900162e-07
2.283751085e-05
2.393377302e-07
2.266284614e-05
2.343514064e-07
2.24917639e-05
2.29336261e-07
2.232428751e-05
2.242975632e-07
2.216043617e-05
2.192406137e-07
2.200022503e-05
2.141707035e-07
2.184366518e-05
2.090930294e-07
2.169076387e-05
2.040126027e-07
2.154152466e-05
1.989341948e-07
2.139594763e-05
1.938623004e-07
2.125402962e-05
1.888011305e-07
2.111576437e-05
1.837546305e-07
2.098114274e-05
1.787265213e-07
2.085015279e-05
1.737204139e-07
2.072278009e-05
1.687395744e-07
2.059900764e-05
1.637872465e-07
2.047881683e-05
1.588650913e-07
2.036218602e-05
1.539770936e-07
2.024908999e-05
1.491282243e-07
2.013950147e-05
1.443212386e-07
2.003339223e-05
1.395571852e-07
1.993073319e-05
1.348368916e-07
1.983149426e-05
1.301614301e-07
1.973564433e-05
1.255319688e-07
1.964315129e-05
1.209496697e-07
1.955398201e-05
1.164156825e-07
1.946810241e-05
1.119311545e-07
1.938547742e-05
1.074972325e-07
1.930607102e-05
1.031150397e-07
1.922984629e-05
9.87856647e-08
1.915676543e-05
9.451016288e-08
1.90867898e-05
9.028953525e-08
1.901987997e-05
8.612473002e-08
1.895599578e-05
8.201664487e-08
1.889509635e-05
7.796609613e-08
1.88371402e-05
7.397384572e-08
1.878208525e-05
7.004057479e-08
1.87298889e-05
6.616690754e-08
1.868050805e-05
6.235340037e-08
1.86338992e-05
5.860055541e-08
1.859001843e-05
5.490881734e-08
1.85488215e-05
5.127858362e-08
1.851026383e-05
4.771018788e-08
1.847430065e-05
4.42039024e-08
1.844088698e-05
4.075988191e-08
1.840997778e-05
3.737816838e-08
1.838152794e-05
3.405869279e-08
1.835549226e-05
3.080108482e-08
1.833182539e-05
2.760372709e-08
1.831048126e-05
2.446250224e-08
1.829141187e-05
2.13732269e-08
1.827456929e-05
1.834224254e-08
1.825991549e-05
1.539439244e-08
1.824740952e-05
1.254889093e-08
1.823701623e-05
9.78419589e-09
1.822868564e-05
7.043310596e-09
1.822239454e-05
4.303639504e-09
1.821813754e-05
1.578750621e-09
1.821584224e-05
-1.053060969e-09
1.821535271e-05
-3.541926235e-09
1.821654533e-05
-5.874025749e-09
1.82193836e-05
-8.104499113e-09
1.822392109e-05
-1.034390144e-08
1.823017614e-05
-1.259242328e-08
1.823811783e-05
-1.482634579e-08
1.824775094e-05
-1.709360392e-08
1.825897146e-05
-1.92339333e-08
1.827171261e-05
-2.128374316e-08
1.828590601e-05
-2.322990389e-08
1.830150291e-05
-2.509567368e-08
1.83184721e-05
-2.691268509e-08
1.833680067e-05
-2.871256574e-08
1.83564657e-05
-3.048722278e-08
1.837742581e-05
-3.221316696e-08
1.839964165e-05
-3.388752255e-08
1.842306098e-05
-3.548830564e-08
1.844763455e-05
-3.701874763e-08
1.84733207e-05
-3.849043872e-08
1.850009009e-05
-3.992201248e-08
1.852790769e-05
-4.130607071e-08
1.85567416e-05
-4.264779717e-08
1.858656347e-05
-4.395255148e-08
1.861733926e-05
-4.521172149e-08
1.864902997e-05
-4.64174034e-08
1.868159813e-05
-4.757157144e-08
1.871500696e-05