/*--------------------------------*- C++ -*----------------------------------*\
| =========                 |                                                 |
| \\      /  F ield         | OpenFOAM: The Open Source CFD Toolbox           |
|  \\    /   O peration     | Version:  2312                                  |
|   \\  /    A nd           | Website:  www.openfoam.com                      |
|    \\/     M anipulation  |                                                 |
\*---------------------------------------------------------------------------*/
FoamFile
{
    version     2.0;
    format      ascii;
    arch        "LSB;label=32;scalar=64";
    class       volScalarField;
    location    "4800";
    object      thermo:psiGasEff;
}
// * * * * * * * * * * * * * * * * * * * * * * * * * * * * * * * * * * * * * //

dimensions      [-2 4 2 0 0 0 0];

internalField   nonuniform List<scalar> 
20400
(
8.190973907e-06
8.190973961e-06
8.19097403e-06
8.190974082e-06
8.190974122e-06
8.190974157e-06
8.190974187e-06
8.190974214e-06
8.190974237e-06
8.190974259e-06
8.190974279e-06
8.190974296e-06
8.19097431e-06
8.190974321e-06
8.190974327e-06
8.190974329e-06
8.190974325e-06
8.190974315e-06
8.190974297e-06
8.190974273e-06
8.190974241e-06
8.190974201e-06
8.190974154e-06
8.190974098e-06
8.190974034e-06
8.190973961e-06
8.190973879e-06
8.190973788e-06
8.190973688e-06
8.190973579e-06
8.190973461e-06
8.190973334e-06
8.190973199e-06
8.190973054e-06
8.1909729e-06
8.190972736e-06
8.190972563e-06
8.190972379e-06
8.190972184e-06
8.190971979e-06
8.190971764e-06
8.190971539e-06
8.190971303e-06
8.190971057e-06
8.190970801e-06
8.190970535e-06
8.190970258e-06
8.190969971e-06
8.190969673e-06
8.190969364e-06
8.190969045e-06
8.190968716e-06
8.190968375e-06
8.190968024e-06
8.190967661e-06
8.190967288e-06
8.190966903e-06
8.190966508e-06
8.190966103e-06
8.190965686e-06
8.190965258e-06
8.190964818e-06
8.190964367e-06
8.190963904e-06
8.19096343e-06
8.190962945e-06
8.190962448e-06
8.19096194e-06
8.19096142e-06
8.190960889e-06
8.190960346e-06
8.190959791e-06
8.190959225e-06
8.190958646e-06
8.190958056e-06
8.190957454e-06
8.190956839e-06
8.190956213e-06
8.190955574e-06
8.190954923e-06
8.19095426e-06
8.190953584e-06
8.190952895e-06
8.190952194e-06
8.19095148e-06
8.190950754e-06
8.190950014e-06
8.190949261e-06
8.190948494e-06
8.190947715e-06
8.190946922e-06
8.190946115e-06
8.190945294e-06
8.190944459e-06
8.19094361e-06
8.190942746e-06
8.190941868e-06
8.190940976e-06
8.190940068e-06
8.190939145e-06
8.190938207e-06
8.190937254e-06
8.190936284e-06
8.190935298e-06
8.190934296e-06
8.190933277e-06
8.190932241e-06
8.190931187e-06
8.190930116e-06
8.190929026e-06
8.190927918e-06
8.190926791e-06
8.190925644e-06
8.190924477e-06
8.19092329e-06
8.190922082e-06
8.190920852e-06
8.1909196e-06
8.190918326e-06
8.190917028e-06
8.190915705e-06
8.190914358e-06
8.190912985e-06
8.190911586e-06
8.190910158e-06
8.190908703e-06
8.190907218e-06
8.190905703e-06
8.190904157e-06
8.190902579e-06
8.190900967e-06
8.19089932e-06
8.190897637e-06
8.190895916e-06
8.190894157e-06
8.190892357e-06
8.190890515e-06
8.19088863e-06
8.1908867e-06
8.190884724e-06
8.1908827e-06
8.190880626e-06
8.1908785e-06
8.190876321e-06
8.190874087e-06
8.190871795e-06
8.190869444e-06
8.190867033e-06
8.190864559e-06
8.190862021e-06
8.190859418e-06
8.190856747e-06
8.190854006e-06
8.190851193e-06
8.190848308e-06
8.19084535e-06
8.190842318e-06
8.190839211e-06
8.190836027e-06
8.190832767e-06
8.190829429e-06
8.190826013e-06
8.190822524e-06
8.190818963e-06
8.190815328e-06
8.190811616e-06
8.190807828e-06
8.190803977e-06
8.190800067e-06
8.190796098e-06
8.19079207e-06
8.190787987e-06
8.190783853e-06
8.190779675e-06
8.190775457e-06
8.190771204e-06
8.190766924e-06
8.190762623e-06
8.190758309e-06
8.190753988e-06
8.190749668e-06
8.190745358e-06
8.190741066e-06
8.1907368e-06
8.190732569e-06
8.190728385e-06
8.190724258e-06
8.190720184e-06
8.190716178e-06
8.190712247e-06
8.190708396e-06
8.190704632e-06
8.190700963e-06
8.190697395e-06
8.190693935e-06
8.19069059e-06
8.190687365e-06
8.190684265e-06
8.190681301e-06
8.190678485e-06
8.190675809e-06
8.190673268e-06
8.190670861e-06
8.190668589e-06
8.190666455e-06
8.190664456e-06
8.19066259e-06
8.190660856e-06
8.190659257e-06
8.190657791e-06
8.190656459e-06
8.190655257e-06
8.190654182e-06
8.190653232e-06
8.190652401e-06
8.190651685e-06
8.190651079e-06
8.190650577e-06
8.190650176e-06
8.190649867e-06
8.190649647e-06
8.190649509e-06
8.190649448e-06
8.190649457e-06
8.190649531e-06
8.190649665e-06
8.190649853e-06
8.190650088e-06
8.190650365e-06
8.19065068e-06
8.190651029e-06
8.190651405e-06
8.190651805e-06
8.190652223e-06
8.190652656e-06
8.1906531e-06
8.190653551e-06
8.190654007e-06
8.190654463e-06
8.190654917e-06
8.190655367e-06
8.190655809e-06
8.190656242e-06
8.190656662e-06
8.190657068e-06
8.190657459e-06
8.190657836e-06
8.190658197e-06
8.190658537e-06
8.190658857e-06
8.190659155e-06
8.19065943e-06
8.190659682e-06
8.19065991e-06
8.190660113e-06
8.190660291e-06
8.190660444e-06
8.190660573e-06
8.190660676e-06
8.190660754e-06
8.190660808e-06
8.190660838e-06
8.190660843e-06
8.190660824e-06
8.190660782e-06
8.190660718e-06
8.19066063e-06
8.190660521e-06
8.19066039e-06
8.190660238e-06
8.190660066e-06
8.190659874e-06
8.190659663e-06
8.190659432e-06
8.190659184e-06
8.190658919e-06
8.190658636e-06
8.190658337e-06
8.190658023e-06
8.190657693e-06
8.190657349e-06
8.190656991e-06
8.19065662e-06
8.190656236e-06
8.19065584e-06
8.190655432e-06
8.190655013e-06
8.190654584e-06
8.190654145e-06
8.190653697e-06
8.190653239e-06
8.190652774e-06
8.1906523e-06
8.190651819e-06
8.190651331e-06
8.190650837e-06
8.190650336e-06
8.19064983e-06
8.190649319e-06
8.190648803e-06
8.190648282e-06
8.190647758e-06
8.19064723e-06
8.190646699e-06
8.190646165e-06
8.190645628e-06
8.190645089e-06
8.190644548e-06
8.190644006e-06
8.190643462e-06
8.190642918e-06
8.190642372e-06
8.190641827e-06
8.190641281e-06
8.190640735e-06
8.190640189e-06
8.190639644e-06
8.1906391e-06
8.190638556e-06
8.190638014e-06
8.190637474e-06
8.190636935e-06
8.190636397e-06
8.190635862e-06
8.190635329e-06
8.190634798e-06
8.19063427e-06
8.190633744e-06
8.190633222e-06
8.190632702e-06
8.190632185e-06
8.190631671e-06
8.190631161e-06
8.190630654e-06
8.190630151e-06
8.190629651e-06
8.190629156e-06
8.190628664e-06
8.190628176e-06
8.190627692e-06
8.190627213e-06
8.190626737e-06
8.190626266e-06
8.1906258e-06
8.190625338e-06
8.190624881e-06
8.190624428e-06
8.19062398e-06
8.190623537e-06
8.190623098e-06
8.190622665e-06
8.190622236e-06
8.190621813e-06
8.190621394e-06
8.190620981e-06
8.190620573e-06
8.19062017e-06
8.190619772e-06
8.19061938e-06
8.190618993e-06
8.190618611e-06
8.190618234e-06
8.190617864e-06
8.190617498e-06
8.190617138e-06
8.190616783e-06
8.190616433e-06
8.19061609e-06
8.190615751e-06
8.190615419e-06
8.190615092e-06
8.19061477e-06
8.190614454e-06
8.190614143e-06
8.190613838e-06
8.190613539e-06
8.190613245e-06
8.190612957e-06
8.190612674e-06
8.190612397e-06
8.190612125e-06
8.190611859e-06
8.190611598e-06
8.190611343e-06
8.190611094e-06
8.190610849e-06
8.190610611e-06
8.190610377e-06
8.190610149e-06
8.190609927e-06
8.19060971e-06
8.190609498e-06
8.190609291e-06
8.19060909e-06
8.190608894e-06
8.190608704e-06
8.190608518e-06
8.190608338e-06
8.190608163e-06
8.190607993e-06
8.190607828e-06
8.190607669e-06
8.190607514e-06
8.190607364e-06
8.190607219e-06
8.19060708e-06
8.190606945e-06
8.190606815e-06
8.19060669e-06
8.19060657e-06
8.190606454e-06
8.190606344e-06
8.190606238e-06
8.190606137e-06
8.19060604e-06
8.190605948e-06
8.190605861e-06
8.190605778e-06
8.1906057e-06
8.190605626e-06
8.190605557e-06
8.190605492e-06
8.190605432e-06
8.190605376e-06
8.190605324e-06
8.190605276e-06
8.190605233e-06
8.190605194e-06
8.190605159e-06
8.190605128e-06
8.190605101e-06
8.190605079e-06
8.19060506e-06
8.190605045e-06
8.190605034e-06
8.190605027e-06
8.190605024e-06
8.190605024e-06
8.190605028e-06
8.190605036e-06
8.190605048e-06
8.190605063e-06
8.190605081e-06
8.190605103e-06
8.190605129e-06
8.190605158e-06
8.19060519e-06
8.190605226e-06
8.190605265e-06
8.190605307e-06
8.190605352e-06
8.1906054e-06
8.190605452e-06
8.190605506e-06
8.190605564e-06
8.190605625e-06
8.190605688e-06
8.190605755e-06
8.190605824e-06
8.190605896e-06
8.190605971e-06
8.190606049e-06
8.19060613e-06
8.190606213e-06
8.190606299e-06
8.190606387e-06
8.190606479e-06
8.190606573e-06
8.190606669e-06
8.190606768e-06
8.190606869e-06
8.190606973e-06
8.19060708e-06
8.190607188e-06
8.1906073e-06
8.190607413e-06
8.190607529e-06
8.190607647e-06
8.190607768e-06
8.190607891e-06
8.190608016e-06
8.190608143e-06
8.190608273e-06
8.190608404e-06
8.190608538e-06
8.190608674e-06
8.190608812e-06
8.190608952e-06
8.190609095e-06
8.190609239e-06
8.190609385e-06
8.190609533e-06
8.190609683e-06
8.190609835e-06
8.190609989e-06
8.190610145e-06
8.190610303e-06
8.190610457e-06
8.190610602e-06
8.190610767e-06
8.190973857e-06
8.190973914e-06
8.19097396e-06
8.190973997e-06
8.190974031e-06
8.190974064e-06
8.190974095e-06
8.190974125e-06
8.190974152e-06
8.190974176e-06
8.190974199e-06
8.190974219e-06
8.190974236e-06
8.190974249e-06
8.190974257e-06
8.19097426e-06
8.190974256e-06
8.190974245e-06
8.190974227e-06
8.190974201e-06
8.190974169e-06
8.190974128e-06
8.190974081e-06
8.190974025e-06
8.190973961e-06
8.190973888e-06
8.190973806e-06
8.190973715e-06
8.190973615e-06
8.190973506e-06
8.190973388e-06
8.190973261e-06
8.190973125e-06
8.19097298e-06
8.190972826e-06
8.190972663e-06
8.190972489e-06
8.190972306e-06
8.190972111e-06
8.190971906e-06
8.190971691e-06
8.190971466e-06
8.190971231e-06
8.190970985e-06
8.19097073e-06
8.190970463e-06
8.190970187e-06
8.1909699e-06
8.190969602e-06
8.190969294e-06
8.190968975e-06
8.190968645e-06
8.190968305e-06
8.190967954e-06
8.190967592e-06
8.190967219e-06
8.190966834e-06
8.190966439e-06
8.190966034e-06
8.190965618e-06
8.190965189e-06
8.19096475e-06
8.190964299e-06
8.190963836e-06
8.190963363e-06
8.190962878e-06
8.190962381e-06
8.190961873e-06
8.190961354e-06
8.190960822e-06
8.19096028e-06
8.190959725e-06
8.190959159e-06
8.19095858e-06
8.19095799e-06
8.190957388e-06
8.190956774e-06
8.190956147e-06
8.190955508e-06
8.190954857e-06
8.190954194e-06
8.190953518e-06
8.19095283e-06
8.190952128e-06
8.190951414e-06
8.190950687e-06
8.190949947e-06
8.190949194e-06
8.190948428e-06
8.190947648e-06
8.190946855e-06
8.190946047e-06
8.190945226e-06
8.190944391e-06
8.190943541e-06
8.190942678e-06
8.190941799e-06
8.190940906e-06
8.190939998e-06
8.190939075e-06
8.190938136e-06
8.190937182e-06
8.190936212e-06
8.190935225e-06
8.190934222e-06
8.190933203e-06
8.190932166e-06
8.190931111e-06
8.190930039e-06
8.190928948e-06
8.190927839e-06
8.190926711e-06
8.190925563e-06
8.190924395e-06
8.190923206e-06
8.190921997e-06
8.190920766e-06
8.190919513e-06
8.190918237e-06
8.190916937e-06
8.190915613e-06
8.190914264e-06
8.19091289e-06
8.190911488e-06
8.190910059e-06
8.190908601e-06
8.190907115e-06
8.190905598e-06
8.190904049e-06
8.190902469e-06
8.190900854e-06
8.190899205e-06
8.19089752e-06
8.190895797e-06
8.190894036e-06
8.190892234e-06
8.190890391e-06
8.190888504e-06
8.190886573e-06
8.190884596e-06
8.190882571e-06
8.190880497e-06
8.190878371e-06
8.190876193e-06
8.190873959e-06
8.190871669e-06
8.190869321e-06
8.190866912e-06
8.190864442e-06
8.190861909e-06
8.190859312e-06
8.190856648e-06
8.190853915e-06
8.190851112e-06
8.190848237e-06
8.190845291e-06
8.190842272e-06
8.19083918e-06
8.190836013e-06
8.190832771e-06
8.190829451e-06
8.190826055e-06
8.19082259e-06
8.19081906e-06
8.19081546e-06
8.19081179e-06
8.190808054e-06
8.190804252e-06
8.190800388e-06
8.190796463e-06
8.190792481e-06
8.190788446e-06
8.190784362e-06
8.190780233e-06
8.190776066e-06
8.190771865e-06
8.190767637e-06
8.190763388e-06
8.190759125e-06
8.190754856e-06
8.190750588e-06
8.190746329e-06
8.190742086e-06
8.190737869e-06
8.190733683e-06
8.190729536e-06
8.190725436e-06
8.190721404e-06
8.190717431e-06
8.190713526e-06
8.190709699e-06
8.190705957e-06
8.190702308e-06
8.190698759e-06
8.190695314e-06
8.19069198e-06
8.190688763e-06
8.190685665e-06
8.190682685e-06
8.190679816e-06
8.190677069e-06
8.190674453e-06
8.190671972e-06
8.190669628e-06
8.190667421e-06
8.190665346e-06
8.190663404e-06
8.190661601e-06
8.19065994e-06
8.190658418e-06
8.190657036e-06
8.190655788e-06
8.190654673e-06
8.190653685e-06
8.19065282e-06
8.190652072e-06
8.190651438e-06
8.190650911e-06
8.190650485e-06
8.190650155e-06
8.190649914e-06
8.190649758e-06
8.190649679e-06
8.190649673e-06
8.190649733e-06
8.190649853e-06
8.190650028e-06
8.190650253e-06
8.190650522e-06
8.190650829e-06
8.190651169e-06
8.190651537e-06
8.19065193e-06
8.190652341e-06
8.190652767e-06
8.190653204e-06
8.190653648e-06
8.190654096e-06
8.190654546e-06
8.190654993e-06
8.190655435e-06
8.19065587e-06
8.190656295e-06
8.190656709e-06
8.190657109e-06
8.190657494e-06
8.190657862e-06
8.190658214e-06
8.190658549e-06
8.190658865e-06
8.19065916e-06
8.190659431e-06
8.190659677e-06
8.190659899e-06
8.190660097e-06
8.190660271e-06
8.19066042e-06
8.190660544e-06
8.190660644e-06
8.190660719e-06
8.19066077e-06
8.190660797e-06
8.1906608e-06
8.190660779e-06
8.190660735e-06
8.190660668e-06
8.190660578e-06
8.190660467e-06
8.190660334e-06
8.190660181e-06
8.190660007e-06
8.190659813e-06
8.1906596e-06
8.190659369e-06
8.190659119e-06
8.190658853e-06
8.190658569e-06
8.190658269e-06
8.190657954e-06
8.190657623e-06
8.190657279e-06
8.19065692e-06
8.190656549e-06
8.190656164e-06
8.190655768e-06
8.19065536e-06
8.190654941e-06
8.190654512e-06
8.190654073e-06
8.190653625e-06
8.190653168e-06
8.190652703e-06
8.19065223e-06
8.190651749e-06
8.190651262e-06
8.190650768e-06
8.190650268e-06
8.190649762e-06
8.190649252e-06
8.190648736e-06
8.190648217e-06
8.190647693e-06
8.190647166e-06
8.190646636e-06
8.190646103e-06
8.190645567e-06
8.190645029e-06
8.190644489e-06
8.190643948e-06
8.190643405e-06
8.190642862e-06
8.190642317e-06
8.190641773e-06
8.190641228e-06
8.190640683e-06
8.190640139e-06
8.190639595e-06
8.190639052e-06
8.19063851e-06
8.190637969e-06
8.190637429e-06
8.190636891e-06
8.190636355e-06
8.190635821e-06
8.190635289e-06
8.19063476e-06
8.190634232e-06
8.190633708e-06
8.190633186e-06
8.190632667e-06
8.190632152e-06
8.190631639e-06
8.19063113e-06
8.190630624e-06
8.190630122e-06
8.190629624e-06
8.190629129e-06
8.190628638e-06
8.190628152e-06
8.190627669e-06
8.19062719e-06
8.190626716e-06
8.190626246e-06
8.190625781e-06
8.19062532e-06
8.190624863e-06
8.190624411e-06
8.190623964e-06
8.190623522e-06
8.190623084e-06
8.190622652e-06
8.190622224e-06
8.190621802e-06
8.190621384e-06
8.190620972e-06
8.190620564e-06
8.190620162e-06
8.190619765e-06
8.190619373e-06
8.190618987e-06
8.190618606e-06
8.19061823e-06
8.19061786e-06
8.190617495e-06
8.190617135e-06
8.190616781e-06
8.190616432e-06
8.190616089e-06
8.190615751e-06
8.190615419e-06
8.190615092e-06
8.190614771e-06
8.190614455e-06
8.190614145e-06
8.190613841e-06
8.190613542e-06
8.190613249e-06
8.190612961e-06
8.190612678e-06
8.190612402e-06
8.19061213e-06
8.190611865e-06
8.190611604e-06
8.190611349e-06
8.1906111e-06
8.190610856e-06
8.190610618e-06
8.190610385e-06
8.190610157e-06
8.190609935e-06
8.190609718e-06
8.190609506e-06
8.1906093e-06
8.190609099e-06
8.190608904e-06
8.190608713e-06
8.190608528e-06
8.190608348e-06
8.190608173e-06
8.190608003e-06
8.190607839e-06
8.190607679e-06
8.190607524e-06
8.190607375e-06
8.19060723e-06
8.190607091e-06
8.190606956e-06
8.190606826e-06
8.190606701e-06
8.190606581e-06
8.190606466e-06
8.190606355e-06
8.190606249e-06
8.190606148e-06
8.190606052e-06
8.19060596e-06
8.190605872e-06
8.19060579e-06
8.190605712e-06
8.190605638e-06
8.190605569e-06
8.190605504e-06
8.190605443e-06
8.190605387e-06
8.190605335e-06
8.190605288e-06
8.190605245e-06
8.190605205e-06
8.19060517e-06
8.19060514e-06
8.190605113e-06
8.19060509e-06
8.190605071e-06
8.190605056e-06
8.190605045e-06
8.190605038e-06
8.190605035e-06
8.190605035e-06
8.190605039e-06
8.190605047e-06
8.190605058e-06
8.190605073e-06
8.190605092e-06
8.190605114e-06
8.19060514e-06
8.190605168e-06
8.190605201e-06
8.190605236e-06
8.190605275e-06
8.190605317e-06
8.190605362e-06
8.190605411e-06
8.190605462e-06
8.190605517e-06
8.190605574e-06
8.190605635e-06
8.190605698e-06
8.190605765e-06
8.190605834e-06
8.190605906e-06
8.190605981e-06
8.190606059e-06
8.19060614e-06
8.190606223e-06
8.190606309e-06
8.190606397e-06
8.190606488e-06
8.190606582e-06
8.190606679e-06
8.190606777e-06
8.190606879e-06
8.190606983e-06
8.190607089e-06
8.190607198e-06
8.190607309e-06
8.190607422e-06
8.190607538e-06
8.190607656e-06
8.190607777e-06
8.1906079e-06
8.190608025e-06
8.190608152e-06
8.190608281e-06
8.190608413e-06
8.190608547e-06
8.190608683e-06
8.190608821e-06
8.190608961e-06
8.190609103e-06
8.190609247e-06
8.190609393e-06
8.190609541e-06
8.190609691e-06
8.190609843e-06
8.190609997e-06
8.190610154e-06
8.190610311e-06
8.190610464e-06
8.190610605e-06
8.190610766e-06
8.190973776e-06
8.190973861e-06
8.190973907e-06
8.190973936e-06
8.190973963e-06
8.190973992e-06
8.19097402e-06
8.190974048e-06
8.190974075e-06
8.190974101e-06
8.190974126e-06
8.190974148e-06
8.190974168e-06
8.190974183e-06
8.190974191e-06
8.190974193e-06
8.190974188e-06
8.190974176e-06
8.190974157e-06
8.190974132e-06
8.190974099e-06
8.190974058e-06
8.190974011e-06
8.190973955e-06
8.190973891e-06
8.190973818e-06
8.190973737e-06
8.190973646e-06
8.190973546e-06
8.190973438e-06
8.19097332e-06
8.190973193e-06
8.190973057e-06
8.190972912e-06
8.190972758e-06
8.190972595e-06
8.190972422e-06
8.190972239e-06
8.190972045e-06
8.190971841e-06
8.190971626e-06
8.190971401e-06
8.190971166e-06
8.190970921e-06
8.190970666e-06
8.1909704e-06
8.190970123e-06
8.190969837e-06
8.190969539e-06
8.190969232e-06
8.190968913e-06
8.190968584e-06
8.190968244e-06
8.190967893e-06
8.190967532e-06
8.190967159e-06
8.190966774e-06
8.190966379e-06
8.190965975e-06
8.190965559e-06
8.190965131e-06
8.190964691e-06
8.19096424e-06
8.190963778e-06
8.190963305e-06
8.19096282e-06
8.190962323e-06
8.190961816e-06
8.190961296e-06
8.190960765e-06
8.190960222e-06
8.190959668e-06
8.190959102e-06
8.190958523e-06
8.190957933e-06
8.190957331e-06
8.190956717e-06
8.19095609e-06
8.190955452e-06
8.190954801e-06
8.190954137e-06
8.190953462e-06
8.190952773e-06
8.190952072e-06
8.190951358e-06
8.190950631e-06
8.19094989e-06
8.190949137e-06
8.190948371e-06
8.190947591e-06
8.190946797e-06
8.19094599e-06
8.190945168e-06
8.190944332e-06
8.190943482e-06
8.190942618e-06
8.190941739e-06
8.190940846e-06
8.190939937e-06
8.190939013e-06
8.190938074e-06
8.190937119e-06
8.190936148e-06
8.190935161e-06
8.190934157e-06
8.190933137e-06
8.190932099e-06
8.190931044e-06
8.19092997e-06
8.190928879e-06
8.190927769e-06
8.190926639e-06
8.19092549e-06
8.190924321e-06
8.190923132e-06
8.190921922e-06
8.190920689e-06
8.190919435e-06
8.190918158e-06
8.190916858e-06
8.190915533e-06
8.190914183e-06
8.190912807e-06
8.190911405e-06
8.190909976e-06
8.190908518e-06
8.19090703e-06
8.190905513e-06
8.190903965e-06
8.190902384e-06
8.19090077e-06
8.190899122e-06
8.190897438e-06
8.190895717e-06
8.190893958e-06
8.190892158e-06
8.190890318e-06
8.190888435e-06
8.190886508e-06
8.190884535e-06
8.190882516e-06
8.190880448e-06
8.19087833e-06
8.19087616e-06
8.190873936e-06
8.190871656e-06
8.19086932e-06
8.190866925e-06
8.190864471e-06
8.190861956e-06
8.190859378e-06
8.190856735e-06
8.190854022e-06
8.190851238e-06
8.190848384e-06
8.190845462e-06
8.190842466e-06
8.190839396e-06
8.190836253e-06
8.190833046e-06
8.190829767e-06
8.190826417e-06
8.190822994e-06
8.190819497e-06
8.190815927e-06
8.190812288e-06
8.19080858e-06
8.190804806e-06
8.190800969e-06
8.19079707e-06
8.190793113e-06
8.190789102e-06
8.190785039e-06
8.19078093e-06
8.19077678e-06
8.190772595e-06
8.190768381e-06
8.190764143e-06
8.19075989e-06
8.190755629e-06
8.190751366e-06
8.19074711e-06
8.190742869e-06
8.19073865e-06
8.190734461e-06
8.190730307e-06
8.190726192e-06
8.19072213e-06
8.190718125e-06
8.190714189e-06
8.190710328e-06
8.190706552e-06
8.190702866e-06
8.190699277e-06
8.190695794e-06
8.190692422e-06
8.190689168e-06
8.190686034e-06
8.190683022e-06
8.190680126e-06
8.190677355e-06
8.19067472e-06
8.190672222e-06
8.190669863e-06
8.19066765e-06
8.190665585e-06
8.190663665e-06
8.190661885e-06
8.190660242e-06
8.190658735e-06
8.190657362e-06
8.190656121e-06
8.190655008e-06
8.19065402e-06
8.190653153e-06
8.190652402e-06
8.190651762e-06
8.190651229e-06
8.190650795e-06
8.190650456e-06
8.190650207e-06
8.19065004e-06
8.190649951e-06
8.190649934e-06
8.190649981e-06
8.190650089e-06
8.190650252e-06
8.190650465e-06
8.190650721e-06
8.190651017e-06
8.190651346e-06
8.190651704e-06
8.190652086e-06
8.190652488e-06
8.190652907e-06
8.190653336e-06
8.190653774e-06
8.190654215e-06
8.190654658e-06
8.190655099e-06
8.190655535e-06
8.190655963e-06
8.190656383e-06
8.19065679e-06
8.190657184e-06
8.190657563e-06
8.190657925e-06
8.190658271e-06
8.190658598e-06
8.190658908e-06
8.190659196e-06
8.190659462e-06
8.190659706e-06
8.190659926e-06
8.190660119e-06
8.190660287e-06
8.190660431e-06
8.19066055e-06
8.190660645e-06
8.190660716e-06
8.190660762e-06
8.190660785e-06
8.190660784e-06
8.19066076e-06
8.190660712e-06
8.190660643e-06
8.190660551e-06
8.190660437e-06
8.190660302e-06
8.190660146e-06
8.19065997e-06
8.190659775e-06
8.19065956e-06
8.190659327e-06
8.190659076e-06
8.190658807e-06
8.190658522e-06
8.190658221e-06
8.190657904e-06
8.190657573e-06
8.190657227e-06
8.190656867e-06
8.190656494e-06
8.190656109e-06
8.190655712e-06
8.190655304e-06
8.190654884e-06
8.190654454e-06
8.190654015e-06
8.190653566e-06
8.190653109e-06
8.190652643e-06
8.19065217e-06
8.190651689e-06
8.190651202e-06
8.190650708e-06
8.190650208e-06
8.190649703e-06
8.190649192e-06
8.190648677e-06
8.190648158e-06
8.190647635e-06
8.190647108e-06
8.190646578e-06
8.190646045e-06
8.19064551e-06
8.190644973e-06
8.190644434e-06
8.190643893e-06
8.190643351e-06
8.190642808e-06
8.190642264e-06
8.19064172e-06
8.190641176e-06
8.190640632e-06
8.190640089e-06
8.190639545e-06
8.190639003e-06
8.190638462e-06
8.190637922e-06
8.190637383e-06
8.190636846e-06
8.190636311e-06
8.190635778e-06
8.190635247e-06
8.190634718e-06
8.190634192e-06
8.190633668e-06
8.190633147e-06
8.19063263e-06
8.190632115e-06
8.190631603e-06
8.190631095e-06
8.19063059e-06
8.190630089e-06
8.190629591e-06
8.190629098e-06
8.190628608e-06
8.190628122e-06
8.19062764e-06
8.190627162e-06
8.190626689e-06
8.19062622e-06
8.190625755e-06
8.190625295e-06
8.190624839e-06
8.190624388e-06
8.190623942e-06
8.190623501e-06
8.190623064e-06
8.190622632e-06
8.190622205e-06
8.190621784e-06
8.190621367e-06
8.190620955e-06
8.190620548e-06
8.190620147e-06
8.190619751e-06
8.19061936e-06
8.190618974e-06
8.190618594e-06
8.190618218e-06
8.190617849e-06
8.190617484e-06
8.190617125e-06
8.190616772e-06
8.190616423e-06
8.190616081e-06
8.190615744e-06
8.190615413e-06
8.190615086e-06
8.190614766e-06
8.19061445e-06
8.190614141e-06
8.190613837e-06
8.190613539e-06
8.190613246e-06
8.190612958e-06
8.190612676e-06
8.1906124e-06
8.190612129e-06
8.190611864e-06
8.190611604e-06
8.190611349e-06
8.190611101e-06
8.190610857e-06
8.190610619e-06
8.190610386e-06
8.190610159e-06
8.190609937e-06
8.190609721e-06
8.190609509e-06
8.190609303e-06
8.190609103e-06
8.190608907e-06
8.190608717e-06
8.190608532e-06
8.190608352e-06
8.190608178e-06
8.190608008e-06
8.190607844e-06
8.190607684e-06
8.19060753e-06
8.190607381e-06
8.190607236e-06
8.190607097e-06
8.190606962e-06
8.190606833e-06
8.190606708e-06
8.190606588e-06
8.190606473e-06
8.190606362e-06
8.190606256e-06
8.190606155e-06
8.190606059e-06
8.190605967e-06
8.19060588e-06
8.190605797e-06
8.190605719e-06
8.190605646e-06
8.190605577e-06
8.190605512e-06
8.190605451e-06
8.190605395e-06
8.190605344e-06
8.190605296e-06
8.190605253e-06
8.190605214e-06
8.190605179e-06
8.190605148e-06
8.190605121e-06
8.190605098e-06
8.190605079e-06
8.190605065e-06
8.190605054e-06
8.190605046e-06
8.190605043e-06
8.190605044e-06
8.190605048e-06
8.190605055e-06
8.190605067e-06
8.190605082e-06
8.1906051e-06
8.190605122e-06
8.190605148e-06
8.190605177e-06
8.190605209e-06
8.190605245e-06
8.190605283e-06
8.190605325e-06
8.190605371e-06
8.190605419e-06
8.19060547e-06
8.190605525e-06
8.190605583e-06
8.190605643e-06
8.190605707e-06
8.190605773e-06
8.190605842e-06
8.190605914e-06
8.190605989e-06
8.190606067e-06
8.190606148e-06
8.190606231e-06
8.190606317e-06
8.190606405e-06
8.190606496e-06
8.19060659e-06
8.190606686e-06
8.190606785e-06
8.190606886e-06
8.19060699e-06
8.190607096e-06
8.190607205e-06
8.190607316e-06
8.19060743e-06
8.190607546e-06
8.190607664e-06
8.190607784e-06
8.190607907e-06
8.190608032e-06
8.190608159e-06
8.190608288e-06
8.19060842e-06
8.190608554e-06
8.19060869e-06
8.190608827e-06
8.190608968e-06
8.19060911e-06
8.190609254e-06
8.1906094e-06
8.190609548e-06
8.190609698e-06
8.19060985e-06
8.190610003e-06
8.19061016e-06
8.190610317e-06
8.190610469e-06
8.190610607e-06
8.190610762e-06
8.190973699e-06
8.190973808e-06
8.190973863e-06
8.190973891e-06
8.190973915e-06
8.190973941e-06
8.190973967e-06
8.190973993e-06
8.19097402e-06
8.190974046e-06
8.190974073e-06
8.190974097e-06
8.190974117e-06
8.19097413e-06
8.190974136e-06
8.190974136e-06
8.19097413e-06
8.190974117e-06
8.190974099e-06
8.190974073e-06
8.19097404e-06
8.190973999e-06
8.190973951e-06
8.190973896e-06
8.190973832e-06
8.19097376e-06
8.190973679e-06
8.190973589e-06
8.190973489e-06
8.190973381e-06
8.190973263e-06
8.190973136e-06
8.190973001e-06
8.190972856e-06
8.190972702e-06
8.19097254e-06
8.190972368e-06
8.190972185e-06
8.190971991e-06
8.190971787e-06
8.190971573e-06
8.190971348e-06
8.190971113e-06
8.190970868e-06
8.190970613e-06
8.190970347e-06
8.190970071e-06
8.190969785e-06
8.190969488e-06
8.19096918e-06
8.190968862e-06
8.190968533e-06
8.190968193e-06
8.190967843e-06
8.190967482e-06
8.190967108e-06
8.190966723e-06
8.190966328e-06
8.190965924e-06
8.190965509e-06
8.190965081e-06
8.190964641e-06
8.19096419e-06
8.190963728e-06
8.190963254e-06
8.190962769e-06
8.190962273e-06
8.190961765e-06
8.190961245e-06
8.190960714e-06
8.190960171e-06
8.190959616e-06
8.19095905e-06
8.190958471e-06
8.190957881e-06
8.190957279e-06
8.190956664e-06
8.190956037e-06
8.190955399e-06
8.190954747e-06
8.190954084e-06
8.190953407e-06
8.190952718e-06
8.190952017e-06
8.190951302e-06
8.190950575e-06
8.190949834e-06
8.190949081e-06
8.190948314e-06
8.190947533e-06
8.190946739e-06
8.190945932e-06
8.19094511e-06
8.190944274e-06
8.190943423e-06
8.190942559e-06
8.19094168e-06
8.190940786e-06
8.190939877e-06
8.190938953e-06
8.190938013e-06
8.190937058e-06
8.190936086e-06
8.190935099e-06
8.190934095e-06
8.190933074e-06
8.190932036e-06
8.190930981e-06
8.190929907e-06
8.190928816e-06
8.190927705e-06
8.190926576e-06
8.190925427e-06
8.190924258e-06
8.190923068e-06
8.190921858e-06
8.190920626e-06
8.190919372e-06
8.190918095e-06
8.190916795e-06
8.190915471e-06
8.190914123e-06
8.190912749e-06
8.190911349e-06
8.190909923e-06
8.190908469e-06
8.190906988e-06
8.190905476e-06
8.190903934e-06
8.190902361e-06
8.190900754e-06
8.190899114e-06
8.190897439e-06
8.190895728e-06
8.190893978e-06
8.190892189e-06
8.19089036e-06
8.190888489e-06
8.190886575e-06
8.190884616e-06
8.190882612e-06
8.19088056e-06
8.190878458e-06
8.190876306e-06
8.1908741e-06
8.190871838e-06
8.19086952e-06
8.190867145e-06
8.190864713e-06
8.190862219e-06
8.190859663e-06
8.190857042e-06
8.190854352e-06
8.190851591e-06
8.190848761e-06
8.190845873e-06
8.190842914e-06
8.190839884e-06
8.190836777e-06
8.190833585e-06
8.190830316e-06
8.190826974e-06
8.190823559e-06
8.19082007e-06
8.190816508e-06
8.190812874e-06
8.190809171e-06
8.190805398e-06
8.190801555e-06
8.190797645e-06
8.190793673e-06
8.190789644e-06
8.190785561e-06
8.190781431e-06
8.190777259e-06
8.190773049e-06
8.190768809e-06
8.190764546e-06
8.190760264e-06
8.190755973e-06
8.190751678e-06
8.19074739e-06
8.190743114e-06
8.190738861e-06
8.190734639e-06
8.190730455e-06
8.190726316e-06
8.190722218e-06
8.190718183e-06
8.190714217e-06
8.190710329e-06
8.190706526e-06
8.190702814e-06
8.190699203e-06
8.190695699e-06
8.190692309e-06
8.190689039e-06
8.190685896e-06
8.190682885e-06
8.190680015e-06
8.190677282e-06
8.190674687e-06
8.190672229e-06
8.19066991e-06
8.190667734e-06
8.190665703e-06
8.190663815e-06
8.190662065e-06
8.190660448e-06
8.190658965e-06
8.190657613e-06
8.190656389e-06
8.190655292e-06
8.190654317e-06
8.19065346e-06
8.190652716e-06
8.190652082e-06
8.190651552e-06
8.190651121e-06
8.190650783e-06
8.190650533e-06
8.190650365e-06
8.190650272e-06
8.190650251e-06
8.190650293e-06
8.190650396e-06
8.190650552e-06
8.190650756e-06
8.190651004e-06
8.190651289e-06
8.190651609e-06
8.190651957e-06
8.19065233e-06
8.190652722e-06
8.190653131e-06
8.190653551e-06
8.190653979e-06
8.190654411e-06
8.190654845e-06
8.190655277e-06
8.190655705e-06
8.190656126e-06
8.190656538e-06
8.190656939e-06
8.190657326e-06
8.190657698e-06
8.190658054e-06
8.190658393e-06
8.190658713e-06
8.190659015e-06
8.190659297e-06
8.190659556e-06
8.190659791e-06
8.190660005e-06
8.190660196e-06
8.190660361e-06
8.1906605e-06
8.190660613e-06
8.190660701e-06
8.190660765e-06
8.190660806e-06
8.190660823e-06
8.190660816e-06
8.190660787e-06
8.190660734e-06
8.19066066e-06
8.190660563e-06
8.190660445e-06
8.190660307e-06
8.190660147e-06
8.190659968e-06
8.190659769e-06
8.190659551e-06
8.190659315e-06
8.190659062e-06
8.190658791e-06
8.190658504e-06
8.1906582e-06
8.190657881e-06
8.190657548e-06
8.1906572e-06
8.190656838e-06
8.190656464e-06
8.190656077e-06
8.190655678e-06
8.190655268e-06
8.190654848e-06
8.190654417e-06
8.190653976e-06
8.190653526e-06
8.190653067e-06
8.190652601e-06
8.190652126e-06
8.190651645e-06
8.190651156e-06
8.190650662e-06
8.190650161e-06
8.190649655e-06
8.190649144e-06
8.190648629e-06
8.190648109e-06
8.190647585e-06
8.190647058e-06
8.190646528e-06
8.190645995e-06
8.19064546e-06
8.190644922e-06
8.190644383e-06
8.190643842e-06
8.1906433e-06
8.190642758e-06
8.190642214e-06
8.19064167e-06
8.190641126e-06
8.190640583e-06
8.190640039e-06
8.190639496e-06
8.190638955e-06
8.190638414e-06
8.190637874e-06
8.190637336e-06
8.190636799e-06
8.190636264e-06
8.190635732e-06
8.190635201e-06
8.190634673e-06
8.190634148e-06
8.190633625e-06
8.190633104e-06
8.190632587e-06
8.190632073e-06