/*--------------------------------*- C++ -*----------------------------------*\
| =========                 |                                                 |
| \\      /  F ield         | OpenFOAM: The Open Source CFD Toolbox           |
|  \\    /   O peration     | Version:  2312                                  |
|   \\  /    A nd           | Website:  www.openfoam.com                      |
|    \\/     M anipulation  |                                                 |
\*---------------------------------------------------------------------------*/
FoamFile
{
    version     2.0;
    format      ascii;
    arch        "LSB;label=32;scalar=64";
    class       volVectorField;
    location    "4800";
    object      U;
}
// * * * * * * * * * * * * * * * * * * * * * * * * * * * * * * * * * * * * * //

dimensions      [0 1 -1 0 0 0 0];

internalField   nonuniform List<vector> 
20400
(
(5.658783069e-06 -5.707452164e-06 0)
(7.372450634e-06 -4.33464961e-07 0)
(1.17094217e-06 4.481522251e-06 0)
(-1.376366586e-05 6.007635993e-06 0)
(-3.554271073e-05 6.191277973e-06 0)
(-6.168611091e-05 5.791766947e-06 0)
(-9.046214899e-05 5.191386569e-06 0)
(-0.0001207903058 4.636919509e-06 0)
(-0.0001519909123 4.249408335e-06 0)
(-0.0001836999868 4.034608462e-06 0)
(-0.0002157856165 3.942481107e-06 0)
(-0.0002482290911 3.921961557e-06 0)
(-0.0002810379623 3.945812683e-06 0)
(-0.0003142047724 3.979214337e-06 0)
(-0.0003476936719 3.974017802e-06 0)
(-0.000381434529 4.000891038e-06 0)
(-0.0004153347252 4.116293629e-06 0)
(-0.0004492585881 4.252980559e-06 0)
(-0.0004830967912 4.353353004e-06 0)
(-0.0005168239807 4.43781016e-06 0)
(-0.0005504412219 4.516863005e-06 0)
(-0.0005839624036 4.594223163e-06 0)
(-0.000617403513 4.673197596e-06 0)
(-0.0006507645634 4.749685182e-06 0)
(-0.0006840138696 4.811723867e-06 0)
(-0.0007170921751 4.851732842e-06 0)
(-0.0007499346625 4.870898768e-06 0)
(-0.0007824915794 4.875141322e-06 0)
(-0.0008147373511 4.870443297e-06 0)
(-0.0008466730263 4.862112514e-06 0)
(-0.0008783284034 4.85795252e-06 0)
(-0.0009097599718 4.86800798e-06 0)
(-0.000941038422 4.895424166e-06 0)
(-0.000972233405 4.93543096e-06 0)
(-0.001003403149 4.99216435e-06 0)
(-0.001034586803 5.064414424e-06 0)
(-0.001065751402 5.120590936e-06 0)
(-0.001096789198 5.13276283e-06 0)
(-0.001127597002 5.113667913e-06 0)
(-0.001158127205 5.090960007e-06 0)
(-0.00118838706 5.07593262e-06 0)
(-0.001218405149 5.068179578e-06 0)
(-0.001248208664 5.065063563e-06 0)
(-0.001277817668 5.064778671e-06 0)
(-0.001307246445 5.066267014e-06 0)
(-0.001336505515 5.068824731e-06 0)
(-0.001365603031 5.071972545e-06 0)
(-0.001394545659 5.075527722e-06 0)
(-0.001423338456 5.079533284e-06 0)
(-0.001451983675 5.083655645e-06 0)
(-0.001480481045 5.086699039e-06 0)
(-0.001508832375 5.08826911e-06 0)
(-0.001537045061 5.091585305e-06 0)
(-0.00156512052 5.098878198e-06 0)
(-0.001593032069 5.097494438e-06 0)
(-0.001620736798 5.067559859e-06 0)
(-0.001648245211 5.033053278e-06 0)
(-0.001675658553 5.060764423e-06 0)
(-0.001703071807 5.127118413e-06 0)
(-0.001730463482 5.14813406e-06 0)
(-0.001757746046 5.135998816e-06 0)
(-0.001784870977 5.122709201e-06 0)
(-0.00181183932 5.115775301e-06 0)
(-0.001838668506 5.113354562e-06 0)
(-0.001865374066 5.113656018e-06 0)
(-0.001891967218 5.115894433e-06 0)
(-0.001918456682 5.11967075e-06 0)
(-0.001944849945 5.124730636e-06 0)
(-0.001971153794 5.130922189e-06 0)
(-0.001997374543 5.138172579e-06 0)
(-0.002023518128 5.146428632e-06 0)
(-0.002049590132 5.1556053e-06 0)
(-0.002075595832 5.165619402e-06 0)
(-0.002101540395 5.176471585e-06 0)
(-0.002127429145 5.18826567e-06 0)
(-0.002153267731 5.201145495e-06 0)
(-0.002179062148 5.21523475e-06 0)
(-0.002204818643 5.230622168e-06 0)
(-0.002230543628 5.247413189e-06 0)
(-0.002256243657 5.265722987e-06 0)
(-0.002281925574 5.285562132e-06 0)
(-0.002307596656 5.306752503e-06 0)
(-0.002333263896 5.329103835e-06 0)
(-0.002358933574 5.352694935e-06 0)
(-0.002384613352 5.377849989e-06 0)
(-0.002410312724 5.405038609e-06 0)
(-0.002436041779 5.435060813e-06 0)
(-0.002461810985 5.468421031e-06 0)
(-0.002487631427 5.504695591e-06 0)
(-0.00251351455 5.543563416e-06 0)
(-0.002539470743 5.58503455e-06 0)
(-0.002565506632 5.627256728e-06 0)
(-0.002591622272 5.665493067e-06 0)
(-0.002617814546 5.699578295e-06 0)
(-0.002644088595 5.739173003e-06 0)
(-0.002670461784 5.784474289e-06 0)
(-0.002696954405 5.833933891e-06 0)
(-0.00272358334 5.886887672e-06 0)
(-0.002750362603 5.9433553e-06 0)
(-0.002777305852 6.003476358e-06 0)
(-0.002804427917 6.067873085e-06 0)
(-0.002831745211 6.137393879e-06 0)
(-0.002859274764 6.211626312e-06 0)
(-0.00288703276 6.290337373e-06 0)
(-0.002915034164 6.373261149e-06 0)
(-0.002943293199 6.460416844e-06 0)
(-0.002971824097 6.552054317e-06 0)
(-0.003000641434 6.648385114e-06 0)
(-0.003029759734 6.749294292e-06 0)
(-0.003059192689 6.85426703e-06 0)
(-0.003088953002 6.962919029e-06 0)
(-0.003119053785 7.075845704e-06 0)
(-0.003149511073 7.194657838e-06 0)
(-0.003180345699 7.321288272e-06 0)
(-0.003211583141 7.45760505e-06 0)
(-0.00324325092 7.603762187e-06 0)
(-0.003275374724 7.758100097e-06 0)
(-0.003307977053 7.920641861e-06 0)
(-0.003341079426 8.092082922e-06 0)
(-0.003374704478 8.273451305e-06 0)
(-0.003408875426 8.46489252e-06 0)
(-0.00344361249 8.663740593e-06 0)
(-0.003478928936 8.865351072e-06 0)
(-0.003514831126 9.069248388e-06 0)
(-0.003551320982 9.277153605e-06 0)
(-0.003588395264 9.473278923e-06 0)
(-0.003626056851 9.68541331e-06 0)
(-0.003664331585 9.913674934e-06 0)
(-0.003703253207 1.015842684e-05 0)
(-0.003742847247 1.041549323e-05 0)
(-0.003783125992 1.068607682e-05 0)
(-0.003824092365 1.096832227e-05 0)
(-0.003865740716 1.125878046e-05 0)
(-0.003908054078 1.155342508e-05 0)
(-0.003951001962 1.184718577e-05 0)
(-0.003994543522 1.21386346e-05 0)
(-0.00403863672 1.243291819e-05 0)
(-0.004083242608 1.27332669e-05 0)
(-0.004128319934 1.303584428e-05 0)
(-0.004173834499 1.335539615e-05 0)
(-0.004219759758 1.36830787e-05 0)
(-0.004266056684 1.402131974e-05 0)
(-0.004312668544 1.43686373e-05 0)
(-0.004359522751 1.471375858e-05 0)
(-0.00440651645 1.503351742e-05 0)
(-0.004453464613 1.531672272e-05 0)
(-0.004500194545 1.557783839e-05 0)
(-0.00454659208 1.582725037e-05 0)
(-0.004592564889 1.610715514e-05 0)
(-0.00463803703 1.640611307e-05 0)
(-0.004682894704 1.670440433e-05 0)
(-0.004726946597 1.695678583e-05 0)
(-0.004769913959 1.71031903e-05 0)
(-0.004811475433 1.713081105e-05 0)
(-0.004851333224 1.709217764e-05 0)
(-0.004889239884 1.697974106e-05 0)
(-0.004924989475 1.689535966e-05 0)
(-0.004958368671 1.672872219e-05 0)
(-0.00498916475 1.649531457e-05 0)
(-0.005017207301 1.627343688e-05 0)
(-0.005042190822 1.587747598e-05 0)
(-0.005063550351 1.510475299e-05 0)
(-0.005080884079 1.44452881e-05 0)
(-0.00509400516 1.393699784e-05 0)
(-0.00510257357 1.357391512e-05 0)
(-0.005106299348 1.35265554e-05 0)
(-0.005105905263 1.3713229e-05 0)
(-0.005100438339 1.323861806e-05 0)
(-0.005088590392 1.195477892e-05 0)
(-0.005070610842 1.053496079e-05 0)
(-0.005046509673 8.894801004e-06 0)
(-0.005015876579 7.027919876e-06 0)
(-0.004978280463 4.888565865e-06 0)
(-0.004933396367 2.464964765e-06 0)
(-0.00488097022 -2.379696469e-07 0)
(-0.004820783321 -3.219117616e-06 0)
(-0.004752646036 -6.482388576e-06 0)
(-0.004676402158 -1.003106109e-05 0)
(-0.00459193432 -1.38666913e-05 0)
(-0.004499169443 -1.799184247e-05 0)
(-0.004398083773 -2.241044339e-05 0)
(-0.004288704143 -2.712715843e-05 0)
(-0.004171093968 -3.215443008e-05 0)
(-0.004045316164 -3.755473041e-05 0)
(-0.003911440205 -4.350077427e-05 0)
(-0.003769772527 -4.997231588e-05 0)
(-0.003621152355 -5.546694081e-05 0)
(-0.003466242559 -6.189518842e-05 0)
(-0.003304582331 -6.541802953e-05 0)
(-0.00313644593 -6.903321117e-05 0)
(-0.002962111329 -7.265457468e-05 0)
(-0.002781779327 -7.61596113e-05 0)
(-0.002595723701 -7.950987437e-05 0)
(-0.002404332169 -8.266345276e-05 0)
(-0.00220807544 -8.558491334e-05 0)
(-0.002007468193 -8.825143984e-05 0)
(-0.001802996238 -9.06968975e-05 0)
(-0.001595013662 -9.320531898e-05 0)
(-0.001383945257 -9.627034749e-05 0)
(-0.001171193163 -9.789495664e-05 0)
(-0.0009583410487 -0.0001003636978 0)
(-0.0007456429588 -0.0001030408521 0)
(-0.0005330514624 -0.0001054842377 0)
(-0.0003211343551 -0.0001074650766 0)
(-0.0001104899645 -0.0001084314071 0)
(9.917864089e-05 -0.000102871425 0)
(0.0003083734338 -9.325975973e-05 0)
(0.0005169202153 -8.440034178e-05 0)
(0.0007240159534 -7.63646093e-05 0)
(0.0009288684644 -6.906454237e-05 0)
(0.001130748113 -6.244714943e-05 0)
(0.001329016106 -5.645904275e-05 0)
(0.00152312245 -5.104764542e-05 0)
(0.001712595819 -4.616373421e-05 0)
(0.001897033491 -4.176002637e-05 0)
(0.002076091507 -3.779058301e-05 0)
(0.002249476018 -3.42116763e-05 0)
(0.002416936768 -3.098295897e-05 0)
(0.002578262819 -2.806844338e-05 0)
(0.002733281694 -2.54366788e-05 0)
(0.002881864521 -2.305914452e-05 0)
(0.003023932702 -2.091058632e-05 0)
(0.003159440466 -1.899947541e-05 0)
(0.003288310205 -1.758755309e-05 0)
(0.003410421573 -1.667878692e-05 0)
(0.003525722136 -1.581419137e-05 0)
(0.003634274096 -1.493058436e-05 0)
(0.003736203382 -1.425983172e-05 0)
(0.003831600848 -1.355417378e-05 0)
(0.003920536973 -1.272029181e-05 0)
(0.004003081803 -1.179451234e-05 0)
(0.004079326794 -1.080914246e-05 0)
(0.00414939926 -9.77890198e-06 0)
(0.004213484903 -8.72284167e-06 0)
(0.00427180949 -7.667540795e-06 0)
(0.004324570451 -6.614658579e-06 0)
(0.004371930433 -5.58201735e-06 0)
(0.004414047395 -4.583961972e-06 0)
(0.004451089455 -3.628442598e-06 0)
(0.004483234446 -2.719486161e-06 0)
(0.004510668721 -1.85818457e-06 0)
(0.004533592172 -1.05423982e-06 0)
(0.004552215532 -3.007685001e-07 0)
(0.004566754936 4.233404395e-07 0)
(0.004577400119 1.124202849e-06 0)
(0.004584236316 1.724948633e-06 0)
(0.004587331865 2.072510001e-06 0)
(0.004587529892 2.276061642e-06 0)
(0.004585236922 2.613432162e-06 0)
(0.004579762011 3.18633996e-06 0)
(0.004571244251 3.750708609e-06 0)
(0.004560006698 4.24692803e-06 0)
(0.004546226015 4.581792003e-06 0)
(0.004530049214 4.820078351e-06 0)
(0.004511644937 5.007802052e-06 0)
(0.004491187776 5.17014144e-06 0)
(0.004468841185 5.314226817e-06 0)
(0.004444757968 5.437469468e-06 0)
(0.004419084884 5.537069211e-06 0)
(0.004391962181 5.613319438e-06 0)
(0.004363520476 5.668288711e-06 0)
(0.004333879444 5.705615648e-06 0)
(0.004303152119 5.743715615e-06 0)
(0.004271451301 5.802083343e-06 0)
(0.00423888348 5.854923527e-06 0)
(0.004205545369 5.929478422e-06 0)
(0.004171527614 6.002494097e-06 0)
(0.004136919644 6.064164837e-06 0)
(0.004101809917 6.111615955e-06 0)
(0.004066277961 6.144108247e-06 0)
(0.004030389965 6.162533682e-06 0)
(0.003994208178 6.166817489e-06 0)
(0.003957797513 6.160419202e-06 0)
(0.003921222782 6.14545313e-06 0)
(0.003884543974 6.121924092e-06 0)
(0.003847814597 6.087993476e-06 0)
(0.003811095604 6.047179961e-06 0)
(0.003774440924 5.999997935e-06 0)
(0.003737886753 5.946032022e-06 0)
(0.003701472308 5.887552544e-06 0)
(0.003665235981 5.828093478e-06 0)
(0.003629217047 5.76539239e-06 0)
(0.003593452976 5.695162007e-06 0)
(0.003557978061 5.619570037e-06 0)
(0.003522821179 5.542842777e-06 0)
(0.003488008913 5.463472766e-06 0)
(0.003453567777 5.37916864e-06 0)
(0.003419521236 5.292442421e-06 0)
(0.003385888022 5.205005491e-06 0)
(0.003352685004 5.116007953e-06 0)
(0.003319929437 5.024350212e-06 0)
(0.003287638145 4.930405604e-06 0)
(0.003255826405 4.834789054e-06 0)
(0.003224508191 4.73745991e-06 0)
(0.003193696485 4.638425992e-06 0)
(0.003163403008 4.538011988e-06 0)
(0.003133638019 4.436498879e-06 0)
(0.003104410394 4.334088064e-06 0)
(0.003075727866 4.230959723e-06 0)
(0.003047597352 4.12724028e-06 0)
(0.003020025072 4.022791757e-06 0)
(0.002993015975 3.917968745e-06 0)
(0.002966573233 3.813387148e-06 0)
(0.002940698737 3.709146395e-06 0)
(0.002915393938 3.605090191e-06 0)
(0.002890660173 3.501146261e-06 0)
(0.002866498571 3.397347338e-06 0)
(0.002842909891 3.293759853e-06 0)
(0.002819894445 3.190450145e-06 0)
(0.002797452077 3.087486848e-06 0)
(0.002775582159 2.984944623e-06 0)
(0.002754283586 2.882901837e-06 0)
(0.002733554788 2.781437341e-06 0)
(0.002713393741 2.680625979e-06 0)
(0.002693798002 2.58053907e-06 0)
(0.002674764735 2.481241975e-06 0)
(0.002656290748 2.382795364e-06 0)
(0.002638372503 2.2852573e-06 0)
(0.002621006111 2.188695177e-06 0)
(0.002604187367 2.093174434e-06 0)
(0.00258791184 1.998744236e-06 0)
(0.002572174958 1.90533658e-06 0)
(0.002556971868 1.813022698e-06 0)
(0.002542297246 1.721973805e-06 0)
(0.00252814538 1.632264274e-06 0)
(0.002514510401 1.543880133e-06 0)
(0.002501386425 1.456800882e-06 0)
(0.002488767562 1.37102571e-06 0)
(0.002476647884 1.286564306e-06 0)
(0.002465021406 1.203425746e-06 0)
(0.002453882083 1.121618164e-06 0)
(0.0024432238 1.041151467e-06 0)
(0.002433040377 9.620380123e-07 0)
(0.002423325562 8.8428822e-07 0)
(0.002414073033 8.079165541e-07 0)
(0.002405276394 7.32933666e-07 0)
(0.002396929186 6.593534512e-07 0)
(0.002389024879 5.871850789e-07 0)
(0.002381556883 5.164399786e-07 0)
(0.002374518553 4.47126924e-07 0)
(0.002367903191 3.792543809e-07 0)
(0.002361704053 3.12827944e-07 0)
(0.002355914357 2.478519716e-07 0)
(0.002350527287 1.843309213e-07 0)
(0.002345535997 1.222658657e-07 0)
(0.002340933616 6.165918872e-08 0)
(0.002336713256 2.510775475e-09 0)
(0.002332868014 -5.51787689e-08 0)
(0.002329390969 -1.114130301e-07 0)
(0.002326275174 -1.661968717e-07 0)
(0.002323513686 -2.195402584e-07 0)
(0.002321099676 -2.714657643e-07 0)
(0.002319026557 -3.221002442e-07 0)
(0.002317287877 -3.719607676e-07 0)
(0.002315877208 -4.222464567e-07 0)
(0.002314789818 -4.739588175e-07 0)
(0.002314027065 -5.246611838e-07 0)
(0.002313592997 -5.671671253e-07 0)
(0.002313453986 -5.975175846e-07 0)
(0.002313557036 -6.235541812e-07 0)
(0.002313921753 -6.566710623e-07 0)
(0.002314579414 -6.955533586e-07 0)
(0.002315518101 -7.337645818e-07 0)
(0.002316728469 -7.698744274e-07 0)
(0.00231820916 -8.109469336e-07 0)
(0.002319954227 -8.560327708e-07 0)
(0.00232194252 -8.926008998e-07 0)
(0.002324156786 -9.150758653e-07 0)
(0.002326587309 -9.332865839e-07 0)
(0.00232923381 -9.563226711e-07 0)
(0.002332103256 -9.870675149e-07 0)
(0.002335198674 -1.016517409e-06 0)
(0.002338512267 -1.044078737e-06 0)
(0.002342030433 -1.066905523e-06 0)
(0.002345739405 -1.085445703e-06 0)
(0.002349629337 -1.102403714e-06 0)
(0.002353695773 -1.12013191e-06 0)
(0.00235793766 -1.138540248e-06 0)
(0.002362353687 -1.156562167e-06 0)
(0.002366940014 -1.173789883e-06 0)
(0.00237168975 -1.189131443e-06 0)
(0.002376594313 -1.202728547e-06 0)
(0.0023816458 -1.215140632e-06 0)
(0.002386838368 -1.227157975e-06 0)
(0.002392167503 -1.238173304e-06 0)
(0.002397629044 -1.248466909e-06 0)
(0.002403219093 -1.258515563e-06 0)
(0.002408933515 -1.267941338e-06 0)
(0.002414767256 -1.276312947e-06 0)
(0.002420714585 -1.283726119e-06 0)
(0.002426769881 -1.290249152e-06 0)
(0.002432928209 -1.296237376e-06 0)
(0.002439185139 -1.301505297e-06 0)
(0.002445536371 -1.306129641e-06 0)
(0.002451977757 -1.310299878e-06 0)
(0.002458505247 -1.313932516e-06 0)
(0.002465114616 -1.31687321e-06 0)
(0.002471801443 -1.319148095e-06 0)
(0.002478561339 -1.320861975e-06 0)
(0.002485390101 -1.322041491e-06 0)
(0.002492283697 -1.322717747e-06 0)
(0.002499238174 -1.322879554e-06 0)
(0.00250624966 -1.322565329e-06 0)
(0.00251331441 -1.321822648e-06 0)
(0.002520428759 -1.320626838e-06 0)
(0.002527589009 -1.318928496e-06 0)
(0.002534791405 -1.316739467e-06 0)
(0.002542032233 -1.314109385e-06 0)
(0.002549307919 -1.311090411e-06 0)
(0.002556615026 -1.30768458e-06 0)
(0.002563950201 -1.303902113e-06 0)
(0.002571310146 -1.299747526e-06 0)
(0.002578691603 -1.29521458e-06 0)
(0.00258609138 -1.290321728e-06 0)
(0.002593506371 -1.285095112e-06 0)
(0.002600933552 -1.279548582e-06 0)
(0.002608369936 -1.273694877e-06 0)
(0.002615812583 -1.26752324e-06 0)
(0.002623258957 -1.26095805e-06 0)
(0.002630705729 -1.25393463e-06 0)
(0.002638149469 -1.246507269e-06 0)
(0.002645587855 -1.238774982e-06 0)
(0.00265301842 -1.230763978e-06 0)
(0.002660438878 -1.222594329e-06 0)
(0.002667846976 -1.214435244e-06 0)
(0.002675240398 -1.206101971e-06 0)
(0.002682616814 -1.197351351e-06 0)
(0.002689973824 -1.188221799e-06 0)
(0.002697309328 -1.178907189e-06 0)
(0.002704621647 -1.169603613e-06 0)
(0.002711909258 -1.160254275e-06 0)
(0.002719170465 -1.150686251e-06 0)
(0.002726403368 -1.140858275e-06 0)
(0.002733606078 -1.130822153e-06 0)
(0.002740777001 -1.120678873e-06 0)
(0.002747914971 -1.110562439e-06 0)
(0.002755019042 -1.100680396e-06 0)
(0.002762088004 -1.09246952e-06 0)
(0.00276912044 -1.08546604e-06 0)
(0.002776115214 -1.078558944e-06 0)
(0.002783071487 -1.073504022e-06 0)
(0.002789988051 -1.06819911e-06 0)
(0.002796863748 -1.062392359e-06 0)
(0.002803697953 -1.056063074e-06 0)
(0.002810490623 -1.049371793e-06 0)
(0.002817241259 -1.042042313e-06 0)
(0.002823948886 -1.034259337e-06 0)
(0.002830612936 -1.026583044e-06 0)
(0.002837233378 -1.019113976e-06 0)
(0.002843810331 -1.011812514e-06 0)
(0.002850343818 -1.00459563e-06 0)
(0.002856833705 -9.97401177e-07 0)
(0.002863279739 -9.901970739e-07 0)
(0.002869681615 -9.82976734e-07 0)
(0.002876039023 -9.757448212e-07 0)
(0.002882351665 -9.685064081e-07 0)
(0.00288861926 -9.612632413e-07 0)
(0.00289484155 -9.540197508e-07 0)
(0.00290101832 -9.467882694e-07 0)
(0.002907149397 -9.395787529e-07 0)
(0.002913234638 -9.323941427e-07 0)
(0.002919273909 -9.252314955e-07 0)
(0.002925267074 -9.180870899e-07 0)
(0.002931213997 -9.10959537e-07 0)
(0.002937114536 -9.038441283e-07 0)
(0.002942968535 -8.967342484e-07 0)
(0.002948775837 -8.89624657e-07 0)
(0.002954536283 -8.825136246e-07 0)
(0.002960249723 -8.754011116e-07 0)
(0.002965916011 -8.682840373e-07 0)
(0.002971535003 -8.611570862e-07 0)
(0.00297710655 -8.540151472e-07 0)
(0.002982630498 -8.468533637e-07 0)
(0.002988106695 -8.396688022e-07 0)
(0.002993534994 -8.324577865e-07 0)
(0.00299891525 -8.252178874e-07 0)
(0.003004247325 -8.179460897e-07 0)
(0.003009531098 -8.106414647e-07 0)
(0.003014766468 -8.033076019e-07 0)
(0.003019953355 -7.959450792e-07 0)
(0.003025091705 -7.885590802e-07 0)
(0.003030181494 -7.811507894e-07 0)
(0.003035222753 -7.737277741e-07 0)
(0.00304021557 -7.663050582e-07 0)
(0.003045160061 -7.58907728e-07 0)
(0.003050056341 -7.515484907e-07 0)
(0.003054904695 -7.442123483e-07 0)
(0.003059705956 -7.369284074e-07 0)
(0.003064461349 -7.299140071e-07 0)
(0.00306917092 -7.233648376e-07 0)
(0.003073832557 -7.166194704e-07 0)
(0.003078446906 -7.07951658e-07 0)
(0.003083025862 -6.978784473e-07 0)
(0.003087581523 -6.933814097e-07 0)
(0.003092081234 -7.012561181e-07 0)
(0.00309644073 -7.086374283e-07 0)
(0.00310066395 -6.784176399e-07 0)
(0.003105379866 -6.262838444e-07 0)
(0.003113302926 -1.200292212e-06 0)
(0.003121724777 -3.204058303e-06 0)
(1.257447983e-06 -7.954964023e-06 0)
(-5.523443561e-06 6.400804594e-06 0)
(-3.279871425e-05 2.18306813e-05 0)
(-7.970532875e-05 3.573025726e-05 0)
(-0.0001424676835 4.682384955e-05 0)
(-0.0002168026831 5.470873339e-05 0)
(-0.000299107432 5.961884224e-05 0)
(-0.000386610442 6.23711824e-05 0)
(-0.000477324558 6.387671406e-05 0)
(-0.0005699809093 6.480598719e-05 0)
(-0.000663874448 6.552645664e-05 0)
(-0.0007586458829 6.617865988e-05 0)
(-0.0008541090204 6.680437029e-05 0)
(-0.000950134559 6.732280232e-05 0)
(-0.001046570532 6.774659138e-05 0)
(-0.001143038396 6.803221353e-05 0)
(-0.001239145953 6.808580549e-05 0)
(-0.00133472348 6.792256385e-05 0)
(-0.001429708578 6.766257821e-05 0)
(-0.0015241107 6.739286525e-05 0)
(-0.001617962951 6.714350139e-05 0)
(-0.001711302533 6.691847044e-05 0)
(-0.001804154783 6.671144915e-05 0)
(-0.001896505296 6.648187688e-05 0)
(-0.001988277995 6.616441563e-05 0)
(-0.002079350569 6.572534037e-05 0)
(-0.002169598921 6.517938422e-05 0)
(-0.002258935329 6.456944643e-05 0)
(-0.002347325484 6.394368853e-05 0)
(-0.002434793133 6.33479953e-05 0)
(-0.002521421474 6.283207366e-05 0)
(-0.002607344673 6.244367115e-05 0)
(-0.002692719614 6.219252584e-05 0)
(-0.002777691606 6.204219527e-05 0)
(-0.002862371675 6.197273988e-05 0)
(-0.002946799111 6.193583543e-05 0)
(-0.003030885801 6.17798011e-05 0)
(-0.003114435768 6.139784108e-05 0)
(-0.003197266996 6.086291164e-05 0)
(-0.00327930601 6.030872066e-05 0)
(-0.003360573155 5.979791614e-05 0)
(-0.003441123142 5.933771792e-05 0)
(-0.003521009435 5.891874405e-05 0)
(-0.003600275099 5.853129352e-05 0)
(-0.003678953856 5.816799385e-05 0)
(-0.003757072484 5.782325591e-05 0)
(-0.003834652636 5.749278194e-05 0)
(-0.00391171198 5.717341403e-05 0)
(-0.003988264093 5.686266646e-05 0)
(-0.004064317327 5.655717786e-05 0)
(-0.004139875482 5.625180888e-05 0)
(-0.004214942778 5.594398257e-05 0)
(-0.004289526266 5.563993599e-05 0)
(-0.004363621532 5.534122753e-05 0)
(-0.004437191415 5.500977467e-05 0)
(-0.004510192886 5.459992027e-05 0)
(-0.004582674541 5.421799784e-05 0)
(-0.004654814723 5.410244811e-05 0)
(-0.004726756884 5.413392111e-05 0)
(-0.004798446478 5.396999754e-05 0)
(-0.004869735537 5.365900669e-05 0)
(-0.004940555459 5.333272318e-05 0)
(-0.005010915448 5.303271573e-05 0)
(-0.005080847325 5.275989206e-05 0)
(-0.005150380693 5.250903043e-05 0)
(-0.005219539695 5.22763737e-05 0)
(-0.005288344915 5.20594699e-05 0)
(-0.005356814784 5.18566432e-05 0)
(-0.005424966269 5.166671936e-05 0)
(-0.005492815253 5.148888217e-05 0)
(-0.00556037675 5.132247946e-05 0)
(-0.005627665014 5.116687314e-05 0)
(-0.005694693728 5.102159285e-05 0)
(-0.005761476415 5.088663391e-05 0)
(-0.005828026896 5.076245956e-05 0)
(-0.005894359554 5.064970367e-05 0)
(-0.005960489309 5.05488902e-05 0)
(-0.006026431431 5.046036207e-05 0)
(-0.006092201372 5.038444568e-05 0)
(-0.006157814744 5.032152012e-05 0)
(-0.006223287452 5.027188553e-05 0)
(-0.006288636013 5.023568427e-05 0)
(-0.006353877997 5.021335646e-05 0)
(-0.006419032518 5.02062681e-05 0)
(-0.006484120736 5.021621745e-05 0)
(-0.006549165948 5.024431161e-05 0)
(-0.006614191897 5.029121437e-05 0)
(-0.006679216584 5.035797396e-05 0)
(-0.006744260238 5.044532543e-05 0)
(-0.00680934946 5.055316961e-05 0)
(-0.006874509354 5.067954624e-05 0)
(-0.006939758327 5.081610514e-05 0)
(-0.007005103525 5.094637046e-05 0)
(-0.007070544685 5.107046297e-05 0)
(-0.007136093603 5.122654034e-05 0)
(-0.007201783799 5.141829009e-05 0)
(-0.007267655621 5.164210969e-05 0)
(-0.007333745482 5.189495325e-05 0)
(-0.007400084944 5.217554989e-05 0)
(-0.007466703986 5.248361223e-05 0)
(-0.00753363362 5.282118385e-05 0)
(-0.007600907135 5.31914825e-05 0)
(-0.007668558886 5.359281471e-05 0)
(-0.007736621517 5.402368859e-05 0)
(-0.007805125068 5.448219553e-05 0)
(-0.007874097538 5.496763617e-05 0)
(-0.007943566186 5.548041203e-05 0)
(-0.008013558357 5.602097837e-05 0)
(-0.008084101127 5.658873303e-05 0)
(-0.008155220122 5.718181635e-05 0)
(-0.008226939025 5.779921276e-05 0)
(-0.008299281488 5.844406335e-05 0)
(-0.008372275204 5.912365527e-05 0)
(-0.008445955267 5.984615744e-05 0)
(-0.008520364283 6.061888887e-05 0)
(-0.00859554824 6.144242222e-05 0)
(-0.008671549098 6.230928985e-05 0)
(-0.008748400884 6.321725609e-05 0)
(-0.00882613299 6.416664019e-05 0)
(-0.008904774069 6.515949409e-05 0)
(-0.008984352489 6.619530257e-05 0)
(-0.009064891602 6.726500297e-05 0)
(-0.009146402099 6.835363844e-05 0)
(-0.009228879225 6.946187749e-05 0)
(-0.009312308398 7.06053403e-05 0)
(-0.009396663451 7.17195105e-05 0)
(-0.00948191705 7.289317516e-05 0)
(-0.009568080475 7.412093168e-05 0)
(-0.009655177162 7.540191862e-05 0)
(-0.009743213989 7.670963226e-05 0)
(-0.00983216281 7.803205371e-05 0)
(-0.009921970864 7.934987031e-05 0)
(-0.01001256916 8.064300618e-05 0)
(-0.01010386835 8.188956008e-05 0)
(-0.01019575421 8.30640633e-05 0)
(-0.01028809252 8.415504129e-05 0)
(-0.01038074827 8.51716418e-05 0)
(-0.01047357907 8.610884128e-05 0)
(-0.01056636872 8.694382882e-05 0)
(-0.01065894546 8.773753263e-05 0)
(-0.01075117419 8.845077923e-05 0)
(-0.01084286614 8.906459288e-05 0)
(-0.01093379544 8.954190106e-05 0)
(-0.01102369032 8.982409825e-05 0)
(-0.01111222257 8.982382585e-05 0)
(-0.01119901227 8.949718231e-05 0)
(-0.01128366031 8.889753422e-05 0)
(-0.01136578096 8.805475455e-05 0)
(-0.01144503073 8.706953174e-05 0)
(-0.01152108708 8.584371659e-05 0)
(-0.01159356598 8.429161937e-05 0)
(-0.01166199657 8.226351981e-05 0)
(-0.01172581603 7.95858164e-05 0)
(-0.01178439548 7.622996844e-05 0)
(-0.01183705445 7.239557167e-05 0)
(-0.01188301846 6.805538626e-05 0)
(-0.0119216199 6.337907581e-05 0)
(-0.0119520712 5.804564607e-05 0)
(-0.01197371847 5.221164596e-05 0)
(-0.01198659739 4.629409591e-05 0)
(-0.01199145716 4.003553843e-05 0)
(-0.01198704291 3.214490632e-05 0)
(-0.01197192041 2.364549562e-05 0)
(-0.01194506027 1.39376589e-05 0)
(-0.01190606148 3.652622727e-06 0)
(-0.01185438043 -6.87515374e-06 0)
(-0.01178950028 -1.803479136e-05 0)
(-0.01171089826 -3.069112167e-05 0)
(-0.01161787185 -4.439984633e-05 0)
(-0.01150974223 -5.759417925e-05 0)
(-0.01138607666 -7.135138517e-05 0)
(-0.01124628921 -8.565782766e-05 0)
(-0.01108986115 -0.0001004826444 0)
(-0.01091637427 -0.0001157325093 0)
(-0.01072550229 -0.0001313017823 0)
(-0.01051699538 -0.0001470989026 0)
(-0.01029067667 -0.0001630412214 0)
(-0.01004644959 -0.0001790408524 0)
(-0.009784310084 -0.000194998827 0)
(-0.009504354822 -0.0002108060202 0)
(-0.009206785345 -0.000226344652 0)
(-0.008891915711 -0.0002414903841 0)
(-0.008560184996 -0.0002561241769 0)
(-0.008212159593 -0.0002701744708 0)
(-0.00784846196 -0.0002836511229 0)
(-0.00746953211 -0.0002961178695 0)
(-0.007075480735 -0.000302778156 0)
(-0.006668463535 -0.0003160048899 0)
(-0.006250136906 -0.0003277252351 0)
(-0.0058199203 -0.0003393823799 0)
(-0.005377468781 -0.0003507290185 0)
(-0.00492329694 -0.0003615897726 0)
(-0.004458379553 -0.0003718003079 0)
(-0.003983809159 -0.0003811986113 0)
(-0.003500731279 -0.0003896604803 0)
(-0.003010409053 -0.0003970754029 0)
(-0.002514321397 -0.0004033801223 0)
(-0.002014180089 -0.0004087352548 0)
(-0.001511444126 -0.0004132628849 0)
(-0.001005687386 -0.0004097673282 0)
(-0.0004957812647 -0.0004043980376 0)
(1.781963592e-05 -0.0003989207653 0)
(0.0005332431973 -0.0003928969879 0)
(0.001047739459 -0.0003861292917 0)
(0.001559575355 -0.0003791147267 0)
(0.002068962206 -0.0003788238104 0)
(0.002576031145 -0.000382878613 0)
(0.003079918146 -0.0003851760229 0)
(0.003579129398 -0.0003852007066 0)
(0.004072231637 -0.0003831660058 0)
(0.004557967239 -0.0003793450658 0)
(0.00503522342 -0.0003739724364 0)
(0.005503007765 -0.0003672554436 0)
(0.005960438946 -0.0003593813591 0)
(0.006406738127 -0.000350514982 0)
(0.006841217779 -0.0003407987898 0)
(0.007263271098 -0.000330357233 0)
(0.007672364115 -0.0003193021937 0)
(0.008068030901 -0.0003077384489 0)
(0.008449873108 -0.0002957680487 0)
(0.008817564943 -0.0002834889909 0)
(0.009170856345 -0.0002709862021 0)
(0.009509553126 -0.0002583210187 0)
(0.009833455136 -0.0002451804934 0)
(0.01014238842 -0.0002314768687 0)
(0.01043631043 -0.0002178134231 0)
(0.01071524221 -0.0002043887889 0)
(0.0109791556 -0.0001913957914 0)
(0.01122804723 -0.0001787589785 0)
(0.011462018 -0.0001663589977 0)
(0.01168125074 -0.000154207259 0)
(0.01188596928 -0.0001423305399 0)
(0.01207643462 -0.0001307472601 0)
(0.01225295536 -0.0001195874733 0)
(0.0124158383 -0.0001089358388 0)
(0.01256534928 -9.856876486e-05 0)
(0.01270179985 -8.845570574e-05 0)
(0.01282552409 -7.861722221e-05 0)
(0.01293687172 -6.907769262e-05 0)
(0.01303620499 -5.985640851e-05 0)
(0.01312390148 -5.096139069e-05 0)
(0.01320037211 -4.242941897e-05 0)
(0.01326604183 -3.426334696e-05 0)
(0.01332134271 -2.642980412e-05 0)
(0.01336669614 -1.88828604e-05 0)
(0.01340245281 -1.167519128e-05 0)
(0.01342885616 -5.098045037e-06 0)
(0.01344609995 7.22325611e-07 0)
(0.01345469397 6.162859022e-06 0)
(0.01345570576 1.234183283e-05 0)
(0.01345001099 1.737421079e-05 0)
(0.01343759816 2.248523126e-05 0)
(0.01341812432 2.757818101e-05 0)
(0.01339188793 3.242995529e-05 0)
(0.01335933774 3.688349247e-05 0)
(0.01332089137 4.093156371e-05 0)
(0.01327691574 4.461898089e-05 0)
(0.01322775913 4.799033168e-05 0)
(0.01317377029 5.107797738e-05 0)
(0.01311529541 5.390509967e-05 0)
(0.01305266706 5.648954348e-05 0)
(0.01298619764 5.884617979e-05 0)
(0.01291618013 6.096950858e-05 0)
(0.0128428948 6.283767226e-05 0)
(0.01276661352 6.448653016e-05 0)
(0.01268760775 6.595438886e-05 0)
(0.01260613456 6.724295796e-05 0)
(0.01252243434 6.835773003e-05 0)
(0.0124367327 6.930383728e-05 0)
(0.01234924276 7.012147647e-05 0)
(0.01226016842 7.083784918e-05 0)
(0.01216970694 7.14262188e-05 0)
(0.01207804705 7.188739728e-05 0)
(0.01198536799 7.222796825e-05 0)
(0.0118918404 7.245343349e-05 0)
(0.01179762761 7.25615859e-05 0)
(0.0117028791 7.256476506e-05 0)
(0.01160773078 7.247190465e-05 0)
(0.0115123101 7.229127906e-05 0)
(0.01141672558 7.202937487e-05 0)
(0.01132111079 7.168785087e-05 0)
(0.01122562632 7.12658434e-05 0)
(0.01113037539 7.076591334e-05 0)
(0.01103545049 7.020018231e-05 0)
(0.01094094676 6.958406701e-05 0)
(0.01084695952 6.891560299e-05 0)
(0.01075357459 6.819073639e-05 0)
(0.01066086782 6.742219778e-05 0)
(0.01056890678 6.661902378e-05 0)
(0.01047775646 6.578049544e-05 0)
(0.01038748086 6.490489463e-05 0)
(0.01029814045 6.399572009e-05 0)
(0.01020979095 6.305680506e-05 0)
(0.0101224845 6.2089612e-05 0)
(0.01003626991 6.109615936e-05 0)
(0.009951192104 6.007960426e-05 0)
(0.009867291937 5.904275266e-05 0)
(0.009784606625 5.798801636e-05 0)
(0.009703170235 5.691757523e-05 0)
(0.00962301419 5.583343377e-05 0)
(0.009544167267 5.473677217e-05 0)
(0.009466654288 5.363080484e-05 0)
(0.009390495625 5.25193569e-05 0)
(0.009315708731 5.140380096e-05 0)
(0.009242309608 5.028433547e-05 0)
(0.009170313106 4.916133246e-05 0)
(0.009099732677 4.803552425e-05 0)
(0.009030580166 4.690780599e-05 0)
(0.008962865754 4.577911736e-05 0)
(0.008896597953 4.465042375e-05 0)
(0.008831783621 4.352270348e-05 0)
(0.008768427991 4.239692546e-05 0)
(0.008706534714 4.12740284e-05 0)
(0.008646105932 4.015490262e-05 0)
(0.008587142352 3.90403829e-05 0)
(0.008529643341 3.793124264e-05 0)
(0.008473607004 3.682819964e-05 0)
(0.008419030241 3.573193459e-05 0)