/*--------------------------------*- C++ -*----------------------------------*\
| =========                 |                                                 |
| \\      /  F ield         | OpenFOAM: The Open Source CFD Toolbox           |
|  \\    /   O peration     | Version:  2312                                  |
|   \\  /    A nd           | Website:  www.openfoam.com                      |
|    \\/     M anipulation  |                                                 |
\*---------------------------------------------------------------------------*/
FoamFile
{
    version     2.0;
    format      ascii;
    arch        "LSB;label=32;scalar=64";
    class       volScalarField;
    location    "0.004";
    object      alphat;
}
// * * * * * * * * * * * * * * * * * * * * * * * * * * * * * * * * * * * * * //

dimensions      [1 -1 -1 0 0 0 0];

internalField   nonuniform List<scalar> 
48128
(
8.90906e-09
2.35505e-08
3.32884e-08
3.11706e-08
3.01639e-08
2.54278e-08
2.1559e-08
2.27778e-07
1.03757e-06
2.53158e-06
4.12659e-06
5.59343e-06
6.91315e-06
8.09606e-06
9.17198e-06
1.01775e-05
1.11361e-05
1.2066e-05
1.29878e-05
1.39172e-05
1.48605e-05
1.58254e-05
1.68194e-05
1.7853e-05
1.89382e-05
2.00902e-05
2.1321e-05
2.26527e-05
2.41021e-05
2.56933e-05
2.74087e-05
2.92552e-05
3.12584e-05
3.34321e-05
3.57848e-05
3.83379e-05
4.11549e-05
4.41893e-05
4.74709e-05
5.09555e-05
5.46768e-05
5.86246e-05
6.29099e-05
6.73372e-05
7.1956e-05
7.6593e-05
8.15567e-05
8.65547e-05
9.16069e-05
9.63065e-05
0.000101137
0.000105583
0.000110258
0.000114548
0.000119486
0.000125691
0.00013156
0.000137342
0.000142758
0.00014796
0.00015288
0.000157543
0.000162031
0.000166305
0.000170417
0.000174238
0.000177834
0.000181179
0.000175807
0.000169092
0.000162935
0.000157331
0.000152154
0.000147324
0.000142815
0.000138539
0.000134547
0.000130738
0.000127195
0.00012382
0.000120737
0.000117767
0.0001151
0.000112478
0.000110074
0.000107697
0.000105539
0.000103435
0.000101542
9.96907e-05
9.80156e-05
9.6364e-05
9.48614e-05
9.3394e-05
9.20481e-05
9.07565e-05
8.95363e-05
8.83552e-05
8.72293e-05
8.61896e-05
8.51964e-05
8.42947e-05
8.34579e-05
8.2686e-05
8.19531e-05
8.12838e-05
8.06565e-05
8.00787e-05
7.9522e-05
7.90017e-05
7.85028e-05
7.80654e-05
7.76805e-05
7.73164e-05
7.69742e-05
7.65922e-05
7.61185e-05
7.56169e-05
7.49381e-05
7.44066e-05
7.46006e-05
7.4331e-05
7.40399e-05
7.41446e-05
7.41006e-05
7.40075e-05
7.3885e-05
7.37217e-05
7.35498e-05
7.34002e-05
7.32773e-05
7.31741e-05
7.30748e-05
7.29532e-05
7.28336e-05
7.27083e-05
7.26009e-05
7.25116e-05
7.24291e-05
7.23345e-05
7.22469e-05
7.21695e-05
7.20966e-05
7.20124e-05
7.19239e-05
7.18079e-05
7.16881e-05
7.15306e-05
7.13995e-05
7.14013e-05
7.13127e-05
7.12052e-05
7.11574e-05
7.10901e-05
7.10452e-05
7.09943e-05
7.09456e-05
7.0893e-05
7.08435e-05
7.07907e-05
7.07344e-05
7.06683e-05
7.05961e-05
7.05238e-05
7.04381e-05
7.0341e-05
7.02477e-05
7.01521e-05
7.00615e-05
6.99632e-05
6.98751e-05
6.98331e-05
6.97763e-05
6.97303e-05
6.96904e-05
6.96727e-05
6.96556e-05
6.96498e-05
6.96416e-05
6.96245e-05
6.95941e-05
6.9551e-05
6.95022e-05
6.94342e-05
6.93646e-05
6.92942e-05
6.92205e-05
6.91503e-05
6.90918e-05
6.90407e-05
6.90003e-05
6.89665e-05
6.89511e-05
6.89379e-05
6.89246e-05
6.89156e-05
6.89088e-05
6.88945e-05
6.88672e-05
6.88319e-05
6.87803e-05
6.87243e-05
6.86679e-05
6.86105e-05
6.85542e-05
6.8508e-05
6.84664e-05
6.84302e-05
6.84052e-05
6.83835e-05
6.83678e-05
6.83576e-05
6.83485e-05
6.83334e-05
6.83155e-05
6.8284e-05
6.82548e-05
6.82197e-05
6.81404e-05
6.80998e-05
6.80602e-05
6.80115e-05
6.79702e-05
6.79332e-05
6.79039e-05
6.7881e-05
6.78602e-05
6.784e-05
6.78235e-05
6.78093e-05
6.77961e-05
6.77726e-05
6.77499e-05
6.77192e-05
6.76526e-05
6.76195e-05
6.7579e-05
6.75293e-05
6.74868e-05
6.74339e-05
1.60521e-07
1.32364e-07
7.54429e-08
6.21999e-08
1.18777e-07
2.74231e-07
7.08883e-07
1.9651e-06
4.45067e-06
8.46062e-06
1.38315e-05
1.9786e-05
2.63797e-05
3.33102e-05
4.04124e-05
4.75477e-05
5.47497e-05
6.20979e-05
6.97244e-05
7.77881e-05
8.62805e-05
9.54457e-05
0.000105267
0.000115927
0.000127451
0.000139968
0.000153469
0.00016817
0.000183815
0.000201683
0.000221179
0.000241695
0.000263535
0.000286902
0.000311287
0.000333977
0.000358484
0.000384465
0.000412
0.000440568
0.00047036
0.000501265
0.000534127
0.000567025
0.00060032
0.000632965
0.000667998
0.000703626
0.000740663
0.000774593
0.000810379
0.000843305
0.000877764
0.000909319
0.000939606
0.000968476
0.000994406
0.00101887
0.00104125
0.0010616
0.00107991
0.00109654
0.00111175
0.00112547
0.00113801
0.0011485
0.00115746
0.00116465
0.00117069
0.00117734
0.00118254
0.00118607
0.00118885
0.00118919
0.00118919
0.00118653
0.00118382
0.00117861
0.00117343
0.00116604
0.00115923
0.00115058
0.00114266
0.00113352
0.00112499
0.00111476
0.00110508
0.00109418
0.00108396
0.00107288
0.00106258
0.00105159
0.00104117
0.00103039
0.00101998
0.00100947
0.000999144
0.000988745
0.00097827
0.00096811
0.000957963
0.000948263
0.00093869
0.000929644
0.000920703
0.000912278
0.000903985
0.00089617
0.000888438
0.000880996
0.000873752
0.000866868
0.000860364
0.000854101
0.000848173
0.000842244
0.000835362
0.000828235
0.000819865
0.000812685
0.00080891
0.000802453
0.00079668
0.00079343
0.000789995
0.000786618
0.000783556
0.000780214
0.000776753
0.000773418
0.000770235
0.000767158
0.000764225
0.000761101
0.000757988
0.000754823
0.000751739
0.000748788
0.000745967
0.000743113
0.000740325
0.000737632
0.000735063
0.000732416
0.000729852
0.000726676
0.000722603
0.00071854
0.000714544
0.000710151
0.000705969
0.000701883
0.00069756
0.000693722
0.000690014
0.000686507
0.000683203
0.000679987
0.000676974
0.000674085
0.000671261
0.00066865
0.000665995
0.000663424
0.000660802
0.000658161
0.000655525
0.00065288
0.00065026
0.000647648
0.000644936
0.000642433
0.000639973
0.000637672
0.000635361
0.000633366
0.000631356
0.000629684
0.000628074
0.000626502
0.000625155
0.000623775
0.000622451
0.000621179
0.000619807
0.000618371
0.00061687
0.000615292
0.000613817
0.000612098
0.000610568
0.000608973
0.00060771
0.000606435
0.000605253
0.00060416
0.000603178
0.000602279
0.000601506
0.000600681
0.000599932
0.000598993
0.000598203
0.000597286
0.000596312
0.000595214
0.000594172
0.000593105
0.000592144
0.000591189
0.000590314
0.000589527
0.00058883
0.00058823
0.00058768
0.000587162
0.000586666
0.000586106
0.000585558
0.000584877
0.000584151
0.000583428
0.000582654
0.000581852
0.000581086
0.000580378
0.000579705
0.000579095
0.000578548
0.000578089
0.000577682
0.00057732
0.000577021
0.000576626
0.000576241
0.000575829
0.000575318
0.000574791
0.000574181
0.000573259
3.22981e-07
4.14875e-07
3.71282e-07
4.64067e-07
1.05614e-06
2.12858e-06
4.69559e-06
1.00848e-05
1.99484e-05
3.57102e-05
5.63281e-05
7.95904e-05
0.00010385
0.00012785
0.000150853
0.000172669
0.00019358
0.000214067
0.000234032
0.000254634
0.000275426
0.0002973
0.000319974
0.000343908
0.000369091
0.000395695
0.000423823
0.000453958
0.00048547
0.000519202
0.00055469
0.000591728
0.000630126
0.000669673
0.000710522
0.000751265
0.000794131
0.000838884
0.000885735
0.000933836
0.000983452
0.00103385
0.00108692
0.00113965
0.00119293
0.00124423
0.00129864
0.00135313
0.00140963
0.00146116
0.00151479
0.00156411
0.00161499
0.00166156
0.00170785
0.00175173
0.00179209
0.00183053
0.00186588
0.00189833
0.00192784
0.00195496
0.00198001
0.00200295
0.00202405
0.00204225
0.00205812
0.00207142
0.0020817
0.00209164
0.00209863
0.00210326
0.00210679
0.0021069
0.00210657
0.00210275
0.00209859
0.00209084
0.0020831
0.0020721
0.00206191
0.00204895
0.0020371
0.00202292
0.00200942
0.00199329
0.00197803
0.00196089
0.00194474
0.00192716
0.00191067
0.00189301
0.00187612
0.00185859
0.00184155
0.00182421
0.00180695
0.00178937
0.00177164
0.00175429
0.00173691
0.00172017
0.00170359
0.00168774
0.00167196
0.00165693
0.00164201
0.0016278
0.00161358
0.0015998
0.00158617
0.00157321
0.00156072
0.00154874
0.00153698
0.0015253
0.00151159
0.00149776
0.00148189
0.00146725
0.00145901
0.00144661
0.00143486
0.00142702
0.00141953
0.00141173
0.00140443
0.00139641
0.00138835
0.0013804
0.00137279
0.00136531
0.0013582
0.00135064
0.00134326
0.00133567
0.00132836
0.00132119
0.00131436
0.00130736
0.00130062
0.00129391
0.00128755
0.00128092
0.00127458
0.00126762
0.00126087
0.00125382
0.00124697
0.00124148
0.00123535
0.00122929
0.00122398
0.00121893
0.00121432
0.0012099
0.00120576
0.00120166
0.00119779
0.00119391
0.00119017
0.00118627
0.00118227
0.0011783
0.00117409
0.00116965
0.00116519
0.00116068
0.00115614
0.00115157
0.00114703
0.00114301
0.00113901
0.00113518
0.00113178
0.00112858
0.00112577
0.00112326
0.00112094
0.00111877
0.00111655
0.0011142
0.00111174
0.00110902
0.00110606
0.001103
0.00109979
0.00109653
0.00109334
0.00109019
0.00108719
0.00108451
0.00108214
0.00107999
0.00107804
0.00107633
0.00107485
0.00107345
0.00107199
0.00107043
0.00106863
0.00106665
0.0010646
0.00106239
0.00106011
0.0010578
0.00105557
0.00105339
0.00105152
0.00104979
0.0010483
0.00104703
0.00104596
0.00104493
0.00104399
0.00104291
0.00104185
0.00104055
0.00103891
0.00103742
0.00103582
0.00103412
0.00103245
0.00103077
0.00102927
0.00102796
0.00102679
0.00102575
0.00102487
0.00102414
0.00102353
0.00102288
0.00102228
0.0010214
0.00102025
0.00101931
0.00101811
0.00101678
0.00101546
0.00101356
4.81989e-07
8.52153e-07
1.1557e-06
2.12784e-06
3.97048e-06
7.86756e-06
1.65514e-05
3.33479e-05
6.13892e-05
9.8884e-05
0.000142867
0.000187411
0.000229411
0.000267955
0.000303094
0.000335938
0.000365994
0.00039524
0.000423633
0.000452595
0.000481632
0.000511771
0.000542786
0.000575206
0.000609035
0.000644448
0.00068159
0.000720565
0.000760961
0.000803196
0.000847034
0.000892366
0.0009387
0.000986366
0.0010358
0.00108569
0.00113729
0.00119041
0.0012453
0.0013012
0.00135858
0.00141589
0.00147605
0.00153524
0.00159512
0.00165249
0.00171278
0.0017726
0.00183396
0.00189071
0.00194907
0.00200299
0.00205843
0.0021095
0.0021611
0.00220969
0.0022556
0.00229957
0.00234007
0.00237794
0.0024131
0.00244606
0.002477
0.00250574
0.00253244
0.00255615
0.00257755
0.00259654
0.0026121
0.00262742
0.00263918
0.00264893
0.00265685
0.00266146
0.00266523
0.00266552
0.00266516
0.00266091
0.00265661
0.00264898
0.00264205
0.00263233
0.00262375
0.00261204
0.00260042
0.00258604
0.00257226
0.00255671
0.00254194
0.00252566
0.00251025
0.00249352
0.00247741
0.00246048
0.00244389
0.00242679
0.00240948
0.00239146
0.00237327
0.00235525
0.00233716
0.00231968
0.00230239
0.00228578
0.00226921
0.00225329
0.00223748
0.00222233
0.00220706
0.00219219
0.00217731
0.00216322
0.00214957
0.00213656
0.00212362
0.00211035
0.0020944
0.00207808
0.00205946
0.00204059
0.00203132
0.00201805
0.00200444
0.00199555
0.00198754
0.00197874
0.00197015
0.00196051
0.0019508
0.00194106
0.00193171
0.00192246
0.00191363
0.00190409
0.00189477
0.00188504
0.00187566
0.00186638
0.00185756
0.00184838
0.00183957
0.00183066
0.00182224
0.00181333
0.00180479
0.00179528
0.00178605
0.00177641
0.00176684
0.00175907
0.00175069
0.00174219
0.00173467
0.00172747
0.00172089
0.0017145
0.0017085
0.00170251
0.00169682
0.00169107
0.00168552
0.00167969
0.00167373
0.00166777
0.0016615
0.00165487
0.00164824
0.0016415
0.00163469
0.00162791
0.0016211
0.0016151
0.00160906
0.00160333
0.00159808
0.00159319
0.00158883
0.00158479
0.00158112
0.00157751
0.00157391
0.00157006
0.00156609
0.0015617
0.00155703
0.00155219
0.00154721
0.0015421
0.00153723
0.00153237
0.00152783
0.00152362
0.00151986
0.00151639
0.00151323
0.00151037
0.00150784
0.00150538
0.00150284
0.00150021
0.00149716
0.00149394
0.00149054
0.00148699
0.00148334
0.00147973
0.00147621
0.00147281
0.00146988
0.0014671
0.00146472
0.00146255
0.00146072
0.00145889
0.00145723
0.00145537
0.00145355
0.00145134
0.00144867
0.00144618
0.00144367
0.00144102
0.00143841
0.00143582
0.00143351
0.00143144
0.0014296
0.00142791
0.00142648
0.00142521
0.00142416
0.00142301
0.00142196
0.00142051
0.00141865
0.00141709
0.00141524
0.00141323
0.00141123
0.00140841
6.3492e-07
2.07358e-06
3.36534e-06
5.50289e-06
1.02732e-05
2.07467e-05
4.15211e-05
7.81934e-05
0.000129267
0.000188634
0.000249011
0.000305755
0.000357602
0.000404832
0.000447616
0.000486517
0.00052285
0.000557785
0.000591735
0.00062596
0.000660192
0.000695307
0.000731255
0.000768475
0.000807
0.000846911
0.000888286
0.000931163
0.000975171
0.00102037
0.00106646
0.00111386
0.00116214
0.00121153
0.00126287
0.00131472
0.00136797
0.00142215
0.00147758
0.00153373
0.00159121
0.00164761
0.00170609
0.00176242
0.00181914
0.00187331
0.00193023
0.0019861
0.00204269
0.00209558
0.00214098
0.00217582
0.00220974
0.00224608
0.00229096
0.00232344
0.00236446
0.00240186
0.00243719
0.00247754
0.00251527
0.00256046
0.00259819
0.00264159
0.00267575
0.00271621
0.00275333
0.00278978
0.00282937
0.00286345
0.00288091
0.00289591
0.00290789
0.00291745
0.00292559
0.00293071
0.00293496
0.00293588
0.00293666
0.00293481
0.00293344
0.00292981
0.00292731
0.00292128
0.00291461
0.00290536
0.00289637
0.00288594
0.00287598
0.00286468
0.002854
0.00284203
0.00283049
0.00281801
0.00280564
0.00279257
0.00277903
0.00276445
0.00274971
0.00273485
0.00271991
0.00270544
0.00269118
0.00267744
0.00266374
0.0026505
0.0026374
0.00262476
0.00261201
0.00259953
0.00258696
0.00257507
0.00256358
0.00255276
0.00254188
0.00253001
0.00251544
0.00250006
0.00248259
0.0024631
0.00245503
0.00244456
0.00243276
0.00242517
0.00241903
0.0024119
0.00240454
0.00239603
0.00238745
0.00237863
0.00237017
0.00236175
0.00235368
0.00234474
0.002336
0.00232667
0.00231768
0.0023087
0.00230018
0.00229119
0.00228258
0.00227374
0.00226544
0.00225646
0.00224783
0.00223803
0.00222843
0.00221839
0.00220812
0.00219999
0.00219145
0.00218256
0.00217466
0.00216711
0.00216023
0.00215353
0.00214725
0.00214093
0.00213494
0.00212877
0.00212288
0.00211651
0.00211001
0.0021034
0.00209642
0.00208895
0.00208147
0.00207378
0.002066
0.00205823
0.00205033
0.00204346
0.00203652
0.00202997
0.00202391
0.00201832
0.00201332
0.0020087
0.00200453
0.0020004
0.00199621
0.00199172
0.00198704
0.00198179
0.0019762
0.00197036
0.00196433
0.00195812
0.0019522
0.0019463
0.00194085
0.00193572
0.00193113
0.00192694
0.00192313
0.00191966
0.00191657
0.00191355
0.00191039
0.00190714
0.0019033
0.00189927
0.001895
0.00189052
0.00188594
0.00188136
0.00187699
0.00187273
0.00186908
0.00186558
0.0018626
0.00185984
0.00185754
0.0018552
0.00185309
0.0018507
0.00184835
0.00184555
0.00184215
0.00183888
0.00183567
0.00183229
0.00182895
0.00182567
0.00182277
0.00182014
0.00181782
0.00181567
0.00181387
0.00181223
0.00181091
0.0018094
0.00180805
0.00180622
0.00180386
0.00180181
0.00179946
0.00179692
0.00179438
0.00179084
7.85781e-07
5.45725e-06
7.10577e-06
1.15328e-05
2.18629e-05
4.35156e-05
8.27312e-05
0.000141161
0.000209772
0.000281763
0.000351146
0.000415
0.000473244
0.000525721
0.000572536
0.000615641
0.000656017
0.000694511
0.000731849
0.00076901
0.000806029
0.000843524
0.000881612
0.0009206
0.000960575
0.00100151
0.00104341
0.00108637
0.00112999
0.00117393
0.00121838
0.00126399
0.00131014
0.00135708
0.00140522
0.00145339
0.0015025
0.00155209
0.00160209
0.00165232
0.00170355
0.00175287
0.00178983
0.00180322
0.00181257
0.00183029
0.00184928
0.0018675
0.00188365
0.00191132
0.00193986
0.00196543
0.00200034
0.00202537
0.00207936
0.00210402
0.00213228
0.00217349
0.00219704
0.00224025
0.00226751
0.00231228
0.00234201
0.00238311
0.00241103
0.00244903
0.00248272
0.00251831
0.0025563
0.00258915
0.00262711
0.00266249
0.00269595
0.00273332
0.00276427
0.00279821
0.00283025
0.00286318
0.00289447
0.00292887
0.00295834
0.0029923
0.00301769
0.00301849
0.00301802
0.00301536
0.00301264
0.00300887
0.00300533
0.0030007
0.00299634
0.00299069
0.00298543
0.00297912
0.0029727
0.00296534
0.00295734
0.00294807
0.00293863
0.00292877
0.00291888
0.00290927
0.00289984
0.00289073
0.00288167
0.00287285
0.00286422
0.00285581
0.00284729
0.00283883
0.00283025
0.0028221
0.00281431
0.00280714
0.0027998
0.00279078
0.00277943
0.00276697
0.00275294
0.00273553
0.00272954
0.00272358
0.00271583
0.00271067
0.00270724
0.00270317
0.0026985
0.00269274
0.00268691
0.00268064
0.00267464
0.00266863
0.00266282
0.00265615
0.00264964
0.00264244
0.00263554
0.00262852
0.00262188
0.00261477
0.002608
0.00260089
0.00259426
0.00258686
0.0025797
0.00257133
0.00256301
0.00255432
0.0025451
0.00253805
0.002531
0.00252339
0.00251663
0.00251025
0.00250449
0.00249893
0.00249374
0.0024885
0.00248356
0.00247835
0.00247341
0.00246786
0.00246219
0.00245626
0.00244992
0.002443
0.00243603
0.00242873
0.00242134
0.00241391
0.00240622
0.00239966
0.00239308
0.00238693
0.00238117
0.00237597
0.00237137
0.00236723
0.00236349
0.00235985
0.00235603
0.00235188
0.00234747
0.00234234
0.00233683
0.00233103
0.00232492
0.00231861
0.00231258
0.00230655
0.00230104
0.00229586
0.00229128
0.00228715
0.00228346
0.00228011
0.00227715
0.00227425
0.00227116
0.00226798
0.00226406
0.0022599
0.00225548
0.00225074
0.00224592
0.00224106
0.00223648
0.00223199
0.0022282
0.00222453
0.00222147
0.00221865
0.00221637
0.00221401
0.00221192
0.00220946
0.00220703
0.00220413
0.00220053
0.00219695
0.0021935
0.00218983
0.00218622
0.00218267
0.00217959
0.0021768
0.00217437
0.00217212
0.00217029
0.00216861
0.00216734
0.00216582
0.00216443
0.0021626
0.0021601
0.00215785
0.00215532
0.00215258
0.0021498
0.00214599
1.00616e-06
9.49827e-06
1.24446e-05
2.13097e-05
4.08089e-05
7.77146e-05
0.000136956
0.000210088
0.000289172
0.000368391
0.000442696
0.000510839
0.000573089
0.000627788
0.00067742
0.000723178
0.000765881
0.000806351
0.000845346
0.000883596
0.000921421
0.000959212
0.000997154
0.00103553
0.00107444
0.00111377
0.00115345
0.00119368
0.00123397
0.00127411
0.00131415
0.00135476
0.0013952
0.00143604
0.00147767
0.0015188
0.00156015
0.00158731
0.00159506
0.0015974
0.00159759
0.0016032
0.00160932
0.00161192
0.00161351
0.00163001
0.00164601
0.0016618
0.00167831
0.00169582
0.00173433
0.00175364
0.00179191
0.00180589
0.0018576
0.00187603
0.00188623
0.0019258
0.00193963
0.00197545
0.00199296
0.00203092
0.00205224
0.00208575
0.0021059
0.0021357
0.00216184
0.00219154
0.00222134
0.00224924
0.00228206
0.00231349
0.00234608
0.00238041
0.00241414
0.00244597
0.00248
0.00251316
0.00254762
0.00258295
0.00261785
0.00265374
0.00268803
0.00272136
0.0027515
0.00278265
0.00281375
0.00284296
0.00287442
0.00290055
0.0029296
0.00295724
0.00297285
0.00297438
0.00297546
0.00297521
0.00297423
0.00297187
0.00296917
0.00296582
0.00296246
0.00295927
0.00295608
0.00295306
0.00294996
0.00294695
0.00294392
0.00294083
0.00293759
0.00293422
0.00293071
0.00292734
0.00292425
0.00292162
0.00291855
0.00291327
0.00290639
0.0028982
0.00288919
0.00287595
0.00287279
0.00287144
0.00286912
0.00286692
0.00286653
0.0028661
0.00286491
0.00286279
0.00286058
0.00285769
0.00285502
0.00285218
0.00284942
0.00284598
0.00284262
0.00283856
0.00283475
0.00283061
0.00282676
0.00282254
0.00281859
0.0028142
0.00281019
0.00280536
0.0028007
0.0027949
0.00278901
0.0027828
0.00277587
0.0027709
0.00276635
0.00276115
0.0027566
0.00275239
0.00274874
0.00274531
0.00274216
0.00273898
0.00273604
0.00273276
0.00272971
0.00272599
0.00272217
0.00271791
0.00271327
0.00270798
0.00270259
0.00269676
0.00269089
0.00268489
0.00267849
0.00267323
0.00266808
0.00266332
0.00265883
0.00265496
0.00265163
0.00264883
0.00264636
0.00264401
0.00264139
0.00263843
0.00263517
0.00263105
0.00262654
0.00262171
0.00261648
0.00261103
0.00260578
0.00260052
0.00259581
0.00259144
0.00258771
0.00258442
0.00258158
0.00257907
0.00257692
0.00257484
0.00257253
0.00257009
0.00256688
0.00256329
0.00255944
0.00255524
0.00255091
0.00254651
0.00254242
0.00253839
0.00253513
0.00253193
0.0025294
0.00252711
0.00252542
0.0025236
0.00252206
0.00252011
0.00251811
0.0025157
0.00251249
0.00250918
0.00250604
0.00250264
0.00249933
0.00249604
0.00249331
0.00249083
0.00248877
0.00248688
0.00248546
0.00248416
0.00248335
0.00248223
0.00248121
0.0024798
0.0024776
0.00247555
0.00247326
0.00247075
0.00246815
0.00246466
1.28505e-06
1.44025e-05
2.05599e-05
3.59961e-05
6.74974e-05
0.000121628
0.000195183
0.000276821
0.000362203
0.000445068
0.000521986
0.000593098
0.000656373
0.000712613
0.000763914
0.000811059
0.000854811
0.000895981
0.000935222
0.000973053
0.00101006
0.00104646
0.00108249
0.00111838
0.00115429
0.00119001
0.00122546
0.00126084
0.00129577
0.00132993
0.00136351
0.00139707
0.00142988
0.0014624
0.00146115
0.00144721
0.00143221
0.0014281
0.00142735
0.00142118
0.00141342
0.00141897
0.00142485
0.00143087
0.00143768
0.00145433
0.00148279
0.00149536
0.00151515
0.00151831
0.0015639
0.00157665
0.00160773
0.00161473
0.0016438
0.00166148
0.00165907
0.00168779
0.00169357
0.00171806
0.00172917
0.00175465
0.00177058
0.00179495
0.00181344
0.00183561
0.00185855
0.00188243
0.00190685
0.001931
0.00195603
0.00198289
0.0020075
0.00203361
0.00206273
0.00208306
0.00211446
0.002137
0.00217154
0.0021956
0.00223303
0.00225688
0.00229559
0.00231706
0.00235877
0.00238436
0.0024267
0.00245363
0.00249582
0.00252333
0.00256383
0.0025944
0.00263359
0.00266232
0.00269906
0.00272285
0.00275554
0.00278158
0.00281267
0.00283646
0.00286437
0.00287562
0.00288015
0.00288449
0.00288846
0.00289225
0.00289578
0.00289902
0.00290204
0.00290484
0.00290729
0.00290985
0.00291254
0.00291525
0.00291713
0.00291663
0.00291543
0.00291266
0.00290988
0.00290278
0.00290288
0.00290624
0.00290981
0.00291132
0.00291416
0.00291758
0.00292045
0.0029225
0.00292442
0.00292547
0.00292662
0.00292739
0.0029282
0.00292854
0.00292887
0.00292855
0.0029284
0.00292771
0.0029272
0.00292643
0.00292588
0.00292477
0.00292391
0.00292224
0.00292069
0.00291811
0.00291537
0.00291231
0.00290852
0.00290619
0.00290474
0.00290263
0.00290097
0.00289952
0.00289857
0.00289784
0.00289733
0.00289679
0.00289645
0.00289572
0.00289513
0.00289389
0.0028926
0.00289066
0.00288843
0.00288551
0.00288244
0.00287887
0.00287529
0.00287148
0.00286721
0.00286399
0.00286104
0.00285833
0.00285588
0.00285401
0.00285259
0.00285175
0.00285115
0.00285063
0.00284987
0.00284872
0.00284728
0.00284487
0.00284212
0.00283895
0.00283541
0.00283155
0.00282784
0.00282409
0.00282094
0.00281811
0.00281585
0.00281402
0.00281267
0.00281161
0.00281086
0.00281017
0.00280927
0.00280816
0.00280632
0.00280398
0.00280135
0.00279835
0.00279521
0.00279192
0.002789
0.00278607
0.00278396
0.00278184
0.00278042
0.00277921
0.00277865
0.00277791
0.00277745
0.00277652
0.0027755
0.00277415
0.00277192
0.00276943
0.00276716
0.0027646
0.00276217
0.00275968
0.00275783
0.00275617
0.00275499
0.00275392
0.00275339
0.00275292
0.00275297
0.0027527
0.00275246
0.00275193
0.0027505
0.00274908
0.0027475
0.00274568
0.00274372
0.00274121
1.61093e-06
1.94123e-05
3.15074e-05
5.59758e-05
0.000100874
0.000169887
0.000250929
0.000338093
0.000426613
0.000511095
0.000589432
0.000661586
0.00072495
0.000782047
0.000834062
0.000881625
0.000925442
0.000966219
0.00100451
0.00104069
0.00107548
0.00110913
0.00114179
0.00117363
0.00120495
0.00123549
0.00126507
0.00129412
0.0013222
0.00134885
0.00137459
0.00136884
0.00133759
0.00131894
0.00130658
0.00128565
0.00126706
0.00126421
0.00126542
0.00126302
0.00125866
0.00127041
0.00128537
0.001295
0.00130596
0.00130959
0.00135268
0.00135502
0.00137258
0.00136264
0.0013982
0.00140304
0.00141839
0.00142707
0.0014295
0.00145514
0.00145531
0.00146868
0.00147272
0.00148709
0.00150258
0.00151667
0.00153457
0.00155077
0.00157154
0.00158526
0.00160845
0.0016252
0.00164981
0.00166806
0.00168933
0.00171528
0.00173055
0.00175534
0.0017776
0.00179136
0.00182099
0.00183258
0.00186721
0.00188178
0.00191703
0.0019342
0.00196791
0.00198088
0.00201791
0.00203842
0.00207355
0.00209532
0.00212909
0.00215226
0.00218487
0.00221063
0.00224356
0.00227289
0.00230697
0.00233316
0.00236719
0.00239859
0.00243341
0.00246409
0.00249851
0.0025312
0.0025579
0.00258781
0.00261563
0.0026423
0.00266705
0.00269252
0.00271696
0.00274198
0.0027683
0.00277948
0.0027893
0.00279856
0.00280636
0.00281209
0.00281755
0.00282152
0.00282525
0.00282634
0.002831
0.00283955
0.00284862
0.00285501
0.0028619
0.00286948
0.002877
0.00288376
0.00289054
0.00289613
0.00290169
0.00290661
0.00291151
0.00291613
0.00292065
0.0029246
0.00292855
0.00293187
0.00293514
0.00293827
0.00294151
0.0029441
0.0029468
0.00294869
0.00295067
0.0029518
0.00295269
0.00295322
0.00295324
0.00295402
0.00295592
0.00295739
0.00295903
0.00296072
0.00296285
0.00296518
0.00296766
0.00297012
0.00297273
0.00297491
0.00297716
0.0029788
0.00298043
0.00298124
0.00298186
0.00298182
0.00298155
0.00298078
0.00298001
0.00297888
0.00297738
0.00297672
0.0029764
0.00297624
0.0029763
0.00297689
0.00297785
0.0029793
0.00298097
0.00298267
0.00298419
0.0029853
0.00298614
0.00298597
0.00298544
0.00298453
0.00298325
0.00298154
0.00297992
0.00297828
0.00297723
0.00297642
0.00297612
0.00297623
0.00297686
0.00297769
0.00297879
0.00297993
0.0029809
0.00298162
0.00298158
0.00298109
0.00298022
0.00297896
0.00297758
0.00297596
0.00297474
0.00297346
0.002973
0.00297247
0.00297263
0.00297297
0.00297398
0.00297478
0.00297586
0.0029764
0.00297685
0.00297704
0.00297631
0.00297516
0.00297426
0.00297305
0.00297201
0.00297084
0.00297035
0.00296998
0.00297012
0.00297033
0.00297111
0.00297189
0.0029732
0.00297418
0.00297516
0.00297592
0.00297569
0.00297535
0.00297494
0.00297423
0.00297335
0.00297247
2.14754e-06
2.5566e-05
4.52242e-05
8.0207e-05
0.000138534
0.000216102
0.000302073
0.000392179
0.000481883
0.000566685
0.000645698
0.00071734
0.000780546
0.000837827
0.000889839
0.00093708
0.000980118
0.0010195
0.00105572
0.00108919
0.00112056
0.00115017
0.0011781
0.00120452
0.00122987
0.00125376
0.00127626
0.001298
0.00131015
0.00127188
0.00124656
0.00122138
0.00118462
0.00116631
0.00115595
0.00113775
0.00112495
0.00113512
0.00113787
0.00114002
0.00113991
0.00115063
0.00118253
0.00118737
0.00119901
0.00118484
0.00122559
0.00121523
0.001232
0.00121884
0.00123806
0.00123925
0.00124738
0.00125831
0.00124514
0.00126947
0.00127678
0.00127095
0.00128075
0.00128101
0.00130109
0.00130409
0.00132453
0.00132855
0.00135254
0.00135607
0.0013829
0.00138948
0.00142042
0.00142819
0.00145437
0.0014774
0.00149102
0.0015214
0.00153175
0.00155932
0.00158027
0.00159684
0.00162738
0.00164078
0.00167117
0.00168847
0.0017126
0.00172724
0.00175449
0.0017748
0.00179873
0.00181856
0.00183991
0.00185928
0.00187961
0.0018995
0.00192104
0.0019454
0.0019677
0.00199078
0.00201588
0.00204336
0.00207165
0.00209846
0.00212873
0.00215624
0.00218486
0.00221411
0.00224307
0.00227195
0.00230159
0.00232995
0.00236077
0.00238894
0.00242191
0.00245099
0.00247482
0.00249596
0.00251034
0.00253067
0.00255441
0.00259037
0.00263122
0.00264648
0.00265882
0.00267364
0.00268862
0.00270124
0.00271372
0.00272641
0.00273951
0.0027518
0.00276423
0.00277506
0.00278589
0.00279571
0.00280545
0.00281494
0.0028244
0.00283323
0.00284212
0.00285008
0.00285788
0.00286544
0.00287306
0.00287989
0.00288674
0.00289266
0.00289871
0.00290404
0.00290916
0.0029138
0.00291821
0.0029227
0.00292819
0.00293356
0.00293892
0.00294418
0.00294971
0.00295538
0.00296116
0.0029669
0.00297274
0.0029781
0.00298349
0.0029883
0.00299314
0.00299705
0.0030008
0.00300404
0.00300693
0.00300936
0.00301178
0.00301373
0.00301544
0.00301767
0.00302032
0.00302306
0.00302596
0.00302928
0.00303291
0.00303691
0.00304109
0.00304529
0.00304936
0.00305304
0.00305647
0.00305886
0.00306095
0.00306271
0.00306404
0.00306491
0.0030658
0.00306665
0.00306809
0.00306967
0.00307168
0.00307408
0.00307699
0.00308005
0.0030833
0.00308659
0.00308974
0.00309263
0.00309477
0.00309653
0.00309784
0.00309873
0.00309953
0.00310003
0.00310093
0.00310171
0.00310329
0.00310476
0.00310687
0.00310912
0.00311202
0.00311472
0.00311768
0.00312006
0.00312238
0.00312449
0.00312568
0.00312633
0.0031272
0.00312777
0.00312855
0.00312913
0.0031304
0.00313171
0.00313355
0.00313543
0.00313788
0.00314027
0.00314318
0.00314578
0.00314833
0.00315075
0.0031521
0.00315326
0.00315441
0.00315521
0.00315582
0.00315715
2.80632e-06
3.38678e-05
6.1129e-05
0.000107323
0.000175009
0.000258076
0.000347285
0.000438525
0.000528122
0.000612371
0.000691296
0.000761733
0.000824556
0.000881529
0.000932975
0.000979202
0.00102061
0.00105765
0.00109078
0.00112042
0.00114711
0.00117134
0.00119319
0.00121285
0.00123089
0.00124704
0.00125413
0.00121878
0.00117063
0.00112401
0.00109803
0.00108001
0.00104648
0.00103885
0.00103484
0.00102041
0.00101055
0.00102902
0.00104143
0.00105146
0.00105806
0.00105428
0.00109612
0.00108551
0.00109659
0.00107428
0.00110254
0.00108981
0.00110971
0.00109831
0.00109552
0.00108667
0.00108385
0.0010845
0.00107321
0.00107266
0.00108864
0.00107172
0.00108877
0.00107351
0.00109284
0.00108202
0.00110681
0.00109586
0.0011268
0.0011206
0.00113478
0.00113812
0.00113816
0.00114299
0.00114622
0.00115284
0.00116036
0.0011667
0.00117622
0.00118428
0.00119593
0.00120788
0.00122181
0.0012347
0.00125017
0.00126644
0.00128447
0.00130193
0.00132203
0.00134187
0.00136477
0.00138687
0.00141221
0.00143699
0.00146422
0.00149224
0.0015217
0.00155235
0.00158427
0.00161658
0.00164996
0.00168414
0.00171943
0.00175358
0.00178875
0.00182272
0.00185713
0.0018911
0.00191916
0.00194177
0.00196677
0.00198992
0.00201673
0.00204098
0.00206979
0.00209543
0.00211688
0.00213651
0.00215067
0.00217608
0.00220704
0.00224478
0.00228532
0.00233806
0.00237592
0.00238594
0.00239969
0.00242013
0.00243616
0.00245423
0.00247234
0.00249563
0.0025186
0.00254187
0.00256398
0.00258133
0.00260155
0.00262223
0.00263972
0.00265461
0.00266952
0.00268308
0.00269653
0.00270933
0.00272224
0.00273411
0.00274598
0.00275677
0.00276773
0.00277798
0.0027882
0.00279775
0.00280717
0.00281623
0.00282601
0.00283564
0.00284535
0.00285466
0.00286412
0.00287351
0.00288304
0.00289239
0.00290187
0.00291073
0.00291964
0.00292795
0.00293634
0.00294373
0.00295104
0.00295787
0.00296433
0.0029703
0.00297629
0.00298171
0.002987
0.00299249
0.00299844
0.00300431
0.00301041
0.00301671
0.00302322
0.00303
0.00303689
0.00304381
0.00305065
0.00305711
0.00306336
0.00306861
0.00307363
0.00307832
0.00308254
0.00308635
0.00309008
0.00309373
0.00309794
0.00310217
0.00310677
0.00311168
0.0031171
0.00312259
0.00312825
0.0031339
0.00313944
0.00314474
0.00314935
0.00315362
0.00315742
0.00316079
0.00316408
0.00316704
0.00317036
0.00317354
0.00317741
0.00318118
0.00318551
0.00318994