/*--------------------------------*- C++ -*----------------------------------*\
| =========                 |                                                 |
| \\      /  F ield         | OpenFOAM: The Open Source CFD Toolbox           |
|  \\    /   O peration     | Version:  2312                                  |
|   \\  /    A nd           | Website:  www.openfoam.com                      |
|    \\/     M anipulation  |                                                 |
\*---------------------------------------------------------------------------*/
FoamFile
{
    version     2.0;
    format      ascii;
    arch        "LSB;label=32;scalar=64";
    class       volScalarField;
    location    "0.004";
    object      cSound;
}
// * * * * * * * * * * * * * * * * * * * * * * * * * * * * * * * * * * * * * //

dimensions      [0 1 -1 0 0 0 0];

internalField   nonuniform List<scalar> 
48128
(
372.999
372.998
372.999
373.001
372.992
372.954
372.827
372.573
372.234
371.826
371.452
371.04
370.556
370.014
369.482
368.989
368.518
368.06
367.621
367.207
366.798
366.4
366.023
365.674
365.361
365.094
364.879
364.725
364.639
364.611
364.645
364.765
364.964
365.23
365.558
365.941
366.374
366.839
367.34
367.867
368.405
368.946
369.485
370.031
370.553
371.043
371.488
371.9
372.268
372.587
372.847
373.048
373.181
373.245
373.242
373.172
373.04
372.843
372.59
372.284
371.932
371.542
371.116
370.657
370.165
369.645
369.095
368.52
367.927
367.307
366.664
366.009
365.327
364.643
363.936
363.241
362.525
361.826
361.118
360.439
359.761
359.115
358.476
357.849
357.208
356.59
355.981
355.4
354.84
354.305
353.78
353.277
352.785
352.311
351.855
351.416
350.983
350.554
350.143
349.749
349.37
349.017
348.693
348.386
348.09
347.813
347.552
347.307
347.067
346.843
346.617
346.416
346.243
346.08
345.912
345.728
345.522
345.295
345.012
344.635
344.706
344.633
344.457
344.551
344.531
344.495
344.443
344.375
344.3
344.221
344.152
344.09
344.023
343.953
343.88
343.805
343.736
343.678
343.626
343.572
343.521
343.478
343.438
343.396
343.35
343.3
343.254
343.2
343.127
343.16
343.156
343.142
343.17
343.185
343.214
343.244
343.276
343.306
343.336
343.363
343.391
343.405
343.417
343.427
343.429
343.426
343.422
343.416
343.411
343.401
343.403
343.414
343.426
343.445
343.471
343.509
343.551
343.602
343.653
343.704
343.739
343.775
343.789
343.804
343.804
343.801
343.794
343.784
343.785
343.788
343.798
343.814
343.845
343.881
343.92
343.964
344.012
344.058
344.094
344.127
344.141
344.158
344.162
344.163
344.162
344.166
344.174
344.189
344.21
344.237
344.271
344.312
344.356
344.398
344.438
344.469
344.497
344.53
344.525
344.532
344.543
344.548
344.558
344.573
344.594
344.621
344.653
344.688
344.727
344.768
344.811
344.849
344.882
344.916
344.922
344.937
344.952
344.957
344.967
344.99
372.967
372.966
372.967
372.977
372.987
372.917
372.705
372.276
371.709
371.147
370.519
369.728
368.842
368.005
367.257
366.581
365.962
365.398
364.892
364.448
364.042
363.679
363.367
363.114
362.925
362.809
362.765
362.773
362.876
363.07
363.34
363.692
364.121
364.618
365.172
365.776
366.41
367.056
367.712
368.368
369.01
369.627
370.212
370.765
371.265
371.703
372.069
372.371
372.603
372.755
372.821
372.794
372.686
372.496
372.217
371.853
371.416
370.911
370.346
369.724
369.051
368.33
367.564
366.757
365.911
365.04
364.141
363.217
362.284
361.335
360.38
359.424
358.449
357.486
356.503
355.54
354.562
353.609
352.654
351.733
350.82
349.94
349.077
348.23
347.378
346.547
345.738
344.954
344.202
343.475
342.768
342.078
341.411
340.755
340.126
339.511
338.91
338.312
337.732
337.173
336.628
336.109
335.622
335.156
334.702
334.273
333.858
333.466
333.077
332.712
332.342
332.001
331.689
331.396
331.1
330.793
330.462
330.109
329.7
329.149
329.083
328.889
328.561
328.534
328.438
328.311
328.166
328.009
327.847
327.682
327.528
327.385
327.238
327.088
326.936
326.782
326.633
326.494
326.363
326.231
326.103
325.983
325.87
325.756
325.64
325.519
325.396
325.263
325.1
325.04
324.955
324.848
324.792
324.723
324.675
324.625
324.582
324.539
324.501
324.464
324.426
324.385
324.341
324.294
324.243
324.187
324.13
324.07
324.011
323.95
323.89
323.858
323.821
323.796
323.768
323.768
323.769
323.779
323.792
323.806
323.811
323.813
323.807
323.795
323.776
323.754
323.727
323.7
323.673
323.661
323.652
323.649
323.658
323.673
323.694
323.72
323.751
323.781
323.803
323.825
323.832
323.841
323.838
323.834
323.827
323.828
323.832
323.842
323.857
323.879
323.906
323.941
323.98
324.018
324.057
324.088
324.117
324.158
324.153
324.162
324.178
324.187
324.2
324.219
324.243
324.272
324.307
324.344
324.387
324.433
324.481
324.525
324.566
324.618
324.63
324.652
324.68
324.694
324.714
324.751
372.932
372.941
372.953
372.975
372.943
372.721
372.253
371.643
370.991
370.277
369.524
368.785
368.098
367.463
366.888
366.374
365.913
365.492
365.125
364.816
364.543
364.314
364.134
364.008
363.939
363.929
363.98
364.107
364.317
364.606
364.963
365.387
365.869
366.393
366.955
367.549
368.155
368.758
369.351
369.925
370.467
370.964
371.408
371.797
372.119
372.36
372.516
372.583
372.561
372.45
372.243
371.939
371.545
371.067
370.495
369.836
369.111
368.32
367.476
366.58
365.645
364.672
363.664
362.626
361.558
360.482
359.388
358.285
357.181
356.067
354.964
353.87
352.766
351.689
350.595
349.53
348.46
347.421
346.39
345.397
344.42
343.479
342.563
341.662
340.763
339.888
339.041
338.221
337.437
336.678
335.942
335.222
334.527
333.842
333.186
332.545
331.916
331.294
330.689
330.106
329.535
328.992
328.48
327.987
327.506
327.049
326.607
326.187
325.769
325.374
324.975
324.604
324.261
323.937
323.61
323.271
322.914
322.533
322.104
321.54
321.436
321.208
320.868
320.785
320.644
320.477
320.296
320.107
319.914
319.72
319.539
319.37
319.198
319.023
318.847
318.668
318.496
318.333
318.177
318.019
317.867
317.722
317.583
317.445
317.304
317.161
317.016
316.863
316.681
316.598
316.491
316.362
316.28
316.186
316.111
316.035
315.967
315.898
315.834
315.773
315.711
315.647
315.581
315.514
315.442
315.368
315.292
315.215
315.138
315.06
314.98
314.928
314.87
314.826
314.779
314.76
314.738
314.733
314.73
314.726
314.717
314.705
314.686
314.662
314.632
314.599
314.562
314.523
314.49
314.461
314.444
314.425
314.427
314.432
314.443
314.459
314.479
314.501
314.517
314.532
314.534
314.537
314.532
314.525
314.515
314.51
314.511
314.517
314.527
314.544
314.567
314.597
314.633
314.668
314.704
314.734
314.763
314.803
314.802
314.811
314.827
314.836
314.85
314.869
314.893
314.922
314.957
314.995
315.038
315.084
315.133
315.18
315.225
315.278
315.297
315.324
315.356
315.375
315.398
315.441
372.903
372.929
372.952
372.938
372.742
372.28
371.672
370.997
370.338
369.725
369.17
368.632
368.11
367.615
367.159
366.759
366.416
366.116
365.863
365.661
365.486
365.35
365.255
365.206
365.205
365.261
365.382
365.576
365.837
366.161
366.539
366.971
367.448
367.957
368.489
369.041
369.588
370.113
370.609
371.069
371.477
371.819
372.087
372.281
372.386
372.394
372.293
372.086
371.774
371.365
370.85
370.236
369.523
368.729
367.835
366.864
365.839
364.751
363.624
362.454
361.264
360.047
358.813
357.564
356.299
355.047
353.789
352.543
351.311
350.08
348.882
347.703
346.526
345.391
344.241
343.132
342.029
340.962
339.915
338.909
337.928
336.986
336.074
335.181
334.295
333.435
332.611
331.815
331.057
330.325
329.615
328.922
328.254
327.596
326.968
326.354
325.752
325.157
324.58
324.023
323.478
322.961
322.472
321.999
321.54
321.103
320.68
320.276
319.875
319.494
319.109
318.752
318.419
318.104
317.783
317.452
317.105
316.734
316.322
315.793
315.681
315.457
315.159
315.045
314.892
314.719
314.533
314.342
314.149
313.954
313.773
313.602
313.43
313.255
313.08
312.902
312.732
312.568
312.41
312.25
312.097
311.949
311.807
311.666
311.522
311.377
311.229
311.076
310.897
310.809
310.7
310.574
310.485
310.387
310.307
310.226
310.152
310.077
310.007
309.94
309.872
309.802
309.731
309.657
309.582
309.503
309.423
309.342
309.262
309.181
309.097
309.039
308.976
308.926
308.873
308.847
308.817
308.806
308.796
308.785
308.771
308.754
308.73
308.702
308.668
308.631
308.591
308.548
308.512
308.478
308.458
308.432
308.431
308.433
308.439
308.45
308.467
308.483
308.496
308.508
308.508
308.509
308.503
308.496
308.484
308.478
308.478
308.482
308.491
308.506
308.527
308.555
308.588
308.622
308.657
308.686
308.715
308.755
308.756
308.766
308.782
308.793
308.808
308.828
308.853
308.882
308.917
308.955
308.998
309.045
309.095
309.143
309.189
309.243
309.267
309.297
309.331
309.354
309.38
309.427
372.879
372.926
372.932
372.772
372.359
371.787
371.137
370.517
369.982
369.541
369.161
368.733
368.319
367.954
367.629
367.349
367.109
366.902
366.731
366.603
366.497
366.422
366.383
366.382
366.429
366.531
366.693
366.919
367.204
367.541
367.922
368.344
368.801
369.275
369.757
370.242
370.703
371.12
371.484
371.79
372.024
372.166
372.205
372.138
371.963
371.669
371.237
370.676
369.994
369.208
368.303
367.296
366.184
365.004
363.725
362.383
361.015
359.587
358.143
356.675
355.214
353.749
352.289
350.84
349.394
347.995
346.606
345.255
343.939
342.634
341.389
340.173
338.969
337.827
336.67
335.571
334.487
333.446
332.435
331.472
330.539
329.649
328.794
327.963
327.139
326.344
325.587
324.858
324.167
323.504
322.858
322.231
321.627
321.034
320.472
319.925
319.387
318.855
318.339
317.842
317.353
316.893
316.456
316.033
315.626
315.237
314.862
314.502
314.146
313.806
313.462
313.144
312.845
312.562
312.271
311.97
311.658
311.32
310.951
310.485
310.376
310.178
309.949
309.814
309.671
309.513
309.344
309.171
308.995
308.818
308.653
308.497
308.339
308.181
308.021
307.86
307.706
307.556
307.41
307.263
307.122
306.986
306.853
306.722
306.587
306.453
306.315
306.174
306.01
305.927
305.827
305.714
305.63
305.539
305.465
305.391
305.321
305.252
305.187
305.124
305.06
304.994
304.927
304.857
304.786
304.712
304.637
304.56
304.484
304.408
304.329
304.273
304.214
304.167
304.116
304.09
304.061
304.05
304.039
304.029
304.014
303.998
303.975
303.947
303.915
303.881
303.841
303.8
303.766
303.733
303.713
303.689
303.687
303.689
303.695
303.706
303.721
303.737
303.75
303.762
303.762
303.765
303.759
303.753
303.743
303.739
303.74
303.744
303.754
303.769
303.791
303.819
303.852
303.886
303.921
303.951
303.981
304.02
304.025
304.037
304.054
304.068
304.085
304.107
304.134
304.165
304.201
304.24
304.284
304.332
304.383
304.432
304.481
304.536
304.562
304.595
304.632
304.658
304.688
304.739
372.873
372.919
372.82
372.478
371.958
371.343
370.748
370.247
369.865
369.563
369.243
368.926
368.64
368.392
368.174
367.987
367.826
367.688
367.575
367.499
367.441
367.413
367.414
367.453
367.539
367.676
367.867
368.114
368.412
368.75
369.12
369.516
369.934
370.35
370.75
371.131
371.467
371.732
371.914
372.002
371.984
371.843
371.559
371.133
370.561
369.84
368.945
367.89
366.695
365.4
363.961
362.424
360.785
359.097
357.358
355.557
353.77
351.947
350.126
348.346
346.582
344.886
343.199
341.586
339.979
338.488
337.019
335.625
334.295
332.983
331.764
330.577
329.418
328.348
327.257
326.25
325.262
324.331
323.434
322.596
321.786
321.03
320.303
319.606
318.903
318.233
317.596
316.988
316.413
315.864
315.329
314.811
314.312
313.828
313.371
312.927
312.488
312.051
311.629
311.221
310.817
310.44
310.083
309.736
309.407
309.093
308.79
308.498
308.209
307.933
307.652
307.396
307.152
306.92
306.677
306.426
306.169
305.887
305.581
305.203
305.102
304.951
304.8
304.661
304.549
304.424
304.285
304.146
304.003
303.858
303.724
303.595
303.466
303.337
303.208
303.075
302.951
302.827
302.705
302.583
302.466
302.353
302.24
302.129
302.015
301.902
301.784
301.665
301.528
301.456
301.375
301.284
301.213
301.138
301.078
301.018
300.962
300.906
300.854
300.802
300.75
300.696
300.64
300.582
300.521
300.46
300.395
300.33
300.265
300.2
300.133
300.086
300.036
299.998
299.956
299.936
299.915
299.908
299.902
299.897
299.887
299.876
299.859
299.837
299.811
299.783
299.75
299.715
299.687
299.66
299.645
299.628
299.628
299.633
299.642
299.656
299.675
299.692
299.708
299.723
299.726
299.735
299.731
299.73
299.724
299.724
299.728
299.736
299.749
299.767
299.791
299.822
299.857
299.893
299.93
299.962
299.995
300.036
300.045
300.061
300.08
300.099
300.12
300.145
300.174
300.208
300.246
300.288
300.335
300.385
300.438
300.488
300.54
300.597
300.627
300.664
300.703
300.734
300.767
300.823
372.89
372.884
372.638
372.179
371.595
371.008
370.511
370.138
369.874
369.634
369.401
369.19
369.008
368.851
368.713
368.591
368.488
368.404
368.34
368.307
368.291
368.3
368.337
368.41
368.527
368.69
368.899
369.153
369.45
369.774
370.113
370.458
370.805
371.125
371.399
371.626
371.772
371.811
371.714
371.482
371.091
370.527
369.756
368.779
367.597
366.238
364.646
362.867
360.929
358.911
356.768
354.529
352.261
349.907
347.71
345.379
343.065
340.87
338.603
336.56
334.455
332.599
330.691
328.994
327.27
325.771
324.295
322.946
321.672
320.442
319.348
318.285
317.289
316.394
315.481
314.675
313.89
313.171
312.492
311.874
311.284
310.757
310.244
309.769
309.261
308.792
308.348
307.929
307.539
307.167
306.804
306.456
306.116
305.786
305.479
305.179
304.877
304.572
304.28
303.994
303.707
303.445
303.196
302.953
302.727
302.511
302.302
302.098
301.897
301.705
301.507
301.331
301.163
300.996
300.821
300.638
300.457
300.248
300.025
299.756
299.658
299.585
299.508
299.397
299.322
299.243
299.147
299.056
298.958
298.859
298.768
298.678
298.59
298.503
298.414
298.322
298.237
298.151
298.064
297.976
297.894
297.813
297.73
297.649
297.565
297.483
297.394
297.306
297.204
297.151
297.097
297.037
296.986
296.934
296.895
296.857
296.821
296.786
296.753
296.72
296.685
296.651
296.612
296.571
296.528
296.485
296.438
296.39
296.341
296.294
296.244
296.211
296.178
296.153
296.126
296.117
296.108
296.11
296.115
296.118
296.119
296.119
296.111
296.1
296.083
296.068
296.046
296.021
296.001
295.986
295.979
295.973
295.978
295.99
296.006
296.027
296.052
296.075
296.097
296.118
296.128
296.145
296.145
296.152
296.153
296.16
296.17
296.184
296.203
296.226
296.255
296.29
296.33
296.37
296.411
296.447
296.485
296.529
296.545
296.566
296.59
296.614
296.64
296.67
296.704
296.741
296.784
296.83
296.88
296.933
296.99
297.044
297.099
297.158
297.194
297.235
297.277
297.313
297.352
297.414
372.906
372.829
372.449
371.899
371.309
370.789
370.394
370.125
369.925
369.756
369.608
369.484
369.377
369.283
369.203
369.134
369.079
369.039
369.019
369.022
369.039
369.079
369.145
369.244
369.381
369.558
369.77
370.015
370.29
370.575
370.852
371.109
371.341
371.509
371.585
371.564
371.412
371.09
370.556
369.805
368.814
367.58
366.048
364.236
362.162
359.907
357.373
354.645
351.787
348.805
345.936
342.904
340.049
336.975
334.387
331.623
328.729
326.291
323.649
321.445
319.085
317.176
315.159
313.483
311.733
310.286
308.863
307.641
306.493
305.442
304.53
303.669
302.911
302.225
301.594
301.019
300.509
300.049
299.657
299.309
299.02
298.754
298.533
298.32
298.097
297.879
297.716
297.535
297.409
297.258
297.14
297.013
296.899
296.768
296.667
296.551
296.434
296.303
296.189
296.065
295.938
295.825
295.713
295.602
295.504
295.409
295.315
295.223
295.131
295.045
294.95
294.876
294.8
294.72
294.633
294.53
294.438
294.32
294.198
294.049
293.973
293.986
293.973
293.922
293.896
293.869
293.829
293.796
293.758
293.716
293.679
293.64
293.602
293.565
293.527
293.485
293.449
293.409
293.367
293.323
293.284
293.243
293.2
293.157
293.11
293.067
293.014
292.966
292.909
292.88
292.86
292.836
292.814
292.792
292.781
292.77
292.761
292.751
292.744
292.736
292.725
292.715
292.7
292.682
292.661
292.643
292.618
292.594
292.567
292.543
292.516
292.501
292.489
292.483
292.475
292.481
292.489
292.505
292.524
292.54
292.556
292.57
292.578
292.581
292.576
292.579
292.57
292.56
292.554
292.553
292.559
292.564
292.58
292.602
292.629
292.66
292.694
292.726
292.757
292.787
292.806
292.834
292.844
292.859
292.871
292.886
292.905
292.928
292.955
292.986
293.022
293.064
293.11
293.157
293.204
293.246
293.291
293.339
293.365
293.393
293.423
293.454
293.487
293.523
293.563
293.607
293.655
293.706
293.761
293.819
293.88
293.939
293.999
294.061
294.104
294.15
294.197
294.24
294.284
294.353
372.919
372.741
372.258
371.665
371.105
370.664
370.355
370.155
370.017
369.91
369.831
369.771
369.718
369.674
369.637
369.61
369.595
369.592
369.604
369.635
369.679
369.743
369.829
369.942
370.086
370.261
370.457
370.669
370.893
371.102
371.27
371.381
371.424
371.337
371.086
370.649
369.993
369.079
367.855
366.3
364.396
362.197
359.602
356.684
353.485
350.078
346.596
342.841
339.116
335.087
331.726
328.008
324.725
321.135
318.189
315.177
311.907
309.39
306.571
304.377
302.009
300.179
298.272
296.736
295.17
293.874
292.655
291.626
290.69
289.885
289.164
288.565
288.02
287.541
287.2
286.779
286.565
286.266
286.177
285.997
286.017
285.914
286.003
285.93
286.04
286.001
286.152
286.158
286.32
286.364
286.513
286.592
286.739
286.817
286.965
287.041
287.163
287.233
287.336
287.403
287.471
287.541
287.587
287.64
287.694
287.746
287.791
287.841
287.878
287.928
287.958
288.006
288.035
288.071
288.079
288.069
288.078
288.067
288.074
288.036
288.025
288.1
288.175
288.198
288.229
288.258
288.296
288.325
288.364
288.385
288.413
288.432
288.451
288.471
288.495
288.509
288.534
288.544
288.555
288.561
288.575
288.581
288.585
288.585
288.584
288.585
288.578
288.579
288.568
288.574
288.59
288.607
288.622
288.638
288.658
288.679
288.704
288.725
288.75
288.769
288.791
288.806
288.822
288.832
288.837
288.851
288.85
288.856
288.856
288.86
288.86
288.868
288.88
288.898
288.914
288.939
288.967
289.001
289.037
289.072
289.106
289.137
289.164
289.184
289.199
289.22
289.229
289.238
289.249
289.265
289.286
289.308
289.337
289.373
289.414
289.457
289.502
289.546
289.589
289.631
289.663
289.702
289.725
289.752
289.777
289.804
289.834
289.868
289.906
289.947
289.992
290.043
290.097
290.153
290.208
290.259
290.312
290.366
290.404
290.44
290.479
290.519
290.56
290.604
290.652
290.703
290.758
290.816
290.878
290.942
291.009
291.073
291.14
291.206
291.258
291.311
291.363
291.414
291.464
291.543
372.894
372.621
372.077
371.48
370.972
370.6
370.362
370.222
370.132
370.078
370.05
370.032
370.021
370.015
370.013
370.017
370.032
370.057
370.095
370.145
370.207
370.284
370.379
370.491
370.625
370.776
370.928
371.074
371.203
371.281
371.264
371.119
370.818
370.301
369.507
368.401
366.953
365.163
362.941
360.272
357.141
353.73
349.954
345.838
341.547
336.854
332.724
328.073
323.768
318.852
315.27
311.138
307.698
303.988
300.785
297.912
294.717
292.257
289.6
287.535
285.539
283.86
282.335
280.985
279.805
278.693
277.845
277.002
276.395
275.803
275.3
274.993
274.574
274.34
274.201
273.878
273.937
273.667
273.85
273.721
273.958
273.939
274.204
274.203
274.497
274.577
274.892
275.03
275.347
275.537
275.838
276.067
276.366
276.612
276.919
277.162
277.454
277.705
277.986
278.229
278.478
278.726
278.94
279.162
279.382
279.594
279.794
279.996
280.183
280.377
280.555
280.737
280.887
281.043
281.163
281.259
281.372
281.49
281.638
281.722
281.798
281.953
282.119
282.22
282.328
282.426
282.541
282.645
282.763
282.858
282.955
283.04
283.125
283.21
283.3
283.38
283.467
283.536
283.607
283.672
283.741
283.801
283.858
283.907
283.958
284.009
284.055
284.106
284.147
284.196
284.254
284.315
284.374
284.429
284.487
284.546
284.607
284.664
284.725
284.777
284.833
284.88
284.931
284.973
285.012
285.057
285.089
285.125
285.158
285.193
285.224
285.26
285.3
285.345
285.387
285.437
285.488
285.544
285.601
285.656
285.711
285.763
285.813
285.853
285.892
285.933
285.965
285.994
286.027
286.062
286.102
286.142
286.188
286.24
286.297
286.356
286.415
286.474
286.531
286.586
286.634
286.688
286.726
286.767
286.806
286.848
286.893
286.939
286.99
287.043
287.1
287.161
287.226
287.292
287.357
287.418
287.481
287.544
287.596
287.642
287.691
287.741
287.792
287.846
287.903
287.963
288.026
288.093
288.163
288.235
288.309
288.38
288.453
288.526
288.59
288.648
288.707
288.767
288.825
288.914
372.818
372.494
371.922
371.342
370.89
370.578
370.398
370.309
370.258
370.244
370.248
370.262
370.281
370.303
370.327
370.356
370.392
370.436
370.489
370.55
370.618
370.697
370.785
370.879
370.979
371.077
371.147
371.174
371.129
370.964
370.62
370.036
369.169
367.967
366.352
364.264
361.703
358.798
355.299
351.335
346.895
342.105
337.416
332.229
327.103
321.256
316.795
311.546
307.1
301.847
298.294
294.04
290.78
287.269
284.166
281.616
278.936
276.584
274.555
272.659
271.286
269.798
268.856
267.64
267.025
266.018
265.689
264.922
264.763
264.243
264.05
263.939
263.617
263.663
263.496
263.445
263.549
263.363
263.675
263.55
263.887
263.889
264.223
264.229
264.598
264.709
265.076
265.251
265.614
265.844
266.199
266.47
266.829
267.135
267.509
267.822
268.193
268.537
268.913
269.261
269.622
269.979
270.313
270.658
270.995
271.326
271.649
271.969
272.282
272.593
272.9
273.205
273.469
273.736
273.955
274.169
274.397
274.65
274.929
275.176
275.365
275.596
275.841
276.025
276.213
276.393
276.585
276.772
276.97
277.145
277.317
277.472
277.631
277.787
277.948
278.099
278.254
278.387
278.523
278.651
278.781
278.899
279.014
279.119
279.227
279.332
279.435
279.541
279.638
279.736
279.84
279.947
280.054
280.153
280.253
280.352
280.453
280.55
280.649
280.739
280.832
280.916
281.004
281.082
281.158
281.238
281.306
281.377
281.445
281.515
281.579
281.647
281.718
281.793
281.865
281.942
282.02
282.1
282.18
282.26
282.338
282.414
282.488
282.552
282.617
282.682
282.739
282.792
282.848
282.906
282.967
283.028
283.094
283.165
283.24
283.317
283.392
283.467
283.541
283.612
283.677
283.748
283.803
283.861
283.918
283.976
284.036
284.099
284.163
284.231
284.301
284.375
284.452
284.53
284.607
284.679
284.754
284.827
284.896
284.953
285.013
285.075
285.138
285.204
285.271
285.342
285.415
285.492
285.571
285.651
285.733
285.813
285.895
285.975
286.051
286.117
286.185
286.254
286.321
286.422
372.7
372.362
371.788
371.238
370.838
370.586
370.457
370.404
370.383
370.394
370.423
370.46
370.5
370.54
370.582
370.626
370.675
370.728
370.786
370.846
370.909
370.974
371.038
371.089
371.122
371.123
371.047
370.853
370.495
369.908
369.025
367.763
366.049
363.88
361.149
357.797
353.858
349.696
344.931
339.732
334.193
328.028
322.82
316.744
311.226
304.751
300.23
294.751
290.593
285.555
282.215
278.126
275.348
272.132
269.673
267.27
265.445
263.335
262.159
260.438
259.815
258.427
258.202
257.014
257.081
256.128
256.365
255.644
255.95
255.416
255.67
255.487
255.526
255.687
255.47
255.772
255.686
255.813
256.086
255.955
256.356
256.301
256.666
256.63
257.021
257.084
257.444
257.563
257.908
258.073
258.411
258.615
258.96
259.213
259.571
259.848
260.211
260.535
260.91
261.266
261.644
262.019
262.392
262.773
263.15
263.527
263.905
264.281
264.66
265.037
265.418
265.799
266.136
266.482
266.771
267.081
267.409
267.767
268.152
268.53
268.845
269.132
269.445
269.714
269.975
270.232
270.499
270.764
271.039
271.292
271.544
271.771
272.004
272.234
272.469
272.693
272.92
273.122
273.328
273.522
273.718
273.896
274.073
274.237
274.403
274.568
274.729
274.893
275.05
275.198
275.351
275.507
275.664
275.809
275.954
276.096
276.24
276.379
276.52
276.65
276.783
276.907
277.034
277.151
277.266
277.385
277.491
277.6
277.705
277.813
277.913
278.016
278.12
278.228
278.332
278.439
278.546
278.652
278.758
278.863
278.968
279.07
279.171
279.261
279.354
279.444
279.529
279.609
279.69
279.773
279.858
279.943
280.03
280.122
280.217
280.313
280.408
280.5
280.592
280.682
280.766
280.855
280.93
281.007
281.082
281.159
281.237
281.317
281.398
281.481
281.566
281.655
281.745
281.836
281.927
282.013
282.1
282.185
282.272
282.342
282.415
282.49
282.567
282.645
282.725
282.807
282.891
282.979
283.069
283.159
283.251
283.34
283.431
283.52
283.61
283.684
283.761
283.841
283.918
284.033
372.558
372.221
371.662
371.155
370.806
370.611
370.527
370.498
370.498
370.528
370.575
370.627
370.678
370.729
370.78
370.83
370.882
370.934
370.986
371.035
371.077
371.11
371.123
371.097
371.011
370.828
370.484
369.913
369.041
367.8
366.124
363.907
361.04
357.655
353.627
348.96
343.626
338.003
332.388
326.142
319.842
312.567
307.086
300.472
295.06
288.607
284.205
278.826
275.187
270.672
267.688
264.086
261.976
259.087
257.589
255.202
254.488
252.6
252.349
250.81
250.899
249.638
250.029
249.001
249.616
248.827
249.51
248.931
249.6
249.137
249.766
249.448
249.998
249.988
250.146
250.517
250.32
250.793
250.905
250.948
251.402
251.246
251.668
251.603
252.016
252.008
252.359
252.396
252.713
252.774
253.068
253.156
253.447
253.572
253.86
254.014
254.296
254.501
254.79
255.04
255.334
255.624
255.926
256.241
256.556
256.886
257.225
257.573
257.933
258.302
258.679
259.059
259.405
259.773
260.077
260.426
260.806
261.216
261.654
262.094
262.482
262.8
263.153
263.485
263.806
264.124
264.452
264.781
265.119
265.436
265.757
266.049
266.349
266.646
266.947
267.241
267.537
267.806
268.079
268.337
268.597
268.835
269.073
269.296
269.52
269.745
269.964
270.185
270.401
270.603
270.806
271.011
271.218
271.413
271.604
271.791
271.979
272.162
272.346
272.517
272.693
272.858
273.027
273.184
273.341
273.499
273.646
273.795
273.939
274.085
274.224
274.363
274.502
274.645
274.782
274.921
275.06
275.194
275.327
275.46
275.593
275.722
275.852
275.97
276.093
276.21
276.326
276.434
276.542
276.652
276.762
276.872
276.983
277.097
277.214
277.331
277.446
277.558
277.67
277.78
277.884
277.994
278.089
278.187
278.283
278.38
278.477
278.575
278.674
278.775
278.877
278.981
279.086
279.192
279.297
279.397
279.499
279.598
279.702
279.788
279.875
279.965
280.056
280.148
280.241
280.336
280.433
280.533
280.634
280.735
280.838
280.938
281.039
281.138
281.241
281.326
281.414
281.505
281.593
281.724
372.412
372.072
371.539
371.084
370.796
370.649
370.598
370.583
370.6
370.645
370.703
370.762
370.818
370.871
370.922
370.97
371.015
371.056
371.091
371.114
371.117
371.091
371.015
370.847
370.544
370.036
369.242
368.086
366.457
364.297
361.58
358.147
353.899
349.132
343.97
338.117
331.556
324.343
318.295
311.18
304.587
296.768
291.155
284.363
279.37
273.387
269.343
264.463
261.306
257.576
254.99
252.322
250.693
248.38
247.663
245.46
245.699
244.045
244.574
243.289
243.932
242.911
243.804
242.978
244.042
243.467
244.546
244.118
245.114
244.754
245.673
245.387
246.239
246.033
246.72
246.881
247.009
247.622
247.481
247.936
248.348
248.134
248.638
248.589
249.021
248.977
249.368
249.365
249.693
249.692
249.976
249.99
250.254
250.283
250.526
250.568
250.793
250.877
251.084
251.198
251.39
251.539
251.721
251.914
252.091
252.294
252.501
252.726
252.969
253.226
253.496
253.769
254.029
254.302
254.532
254.823
255.163
255.538
255.945
256.373
256.764
257.062
257.391
257.728
258.065
258.406
258.757
259.114
259.482
259.835
260.196
260.532
260.874
261.215
261.562
261.903
262.248
262.568
262.891
263.2
263.512
263.799
264.089
264.365
264.64
264.918
265.191
265.468
265.738
265.993
266.244
266.498
266.751
266.995
267.233
267.465
267.697
267.923
268.151
268.365
268.583
268.789
269.001
269.197
269.395
269.594
269.782
269.973
270.156
270.341
270.52
270.698
270.872
271.05
271.222
271.394
271.565
271.727
271.89
272.052
272.213
272.371
272.53
272.679
272.833
272.978
273.124
273.263
273.401
273.538
273.675
273.811
273.947
274.085
274.224
274.363
274.499
274.632
274.765
274.896
275.022
275.153
275.271
275.39
275.509
275.627
275.745
275.863
275.981
276.1
276.22
276.34
276.462
276.583
276.704
276.82
276.937
277.052
277.172
277.276
277.379
277.484
277.59
277.698
277.805
277.914
278.024
278.137
278.251
278.364
278.478
278.59
278.702
278.813
278.929
279.026
279.126
279.228
279.329
279.476
372.279
371.92
371.422
371.024
370.8
370.693
370.663
370.661
370.692
370.746
370.808
370.867
370.921
370.97
371.013
371.048
371.077
371.096
371.1
371.078
371.015
370.885
370.642
370.22
369.549
368.522
367.053
365.077
362.449
359.114
355.156
350.462
344.827
338.517
332.534
325.612
318.133
309.568
303.198
295.423
288.921
281.145
275.68
269.184
264.847
259.66
256.227
252.104
249.409
246.573
244.354
242.789
241.175
240.01
239.403
238.011
238.676
237.344
238.327
237.437
238.571
237.773
239.122
238.547
239.994
239.541
240.977
240.619
241.936
241.611
242.814
242.562
243.648
243.425
244.404
244.269
244.969
245.549
245.426
246.026
246.399
246.267
246.865
246.826
247.292
247.26
247.713
247.708
248.076
248.058
248.367
248.362
248.629
248.62
248.857
248.854
249.072
249.101
249.278
249.322
249.475
249.531
249.653
249.77
249.85
249.962
250.059
250.176
250.304
250.439
250.584
250.712
250.832
250.93
251.012
251.177
251.391
251.636
251.909
252.202
252.502
252.689
252.913
253.159
253.423
253.702
254
254.308
254.638
254.958
255.296
255.623
255.958
256.292
256.637
256.98
257.328
257.662
257.999
258.328
258.66
258.973
259.29
259.596
259.905
260.218
260.534
260.852
261.163
261.463
261.755
262.047
262.338
262.626
262.906
263.179
263.45
263.716
263.983
264.236
264.494
264.739
264.989
265.224
265.463
265.7
265.928
266.158
266.38
266.604
266.822
267.038
267.248
267.46
267.667
267.873
268.074
268.265
268.459
268.648
268.839
269.026
269.214
269.394
269.579
269.754
269.931
270.1
270.268
270.435
270.598
270.761
270.923
271.085
271.248
271.409
271.566
271.722
271.876
272.029
272.178
272.331
272.472
272.614
272.756
272.896
273.036
273.174
273.312
273.451
273.589
273.727
273.865
274.002
274.14
274.272
274.406
274.538
274.674
274.797
274.917
275.039
275.161
275.285
275.407
275.531
275.655
275.782
275.91
276.035
276.161
276.285
276.409
276.533
276.662
276.772
276.885
277
277.113
277.278
372.159
371.776
371.317
370.981
370.81
370.738
370.723
370.734
370.774
370.831
370.891
370.945
370.991
371.027
371.053
371.068
371.069
371.054
371.008
370.913
370.731
370.412
369.878
369.035
367.802
366.025
363.654
360.646
356.836
352.143
346.741
341.097
334.22
326.194
319.522
311.577
303.618
294.281
287.574
279.503
273.465
266.356
261.473
255.837
252.216
247.973
245.068
241.792
239.519
237.469
235.938
235.096
233.669
233.98
232.83
233.504
233.398
232.826
234.154
233.338
235.013
234.268
236.073
235.477
237.253
236.82
238.541
238.184
239.777
239.472
240.916
240.642
241.931
241.697
242.861
242.718
243.674
244.024
244.213
244.897
245.066
245.245
245.901
245.838
246.392
246.385
246.889
246.876
247.299
247.281
247.633
247.623