/*--------------------------------*- C++ -*----------------------------------*\
| =========                 |                                                 |
| \\      /  F ield         | OpenFOAM: The Open Source CFD Toolbox           |
|  \\    /   O peration     | Version:  2312                                  |
|   \\  /    A nd           | Website:  www.openfoam.com                      |
|    \\/     M anipulation  |                                                 |
\*---------------------------------------------------------------------------*/
FoamFile
{
    version     2.0;
    format      ascii;
    arch        "LSB;label=32;scalar=64";
    class       volScalarField;
    location    "0.004";
    object      k;
}
// * * * * * * * * * * * * * * * * * * * * * * * * * * * * * * * * * * * * * //

dimensions      [0 2 -2 0 0 0 0];

internalField   nonuniform List<scalar> 
48128
(
0.532396
1.40768
1.99358
1.86795
1.80891
1.52661
1.29622
13.7483
63.2546
156.876
261.722
363.407
459.19
547.985
630.547
708.234
782.426
853.999
923.571
991.869
1059.41
1126.13
1191.95
1256.97
1321.28
1385.14
1448.83
1512.76
1577.2
1643.05
1708.41
1773.12
1837.79
1902.49
1967.06
2032.27
2102.74
2173.62
2246.48
2318.82
2391.56
2464.91
2541.96
2615.9
2686
2747.6
2811.61
2868.48
2915.33
2940.37
2961.92
2963.47
2968.88
2958.55
2969.88
3032.06
3077.03
3116.69
3141.41
3158.34
3166.49
3167.44
3164.68
3157.63
3147.9
3132.97
3114.71
3092.47
3063.92
3033.61
3001.86
2969.33
2937.43
2904.01
2871.18
2836.71
2803.08
2768.2
2734.03
2698.77
2665.02
2630.33
2598.06
2565.53
2536.34
2506.64
2479.1
2451.19
2425.17
2398.9
2374.78
2350.68
2328.4
2306.59
2286.2
2266.55
2248.12
2230.77
2214.22
2198.88
2184.25
2170.68
2157.58
2145.25
2133.5
2122.46
2111.97
2102.03
2092.63
2083.66
2075.42
2067.79
2060.53
2053.42
2046.86
2040.37
2033.78
2027.85
2020.58
2020.94
2019.15
2014.41
2011.96
2008.48
2004.2
1999.59
1994.9
1990.29
1986.07
1982.58
1979.51
1976.7
1974.05
1971.45
1969.05
1966.87
1964.98
1963.3
1961.63
1959.96
1958.41
1957.01
1955.61
1954.23
1952.88
1951.55
1950.24
1948.63
1948.51
1947.77
1946.34
1944.97
1943.34
1941.58
1939.66
1937.59
1935.4
1933.16
1930.87
1928.6
1926.3
1924.12
1922.04
1920.15
1918.31
1916.61
1915.18
1913.88
1912.82
1911.72
1911.06
1910.32
1909.47
1908.52
1907.5
1906.31
1904.95
1903.38
1901.58
1899.61
1897.58
1895.55
1893.66
1891.93
1890.53
1889.37
1888.43
1887.7
1887.17
1886.61
1885.99
1885.32
1884.49
1883.43
1882.16
1880.72
1879.08
1877.29
1875.49
1873.59
1872.03
1870.5
1869.36
1868.37
1867.65
1867
1866.34
1865.62
1864.83
1863.89
1862.78
1861.48
1859.99
1858.37
1856.66
1854.92
1853.39
1851.58
1850.29
1849.44
1848.53
1847.72
1846.95
1846.15
1845.28
1844.29
1843.14
1841.84
1840.4
1838.86
1837.19
1835.45
1833.81
1831.92
1830.49
1829.44
1828.29
1827.39
1826.51
1825.23
3.44105
1.66801
0.821029
0.698894
1.4338
4.72934
16.122
51.3328
123.02
230.291
353.796
480.094
610.488
741.766
874.069
1007.29
1143.04
1282.92
1428.59
1582.16
1743.15
1914.37
2094.49
2285.65
2486.99
2699.71
2923.19
3159.46
3403.64
3664.84
3935.72
4211.67
4493.4
4780.04
5065.41
5344.27
5628.67
5915.98
6205.34
6491.21
6772
7046.59
7319.25
7573.85
7807.92
8015.41
8223.95
8419.26
8599.52
8721.75
8834.12
8898.33
8957
8979.17
8984.61
8984.64
8955.7
8902.24
8824.42
8727.88
8614.28
8487.54
8351.61
8208
8059.66
7903.6
7742.72
7577.19
7409
7247.27
7083.81
6919
6756.25
6591.49
6430.21
6267.94
6109.76
5952.43
5799.06
5647.49
5501.34
5358.03
5220.44
5086.89
4959.19
4834.53
4714.84
4598.23
4486.72
4378.7
4275.74
4176.55
4081.67
3990.64
3903.72
3820.32
3740.52
3663.95
3590.27
3520.16
3452.77
3389.05
3327.84
3270.22
3214.92
3162.8
3112.84
3065.7
3020.49
2977.49
2936.38
2897.46
2860.6
2825.79
2792.48
2760.47
2728.17
2696.2
2662.8
2631.56
2608.1
2583.21
2557.27
2538.54
2519.63
2501.54
2484.58
2467.8
2451.22
2435.19
2419.81
2405.09
2390.84
2376.85
2363.04
2349.6
2336.5
2324.02
2312.06
2300.5
2289.29
2278.56
2268.33
2258.31
2248.61
2238.8
2228.88
2218.82
2208.54
2200.09
2191.53
2182.79
2175.24
2167.99
2161.31
2155.1
2149.23
2143.64
2138.4
2133.24
2128.36
2123.41
2118.47
2113.58
2108.62
2103.59
2098.58
2093.59
2088.69
2083.77
2078.99
2074.72
2070.8
2066.83
2063.59
2060.43
2057.73
2055.4
2053.21
2051.22
2049.16
2047.01
2044.67
2042.04
2039.18
2036.15
2032.97
2029.75
2026.45
2023.46
2020.47
2017.95
2015.71
2013.73
2011.97
2010.44
2009.18
2007.97
2006.7
2005.28
2003.6
2001.74
1999.66
1997.39
1995.01
1992.63
1990.31
1988.08
1986.15
1984.37
1982.87
1981.62
1980.58
1979.62
1978.64
1977.56
1976.38
1974.93
1973.14
1971.32
1969.45
1967.5
1965.56
1963.66
1961.92
1960.4
1959.04
1957.85
1956.8
1955.93
1955.12
1954.28
1953.36
1952.18
1950.73
1949.23
1947.57
1945.78
1943.91
1941.36
6.92902
3.85762
2.04341
2.60565
9.41011
27.8813
72.2519
162.032
310.026
509.302
739.665
978.28
1217.93
1455.21
1688.67
1918.22
2145.73
2373.56
2604.52
2843.47
3088.68
3345.04
3610.92
3888.92
4178.73
4481.8
4797.91
5128.6
5466.79
5816.91
6176.5
6545.26
6919.92
7299.79
7686.82
8073.62
8460.52
8847.81
9237.27
9622.41
9997.33
10354.5
10706.6
11036.2
11341
11599.1
11848.2
12073.2
12280.1
12411.2
12516.6
12563.1
12590
12571.3
12522.7
12448.2
12338.5
12202.2
12040.2
11857.7
11655.8
11439.2
11212.3
10977.2
10737.4
10490.6
10239.5
9985.59
9727.5
9475.67
9221.64
8968.64
8720.24
8473.21
8232.4
7995.63
7764.42
7538.57
7318.6
7104.39
6897.4
6696.8
6503.67
6316.77
6137.02
5962.82
5795.27
5633.16
5477.91
5328.17
5185.27
5047.85
4916.35
4790.24
4669.55
4553.63
4442.28
4335.28
4232.2
4133.73
4039.02
3949
3862.28
3780.29
3701.26
3626.43
3554.26
3485.93
3419.94
3357.07
3296.49
3238.99
3183.79
3131.63
3081.21
3033.11
2984.61
2937.67
2889.8
2842.48
2804.42
2765.29
2724.77
2691.25
2659.89
2629.63
2600.92
2572.79
2545.33
2518.79
2493.17
2468.51
2444.74
2421.42
2398.67
2376.41
2354.79
2333.81
2313.67
2293.99
2275
2256.52
2238.82
2221.44
2204.69
2187.95
2171.61
2155.48
2139.16
2124.72
2110.36
2095.79
2082.55
2069.71
2057.7
2046.19
2035.24
2024.68
2014.59
2004.78
1995.36
1986.03
1976.87
1967.9
1958.95
1950
1941.12
1932.39
1923.7
1915.21
1906.69
1898.96
1891.37
1884.12
1877.27
1870.87
1864.98
1859.53
1854.38
1849.59
1844.83
1840.14
1835.38
1830.51
1825.55
1820.48
1815.32
1810.14
1804.99
1800.02
1795.24
1790.75
1786.59
1782.73
1779.15
1775.86
1772.87
1770.11
1767.36
1764.59
1761.67
1758.62
1755.44
1752.14
1748.74
1745.36
1742.03
1738.8
1735.81
1733.01
1730.46
1728.2
1726.21
1724.33
1722.56
1720.77
1718.93
1717
1714.73
1712.41
1710.11
1707.71
1705.28
1702.91
1700.66
1698.6
1696.71
1695
1693.47
1692.15
1690.96
1689.81
1688.64
1687.38
1685.82
1684.2
1682.51
1680.66
1678.7
1675.99
10.3451
6.81129
5.2695
12.5296
35.7968
86.2462
189.771
370.17
629.683
941.552
1271.98
1592.35
1898.82
2192.67
2475.77
2751.74
3024.78
3297.81
3573.57
3858.22
4150.62
4455.12
4771.94
5103.61
5451.26
5815.32
6195.14
6591.7
7000.12
7421.5
7856.51
8306.32
8765.08
9230.25
9709.49
10190.3
10665.8
11135
11604.5
12069.5
12521.6
12940.7
13346.9
13722.2
14070.3
14354.7
14613.7
14835.8
15029.8
15141.1
15209.3
15209.6
15177.8
15094.8
14969.5
14807.9
14609.1
14383.9
14134.2
13865.4
13578.9
13279.8
12972.5
12658.7
12342.1
12022
11699.9
11380.1
11057.7
10745.3
10432.2
10124.5
9822.72
9527.32
9238.97
8959.88
8686.85
8423.23
8166.77
7919.31
7680.1
7450.01
7228.29
7013.75
6806.51
6606.79
6414.49
6229.73
6052.55
5882.49
5719.93
5564.04
5414.72
5271.72
5134.46
5002.62
4875.61
4753.35
4635.64
4522.84
4414.47
4311.12
4211.66
4117.32
4026.37
3939.83
3856.35
3777.01
3700.28
3627.01
3556.16
3488.76
3423.76
3362.31
3302.66
3245.73
3188.36
3133.2
3077.35
3020.53
2975.05
2928.7
2880.46
2839.24
2800.85
2763.52
2727.69
2692.67
2658.58
2625.64
2593.78
2563.13
2533.6
2504.63
2476.44
2448.84
2422.01
2395.91
2370.82
2346.24
2322.48
2299.26
2276.95
2255.03
2233.88
2212.81
2192.27
2172.16
2151.83
2133.48
2115.43
2097.12
2080.15
2063.65
2048.01
2032.9
2018.42
2004.4
1990.9
1977.74
1965.1
1952.61
1940.38
1928.44
1916.62
1904.89
1893.31
1881.95
1870.66
1859.69
1848.61
1838.47
1828.34
1818.72
1809.37
1800.6
1792.28
1784.44
1777.08
1770.02
1763.16
1756.43
1749.77
1743.03
1736.34
1729.6
1722.88
1716.1
1709.56
1703.05
1696.9
1690.84
1685.22
1679.9
1674.87
1670.14
1665.74
1661.56
1657.53
1653.52
1649.46
1645.32
1641.15
1636.92
1632.66
1628.42
1624.24
1620.18
1616.38
1612.72
1609.32
1606.17
1603.3
1600.56
1598
1595.45
1592.94
1590.39
1587.61
1584.77
1582.01
1579.17
1576.3
1573.49
1570.81
1568.28
1565.92
1563.72
1561.7
1559.89
1558.23
1556.67
1555.13
1553.56
1551.78
1549.96
1548.11
1546.13
1544.04
1541.12
13.6372
13.0727
16.1264
37.102
87.5977
189.108
375.598
659.891
1018.71
1392.7
1752.76
2097.85
2430.92
2753.22
3066.83
3374.59
3680.23
3986.48
4296.42
4616.62
4947.17
5291.96
5652.91
6032.97
6433.11
6853.35
7293.91
7756.05
8235.58
8729.82
9240.04
9770.73
10314.9
10862.7
11427
11997.5
12557.7
13099.8
13635.6
14163.6
14677.2
15141.3
15577
15968.4
16325.8
16604.5
16834.8
17012.5
17143.8
17191.1
17176.4
17097
16964
16779.2
16540.5
16263.1
15956.1
15625
15278.1
14915.4
14550.3
14178.4
13803.9
13426.4
13050.5
12677
12305.8
11941.9
11580.5
11232.2
10885.8
10550.3
10220.9
9903.64
9592.94
9296.54
9006.05
8728.41
8458.47
8200.12
7950.42
7711.78
7481.83
7259.84
7044.78
6838.87
6640.15
6450.7
6268.43
6094.43
5927.64
5768.2
5615.18
5468.86
5327.83
5192.46
5061.63
4935.58
4814.17
4697.47
4585.45
4478.24
4375.14
4277.08
4182.52
4092.17
4005.08
3921.98
3841.63
3764.72
3690.19
3619.05
3550.16
3485.07
3421.64
3360.96
3299.92
3241.31
3182.08
3120.62
3071.84
3022.69
2971.45
2926.52
2884.56
2843.68
2804.1
2765.51
2727.95
2691.57
2656.31
2622.41
2589.68
2557.62
2526.41
2495.85
2466.1
2437.15
2409.24
2381.92
2355.44
2329.51
2304.57
2280.06
2256.34
2232.78
2209.77
2187.34
2164.6
2143.88
2123.74
2103.34
2084.16
2065.53
2047.72
2030.49
2013.88
1997.75
1982.17
1966.94
1952.29
1937.79
1923.63
1909.78
1896.13
1882.62
1869.3
1856.25
1843.31
1830.73
1818.01
1806.33
1794.59
1783.44
1772.45
1762.13
1752.2
1742.77
1733.85
1725.26
1716.93
1708.75
1700.73
1692.63
1684.71
1676.74
1668.87
1660.92
1653.33
1645.7
1638.51
1631.38
1624.65
1618.28
1612.23
1606.45
1601
1595.76
1590.74
1585.74
1580.78
1575.74
1570.8
1565.8
1560.83
1555.88
1551.04
1546.33
1541.89
1537.56
1533.5
1529.67
1526.1
1522.68
1519.45
1516.27
1513.17
1510.11
1506.86
1503.55
1500.36
1497.12
1493.87
1490.69
1487.64
1484.74
1482
1479.4
1476.98
1474.75
1472.7
1470.74
1468.86
1466.99
1464.96
1462.9
1460.86
1458.72
1456.49
1453.36
16.862
28.0406
37.8829
79.0047
168.598
337.844
613.466
981.193
1371.73
1752.39
2122.26
2481.59
2831.69
3173.42
3508.81
3840.51
4171.69
4504.96
4843.91
5194.66
5558.95
5940.56
6342.49
6767.57
7217.6
7692.75
8192.98
8721.18
9272.96
9840.72
10425.6
11035.5
11663.8
12291
12930.5
13580.9
14218.2
14820.6
15402.4
15966.1
16511
16986.7
17415
17781.5
18094.9
18310.9
18446.3
18510.9
18499.4
18416.9
18251.6
18039.6
17767.6
17454.5
17076.7
16667.3
16249.7
15810.5
15369.9
14920.2
14477.1
14030.1
13589.4
13158.1
12731.7
12321.8
11921.6
11535.6
11163.6
10806.4
10461
10134.2
9811.79
9510.7
9211.9
8934.04
8659.57
8402.02
8149.78
7912.57
7681.25
7463.07
7251.69
7046.91
6846.77
6656.75
6471.57
6296.82
6126.99
5966.17
5810.97
5663.11
5520.62
5384.87
5253.1
5126.76
5004.02
4885.68
4771.23
4660.83
4554.78
4452.77
4354.64
4260.95
4170.55
4083.78
4000.19
3920.04
3842.53
3767.97
3695.57
3626.08
3558.5
3494.7
3432.17
3372.14
3311.92
3254.1
3195.66
3134.23
3085.36
3036.86
2986.76
2940.99
2898.3
2856.97
2816.67
2777.47
2739.18
2701.99
2665.83
2631.03
2597.33
2564.4
2532.29
2500.86
2470.19
2440.31
2411.4
2383.15
2355.67
2328.76
2302.8
2277.25
2252.49
2227.96
2203.92
2180.53
2156.76
2134.95
2113.92
2092.65
2072.43
2052.82
2033.97
2015.74
1998.08
1980.91
1964.28
1947.99
1932.29
1916.73
1901.57
1886.67
1872.06
1857.57
1843.32
1829.34
1815.52
1802.06
1788.43
1775.87
1763.21
1751.22
1739.28
1728.06
1717.13
1706.81
1696.86
1687.37
1678.08
1668.98
1660.09
1651.11
1642.4
1633.62
1624.99
1616.28
1607.98
1599.62
1591.74
1583.87
1576.44
1569.38
1562.63
1556.12
1549.94
1543.98
1538.23
1532.56
1526.94
1521.24
1515.73
1510.17
1504.66
1499.21
1493.91
1488.71
1483.78
1478.96
1474.41
1470.09
1466.01
1462.1
1458.35
1454.7
1451.13
1447.67
1444.04
1440.36
1436.83
1433.27
1429.72
1426.25
1422.93
1419.74
1416.7
1413.81
1411.08
1408.53
1406.17
1403.9
1401.72
1399.62
1397.36
1395.08
1392.88
1390.59
1388.22
1384.91
21.5693
51.5443
70.7756
139.816
279.855
521.714
869.374
1260.78
1648.74
2029.43
2402.16
2768.03
3127.76
3482.29
3833.53
4183.57
4534.93
4890.78
5254.61
5631.83
6026.29
6441.43
6880.63
7347.5
7845.5
8374.18
8932.34
9525.27
10148.3
10789.2
11446.2
12129.4
12837
13536.2
14236.2
14945.4
15640.8
16281
16877.4
17435.2
17958.5
18380.7
18729.6
18989.8
19162
19232.8
19201.1
19090.4
18885.2
18614.7
18239.5
17802.8
17291.8
16758.9
16180
15579.9
15014.6
14443.3
13884
13353
12836.7
12356.3
11876.5
11438.4
10997.2
10600.4
10218.7
9862.53
9533.6
9217.27
8926.48
8655.44
8390.57
8154.81
7916.04
7703.82
7489.09
7295.84
7101.25
6926.29
6749.95
6590.02
6429.92
6279.49
6127.46
5986.48
5844.22
5712.66
5580.86
5457.79
5336.37
5221.5
5107.88
4999.12
4891.06
4787.61
4685.74
4587.35
4491.08
4397.74
4307.67
4220.45
4136.57
4056.01
3978.12
3902.82
3830.23
3759.99
3692.06
3626.11
3562.02
3499.87
3439.23
3381.76
3324.98
3270.34
3215.83
3163.43
3110.29
3054.03
3008.03
2963.44
2918.18
2874.8
2834.18
2795.53
2757.39
2720.54
2684.17
2648.78
2614.17
2580.81
2548.35
2516.82
2485.9
2455.71
2426.09
2397.19
2369.06
2341.67
2314.89
2288.66
2263.23
2238.21
2213.92
2189.87
2166.26
2143.25
2119.83
2098.14
2077.37
2056.41
2036.3
2016.78
1997.92
1979.72
1961.96
1944.78
1927.98
1911.59
1895.67
1879.95
1864.64
1849.49
1834.73
1820.03
1805.6
1791.41
1777.41
1763.74
1749.86
1737.04
1724.13
1711.89
1699.6
1688.07
1676.73
1666.06
1655.65
1645.77
1636
1626.51
1617.19
1607.78
1598.72
1589.54
1580.56
1571.51
1562.85
1554.12
1545.87
1537.67
1529.9
1522.45
1515.29
1508.37
1501.76
1495.39
1489.19
1483.14
1477.13
1471.08
1465.16
1459.3
1453.47
1447.72
1442.13
1436.64
1431.41
1426.29
1421.41
1416.79
1412.38
1408.15
1404.07
1400.12
1396.23
1392.51
1388.63
1384.7
1380.93
1377.16
1373.43
1369.78
1366.27
1362.9
1359.67
1356.58
1353.64
1350.88
1348.3
1345.83
1343.43
1341.16
1338.76
1336.3
1333.98
1331.6
1329.13
1325.71
27.4784
82.5464
116.276
220.09
415.308
719.337
1096.6
1480.72
1861.95
2237.37
2607.72
2974.28
3337.89
3699.94
4061.8
4425.03
4791.87
5165.78
5550.21
5949.66
6370.09
6814.64
7287.59
7793.13
8336.48
8916.83
9530.18
10184
10875.8
11587
12311.5
13057.3
13831.3
14587.9
15326
16058.7
16769.3
17396.4
17946.9
18423.2
18835.8
19117.7
19298.3
19354
19289.3
19115
18764.8
18303.3
17731.8
17130.1
16434.1
15718
14958.8
14203.1
13474.7
12759.1
12060.6
11445.3
10821.4
10292.9
9757.21
9309.2
8853.64
8475.27
8093.81
7777.83
7473.31
7204.6
6960.71
6729.42
6529.77
6341.3
6166.59
6016.16
5862.57
5736.74
5607.77
5502.11
5393.31
5302.51
5208.42
5128.17
5044.6
4970.23
4892.29
4821.68
4748.07
4680.91
4611.69
4547.28
4481.8
4418.31
4353.23
4289.07
4223.5
4159.55
4094.92
4031.36
3967.83
3904.78
3843.58
3782.18
3722.41
3663.67
3606.21
3549.72
3494.99
3441.03
3388.82
3337.25
3286.95
3237.43
3189.41
3142.92
3096.88
3052.38
3008.57
2966.03
2922.44
2876.49
2835.91
2798.7
2761.21
2723.72
2688.04
2655.04
2621.82
2590.13
2558.21
2527.28
2496.63
2467.1
2438.18
2410.34
2382.7
2355.87
2329.2
2303.24
2277.72
2253
2228.58
2204.71
2181.34
2158.43
2136.08
2113.98
2092.21
2070.9
2049.25
2028.85
2009.49
1990.04
1971.16
1952.79
1934.91
1917.77
1900.85
1884.62
1868.53
1852.98
1837.65
1822.68
1808
1793.4
1779.28
1765.1
1751.22
1737.56
1724.05
1710.82
1697.39
1684.9
1672.39
1660.44
1648.44
1637.11
1625.95
1615.4
1605.07
1595.26
1585.51
1576.11
1566.8
1557.49
1548.44
1539.31
1530.39
1521.4
1512.73
1504.05
1495.79
1487.62
1479.8
1472.27
1465.03
1458
1451.26
1444.77
1438.43
1432.27
1426.12
1420.04
1413.96
1408.03
1402.11
1396.28
1390.6
1385.02
1379.69
1374.47
1369.46
1364.71
1360.15
1355.79
1351.56
1347.47
1343.43
1339.6
1335.63
1331.6
1327.7
1323.87
1320.07
1316.35
1312.77
1309.33
1306.01
1302.85
1299.81
1296.94
1294.24
1291.67
1289.15
1286.82
1284.33
1281.8
1279.43
1277.01
1274.51
1271.07
34.3967
119.074
173.851
316.346
562.174
904.243
1276.47
1649.89
2020.37
2386.69
2750.46
3113.05
3475.9
3840.61
4207.98
4579.36
4957.05
5344.24
5744.48
6161.65
6603.24
7073.51
7577.07
8117.81
8703.51
9333.41
9998.3
10708.3
11463.3
12238.6
13021.5
13812.6
14626
15406.8
16139
16837.3
17490.2
18011.6
18428.2
18728.4
18933.8
18939.8
18773
18448.3
17955.9
17373.2
16616.8
15767.5
14842.3
13931
13004.5
12127.1
11269.1
10491.2
9773.71
9125.36
8463.21
7929.51
7382.14
6947.65
6502.19
6152.37
5795.56
5518.36
5237
5016.9
4802.28
4626.57
4464.4
4319.36
4198.72
4084.06
3987.48
3903.11
3822.24
3760.37
3697.34
3653.55
3607.67
3575.93
3542.87
3519.25
3494.06
3475.6
3455.39
3439.7
3422.29
3407.7
3391.86
3376.8
3360.92
3345.37
3329.09
3312.68
3295.09
3276.74
3257.19
3236.55
3214.64
3191.45
3167.49
3142.13
3115.37
3087.29
3058.24
3028.49
2998.4
2968
2937.73
2907.21
2876.75
2845.68
2815.07
2784.22
2753.66
2723.49
2694.38
2664.99
2634.32
2602.14
2571.06
2543.63
2515.82
2487.65
2460.05
2434.8
2409.35
2385.01
2360.32
2336.17
2311.92
2288.45
2265.33
2243.1
2220.88
2199.25
2177.54
2156.33
2135.25
2114.82
2094.45
2074.53
2054.77
2035.48
2016.45
1997.77
1979.16
1960.87
1942.37
1924.52
1907.61
1890.85
1874.27
1858.13
1842.28
1827.13
1812.05
1797.62
1783.2
1769.3
1755.47
1742.05
1728.78
1715.59
1702.75
1689.94
1677.29
1664.89
1652.54
1640.43
1628.17
1616.58
1605.06
1593.97
1582.85
1572.27
1561.8
1551.86
1542.11
1532.84
1523.63
1514.77
1505.93
1497.21
1488.55
1479.97
1471.5
1462.97
1454.67
1446.41
1438.51
1430.68
1423.14
1415.87
1408.87
1402.05
1395.48
1389.16
1382.97
1376.99
1370.99
1365.1
1359.19
1353.41
1347.66
1341.97
1336.43
1330.98
1325.75
1320.64
1315.69
1310.99
1306.48
1302.17
1297.96
1293.92
1289.9
1286.13
1282.21
1278.24
1274.39
1270.62
1266.89
1263.23
1259.71
1256.31
1253.03
1249.89
1246.87
1244.01
1241.3
1238.74
1236.22
1233.91
1231.44
1228.92
1226.59
1224.21
1221.77
1218.41
45.8907
159.413
240.22
421.427
707.479
1054.57
1414.93
1774.82
2131.53
2485.77
2839.52
3194.3
3552.15
3914.89
4283.07
4657.82
5041.43
5437.04
5848.01
6278.61
6737.32
7230.17
7761.65
8334.49
8959.5
9636.15
10350.3
11110.1
11917.4
12743.4
13564.2
14365.8
15176.9
15925.1
16567
17146.7
17652.6
17975.1
18105.7
18049.8
17839.3
17471.4
16851.7
16084.5
15157.9
14179.3
13135.5
12055.9
11059.3
10071.9
9204.93
8395.58
7641.04
6987.07
6361.15
5853.65
5329.36
4920.47
4504.78
4188.78
3869.39
3628.91
3385.15
3203.48
3019.33
2882.3
2746.94
2644.57
2547.5
2468.85
2402.13
2343.09
2298.3
2256.34
2226.01
2200.81
2180.13
2169.56
2159.27
2157.35
2158.14
2161.85
2167.56
2176.24
2186.44
2198.72
2211.27
2224.9
2237.6
2250.59
2262.62
2275.52
2288.39
2302.08
2314.33
2326.75
2337.92
2348.2
2357.45
2364.18
2370.2
2373.61
2375.8
2375.73
2374.87
2372.91
2369.82
2365.59
2360.39
2354.17
2347.07
2338.61
2329.08
2318.18
2306.4
2294.13
2282.03
2269.38
2255.71
2239.65
2222.24
2206.35
2190.28
2173.8
2157.13
2141.46
2125.95
2110.73
2095.24
2079.56
2063.65
2048.03
2032.47
2017.37
2002.27
1987.38
1972.33
1957.4
1942.37
1927.64
1912.79
1898.15
1883.46
1869.03
1854.69
1840.62
1826.44
1812.43
1798.22
1784.2
1770.79
1757.66
1744.46
1731.56
1718.76
1706.47
1694.2
1682.39
1670.54
1659.06
1647.61
1636.47
1625.38
1614.41
1603.55
1592.86
1582.15
1571.67
1561.18
1550.84
1540.38
1530.34
1520.37
1510.72
1501
1491.7
1482.44
1473.62
1464.94
1456.69
1448.48
1440.62
1432.72
1425
1417.21
1409.58
1401.97
1394.3
1386.8
1379.32
1372.12
1364.99
1358.08
1351.38
1344.93
1338.64
1332.54
1326.69
1320.95
1315.41
1309.85
1304.41
1298.94
1293.57
1288.24
1282.95
1277.78
1272.68
1267.77
1262.97
1258.3
1253.85
1249.57
1245.49
1241.5
1237.67
1233.87
1230.32
1226.62
1222.88
1219.23
1215.68
1212.16
1208.71
1205.36
1202.15
1199.02
1196.04
1193.16
1190.42
1187.82
1185.37
1182.97
1180.78
1178.43
1176.04
1173.83
1171.59
1169.29
1166.13
60.1421
201.633
310.854
527.647
830.464
1171.77
1517.17
1860.85
2201.66
2541.34
2882.19
3225.58
3574.91
3931.72
4296.39
4669.86
5054.51
5453.8
5871.31
6311.95
6784.66
7297.8
7855.81
8459.05
9120.51
9841.77
10602.6
11399.9
12237.1
13091.1
13915.2
14661.2
15400.8
16046.5
16520
16839.3
17029.5
16992.2
16744.9
16288.5
15619.8
14827.9
13822.3
12716.6
11586.1
10450.9
9444.7
8415.55
7545.22
6659.47
5948.27
5288.74
4700.63
4212.03
3740.94
3385.59
3027.42
2750.87
2482.47
2277.7
2082.05
1934.44
1791.79
1685.14
1581.21
1505.28
1428.81
1374.49
1319.19
1280.37
1241.5
1214.18
1191.93
1170.77
1160.07
1147.89
1144.93
1143.44
1145.19
1149.97
1157.08
1167.17
1179.51
1194.59
1211.43
1230.45
1250.56
1272.2
1294.46
1317.87
1341.59
1366.51
1391.7
1418.11
1444.15
1471.04
1497.27
1523.83
1549.78
1573.97
1597.55
1618.62
1639.46
1658.64
1677.28
1694.01
1710.15
1724.23
1738.05
1749.53
1760.86
1769.64
1777.22
1783.11
1787.88
1792.53
1797.4
1801.64
1806.08
1806.97
1805.77
1803.73
1800.95
1797.23
1792.81
1788.14
1783.3
1778.38
1773.03
1767.3
1761.02
1754.48
1747.79
1741.12
1734.3
1727.3
1719.97
1712.33
1704.4
1696.29
1687.96
1679.51
1670.93
1662.26
1653.63
1645.03
1636.32
1627.52
1618.47
1609.3
1600.38
1591.6
1582.71
1573.85
1564.93
1556.28
1547.57
1539.12
1530.58
1522.25
1513.86
1505.71
1497.5
1489.38
1481.27
1473.26
1465.2
1457.22
1449.23
1441.25
1433.17
1425.27
1417.42
1409.72
1401.95
1394.44
1386.87
1379.66
1372.51
1365.74
1358.98
1352.53
1346.04
1339.67
1333.24
1326.95
1320.6
1314.2
1307.88
1301.55
1295.42
1289.32
1283.37
1277.58
1271.99
1266.54
1261.22
1256.11
1251.11
1246.3
1241.45
1236.73
1231.97
1227.28
1222.61
1217.96
1213.4
1208.9
1204.52
1200.25
1196.07
1192.07
1188.21
1184.55
1180.97
1177.53
1174.14
1170.97
1167.67
1164.34
1161.05
1157.87
1154.71
1151.61
1148.59
1145.68
1142.85
1140.15
1137.53
1135.04
1132.67
1130.45
1128.28
1126.31
1124.2
1122.06
1120.06
1118.07
1115.99
1113.18
75.2882
244.386
381.825
621.845
929.394
1258.85
1587.71
1913.09
2235.97
2558.52
2884.23
3216.12
3555.37
3903.33
4260.59
4628.23
5009.11
5407.61
5828.11
6275.93
6760.28
7292.43
7877.47
8511.92
9208.08
9966.37
10764.5
11585.1
12420.1
13248.8
14025.9
14663.8
15227.8
15650.2
15815
15764.4
15564.5
15197.9
14543.8
13691.7
12646.5
11538.9
10411.6
9249.78
8200.06
7124.76
6265.98
5398.35
4721.71
4043.22
3527.17
3049.16
2655.32
2327.25
2031.71
1805.21
1596.96
1434.31
1283.58
1169.32
1062.32
983.229
908.398
853.385
800.33
761.914
723.26
695.621
667.455
647.661
626.854
613.971
600.535
590.901
584.109
576.654
574.88
572.535
573.287
575.178
578.002
582.686
588.958
597.122
606.622
617.821
630.185
644.068
658.997
675.418
692.857
711.906
732.008
753.724
776.409
800.483
825.408
851.52
878.249
905.52
933.099
960.403
988.022
1014.65
1041.56
1067.2
1093.03
1117.26
1141.69
1164.11
1186.5
1206.67
1225.75
1243.59
1261.29
1278.97
1296.84
1314.31
1331.05
1346.45
1358.16
1367.77
1376.51
1384.21
1390.37
1396.2
1401.15
1406.27
1410.36
1414.49
1417.57
1420.36
1422.69
1425.08
1426.95
1428.79
1429.85
1430.01
1429.72
1429.07
1427.92
1426.37
1424.47
1422.3
1419.95
1417.45
1414.73
1411.77
1408.41
1404.74
1400.91
1396.99
1392.87
1388.57
1384.1
1379.57
1374.95
1370.35
1365.63
1360.94
1356.15
1351.45
1346.66
1341.87
1337.04
1332.19
1327.28
1322.31
1317.28
1312.17
1306.93
1301.66
1296.38
1291.09
1285.73
1280.41
1275
1269.81
1264.6
1259.71
1254.8
1250.13
1245.44
1240.8
1236.12
1231.5
1226.81
1222.06
1217.27
1212.44
1207.72
1202.99
1198.31
1193.75
1189.31
1184.98
1180.74
1176.67
1172.68
1168.85
1165
1161.24
1157.45
1153.7
1149.94
1146.18
1142.47
1138.78
1135.17
1131.64
1128.15
1124.81
1121.57
1118.52
1115.53
1112.67
1109.86
1107.24
1104.52
1101.77
1099.02
1096.36
1093.72
1091.11
1088.56
1086.11
1083.7
1081.42
1079.18
1077.06
1075.05
1073.17
1071.36
1069.72
1067.97
1066.19
1064.52
1062.86
1061.12
1058.78
90.4756
282.619
444.987
699.064
1003.91
1318.81
1630.08
1935.6
2238.96
2546.91
2858.55
3175.23
3500.17
3835.2
4181.1
4539.05
4912.68
5307.87
5729.97
6184.8
6681.36
7233.85
7849.07
8515.55
9240.11
10030.1
10850.5
11663.5
12454.5
13197.9
13853.2
14281.9
14571.3
14678.6
14499.8
14104.8
13515.3
12799.8
11823.4
10709.7
9543
8343.45
7300.38
6241.93
5375.19
4501.01
3833.6
3198.03
2723.22
2280.02
1949.73
1647.49
1418.8
1223.41
1062.28
936.816
827.986
745.668
672.1
617.088
567.069
530.35
495.983
470.71
446.183
427.984
409.658
395.846
381.858
371.292
360.308
352.546
344.141
338.739
332.959
328.366
325.117
321.353
319.615
318.36
316.981
317.067
317.615
318.97
320.979
323.855
327.37
331.717
336.706
342.567
349.147
356.716
365.112
374.63
385.08
396.727
409.338
423.171
437.997
453.977
470.893
488.789
507.634
527.171
547.525
568.573
590.338
612.671
635.522
658.651
682.07
705.409
728.483
751.489
775.069
799.102
823.443
847.962
871.607
894.813
914.589
932.21
948.695
964.767
979.371
993.831
1007.1
1020.58
1032.95
1045.45
1056.78
1067.93
1078.17
1088.5
1097.96
1107.37
1115.85
1123.77
1130.73
1137.37
1143.19
1148.56
1153.39
1157.94
1162
1166.06
1169.55
1172.92
1175.44
1177.42
1178.85
1180.14
1180.92
1181.51
1181.56
1181.47
1181.18
1180.76
1180.12
1179.38
1178.49
1177.55
1176.46
1175.28
1174.01
1172.65
1171.15
1169.51
1167.73
1165.8
1163.66
1161.37
1158.94
1156.41
1153.73
1150.93
1148.02
1145.12
1142.19
1139.45
1136.69
1134.08
1131.48
1128.87
1126.23
1123.57
1120.84
1118
1115.07
1112.05
1109.01
1105.93
1102.82
1099.75
1096.73
1093.77
1090.87
1088.08
1085.35
1082.75
1080.14
1077.58
1075
1072.41
1069.8
1067.16
1064.5
1061.85
1059.21
1056.63
1054.03
1051.54
1049.11
1046.85
1044.65
1042.54
1040.48
1038.58
1036.61
1034.6
1032.56
1030.59
1028.61
1026.65
1024.71
1022.85
1021.01
1019.28
1017.55
1015.93
1014.41
1012.99
1011.64
1010.44
1009.17
1007.87
1006.63
1005.42
1004.1
1002.39
104.081
313.521
496.791
757.738
1055.3
1354.32
1646.69
1933.57
2222.05
2512.08
2805.62
3104.73
3413.02
3732.7
4064.84
4410.87
4775.46
5166.52
5590.8
6055.2
6568.23
7143.86
7789.17
8492.42
9243.35
10049.1
10869
11637.9
12322
12903.7
13366.4
13510
13458.4
13276.5
12787.8
12065.9
11145.9
10108.6
8983.69
7805.86
6721.69
5616.2
4735.15
3891.19
3237.99
2625.32
2168.69
1767.3
1473.36
1221.57
1036.48
873.356
759.326
657.091
583.084
521.083
472.036
435.421
404.086
380.337
358.6
341.909
325.765
313.29
300.95
291.27
281.407
273.363
265.139
258.394
251.425
245.797
239.923
235.443
230.498
227.106
223.668
220.093
217.305
214.773
212.347
210.52
208.636
207.518
206.367
205.917
205.461
205.546
205.797
206.372
207.236
208.497
210.115
212.198
214.706
217.755
221.265
225.343
229.934
235.149
240.922
247.36
254.457
262.177
270.609
279.766
289.723
300.505
312.119
324.555
337.802
351.861
366.735
382.569
399.657
417.941
437.217
457.308
477.999
499.201
519.424
538.69
557.428
576.384
594.659
613.125
630.903
648.916
666.336
684.045
700.978
718.037
734.118
750.343
765.658
780.859
795.226
809.432
822.572
835.472
847.498
859.079
869.983
880.65
890.615
900.52
909.675
918.524
926.523
933.946
940.529
946.902
952.583
958.079
962.794
967.383
971.358
975.371
978.852
982.381
985.473
988.566
991.236
993.88
996.23
998.524
1000.52
1002.4
1004.01
1005.44
1006.56
1007.43
1008.02
1008.48
1008.61
1008.52
1008.25
1007.89
1007.42
1007
1006.56
1006.2
1005.84
1005.46
1005.03
1004.54
1003.96
1003.24
1002.36
1001.33
1000.2
998.956
997.631
996.248
994.847
993.443
992.065
990.742
989.463
988.287
987.094
985.935
984.736
983.509
982.227
980.883
979.485
978.041
976.574
975.095
973.584
972.115
970.669
969.359
968.102
966.898
965.751
964.721
963.659
962.533
961.364
960.214
959.05
957.875
956.692
955.558
954.415
953.35
952.274
951.275
950.345
949.511
948.74
948.098
947.407
946.684
945.994
945.329
944.547
943.61
116.465
337.204
536.231
798.702
1085.27
1367.66
1643.17
1915.96
2185.7
2455.69
2729.6
3009.79
3300
3602.96
3920.32
4253.91
4609.66
4998
5428.02
5908.17
6442.1
7045.36
7729.17
8472.63
9240.53
10041.9
10828.2
11501.9
12019.4
12378
12575.2
12425.3
12068.5
11571.9
10797.4
9820.62
8667.9
7437.94
6331.85
5244.44
4340.26
3460.78
2804.12
2224.63
1798.89
1436.74
1173.2
958.522
800.273
675.992
581.657
504.158
450.344
400.69
369.03
338.988
319.36
302.83
288.58
277.561
266.118
256.646
246.861
239.206
231.278
224.839
218.252
212.698
206.93
201.975
196.862
192.543
188.074
184.373
180.459
177.501
174.477
171.627
169.158
166.683
164.344
162.369
160.336
158.646
156.916
155.584
154.222
153.166
152.072
151.253
150.411
149.851
149.328
149.027
148.885
148.976
149.195
149.594
150.162
150.938
151.904
153.106
154.54
156.199
158.126
160.328
162.857
165.739
168.999
172.655
176.745
181.309
186.41
192.17
198.727
206.105
214.3
223.281
233.016
243.412
254.241
265.384
276.984
289.128
301.794
315.017
328.716
342.971
357.714
373.097
388.928
405.235
421.828
438.761
455.85
473.2
490.288
507.538
524.133
540.713
556.716
572.474
587.696
602.771
617.248
631.604
645.287
658.582
671.182
683.353
694.587
705.59
715.745
725.791
734.873
743.867
751.951
760.093
767.464
774.896
781.687
788.545
794.886
801.265
807.23
813.188
818.752
824.195
829.284
834.178
838.691
842.874
846.681
850.224
853.324
856.093
858.457
860.729
862.757
864.807
866.785
868.784
870.805
872.76
874.668
876.451
878.168
879.678
880.98
882.011
882.934
883.625
884.203
884.607
884.962
885.243
885.518
885.794
886.1
886.451
886.803
887.177
887.471
887.737
887.912
887.98
887.949
887.85
887.679
887.449
887.15
886.832
886.502
886.269
886.076
885.914
885.795
885.762
885.721
885.601
885.42
885.221
884.989
884.719
884.42
884.119
883.798
883.506
883.194
882.923
882.698
882.552
882.464
882.478
882.464
882.423
882.383
882.374
882.194
882.197
126.579
352.303
563.048
822.774
1095.69
1363.85
1626.55
1882.24
2132.67
2382.09
2635.43
2895.97
3167.48
3453.45
3756.57
4079.26
4428.78
4818.9
5259.74
5761.52
6329.44
6973.51
7702.15
8489.95
9258.85
10026.4
10734.6
11253.9
11543
11620.4
11541.4
11146.1
10464.7
9624.65
8578.16
7404.37
6204.46
4993.97
4044.14
3185.78
2539.12
1970.14
1560.33
1225.99
989.057
801.695
667.575
561.849
481.658
420.854
371.653
334.744
306.059
282.97
267.398
253.082
244.1
234.429
226.581
218.788
210.91
204.247
197.429
191.726
185.996
181.305
176.479
172.352
168.091
164.472
160.733
157.544
154.273
151.512
148.659
146.316
143.866
141.897
140.012
138.039
136.155
134.586
132.972
131.474
129.946
128.693
127.425
126.328
125.208
124.229
123.228
122.37
121.493
120.761
120.019
119.443
118.875
118.422
117.983