/*--------------------------------*- C++ -*----------------------------------*\
| =========                 |                                                 |
| \\      /  F ield         | OpenFOAM: The Open Source CFD Toolbox           |
|  \\    /   O peration     | Version:  2312                                  |
|   \\  /    A nd           | Website:  www.openfoam.com                      |
|    \\/     M anipulation  |                                                 |
\*---------------------------------------------------------------------------*/
FoamFile
{
    version     2.0;
    format      ascii;
    arch        "LSB;label=32;scalar=64";
    class       volScalarField;
    location    "0.004";
    object      nut;
}
// * * * * * * * * * * * * * * * * * * * * * * * * * * * * * * * * * * * * * //

dimensions      [0 2 -1 0 0 0 0];

internalField   nonuniform List<scalar> 
48128
(
2.5332e-07
6.69676e-07
9.47465e-07
8.87478e-07
8.59123e-07
7.24652e-07
6.14852e-07
6.50417e-06
2.96944e-05
7.26764e-05
0.000119203
0.000162722
0.000202443
0.000238369
0.000271167
0.000301701
0.000330635
0.00035843
0.000385518
0.00041227
0.000438879
0.000465429
0.000491996
0.00051872
0.000545752
0.000573303
0.000601538
0.000630748
0.000661109
0.000692988
0.000725677
0.000759107
0.00079355
0.000829006
0.000865365
0.000902815
0.000942738
0.000983432
0.00102528
0.00106718
0.00110941
0.00115176
0.00119544
0.00123754
0.00127807
0.00131505
0.00135249
0.00138676
0.00141732
0.00143997
0.00146101
0.00147485
0.00148935
0.00149796
0.00151286
0.00154263
0.00156623
0.00158738
0.00160329
0.0016162
0.00162586
0.00163284
0.00163821
0.00164185
0.00164429
0.00164477
0.00164388
0.00164147
0.00156286
0.00147602
0.00139795
0.00132809
0.00126442
0.00120675
0.00115351
0.00110489
0.00105982
0.00101845
0.000980047
0.000944749
0.000912212
0.000881999
0.000854442
0.000828436
0.000804486
0.000781824
0.000761052
0.000741404
0.000723463
0.000706428
0.00069079
0.000675877
0.000662149
0.00064911
0.00063706
0.000625707
0.000615045
0.00060497
0.000595485
0.000586727
0.00057843
0.000570819
0.000563708
0.0005571
0.000550819
0.000545017
0.000539542
0.000534447
0.000529573
0.000525014
0.000520654
0.000516688
0.000513054
0.000509591
0.000506263
0.000502882
0.000499349
0.000495871
0.000491743
0.000488703
0.000488198
0.000486176
0.000483903
0.000483197
0.000481773
0.000480096
0.0004783
0.000476442
0.000474642
0.000473001
0.000471526
0.000470182
0.000468864
0.00046754
0.000466263
0.000465033
0.000463913
0.000462911
0.000461946
0.000460978
0.000460058
0.000459213
0.000458391
0.00045757
0.000456735
0.00045588
0.000455042
0.000454086
0.000453316
0.000453002
0.000452399
0.000451675
0.000451183
0.000450584
0.000450044
0.000449465
0.000448881
0.00044828
0.000447686
0.000447087
0.000446479
0.000445854
0.000445242
0.000444653
0.000444052
0.000443461
0.000442921
0.000442403
0.000441945
0.000441467
0.000441097
0.000440849
0.000440551
0.00044028
0.000440007
0.000439796
0.000439555
0.00043932
0.000439042
0.00043872
0.00043833
0.00043792
0.000437495
0.000437055
0.000436661
0.0004363
0.000435969
0.000435683
0.000435461
0.000435277
0.000435125
0.000434974
0.000434864
0.000434732
0.000434574
0.000434401
0.000434207
0.000433969
0.000433682
0.000433366
0.000433036
0.000432723
0.000432445
0.000432191
0.000431983
0.000431827
0.00043169
0.000431573
0.000431466
0.000431357
0.000431246
0.000431125
0.00043098
0.000430797
0.000430588
0.000430334
0.000430111
0.000429864
0.000429524
0.000429357
0.000429208
0.000429043
0.000428914
0.000428804
0.000428707
0.000428611
0.000428503
0.00042838
0.000428247
0.000428103
0.00042794
0.00042774
0.00042754
0.000427313
0.000427021
0.000426861
0.000426698
0.00042653
0.000426393
0.000426242
4.5642e-06
3.76342e-06
2.14718e-06
1.77082e-06
3.38153e-06
7.81081e-06
2.01961e-05
5.59958e-05
0.000127038
0.000242207
0.000397891
0.000572071
0.000766062
0.000970748
0.00118042
0.00139112
0.00160301
0.00181794
0.00203884
0.00226961
0.00250977
0.00276535
0.00303463
0.00332135
0.00362425
0.0039446
0.00427986
0.0046335
0.00499537
0.00539712
0.00581814
0.00623939
0.00666566
0.00709841
0.00752166
0.00786954
0.00822717
0.00858228
0.00893483
0.00927282
0.00959818
0.00991034
0.010219
0.010494
0.0107377
0.0109418
0.0111509
0.0113429
0.0115235
0.0116364
0.011751
0.0118106
0.0118734
0.0118914
0.0118809
0.0118518
0.0117842
0.0117017
0.0116
0.0114821
0.0113507
0.0112108
0.0110661
0.0109167
0.0107659
0.0106079
0.0104472
0.0102826
0.0101221
0.00997636
0.00983011
0.00968245
0.00953695
0.00938652
0.00923992
0.00908763
0.00894016
0.00878813
0.00864041
0.00848886
0.00834391
0.0081965
0.00805641
0.00791788
0.00778722
0.00765388
0.00752687
0.0073978
0.00727539
0.00715275
0.00703707
0.00692211
0.0068127
0.00670515
0.0066018
0.00650099
0.00640386
0.00630977
0.00621733
0.00612865
0.00604173
0.00595845
0.00587686
0.00579963
0.00572393
0.00565235
0.00558219
0.00551593
0.00545107
0.00538918
0.00532926
0.00527158
0.00521625
0.00516311
0.0051122
0.0050637
0.00501408
0.00496523
0.00491393
0.00487027
0.004826
0.00478082
0.00473777
0.00470226
0.00466779
0.0046352
0.00460496
0.00457503
0.00454557
0.00451712
0.00448959
0.00446287
0.0044371
0.00441159
0.0043865
0.00436193
0.00433782
0.00431452
0.00429205
0.00427009
0.00424865
0.00422789
0.00420793
0.00418823
0.00416922
0.00414816
0.00412219
0.00409729
0.00407272
0.00404264
0.0040163
0.00399029
0.0039622
0.00393673
0.0039117
0.00388768
0.00386486
0.00384266
0.00382165
0.00380163
0.00378206
0.00376431
0.0037468
0.00372992
0.00371347
0.00369757
0.00368193
0.00366654
0.00365153
0.00363688
0.00362181
0.00360689
0.00359252
0.0035788
0.00356453
0.00355175
0.00353855
0.00352674
0.00351516
0.0035039
0.00349418
0.00348468
0.00347592
0.00346819
0.00346047
0.00345267
0.00344491
0.00343695
0.0034293
0.00342046
0.00341231
0.0034035
0.00339591
0.00338804
0.00338049
0.00337316
0.00336621
0.00335978
0.00335434
0.00334883
0.00334447
0.00333942
0.00333545
0.00333109
0.00332663
0.00332152
0.00331658
0.00331141
0.00330632
0.00330113
0.00329604
0.00329115
0.00328654
0.00328249
0.00327871
0.00327543
0.00327242
0.0032693
0.00326746
0.0032644
0.00326122
0.00325833
0.00325508
0.00325164
0.00324812
0.0032446
0.00324111
0.00323781
0.00323465
0.00323182
0.00322911
0.00322686
0.00322496
0.00322288
0.00322183
0.00322006
0.00321817
0.00321651
0.00321428
0.00321082
9.18203e-06
1.17975e-05
1.05694e-05
1.32101e-05
3.00625e-05
6.05697e-05
0.000133521
0.000286847
0.000568295
0.00102015
0.00161588
0.00229314
0.0030062
0.00371704
0.00440159
0.00504995
0.00566885
0.00627182
0.006853
0.00744479
0.00803392
0.00864393
0.00926351
0.00990216
0.0105546
0.0112225
0.0119024
0.0126049
0.0133049
0.014022
0.0147359
0.0154355
0.0161122
0.0167565
0.0173666
0.0179098
0.0184401
0.018947
0.0194327
0.0198798
0.0202907
0.0206576
0.0210054
0.0212899
0.0215208
0.0216731
0.0218233
0.0219352
0.022027
0.0220158
0.021999
0.0219064
0.0218127
0.0216622
0.0214948
0.0213015
0.0210692
0.0208231
0.0205549
0.0202702
0.0199729
0.0196702
0.0193667
0.0190631
0.0187621
0.018458
0.0181545
0.0178518
0.0175478
0.0172598
0.0169709
0.016686
0.0164095
0.0161331
0.0158657
0.0155989
0.0153393
0.0150792
0.0148266
0.0145725
0.014329
0.0140847
0.0138519
0.0136214
0.0134026
0.0131822
0.0129718
0.0127602
0.0125585
0.0123574
0.0121665
0.0119774
0.0117963
0.0116186
0.0114469
0.0112792
0.0111161
0.0109576
0.0108018
0.0106514
0.0105038
0.0103616
0.0102218
0.0100883
0.00995688
0.00983153
0.00970794
0.00959023
0.00947412
0.00936262
0.00925345
0.00914844
0.00904609
0.00894808
0.00885178
0.00876072
0.00866567
0.00857423
0.00847866
0.00839274
0.00830861
0.00822207
0.00813793
0.00806471
0.00799535
0.0079276
0.00786397
0.00779984
0.00773736
0.00767624
0.00761726
0.00755941
0.00750395
0.00744839
0.00739442
0.00734083
0.0072888
0.00723765
0.00718855
0.00713964
0.00709249
0.00704578
0.00700118
0.00695639
0.00691358
0.00686987
0.00682772
0.0067855
0.00674455
0.00670571
0.00666698
0.00662862
0.00659303
0.00655853
0.006526
0.00649418
0.00646394
0.0064342
0.0064057
0.00637772
0.00635054
0.00632367
0.00629711
0.00627102
0.00624494
0.00621873
0.00619281
0.00616719
0.00614178
0.0061168
0.00609211
0.00606852
0.00604546
0.006023
0.00600197
0.00598157
0.00596256
0.00594464
0.00592748
0.00591115
0.00589522
0.00587932
0.00586348
0.00584768
0.00583151
0.00581534
0.00579904
0.00578275
0.00576668
0.00575073
0.00573525
0.00572067
0.00570705
0.00569415
0.00568193
0.00567051
0.00565991
0.00564988
0.00564008
0.0056301
0.00562022
0.00560988
0.00559973
0.00558929
0.00557879
0.00556813
0.00555771
0.00554742
0.0055379
0.00552886
0.00552057
0.00551292
0.00550599
0.0054993
0.00549313
0.00548679
0.00548087
0.00547407
0.00546747
0.00546096
0.00545399
0.00544698
0.00544005
0.00543297
0.0054263
0.00542014
0.00541446
0.00540922
0.0054045
0.00540024
0.00539637
0.00539272
0.00538935
0.00538504
0.00538097
0.00537718
0.00537259
0.00536788
0.00536306
0.00535611
1.36983e-05
2.42462e-05
3.29043e-05
6.05788e-05
0.000112917
0.000223476
0.000469908
0.000947386
0.00174787
0.00282539
0.00410176
0.00541147
0.00665839
0.00781086
0.00886754
0.00985369
0.0107528
0.0116227
0.0124566
0.0132949
0.0141222
0.0149652
0.0158121
0.0166726
0.0175416
0.0184191
0.0192996
0.0201838
0.0210489
0.0219019
0.0227283
0.0235172
0.0242544
0.0249442
0.0255879
0.0261588
0.0266868
0.0271649
0.027595
0.0279657
0.0282825
0.0285287
0.0287395
0.0288688
0.0289348
0.0289118
0.0288718
0.028783
0.0286593
0.0284453
0.0282139
0.0279143
0.0276129
0.0272667
0.0269166
0.0265408
0.0261487
0.0257491
0.025332
0.0249107
0.0244881
0.0240706
0.0236606
0.023258
0.0228639
0.0224761
0.0220945
0.0217244
0.0213556
0.0210093
0.0206659
0.020334
0.020011
0.0196963
0.0193902
0.0190927
0.018802
0.0185165
0.018239
0.0179653
0.0177022
0.0174424
0.0171938
0.016948
0.0167123
0.0164782
0.016253
0.01603
0.0158157
0.0156041
0.0154014
0.0152021
0.01501
0.0148221
0.0146395
0.0144611
0.0142865
0.0141159
0.0139483
0.0137856
0.0136261
0.0134717
0.0133202
0.0131747
0.0130313
0.0128935
0.0127576
0.0126273
0.0124985
0.0123741
0.0122516
0.0121335
0.0120177
0.0119069
0.011797
0.0116923
0.0115823
0.0114762
0.0113654
0.0112593
0.0111639
0.0110652
0.0109657
0.0108799
0.0107987
0.0107176
0.0106403
0.0105618
0.0104852
0.0104097
0.0103366
0.0102647
0.0101955
0.0101256
0.0100578
0.00998976
0.00992375
0.00985831
0.00979557
0.00973238
0.00967153
0.00961056
0.00955239
0.00949336
0.00943699
0.00937872
0.00932263
0.00926619
0.00921081
0.00915832
0.00910613
0.0090538
0.00900514
0.00895737
0.00891231
0.00886785
0.00882548
0.00878351
0.00874311
0.00870322
0.0086645
0.00862586
0.00858774
0.00855004
0.00851256
0.00847466
0.00843739
0.0084003
0.00836351
0.00832744
0.00829154
0.00825752
0.00822368
0.00819111
0.0081599
0.00812993
0.00810163
0.0080744
0.00804873
0.00802346
0.00799912
0.00797457
0.0079503
0.00792582
0.00790112
0.00787622
0.0078515
0.00782658
0.00780275
0.00777872
0.0077558
0.00773351
0.00771279
0.00769287
0.00767398
0.00765602
0.00763926
0.00762299
0.00760718
0.00759133
0.00757525
0.00755893
0.00754256
0.00752607
0.0075096
0.0074932
0.00747713
0.00746142
0.0074469
0.00743285
0.0074201
0.00740778
0.00739668
0.00738572
0.00737566
0.00736534
0.00735572
0.00734469
0.00733378
0.00732314
0.00731242
0.00730163
0.00729094
0.00728027
0.00727026
0.00726083
0.0072522
0.00724397
0.00723666
0.00722975
0.00722362
0.00721752
0.00721215
0.00720526
0.00719867
0.00719258
0.00718567
0.00717868
0.00717159
0.00716157
1.80417e-05
5.90276e-05
9.5819e-05
0.000156552
0.000291725
0.000588584
0.00117806
0.00222231
0.00368581
0.00540348
0.00717411
0.00885886
0.0104156
0.0118449
0.013146
0.0143286
0.0154283
0.0164788
0.0174864
0.0184861
0.0194689
0.0204559
0.0214395
0.0224267
0.0234118
0.0243906
0.0253561
0.0263031
0.0272108
0.0280759
0.0288815
0.0296304
0.0303133
0.0309321
0.0314917
0.03197
0.0323863
0.0327302
0.0330014
0.033201
0.0333343
0.0333804
0.033354
0.0332311
0.0330345
0.0327616
0.0324604
0.0321094
0.0317126
0.0312606
0.0306596
0.0299325
0.0291904
0.028525
0.0279687
0.0272961
0.026756
0.0261989
0.0256521
0.0251878
0.0247296
0.0243711
0.0239698
0.023649
0.0232726
0.0229857
0.0226914
0.0224247
0.0222073
0.0219686
0.0216357
0.0213097
0.0209888
0.0206852
0.0203869
0.0201055
0.0198289
0.0195658
0.0193094
0.0190641
0.018827
0.0185987
0.0183795
0.0181646
0.0179554
0.017751
0.0175522
0.0173587
0.017171
0.0169882
0.016812
0.0166406
0.0164743
0.0163128
0.0161547
0.0160004
0.0158483
0.0156993
0.0155527
0.0154095
0.0152694
0.0151331
0.0149996
0.014871
0.0147445
0.014622
0.0145017
0.0143854
0.0142708
0.0141594
0.0140495
0.013943
0.0138381
0.0137379
0.0136382
0.0135419
0.0134411
0.0133431
0.0132404
0.0131359
0.0130506
0.0129613
0.0128685
0.0127884
0.012713
0.012637
0.0125636
0.0124891
0.0124162
0.0123438
0.0122737
0.0122044
0.0121377
0.0120699
0.0120039
0.0119373
0.0118725
0.0118078
0.0117457
0.0116828
0.0116221
0.0115608
0.0115024
0.0114426
0.0113854
0.0113259
0.0112684
0.0112104
0.0111524
0.0110984
0.0110447
0.0109902
0.0109393
0.0108891
0.0108416
0.0107946
0.0107496
0.0107048
0.0106616
0.0106186
0.010577
0.0105349
0.0104935
0.0104522
0.0104113
0.0103695
0.0103285
0.0102873
0.0102465
0.0102063
0.0101661
0.0101282
0.0100902
0.0100537
0.0100183
0.00998456
0.00995245
0.00992151
0.00989233
0.00986352
0.00983552
0.00980734
0.00977924
0.00975075
0.00972207
0.00969291
0.00966396
0.00963464
0.00960664
0.00957841
0.00955166
0.00952532
0.00950077
0.00947727
0.00945498
0.00943365
0.00941365
0.00939415
0.00937502
0.00935596
0.00933641
0.00931654
0.00929677
0.00927663
0.00925667
0.00923662
0.00921728
0.00919824
0.00918073
0.00916361
0.00914819
0.00913307
0.00911958
0.00910604
0.00909373
0.00908089
0.00906908
0.00905556
0.00904203
0.00902869
0.00901553
0.00900224
0.00898911
0.0089761
0.00896401
0.00895253
0.00894209
0.00893205
0.00892321
0.0089147
0.00890738
0.00889976
0.00889325
0.00888498
0.0088769
0.00886937
0.00886106
0.00885263
0.00884412
0.00883227
2.23069e-05
0.000155331
0.000202108
0.000327569
0.000620145
0.00123386
0.00234876
0.00401942
0.00599882
0.00810127
0.0101566
0.0120724
0.0138403
0.0154467
0.0168869
0.0182118
0.0194471
0.0206162
0.0217351
0.0228307
0.0239011
0.024961
0.0260067
0.0270414
0.0280592
0.0290527
0.0300118
0.0309293
0.0317877
0.0325706
0.0332763
0.0339103
0.0344633
0.0349396
0.0353224
0.03561
0.0358219
0.0359457
0.0359709
0.0359149
0.0357796
0.0355546
0.0349744
0.0339173
0.0327563
0.0317818
0.0307906
0.0298078
0.028782
0.027984
0.0271788
0.0263771
0.0256956
0.0249406
0.0245355
0.0238361
0.0232078
0.0227442
0.0221367
0.0217544
0.0212547
0.0209458
0.0205311
0.0202469
0.0198788
0.0196303
0.0193656
0.0191504
0.018973
0.0187801
0.0186526
0.0185196
0.0183964
0.0183243
0.0182176
0.0181627
0.0180983
0.0180701
0.0180325
0.0180368
0.0180102
0.01803
0.0179943
0.0178385
0.0176825
0.017533
0.0173849
0.0172445
0.0171064
0.016975
0.0168467
0.0167234
0.0166037
0.0164886
0.0163744
0.016263
0.0161518
0.0160425
0.0159342
0.0158278
0.0157237
0.0156219
0.0155225
0.0154266
0.0153324
0.0152405
0.0151508
0.0150633
0.0149772
0.0148926
0.0148089
0.0147268
0.014646
0.0145688
0.0144917
0.0144163
0.0143379
0.0142613
0.0141801
0.0140929
0.0140278
0.0139595
0.0138872
0.0138226
0.013763
0.0137032
0.0136447
0.0135854
0.0135273
0.013469
0.0134125
0.0133568
0.0133029
0.0132482
0.0131948
0.0131404
0.0130875
0.0130341
0.0129829
0.0129307
0.0128803
0.0128289
0.0127799
0.0127293
0.0126809
0.0126301
0.0125809
0.012531
0.0124802
0.0124338
0.0123878
0.0123407
0.0122964
0.0122527
0.0122112
0.0121702
0.0121307
0.0120914
0.0120533
0.0120152
0.0119784
0.0119407
0.0119037
0.0118664
0.0118295
0.0117914
0.0117541
0.0117162
0.0116787
0.0116415
0.011604
0.0115689
0.0115334
0.0114996
0.0114664
0.0114349
0.0114048
0.011376
0.0113487
0.011322
0.0112957
0.0112694
0.0112428
0.0112157
0.0111883
0.0111603
0.0111322
0.0111038
0.0110765
0.0110489
0.0110229
0.0109971
0.0109732
0.0109504
0.0109288
0.0109081
0.0108887
0.0108698
0.0108511
0.0108325
0.0108132
0.0107935
0.010774
0.0107537
0.0107338
0.0107137
0.0106944
0.0106752
0.0106578
0.0106406
0.0106253
0.0106102
0.010597
0.0105835
0.0105715
0.0105587
0.010547
0.0105336
0.0105201
0.0105065
0.0104933
0.0104798
0.0104666
0.0104534
0.0104414
0.0104299
0.0104196
0.0104097
0.0104011
0.0103928
0.010386
0.0103786
0.0103726
0.0103647
0.0103569
0.0103496
0.0103415
0.0103333
0.0103249
0.0103135
2.85272e-05
0.000269896
0.000353353
0.000604397
0.00115666
0.00220442
0.00389479
0.00599792
0.00829751
0.0106348
0.0128585
0.0149238
0.0168317
0.018524
0.0200653
0.0214849
0.0228039
0.024044
0.0252232
0.0263615
0.0274637
0.0285391
0.0295856
0.0306035
0.0315881
0.0325289
0.0334122
0.0342312
0.0349702
0.0356165
0.0361647
0.0366151
0.0369636
0.0372292
0.0373731
0.0374086
0.037359
0.0368781
0.0358714
0.0347147
0.0334748
0.0323708
0.0312169
0.0300108
0.0287612
0.0278204
0.026828
0.0258613
0.0248976
0.0240078
0.023388
0.02257
0.0219836
0.0211678
0.0207777
0.020099
0.019357
0.0189394
0.0183222
0.0179454
0.0174391
0.0171428
0.0167376
0.0164673
0.0161201
0.0158855
0.0156398
0.0154565
0.0152878
0.0151311
0.0150331
0.0149347
0.0148697
0.0148323
0.0148004
0.014785
0.0147834
0.0148027
0.0148294
0.0148793
0.0149253
0.0149931
0.0150469
0.0151175
0.0151715
0.0152446
0.0153147
0.0153849
0.0154641
0.0155251
0.0156
0.0156772
0.0156894
0.0156369
0.0155808
0.015526
0.0154688
0.0154123
0.0153546
0.0152972
0.015241
0.0151857
0.0151319
0.01508
0.0150285
0.0149776
0.0149276
0.0148777
0.0148285
0.014779
0.01473
0.0146804
0.0146319
0.0145851
0.0145381
0.0144916
0.014444
0.014397
0.0143456
0.0142865
0.014246
0.0142043
0.0141602
0.014117
0.0140786
0.0140411
0.0140038
0.0139663
0.0139288
0.013891
0.0138543
0.0138179
0.013783
0.0137476
0.013713
0.0136773
0.0136424
0.0136068
0.0135725
0.0135373
0.0135032
0.0134679
0.0134345
0.0133994
0.013366
0.0133304
0.0132959
0.0132605
0.0132236
0.0131907
0.0131585
0.0131249
0.0130933
0.013062
0.0130324
0.0130031
0.0129749
0.0129468
0.0129194
0.0128919
0.0128653
0.0128378
0.012811
0.0127832
0.0127561
0.0127274
0.0126995
0.0126707
0.0126422
0.0126136
0.0125844
0.0125575
0.0125301
0.0125041
0.0124782
0.012454
0.0124307
0.012409
0.0123881
0.0123682
0.012348
0.0123282
0.0123076
0.0122867
0.0122652
0.0122432
0.0122207
0.0121979
0.0121758
0.0121534
0.0121324
0.0121116
0.0120926
0.0120744
0.0120574
0.0120411
0.012026
0.0120113
0.0119969
0.0119823
0.0119672
0.0119512
0.0119356
0.011919
0.0119028
0.0118861
0.0118704
0.0118545
0.0118405
0.0118263
0.0118143
0.0118022
0.0117921
0.0117817
0.0117727
0.0117628
0.0117539
0.0117436
0.0117328
0.0117218
0.0117113
0.0117003
0.0116897
0.0116789
0.0116695
0.0116604
0.0116527
0.0116451
0.011639
0.011633
0.0116288
0.0116238
0.01162
0.0116148
0.0116092
0.0116041
0.0115983
0.0115924
0.0115861
0.011578
3.63541e-05
0.000408418
0.000582759
0.00101975
0.00191295
0.00345419
0.00556243
0.00792532
0.0104321
0.0129011
0.0152246
0.0173992
0.0193565
0.0211106
0.0227163
0.0241911
0.0255541
0.026826
0.0280234
0.0291613
0.0302487
0.0312919
0.0322891
0.0332385
0.0341361
0.0349705
0.0357255
0.036391
0.03696
0.0374169
0.0377636
0.0379835
0.0380787
0.0380956
0.0370924
0.0357214
0.0343048
0.0331405
0.0319823
0.0306879
0.0293264
0.0282699
0.0271513
0.0260541
0.0249423
0.024038
0.0232748
0.0223002
0.0214299
0.0203923
0.0198876
0.0190609
0.0184444
0.0176391
0.0170658
0.0164751
0.0157086
0.0152742
0.0146859
0.0143009
0.0138366
0.0135258
0.0131701
0.0129161
0.0126442
0.0124342
0.0122409
0.0120907
0.0119517
0.0118395
0.0117503
0.011681
0.0116262
0.0115863
0.0115812
0.0115456
0.0115746
0.0115751
0.0116421
0.0116664
0.0117626
0.0117985
0.0119094
0.0119499
0.0120936
0.0121663
0.0123205
0.0124059
0.0125628
0.0126561
0.0128109
0.0129249
0.013079
0.0131892
0.0133341
0.013423
0.0135537
0.0136579
0.0137856
0.0138804
0.0139949
0.0140265
0.0140273
0.0140264
0.0140234
0.0140194
0.0140146
0.0140084
0.0140019
0.0139937
0.0139849
0.0139743
0.0139647
0.0139538
0.013943
0.0139312
0.0139209
0.0139085
0.0138921
0.0138689
0.0138545
0.0138436
0.01383
0.0138127
0.013799
0.0137875
0.0137751
0.0137629
0.0137496
0.013736
0.0137223
0.0137088
0.0136963
0.0136837
0.0136712
0.0136579
0.0136444
0.0136299
0.013616
0.0136014
0.013587
0.0135714
0.0135568
0.0135407
0.0135259
0.013509
0.013493
0.0134756
0.0134569
0.0134404
0.0134258
0.0134093
0.013394
0.0133785
0.0133642
0.0133502
0.0133367
0.0133233
0.0133101
0.0132968
0.0132838
0.0132702
0.0132569
0.0132424
0.0132287
0.0132132
0.0131984
0.0131825
0.013167
0.0131507
0.0131338
0.0131187
0.0131033
0.0130886
0.0130739
0.0130604
0.0130476
0.013036
0.0130249
0.0130149
0.0130044
0.0129943
0.0129834
0.012972
0.0129601
0.0129474
0.0129344
0.0129206
0.0129074
0.0128937
0.0128813
0.0128689
0.0128579
0.0128476
0.0128384
0.0128296
0.0128219
0.0128145
0.0128073
0.0127998
0.012792
0.0127831
0.0127743
0.0127646
0.0127552
0.012745
0.012736
0.0127264
0.0127188
0.0127106
0.0127045
0.0126983
0.012694
0.0126892
0.0126859
0.0126815
0.012678
0.0126733
0.012668
0.0126622
0.0126571
0.0126511
0.0126457
0.0126399
0.0126355
0.0126312
0.0126283
0.0126253
0.012624
0.0126225
0.0126228
0.0126223
0.012623
0.0126224
0.0126212
0.0126203
0.012619
0.0126173
0.0126152
0.0126134
4.54898e-05
0.000549318
0.000891701
0.00158477
0.00286046
0.00483206
0.00716682
0.00971013
0.0123337
0.0148721
0.0172586
0.0194826
0.021458
0.0232508
0.0248896
0.0263882
0.0277639
0.0290342
0.0302138
0.0313143
0.0323465
0.0333161
0.034221
0.0350569
0.0358208
0.0365034
0.0370855
0.0375556
0.0379132
0.0381369
0.0382505
0.0373689
0.0357137
0.0344119
0.0331624
0.0316623
0.0301947
0.0290999
0.0280127
0.0268341
0.0255721
0.0246533
0.0237151
0.0226987
0.0216828
0.0205852
0.0200426
0.0189891
0.0181452
0.0170269
0.0164475
0.0156321
0.014939
0.0142696
0.0135429
0.0131173
0.012502
0.0120425
0.0115519
0.0111847
0.0108523
0.0105479
0.0102932
0.0100641
0.00988456
0.00969166
0.00956601
0.00943179
0.00934837
0.00925799
0.00919002
0.00916164
0.00909774
0.00908455
0.00908097
0.00904194
0.00909143
0.009063
0.00915289
0.00915277
0.00925688
0.0092808
0.00938418
0.00940385
0.00953771
0.00960347
0.00973454
0.00981219
0.00994006
0.0100282
0.0101575
0.0102616
0.010398
0.010524
0.0106678
0.0107822
0.0109315
0.0110722
0.0112275
0.0113659
0.0115207
0.0116658
0.0117847
0.0119166
0.0120377
0.0121531
0.0122596
0.0123693
0.0124739
0.0125805
0.0126928
0.012733
0.0127676
0.0127983
0.0128284
0.0128563
0.0128865
0.0129116
0.0129329
0.0129495
0.012966
0.0129867
0.0130052
0.0130194
0.0130339
0.0130507
0.0130668
0.0130821
0.0130968
0.0131098
0.0131219
0.0131337
0.0131462
0.0131585
0.0131705
0.0131815
0.0131917
0.0132007
0.0132094
0.0132172
0.0132246
0.0132306
0.0132369
0.0132418
0.0132475
0.0132516
0.013256
0.0132587
0.0132607
0.0132626
0.0132671
0.0132698
0.0132727
0.0132751
0.0132781
0.0132812
0.0132843
0.0132875
0.0132905
0.0132932
0.0132959
0.0132981
0.0133005
0.0133014
0.0133032
0.0133032
0.0133038
0.0133031
0.0133028
0.0133011
0.0132991
0.013298
0.0132969
0.0132959
0.0132945
0.013294
0.0132937
0.0132943
0.0132953
0.0132971
0.0132986
0.0133004
0.0133015
0.0133021
0.0133019
0.0133012
0.0133
0.0132977
0.0132958
0.0132934
0.0132919
0.0132903
0.0132897
0.0132895
0.0132904
0.0132913
0.0132933
0.0132953
0.0132976
0.0132996
0.0133012
0.0133018
0.0133023
0.0133019
0.0133018
0.0133006
0.0133006
0.0132997
0.0133007
0.0133008
0.013303
0.0133047
0.0133085
0.0133114
0.0133158
0.0133192
0.0133233
0.0133264
0.0133289
0.0133304
0.0133328
0.0133341
0.0133362
0.0133375
0.0133403
0.0133428
0.0133469
0.0133506
0.0133559
0.0133607
0.0133675
0.0133734
0.0133804
0.0133863
0.0133915
0.0133967
0.0134018
0.0134062
0.0134102
0.0134174
6.05564e-05
0.000722227
0.00127846
0.00227051
0.00393162
0.00615674
0.00864786
0.0113007
0.0139795
0.0165472
0.0189715
0.0211951
0.023178
0.0249868
0.026635
0.0281327
0.0294937
0.0307324
0.031861
0.0328894
0.0338284
0.0346847
0.035456
0.036136
0.036723
0.0372081
0.0375824
0.037823
0.0377093
0.0360753
0.0347684
0.0333713
0.0316031
0.0303417
0.0291617
0.0277563
0.026447
0.025658
0.0245996
0.0235198
0.022354
0.0214016
0.0207515
0.0196816
0.0187129
0.0174061
0.0168407
0.015729
0.0149756
0.0139526
0.0133021
0.0125694
0.0119279
0.0114015
0.0106761
0.0103279
0.00989853
0.00940741
0.00906966
0.00869878
0.00848921
0.00819541
0.00803908
0.00780546
0.00771325
0.00752189
0.0074755
0.0073334
0.00732919
0.00722588
0.00721658
0.00720765
0.00716412
0.00720389
0.00716686
0.0072126
0.00723711
0.00724966
0.00732841
0.00733786
0.00742413
0.00745899
0.00752359
0.00756219
0.00765179
0.00772348
0.00780474
0.00788014
0.00795514
0.00803162
0.00810941
0.008191
0.0082792
0.00838507
0.00847953
0.0085847
0.00869685
0.00882265
0.00895062
0.00907496
0.00921348
0.00933933
0.00947165
0.00960508
0.0097362
0.00986706
0.010001
0.0101295
0.0102678
0.0103943
0.0105405
0.0106677
0.0107732
0.0108655
0.0109367
0.0110367
0.0111531
0.0113222
0.0115121
0.0115919
0.0116496
0.011706
0.0117597
0.0118099
0.0118581
0.0119059
0.0119537
0.011999
0.0120438
0.0120853
0.0121262
0.0121656
0.0122052
0.0122441
0.012283
0.0123202
0.0123568
0.0123912
0.0124248
0.0124568
0.012488
0.0125173
0.0125464
0.0125739
0.0126019
0.0126283
0.012655
0.0126794
0.0127036
0.012726
0.0127504
0.0127735
0.0127961
0.0128177
0.0128393
0.0128606
0.0128816
0.0129024
0.0129227
0.0129425
0.0129622
0.0129813
0.0130005
0.0130182
0.0130366
0.0130534
0.0130706
0.0130864
0.0131026
0.0131171
0.0131315
0.0131457
0.01316
0.0131739
0.0131873
0.013201
0.0132145
0.0132286
0.0132428
0.0132578
0.0132725
0.0132875
0.0133019
0.0133158
0.013329
0.0133417
0.0133537
0.0133646
0.0133756
0.0133858
0.0133969
0.0134075
0.0134188
0.0134302
0.0134426
0.0134548
0.0134678
0.0134807
0.013494
0.013507
0.0135196
0.0135313
0.0135428
0.0135534
0.0135642
0.0135738
0.0135844
0.0135939
0.0136051
0.0136153
0.0136272
0.0136385
0.0136518
0.0136641
0.0136779
0.0136904
0.0137039
0.0137165
0.0137285
0.0137391
0.0137506
0.0137611
0.0137722
0.0137824
0.0137941
0.0138051
0.0138177
0.0138296
0.0138432
0.013856
0.0138708
0.0138845
0.0138995
0.0139134
0.0139265
0.0139395
0.0139526
0.0139648
0.0139764
0.0139951
7.90705e-05
0.000955812
0.00172721
0.00303884
0.00497193
0.00736618
0.00996679
0.0126743
0.0153671
0.0179357
0.020371
0.0225702
0.0245508
0.0263582
0.0279967
0.0294712
0.0307915
0.0319687
0.0330126
0.0339323
0.0347383
0.0354388
0.036033
0.0365153
0.0368805
0.0371269
0.0370508
0.0356038
0.0337485
0.0318933
0.0305939
0.0294042
0.0277331
0.026763
0.0257321
0.024418
0.0231754
0.0225455
0.0216754
0.0207392
0.0197128
0.0185036
0.017988
0.0167537
0.0158443
0.0145511
0.0138974
0.012891
0.0122889
0.0114411
0.0107132
0.0100133
0.00941374
0.00891856
0.00836017
0.00792533
0.00767426
0.00721799
0.00703532
0.00665841
0.0065309
0.00623534
0.00617207
0.00592254
0.00592035
0.00573423
0.00566819
0.00555707
0.00544044
0.00536094
0.00527857
0.00522373
0.00517846
0.0051368
0.0051191
0.00509793
0.00509915
0.00510532
0.00512242
0.00514304
0.00517276
0.00521152
0.00525744
0.00531186
0.0053732
0.00544185
0.005519
0.00560147
0.00569289
0.00578858
0.00589315
0.00600453
0.00612166
0.0062479
0.00637804
0.00651651
0.00665766
0.00680547
0.00695673
0.00710665
0.00726048
0.00740948
0.00756268
0.00771317
0.00783932
0.00794347
0.00805753
0.00816398
0.00828517
0.00839524
0.00852332
0.00863694
0.00873576
0.00882656
0.00890161
0.00902534
0.00917096
0.00934334
0.00952635
0.00976275
0.0099304
0.00997463
0.0100311
0.0101199
0.0101894
0.010266
0.010341
0.0104368
0.0105301
0.0106278
0.0107202
0.0107964
0.0108845
0.0109746
0.0110513
0.0111178
0.0111836
0.0112458
0.0113072
0.0113651
0.0114227
0.0114774
0.0115318
0.0115839
0.0116365
0.011687
0.0117382
0.0117862
0.0118342
0.0118794
0.0119256
0.0119698
0.0120139
0.0120558
0.0120975
0.0121379
0.0121782
0.0122173
0.0122562
0.012294
0.0123317
0.0123686
0.0124055
0.0124411
0.0124771
0.0125117
0.0125465
0.0125797
0.0126134
0.012645
0.0126766
0.0127071
0.0127378
0.0127672
0.0127964
0.012825
0.0128531
0.0128814
0.0129097
0.0129385
0.0129672
0.0129961
0.0130247
0.0130527
0.0130801
0.0131071
0.0131333
0.0131583
0.0131832
0.013207
0.0132315
0.0132551
0.0132792
0.0133032
0.0133279
0.0133522
0.0133771
0.0134018
0.013427
0.0134518
0.0134764
0.0135001
0.0135238
0.0135463
0.0135691
0.0135906
0.0136129
0.013634
0.0136564
0.0136778
0.0137004
0.0137224
0.013746
0.0137689
0.013793
0.0138159
0.0138399
0.0138629
0.0138856
0.0139067
0.0139286
0.0139493
0.0139708
0.0139911
0.0140127
0.0140335
0.0140558
0.0140772
0.0141002
0.0141221
0.014146
0.0141688
0.0141929
0.014216
0.0142384
0.0142603
0.0142827
0.0143039
0.0143245
0.0143564
9.85551e-05
0.00122506
0.00222028
0.0037943
0.00593519
0.00843579
0.0110996
0.0138267
0.0165022
0.0190464
0.0214699
0.0236548
0.0256328
0.0274273
0.0290373
0.0304634
0.0317108
0.0327881
0.0337041
0.0344679
0.0350909
0.0355846
0.0359549
0.0361946
0.0363032
0.0345368
0.0329303
0.0313181
0.0295347
0.0279084
0.0269084
0.0259865
0.0244348
0.0236854
0.0227985
0.0217035
0.0205821
0.0198703
0.0193764
0.018339
0.017361
0.015931
0.0153183
0.01411
0.0133997
0.0123152
0.0115
0.0105441
0.00996099
0.0092539
0.00850968
0.00786813
0.00734236
0.00684184
0.00650809
0.00597531
0.00588765
0.00551727
0.00531752
0.00504618
0.00478761
0.00459444
0.00440978
0.0042759
0.00414513
0.0040555
0.00396161
0.00389916
0.00383301
0.00378962
0.00374184
0.00371528
0.0036856
0.00366624
0.00365243
0.00363626
0.00363485
0.00363199
0.00363573
0.00364257
0.00365184
0.00366619
0.00368494
0.00370905
0.00373733
0.00377095
0.00380895
0.00385246
0.00390076
0.00395467
0.00401487
0.00408124
0.00415418
0.0042327
0.00431976
0.00441175
0.00451329
0.0046203
0.00473484
0.00485611
0.00498229
0.00511419
0.00525034
0.00539094
0.00553701
0.00568112
0.00583149
0.00597877
0.00613258
0.00628119
0.00643517
0.0065831
0.00673041
0.00687541
0.00702285
0.00717327
0.00732769
0.00748336
0.00763921
0.00779332
0.00793251
0.00806341
0.00819039
0.0083075
0.00839061
0.00847928
0.00856474
0.00866562
0.00876316
0.00886829
0.00897664
0.00907541
0.00918028
0.00928884
0.00939853
0.00951644
0.00962854
0.00973167
0.00983741
0.00993877
0.0100369
0.0101231
0.0102138
0.0102996
0.0103792
0.0104567
0.010534
0.0106085
0.010682
0.0107526
0.0108224
0.0108895
0.0109562
0.0110202
0.0110839
0.0111446
0.0112058
0.0112644
0.0113235
0.0113804
0.0114377
0.0114935
0.0115495
0.0116041
0.011659
0.0117123