/*--------------------------------*- C++ -*----------------------------------*\
| =========                 |                                                 |
| \\      /  F ield         | OpenFOAM: The Open Source CFD Toolbox           |
|  \\    /   O peration     | Version:  2312                                  |
|   \\  /    A nd           | Website:  www.openfoam.com                      |
|    \\/     M anipulation  |                                                 |
\*---------------------------------------------------------------------------*/
FoamFile
{
    version     2.0;
    format      ascii;
    arch        "LSB;label=32;scalar=64";
    class       volScalarField;
    location    "0.004";
    object      omega;
}
// * * * * * * * * * * * * * * * * * * * * * * * * * * * * * * * * * * * * * //

dimensions      [0 0 -1 0 0 0 0];

internalField   nonuniform List<scalar> 
48128
(
2.10168e+06
2.10203e+06
2.10412e+06
2.10479e+06
2.10553e+06
2.10668e+06
2.10818e+06
2.11376e+06
2.13019e+06
2.15855e+06
2.1956e+06
2.2333e+06
2.26824e+06
2.29889e+06
2.32531e+06
2.34747e+06
2.36643e+06
2.38261e+06
2.39566e+06
2.40587e+06
2.41391e+06
2.41955e+06
2.42269e+06
2.42322e+06
2.42103e+06
2.41607e+06
2.40854e+06
2.39836e+06
2.38569e+06
2.37096e+06
2.35422e+06
2.33579e+06
2.31591e+06
2.2949e+06
2.2731e+06
2.25104e+06
2.23046e+06
2.21024e+06
2.19109e+06
2.17284e+06
2.1557e+06
2.14013e+06
2.12637e+06
2.11379e+06
2.1016e+06
2.08936e+06
2.07884e+06
2.06847e+06
2.05692e+06
2.04197e+06
2.0273e+06
2.00934e+06
1.99341e+06
1.97505e+06
1.96309e+06
1.96551e+06
1.96461e+06
1.96341e+06
1.95935e+06
1.95418e+06
1.94757e+06
1.93984e+06
1.93178e+06
1.92321e+06
1.91444e+06
1.90481e+06
1.89473e+06
1.88396e+06
1.87189e+06
1.85961e+06
1.84721e+06
1.83486e+06
1.82283e+06
1.81066e+06
1.79873e+06
1.7866e+06
1.77473e+06
1.76274e+06
1.75094e+06
1.73901e+06
1.72746e+06
1.71579e+06
1.70476e+06
1.69378e+06
1.68377e+06
1.67373e+06
1.66432e+06
1.65486e+06
1.64594e+06
1.637e+06
1.62869e+06
1.62044e+06
1.61274e+06
1.60523e+06
1.59816e+06
1.59135e+06
1.58494e+06
1.57891e+06
1.57317e+06
1.56782e+06
1.5627e+06
1.55792e+06
1.55329e+06
1.5489e+06
1.5447e+06
1.54073e+06
1.53694e+06
1.53333e+06
1.52991e+06
1.52664e+06
1.52361e+06
1.52077e+06
1.51804e+06
1.51537e+06
1.51286e+06
1.51044e+06
1.50812e+06
1.50609e+06
1.50377e+06
1.50403e+06
1.50287e+06
1.5012e+06
1.50027e+06
1.49866e+06
1.49686e+06
1.49497e+06
1.49308e+06
1.49127e+06
1.48963e+06
1.48824e+06
1.48698e+06
1.48581e+06
1.4847e+06
1.48365e+06
1.48267e+06
1.48179e+06
1.48101e+06
1.4803e+06
1.47959e+06
1.47891e+06
1.47827e+06
1.47768e+06
1.47708e+06
1.47652e+06
1.47598e+06
1.47549e+06
1.47502e+06
1.47448e+06
1.47446e+06
1.4741e+06
1.4736e+06
1.47312e+06
1.47251e+06
1.47185e+06
1.47111e+06
1.47032e+06
1.46948e+06
1.46863e+06
1.46775e+06
1.46689e+06
1.46602e+06
1.4652e+06
1.46444e+06
1.46375e+06
1.4631e+06
1.46252e+06
1.46205e+06
1.46163e+06
1.46131e+06
1.46098e+06
1.46081e+06
1.46057e+06
1.46029e+06
1.45997e+06
1.45962e+06
1.45917e+06
1.45866e+06
1.45805e+06
1.45736e+06
1.45661e+06
1.45584e+06
1.45509e+06
1.4544e+06
1.4538e+06
1.45334e+06
1.45296e+06
1.45268e+06
1.45249e+06
1.45235e+06
1.45221e+06
1.45203e+06
1.45182e+06
1.45153e+06
1.45114e+06
1.45068e+06
1.45014e+06
1.44952e+06
1.44885e+06
1.44819e+06
1.4475e+06
1.44696e+06
1.44644e+06
1.44607e+06
1.44577e+06
1.44557e+06
1.44539e+06
1.4452e+06
1.44499e+06
1.44473e+06
1.44442e+06
1.44403e+06
1.44356e+06
1.44301e+06
1.44242e+06
1.44179e+06
1.44116e+06
1.44062e+06
1.43998e+06
1.43958e+06
1.43932e+06
1.43904e+06
1.43881e+06
1.43859e+06
1.43835e+06
1.43808e+06
1.43775e+06
1.43736e+06
1.4369e+06
1.43639e+06
1.43584e+06
1.43522e+06
1.4346e+06
1.434e+06
1.43333e+06
1.43288e+06
1.43253e+06
1.43216e+06
1.43189e+06
1.43163e+06
1.43125e+06
753922
443216
382375
394672
424008
605486
798276
916725
968371
950801
889179
839221
796917
764117
740471
724085
713056
705699
700685
697109
694547
692272
690196
688168
686208
684406
683010
681875
681360
679036
676456
675014
674111
673396
673443
679108
684155
689325
694511
700025
705551
711034
716240
721735
727152
732552
737517
742248
746261
749525
751776
753417
754374
755099
756225
758082
759973
760764
760724
760132
758922
757083
754704
751877
748629
745069
741132
736896
731966
726444
720624
714591
708429
702229
695917
689722
683406
677326
671156
665282
659324
653698
647985
642456
636837
631644
626401
621568
616699
612171
607602
603364
599127
595160
591311
587652
584104
580678
577462
574377
571486
568781
566261
563867
561663
559554
557638
555791
554110
552494
550992
549637
548402
547304
546238
545149
544101
543017
541888
540330
540427
540327
539762
539854
539791
539682
539543
539406
539255
539102
538983
538912
538829
538773
538707
538660
538635
538650
538684
538746
538828
538936
539061
539203
539335
539487
539584
539725
539755
540000
540336
540567
540898
541247
541629
542036
542448
542873
543300
543718
544154
544519
544890
545248
545592
545933
546254
546580
546898
547225
547594
548008
548467
548907
549370
549844
550333
550817
551280
551763
552122
552515
552831
553068
553308
553516
553725
553948
554136
554419
554694
555021
555291
555601
555921
556241
556560
556858
557074
557292
557409
557556
557606
557666
557714
557810
557914
558043
558175
558329
558479
558652
558834
558989
559110
559199
559230
559293
559199
559122
559131
559101
559077
559100
559128
559164
559212
559257
559308
559360
559411
559406
559359
559360
559221
559042
558958
558828
558692
558581
754628
326985
193333
197247
313019
460317
541126
564871
545537
499245
457748
426611
405141
391496
383649
379850
378513
378449
380055
381941
384455
386981
389800
392734
395914
399360
403104
406874
410885
414843
419146
424038
429483
435640
442620
450793
458811
466977
475346
484030
492704
501245
509710
518377
526978
535186
542915
550401
557501
563739
568963
573492
577185
580332
582593
584380
585616
585995
585758
584984
583580
581547
578947
575837
572289
568347
564019
559361
554343
549004
543381
537494
531415
525206
518882
512577
506178
499932
493614
487519
481359
475465
469514
463738
457898
452340
446759
441465
436190
431173
426192
421449
416771
412291
407931
403720
399624
395641
391805
388093
384529
381121
377849
374719
371729
368857
366119
363487
360977
358561
356244
354048
351952
349977
348090
346217
344418
342616
340832
338683
337532
336325
334823
333707
332680
331705
330739
329852
328966
328129
327305
326548
325794
325094
324389
323725
323069
322454
321855
321303
320762
320265
319778
319337
318893
318485
318057
317659
317168
316852
316539
316173
315871
315576
315308
315081
314861
314675
314501
314341
314204
314063
313932
313809
313685
313569
313448
313334
313216
313107
312978
312919
312859
312821
312775
312772
312782
312808
312845
312899
312937
312985
313019
313032
313049
313047
313038
313025
313004
313008
313018
313031
313049
313081
313123
313174
313233
313301
313357
313420
313452
313487
313486
313481
313462
313456
313444
313443
313442
313448
313457
313481
313515
313554
313585
313620
313624
313660
313623
313573
313552
313515
313468
313441
313411
313386
313367
313354
313344
313347
313351
313351
313328
313347
313294
313212
313165
313095
313011
312911
755210
280922
160146
206831
317020
385931
403847
390727
360257
333246
310105
294255
285178
280721
279195
279260
281302
283740
286881
290203
293907
297698
301790
306107
310763
315723
320998
326583
332564
338851
345671
353202
361381
370035
379457
389557
399667
409905
420530
431581
442732
453604
464409
475330
486277
496500
506158
515437
524432
532289
539069
544869
549663
553598
556144
557928
558695
558617
557958
556603
554512
551702
548276
544272
539806
534877
529539
523838
517791
511456
504805
497911
490867
483711
476477
469282
462016
454903
447764
440811
433851
427120
420401
413838
407276
400941
394665
388629
382693
376984
371390
366004
360742
355665
350725
345937
341275
336737
332344
328084
323971
320013
316187
312518
308977
305569
302278
299114
296058
293112
290262
287531
284893
282384
279957
277596
275278
273017
270764
268271
266488
264678
262679
260962
259369
257849
256355
254945
253555
252231
250931
249704
248502
247355
246221
245135
244062
243035
242030
241076
240136
239243
238365
237538
236716
235940
235156
234418
233620
232955
232308
231629
230996
230386
229795
229244
228704
228200
227710
227243
226799
226367
225948
225547
225152
224775
224395
224034
223670
223321
222951
222642
222327
222036
221739
221477
221224
221000
220790
220606
220420
220254
220088
219918
219759
219598
219433
219265
219098
218937
218791
218638
218497
218370
218254
218148
218049
217967
217890
217817
217743
217666
217585
217500
217409
217320
217227
217141
217054
216971
216887
216822
216760
216710
216658
216615
216558
216537
216479
216406
216346
216277
216200
216131
216060
215992
215924
215865
215804
215760
215714
215679
215627
215615
215565
215495
215444
215378
215300
215194
755873
221468
168300
236995
300275
321292
318828
296939
276388
257741
244318
236809
233393
232440
233289
235514
238537
241916
245701
249734
254106
258701
263668
269008
274780
280983
287659
294872
302658
310937
319929
329753
340276
351179
362859
375273
387747
400237
413184
426602
440304
453598
467020
480527
494205
506828
518625
529829
540599
549928
557807
564466
569597
573707
575627
576699
576492
575551
573835
571211
567770
563485
558584
553041
547047
540563
533674
526433
518859
511083
503141
495094
486968
478779
470543
462388
454189
446106
438050
430135
422287
414641
407075
399669
392348
385266
378308
371611
365060
358745
352584
346635
340845
335249
329800
324520
319380
314382
309539
304842
300303
295924
291683
287613
283668
279865
276181
272635
269196
265881
262657
259561
256549
253683
250887
248189
245509
242921
240331
237565
235380
233209
230909
228842
226898
225028
223192
221435
219708
218050
216424
214874
213359
211901
210465
209081
207716
206402
205117
203882
202668
201501
200356
199260
198177
197140
196104
195117
194092
193171
192287
191384
190520
189687
188876
188102
187345
186622
185916
185235
184579
183940
183316
182715
182123
181553
180985
180440
179896
179372
178831
178346
177855
177391
176921
176485
176057
175656
175272
174914
174565
174232
173912
173590
173287
172986
172690
172390
172103
171813
171542
171267
171001
170754
170516
170289
170072
169868
169678
169490
169314
169133
168962
168790
168616
168447
168276
168112
167948
167789
167629
167487
167344
167217
167088
166974
166850
166761
166650
166530
166420
166306
166187
166073
165957
165846
165733
165628
165521
165429
165335
165256
165166
165109
165030
164938
164863
164778
164684
164551
755913
180522
187439
241185
271869
273811
261187
244113
228667
216310
208954
205558
204597
205444
207783
210880
214514
218516
222861
227530
232581
237994
243879
250267
257227
264786
272992
281971
291715
302135
313303
325431
338441
351779
366070
381377
396914
412304
428190
444554
461464
477762
494143
510505
526995
541945
555464
567792
578647
588139
594843
600527
603620
605979
605367
603992
601918
598692
594911
590155
585059
579192
572852
565865
558503
550706
542585
534172
525526
516750
507837
498909
489894
480917
471876
462994
454085
445294
436536
427941
419439
411163
402999
395039
387206
379670
372252
365150
358170
351468
344932
338634
332494
326581
320813
315242
309812
304546
299433
294471
289676
285033
280537
276208
272009
267955
264025
260238
256558
253010
249550
246222
242967
239876
236837
233911
230991
228177
225363
222398
219946
217548
215073
212767
210586
208490
206429
204444
202493
200608
198757
196981
195245
193566
191916
190318
188745
187224
185736
184301
182890
181525
180189
178899
177629
176400
175180
174011
172814
171705
170645
169574
168539
167541
166566
165629
164712
163829
162966
162127
161315
160521
159746
158993
158254
157536
156824
156137
155455
154796
154122
153503
152878
152285
151685
151122
150562
150035
149521
149034
148560
148099
147659
147214
146796
146378
145971
145561
145170
144776
144403
144026
143663
143317
142982
142657
142344
142043
141758
141478
141210
140940
140684
140432
140179
139934
139690
139455
139220
138993
138764
138554
138342
138148
137952
137773
137587
137433
137266
137092
136928
136765
136598
136439
136277
136122
135965
135817
135666
135529
135391
135268
135138
135036
134921
134796
134688
134574
134453
134281
756096
190978
200297
231331
241950
236667
223215
210203
198703
190830
186816
185478
185825
187988
191052
194722
198866
203409
208324
213638
219427
225705
232567
240087
248369
257438
267338
278262
290197
302928
316503
331266
347287
363591
380921
399517
418662
437374
456547
476110
496385
515552
533732
551159
567538
582274
593739
603924
611224
618170
620747
623404
622831
621757
618275
613565
608865
603038
596852
589913
582646
574731
566428
557696
548726
539677
530591
521430
512441
503403
494464
485664
476762
468145
459381
450935
442367
434086
425714
417682
409568
401829
394038
386543
378991
371820
364589
357752
350884
344360
337898
331699
325563
319699
313916
308362
302915
297641
292491
287486
282637
277923
273367
268966
264706
260577
256588
252727
248983
245356
241820
238404
235051
231865
228707
225672
222641
219729
216811
213770
211149
208629
206084
203641
201311
199096
196903
194793
192706
190683
188691
186773
184891
183073
181281
179546
177834
176176
174549
172979
171433
169934
168465
167038
165638
164276
162927
161627
160306
159063
157873
156680
155522
154401
153304
152250
151212
150213
149231
148278
147348
146439
145551
144681
143832
143000
142179
141383
140593
139828
139050
138328
137599
136906
136206
135544
134886
134263
133648
133065
132491
131935
131397
130856
130345
129831
129335
128834
128357
127875
127417
126958
126516
126088
125673
125268
124876
124498
124132
123777
123431
123091
122756
122435
122112
121800
121490
121190
120891
120604
120313
120044
119773
119521
119265
119029
118788
118576
118355
118131
117914
117704
117491
117286
117080
116883
116683
116494
116302
116125
115945
115783
115613
115471
115318
115158
115015
114869
114718
114502
755855
202113
199527
215827
217104
208251
197144
186834
178483
173424
171284
170943
172442
175264
178806
182920
187519
192566
198057
204026
210590
217776
225698
234461
244213
254981
266761
279850
294258
309673
326015
343763
363230
382930
403667
425838
448929
470807
492088
512921
533817
552798
568902
583313
594791
606164
612352
617715
619314
621187
618719
614706
608206
600722
592317
582918
574031
564797
555438
546221
536889
527774
518411
509352
500047
491446
482783
474402
466358
458229
450575
442933
435352
428163
420745
413911
406887
400372
393672
387424
380985
374975
368782
362940
356917
351202
345333
339794
334140
328801
323400
318174
312865
307766
302607
297671
292740
287951
283219
278584
274079
269645
265369
261198
257156
253201
249383
245641
242025
238482
235035
231670
228390
225237
222109
219104
216118
213254
210367
207406
204693
202166
199654
197189
194800
192569
190331
188197
186057
183990
181939
179965
178018
176146
174287
172491
170708
168985
167283
165645
164023
162453
160905
159403
157926
156487
155059
153678
152282
150951
149674
148408
147167
145965
144783
143651
142528
141453
140384
139355
138338
137352
136382
135428
134501
133586
132684
131808
130937
130094
129239
128435
127631
126861
126086
125349
124617
123919
123230
122572
121922
121293
120677
120065
119477
118890
118320
117750
117199
116650
116121
115598
115088
114595
114113
113644
113186
112745
112314
111898
111486
111088
110688
110307
109925
109555
109187
108831
108477
108136
107793
107472
107149
106846
106540
106255
105965
105702
105433
105163
104898
104645
104389
104143
103895
103659
103420
103193
102963
102749
102532
102332
102127
101947
101760
101566
101389
101211
101030
100771
756142
206028
194965
199616
196533
187134
178108
169914
163808
160481
159368
159786
161986
165182
169066
173538
178543
184067
190128
196768
204141
212315
221416
231561
242974
255686
269601
285132
302357
320912
340428
361502
384843
408293
432060
456414
481210
503317
523173
541392
558114
573121
583678
592412
597411
602540
600470
596699
590466
583925
575304
565740
555152
544009
533917
523126
511854
501515
490788
481085
470885
461706
452141
443686
434889
427231
419407
412384
405473
398756
392670
386486
380723
375195
369546
364514
359311
354721
349929
345579
341052
336835
332457
328336
324057
319915
315639
311511
307288
303204
299060
295096
291083
287198
283263
279449
275612
271840
268081
264352
260703
257070
253488
249923
246420
242947
239560
236210
232952
229730
226597
223488
220486
217546
214654
211841
209086
206402
203691
200946
198293
195864
193447
191073
188742
186565
184387
182311
180222
178201
176187
174242
172319
170468
168626
166844
165068
163350
161647
160006
158375
156797
155231
153716
152214
150758
149303
147894
146476
145108
143786
142493
141212
139971
138746
137572
136405
135286
134171
133098
132031
130999
129978
128978
127995
127033
126076
125151
124226
123330
122427
121566
120710
119885
119060
118269
117485
116731
115989
115276
114571
113889
113215
112555
111905
111266
110639
110016
109408
108807
108224
107649
107086
106540
106007
105486
104976
104485
104002
103536
103072
102625
102177
101745
101314
100895
100479
100076
99675.3
99289.9
98902
98535.9
98169.2
97823.5
97474.9
97147
96815.5
96510
96197.5
95889
95583
95291
94996.3
94713.1
94428.5
94156.3
93881.9
93621.2
93357.7
93109.6
92859.5
92626.9
92390.2
92176.8
91956.9
91733.2
91524.2
91317
91107.4
90807.8
757818
205298
187898
185609
179946
171288
163616
157054
152476
150223
149673
150709
153255
156678
160806
165566
170933
176916
183547
190901
199161
208454
218909
230642
243975
258980
275403
293740
314137
336409
359565
383851
410287
435803
459647
482620
504847
523437
538197
551513
562080
572094
573572
573039
569718
565697
557983
548295
537014
525434
513351
500797
488047
474998
462195
449340
435458
423261
410316
399339
387756
378117
367975
359739
351083
344162
336998
331363
325671
320769
316541
312343
308997
305600
302743
300123
297547
295463
293258
291434
289542
287757
285878
284038
282101
280129
278036
275877
273597
271233
268771
266309
263812
261305
258752
256168
253542
250876
248164
245410
242631
239827
237034
234246
231477
228726
225997
223293
220627
217980
215397
212796
210280
207753
205273
202817
200425
198049
195649
193209
190758
188481
186252
184066
181912
179866
177848
175909
173967
172073
170181
168345
166525
164762
163011
161310
159615
157967
156330
154746
153170
151642
150119
148644
147175
145753
144326
142943
141551
140201
138881
137602
136327
135091
133868
132690
131520
130393
129272
128187
127108
126064
125025
124012
123004
122026
121047
120099
119150
118230
117304
116413
115530
114675
113821
112999
112183
111397
110621
109874
109134
108419
107708
107015
106326
105652
104987
104328
103681
103043
102421
101809
101207
100623
100050
99492
98943
98413.6
97891.2
97387.5
96885.1
96399.5
95913.5
95442.9
94973.5
94516.7
94062.2
93621.8
93183.3
92761.2
92337.5
91934.5
91531.8
91150.8
90767.1
90404
90038
89696.8
89348.7
89007.6
88667.2
88342.1
88014.5
87699.2
87382.7
87079.8
86774.5
86484.1
86190.9
85913.7
85634.6
85373.3
85108.7
84866
84617.5
84367.5
84129.6
83896.5
83661.4
83324.5
760614
202933
179975
173634
167030
159074
152223
146821
143270
141691
141485
142913
145613
149165
153461
158455
164153
170598
177850
186016
195308
205927
218017
231658
247299
265085
284527
306140
330040
356004
382137
407338
433959
458263
478685
496822
513769
528263
537230
543046
544754
545632
541204
534462
524806
514382
502273
488879
474122
457803
441389
424594
407505
391361
374850
360944
346102
333356
320040
309121
297846
288787
279418
271987
264315
258286
252076
247341
242478
238833
235196
232435
230170
227918
226615
225168
224533
223969
223565
223596
223688
223960
224351
224892
225458
226109
226591
227119
227381
227667
227653
227579
227340
226973
226425
225740
224895
223913
222774
221478
220033
218453
216783
215041
213243
211401
209520
207606
205665
203701
201719
199705
197700
195678
193688
191705
189763
187822
185859
183838
181767
179761
177837
175927
174033
172205
170403
168667
166926
165222
163505
161829
160163
158545
156932
155365
153795
152264
150735
149254
147773
146332
144897
143498
142107
140757
139402
138087
136761
135469
134197
132968
131740
130547
129360
128216
127077
125979
124882
123821
122762
121736
120712
119714
118719
117751
116782
115839
114896
113978
113056
112163
111277
110417
109558
108728
107902
107104
106316
105556
104801
104072
103345
102636
101929
101239
100554
99876.2
99208.2
98549.6
97904.3
97269.8
96644.6
96036
95438.2
94856.1
94281.9
93726.9
93178.7
92649.2
92120.6
91608.3
91096.4
90598.4
90102.2
89617.9
89135.9
88667.7
88201.8
87751.9
87301.4
86870.2
86440.2
86031.3
85621
85230.1
84837.5
84467.9
84092.3
83725
83357.4
83005.5
82651.4
82309.9
81967.2
81638.8
81308
80992.8
80674.9
80372.9
80069.6
79784.1
79496
79228.2
78955.3
78683.9
78420.9
78165.5
77908
77538.6
763919
199488
171971
163889
156590
149228
143043
138362
135495
134331
134338
135961
138704
142316
146728
151928
157962
164926
172920
182080
192650
204932
219093
235171
253644
274872
297922
322852
349451
377202
403866
427342
451171
471880
486729
499565
509842
519395
519828
518473
513937
508040
498578
486926
472951
457123
440261
421362
401595
380077
361210
342024
324184
308105
291652
278448
264739
253194
241388
231724
221889
214004
205996
199580
193077
187872
182567
178402
174133
170904
167525
165256
162941
161173
159924
158584
158158
157637
157681
157904
158277
158935
159829
160990
162314
163837
165449
167183
168941
170790
172573
174434
176210
178072
179734
181443
182884
184300
185487
186470
187283
187792
188182
188214
188109
187851
187436
186871
186168
185332
184378
183298
182120
180875
179597
178296
176978
175631
174240
172770
171215
169627
168064
166496
164927
163397
161875
160404
158922
157464
155991
154533
153081
151665
150251
148873
147483
146110
144728
143381
142029
140705
139386
138092
136807
135555
134301
133079
131848
130641
129445
128287
127130
126003
124875
123788
122700
121653
120602
119586
118569
117584
116599
115637
114678
113743
112807
111893
110978
110086
109190
108317
107449
106605
105762
104944
104128
103338
102557
101802
101053
100325
99602.1
98893.6
98188.3
97497.9
96812.5
96133
95461.3
94798.1
94146.1
93504.9
92871.2
92253.2
91644.5
91051.7
90466
89898.8
89337.6
88795
88252.9
87726.5
87200.6
86687.3
86175.9
85675.2
85177
84691.5
84208.4
83740.6
83272.9
82822.5
82374.5
81946
81518.1
81107.2
80696.4
80306.2
79911.4
79525.5
79138.2
78766.1
78392.5
78031.4
77668.9
77321
76970.6
76636.1
76298.8
75977.2
75655.2
75350.1
75043.4
74755.2
74462.9
74174.5
73891.3
73617.4
73341.4
72945
767648
195623
164676
155496
147949
141047
135405
131198
128737
127790
127949
129612
132334
135965
140479
145901
152339
159961
168918
179390
191654
206123
223022
242270
264266
289342
315686
342701
369999
397084
422505
442581
461176
477379
486996
492574
495399
498347
494492
487979
477812
465790
451678
435144
416254
394166
371469
347681
326836
305028
286987
268503
253036
238599
225115
213968
202758
193603
184320
176621
168842
162495
156084
150853
145559
141231
136837
133269
129644
126765
123801
121580
119250
117620
115972
114588
113614
112578
111958
111569
111155
111163
111293
111629
112142
112874
113771
114865
116102
117519
119067
120789
122630
124638
126746
128989
131287
133671
136050
138454
140827
143058
145313
147335
149288
151043
152691
154126
155431
156496
157415
158087
158599
158856
159070
159099
159032
158854
158544
158067
157396
156584
155688
154729
153724
152688
151630
150564
149481
148383
147262
146123
144971
143822
142665
141519
140362
139204
138036
136883
135721
134568
133418
132280
131146
130038
128928
127839
126740
125645
124550
123483
122415
121370
120320
119303
118283
117299
116310
115352
114393
113461
112530
111617
110708
109820
108930
108057
107185
106331
105473
104633
103797
102982
102168
101376
100585
99816.7
99056.1
98317.6
97587.7
96874.3
96169.9
95475.2
94786
94107.8
93435.9
92768.6
92107.7
91453.1
90808.6
90173.9
89545.2
88930.8
88323.9
87732.5
87147.6
86580.3
86018
85474
84930.3
84401.5
83873
83356
82840.5
82334.5
81831
81338.6
80848.8
80372.8
79897.6
79437.3
78980.7
78541.2
78104.7
77682.1
77261.6
76859
76453.6
76056.6
75657.7
75272.9
74887.2
74513.3
74138
73776.9
73413.5
73065.5
72715
72379.4
72044.3
71724.8
71404.9
71101.7
70795.4
70494.4
70196.3
69908.4
69618.3
69201.3
771410
191672
157854
148066
140547
134066
128841
125011
122739
121896
122128
123745
126412
130060
134713
140448
147452
155991
166288
178597
193217
210636
231162
254359
280043
308400
336754
364253
390520
415154
438356
453253
465015
477453
480066
479447
476805
473321
465399
454179
439385
421309
401110
377529
352596
325957
302823
279504
260522
241966
227074
212033
200473
188861
179282
170271
161943
154927
147868
141902
135895
130842
125723
121495
117221
113736
110195
107295
104355
101960
99519.6
97543.3
95515.4
93924.7
92263
90976.7
89775.9
88577.4
87580
86720.3
85877.2
85268.1
84650.7
84263.8
83901.8
83730.4
83635.5
83688.7
83819.2
84067.4
84424.6
84916.6
85532.9
86299.4
87205.3
88276.2
89483.8
90848.6
92343.8
93986.3
95745.7
97626.9
99614.7
101677
103815
106005
108245
110513
112806
115055
117295
119431
121540
123532
125527
127480
129283
130952
132413
133710
134676
135341
135851
136181
136403
136430
136365
136224
135994
135688
135297
134828
134289
133693
133041
132343
131606
130834
130029
129200
128346
127474
126586
125688
124781
123874
122958
122037
121108
120169
119223
118286
117350
116423
115488
114573
113653
112762
111864
110993
110119
109263
108404
107560
106716
105887
105056
104238
103420
102615
101809
101013
100221
99446
98673
97914.8
97157.4
96420.2
95688.5
94975.3
94272.3
93582.1
92903.1
92230.7
91566
90908.6
90259.2
89613.2
88972.6
88335.8
87708.6
87088.8
86474.8
85872.3
85276.7
84695.3
84120.2
83561.1
83006.6
82469.9
81933.5
81411.5
80889.5
80377.9
79867.7
79365.4
78865.6
78375.2
77887.6
77412
76937.7
76475.7
76018.8
75576.3
75139.2
74712.6
74290.7
73882.2
73475.3
73074.2
72671.3
72281.1
71890.6
71510.6
71129.5
70761.7
70392
70036.5
69679
69335.2
68992.7
68664.5
68336.7
68024.2
67709.4
67400.4
67093
66796
66496.6
66065.9
775182
188012
151502
141396
134078
127990
123098
119549
117393
116545
116779
118310
120929
124646
129556
135805
143681
153585
165839
180757
198663
220015
245013
272367
301058
331740
360607
387194
411114
431745
451559
459815
465162
471271
469553
465372
457483
447179
433629
416389
395392
369318
341610
312492
287822
263314
243490
225056
209689
196248
184611
173808
165129
156263
149082
141604
135414
129524
123824
119053
114125
109966
105726
102331
98888
96137
93358.6
91107.6
88818
86907.7
84961.1
83331.8
81667.4
80285
78857.3
77717.8
76575.3
75518.2
74572.6
73662.1
72790.9
72056.2
71304.3
70677.2
70039.4
69537.2
69026.5
68631.1
68229.2
67926.2
67635.6
67425.9
67267.4
67162
67166.9
67230.7
67359.6
67570
67857.9
68237.3
68702.3
69266.9
69928.5
70685.9
71547.9
72511.2
73585.6
74771.3
76068.2
77470.9
78981.2
80598.5
82329.9
84189
86191
88314.5
90524.6
92784.8
95060.8
97340.2
99508.2
101511
103354
105168
106804
108421
109818
111203
112380
113547
114531
115446
116181
116826
117316
117699
117943
118082
118062
117975
117806
117557
117236
116852
116412
115922
115386
114806
114190
113538
112858
112158
111443
110714
109974
109224
108466
107713
106952
106199
105440
104692
103939
103194
102447
101709
100967
100232
99497
98767.9
98038.1
97312
96589.2
95875.3
95160.3
94451.7
93742.2
93047
92355.7
91679.6
91012.8
90356.4
89711.6
89071.9
88440.5
87814
87195.8
86580.6
85968.2
85357.5
84754.8
84156.8
83564.5
82979.8
82402.4
81836.6
81277.6
80732.6
80192.2
79668.7
79146
78636.7
78127.6
77627.3
77128.8
76636.4
76146.7
75664.4
75185.2
74715.8
74248.5
73791.2
73339.8
72900.5
72468.5
72044.2
71626.6
71218.6
70816
70416.7
70016.2
69626.4
69237.3
68857
68476.2
68107.2
67736.9
67379.3
67020.3
66673.9
66329.1
65997.4
65666.7
65349.9
65031.9
64719.7
64408.2
64107
63803.1
63365.6
778566
184775
145657
135405
128365
122619
118019
114683
112610
111691
111876
113328
115957
119875
125280
132407
141675
153634
168721
187400
209772
235909
265676
296988
327496
359171
387122
411407
431400
446592
460968
463373
462925
462139
457457
449019
435247
416673
394598
367311
337704
306301
279697
254011
233679
215011
200161
186763
175176
165303
155933
147865
140417
133302
126973
120566
115458
110144
105633
101509
97353.9
94027.8
90700.6
88018.7
85414
83308.5
81233.3
79492.7
77710.7
76197.8
74650.3
73347.1
72022.8
70909.6
69773.6
68820.3
67849.7
67006.9
66225
65427.5
64671.8
64017
63347.9
62740
62122.3
61594.7
61060.8
60592.2
60116
59695.8
59268.4
58895
58515.9
58193.8
57867.8
57609.2
57347.8
57146.7
56941.7
56801.1
56658.7
56582.8
56516.6
56517.9
56549.2
56619.1
56737
56907.3
57133.3
57418.2
57768
58191.2
58699.2
59311.7
60039.6
60891.1
61858.1
62931.4
64101
65354.6
66689.4
68079.4
69526.5
71036.2
72602.4
74226.3
75891.5
77605.1
79355.9
81160.5
82989.4
84857.9
86684.6
88535.2
90279.1
92021.6
93628.4
95179.3
96560.6
97829.9
98952.3
99944.5
100807
101539
102157
102638
103026
103264
103443
103443
103383
103252
103051
102789
102470
102101
101688
101241
100762
100257
99728.7
99186.9
98632.8
98069.3
97496.6
96917.2
96328.8
95732.9
95129.3
94518.8
93900.7
93275.6
92644.7
92014
91381
90748.4
90112.7
89484.5
88857
88241.4
87632.2
87031.4
86440.8
85854.7
85275.7
84700.3
84131.4
83561.9
82990.6
82418.5
81851.1
81285.3
80724.2
80167
79616.6
79074.9
78540.3
78016.8
77498.7
76995.5
76493.9
76003.3
75513.4
75029.8
74548.7
74071.6
73597.2
73128.2
72662.3
72204
71748.2
71300.9
70859.3
70428
70004.9
69587.7
69178.1
68775.4
68380.6
67987.5
67593.8
67208.8
66825.2
66448.9
66072.8
65706.8
65340.3
64984.5
64628.3
64283.3
63940.1
63609
63279.6
62962
62645.6
62334.2
62022.8
61721.4
61417
60978.5
781662
182162
140352
130015
123274
117836
113507
110333
108299
107344
107459
108885
111666
116035
122325
130926
142374
157442
176714
200597
228481
259817
294211
328615
359035
389845
415658
435608
450289
458762
465472
464505
459910
452284
440601
424187
401896
372435
339821
305879
277568
250933
229678
210554
195436
181781
170608
160251
151080
142838
134772
127646
120527
114376
108281
102995
98278.4
93626.6
90202.6
86628.6
83567.1
81167.7
78770.1
76894
75007.7
73456
71933.3
70542.7
69112.4
67943.7
66764.6
65774.7
64767.3
63906.6
63031.5
62267.9
61482