/*--------------------------------*- C++ -*----------------------------------*\
| =========                 |                                                 |
| \\      /  F ield         | OpenFOAM: The Open Source CFD Toolbox           |
|  \\    /   O peration     | Version:  2312                                  |
|   \\  /    A nd           | Website:  www.openfoam.com                      |
|    \\/     M anipulation  |                                                 |
\*---------------------------------------------------------------------------*/
FoamFile
{
    version     2.0;
    format      ascii;
    arch        "LSB;label=32;scalar=64";
    class       volScalarField;
    location    "0.004";
    object      p;
}
// * * * * * * * * * * * * * * * * * * * * * * * * * * * * * * * * * * * * * //

dimensions      [1 -1 -2 0 0 0 0];

internalField   nonuniform List<scalar> 
48128
(
3495.04
3494.78
3491.55
3490.42
3489.01
3486.28
3481.33
3472.26
3458.18
3439.93
3411.79
3380.23
3349.29
3321.48
3298.27
3280.66
3267.19
3257.37
3252.1
3251.36
3253.97
3260.5
3271.43
3287.29
3308.72
3336.42
3370.66
3412.45
3462.41
3520.67
3587.21
3662.67
3747.69
3842.47
3947.14
4061.85
4185.53
4319.13
4462.65
4615.36
4777.89
4948.99
5131.64
5321.62
5521.85
5727.55
5944.13
6166.13
6397.96
6631.77
6873.71
7116.19
7364.22
7609.36
7859.08
8104.59
8349.32
8591.05
8829.23
9062.99
9291.09
9513.56
9730.12
9940.06
10143.7
10339
10526.7
10707
10877.1
11039.7
11192.7
11335.5
11471.8
11594.9
11713.1
11817.1
11917.7
12004.3
12089.1
12162.2
12236.2
12299.7
12364.8
12418.8
12470.4
12511.3
12552.3
12587
12623
12653.6
12685
12710.1
12735.8
12756.3
12777.1
12794.4
12809.6
12819.8
12827.9
12835.3
12841.5
12848.9
12857.9
12867.4
12876.9
12887.2
12898.1
12909.5
12919.9
12930.2
12939.2
12950.8
12965.3
12980
12994.9
13003.5
12999
12986.8
12957
12916.9
12969.3
12970.7
12967.3
13011.7
13040.9
13067.3
13090.7
13107.5
13120.8
13133.5
13147.3
13161.5
13175.5
13185.5
13194.3
13200.7
13207.7
13215.6
13224.1
13230.4
13236.9
13243.7
13250.9
13256
13260.4
13259.9
13258.6
13253.2
13245.8
13257.7
13258.7
13258.9
13266.5
13272.8
13282.6
13292.5
13303.1
13313.4
13324.1
13334.1
13343.8
13351.1
13356.7
13361.5
13363.4
13362.6
13360.8
13357.8
13354
13348.9
13343.4
13343.8
13342.9
13343.8
13346.4
13352.4
13359.7
13369.7
13380.5
13391.1
13399.9
13406.9
13411.6
13413.2
13411.8
13409
13404.4
13398.9
13394.4
13390.3
13388
13387.3
13390.1
13394.4
13399.8
13406.8
13415.2
13423.3
13429.7
13435.2
13436.5
13436.5
13434.5
13431.2
13426.6
13422.7
13419.4
13417.1
13417.2
13418.4
13421.5
13426.4
13432.5
13438.6
13444.7
13448.9
13452.3
13455.6
13450.2
13448
13445.7
13441.7
13438.4
13435.6
13434.5
13435.1
13436.8
13439.4
13443.4
13448.3
13454.1
13458.7
13463.1
13466.8
13463.2
13462.8
13461.1
13456.9
13453.5
13449.5
3494.44
3494.62
3491.1
3490.21
3490.44
3487.53
3482.65
3474.01
3457.57
3436.99
3408.78
3377.09
3346.24
3319.32
3298.29
3280.76
3267.31
3257.63
3252.39
3251.67
3254.27
3260.72
3271.53
3287.22
3308.51
3336.22
3370.65
3411.77
3461.01
3518.52
3584.74
3659.87
3744.19
3838.13
3941.98
4055.74
4178.55
4311.12
4453.46
4605.07
4766.39
4936.04
5116.94
5305.58
5504.44
5708.95
5923.61
6143.87
6373.83
6606.57
6846.76
7087.94
7334.35
7578.77
7826.4
8070.82
8314.87
8556.24
8793.99
9027.53
9255.71
9478.36
9695.12
9905.42
10109.2
10305.2
10493.4
10673.3
10842.8
11005.8
11159.6
11303.5
11440.5
11564.8
11683.8
11788.9
11890.4
11978.2
12064.1
12138.5
12213.5
12278.6
12344.9
12400
12452.1
12493.8
12535.6
12571.3
12608.3
12639.9
12671.9
12697.8
12724.2
12745.2
12766.8
12784.8
12800.5
12810.9
12819.5
12827.4
12833.9
12841.9
12851.4
12861.3
12871.1
12881.7
12892.9
12904.7
12915.3
12925.8
12934.9
12946.8
12961.6
12976.7
12991.8
13000.3
12995.7
12983.7
12954.6
12913
12965.7
12968.5
12966.3
13008.7
13040.4
13065.9
13088.9
13105.8
13119.2
13131.9
13145.8
13160.1
13174.1
13184.1
13193
13199.4
13206.5
13214.4
13223
13229.4
13235.9
13242.7
13250
13255.1
13259.5
13258.9
13257.7
13252.4
13244.9
13256.6
13258
13258.4
13265.6
13272.4
13281.9
13292
13302.6
13312.9
13323.7
13333.7
13343.4
13350.8
13356.3
13361.1
13363
13362.2
13360.5
13357.5
13353.7
13348.6
13343.1
13343.7
13342.7
13343.6
13346.2
13352.2
13359.6
13369.6
13380.4
13391
13399.8
13406.8
13411.6
13413
13411.7
13409
13404.3
13398.8
13394.3
13390.2
13387.9
13387.3
13390.1
13394.4
13399.8
13406.8
13415.2
13423.3
13429.7
13435.2
13436.5
13436.5
13434.5
13431.2
13426.6
13422.7
13419.4
13417.1
13417.2
13418.4
13421.5
13426.4
13432.6
13438.6
13444.7
13448.9
13452.3
13455.7
13450.3
13448
13445.7
13441.7
13438.4
13435.6
13434.5
13435.1
13436.9
13439.5
13443.4
13448.3
13454.2
13458.8
13463.1
13466.9
13463.3
13462.9
13461.2
13457
13453.6
13449.6
3494.37
3493.64
3490.08
3490.66
3490.21
3487.17
3480.87
3468.5
3450.91
3428.11
3399.95
3371.69
3343.39
3317.44
3295.23
3278.29
3265.82
3256.76
3251.99
3251.5
3254.22
3260.67
3271.39
3287.05
3308.4
3335.62
3369.6
3410.42
3459.24
3515.99
3581.33
3655.78
3739.35
3832.19
3935.14
4047.66
4169.29
4300.47
4441.4
4591.55
4751.45
4919.41
5098.5
5285.44
5482.67
5685.63
5898.33
6116.66
6344.77
6576.16
6815.12
7055.26
7300.5
7543.81
7790.27
8034.32
8277.49
8518.36
8755.84
8989.26
9217.67
9440.68
9657.95
9868.87
10073.2
10269.8
10458.8
10639.4
10810.5
10974.6
11129.4
11274.6
11412.3
11537.6
11657.4
11763.4
11865.9
11954.3
12041.2
12116.7
12192.8
12259
12326.9
12382.9
12435.4
12477.5
12520.1
12556.5
12594.5
12626.8
12659.6
12686.1
12713.1
12734.6
12756.8
12775.3
12791.5
12802.1
12811.3
12819.6
12826.5
12834.8
12844.8
12855
12865.1
12876
12887.6
12899.6
12910.5
12921.3
12930.5
12942.6
12957.6
12973.1
12988.3
12996.4
12992
12979.8
12952.5
12910.4
12959.5
12966.2
12966.4
13005.9
13038.4
13064
13086.8
13103.6
13117.3
13130.1
13144
13158.4
13172.4
13182.4
13191.4
13197.9
13205.1
13213.1
13221.6
13228.1
13234.7
13241.6
13248.9
13254
13258.3
13257.9
13256.5
13251.7
13244
13255.1
13257.3
13257.9
13264.9
13271.7
13281.3
13291.3
13302
13312.3
13323.1
13333.1
13342.9
13350.2
13355.8
13360.5
13362.4
13361.7
13360
13357.1
13353.3
13348.3
13342.8
13343.2
13342.4
13343.4
13346
13352
13359.4
13369.3
13380.2
13390.7
13399.6
13406.5
13411.4
13412.7
13411.4
13408.8
13404.1
13398.7
13394.1
13390.1
13387.9
13387.2
13390
13394.3
13399.7
13406.7
13415.1
13423.3
13429.6
13435.2
13436.4
13436.4
13434.5
13431.1
13426.5
13422.6
13419.4
13417.1
13417.2
13418.4
13421.5
13426.4
13432.6
13438.6
13444.7
13448.9
13452.3
13455.6
13450.5
13447.9
13445.7
13441.8
13438.4
13435.7
13434.6
13435.2
13436.9
13439.6
13443.5
13448.4
13454.2
13458.8
13463.1
13466.9
13463.4
13462.9
13461.2
13457
13453.6
13449.6
3494.91
3491.39
3489.55
3489.49
3489.58
3485.15
3475.46
3460.62
3440.73
3417.26
3390.68
3361.54
3334.81
3311.47
3291.2
3275.63
3264.17
3255.85
3251.6
3251.28
3254.07
3260.49
3271.17
3286.75
3307.65
3334.26
3367.76
3407.98
3456.05
3512
3576.42
3649.99
3732.51
3824.14
3926.14
4037.48
4157.98
4287.75
4427.39
4576.14
4734.8
4901.01
5079.06
5264.55
5460.49
5661.62
5873.12
6090.24
6317.65
6547.67
6786.27
7025.56
7270.72
7513.35
7759.51
8003.86
8246.38
8486.95
8724.42
8957.65
9186.33
9409.61
9627.4
9838.81
10043.6
10240.2
10430
10610.7
10782.8
10947.8
11103.1
11249.6
11387.9
11514.1
11634.6
11741.1
11844.5
11933.2
12020.9
12097.1
12174.1
12241.3
12311
12367.8
12420.5
12462.9
12506.2
12543.3
12582.1
12615.2
12648.6
12675.5
12703.1
12725
12747.8
12766.7
12783.4
12794.2
12803.9
12812.5
12819.7
12828.5
12838.8
12849.2
12859.6
12870.9
12882.7
12894.8
12905.9
12917
12926.4
12938.7
12953.9
12969.6
12984.8
12992.2
12988
12975.5
12950.8
12909.9
12951.8
12963.6
12968.5
13003.3
13035.9
13062
13084.4
13101.2
13115.3
13128.2
13142.2
13156.6
13170.5
13180.5
13189.7
13196.3
13203.7
13211.7
13220.1
13226.6
13233.4
13240.4
13247.6
13252.7
13256.9
13256.6
13255.3
13251
13243.5
13253.3
13256.5
13257.6
13264.2
13271.2
13280.6
13290.7
13301.3
13311.7
13322.5
13332.4
13342.2
13349.6
13355.1
13359.9
13361.7
13361.2
13359.5
13356.6
13352.8
13348
13342.4
13342.8
13342.1
13343.2
13345.9
13351.8
13359.2
13369.1
13379.9
13390.5
13399.3
13406.2
13411.1
13412.3
13411.1
13408.5
13403.9
13398.5
13393.9
13389.9
13387.8
13387.2
13390
13394.2
13399.7
13406.7
13415.1
13423.2
13429.5
13435.1
13436.2
13436.3
13434.3
13431
13426.4
13422.5
13419.4
13417.1
13417.3
13418.5
13421.6
13426.4
13432.6
13438.6
13444.7
13448.9
13452.2
13455.4
13450.7
13447.9
13445.6
13441.8
13438.4
13435.7
13434.7
13435.2
13437
13439.6
13443.5
13448.4
13454.2
13458.9
13463.1
13466.9
13463.6
13462.8
13461.1
13457.1
13453.6
13449.6
3495.02
3489.66
3489.05
3488.93
3487.63
3480.17
3467.71
3450.27
3429.15
3405.2
3378.74
3351.91
3326.87
3305.24
3287.02
3272.82
3262.28
3254.72
3250.83
3250.61
3253.42
3259.82
3270.37
3285.51
3305.9
3332.02
3364.71
3404.33
3451.64
3506.79
3570.31
3643.09
3724.62
3815.05
3916.24
4026.55
4146.08
4274.63
4413.39
4561.05
4719.01
4883.25
5061.63
5246.2
5442.12
5641.93
5853.69
6070.58
6298.43
6527.09
6765.94
7004.62
7250.57
7493.22
7740.41
7984.35
8226.85
8467.26
8704.66
8938.13
9166.85
9390.85
9608.97
9820.71
10025.4
10221.7
10412.2
10592.4
10765.4
10930
11084.8
11232.6
11370.6
11497.5
11618.3
11724.6
11828.7
11917
12005.2
12081.8
12159.4
12227.3
12298.5
12355.7
12408.5
12450.8
12494.8
12532.3
12571.9
12605.5
12639.5
12666.8
12695
12717.1
12740.5
12759.7
12776.6
12787.5
12797.7
12806.7
12814.2
12823.5
12834
12844.5
12855.2
12866.7
12878.7
12891
12902.1
12913.5
12923.2
12935.8
12950.9
12966.8
12981.8
12988
12984
12971.2
12949.7
12911.4
12944.2
12961.3
12972.5
13001.7
13033.6
13060.1
13082
13098.8
13113.5
13126.7
13140.7
13155
13168.7
13178.8
13188.1
13194.9
13202.5
13210.5
13218.7
13225.3
13232.3
13239.2
13246.4
13251.4
13255.4
13255.4
13253.9
13250.3
13243.4
13251.5
13255.8
13257.6
13263.7
13270.7
13280.1
13290.1
13300.7
13311.1
13321.9
13331.8
13341.5
13348.8
13354.4
13359.1
13360.9
13360.5
13358.9
13356
13352.3
13347.8
13342.2
13342.3
13342
13343.2
13345.8
13351.7
13359.1
13369
13379.7
13390.2
13398.9
13405.7
13410.7
13411.8
13410.6
13408.2
13403.7
13398.3
13393.8
13389.8
13387.9
13387.4
13389.9
13394.1
13399.7
13406.7
13415
13423
13429.3
13434.9
13435.8
13436.2
13434.1
13430.9
13426.3
13422.5
13419.4
13417.1
13417.4
13418.6
13421.6
13426.5
13432.6
13438.6
13444.6
13448.8
13452
13455.1
13450.9
13447.9
13445.5
13441.8
13438.4
13435.7
13434.8
13435.3
13437.1
13439.7
13443.6
13448.5
13454.2
13458.9
13463
13466.8
13463.8
13462.8
13461
13457.2
13453.7
13449.7
3498.29
3489.94
3490.58
3489.03
3483.97
3473.78
3458.27
3438.79
3416.95
3392.97
3366.95
3341.99
3319.07
3299.23
3282.7
3269.72
3259.99
3253.12
3249.54
3249.36
3252.23
3258.48
3268.7
3283.35
3303.2
3328.68
3360.62
3399.7
3446.31
3500.67
3563.31
3635.4
3716.04
3805.26
3905.96
4015.47
4134.07
4261.89
4400.39
4547.6
4705.87
4869.04
5046.51
5230.68
5427.39
5626.54
5839.56
6056.74
6285.79
6513.77
6753.38
6990.96
7237.92
7479.83
7730.66
7970.87
8213.4
8455
8690.54
8925.75
9153.29
9379.23
9597.13
9809.74
10013.6
10210
10401
10580.6
10754.9
10918.8
11073.1
11222
11359.1
11487
11607.5
11713.2
11817.6
11905.2
11993.8
12070.6
12148.8
12217.2
12289.4
12346.2
12398.5
12440.7
12485.3
12523.1
12563.6
12597.6
12632.1
12659.6
12688.1
12710.4
12734.3
12753.6
12770.8
12781.7
12792.7
12801.9
12809.8
12819.7
12830.3
12840.8
12851.9
12863.6
12875.7
12887.9
12899.2
12910.8
12920.9
12933.9
12948.9
12964.7
12979
12983.6
12979.7
12967
12949.2
12914.9
12937.9
12959.9
12977.5
13001.5
13031.6
13058.1
13079.5
13096.6
13112
13125.5
13139.7
13153.7
13167
13177.2
13186.7
13193.8
13201.7
13209.6
13217.6
13224.3
13231.5
13238.4
13245.3
13250.2
13254
13254.3
13252.7
13249.9
13243.7
13250
13255.1
13257.8
13263.6
13270.5
13279.8
13289.7
13300.3
13310.6
13321.5
13331.2
13340.8
13348.1
13353.7
13358.3
13360.1
13359.8
13358.3
13355.5
13351.8
13347.7
13342.2
13342
13341.9
13343.3
13346
13351.8
13359.2
13368.9
13379.5
13389.8
13398.4
13405.2
13410.1
13411.2
13410
13407.8
13403.5
13398.2
13393.7
13389.8
13388
13387.6
13390
13394.2
13399.8
13406.8
13414.9
13422.8
13429
13434.6
13435.5
13436.1
13433.7
13430.7
13426.2
13422.4
13419.4
13417.3
13417.5
13418.7
13421.7
13426.5
13432.7
13438.6
13444.5
13448.7
13451.8
13454.8
13451
13447.9
13445.3
13441.8
13438.5
13435.8
13434.9
13435.5
13437.2
13439.8
13443.7
13448.6
13454.2
13458.9
13462.8
13466.6
13464
13462.7
13460.9
13457.2
13453.8
13449.7
3503
3495.17
3493.15
3488.43
3479.84
3466.14
3448.04
3427.69
3405.56
3380.63
3355.71
3332.54
3311.58
3293.46
3278.39
3266.44
3257.4
3251.15
3247.9
3247.7
3250.53
3256.5
3266.22
3280.38
3299.66
3324.47
3355.69
3394.29
3440.25
3493.83
3555.5
3627.05
3707.03
3794.84
3895.56
4005.1
4122.85
4250.2
4388.53
4535.73
4694.4
4856.75
5034.48
5217.59
5414.77
5613.4
5827.17
6043.59
6272.34
6499.41
6741.9
6975.63
7224.68
7460.91
7720.75
7952.95
8191.84
8439.06
8669.53
8906.57
9131.11
9361.01
9577.47
9792.34
9994.36
10191.5
10383.5
10562.6
10739.1
10902.8
11058.1
11209.2
11345.5
11475.5
11595.9
11701.1
11806.1
11893.6
11982.9
12060.5
12139.7
12209
12281.9
12338.2
12389.8
12432.2
12477.6
12515.5
12557.4
12591.2
12626.4
12653.9
12682.6
12704.4
12729.1
12747.9
12765.5
12776.5
12788.4
12797.8
12806.2
12816.8
12827.4
12837.9
12849.2
12861.3
12873.3
12885.5
12896.8
12908.7
12919.2
12932.9
12947.6
12963.1
12976.2
12978.6
12974.8
12962.6
12949.2
12920.1
12934.1
12959.6
12982.8
13002.9
13030.1
13056
13077
13094.4
13110.9
13124.6
13139
13152.7
13165.5
13175.7
13185.5
13192.9
13201.3
13208.9
13216.6
13223.4
13230.9
13237.7
13244.4
13249.1
13252.6
13253.2
13251.6
13249.6
13244.3
13248.9
13254.7
13258.2
13263.8
13270.7
13279.7
13289.5
13300
13310.2
13321.1
13330.6
13340.1
13347.4
13353.1
13357.4
13359.2
13359.2
13357.7
13355
13351.4
13347.7
13342.3
13341.7
13342.1
13343.7
13346.4
13352.1
13359.4
13369
13379.4
13389.3
13398
13404.5
13409.6
13410.5
13409.4
13407.4
13403.2
13398.1
13393.7
13389.9
13388.2
13387.9
13390.2
13394.3
13400
13407
13414.8
13422.5
13428.7
13434.1
13435.2
13435.9
13433.4
13430.5
13426.2
13422.4
13419.5
13417.5
13417.8
13419
13421.9
13426.6
13432.7
13438.6
13444.4
13448.5
13451.5
13454.4
13451.1
13447.9
13445.2
13441.8
13438.6
13435.9
13435.1
13435.7
13437.3
13440
13443.9
13448.6
13454.2
13458.9
13462.6
13466.4
13464.1
13462.7
13460.7
13457.3
13453.9
13449.8
3511.05
3501.26
3495.73
3487.26
3474.77
3457.93
3438.56
3417.84
3393.75
3369.01
3345.55
3323.99
3304.72
3288.09
3274.23
3263.15
3254.77
3249.07
3246.12
3245.69
3248.29
3253.89
3263.14
3276.76
3295.49
3319.61
3350.08
3388.25
3433.63
3486.47
3546.96
3618.24
3698.57
3784.45
3885.06
3995.24
4113.75
4238.66
4377.24
4523.75
4682.74
4844.23
5022.58
5204.28
5400.11
5597.79
5811.78
6024.16
6249.79
6470.38
6721.88
6947.14
7199.49
7424.89
7692.92
7921.87
8152.21
8403.14
8628.27
8866.67
9088.54
9321.78
9538
9754.84
9955.22
10152.2
10345.8
10525.2
10705.3
10868.7
11027
11181.3
11316.7
11451.4
11571.9
11677.4
11783.6
11872.3
11963.5
12042.9
12124.5
12195
12270.5
12325.6
12380
12421.3
12469.9
12506.3
12551.8
12583.9
12621.2
12648.3
12678.3
12698.4
12725
12742.2
12760.8
12771.7
12785
12794.4
12803.6
12815.1
12824.9
12835.4
12847.3
12859.5
12871.5
12883.6
12894.9
12907.3
12918.1
12932.7
12946.9
12962
12972.8
12972.5
12968.6
12957.6
12949.7
12926.5
12933.8
12960.1
12987.7
13006.1
13029.5
13053.1
13074.3
13092.1
13109.9
13123.9
13138.8
13151.8
13164
13174.3
13184.4
13192.1
13201.2
13208.5
13215.9
13222.7
13230.6
13237.2
13243.6
13247.9
13251.1
13252
13250.6
13249.5
13245.3
13248.4
13254.4
13258.9
13264.5
13271.2
13280
13289.5
13299.9
13309.9
13320.9
13330.1
13339.5
13346.5
13352.5
13356.5
13358.1
13358.7
13357
13354.5
13351.1
13347.8
13342.7
13341.6
13342.4
13344.1
13347
13352.6
13359.9
13369.2
13379.5
13388.9
13397.6
13403.8
13409
13409.7
13408.6
13407
13403
13398.1
13393.7
13390.1
13388.6
13388.5
13390.6
13394.7
13400.3
13407.3
13414.8
13422.3
13428.4
13433.6
13434.8
13435.5
13433.1
13430.3
13426.2
13422.5
13419.7
13417.8
13418.2
13419.4
13422.2
13426.8
13432.8
13438.6
13444.3
13448.3
13451.1
13454
13451.2
13447.9
13445.1
13441.8
13438.7
13436.1
13435.4
13435.9
13437.5
13440.2
13444.1
13448.8
13454.2
13458.8
13462.4
13466.2
13464.3
13462.6
13460.6
13457.4
13454
13449.9
3517.73
3507.05
3497.47
3485.05
3469.03
3450.32
3430.3
3407.6
3382.64
3358.87
3336.63
3316.47
3298.62
3283.25
3270.42
3260.12
3252.32
3247.01
3244.1
3243.37
3245.63
3250.88
3259.62
3272.64
3290.86
3314.3
3343.94
3381.78
3426.69
3479.16
3538.24
3608.72
3690.6
3775.08
3875.36
3984.55
4103.22
4227.05
4366.22
4510.95
4668.3
4828.74
5006.36
5184.53
5375.62
5569.07
5791.06
5991.01
6213.59
6418.51
6681.93
6897.56
7151.14
7366.8
7633.33
7871.21
8089.04
8338.63
8558.55
8798.46
9020.45
9254.62
9473.92
9691.32
9894.32
10090.2
10286.3
10467.4
10652
10814.8
10978.9
11135.8
11271.1
11411.2
11533.1
11638.3
11748.8
11836
11933.7
12011.9
12101
12169.1
12252.4
12301.1
12364.7
12401.5
12458.4
12490.2
12542.3
12571.2
12612.5
12638.7
12671.7
12690.5
12720.4
12734.9
12755.1
12766.2
12781.6
12791.2
12801.6
12814
12822.5
12833.6
12846
12858.4
12870.1
12882.2
12893.4
12906.4
12917.7
12933.3
12946.4
12961.5
12967.8
12965.2
12960.7
12952.8
12949.1
12934.2
12937.9
12963.1
12992.8
13009.8
13029.5
13049.8
13071.3
13089.4
13109
13123.2
13138.8
13150.9
13162.4
13172.8
13183.4
13191.4
13201.2
13208.2
13215.3
13222.1
13230.5
13236.7
13243
13246.5
13249.6
13250.7
13249.7
13249.4
13246.5
13248.5
13254.2
13259.6
13265.4
13272
13280.5
13289.7
13300
13309.7
13320.8
13329.6
13339
13345.5
13351.9
13355.5
13357
13358.1
13356.3
13354
13350.9
13347.9
13343.1
13342
13342.9
13344.8
13347.9
13353.4
13360.6
13369.6
13379.5
13388.5
13397
13403
13408.2
13408.7
13407.9
13406.5
13402.8
13398.2
13393.9
13390.4
13389.1
13389.2
13391.1
13395.1
13400.8
13407.6
13414.8
13422
13428
13433.1
13434.2
13435.1
13432.8
13430
13426.2
13422.6
13419.9
13418.2
13418.6
13419.8
13422.6
13427.1
13432.9
13438.7
13444.2
13448
13450.7
13453.5
13451.2
13447.9
13445
13441.8
13438.8
13436.4
13435.7
13436.2
13437.8
13440.5
13444.3
13448.9
13454.2
13458.7
13462.2
13465.9
13464.5
13462.5
13460.4
13457.4
13454.1
13450.1
3522.28
3510.72
3498.01
3482.02
3463.69
3443.42
3422.39
3397.62
3373.14
3350.23
3329.05
3310.09
3293.41
3279.09
3267.12
3257.48
3250.12
3244.9
3241.8
3240.9
3242.77
3247.63
3255.8
3268.14
3285.94
3308.81
3337.39
3375.3
3419.54
3471.46
3529.93
3600.58
3681.63
3764.93
3865.83
3973.71
4091.21
4213.73
4352.2
4493.79
4645.88
4805.11
4984.91
5153.99
5338.94
5517.13
5754.75
5939.8
6159.81
6343.65
6607.84
6817.42
7072.19
7284.68
7536.82
7792.21
8002.51
8242.53
8459.46
8696.6
8925.72
9158.33
9381.17
9598.77
9806.06
10001.8
10200.7
10384.5
10575.3
10739
10910.1
11071.8
11207.5
11353.4
11478.1
11583.2
11704.1
11783.2
11895.3
11966.6
12067.4
12133.7
12225.1
12266.5
12340.5
12374.8
12439.5
12468.8
12525.1
12553.7
12596.8
12624.2
12658.7
12680
12710.6
12724.4
12745.5
12758.1
12775.6
12785.9
12798.3
12811.8
12820.1
12831.7
12844.6
12857
12868.7
12880.6
12892.3
12905.3
12918.3
12934.2
12945.9
12960
12960.9
12956.2
12951.8
12948.8
12949.7
12942.8
12945.8
12969.4
12997.8
13012.6
13029.5
13047.1
13067.8
13086.6
13107.7
13122.6
13138.6
13150
13160.9
13171.3
13182.2
13190.9
13201.1
13207.9
13214.8
13221.8
13230.2
13236.2
13242.2
13245
13248
13249.2
13249
13249.4
13247.9
13249.5
13254.4
13260.4
13266.7
13273.2
13281.2
13290.1
13300.1
13309.7
13320.7
13329.2
13338.2
13344.5
13351.2
13354.4
13355.8
13357.2
13355.5
13353.5
13350.8
13348
13343.9
13342.6
13343.6
13345.7
13349
13354.4
13361.6
13370.2
13379.5
13388.1
13396.2
13402.2
13407.3
13407.5
13407.1
13405.9
13402.6
13398.2
13394.2
13390.9
13389.9
13390
13391.8
13395.7
13401.3
13408
13414.9
13421.7
13427.5
13432.4
13433.6
13434.6
13432.4
13429.8
13426.2
13422.7
13420.3
13418.7
13419.1
13420.4
13423.1
13427.4
13433.1
13438.7
13444
13447.6
13450.2
13452.9
13451.2
13447.9
13444.9
13441.8
13439
13436.7
13436.1
13436.5
13438.1
13440.8
13444.6
13449.1
13454.1
13458.6
13461.9
13465.5
13464.5
13462.4
13460.2
13457.4
13454.3
13450.2
3523.62
3511.76
3496.86
3478.6
3458.57
3436.66
3414.61
3389.01
3365.28
3343.05
3322.85
3304.9
3289.19
3275.72
3264.43
3255.25
3248.07
3242.78
3239.52
3238.41
3239.83
3244.23
3251.8
3263.4
3280.91
3303.63
3330.51
3368.64
3412.61
3464.24
3521.37
3592.35
3673.29
3754.12
3855.38
3960.68
4074.81
4196.96
4332.34
4470.06
4613.47
4763.12
4955.43
5108.24
5289.44
5442.47
5687.06
5861.12
6083.14
6247.47
6499.24
6702.05
6953.56
7167.82
7404.39
7667.12
7883.7
8113.15
8332.61
8561.47
8796.58
9022.41
9258.77
9467.18
9693.41
9878.01
10094.5
10267.2
10475
10633.6
10814.3
10981.6
11122.7
11278.1
11395
11516.2
11636
11721.5
11845.1
11910.8
12021.4
12087.5
12183.3
12222.9
12304.1
12341.6
12411.1
12442.8
12500.8
12531.6
12576.1
12604.5
12641.6
12664.5
12696.6
12710
12732.6
12746.8
12766.6
12778.5
12792.9
12807.5
12816.6
12829
12841.9
12854.2
12865.9
12877.9
12890.1
12903.5
12918
12934.9
12944.5
12955.3
12952
12945.6
12942.7
12945
12951.9
12953.2
12958.5
12977.2
13001.5
13014.6
13029.2
13044.8
13063.9
13083.7
13105.9
13121.8
13138.2
13148.5
13159.3
13169.8
13180.9
13190.3
13201
13207.4
13214.3
13221.5
13229.9
13235.5
13241.1
13243.4
13246
13247.6
13248.2
13249.5
13249.4
13250.7
13255.2
13261.4
13268.1
13274.5
13282.2
13290.7
13300.2
13309.8
13320.5
13328.6
13337.4
13343.5
13350.2
13352.9
13354.7
13356.2
13354.7
13352.9
13350.7
13348.2
13344.6
13343.4
13344.5
13346.9
13350.3
13355.7
13362.7
13370.8
13379.5
13387.6
13395.5
13401.1
13406.1
13406.3
13406.3
13405.2
13402.3
13398.3
13394.5
13391.6
13390.8
13391
13392.7
13396.5
13402
13408.5
13414.9
13421.4
13426.9
13431.6
13432.8
13434.1
13432
13429.5
13426.2
13423
13420.8
13419.3
13419.8
13421.1
13423.7
13427.9
13433.2
13438.7
13443.8
13447.2
13449.7
13452.3
13451.1
13447.9
13444.8
13441.8
13439.3
13437.1
13436.5
13437
13438.5
13441.2
13445
13449.3
13454.1
13458.4
13461.5
13465.1
13464.6
13462.3
13459.9
13457.4
13454.4
13450.4
3522.65
3510.31
3494.24
3474.58
3452.97
3430.8
3407.18
3381.99
3358.83
3337.33
3318.01
3300.92
3285.99
3273.18
3262.37
3253.42
3246.25
3240.87
3237.39
3235.97
3236.87
3240.83
3247.84
3258.73
3275.88
3298.68
3324.5
3362.04
3405.61
3457.58
3513.24
3584.34
3664.32
3742.32
3842.88
3942.82
4048.71
4171.4
4307.7
4436.32
4571.65
4699.53
4903.51
5041.03
5224.21
5350.6
5584.21
5746.26
5971.64
6125.49
6354.79
6555.76
6798.39
7013.7
7239.75
7487.37
7727.88
7939.63
8174.79
8377.65
8634.75
8834.82
9103.14
9285.19
9548.03
9711.15
9961.59
10116.5
10351.4
10496.2
10698.1
10851.9
11017.6
11177.9
11293.7
11439.4
11535.7
11653.7
11775.6
11846.1
11969.3
12027.3
12125
12168.3
12257.3
12300.4
12374.7
12410.7
12471.5
12503
12551.2
12578.5
12619.1
12643.3
12678.4
12691.9
12717.1
12731.8
12754.7
12768.3
12785.5
12800.5
12811.7
12825.6
12837.6
12849.8
12861.8
12874
12886.9
12900.9
12916.9
12934.6
12941.5
12947.4
12940.4
12933.2
12933.6
12940.2
12953.7
12965.3
12974.4
12986.3
13004.5
13016.2
13028.8
13042.6
13060.3
13080.4
13103.4
13120
13137.3
13146.7
13157.5
13168.2
13179.3
13189.5
13200.7
13206.8
13213.9
13221.2
13229.6
13234.4
13239.7
13241.5
13243.8
13245.8
13247.3
13249.6
13250.9
13252.4
13256.4
13262.5
13269.5
13276.1
13283.3
13291.4
13300.6
13310
13320.3
13327.9
13336.4
13342.3
13349
13351.3
13353.3
13355
13353.7
13352.3
13350.5
13348.5
13345.6
13344.5
13345.6
13348.2
13351.9
13357.2
13364
13371.5
13379.5
13387.1
13394.5
13399.9
13404.7
13405.1
13405.4
13404.4
13401.9
13398.4
13395
13392.4
13391.8
13392.2
13393.8
13397.5
13402.8
13408.9
13415
13421.1
13426.3
13430.7
13432
13433.4
13431.5
13429.1
13426.2
13423.3
13421.3
13420
13420.5
13421.8
13424.5
13428.4
13433.5
13438.7
13443.5
13446.8
13449
13451.6
13450.8
13447.9
13444.8
13441.9
13439.5
13437.5
13437
13437.5
13439
13441.7
13445.4
13449.5
13454
13458.2
13461.1
13464.6
13464.5
13462.2
13459.7
13457.4
13454.6
13450.7
3519.17
3506.65
3490.16
3469.78
3447.31
3425.6
3400.89
3376.55
3353.8
3333.06
3314.52
3298.13
3283.82
3271.49
3260.96
3252.06
3244.8
3239.29
3235.46
3233.59
3234.03
3237.71
3244.34
3254.31
3271.54
3293.46
3318.53
3357.1
3399.82
3451.28
3505.02
3575.61
3651.9
3727.59
3828.21
3920.42
4010.04
4123.01
4276.99
4388.87
4522.72
4618.96
4818.92
4944.13
5132.75
5246.51
5453.47
5597.03
5817.23
5971.47
6186.77
6377.27
6610.79
6813.49
7053.13
7260.57
7532.63
7716.89
7991.02
8165.6
8452.75
8620.66
8916.78
9076.36
9368.94
9521.89
9799.85
9946.28
10202.7
10336.8
10564.3
10693.6
10894.3
11032.8
11183.3
11336.9
11427.8
11578.6
11674.7
11774.9
11914.4
11953.2
12055.8
12104.7
12205.4
12251.2
12332.8
12371.8
12438.2
12469
12522.5
12547.7
12593.5
12616.3
12654.7
12669.9
12699
12713.9
12740
12754.9
12775.8
12790.4
12805
12821.2
12831.8
12844.2
12856.5
12869.1
12883.2
12898.1
12915.1
12932.2
12936.5
12936.3
12925.6
12920.3
12924.2
12935.7
12955.5
12977.7
12991.9
12996
13007.4
13017.5
13028.1
13040.4
13056.9
13076.7
13099.9
13117.1
13135.3
13144.4
13155.3
13166
13177.5
13188.4
13200
13206
13213.3
13220.7
13228.9
13233
13237.7
13239.2
13241.3
13243.8
13246.2
13249.6
13252.5
13254.3
13257.9
13263.9
13271
13277.6
13284.6
13292.3
13301
13310
13319.9
13327
13335.2
13340.8
13347.4
13349.5
13351.7
13353.6
13352.7
13351.8
13350.3
13348.9
13346.8
13346.1
13347.1
13349.8
13353.5
13358.9
13365.4
13372.2
13379.5
13386.5
13393.5
13398.4
13403.2
13403.6
13404.3
13403.4
13401.5
13398.5
13395.6
13393.4
13393
13393.5
13395.1
13398.6
13403.7
13409.5
13415.1
13420.8
13425.4
13429.7
13431.1
13432.6
13430.9
13428.8
13426.2
13423.7
13421.9
13420.8
13421.3
13422.7
13425.3
13429.1
13433.7
13438.6
13443.2
13446.3
13448.3
13450.8
13450.5
13447.8
13444.7
13441.9
13439.9
13438
13437.6
13438
13439.5
13442.2
13445.8
13449.7
13454
13458
13460.7
13464.1
13464.4
13462
13459.5
13457.4
13454.8
13451
3513.57
3501.34
3485.04
3464.69
3442.44
3420.72
3395.93
3372.48
3350.25
3330.23
3312.36
3296.55
3282.7
3270.67
3260.23
3251.22
3243.83
3238.1
3233.85
3231.47
3231.64
3235.17
3241.11
3249.74
3267.58
3290.13
3313.89
3353.42
3394.62
3444.06
3495.44
3564.91
3631.81
3703.86
3812.35
3893.55
3965.27
4051.72
4222.06
4319.65
4460.92
4533.6
4712.52
4822.88
5006.08
5116.03
5299.26
5429.23
5622.58
5778.06
5982.28
6170.04
6396.68
6584.51
6848.4
7014.77
7312.7
7468.89
7780.19
7943.08
8251.15
8399.51
8703.85
8851.53
9165.12
9316.32
9616.72
9764.07
10040
10169.4
10419
10536
10762.6
10873.3
11063.9
11191.9
11327.6
11497.8
11564.3
11701
11837.7
11868
11983.8
12036.7
12145.4
12191.3
12283.5
12324.9
12399.6
12429.4
12489.2
12513.5
12564.9
12585.6
12628.3
12643.4
12678.7
12694.2
12723.9
12739.4
12764
12778.2
12796.8
12815.1
12824.8
12838
12849.9
12863.4
12878.6
12894.7
12911.9
12926.3
12927.6
12922.1
12907.5
12907.6
12916.2
12933.5
12958.8
12990
13009
13006.1
13011.1
13018.3
13027.2
13038.5
13054.1
13072.9
13095.5
13112.7
13131.9
13141.5
13152.7
13163.3
13175.2
13186.5
13198.5
13204.8
13212.4
13219.6
13227.7
13231
13235
13236.4
13238.5
13241.6
13245.3
13250
13254.3
13256.4
13259.7
13265.3
13272.3
13279.1
13286
13293.2
13301.3
13309.9
13319.3
13325.9
13333.8
13339
13345.4
13347.5
13350.2
13352
13351.4
13350.9
13350
13349.1
13347.9
13347.7
13348.8
13351.7
13355.7
13360.9
13366.8
13373
13379.5
13385.7
13392.2
13396.9
13401.3
13402
13403
13402.3
13400.9
13398.6
13396.4
13394.5
13394.3
13394.9
13396.6
13400
13404.7
13410.1
13415.2
13420.3
13424.5
13428.5
13430.1
13431.6
13430.2
13428.4
13426.3
13424.1
13422.6
13421.8
13422.2
13423.7
13426.3
13429.8
13434
13438.5
13442.9
13445.7
13447.6
13450
13450
13447.7
13444.7
13442
13440.2
13438.6
13438.2
13438.7
13440.1
13442.8
13446.3
13450
13453.9
13457.8
13460.2
13463.5
13464.2
13461.8
13459.3
13457.4
13455
13451.3
3506.72
3495.18
3479.47
3459.57
3438.58
3416.31
3392.36
3369.65
3348.16
3328.83
3311.52
3296.13
3282.56
3270.65
3260.17
3250.96
3243.36
3237.42
3232.87
3229.97
3229.18
3232.57
3238.53
3246.6
3265.43
3288.18
3310.02
3350.11
3388.36
3432.8
3482.1
3555.67
3604.82
3661.16
3786.97
3857.57
3925.43
3976.2
4138.86
4223.04
4372.12
4439.96
4591.22
4685.02
4847.12
4953.91
5118.96
5237.12
5404.01
5564.91
5748.18
5928.75
6116.22
6297.92
6528.6
6668.38
6964.29
7110.68
7433.76
7589.83
7905.79
8053.7
8386.25
8528.4
8861.86
9018.68
9351.79
9499.65
9805.02
9939.86
10220.3
10341.1
10594.3
10697.9
10922.8
11021.2
11218.8
11382.3
11461
11626.9
11738
11786.7
11924.3
11974.6
12083.9
12129
12232.6
12275.5
12358.8
12388.1
12454.4
12478.9
12535.3
12553.6
12600.3
12615.5
12657.7
12674.3
12707.9
12723.1
12751.3
12764.3
12788.1
12806.9
12817.4
12832.1
12843.2
12857.8
12874.2
12891
12906.8
12917.2
12914.9
12904.5
12889.2
12895.7
12910.9
12933.2
12962.5
12999.9
13023.5
13016.3
13015.4
13019.2
13026.3
13037
13051.6
13069.1
13090
13106.7
13127
13137.9
13149.9
13160.3
13172.5
13183.9
13196.3
13203.7
13211.7
13218.3
13226.2
13228.9
13232.7
13234
13235.7
13239.3
13244.1
13250
13255.8
13258.9
13262.7
13267.8
13274.1
13280.8
13287.4
13294.2
13301.6
13309.6
13318.3
13324.6
13332.3
13337.3
13343.5
13345.1
13347.9
13349.9
13349.9
13350
13349.6
13349.5
13349.2
13349.5
13350.8
13353.8
13357.8
13363.1
13368.7
13373.8
13379.5
13385.1
13390.9
13394.9
13399.1
13400.1
13401.5
13401.1
13400.2
13398.7
13397.1
13395.8
13395.7
13396.5
13398.3
13401.5
13405.8
13410.6
13415.2
13419.8
13423.5
13427.2
13428.9
13430.6
13429.4
13427.9
13426.3
13424.6
13423.4
13422.8
13423.3
13424.8
13427.3
13430.5
13434.3
13438.4
13442.4
13445.1
13446.8
13449
13449.5
13447.5
13444.7
13442.2
13440.6
13439.2
13438.9
13439.3
13440.8
13443.4
13446.8
13450.3
13453.9
13457.4
13459.7
13462.8
13463.9
13461.6
13459.1
13457.4
13455.2
13451.6
3499.39
3488.74
3473.92
3454.73
3435.41
3413.02
3390.16
3368.18
3347.49
3328.77
3311.89
3296.78
3283.34
3271.42
3260.74
3251.31
3243.51
3237.3
3232.19
3228.71
3227.12
3231.09
3237.63
3244.68
3264.22
3286.26
3305.08
3345.08
3378.81
3414.13
3458.02
3548.76
3583.4
3608.7
3740.41
3802.16
3887.26
3908.15
4042.31
4110.24
4249.15
4320.92
4446.12
4527.54
4659.18
4766.26
4904.44
5020.41
5136.52
5264.48
5399.44
5565.48
5715.21
5949.11
6110.32
6353.55
6588.74
6771.14
7081.37
7254.87
7597.87
7738.04
8083.89
8233.77
8590.82
8740.93
9090.37
9241.88
9572.96
9706.13
10009
10127.1
10400.3
10502.6
10751.1
10848
11072.6
11211.1
11339.9
11512.9
11591.7
11689.6
11843
11888.7
12006.5
12056
12169.1
12212.4
12305.1
12337.7
12413
12439.1
12500.6
12517.6
12568.6
12585.5
12634.3
12652.8
12690.9
12706.5
12737.9
12750.6
12778.1
12797
12809.7
12826.3
12837.1
12853
12870.2
12887.1