/*--------------------------------*- C++ -*----------------------------------*\
| =========                 |                                                 |
| \\      /  F ield         | OpenFOAM: The Open Source CFD Toolbox           |
|  \\    /   O peration     | Version:  2312                                  |
|   \\  /    A nd           | Website:  www.openfoam.com                      |
|    \\/     M anipulation  |                                                 |
\*---------------------------------------------------------------------------*/
FoamFile
{
    version     2.0;
    format      ascii;
    arch        "LSB;label=32;scalar=64";
    class       surfaceScalarField;
    location    "0.004";
    object      phi;
}
// * * * * * * * * * * * * * * * * * * * * * * * * * * * * * * * * * * * * * //

dimensions      [1 0 -1 0 0 0 0];

oriented        oriented;

internalField   nonuniform List<scalar> 
95760
(
4.99307e-09
-4.99406e-09
7.58656e-09
-2.59457e-09
7.61089e-09
-2.55549e-11
7.23164e-09
3.77825e-10
6.77763e-09
4.52387e-10
3.44228e-09
3.33367e-09
-4.46687e-09
7.90759e-09
-1.66898e-08
1.22215e-08
-3.47632e-08
1.80722e-08
-5.421e-08
1.94456e-08
-7.11642e-08
1.69533e-08
-8.58412e-08
1.46764e-08
-9.84159e-08
1.25746e-08
-1.09172e-07
1.07566e-08
-1.18504e-07
9.33307e-09
-1.26744e-07
8.24148e-09
-1.34195e-07
7.45219e-09
-1.41074e-07
6.8806e-09
-1.47536e-07
6.46361e-09
-1.53638e-07
6.10232e-09
-1.5948e-07
5.84234e-09
-1.65065e-07
5.58531e-09
-1.70406e-07
5.34184e-09
-1.75494e-07
5.08729e-09
-1.80314e-07
4.81935e-09
-1.84807e-07
4.4928e-09
-1.89008e-07
4.20101e-09
-1.92845e-07
3.83645e-09
-1.96537e-07
3.69219e-09
-1.9996e-07
3.42225e-09
-2.02703e-07
2.74206e-09
-2.04876e-07
2.17205e-09
-2.06537e-07
1.65952e-09
-2.07544e-07
1.00426e-09
-2.0766e-07
1.12821e-10
-2.07224e-07
-4.3878e-10
-2.06027e-07
-1.20038e-09
-2.04076e-07
-1.95354e-09
-2.01127e-07
-2.9506e-09
-1.97205e-07
-3.92171e-09
-1.92235e-07
-4.96781e-09
-1.86277e-07
-5.95586e-09
-1.78709e-07
-7.56653e-09
-1.69735e-07
-8.97479e-09
-1.59325e-07
-1.04135e-08
-1.48023e-07
-1.13087e-08
-1.35155e-07
-1.28821e-08
-1.20705e-07
-1.44705e-08
-1.04214e-07
-1.65183e-08
-8.6562e-08
-1.7685e-08
-6.70581e-08
-1.95381e-08
-4.65119e-08
-2.05779e-08
-2.41115e-08
-2.2424e-08
-4.3103e-10
-2.3688e-08
2.36175e-08
-2.40396e-08
5.01562e-08
-2.65126e-08
7.79354e-08
-2.77306e-08
1.07403e-07
-2.94021e-08
1.37781e-07
-3.03022e-08
1.69085e-07
-3.12238e-08
2.01059e-07
-3.18953e-08
2.33644e-07
-3.2513e-08
2.66879e-07
-3.31753e-08
3.00614e-07
-3.3696e-08
3.35055e-07
-3.44258e-08
3.69588e-07
-3.45482e-08
4.04455e-07
-3.48914e-08
4.39213e-07
-3.4781e-08
4.73772e-07
-3.45677e-08
5.0846e-07
-3.46835e-08
5.42835e-07
-3.43654e-08
5.77059e-07
-3.42068e-08
6.11182e-07
-3.41029e-08
6.44727e-07
-3.35295e-08
6.78092e-07
-3.33579e-08
7.10591e-07
-3.25059e-08
7.42726e-07
-3.21514e-08
7.73772e-07
-3.10699e-08
8.04098e-07
-3.03437e-08
8.33167e-07
-2.90815e-08
8.6146e-07
-2.82986e-08
8.88436e-07
-2.6981e-08
9.14888e-07
-2.64566e-08
9.40613e-07
-2.57282e-08
9.65912e-07
-2.52982e-08
9.90013e-07
-2.40944e-08
1.01335e-06
-2.33174e-08
1.03545e-06
-2.20847e-08
1.05681e-06
-2.13198e-08
1.07715e-06
-2.02978e-08
1.09689e-06
-1.97123e-08
1.11567e-06
-1.87491e-08
1.13388e-06
-1.81884e-08
1.15117e-06
-1.72854e-08
1.1678e-06
-1.66404e-08
1.18372e-06
-1.59287e-08
1.19918e-06
-1.54644e-08
1.21394e-06
-1.4762e-08
1.22798e-06
-1.40435e-08
1.24145e-06
-1.34656e-08
1.25422e-06
-1.27631e-08
1.26633e-06
-1.21084e-08
1.27786e-06
-1.15249e-08
1.28893e-06
-1.10593e-08
1.29947e-06
-1.05265e-08
1.30959e-06
-1.00993e-08
1.31923e-06
-9.62514e-09
1.32856e-06
-9.31176e-09
1.33746e-06
-8.87612e-09
1.3461e-06
-8.62789e-09
1.35437e-06
-8.25419e-09
1.36221e-06
-7.83262e-09
1.36975e-06
-7.52819e-09
1.37702e-06
-7.2677e-09
1.38435e-06
-7.32184e-09
1.39152e-06
-7.16244e-09
1.39817e-06
-6.6498e-09
1.40444e-06
-6.2727e-09
1.41038e-06
-5.94828e-09
1.41721e-06
-6.83838e-09
1.42117e-06
-3.97751e-09
1.42417e-06
-3.01529e-09
1.42933e-06
-5.1675e-09
1.43297e-06
-3.66562e-09
1.43755e-06
-4.60444e-09
1.44222e-06
-4.68182e-09
1.4469e-06
-4.68301e-09
1.45132e-06
-4.42513e-09
1.45566e-06
-4.34076e-09
1.45993e-06
-4.26474e-09
1.46406e-06
-4.11454e-09
1.46809e-06
-4.00041e-09
1.47206e-06
-3.95548e-09
1.4758e-06
-3.72893e-09
1.47941e-06
-3.61305e-09
1.48283e-06
-3.42468e-09
1.48608e-06
-3.2562e-09
1.4892e-06
-3.13682e-09
1.49219e-06
-3.01398e-09
1.49502e-06
-2.85168e-09
1.49773e-06
-2.72735e-09
1.50034e-06
-2.62613e-09
1.50285e-06
-2.52253e-09
1.50524e-06
-2.39539e-09
1.50755e-06
-2.31736e-09
1.50954e-06
-1.99415e-09
1.51138e-06
-1.84414e-09
1.51288e-06
-1.50736e-09
1.51473e-06
-1.84741e-09
1.5156e-06
-8.55669e-10
1.51615e-06
-5.50244e-10
1.51719e-06
-1.0352e-09
1.51773e-06
-5.24341e-10
1.51852e-06
-7.80196e-10
1.51917e-06
-6.41526e-10
1.51981e-06
-6.32736e-10
1.52047e-06
-6.54549e-10
1.52111e-06
-6.37997e-10
1.52178e-06
-6.65137e-10
1.52242e-06
-6.40122e-10
1.52304e-06
-6.19997e-10
1.52377e-06
-7.31527e-10
1.52438e-06
-6.1169e-10
1.52494e-06
-5.61386e-10
1.52534e-06
-4.05026e-10
1.52564e-06
-2.935e-10
1.52587e-06
-2.33334e-10
1.52601e-06
-1.3699e-10
1.52608e-06
-7.26969e-11
1.52605e-06
2.98971e-11
1.52588e-06
1.68924e-10
1.52572e-06
1.554e-10
1.52547e-06
2.5587e-10
1.52525e-06
2.12576e-10
1.52503e-06
2.1582e-10
1.52479e-06
2.358e-10
1.52457e-06
2.18204e-10
1.52441e-06
1.61605e-10
1.52428e-06
1.34848e-10
1.52419e-06
9.21319e-11
1.52426e-06
-7.36165e-11
1.52421e-06
5.25155e-11
1.52436e-06
-1.427e-10
1.52438e-06
-3.15061e-11
1.52433e-06
4.65057e-11
1.52423e-06
9.49312e-11
1.52405e-06
1.86709e-10
1.5238e-06
2.53192e-10
1.52354e-06
2.58577e-10
1.52298e-06
5.51747e-10
1.52251e-06
4.74622e-10
1.52194e-06
5.64754e-10
1.52154e-06
4.10066e-10
1.52103e-06
5.07077e-10
1.52055e-06
4.76226e-10
1.52011e-06
4.43997e-10
1.5197e-06
4.08161e-10
1.51937e-06
3.30727e-10
1.51909e-06
2.80515e-10
1.51883e-06
2.58068e-10
1.51857e-06
2.54734e-10
1.51826e-06
3.12686e-10
1.51798e-06
2.72881e-10
1.51762e-06
3.65765e-10
1.51721e-06
4.04009e-10
1.51664e-06
5.66388e-10
1.51606e-06
5.82669e-10
1.51539e-06
6.65943e-10
1.51476e-06
6.35459e-10
1.51407e-06
6.83049e-10
1.51347e-06
6.09329e-10
1.51283e-06
6.33006e-10
1.51224e-06
5.92828e-10
1.51171e-06
5.31697e-10
1.51122e-06
4.92539e-10
1.51077e-06
4.51549e-10
1.51035e-06
4.23371e-10
1.50978e-06
5.66986e-10
1.50941e-06
3.671e-10
1.50893e-06
4.78823e-10
1.50829e-06
6.38214e-10
1.5077e-06
5.97783e-10
1.50702e-06
6.7616e-10
1.50623e-06
7.91471e-10
1.50544e-06
7.82703e-10
1.50467e-06
7.76086e-10
1.50388e-06
7.85645e-10
1.50314e-06
7.37856e-10
1.50241e-06
7.28831e-10
1.50171e-06
6.97046e-10
1.50105e-06
6.59455e-10
1.50047e-06
5.8622e-10
1.49993e-06
5.37549e-10
1.49919e-06
7.37416e-10
1.49873e-06
4.64803e-10
1.49823e-06
4.96602e-10
1.49752e-06
7.09729e-10
1.49688e-06
6.46667e-10
1.49614e-06
7.30993e-10
8.41645e-10
7.05985e-09
-1.20548e-08
1.03551e-08
-5.89076e-09
1.01963e-08
1.32004e-10
7.61306e-09
2.95972e-09
4.16678e-10
7.64719e-09
-1.17343e-08
1.54831e-08
-2.97786e-08
2.59504e-08
-5.22076e-08
3.46492e-08
-7.15397e-08
3.7403e-08
-8.82255e-08
3.61302e-08
-1.03017e-07
3.1744e-08
-1.15652e-07
2.73101e-08
-1.2621e-07
2.31333e-08
-1.35024e-07
1.95711e-08
-1.42363e-07
1.66723e-08
-1.48727e-07
1.46067e-08
-1.54296e-07
1.30236e-08
-1.59296e-07
1.18816e-08
-1.63818e-07
1.0987e-08
-1.67944e-07
1.02289e-08
-1.71765e-07
9.66385e-09
-1.75284e-07
9.1054e-09
-1.78512e-07
8.56941e-09
-1.81435e-07
8.01075e-09
-1.84043e-07
7.42693e-09
-1.86386e-07
6.8351e-09
-1.88523e-07
6.33837e-09
-1.90136e-07
5.44851e-09
-1.91075e-07
4.63114e-09
-1.91372e-07
3.71919e-09
-1.91249e-07
2.61786e-09
-1.90485e-07
1.407e-09
-1.89069e-07
2.41942e-10
-1.86946e-07
-1.12033e-09
-1.84073e-07
-2.76332e-09
-1.80427e-07
-4.08786e-09
-1.76003e-07
-5.62827e-09
-1.70706e-07
-7.25275e-09
-1.6434e-07
-9.3188e-09
-1.56904e-07
-1.1358e-08
-1.48322e-07
-1.35483e-08
-1.38735e-07
-1.55401e-08
-1.27599e-07
-1.87006e-08
-1.15015e-07
-2.1558e-08
-1.00818e-07
-2.46106e-08
-8.5526e-08
-2.66039e-08
-6.85179e-08
-2.98999e-08
-4.98513e-08
-3.31541e-08
-2.90999e-08
-3.72944e-08
-7.0953e-09
-3.97201e-08
1.6945e-08
-4.36114e-08
4.25242e-08
-4.61894e-08
7.00811e-08
-5.00067e-08
9.87113e-08
-5.23309e-08
1.29731e-07
-5.5053e-08
1.62351e-07
-5.91092e-08
1.96077e-07
-6.14125e-08
2.30967e-07
-6.42313e-08
2.66878e-07
-6.61435e-08
3.03828e-07
-6.81055e-08
3.41475e-07
-6.9477e-08
3.79835e-07
-7.08151e-08
4.18884e-07
-7.21746e-08
4.58516e-07
-7.32931e-08
4.98829e-07
-7.47226e-08
5.39208e-07
-7.49359e-08
5.79956e-07
-7.56589e-08
6.20744e-07
-7.55893e-08
6.61459e-07
-7.52899e-08
7.02314e-07
-7.55366e-08
7.42732e-07
-7.4777e-08
7.82925e-07
-7.4388e-08
8.22803e-07
-7.39649e-08
8.62039e-07
-7.27541e-08
9.00969e-07
-7.22804e-08
9.38978e-07
-7.05228e-08
9.76479e-07
-6.9673e-08
1.01286e-06
-6.74828e-08
1.04843e-06
-6.59393e-08
1.08277e-06
-6.34316e-08
1.11629e-06
-6.18242e-08
1.14853e-06
-5.92157e-08
1.18014e-06
-5.80521e-08
1.21084e-06
-5.6418e-08
1.24093e-06
-5.53696e-08
1.26982e-06
-5.29707e-08
1.29788e-06
-5.13594e-08
1.32476e-06
-4.89518e-08
1.35084e-06
-4.73687e-08
1.37588e-06
-4.53172e-08
1.40021e-06
-4.40267e-08
1.42359e-06
-4.21035e-08
1.44627e-06
-4.08587e-08
1.46808e-06
-3.90902e-08
1.48919e-06
-3.77497e-08
1.50952e-06
-3.62674e-08
1.5292e-06
-3.51444e-08
1.54814e-06
-3.37108e-08
1.56639e-06
-3.2286e-08
1.58401e-06
-3.10826e-08
1.60097e-06
-2.97208e-08
1.61735e-06
-2.84891e-08
1.63317e-06
-2.73457e-08
1.64847e-06
-2.63596e-08
1.66322e-06
-2.52755e-08
1.67754e-06
-2.441e-08
1.69138e-06
-2.34418e-08
1.70482e-06
-2.27334e-08
1.71779e-06
-2.18091e-08
1.73037e-06
-2.11836e-08
1.74258e-06
-2.04321e-08
1.75447e-06
-1.96982e-08
1.76605e-06
-1.9092e-08
1.77728e-06
-1.84949e-08
1.78831e-06
-1.83399e-08
1.79886e-06
-1.77209e-08
1.80859e-06
-1.6377e-08
1.81811e-06
-1.58045e-08
1.82582e-06
-1.36627e-08
1.83754e-06
-1.85746e-08
1.84494e-06
-1.13894e-08
1.85155e-06
-9.62518e-09
1.86053e-06
-1.41476e-08
1.86915e-06
-1.23027e-08
1.87694e-06
-1.23984e-08
1.8849e-06
-1.26481e-08
1.89279e-06
-1.25728e-08
1.9002e-06
-1.18411e-08
1.90742e-06
-1.15725e-08
1.91449e-06
-1.13372e-08
1.92144e-06
-1.10658e-08
1.92825e-06
-1.08018e-08
1.93483e-06
-1.05342e-08
1.9411e-06
-1.00045e-08
1.94717e-06
-9.68877e-09
1.95301e-06
-9.26535e-09
1.9587e-06
-8.95105e-09
1.96426e-06
-8.70916e-09
1.96965e-06
-8.41034e-09
1.9748e-06
-8.00696e-09
1.9798e-06
-7.73358e-09
1.98465e-06
-7.49118e-09
1.98935e-06
-7.2298e-09
1.99385e-06
-6.89464e-09
1.9981e-06
-6.58077e-09
2.00201e-06
-5.91713e-09
2.00592e-06
-5.76666e-09
2.00923e-06
-4.82453e-09
2.01343e-06
-6.06206e-09
2.0168e-06
-4.22584e-09
2.01981e-06
-3.56634e-09
2.02316e-06
-4.38213e-09
2.02646e-06
-3.82249e-09
2.02969e-06
-4.00336e-09
2.03294e-06
-3.88065e-09
2.03612e-06
-3.7904e-09
2.03926e-06
-3.78086e-09
2.04227e-06
-3.63668e-09
2.04524e-06
-3.61812e-09
2.0481e-06
-3.48964e-09
2.05084e-06
-3.34806e-09
2.05337e-06
-3.26738e-09
2.05579e-06
-3.02834e-09
2.05805e-06
-2.82679e-09
2.06009e-06
-2.44752e-09
2.06191e-06
-2.11152e-09
2.06361e-06
-1.93885e-09
2.06512e-06
-1.649e-09
2.06652e-06
-1.46852e-09
2.0677e-06
-1.14355e-09
2.06914e-06
-1.27191e-09
2.07022e-06
-9.2179e-10
2.07129e-06
-8.15719e-10
2.07237e-06
-8.68128e-10
2.0736e-06
-1.0212e-09
2.07484e-06
-1.00183e-09
2.07622e-06
-1.16175e-09
2.07758e-06
-1.20546e-09
2.07895e-06
-1.22639e-09
2.08027e-06
-1.22604e-09
2.0815e-06
-1.3113e-09
2.08256e-06
-1.00023e-09
2.08345e-06
-1.02696e-09
2.08417e-06
-7.50507e-10
2.08459e-06
-3.84337e-10
2.08492e-06
-2.26555e-10
2.08512e-06
-1.90078e-11
2.08528e-06
9.91472e-11
2.08534e-06
1.9459e-10
2.08539e-06
4.99219e-10
2.08537e-06
4.93291e-10
2.08562e-06
3.20091e-10
2.08585e-06
1.81003e-10
2.08609e-06
2.65302e-10
2.08637e-06
2.00879e-10
2.08673e-06
8.62755e-11
2.08712e-06
1.21331e-11
2.08747e-06
-1.31916e-11
2.08773e-06
1.74411e-11
2.08788e-06
1.11482e-10
2.08787e-06
2.5608e-10
2.08771e-06
4.71645e-10
2.08747e-06
5.14681e-10
2.08708e-06
7.60163e-10
2.08664e-06
8.36792e-10
2.08606e-06
1.14576e-09
2.08549e-06
1.15056e-09
2.08494e-06
1.21332e-09
2.08447e-06
1.10528e-09
2.08407e-06
1.08559e-09
2.08377e-06
9.03502e-10
2.08349e-06
9.18021e-10
2.08323e-06
8.51307e-10
2.08297e-06
7.90324e-10
2.08272e-06
7.46279e-10
2.08236e-06
8.10166e-10
2.08203e-06
7.52765e-10
2.08111e-06
1.49276e-09
2.08052e-06
9.62917e-10
2.07987e-06
1.12714e-09
2.07898e-06
1.53114e-09
2.07809e-06
1.48406e-09
2.07719e-06
1.57945e-09
2.07619e-06
1.78825e-09
2.07528e-06
1.6881e-09
2.07443e-06
1.62625e-09
2.07364e-06
1.5765e-09
2.07289e-06
1.48392e-09
2.07222e-06
1.40454e-09
2.07155e-06
1.36462e-09
2.07091e-06
1.29706e-09
2.0702e-06
1.29206e-09
2.06959e-06
1.15188e-09
2.06834e-06
1.98626e-09
2.06756e-06
1.24835e-09
2.06674e-06
1.31156e-09
2.06554e-06
1.91722e-09
2.06439e-06
1.79963e-09
2.06322e-06
1.89197e-09
2.07134e-09
6.72913e-09
-1.87848e-08
9.43671e-09
-8.59927e-09
7.85757e-09
1.71004e-09
9.59777e-11
1.072e-08
-1.31955e-08
2.09372e-08
-3.32242e-08
3.55105e-08
-5.44092e-08
4.7134e-08
-7.24012e-08
5.26398e-08
-8.76331e-08
5.26337e-08
-1.00372e-07
4.8868e-08
-1.11252e-07
4.26229e-08
-1.2007e-07
3.61275e-08
-1.27601e-07
3.06642e-08
-1.34093e-07
2.60632e-08
-1.39672e-07
2.22521e-08
-1.44437e-07
1.93735e-08
-1.48547e-07
1.71346e-08
-1.52175e-07
1.55114e-08
-1.55436e-07
1.4249e-08
-1.58352e-07
1.31457e-08
-1.60981e-07
1.22934e-08
-1.63326e-07
1.14507e-08
-1.65379e-07
1.06232e-08
-1.67165e-07
9.79596e-09
-1.68671e-07
8.93338e-09
-1.69767e-07
7.93035e-09
-1.70284e-07
6.85527e-09
-1.70381e-07
5.5448e-09
-1.69984e-07
4.23398e-09
-1.69028e-07
2.76238e-09
-1.67492e-07
1.08134e-09
-1.65303e-07
-7.83339e-10
-1.62438e-07
-2.62442e-09
-1.58865e-07
-4.69573e-09
-1.54376e-07
-7.2552e-09
-1.48912e-07
-9.55476e-09
-1.42546e-07
-1.19978e-08
-1.35224e-07
-1.45776e-08
-1.26719e-07
-1.78258e-08
-1.16999e-07
-2.10783e-08
-1.05957e-07
-2.45879e-08
-9.38157e-08
-2.76789e-08
-8.00312e-08
-3.24822e-08
-6.46817e-08
-3.69046e-08
-4.75107e-08
-4.17787e-08
-2.90936e-08
-4.5021e-08
-8.66626e-09
-5.03328e-08
1.36241e-08
-5.54575e-08
3.82197e-08
-6.19116e-08
6.40856e-08
-6.56141e-08
9.20739e-08
-7.16309e-08
1.21489e-07
-7.56379e-08
1.53069e-07
-8.16159e-08
1.85913e-07
-8.51936e-08
2.21115e-07
-9.02544e-08
2.5796e-07
-9.5939e-08
2.95932e-07
-9.93469e-08
3.35321e-07
-1.03569e-07
3.75713e-07
-1.06477e-07
4.17212e-07
-1.09549e-07
4.59364e-07
-1.11579e-07
5.02266e-07
-1.13675e-07
5.45817e-07
-1.1569e-07
5.89927e-07
-1.17377e-07
6.34552e-07
-1.19333e-07
6.79142e-07
-1.19534e-07
7.23969e-07
-1.20501e-07
7.68593e-07
-1.20229e-07
8.13049e-07
-1.19751e-07
8.57419e-07
-1.19903e-07
9.01067e-07
-1.18419e-07
9.44372e-07
-1.17684e-07
9.87083e-07
-1.16665e-07
1.02903e-06
-1.14694e-07
1.07051e-06
-1.13756e-07
1.11094e-06
-1.1096e-07
1.15066e-06
-1.09412e-07
1.18915e-06
-1.06008e-07
1.22671e-06
-1.0353e-07
1.26297e-06
-9.97152e-08
1.29835e-06
-9.72107e-08
1.33244e-06
-9.32956e-08
1.3658e-06
-9.14045e-08
1.39812e-06
-8.87126e-08
1.42958e-06
-8.67999e-08
1.4598e-06
-8.31559e-08
1.48909e-06
-8.06239e-08
1.5172e-06
-7.70457e-08
1.54448e-06
-7.4626e-08
1.57072e-06
-7.15473e-08
1.5962e-06
-6.94961e-08
1.6207e-06
-6.65974e-08
1.64449e-06
-6.46449e-08
1.66738e-06
-6.19807e-08
1.68957e-06
-5.99478e-08
1.71095e-06
-5.76537e-08
1.7316e-06
-5.57974e-08
1.75145e-06
-5.35592e-08
1.7706e-06
-5.14314e-08
1.78913e-06
-4.9605e-08
1.80701e-06
-4.75915e-08
1.82437e-06
-4.5854e-08
1.84124e-06
-4.42248e-08
1.85761e-06
-4.2732e-08
1.87344e-06
-4.11183e-08
1.88888e-06
-3.9845e-08
1.90386e-06
-3.84142e-08
1.91846e-06
-3.73129e-08
1.93258e-06
-3.5891e-08
1.94631e-06
-3.48812e-08
1.95965e-06
-3.37298e-08
1.97278e-06
-3.27936e-08
1.98565e-06
-3.19269e-08
1.99818e-06
-3.10114e-08
2.01042e-06
-3.05681e-08
2.022e-06
-2.93056e-08
2.0326e-06
-2.69897e-08
2.04271e-06
-2.5928e-08
2.05117e-06
-2.21384e-08
2.06287e-06
-3.0297e-08
2.07207e-06
-2.06005e-08
2.0802e-06
-1.77682e-08
2.09026e-06
-2.42041e-08
2.10082e-06
-2.28642e-08
2.11064e-06
-2.22159e-08
2.12016e-06
-2.21612e-08
2.12937e-06
-2.17658e-08
2.13806e-06
-2.05241e-08
2.1465e-06
-2.00164e-08
2.15473e-06
-1.95725e-08
2.16284e-06
-1.91955e-08
2.1708e-06
-1.87678e-08
2.17847e-06
-1.82253e-08
2.18578e-06
-1.73273e-08
2.19283e-06
-1.67655e-08
2.19961e-06
-1.60565e-08
2.20628e-06
-1.5631e-08
2.21284e-06
-1.52754e-08
2.21921e-06
-1.47848e-08
2.22532e-06
-1.41119e-08
2.23129e-06
-1.3694e-08
2.23711e-06
-1.33104e-08
2.24275e-06
-1.28686e-08
2.24814e-06
-1.22833e-08
2.25323e-06
-1.16708e-08
2.25792e-06
-1.06216e-08
2.26254e-06
-1.03961e-08
2.26656e-06
-8.86491e-09
2.27142e-06
-1.09433e-08
2.27568e-06
-8.50133e-09
2.27957e-06
-7.47368e-09
2.28376e-06
-8.57474e-09
2.28806e-06
-8.12206e-09
2.29226e-06
-8.20473e-09
2.29654e-06
-8.1469e-09
2.30073e-06
-7.96703e-09
2.30489e-06
-7.9118e-09
2.3089e-06
-7.62279e-09
2.31284e-06
-7.53766e-09
2.31663e-06
-7.2694e-09
2.32027e-06
-6.97012e-09
2.32363e-06
-6.61955e-09
2.32682e-06
-6.21193e-09
2.3298e-06
-5.80522e-09
2.33248e-06
-5.13197e-09
2.3349e-06
-4.53354e-09
2.33717e-06
-4.20871e-09
2.3392e-06
-3.69206e-09
2.34111e-06
-3.38602e-09
2.34283e-06
-2.86613e-09
2.34485e-06
-3.28525e-09
2.34652e-06
-2.59455e-09
2.34821e-06
-2.49938e-09
2.34993e-06
-2.59282e-09
2.35184e-06
-2.92925e-09
2.35381e-06
-2.97289e-09
2.35587e-06
-3.22625e-09
2.35797e-06
-3.30363e-09
2.36008e-06
-3.33769e-09
2.36205e-06
-3.19708e-09
2.36385e-06
-3.11605e-09
2.36544e-06
-2.58791e-09
2.36678e-06
-2.36226e-09
2.36786e-06
-1.8332e-09
2.36865e-06
-1.17198e-09
2.36917e-06
-7.45721e-10
2.36961e-06
-4.58186e-10
2.36998e-06
-2.70054e-10
2.37031e-06
-1.36088e-10
2.37062e-06
1.87769e-10
2.37092e-06
1.94484e-10
2.3715e-06
-2.61734e-10
2.37206e-06
-3.76262e-10
2.37271e-06
-3.87699e-10
2.37341e-06
-4.99573e-10
2.37421e-06
-7.06615e-10
2.37504e-06
-8.14226e-10
2.37573e-06
-7.01986e-10
2.37628e-06
-5.35694e-10
2.37664e-06
-2.41647e-10
2.37673e-06
1.6627e-10
2.37671e-06
4.87381e-10
2.37646e-06
7.5818e-10
2.37607e-06
1.15114e-09
2.37561e-06
1.29743e-09
2.37511e-06
1.64352e-09
2.37457e-06
1.69027e-09
2.3741e-06
1.67758e-09
2.37373e-06
1.47713e-09
2.37352e-06
1.29906e-09
2.37337e-06
1.04944e-09
2.37328e-06
1.00698e-09
2.37323e-06
9.0295e-10
2.37311e-06
9.12595e-10
2.37299e-06
8.58482e-10
2.37269e-06
1.11365e-09
2.37235e-06
1.09787e-09
2.37138e-06
2.46089e-09
2.37059e-06
1.75926e-09
2.36983e-06
1.89098e-09
2.36885e-06
2.50514e-09
2.36779e-06
2.54407e-09
2.36676e-06
2.6123e-09
2.3657e-06
2.84799e-09
2.36474e-06
2.64818e-09
2.36386e-06
2.51015e-09
2.36306e-06
2.37417e-09
2.3623e-06
2.24157e-09
2.36165e-06
2.05148e-09
2.361e-06
2.01216e-09
2.36039e-06
1.91025e-09
2.35959e-06
2.08757e-09
2.35886e-06
1.88096e-09
2.35751e-06
3.33089e-09
2.35644e-06
2.32374e-09
2.3554e-06
2.35313e-09
2.35397e-06
3.35344e-09
2.35254e-06
3.22845e-09
2.35114e-06
3.29229e-09
3.49593e-09
5.47049e-09
-2.4256e-08
6.33356e-09
-9.46323e-09
5.8615e-10
7.45637e-09
-1.19913e-08
2.32962e-08
-3.14777e-08
4.04222e-08
-5.11633e-08
5.51948e-08
-6.78393e-08
6.38087e-08
-8.16838e-08
6.6483e-08
-9.30621e-08
6.40106e-08
-1.02124e-07
5.79287e-08
-1.09689e-07
5.0187e-08
-1.16414e-07
4.28514e-08
-1.22056e-07
3.63059e-08
-1.26781e-07
3.0789e-08
-1.30828e-07
2.62999e-08
-1.3429e-07
2.2837e-08
-1.37301e-07
2.01466e-08
-1.3993e-07
1.8142e-08
-1.42309e-07
1.6629e-08
-1.44406e-07
1.52435e-08
-1.46252e-07
1.41404e-08
-1.47851e-07
1.30503e-08
-1.49209e-07
1.19813e-08
-1.5026e-07
1.08463e-08
-1.50896e-07
9.56905e-09
-1.5115e-07
8.1836e-09
-1.50924e-07
6.62969e-09
-1.50152e-07
4.77153e-09
-1.48795e-07
2.87712e-09
-1.4685e-07
8.16909e-10
-1.44265e-07
-1.5049e-09
-1.40897e-07
-4.15186e-09
-1.36717e-07
-6.80652e-09
-1.31735e-07
-9.68029e-09
-1.25671e-07
-1.33221e-08
-1.18474e-07
-1.67548e-08
-1.10225e-07
-2.02492e-08
-1.00924e-07
-2.38819e-08
-9.02789e-08
-2.84731e-08
-7.82468e-08
-3.3111e-08
-6.46643e-08
-3.81683e-08
-4.99009e-08
-4.24386e-08
-3.32274e-08
-4.91518e-08
-1.48906e-08
-5.52365e-08
5.59313e-09
-6.22561e-08
2.75543e-08
-6.69782e-08
5.18858e-08
-7.46658e-08
7.81501e-08
-8.1731e-08
1.06869e-07
-9.06493e-08
1.36843e-07
-9.56149e-08
1.69276e-07
-1.04094e-07
2.03236e-07
-1.09633e-07
2.39645e-07
-1.18059e-07
2.77293e-07
-1.22867e-07
3.17476e-07
-1.30445e-07
3.5925e-07
-1.37706e-07
4.02054e-07
-1.42123e-07
4.46496e-07
-1.47968e-07
4.91878e-07
-1.51812e-07
5.38453e-07
-1.56082e-07
5.85515e-07
-1.58607e-07
6.33377e-07
-1.61511e-07
6.81759e-07
-1.64049e-07
7.30571e-07
-1.66174e-07
7.79678e-07
-1.68434e-07
8.28554e-07
-1.68422e-07
8.77511e-07
-1.69474e-07
9.25973e-07
-1.68705e-07
9.74147e-07
-1.67923e-07
1.02185e-06
-1.67597e-07
1.06847e-06
-1.65032e-07
1.11459e-06
-1.63801e-07
1.15973e-06
-1.61793e-07
1.20394e-06
-1.58898e-07
1.24746e-06
-1.57277e-07
1.28971e-06
-1.53217e-07
1.33096e-06
-1.50693e-07
1.37081e-06
-1.45897e-07
1.40955e-06
-1.42304e-07
1.44688e-06
-1.37075e-07
1.48321e-06
-1.33548e-07
1.51819e-06
-1.28272e-07
1.55234e-06
-1.25539e-07
1.58517e-06
-1.21516e-07
1.61692e-06
-1.18508e-07
1.64723e-06
-1.13428e-07
1.6766e-06
-1.09949e-07
1.70468e-06
-1.05097e-07
1.73195e-06
-1.0187e-07
1.75813e-06
-9.77217e-08
1.78352e-06
-9.48863e-08
1.80788e-06
-9.09672e-08
1.83154e-06
-8.83234e-08
1.85423e-06
-8.46886e-08
1.87624e-06
-8.19735e-08
1.89738e-06
-7.88064e-08
1.91773e-06
-7.61523e-08
1.93722e-06
-7.30461e-08
1.95603e-06
-7.02273e-08
1.97422e-06
-6.77828e-08
1.99176e-06
-6.51197e-08
2.00887e-06
-6.29612e-08
2.02556e-06
-6.09186e-08
2.04176e-06
-5.89443e-08
2.05745e-06
-5.68316e-08
2.07278e-06
-5.51905e-08
2.08771e-06
-5.33366e-08
2.10227e-06
-5.18587e-08
2.11636e-06
-4.99567e-08
2.1301e-06
-4.85821e-08
2.14344e-06
-4.70234e-08
2.15668e-06
-4.59827e-08
2.16969e-06
-4.49002e-08
2.18243e-06
-4.37264e-08
2.19481e-06
-4.29207e-08
2.20636e-06
-4.086e-08
2.21685e-06
-3.74903e-08
2.22656e-06
-3.56601e-08
2.23513e-06
-3.07288e-08
2.24532e-06
-4.05244e-08
2.25523e-06
-3.05381e-08
2.26443e-06
-2.69802e-08
2.27451e-06
-3.42803e-08
2.2856e-06
-3.39476e-08
2.29631e-06
-3.29151e-08
2.30646e-06
-3.22939e-08
2.31615e-06
-3.14206e-08
2.32525e-06
-2.96117e-08
2.3341e-06
-2.88562e-08
2.34269e-06
-2.81726e-08
2.35119e-06
-2.77161e-08
2.35953e-06
-2.71253e-08
2.36755e-06
-2.62761e-08
2.37516e-06
-2.49789e-08
2.3825e-06
-2.41433e-08
2.38953e-06
-2.31154e-08
2.39649e-06
-2.26109e-08
2.40335e-06
-2.21426e-08
2.41003e-06
-2.14601e-08
2.41644e-06
-2.05061e-08
2.42273e-06
-1.99683e-08
2.42887e-06
-1.94382e-08
2.43483e-06
-1.88115e-08
2.44051e-06
-1.79543e-08
2.44585e-06
-1.7e-08
2.45077e-06
-1.5559e-08
2.45553e-06
-1.51709e-08
2.45981e-06
-1.31592e-08
2.46456e-06
-1.57218e-08
2.46916e-06
-1.3129e-08
2.47344e-06
-1.17771e-08
2.47779e-06
-1.29364e-08
2.48238e-06
-1.272e-08
2.48693e-06
-1.27531e-08
2.49156e-06
-1.2778e-08
2.49613e-06
-1.25195e-08
2.50067e-06
-1.24227e-08
2.50506e-06
-1.19833e-08
2.50938e-06
-1.18364e-08
2.51355e-06
-1.14128e-08
2.51754e-06
-1.09351e-08
2.52122e-06
-1.02809e-08
2.5247e-06
-9.68167e-09
2.52793e-06
-9.03477e-09
2.53082e-06
-8.02055e-09
2.53344e-06
-7.15486e-09
2.53586e-06
-6.64146e-09
2.53803e-06
-5.87358e-09
2.54007e-06
-5.43148e-09
2.54194e-06
-4.73902e-09
2.54407e-06
-5.4207e-09
2.54596e-06
-4.49347e-09
2.54789e-06
-4.41723e-09
2.54988e-06
-4.58241e-09
2.55206e-06
-5.11316e-09
2.55436e-06
-5.27146e-09
2.55679e-06
-5.64653e-09
2.55926e-06
-5.77646e-09
2.56173e-06
-5.81371e-09
2.56404e-06
-5.50662e-09
2.56613e-06
-5.21245e-09
2.56797e-06
-4.42492e-09
2.56951e-06
-3.90406e-09
2.57074e-06
-3.07038e-09
2.57165e-06
-2.07763e-09
2.5723e-06
-1.39489e-09
2.57278e-06
-9.32027e-10
2.57321e-06
-6.98556e-10
2.57359e-06
-5.10042e-10
2.57404e-06
-2.67479e-10
2.57452e-06
-2.88557e-10
2.57519e-06
-9.30196e-10
2.57596e-06
-1.14579e-09
2.57678e-06
-1.21227e-09
2.57771e-06
-1.42702e-09
2.57875e-06
-1.74131e-09
2.57981e-06
-1.87809e-09
2.58071e-06
-1.59183e-09
2.58144e-06
-1.26256e-09
2.58191e-06
-7.08745e-10
2.58206e-06
1.60365e-11
2.58207e-06
4.72043e-10
2.58182e-06
1.01248e-09
2.5814e-06
1.56279e-09
2.58089e-06
1.81079e-09
2.58038e-06
2.14586e-09
2.57983e-06
2.24296e-09
2.57939e-06
2.11415e-09
2.57907e-06
1.80039e-09
2.57894e-06
1.43077e-09
2.57886e-06
1.12202e-09
2.57885e-06
1.02165e-09
2.57891e-06
8.40131e-10
2.5789e-06
9.18307e-10
2.57887e-06
8.90914e-10
2.5786e-06
1.37982e-09
2.57821e-06
1.49515e-09
2.57724e-06
3.42361e-09
2.57631e-06
2.69842e-09
2.57543e-06
2.77019e-09
2.57439e-06
3.55314e-09
2.57319e-06
3.73835e-09
2.57204e-06
3.77061e-09
2.57091e-06
3.97919e-09
2.56989e-06
3.66695e-09
2.56896e-06
3.44021e-09
2.56813e-06
3.19794e-09
2.56735e-06
3.02631e-09
2.56671e-06
2.69086e-09
2.56606e-06
2.65897e-09
2.56545e-06
2.51948e-09
2.56462e-06
2.91079e-09
2.56376e-06
2.7422e-09
2.56239e-06
4.69479e-09
2.56111e-06
3.61017e-09
2.55988e-06
3.58075e-09
2.5583e-06
4.9325e-09
2.55666e-06
4.87131e-09
2.55507e-06
4.89302e-09
5.08046e-09
2.88997e-09
-2.71467e-08
-2.84684e-10
-6.28945e-09
-1.0522e-08
1.76927e-08
-2.74835e-08
4.02564e-08
-4.55211e-08
5.84586e-08
-6.10588e-08
7.07313e-08
-7.39485e-08
7.66971e-08
-8.43459e-08
7.6879e-08
-9.24181e-08
7.20814e-08
-9.89064e-08
6.44156e-08
-1.04466e-07
5.57453e-08
-1.09222e-07
4.76071e-08
-1.13262e-07
4.03453e-08
-1.16693e-07
3.42207e-08
-1.1967e-07
2.92778e-08
-1.22263e-07
2.54305e-08
-1.24542e-07
2.2427e-08
-1.26529e-07
2.01301e-08
-1.28278e-07
1.83794e-08
-1.29791e-07
1.67571e-08
-1.3106e-07
1.54105e-08
-1.32095e-07
1.40857e-08
-1.3282e-07
1.27067e-08
-1.33174e-07
1.11998e-08
-1.33174e-07
9.56852e-09
-1.32716e-07
7.72524e-09
-1.31667e-07
5.58033e-09
-1.29982e-07
3.0859e-09
-1.27635e-07
5.30032e-10
-1.24616e-07
-2.20305e-09
-1.20869e-07
-5.25296e-09
-1.1619e-07
-8.832e-09
-1.10542e-07
-1.24563e-08
-1.04008e-07
-1.62165e-08
-9.6208e-08
-2.11247e-08
-8.70863e-08
-2.58798e-08
-7.67306e-08
-3.06082e-08
-6.52141e-08
-3.54014e-08
-5.21217e-08
-4.1568e-08
-3.74106e-08
-4.78229e-08
-2.08068e-08
-5.47696e-08
-2.67979e-09
-6.05618e-08
1.72601e-08
-6.90875e-08
3.92106e-08
-7.71808e-08
6.37311e-08
-8.67673e-08
8.98972e-08
-9.31371e-08
1.18971e-07
-1.03738e-07
1.50167e-07
-1.12933e-07
1.84237e-07
-1.24735e-07
2.19586e-07
-1.30987e-07
2.58054e-07
-1.42589e-07
2.98126e-07
-1.49738e-07
3.41128e-07
-1.61095e-07
3.85099e-07
-1.66866e-07
4.32e-07
-1.77358e-07
4.80273e-07
-1.85976e-07
5.29342e-07
-1.9117e-07
5.80514e-07
-1.99101e-07
6.32269e-07
-2.03528e-07
6.85292e-07
-2.09072e-07
7.38402e-07
-2.11693e-07
7.92214e-07
-2.1531e-07
8.46231e-07
-2.18054e-07
9.00472e-07
-2.20414e-07
9.54611e-07
-2.22578e-07
1.00821e-06
-2.22044e-07
1.06154e-06
-2.22823e-07
1.11391e-06
-2.2109e-07
1.16569e-06
-2.19692e-07
1.21658e-06
-2.18471e-07
1.26612e-06
-2.14551e-07
1.31496e-06
-2.12636e-07
1.36239e-06
-2.09224e-07
1.40864e-06
-2.05145e-07
1.45389e-06
-2.02531e-07
1.4975e-06
-1.96849e-07
1.53982e-06
-1.93043e-07
1.58043e-06
-1.86544e-07
1.61972e-06
-1.81634e-07
1.65738e-06
-1.74763e-07
1.69393e-06
-1.7012e-07
1.72898e-06
-1.6333e-07
1.76303e-06
-1.59571e-07
1.79533e-06
-1.53785e-07
1.82633e-06
-1.49469e-07
1.85572e-06
-1.4276e-07
1.88421e-06
-1.38389e-07
1.91131e-06
-1.32146e-07
1.93766e-06
-1.28189e-07
1.96285e-06
-1.22905e-07
1.98723e-06
-1.19273e-07
2.01053e-06
-1.14287e-07
2.03315e-06
-1.1097e-07
2.05466e-06
-1.06237e-07
2.0755e-06
-1.02852e-07
2.09541e-06
-9.8733e-08
2.11447e-06
-9.52288e-08
2.13265e-06
-9.12243e-08
2.15018e-06
-8.7748e-08
2.16711e-06
-8.47004e-08
2.18342e-06
-8.1403e-08
2.19941e-06
-7.89443e-08
2.21503e-06
-7.65342e-08
2.23016e-06
-7.40911e-08
2.24484e-06
-7.15352e-08
2.2592e-06
-6.95811e-08
2.2732e-06
-6.7347e-08
2.28686e-06
-6.55224e-08
2.3001e-06
-6.31733e-08
2.31304e-06
-6.14892e-08
2.32559e-06
-5.95257e-08
2.33815e-06
-5.84864e-08
2.35053e-06
-5.72251e-08
2.36273e-06
-5.58879e-08
2.37444e-06
-5.45975e-08
2.38517e-06
-5.15812e-08
2.39477e-06
-4.71007e-08
2.40332e-06
-4.42356e-08
2.41142e-06
-3.8863e-08
2.41966e-06
-4.88043e-08
2.42929e-06
-4.02102e-08
2.43921e-06
-3.69238e-08
2.44856e-06
-4.36443e-08
2.45952e-06
-4.48986e-08
2.47019e-06
-4.35634e-08
2.48024e-06
-4.23049e-08
2.48973e-06
-4.0864e-08
2.49863e-06
-3.84768e-08
2.5073e-06
-3.75042e-08
2.51568e-06
-3.65559e-08
2.524e-06
-3.60593e-08
2.53214e-06
-3.52937e-08
2.53992e-06
-3.41145e-08
2.5473e-06
-3.24078e-08
2.5544e-06
-3.13001e-08
2.56116e-06
-2.99248e-08
2.56792e-06
-2.9395e-08
2.57456e-06
-2.87984e-08
2.58103e-06
-2.79302e-08
2.58725e-06
-2.66989e-08
2.59338e-06
-2.60804e-08
2.59937e-06
-2.53968e-08
2.60518e-06
-2.45861e-08
2.61068e-06
-2.34389e-08
2.6158e-06
-2.21081e-08
2.62055e-06
-2.03133e-08
2.62504e-06
-1.96686e-08
2.62922e-06
-1.73605e-08
2.6335e-06
-2.00279e-08
2.63801e-06
-1.76747e-08
2.64235e-06
-1.61395e-08
2.64649e-06
-1.71091e-08
2.65096e-06
-1.7201e-08
2.65548e-06
-1.72851e-08
2.6601e-06
-1.73923e-08
2.66467e-06
-1.70772e-08
2.66922e-06
-1.69478e-08
2.67363e-06
-1.63665e-08
2.67799e-06
-1.61582e-08
2.68218e-06
-1.5575e-08
2.68619e-06
-1.49099e-08
2.68985e-06
-1.39236e-08
2.69331e-06
-1.31254e-08
2.6965e-06
-1.22119e-08
2.6993e-06
-1.08186e-08
2.70185e-06
-9.70941e-09
2.70417e-06
-8.96716e-09
2.70621e-06
-7.92972e-09
2.70812e-06
-7.35085e-09
2.7099e-06
-6.52819e-09
2.71187e-06
-7.40389e-09
2.71371e-06
-6.33214e-09
2.71562e-06
-6.32505e-09
2.71762e-06
-6.5867e-09
2.71984e-06
-7.3217e-09
2.7222e-06
-7.6308e-09
2.72473e-06
-8.17116e-09
2.72732e-06
-8.36838e-09
2.72995e-06
-8.43883e-09
2.73235e-06
-7.91064e-09
2.73453e-06
-7.40554e-09
2.73641e-06
-6.30707e-09
2.73798e-06
-5.47594e-09
2.7392e-06
-4.28727e-09
2.74006e-06
-2.93874e-09
2.74066e-06
-1.9987e-09
2.74106e-06
-1.32168e-09
2.74142e-06
-1.0471e-09
2.74172e-06
-8.07418e-10
2.74213e-06
-6.86272e-10
2.74262e-06
-7.78592e-10
2.74326e-06
-1.5773e-09
2.74405e-06
-1.93401e-09
2.74494e-06
-2.10058e-09
2.74595e-06
-2.44311e-09
2.74708e-06
-2.87184e-09
2.74824e-06
-3.02598e-09
2.74921e-06
-2.5608e-09
2.74999e-06
-2.04185e-09
2.75048e-06
-1.19198e-09
2.75062e-06
-1.26107e-10
2.75059e-06
5.10501e-10
2.75025e-06
1.34563e-09
2.74976e-06
2.0552e-09
2.74914e-06
2.42613e-09
2.74852e-06
2.76547e-09
2.74792e-06
2.84682e-09
2.74744e-06
2.5852e-09
2.74709e-06
2.15029e-09
2.74694e-06
1.58254e-09
2.74688e-06
1.18456e-09
2.74687e-06
1.02895e-09
2.74697e-06
7.348e-10
2.74698e-06
9.06134e-10
2.74697e-06
8.98528e-10
2.7467e-06
1.65608e-09
2.7462e-06
1.99349e-09
2.74524e-06
4.38745e-09
2.74414e-06
3.7987e-09
2.74309e-06
3.81665e-09
2.74197e-06
4.68359e-09