/*--------------------------------*- C++ -*----------------------------------*\
| =========                 |                                                 |
| \\      /  F ield         | OpenFOAM: The Open Source CFD Toolbox           |
|  \\    /   O peration     | Version:  2312                                  |
|   \\  /    A nd           | Website:  www.openfoam.com                      |
|    \\/     M anipulation  |                                                 |
\*---------------------------------------------------------------------------*/
FoamFile
{
    version     2.0;
    format      ascii;
    arch        "LSB;label=32;scalar=64";
    class       volScalarField;
    location    "0.004";
    object      rho;
}
// * * * * * * * * * * * * * * * * * * * * * * * * * * * * * * * * * * * * * //

dimensions      [1 -3 0 0 0 0 0];

internalField   nonuniform List<scalar> 
48128
(
0.0351693
0.035167
0.0351342
0.0351226
0.03511
0.0350897
0.0350638
0.0350202
0.0349416
0.0348336
0.0346183
0.0343741
0.0341486
0.0339644
0.0338241
0.0337336
0.033681
0.0336634
0.0336892
0.0337576
0.0338601
0.0340018
0.0341861
0.0344174
0.034701
0.0350428
0.0354442
0.035914
0.0364571
0.0370761
0.0377698
0.0385389
0.0393906
0.0403279
0.0413522
0.0424648
0.0436546
0.0449337
0.0463003
0.0477477
0.0492847
0.0509
0.0526247
0.0544123
0.0563004
0.0582436
0.0603012
0.0624149
0.0646337
0.066881
0.0692241
0.0715888
0.0740313
0.0764695
0.0789803
0.081478
0.0839981
0.0865212
0.0890407
0.0915484
0.0940302
0.096484
0.0989069
0.101291
0.103642
0.105935
0.10818
0.110376
0.11249
0.114559
0.116553
0.118464
0.120336
0.122084
0.123808
0.125386
0.126953
0.12837
0.129785
0.131061
0.132356
0.133523
0.134708
0.135772
0.136825
0.13775
0.138675
0.139513
0.140355
0.141119
0.141889
0.142576
0.143263
0.14388
0.144489
0.145046
0.145577
0.146049
0.146484
0.146899
0.147289
0.147673
0.148052
0.148422
0.148784
0.14914
0.149491
0.149835
0.150162
0.150475
0.150777
0.151088
0.151408
0.151723
0.152044
0.152307
0.152435
0.152493
0.152393
0.152253
0.152808
0.152889
0.153006
0.153446
0.153808
0.154151
0.154474
0.154734
0.154959
0.15518
0.155405
0.155629
0.155855
0.156036
0.156207
0.156351
0.156497
0.156643
0.156791
0.156915
0.157039
0.157159
0.157282
0.15738
0.157474
0.157515
0.157542
0.157526
0.157505
0.157618
0.157632
0.157647
0.157713
0.157773
0.157863
0.157953
0.15805
0.158145
0.158244
0.158337
0.158427
0.158501
0.158557
0.158604
0.158626
0.158618
0.158601
0.15857
0.15853
0.158479
0.158412
0.158406
0.158384
0.158377
0.158385
0.158421
0.158468
0.15854
0.158622
0.158699
0.158771
0.158821
0.158864
0.158868
0.158852
0.158822
0.158774
0.158717
0.158663
0.158613
0.158576
0.158553
0.158558
0.158576
0.158603
0.158645
0.1587
0.158754
0.158797
0.158831
0.158833
0.158818
0.15879
0.15875
0.158697
0.158647
0.158601
0.15856
0.158542
0.158531
0.158536
0.158556
0.158588
0.158621
0.158656
0.158677
0.158691
0.158701
0.158642
0.158609
0.158572
0.158519
0.158471
0.158425
0.158392
0.158375
0.158366
0.158364
0.158375
0.158395
0.158424
0.158443
0.158465
0.158477
0.158429
0.158411
0.158377
0.158323
0.158274
0.158206
0.0351695
0.0351713
0.0351357
0.0351249
0.0351253
0.0351092
0.0351001
0.0350938
0.0350342
0.0349314
0.0347622
0.0345866
0.0344354
0.0343139
0.0342355
0.0341794
0.0341543
0.0341584
0.034198
0.0342738
0.0343779
0.0345149
0.0346886
0.0349037
0.0351663
0.0354836
0.0358585
0.0362944
0.0367972
0.0373685
0.0380154
0.0387369
0.0395362
0.0404178
0.0413854
0.0424392
0.0435732
0.0447975
0.0461117
0.0475118
0.0490052
0.05058
0.0522681
0.0540335
0.0559078
0.0578486
0.0599055
0.0620322
0.0642742
0.0665666
0.0689626
0.0714021
0.0739269
0.0764687
0.0790856
0.0817155
0.0843845
0.0870704
0.0897632
0.0924576
0.0951403
0.0978109
0.100465
0.103096
0.105705
0.108268
0.110792
0.113264
0.115657
0.118013
0.120297
0.122497
0.124657
0.126691
0.128702
0.130565
0.132416
0.134113
0.135808
0.137362
0.138931
0.140375
0.141832
0.143159
0.144466
0.145646
0.146818
0.147906
0.14899
0.149996
0.150998
0.151917
0.152828
0.153671
0.154501
0.155279
0.156022
0.156701
0.157346
0.157965
0.158558
0.159146
0.159726
0.160294
0.160852
0.161398
0.161941
0.162469
0.162984
0.163475
0.163954
0.164442
0.164939
0.165424
0.165912
0.16633
0.166603
0.166807
0.166845
0.166866
0.167615
0.167849
0.168155
0.168734
0.169244
0.169705
0.170155
0.170537
0.170881
0.171219
0.17156
0.171898
0.172235
0.172523
0.1728
0.173048
0.173299
0.173551
0.173802
0.174027
0.17425
0.174468
0.174685
0.174875
0.175057
0.17518
0.175296
0.175369
0.175446
0.175665
0.175776
0.175897
0.176054
0.176218
0.176397
0.176585
0.176773
0.176957
0.177142
0.177315
0.177485
0.177629
0.17775
0.177866
0.177947
0.177998
0.178038
0.178064
0.178079
0.178078
0.17807
0.178113
0.17814
0.17818
0.178245
0.178325
0.178422
0.178545
0.178676
0.178801
0.178913
0.179005
0.179075
0.179108
0.179111
0.179099
0.179067
0.179023
0.178992
0.178952
0.178931
0.178925
0.178953
0.178993
0.179043
0.179108
0.179186
0.179261
0.179322
0.179371
0.17938
0.179371
0.179347
0.179306
0.179254
0.179199
0.179152
0.179109
0.179094
0.179087
0.179098
0.179125
0.179164
0.179202
0.179241
0.179263
0.179276
0.179275
0.179209
0.179168
0.17912
0.179058
0.178999
0.178941
0.178899
0.178875
0.17886
0.178854
0.178859
0.178874
0.178898
0.178911
0.178923
0.178916
0.178855
0.178825
0.178772
0.1787
0.178634
0.17854
0.0351753
0.0351663
0.0351281
0.0351299
0.0351314
0.0351426
0.0351673
0.0351576
0.0351022
0.035005
0.0348591
0.034708
0.0345452
0.0343956
0.0342725
0.0341922
0.034148
0.0341316
0.0341503
0.0342029
0.0342829
0.0343941
0.0345413
0.0347306
0.0349695
0.0352591
0.0356082
0.0360145
0.036488
0.0370278
0.0376421
0.0383355
0.0391086
0.039965
0.0409131
0.0419471
0.0430654
0.0442753
0.0455796
0.0469742
0.0484681
0.0500469
0.051745
0.0535299
0.0554316
0.0574091
0.059507
0.0616874
0.0639956
0.0663689
0.0688572
0.0713997
0.0740387
0.0767032
0.079454
0.0822353
0.0850574
0.087909
0.0907756
0.0936515
0.0965227
0.0993865
0.102238
0.10507
0.10788
0.110643
0.113367
0.116034
0.118631
0.121186
0.123661
0.126049
0.128389
0.130595
0.132776
0.134801
0.136811
0.138657
0.140498
0.142192
0.143897
0.145473
0.147062
0.14851
0.149927
0.151212
0.152487
0.153673
0.154854
0.155952
0.157044
0.158049
0.159043
0.159967
0.160877
0.161733
0.162552
0.163299
0.164014
0.1647
0.16536
0.166015
0.166662
0.167297
0.16792
0.168532
0.169141
0.169735
0.170315
0.170871
0.171413
0.171965
0.17253
0.173081
0.173635
0.174107
0.174434
0.174682
0.174779
0.174823
0.175602
0.175942
0.176317
0.176946
0.177544
0.178078
0.17859
0.179031
0.179434
0.179827
0.180221
0.18061
0.180998
0.181334
0.181658
0.181951
0.182247
0.182544
0.182841
0.183112
0.18338
0.183643
0.183904
0.184136
0.184358
0.184519
0.18467
0.18478
0.184886
0.185138
0.185294
0.185452
0.185647
0.185854
0.186075
0.186305
0.186536
0.186762
0.186989
0.187201
0.187412
0.187591
0.187747
0.187895
0.188007
0.188086
0.188152
0.188203
0.188241
0.188264
0.188282
0.188351
0.188408
0.188474
0.188568
0.188676
0.188806
0.188953
0.18911
0.189264
0.1894
0.189512
0.189604
0.189651
0.189669
0.189671
0.189651
0.18962
0.189596
0.189574
0.189563
0.189577
0.189614
0.189667
0.189732
0.189812
0.189906
0.189995
0.190066
0.190125
0.190141
0.190138
0.190116
0.190076
0.190025
0.189975
0.189929
0.189888
0.189877
0.189875
0.18989
0.189923
0.189968
0.190011
0.190053
0.190077
0.190089
0.190087
0.190016
0.18997
0.189919
0.189852
0.189787
0.189726
0.189682
0.189655
0.189638
0.189629
0.189633
0.189647
0.18967
0.189679
0.189685
0.189674
0.189602
0.189562
0.1895
0.189419
0.189343
0.189235
0.0351861
0.0351458
0.035123
0.0351251
0.0351629
0.0352054
0.0352226
0.0351999
0.0351223
0.0349984
0.0348306
0.0346322
0.0344544
0.0343055
0.0341802
0.0340926
0.0340371
0.034006
0.0340086
0.0340428
0.0341046
0.0341974
0.0343273
0.0345
0.0347195
0.0349881
0.0353163
0.0357001
0.036152
0.0366724
0.0372679
0.0379452
0.0387023
0.0395429
0.0404803
0.041504
0.0426163
0.0438216
0.0451277
0.0465284
0.0480359
0.0496306
0.0513596
0.0531799
0.0551281
0.0571562
0.0593236
0.0615851
0.0639919
0.0664681
0.0690817
0.0717549
0.0745457
0.0773655
0.0802889
0.0832565
0.0862604
0.0893071
0.0923761
0.0954588
0.0985419
0.101621
0.104689
0.107737
0.110761
0.113727
0.11666
0.119522
0.122315
0.12506
0.127707
0.130271
0.13277
0.135125
0.137453
0.139609
0.141748
0.143705
0.145655
0.14745
0.14925
0.150915
0.152598
0.15412
0.1556
0.156937
0.158263
0.159495
0.160723
0.161859
0.162989
0.164024
0.165051
0.166
0.166937
0.167815
0.168655
0.169416
0.170147
0.170848
0.171521
0.172189
0.17285
0.173498
0.174136
0.174762
0.175384
0.175993
0.176586
0.177159
0.177717
0.178285
0.178867
0.17944
0.180013
0.180491
0.180828
0.181077
0.181204
0.181237
0.181954
0.182379
0.182792
0.183416
0.184054
0.184626
0.18516
0.185623
0.186052
0.186467
0.186881
0.187289
0.187694
0.188046
0.188388
0.188697
0.189007
0.18932
0.189633
0.18992
0.190205
0.190484
0.190763
0.19101
0.191246
0.191421
0.191582
0.191709
0.191822
0.192073
0.192254
0.192426
0.192632
0.192855
0.193092
0.193339
0.193587
0.19383
0.194075
0.194304
0.194532
0.194727
0.194898
0.19506
0.195183
0.195273
0.195349
0.195409
0.195455
0.195488
0.195513
0.195591
0.195661
0.19574
0.195846
0.195966
0.196113
0.196273
0.196444
0.196613
0.19676
0.196883
0.196985
0.19704
0.197064
0.197073
0.197058
0.197033
0.197011
0.196996
0.196992
0.197015
0.197057
0.197116
0.197189
0.197278
0.19738
0.197478
0.197556
0.197621
0.197638
0.197639
0.197617
0.197578
0.197525
0.197476
0.19743
0.19739
0.197381
0.197381
0.197399
0.197434
0.197483
0.197528
0.197573
0.197598
0.197608
0.197605
0.197534
0.197481
0.197427
0.197356
0.197287
0.197221
0.197175
0.197146
0.197127
0.197117
0.197119
0.197131
0.197153
0.19716
0.197162
0.197148
0.197071
0.197022
0.196953
0.196865
0.196781
0.196663
0.0351918
0.035129
0.0351218
0.0351507
0.0352155
0.0352485
0.0352454
0.0351856
0.0350715
0.0349097
0.0347097
0.034514
0.0343334
0.0341778
0.0340495
0.0339542
0.033889
0.0338486
0.0338398
0.033861
0.03391
0.0339905
0.0341079
0.034266
0.0344697
0.0347228
0.0350324
0.0354013
0.0358376
0.0363435
0.0369253
0.0375917
0.0383377
0.0391676
0.0401018
0.0411235
0.042239
0.0434508
0.0447734
0.0461951
0.047735
0.0493586
0.0511509
0.0530353
0.0550678
0.05718
0.0594641
0.0618541
0.0644126
0.0670356
0.0698307
0.0726909
0.0757009
0.0787409
0.0819116
0.0851199
0.0883711
0.0916778
0.0950095
0.0983626
0.101711
0.105061
0.108394
0.1117
0.114974
0.11817
0.121338
0.124406
0.127407
0.130343
0.133155
0.135896
0.138545
0.14104
0.143503
0.145766
0.148015
0.150052
0.152085
0.153945
0.15581
0.157528
0.15927
0.160822
0.162325
0.163673
0.165015
0.166253
0.167491
0.168628
0.16976
0.170789
0.171812
0.172748
0.173673
0.174531
0.175352
0.176087
0.1768
0.177477
0.178128
0.178776
0.179417
0.180044
0.180661
0.181268
0.181869
0.182459
0.183032
0.18359
0.184132
0.184686
0.185255
0.185819
0.18638
0.186828
0.187145
0.187368
0.187502
0.187509
0.188116
0.188605
0.189047
0.189638
0.19028
0.19086
0.191389
0.19185
0.192284
0.192698
0.19311
0.193516
0.193916
0.194264
0.194603
0.194908
0.195214
0.195523
0.195831
0.196116
0.1964
0.196677
0.196954
0.197198
0.19743
0.197603
0.197759
0.197888
0.197995
0.198226
0.198417
0.198592
0.198793
0.199016
0.199253
0.199501
0.199751
0.199997
0.200245
0.200476
0.200707
0.200904
0.201077
0.201239
0.201361
0.201452
0.201528
0.201585
0.20163
0.201662
0.201683
0.201759
0.201832
0.201913
0.20202
0.202144
0.202294
0.202459
0.202635
0.202808
0.20296
0.203085
0.20319
0.203245
0.203269
0.203279
0.203263
0.203237
0.203213
0.203197
0.203195
0.203219
0.203261
0.203322
0.203398
0.203491
0.203595
0.203696
0.203774
0.203843
0.203858
0.20386
0.203834
0.203794
0.203739
0.203685
0.203638
0.203597
0.203587
0.203586
0.203603
0.203638
0.203687
0.203733
0.203777
0.203801
0.203808
0.203803
0.203732
0.203671
0.203612
0.203537
0.203463
0.203393
0.203343
0.20331
0.203288
0.203275
0.203275
0.203285
0.203304
0.203309
0.203305
0.20329
0.203209
0.20315
0.203075
0.202981
0.202889
0.202761
0.035226
0.035133
0.0351583
0.0352073
0.0352546
0.0352678
0.0352233
0.0351197
0.0349688
0.0347801
0.0345732
0.0343758
0.0341931
0.0340346
0.0339041
0.0338045
0.0337333
0.0336876
0.0336712
0.0336832
0.0337235
0.0337937
0.0338994
0.0340441
0.0342339
0.0344721
0.0347668
0.0351241
0.035548
0.0360425
0.0366139
0.0372746
0.0380155
0.0388408
0.0397827
0.040814
0.0419436
0.0431788
0.0445384
0.0460065
0.0476123
0.0493007
0.0511756
0.053165
0.055335
0.0575892
0.0600599
0.0626513
0.0654452
0.0683005
0.0713741
0.0745127
0.0778476
0.0812075
0.0847494
0.0882703
0.0918776
0.0955622
0.0992489
0.102979
0.106682
0.110394
0.114071
0.117702
0.121287
0.124758
0.128203
0.131502
0.134734
0.137867
0.140844
0.143766
0.146548
0.149164
0.151736
0.154064
0.156382
0.158449
0.160515
0.162383
0.164259
0.165962
0.167702
0.169212
0.170679
0.171983
0.173291
0.174483
0.175685
0.176772
0.177859
0.178833
0.179805
0.180677
0.181546
0.182337
0.183097
0.183766
0.184422
0.185039
0.185635
0.18623
0.186815
0.187386
0.187946
0.188501
0.189047
0.189587
0.190108
0.190621
0.191118
0.19163
0.192155
0.192682
0.1932
0.193584
0.193852
0.194019
0.194141
0.194107
0.194581
0.195106
0.195563
0.196104
0.196704
0.197266
0.197769
0.198208
0.198629
0.199022
0.199413
0.199796
0.200168
0.200492
0.20081
0.201093
0.201379
0.201664
0.201948
0.202214
0.20248
0.202737
0.202996
0.20322
0.203431
0.203587
0.203723
0.20384
0.20393
0.204125
0.204314
0.204478
0.204663
0.204873
0.205097
0.205333
0.205573
0.205808
0.206048
0.206269
0.20649
0.206677
0.206842
0.206992
0.207103
0.207185
0.20725
0.207296
0.207329
0.207353
0.207361
0.207423
0.207491
0.207566
0.207665
0.207783
0.207928
0.208089
0.208261
0.208429
0.208578
0.208697
0.208799
0.208845
0.208863
0.208868
0.208846
0.208813
0.208782
0.208758
0.208752
0.208769
0.208806
0.208865
0.208939
0.209029
0.209129
0.209227
0.209303
0.209368
0.209378
0.209376
0.209345
0.209299
0.209237
0.209178
0.209126
0.209081
0.209067
0.209061
0.209074
0.209105
0.209151
0.209194
0.209235
0.209255
0.209257
0.209247
0.209174
0.209104
0.209037
0.208957
0.208876
0.2088
0.208745
0.208707
0.20868
0.208663
0.208659
0.208664
0.208679
0.208681
0.208669
0.20865
0.208566
0.208497
0.208414
0.208315
0.208215
0.208075
0.0352701
0.0351923
0.0352186
0.0352577
0.0352816
0.035254
0.0351639
0.0350269
0.0348504
0.0346402
0.0344284
0.0342298
0.0340481
0.0338905
0.0337607
0.0336598
0.0335855
0.0335365
0.0335146
0.0335184
0.0335505
0.0336104
0.0337041
0.0338368
0.0340141
0.0342395
0.034522
0.0348709
0.0352863
0.0357731
0.0363379
0.0370001
0.0377452
0.0385728
0.0395382
0.0406003
0.0417611
0.0430421
0.044466
0.0460151
0.0477251
0.0495262
0.0515527
0.0537114
0.0561002
0.0585906
0.061354
0.0642583
0.0674084
0.0706363
0.0741546
0.0776977
0.081511
0.085313
0.0894034
0.0933395
0.0974443
0.101682
0.105862
0.110081
0.114281
0.11847
0.122612
0.12666
0.130638
0.134444
0.138227
0.141788
0.145301
0.14865
0.151802
0.154907
0.157776
0.160488
0.163112
0.165435
0.167756
0.169777
0.171795
0.173594
0.175396
0.176998
0.178643
0.180014
0.181359
0.182534
0.183728
0.184789
0.185877
0.18683
0.187795
0.188633
0.189481
0.190215
0.19097
0.191628
0.192273
0.192824
0.193373
0.193879
0.194374
0.194872
0.195354
0.195826
0.196292
0.196757
0.197214
0.197667
0.198104
0.19854
0.198962
0.199405
0.199855
0.200316
0.200751
0.201033
0.201218
0.201306
0.201399
0.201306
0.201656
0.202153
0.202619
0.203084
0.203609
0.204122
0.204581
0.204979
0.205371
0.205722
0.206075
0.206412
0.206734
0.207016
0.207294
0.207537
0.207789
0.20803
0.208272
0.208501
0.208735
0.208955
0.209178
0.209365
0.209539
0.209664
0.209765
0.209857
0.209917
0.210065
0.210233
0.210375
0.210535
0.210718
0.210917
0.211127
0.211344
0.211556
0.211777
0.211975
0.212176
0.212341
0.212487
0.212615
0.212704
0.212767
0.212811
0.212835
0.212849
0.212857
0.212843
0.21288
0.212934
0.212995
0.213078
0.213182
0.213312
0.213461
0.213622
0.213775
0.213913
0.214017
0.214109
0.214139
0.214146
0.214137
0.214102
0.214056
0.214013
0.213975
0.213958
0.213963
0.213991
0.21404
0.214107
0.214189
0.214278
0.214367
0.214434
0.21449
0.214493
0.214479
0.214439
0.214383
0.214312
0.214243
0.214182
0.214129
0.214107
0.214093
0.214097
0.214122
0.214161
0.214197
0.21423
0.214243
0.214236
0.214219
0.214143
0.214061
0.213984
0.213896
0.213807
0.213722
0.21366
0.213614
0.21358
0.213556
0.213546
0.213544
0.213552
0.213548
0.213528
0.213504
0.213416
0.213334
0.213243
0.213136
0.213027
0.212874
0.0353482
0.0352641
0.0352803
0.0352989
0.0352845
0.0352119
0.0350895
0.0349287
0.0347201
0.0344985
0.0342857
0.0340876
0.0339097
0.0337561
0.0336285
0.0335272
0.033451
0.0333997
0.0333729
0.033368
0.0333917
0.033442
0.033525
0.033647
0.0338142
0.0340291
0.034302
0.0346469
0.0350588
0.0355436
0.0361063
0.0367809
0.0375506
0.0383878
0.0393921
0.0405138
0.0417496
0.0430921
0.0446294
0.0463108
0.0481961
0.0501938
0.0524782
0.054919
0.0576401
0.0605011
0.0637079
0.0670558
0.0707025
0.0744548
0.0786369
0.0827161
0.0871662
0.0915422
0.0963211
0.100848
0.105615
0.110499
0.11532
0.120137
0.124971
0.129726
0.134439
0.13897
0.143421
0.147626
0.151831
0.155692
0.159546
0.163098
0.166466
0.169755
0.172671
0.175519
0.17811
0.18042
0.182681
0.184621
0.186524
0.1882
0.189842
0.191285
0.192755
0.193897
0.195043
0.195981
0.196965
0.197779
0.198667
0.199376
0.200129
0.200729
0.20136
0.201856
0.202418
0.202849
0.203305
0.203661
0.204029
0.20435
0.204672
0.205013
0.205325
0.205647
0.205973
0.206304
0.206627
0.206949
0.20726
0.207581
0.207888
0.208228
0.208564
0.208921
0.209218
0.20936
0.209428
0.209417
0.209463
0.209302
0.209526
0.209934
0.210399
0.210771
0.211187
0.21161
0.212009
0.212346
0.212692
0.212979
0.213274
0.213541
0.213794
0.214016
0.214237
0.214422
0.214623
0.214801
0.214982
0.215157
0.215344
0.21551
0.215679
0.215812
0.215933
0.216012
0.216065
0.216118
0.216136
0.216228
0.216355
0.216465
0.216587
0.21673
0.21689
0.217063
0.217245
0.217423
0.217613
0.217776
0.217945
0.218075
0.218196
0.218288
0.218345
0.218381
0.218393
0.218386
0.218371
0.218352
0.218308
0.218314
0.218344
0.218383
0.218441
0.218523
0.21863
0.21876
0.218899
0.219029
0.219147
0.219228
0.219301
0.219308
0.219297
0.219268
0.219215
0.21915
0.219087
0.219028
0.218996
0.218986
0.218997
0.219031
0.219083
0.21915
0.219223
0.219296
0.21935
0.21939
0.219381
0.219352
0.219297
0.219228
0.219143
0.21906
0.218986
0.218921
0.218886
0.21886
0.218853
0.218865
0.218894
0.218919
0.218941
0.218943
0.218922
0.218896
0.218812
0.218717
0.218626
0.218527
0.218427
0.218332
0.21826
0.218204
0.21816
0.218126
0.218107
0.218097
0.218095
0.218082
0.218052
0.21802
0.217926
0.21783
0.217728
0.217613
0.217493
0.217325
0.035413
0.035339
0.0353341
0.035321
0.035265
0.0351583
0.0350126
0.0348186
0.0345892
0.0343661
0.034153
0.0339578
0.0337846
0.0336353
0.0335105
0.0334099
0.0333326
0.0332786
0.0332466
0.0332336
0.0332488
0.0332913
0.0333652
0.033478
0.0336382
0.0338458
0.0341123
0.0344588
0.0348743
0.0353685
0.0359364
0.0366304
0.037453
0.038328
0.0393995
0.0406051
0.0419629
0.0434437
0.0451732
0.0470678
0.0492199
0.0515313
0.0542007
0.0570518
0.0602302
0.063618
0.0674901
0.0713578
0.0756439
0.0800288
0.0850101
0.0897541
0.0949451
0.100008
0.105553
0.110933
0.116406
0.121958
0.127487
0.132957
0.138457
0.143789
0.149085
0.154089
0.15899
0.16357
0.168142
0.17231
0.176481
0.180176
0.183823
0.187224
0.190217
0.193223
0.19575
0.198117
0.200298
0.202205
0.204002
0.205596
0.207093
0.208409
0.209705
0.210646
0.211571
0.212259
0.213009
0.213543
0.214193
0.214619
0.2151
0.215428
0.215769
0.215973
0.216256
0.216389
0.216547
0.216632
0.216738
0.216797
0.216872
0.216976
0.217052
0.217159
0.217287
0.217418
0.217548
0.217678
0.217811
0.217955
0.218099
0.21829
0.218467
0.218667
0.218762
0.218733
0.218644
0.218526
0.218453
0.21826
0.21834
0.218651
0.219037
0.219289
0.219573
0.219872
0.220176
0.220436
0.220707
0.220914
0.221132
0.221309
0.221472
0.221616
0.221757
0.221871
0.221998
0.2221
0.222201
0.222307
0.222426
0.222522
0.222621
0.222681
0.222734
0.222751
0.222744
0.222739
0.222707
0.222732
0.222802
0.222867
0.222941
0.223028
0.223138
0.223261
0.223395
0.223527
0.223674
0.223792
0.223915
0.224001
0.224084
0.224129
0.224145
0.224143
0.224113
0.224067
0.224015
0.223956
0.223878
0.223847
0.223842
0.223847
0.223874
0.223927
0.224005
0.224103
0.224212
0.224309
0.224399
0.224452
0.224496
0.224473
0.224437
0.224381
0.224305
0.224214
0.224125
0.224042
0.223988
0.223955
0.223942
0.223953
0.223986
0.224033
0.224083
0.224134
0.224168
0.224189
0.224159
0.224112
0.224038
0.22395
0.223848
0.223746
0.223655
0.223574
0.223523
0.22348
0.223457
0.223453
0.223466
0.223476
0.223482
0.223468
0.223431
0.223393
0.223297
0.223186
0.223079
0.222966
0.222853
0.222744
0.22266
0.22259
0.222533
0.222488
0.222457
0.222434
0.222419
0.222396
0.222352
0.222311
0.222208
0.222097
0.221981
0.221855
0.221724
0.221538
0.0354635
0.0353988
0.0353739
0.0353256
0.0352359
0.0351
0.0349304
0.034704
0.0344707
0.0342466
0.0340352
0.0338446
0.0336761
0.0335307
0.0334086
0.0333093
0.0332315
0.0331735
0.0331351
0.0331168
0.0331249
0.0331607
0.0332272
0.0333329
0.0334903
0.033696
0.033959
0.0343177
0.0347434
0.0352562
0.0358532
0.0365995
0.0374842
0.0384393
0.0396393
0.0409905
0.0425361
0.0442405
0.0462556
0.0484708
0.0509937
0.0537636
0.0569855
0.060329
0.0640741
0.0680703
0.0727756
0.0772609
0.0822672
0.0873555
0.0930726
0.098592
0.104576
0.110364
0.116628
0.122917
0.128987
0.135101
0.141213
0.147264
0.153264
0.159124
0.164762
0.170208
0.175352
0.180283
0.184991
0.189473
0.193803
0.197649
0.201532
0.204976
0.208123
0.211192
0.213727
0.216194
0.218356
0.220264
0.222065
0.223605
0.225099
0.226367
0.227631
0.228405
0.229291
0.229793
0.230466
0.230777
0.231285
0.231495
0.231781
0.231901
0.232032
0.232008
0.232053
0.231899
0.231795
0.231604
0.231453
0.231236
0.231045
0.230877
0.230673
0.230514
0.230384
0.230256
0.230137
0.230017
0.229919
0.229833
0.229772
0.229757
0.229719
0.229714
0.229534
0.229295
0.229032
0.228787
0.228562
0.228305
0.228234
0.228399
0.228629
0.228728
0.228849
0.228997
0.229176
0.229336
0.229514
0.229622
0.229742
0.229804
0.229856
0.229901
0.229943
0.229966
0.230004
0.230009
0.230013
0.230031
0.230066
0.230073
0.230085
0.230053
0.230022
0.229962
0.229882
0.229805
0.229714
0.229663
0.229655
0.22966
0.229673
0.229696
0.229742
0.229801
0.229875
0.22995
0.230041
0.230102
0.230168
0.2302
0.230233
0.23022
0.230183
0.230134
0.230053
0.229961
0.229861
0.229755
0.229634
0.229555
0.229508
0.229473
0.22946
0.229474
0.229514
0.229572
0.22964
0.229699
0.22975
0.229768
0.229777
0.229716
0.229647
0.229559
0.229452
0.22933
0.229208
0.229096
0.229015
0.228952
0.228909
0.228892
0.228898
0.228918
0.22894
0.228963
0.228971
0.228966
0.22891
0.228842
0.228744
0.228632
0.228508
0.228384
0.228272
0.22817
0.228097
0.228034
0.22799
0.227966
0.227958
0.22795
0.227936
0.227901
0.227845
0.227791
0.227678
0.22755
0.227422
0.227291
0.227163
0.227038
0.226938
0.226852
0.226779
0.226719
0.226673
0.226636
0.226604
0.226567
0.226507
0.226454
0.226338
0.226211
0.22608
0.225941
0.225796
0.22559
0.0354913
0.0354336
0.0353918
0.0353171
0.0351994
0.0350353
0.0348443
0.0345996
0.034367
0.0341425
0.0339353
0.0337495
0.0335857
0.0334442
0.0333245
0.0332257
0.033146
0.033084
0.0330414
0.0330192
0.0330215
0.0330523
0.0331137
0.033215
0.0333752
0.0335886
0.033849
0.0342317
0.0346869
0.0352429
0.0358906
0.0367299
0.037734
0.0388166
0.0402159
0.0417892
0.0436045
0.0456419
0.0480466
0.0506991
0.0536735
0.0569771
0.0609366
0.0647923
0.0692101
0.0738284
0.0793338
0.0845404
0.0903016
0.0959971
0.102259
0.108523
0.115134
0.121601
0.128373
0.135346
0.141856
0.148478
0.154757
0.161226
0.167336
0.173529
0.179325
0.185032
0.190327
0.195423
0.200201
0.204807
0.209203
0.213207
0.217146
0.220693
0.224075
0.227126
0.22977
0.232306
0.234536
0.236593
0.238522
0.240072
0.241683
0.243009
0.244316
0.245099
0.246041
0.246583
0.247286
0.24759
0.248065
0.248246
0.248462
0.248518
0.248577
0.248459
0.248394
0.248075
0.247829
0.247468
0.24716
0.246751
0.246368
0.245998
0.245564
0.245177
0.244812
0.244449
0.244091
0.243744
0.243414
0.243112
0.242839
0.242613
0.242324
0.242055
0.241604
0.241108
0.240656
0.240255
0.239894
0.239488
0.239258
0.2392
0.239224
0.239146
0.239088
0.239063
0.23908
0.239119
0.239182
0.239171
0.239172
0.239091
0.239014
0.238937
0.238861
0.238772
0.238701
0.238586
0.238479
0.23839
0.238319
0.238217
0.238123
0.237984
0.237848
0.237697
0.237532
0.237375
0.237208
0.237067
0.23697
0.236899
0.236838
0.236787
0.236754
0.236738
0.236738
0.236745
0.236767
0.23676
0.236759
0.236724
0.236696
0.236613
0.236516
0.236408
0.236268
0.236118
0.235963
0.235802
0.235631
0.235497
0.235397
0.235314
0.235254
0.23522
0.235213
0.235222
0.235241
0.235252
0.235259
0.235233
0.235196
0.235094
0.234985
0.234859
0.234713
0.234555
0.234396
0.234249
0.234134
0.234036
0.233957
0.233905
0.233878
0.233864
0.233852
0.233842
0.233815
0.233779
0.233694
0.233599
0.233472
0.233332
0.233182
0.233031
0.232893
0.232766
0.232668
0.23258
0.232512
0.232463
0.232429
0.232397
0.232358
0.2323
0.23222
0.232146
0.232013
0.231865
0.231714
0.231562
0.231416
0.231271
0.231152
0.231046
0.230954
0.230876
0.230813
0.230757
0.230707
0.230652
0.230573
0.230506
0.230373
0.230229
0.23008
0.229926
0.229766
0.229536
0.0355042
0.035444
0.0353907
0.035296
0.0351522
0.0349739
0.0347574
0.0345103
0.0342778
0.0340565
0.0338539
0.0336728
0.0335134
0.0333754
0.0332577
0.0331586
0.0330769
0.0330125
0.0329668
0.0329415
0.0329396
0.0329683
0.0330284
0.0331299
0.0332984
0.0335299
0.0338062
0.0342237
0.0347344
0.0353763
0.036118
0.0371023
0.0382864
0.0395687
0.0412488
0.0431184
0.0452674
0.0477561
0.0506883
0.0538118
0.057307
0.061145
0.0658739
0.0703448
0.0755086
0.0806565
0.0867327
0.0925985
0.0990038
0.105169
0.111704
0.11865
0.125537
0.132592
0.139373
0.146742
0.153546
0.160292
0.166523
0.172919
0.179081
0.185204
0.191161
0.196791
0.202257
0.207245
0.212197
0.216714
0.221216
0.225251
0.229126
0.232754
0.236236
0.239369
0.242261
0.244807
0.247034
0.249313
0.251385
0.25315
0.254981
0.256328
0.257675
0.258668
0.259769
0.260553
0.261395
0.261911
0.262492
0.26282
0.263142
0.263298
0.263446
0.263435
0.263439
0.263157
0.262946
0.262596
0.262312
0.261876
0.261472
0.261028
0.260516
0.260044
0.25954
0.259044
0.258544
0.258052
0.257573
0.257119
0.2567
0.256315
0.255803
0.255254
0.254565
0.253833
0.253219
0.25267
0.252208
0.251724
0.251312
0.251005
0.250774
0.2505
0.250255
0.250046
0.249891
0.249785
0.249718
0.249567
0.249433
0.249195
0.248972
0.248753
0.248536
0.248319
0.248115
0.247862
0.247623
0.247409
0.247211
0.24698
0.246759
0.246498
0.246243
0.245983
0.245723
0.245473
0.245217
0.244981
0.244782
0.244619
0.24447
0.244331
0.244209
0.244106
0.24402
0.243947
0.243887
0.243798
0.243718
0.243607
0.243506
0.243343
0.243178
0.243
0.242791
0.242574
0.242357
0.242135
0.241906
0.241709
0.241548
0.241408
0.241293
0.241204
0.241141
0.241092
0.241053
0.241008
0.240961
0.240882
0.240794
0.240646
0.24049
0.240318
0.240127
0.239927
0.239727
0.239539
0.239383
0.239244
0.239124
0.239033
0.238965
0.238911
0.238858
0.238808
0.238744
0.238669
0.238551
0.238423
0.238263
0.23809
0.23791
0.237729
0.237562
0.237405
0.237277
0.23716
0.237063
0.236984
0.23692
0.236859
0.236792
0.236706
0.236599
0.236501
0.236343
0.236173
0.235996
0.23582
0.235652
0.235486
0.235344
0.235215
0.235102
0.235002
0.234919
0.234841
0.234768
0.234693
0.234592
0.234507
0.234356
0.234192
0.234023
0.233852
0.233675
0.233418
0.0354961
0.0354339
0.0353734
0.0352631
0.0351005
0.0349162
0.0346802
0.0344373
0.0342053
0.0339883
0.0337906
0.0336142
0.033459
0.0333243
0.0332079
0.0331083
0.0330253
0.0329598
0.0329115
0.032884
0.0328809
0.0329124
0.0329776
0.0330835
0.0332741
0.0335301
0.0338482
0.0343474
0.034949
0.0357179
0.0366069
0.0378004
0.0392226
0.040797
0.0428582
0.0450722
0.0475448
0.0505245
0.054197
0.0577653
0.061895
0.0661888
0.0715414
0.0766671
0.0825385
0.0881828
0.094523
0.10079
0.107545
0.11411
0.120875
0.128018
0.134853
0.142104
0.148818
0.156074
0.162832
0.169319
0.175681
0.181729
0.187987
0.193664
0.19969
0.204945
0.210511
0.215306
0.22038
0.224714
0.229275
0.23315
0.237083
0.240597
0.244036
0.247157
0.250212
0.252899
0.255328
0.257724
0.259631
0.261769
0.263913
0.265102
0.266483
0.267701
0.269044
0.270072
0.271115
0.271892
0.272667
0.27321
0.273745
0.274105
0.274474
0.274699
0.274909
0.274907
0.274928
0.274807
0.274748
0.274528
0.274346
0.274036
0.273702
0.273374
0.27293
0.272492
0.272035
0.271566
0.271104
0.270645
0.270211
0.269776
0.269146
0.26838
0.26753
0.266705
0.266009
0.26541
0.264928
0.26449
0.263998
0.263441
0.262968
0.26251
0.262083
0.261699
0.261383
0.261128
0.260926
0.260643
0.260374
0.259983
0.259613
0.259247
0.258887
0.258532
0.258186
0.257785
0.257404
0.257052
0.256714
0.25634
0.255977
0.255583
0.255198
0.25482
0.254454
0.254101
0.253751
0.253407
0.253097
0.252827
0.252578
0.252341
0.252119
0.251918
0.251733
0.251567
0.251413
0.251231
0.251061
0.250863
0.250676
0.250428
0.250182
0.249927
0.249644
0.249354
0.249065
0.248773
0.24848
0.248216
0.247984
0.247776
0.247598
0.247447
0.247317
0.247204
0.247099
0.246988
0.24688
0.24674
0.246595
0.246392
0.246184
0.24596
0.245719
0.245473
0.245227
0.244992
0.24479
0.244604
0.244438
0.244301
0.244188
0.244087
0.243987
0.243893
0.243781
0.243665
0.243508
0.243342
0.243145
0.242936
0.242722
0.242507
0.242306
0.242116
0.241952
0.241803
0.241673
0.24156
0.241461
0.241367
0.241267
0.24115
0.241011
0.240884
0.2407
0.240504
0.240299
0.240094
0.239902
0.239712
0.239544
0.23939
0.239251
0.239128
0.23902
0.238918
0.238819
0.23872
0.238595
0.238487
0.238318
0.238132
0.23794
0.237749
0.237553
0.237265
0.0354674
0.0354087
0.035345
0.0352248
0.0350528
0.0348595
0.0346163
0.03438
0.0341502
0.0339379
0.0337453
0.0335736
0.0334224
0.0332904
0.033175
0.0330748
0.0329917
0.032926
0.0328766
0.0328484
0.0328495
0.0328901
0.032964
0.0330816
0.0333178
0.0336397
0.0340286
0.034651
0.0353894
0.0363318
0.03743
0.0389093
0.0405969
0.0425406
0.0451108
0.0476804
0.0504994
0.0539212
0.0583436
0.0624529
0.0673175
0.0720672
0.0778275
0.0835002
0.0897978
0.0958307
0.102266
0.108676
0.115283
0.121927
0.12881
0.135677
0.142494
0.149423
0.156313
0.162998
0.169589
0.175568
0.182096
0.187876
0.194135
0.199292
0.205003
0.209899
0.215445
0.220035
0.22513