/*--------------------------------*- C++ -*----------------------------------*\
| =========                 |                                                 |
| \\      /  F ield         | OpenFOAM: The Open Source CFD Toolbox           |
|  \\    /   O peration     | Version:  2312                                  |
|   \\  /    A nd           | Website:  www.openfoam.com                      |
|    \\/     M anipulation  |                                                 |
\*---------------------------------------------------------------------------*/
FoamFile
{
    version     2.0;
    format      ascii;
    arch        "LSB;label=32;scalar=64";
    class       volScalarField;
    location    "0.004";
    object      T;
}
// * * * * * * * * * * * * * * * * * * * * * * * * * * * * * * * * * * * * * //

dimensions      [0 0 0 1 0 0 0];

internalField   nonuniform List<scalar> 
48128
(
346.263
346.261
346.263
346.266
346.249
346.179
345.943
345.471
344.844
344.088
343.395
342.635
341.741
340.742
339.764
338.857
337.993
337.153
336.35
335.593
334.845
334.119
333.432
332.796
332.227
331.741
331.351
331.071
330.914
330.864
330.926
331.144
331.504
331.989
332.585
333.283
334.071
334.921
335.836
336.799
337.786
338.779
339.77
340.773
341.737
342.641
343.463
344.225
344.906
345.498
345.981
346.354
346.601
346.72
346.714
346.584
346.338
345.973
345.503
344.936
344.285
343.562
342.776
341.929
341.021
340.063
339.052
337.996
336.91
335.774
334.601
333.406
332.164
330.923
329.641
328.382
327.089
325.83
324.555
323.336
322.12
320.965
319.823
318.705
317.564
316.467
315.386
314.359
313.368
312.425
311.5
310.613
309.749
308.917
308.118
307.349
306.593
305.844
305.127
304.441
303.782
303.168
302.605
302.073
301.559
301.08
300.627
300.204
299.789
299.403
299.012
298.665
298.367
298.087
297.797
297.481
297.127
296.736
296.251
295.603
295.725
295.6
295.298
295.459
295.424
295.364
295.273
295.157
295.028
294.893
294.775
294.668
294.554
294.434
294.309
294.181
294.063
293.964
293.874
293.783
293.696
293.622
293.553
293.481
293.403
293.317
293.238
293.146
293.023
293.077
293.071
293.048
293.095
293.12
293.17
293.221
293.276
293.327
293.38
293.426
293.473
293.496
293.517
293.535
293.537
293.533
293.526
293.516
293.507
293.49
293.493
293.513
293.533
293.565
293.609
293.674
293.747
293.833
293.92
294.008
294.068
294.129
294.154
294.179
294.178
294.174
294.162
294.146
294.146
294.151
294.168
294.196
294.249
294.31
294.378
294.453
294.535
294.614
294.675
294.733
294.757
294.785
294.793
294.794
294.793
294.799
294.813
294.838
294.874
294.92
294.979
295.049
295.124
295.196
295.264
295.319
295.367
295.423
295.414
295.426
295.444
295.454
295.472
295.497
295.533
295.579
295.633
295.694
295.761
295.831
295.905
295.97
296.026
296.085
296.096
296.121
296.148
296.156
296.173
296.213
346.202
346.202
346.204
346.222
346.241
346.111
345.716
344.921
343.872
342.832
341.673
340.215
338.587
337.053
335.683
334.448
333.321
332.294
331.375
330.569
329.832
329.174
328.611
328.152
327.812
327.601
327.522
327.536
327.723
328.074
328.561
329.199
329.975
330.876
331.884
332.982
334.137
335.316
336.515
337.718
338.896
340.031
341.108
342.127
343.051
343.86
344.539
345.098
345.527
345.81
345.931
345.881
345.682
345.329
344.812
344.137
343.33
342.397
341.355
340.208
338.971
337.648
336.245
334.77
333.228
331.643
330.011
328.34
326.655
324.945
323.229
321.518
319.775
318.06
316.313
314.606
312.878
311.197
309.52
307.905
306.309
304.774
303.272
301.802
300.327
298.892
297.497
296.151
294.86
293.617
292.41
291.233
290.098
288.984
287.918
286.878
285.863
284.856
283.88
282.941
282.027
281.158
280.344
279.567
278.81
278.095
277.404
276.754
276.108
275.503
274.891
274.327
273.812
273.328
272.841
272.334
271.79
271.209
270.537
269.635
269.527
269.208
268.672
268.627
268.471
268.263
268.027
267.77
267.505
267.235
266.985
266.751
266.513
266.269
266.021
265.77
265.527
265.302
265.089
264.874
264.667
264.472
264.289
264.104
263.915
263.719
263.521
263.305
263.041
262.944
262.807
262.634
262.543
262.431
262.354
262.273
262.204
262.134
262.073
262.013
261.952
261.886
261.815
261.739
261.656
261.566
261.473
261.377
261.281
261.183
261.087
261.035
260.976
260.935
260.891
260.891
260.892
260.907
260.928
260.951
260.959
260.963
260.953
260.934
260.904
260.867
260.824
260.781
260.737
260.717
260.703
260.698
260.713
260.738
260.77
260.813
260.862
260.911
260.947
260.983
260.993
261.007
261.003
260.997
260.985
260.988
260.994
261.01
261.034
261.068
261.113
261.169
261.232
261.294
261.356
261.406
261.453
261.519
261.511
261.525
261.552
261.565
261.587
261.617
261.656
261.704
261.759
261.82
261.888
261.962
262.041
262.112
262.178
262.261
262.282
262.317
262.363
262.385
262.417
262.477
346.138
346.154
346.178
346.217
346.158
345.746
344.879
343.749
342.545
341.227
339.84
338.482
337.223
336.061
335.01
334.071
333.231
332.465
331.797
331.236
330.741
330.325
329.998
329.77
329.645
329.627
329.721
329.95
330.331
330.855
331.504
332.275
333.151
334.107
335.132
336.217
337.328
338.433
339.522
340.579
341.577
342.495
343.315
344.035
344.63
345.077
345.366
345.491
345.449
345.244
344.859
344.298
343.568
342.685
341.629
340.416
339.082
337.63
336.083
334.447
332.744
330.974
329.148
327.272
325.347
323.412
321.452
319.483
317.516
315.54
313.588
311.658
309.716
307.827
305.915
304.059
302.202
300.401
298.621
296.911
295.235
293.624
292.059
290.525
288.999
287.515
286.085
284.702
283.383
282.111
280.878
279.675
278.517
277.378
276.289
275.227
274.187
273.16
272.164
271.204
270.268
269.377
268.539
267.733
266.949
266.205
265.485
264.803
264.124
263.485
262.838
262.24
261.686
261.163
260.635
260.09
259.515
258.904
258.215
257.312
257.145
256.78
256.238
256.105
255.88
255.614
255.325
255.023
254.717
254.408
254.12
253.85
253.577
253.299
253.02
252.736
252.464
252.205
251.958
251.708
251.467
251.238
251.018
250.8
250.577
250.351
250.122
249.881
249.594
249.462
249.295
249.092
248.963
248.814
248.697
248.577
248.469
248.361
248.261
248.165
248.068
247.966
247.864
247.757
247.645
247.529
247.41
247.288
247.168
247.045
246.919
246.838
246.747
246.679
246.604
246.574
246.54
246.533
246.528
246.521
246.508
246.489
246.459
246.422
246.375
246.323
246.264
246.204
246.152
246.106
246.08
246.05
246.053
246.062
246.078
246.103
246.136
246.169
246.194
246.218
246.221
246.226
246.219
246.207
246.191
246.184
246.185
246.194
246.211
246.236
246.273
246.32
246.375
246.431
246.487
246.534
246.579
246.643
246.64
246.654
246.679
246.695
246.716
246.746
246.784
246.83
246.884
246.943
247.01
247.083
247.16
247.234
247.303
247.387
247.417
247.46
247.509
247.539
247.576
247.643
346.085
346.133
346.175
346.149
345.785
344.929
343.802
342.555
341.339
340.211
339.19
338.202
337.244
336.338
335.504
334.775
334.147
333.6
333.14
332.772
332.455
332.206
332.034
331.945
331.943
332.045
332.265
332.618
333.093
333.683
334.373
335.161
336.033
336.964
337.941
338.953
339.958
340.925
341.84
342.688
343.442
344.076
344.572
344.931
345.125
345.14
344.952
344.57
343.992
343.235
342.284
341.151
339.839
338.38
336.742
334.965
333.097
331.119
329.075
326.961
324.817
322.633
320.425
318.197
315.95
313.734
311.516
309.325
307.166
305.017
302.933
300.89
298.856
296.901
294.927
293.031
291.15
289.336
287.561
285.862
284.21
282.627
281.1
279.608
278.131
276.702
275.337
274.02
272.769
271.565
270.398
269.262
268.17
267.095
266.072
265.075
264.098
263.134
262.201
261.302
260.423
259.591
258.805
258.047
257.312
256.613
255.937
255.292
254.654
254.048
253.436
252.869
252.341
251.842
251.334
250.81
250.263
249.677
249.028
248.196
248.019
247.668
247.201
247.022
246.782
246.51
246.22
245.921
245.619
245.314
245.031
244.765
244.495
244.223
243.95
243.672
243.407
243.153
242.907
242.659
242.42
242.191
241.97
241.751
241.527
241.303
241.074
240.837
240.559
240.423
240.256
240.06
239.923
239.771
239.648
239.523
239.408
239.293
239.185
239.081
238.976
238.868
238.758
238.645
238.528
238.408
238.285
238.16
238.036
237.911
237.782
237.693
237.596
237.52
237.438
237.398
237.352
237.334
237.32
237.303
237.281
237.254
237.218
237.174
237.123
237.067
237.004
236.938
236.883
236.831
236.8
236.761
236.759
236.762
236.771
236.789
236.814
236.839
236.858
236.878
236.877
236.879
236.87
236.858
236.841
236.831
236.831
236.838
236.851
236.873
236.906
236.95
237
237.052
237.105
237.15
237.195
237.256
237.258
237.273
237.297
237.315
237.338
237.369
237.407
237.452
237.505
237.565
237.631
237.703
237.779
237.853
237.925
238.008
238.043
238.09
238.143
238.177
238.218
238.29
346.04
346.127
346.137
345.841
345.076
344.016
342.815
341.67
340.683
339.872
339.174
338.388
337.627
336.959
336.365
335.851
335.414
335.035
334.723
334.489
334.295
334.159
334.087
334.086
334.171
334.358
334.654
335.066
335.587
336.203
336.9
337.674
338.513
339.384
340.27
341.162
342.012
342.783
343.456
344.022
344.455
344.718
344.79
344.666
344.341
343.797
342.999
341.964
340.706
339.26
337.598
335.755
333.725
331.578
329.258
326.834
324.371
321.808
319.23
316.617
314.029
311.444
308.88
306.343
303.822
301.396
298.994
296.667
294.41
292.18
290.062
287.998
285.962
284.04
282.098
280.259
278.451
276.721
275.044
273.453
271.917
270.453
269.052
267.695
266.351
265.058
263.83
262.651
261.534
260.465
259.426
258.419
257.451
256.503
255.606
254.733
253.877
253.032
252.214
251.427
250.655
249.928
249.24
248.574
247.933
247.324
246.736
246.171
245.614
245.083
244.545
244.049
243.584
243.144
242.691
242.223
241.739
241.215
240.643
239.922
239.754
239.449
239.095
238.886
238.666
238.423
238.162
237.896
237.626
237.353
237.1
236.859
236.617
236.375
236.13
235.882
235.647
235.418
235.194
234.969
234.754
234.546
234.343
234.142
233.936
233.732
233.521
233.306
233.056
232.929
232.779
232.606
232.478
232.34
232.228
232.114
232.009
231.904
231.805
231.709
231.612
231.512
231.41
231.304
231.196
231.084
230.97
230.853
230.738
230.623
230.503
230.419
230.329
230.258
230.181
230.142
230.098
230.08
230.064
230.048
230.026
230.002
229.967
229.925
229.877
229.824
229.765
229.702
229.651
229.602
229.571
229.535
229.532
229.535
229.544
229.56
229.584
229.607
229.626
229.645
229.644
229.649
229.641
229.631
229.616
229.61
229.611
229.618
229.633
229.656
229.688
229.731
229.781
229.833
229.885
229.93
229.977
230.036
230.043
230.061
230.086
230.108
230.134
230.167
230.207
230.254
230.309
230.369
230.435
230.508
230.585
230.659
230.733
230.816
230.857
230.907
230.962
231.002
231.048
231.125
346.028
346.115
345.93
345.295
344.332
343.196
342.095
341.171
340.467
339.913
339.325
338.742
338.217
337.761
337.363
337.019
336.725
336.471
336.265
336.126
336.021
335.968
335.971
336.043
336.199
336.451
336.801
337.251
337.798
338.419
339.098
339.827
340.595
341.361
342.099
342.803
343.424
343.914
344.251
344.414
344.381
344.119
343.594
342.808
341.75
340.423
338.777
336.843
334.657
332.297
329.685
326.908
323.957
320.933
317.832
314.636
311.481
308.28
305.098
302.004
298.953
296.034
293.145
290.396
287.67
285.152
282.682
280.349
278.131
275.953
273.935
271.978
270.075
268.324
266.543
264.906
263.304
261.798
260.352
259.004
257.706
256.497
255.335
254.226
253.109
252.046
251.039
250.078
249.171
248.308
247.467
246.656
245.874
245.116
244.404
243.711
243.028
242.349
241.694
241.061
240.436
239.853
239.301
238.767
238.259
237.776
237.311
236.861
236.418
235.995
235.565
235.172
234.8
234.444
234.073
233.691
233.3
232.869
232.404
231.83
231.676
231.446
231.218
231.006
230.836
230.646
230.437
230.227
230.009
229.79
229.587
229.392
229.198
229.004
228.807
228.608
228.42
228.233
228.05
227.865
227.69
227.519
227.35
227.182
227.011
226.842
226.664
226.486
226.279
226.172
226.05
225.914
225.807
225.695
225.605
225.515
225.431
225.348
225.269
225.192
225.113
225.033
224.949
224.861
224.771
224.679
224.583
224.485
224.388
224.291
224.19
224.12
224.046
223.989
223.927
223.897
223.864
223.854
223.845
223.838
223.823
223.808
223.781
223.749
223.71
223.668
223.619
223.567
223.524
223.485
223.462
223.436
223.437
223.444
223.458
223.479
223.506
223.533
223.557
223.579
223.583
223.597
223.59
223.589
223.58
223.581
223.586
223.598
223.618
223.644
223.68
223.726
223.779
223.833
223.888
223.935
223.985
224.046
224.06
224.083
224.112
224.14
224.171
224.208
224.252
224.302
224.36
224.423
224.492
224.567
224.646
224.722
224.8
224.884
224.93
224.984
225.043
225.089
225.139
225.223
346.06
346.049
345.592
344.741
343.661
342.576
341.659
340.971
340.486
340.044
339.614
339.226
338.891
338.604
338.35
338.128
337.938
337.783
337.666
337.606
337.577
337.594
337.661
337.795
338.009
338.309
338.692
339.159
339.704
340.301
340.924
341.562
342.202
342.791
343.297
343.718
343.988
344.06
343.882
343.451
342.729
341.687
340.268
338.471
336.305
333.823
330.927
327.706
324.215
320.6
316.783
312.819
308.831
304.716
300.901
296.88
292.916
289.179
285.346
281.914
278.398
275.316
272.166
269.38
266.564
264.128
261.74
259.568
257.524
255.558
253.816
252.129
250.553
249.141
247.706
246.442
245.214
244.092
243.034
242.074
241.159
240.343
239.55
238.817
238.035
237.313
236.632
235.988
235.392
234.822
234.268
233.737
233.217
232.716
232.248
231.792
231.334
230.871
230.429
229.996
229.562
229.166
228.789
228.424
228.083
227.757
227.442
227.136
226.834
226.545
226.248
225.985
225.732
225.482
225.22
224.946
224.674
224.363
224.029
223.628
223.482
223.373
223.258
223.092
222.981
222.863
222.721
222.585
222.438
222.292
222.155
222.023
221.892
221.762
221.629
221.494
221.367
221.239
221.11
220.98
220.858
220.738
220.615
220.496
220.371
220.249
220.117
219.987
219.837
219.757
219.678
219.589
219.515
219.437
219.38
219.323
219.27
219.218
219.169
219.121
219.069
219.018
218.961
218.9
218.838
218.773
218.704
218.634
218.562
218.493
218.419
218.37
218.321
218.284
218.245
218.231
218.218
218.221
218.228
218.232
218.234
218.234
218.222
218.207
218.181
218.158
218.126
218.09
218.061
218.038
218.028
218.018
218.026
218.044
218.068
218.099
218.135
218.169
218.202
218.233
218.247
218.273
218.273
218.283
218.285
218.294
218.309
218.33
218.358
218.392
218.434
218.486
218.545
218.604
218.665
218.718
218.775
218.839
218.863
218.894
218.929
218.964
219.003
219.047
219.097
219.153
219.215
219.284
219.357
219.436
219.519
219.599
219.681
219.768
219.821
219.882
219.945
219.998
220.055
220.146
346.089
345.948
345.242
344.224
343.131
342.172
341.443
340.948
340.578
340.268
339.994
339.767
339.57
339.398
339.25
339.124
339.023
338.948
338.913
338.919
338.949
339.023
339.145
339.326
339.578
339.903
340.294
340.745
341.252
341.777
342.287
342.762
343.19
343.501
343.643
343.604
343.323
342.727
341.742
340.357
338.537
336.274
333.477
330.184
326.435
322.383
317.858
313.024
307.999
302.799
297.84
292.64
287.788
282.609
278.284
273.703
268.947
264.972
260.698
257.16
253.398
250.374
247.201
244.578
241.856
239.616
237.423
235.548
233.792
232.192
230.808
229.504
228.36
227.326
226.379
225.517
224.753
224.065
223.48
222.962
222.531
222.135
221.807
221.491
221.16
220.836
220.594
220.326
220.14
219.917
219.741
219.554
219.385
219.192
219.042
218.871
218.699
218.505
218.337
218.155
217.967
217.801
217.636
217.473
217.329
217.188
217.05
216.916
216.78
216.653
216.514
216.405
216.294
216.176
216.049
215.898
215.764
215.591
215.411
215.193
215.083
215.101
215.083
215.007
214.97
214.93
214.872
214.823
214.768
214.707
214.652
214.596
214.54
214.486
214.43
214.369
214.317
214.258
214.196
214.132
214.075
214.016
213.952
213.89
213.821
213.759
213.682
213.612
213.528
213.486
213.457
213.421
213.39
213.358
213.341
213.325
213.312
213.299
213.288
213.276
213.261
213.245
213.223
213.197
213.167
213.141
213.104
213.069
213.03
212.995
212.956
212.934
212.916
212.907
212.897
212.905
212.917
212.939
212.967
212.991
213.014
213.034
213.046
213.05
213.043
213.047
213.034
213.02
213.011
213.01
213.018
213.026
213.049
213.081
213.121
213.166
213.214
213.261
213.307
213.35
213.379
213.419
213.433
213.456
213.473
213.495
213.523
213.556
213.596
213.64
213.693
213.754
213.822
213.89
213.959
214.021
214.086
214.156
214.194
214.234
214.279
214.324
214.372
214.425
214.483
214.547
214.617
214.692
214.773
214.858
214.946
215.032
215.121
215.212
215.274
215.342
215.411
215.473
215.538
215.639
346.114
345.784
344.888
343.791
342.754
341.94
341.37
341.002
340.749
340.55
340.406
340.294
340.198
340.116
340.048
339.999
339.972
339.966
339.988
340.045
340.127
340.243
340.402
340.61
340.875
341.197
341.558
341.95
342.363
342.749
343.061
343.266
343.344
343.184
342.72
341.914
340.704
339.023
336.777
333.936
330.473
326.498
321.836
316.634
310.98
305.015
298.976
292.534
286.211
279.451
273.873
267.768
262.434
256.664
251.976
247.228
242.125
238.234
233.911
230.576
227.002
224.26
221.419
219.144
216.838
214.938
213.159
211.662
210.306
209.142
208.103
207.242
206.459
205.774
205.286
204.685
204.378
203.953
203.826
203.57
203.598
203.451
203.578
203.475
203.631
203.575
203.79
203.798
204.029
204.092
204.305
204.418
204.627
204.738
204.951
205.059
205.233
205.333
205.48
205.577
205.673
205.773
205.839
205.915
205.993
206.067
206.131
206.203
206.256
206.328
206.371
206.44
206.481
206.533
206.545
206.53
206.543
206.528
206.537
206.483
206.466
206.575
206.682
206.715
206.759
206.801
206.856
206.898
206.953
206.983
207.024
207.051
207.078
207.107
207.142
207.162
207.197
207.211
207.228
207.236
207.256
207.265
207.271
207.27
207.269
207.271
207.261
207.261
207.246
207.254
207.278
207.303
207.324
207.346
207.375
207.406
207.441
207.471
207.508
207.535
207.566
207.588
207.611
207.625
207.633
207.653
207.652
207.659
207.66
207.666
207.666
207.677
207.695
207.72
207.743
207.78
207.82
207.869
207.921
207.97
208.02
208.064
208.104
208.132
208.154
208.184
208.197
208.209
208.226
208.249
208.279
208.31
208.352
208.404
208.462
208.525
208.59
208.654
208.716
208.776
208.822
208.879
208.912
208.951
208.986
209.025
209.069
209.118
209.172
209.231
209.296
209.37
209.449
209.528
209.609
209.681
209.758
209.837
209.892
209.944
210
210.057
210.117
210.181
210.25
210.324
210.403
210.488
210.577
210.67
210.767
210.86
210.956
211.053
211.128
211.205
211.28
211.354
211.427
211.541
346.067
345.562
344.553
343.448
342.509
341.823
341.384
341.125
340.959
340.86
340.808
340.776
340.755
340.744
340.741
340.749
340.775
340.822
340.892
340.985
341.099
341.24
341.415
341.622
341.868
342.147
342.429
342.698
342.936
343.079
343.049
342.78
342.224
341.271
339.809
337.778
335.129
331.867
327.84
323.036
317.446
311.41
304.798
297.67
290.329
282.406
275.523
267.874
260.891
253.027
247.375
240.933
235.634
229.986
225.166
220.885
216.172
212.579
208.731
205.766
202.918
200.539
198.39
196.497
194.85
193.305
192.13
190.966
190.13
189.316
188.626
188.206
187.632
187.313
187.123
186.683
186.763
186.396
186.644
186.469
186.792
186.766
187.128
187.126
187.527
187.637
188.068
188.257
188.691
188.951
189.365
189.679
190.09
190.429
190.852
191.187
191.589
191.936
192.324
192.661
193.007
193.351
193.647
193.956
194.261
194.557
194.835
195.117
195.377
195.647
195.896
196.151
196.361
196.578
196.746
196.88
197.039
197.204
197.412
197.529
197.636
197.854
198.087
198.228
198.38
198.518
198.679
198.826
198.992
199.125
199.262
199.381
199.502
199.621
199.749
199.861
199.984
200.081
200.182
200.273
200.37
200.455
200.536
200.605
200.678
200.749
200.815
200.887
200.945
201.014
201.096
201.183
201.266
201.344
201.426
201.509
201.596
201.677
201.763
201.837
201.916
201.983
202.055
202.115
202.169
202.234
202.279
202.33
202.377
202.427
202.471
202.522
202.579
202.642
202.703
202.773
202.846
202.925
203.006
203.085
203.163
203.237
203.308
203.365
203.42
203.479
203.524
203.566
203.612
203.662
203.719
203.777
203.842
203.916
203.997
204.081
204.166
204.249
204.331
204.41
204.477
204.554
204.609
204.668
204.724
204.783
204.846
204.913
204.985
205.061
205.142
205.23
205.323
205.417
205.511
205.597
205.687
205.778
205.853
205.919
205.988
206.059
206.133
206.211
206.292
206.378
206.469
206.565
206.665
206.768
206.874
206.976
207.082
207.186
207.277
207.362
207.446
207.532
207.616
207.744
345.927
345.325
344.266
343.192
342.358
341.782
341.45
341.286
341.191
341.166
341.175
341.2
341.235
341.275
341.32
341.372
341.438
341.521
341.618
341.73
341.857
342.001
342.164
342.337
342.522
342.703
342.833
342.882
342.799
342.495
341.86
340.783
339.188
336.983
334.032
330.235
325.607
320.398
314.18
307.208
299.492
291.279
283.349
274.705
266.292
256.857
249.774
241.565
234.72
226.759
221.452
215.18
210.436
205.385
200.972
197.381
193.642
190.39
187.607
185.025
183.166
181.162
179.899
178.275
177.457
176.122
175.685
174.674
174.463
173.779
173.526
173.379
172.956
173.016
172.798
172.73
172.868
172.624
173.033
172.869
173.311
173.313
173.753
173.76
174.246
174.392
174.876
175.107
175.587
175.891
176.361
176.72
177.197
177.603
178.101
178.518
179.013
179.473
179.976
180.442
180.927
181.405
181.855
182.318
182.774
183.22
183.657
184.089
184.514
184.935
185.352
185.767
186.126
186.489
186.788
187.08
187.391
187.737
188.119
188.456
188.716
189.033
189.369
189.621
189.88
190.127
190.392
190.65
190.922
191.163
191.401
191.615
191.834
192.05
192.273
192.481
192.696
192.881
193.07
193.247
193.427
193.591
193.751
193.896
194.046
194.192
194.335
194.483
194.618
194.754
194.899
195.049
195.198
195.335
195.474
195.613
195.754
195.889
196.028
196.153
196.283
196.401
196.524
196.633
196.739
196.852
196.947
197.045
197.141
197.239
197.329
197.424
197.524
197.629
197.73
197.838
197.947
198.06
198.173
198.284
198.395
198.501
198.605
198.695
198.787
198.877
198.958
199.033
199.111
199.192
199.279
199.366
199.458
199.558
199.663
199.772
199.879
199.984
200.088
200.189
200.28
200.38
200.459
200.541
200.62
200.703
200.788
200.876
200.968
201.063
201.162
201.267
201.376
201.486
201.596
201.698
201.804
201.907
202.005
202.087
202.172
202.259
202.349
202.442
202.538
202.638
202.742
202.851
202.963
203.078
203.195
203.308
203.424
203.538
203.647
203.741
203.837
203.935
204.031
204.176
345.707
345.081
344.018
343.001
342.262
341.798
341.559
341.461
341.423
341.443
341.497
341.565
341.638
341.713
341.79
341.871
341.96
342.059
342.166
342.277
342.393
342.514
342.63
342.726
342.786
342.788
342.648
342.29
341.629
340.548
338.924
336.61
333.478
329.539
324.611
318.612
311.637
304.349
296.112
287.253
277.961
267.801
259.365
249.693
241.069
231.143
224.335
216.222
210.165
202.941
198.221
192.519
188.692
184.31
180.994
177.784
175.364
172.586
171.049
168.81
168.003
166.213
165.924
164.401
164.486
163.269
163.572
162.653
163.043
162.362
162.685
162.452
162.503
162.708
162.432
162.815
162.706
162.868
163.216
163.048
163.56
163.49
163.956
163.91
164.409
164.491
164.951
165.104
165.547
165.758
166.193
166.455
166.9
167.227
167.688
168.046
168.515
168.936
169.422
169.886
170.377
170.867
171.352
171.85
172.345
172.838
173.335
173.829
174.328
174.825
175.328
175.831
176.278
176.737
177.12
177.531
177.968
178.445
178.958
179.463
179.884
180.269
180.688
181.049
181.401
181.745
182.104
182.462
182.833
183.174
183.514
183.821
184.137
184.449
184.766
185.071
185.38
185.654
185.933
186.198
186.465
186.707
186.949
187.172
187.399
187.625
187.845
188.069
188.284
188.487
188.696
188.91
189.125
189.325
189.524
189.719
189.917
190.108
190.302
190.481
190.664
190.835
191.011
191.171
191.33
191.494
191.641
191.791
191.937
192.085
192.224
192.366
192.511
192.66
192.804
192.952
193.101
193.248
193.395
193.541
193.686
193.827
193.968
194.093
194.223
194.347
194.467
194.577
194.69
194.806
194.923
195.042
195.164
195.292
195.424
195.559
195.69
195.82
195.948
196.074
196.191
196.316
196.42
196.528
196.633
196.741
196.85
196.961
197.075
197.192
197.311
197.435
197.562
197.69
197.817
197.937
198.06
198.18
198.301
198.4
198.503
198.608
198.716
198.826
198.938
199.054
199.173
199.296
199.422
199.549
199.679
199.805
199.933
200.058
200.186
200.291
200.399
200.512
200.621
200.784
345.443
344.82
343.785
342.846
342.204
341.843
341.688
341.634
341.634
341.69
341.777
341.872
341.967
342.061
342.154
342.247
342.342
342.44
342.536
342.625
342.704
342.764
342.788
342.74
342.582
342.244
341.608
340.557
338.953
336.676
333.615
329.588
324.415
318.36
311.23
303.069
293.875
284.335
274.967
264.73
254.602
243.152
234.698
224.698
216.676
207.303
201.026
193.489
188.471
182.338
178.339
173.573
170.809
167.064
165.137
162.091
161.185
158.802
158.487
156.56
156.671
155.1
155.586
154.309
155.072
154.094
154.941
154.223
155.052
154.478
155.259
154.864
155.547
155.535
155.732
156.194
155.949
156.538
156.678
156.732
157.3
157.105
157.633
157.551
158.069
158.059
158.5
158.546
158.944
159.021
159.391
159.502
159.869
160.027
160.391
160.585
160.942
161.201
161.567
161.885
162.258
162.628
163.012
163.413
163.815
164.237
164.67
165.117
165.579
166.052
166.538
167.028
167.474
167.949
168.343
168.795
169.287
169.821
170.39
170.964
171.47
171.887
172.348
172.783
173.205
173.623
174.054
174.487
174.933
175.351
175.776
176.163
176.56
176.953
177.354
177.744
178.139
178.497
178.86
179.206
179.553
179.871
180.189
180.489
180.789
181.091
181.385
181.683
181.973
182.245
182.518
182.795
183.074
183.337
183.596
183.848
184.103
184.35
184.6
184.833
185.071
185.295
185.525
185.737
185.951
186.167
186.366
186.57
186.766
186.965
187.155
187.345
187.535
187.73
187.918
188.108
188.297
188.481
188.664
188.846
189.028
189.205
189.383
189.546
189.715
189.875
190.034
190.183
190.333
190.483
190.635
190.787
190.94
191.097
191.258
191.42
191.578
191.733
191.888
192.039
192.184
192.336
192.468
192.603
192.736
192.87
193.005
193.141
193.278
193.418
193.56
193.704
193.85
193.997
194.143
194.283
194.424
194.563
194.706
194.826
194.948
195.073
195.2
195.328
195.458
195.591
195.726
195.865
196.007
196.148
196.291
196.431
196.573
196.711
196.856
196.975
197.098
197.224
197.349
197.532
345.174
344.543
343.557
342.715
342.185
341.912
341.819
341.792
341.823
341.907
342.013
342.121
342.225
342.324
342.417
342.505
342.588
342.665
342.729
342.771
342.777
342.729
342.588
342.279
341.719
340.783
339.322
337.202
334.223
330.294
325.387
319.237
311.709
303.368
294.463
284.527
273.593
261.817
252.144
240.998
230.895
219.191
210.978
201.25
194.245
186.014
180.552
174.069
169.937
165.12
161.821
158.453
156.414
153.541
152.656
149.951
150.244
148.227
148.871
147.311
148.091
146.853
147.935
146.935
148.224
147.526
148.837
148.316
149.529
149.091
150.213
149.863
150.905
150.652
151.496
151.693
151.85
152.605
152.432
152.992
153.502
153.237
153.859
153.8
154.334
154.279
154.765
154.761
155.168
155.167
155.52
155.538
155.866
155.903
156.206
156.258
156.539
156.643
156.902
157.045
157.284
157.471
157.699
157.941
158.163
158.418
158.678
158.961
159.267
159.59
159.931
160.275
160.604
160.949
161.24
161.61
162.041
162.518
163.036
163.582
164.081
164.462
164.884
165.315
165.747
166.186
166.638
167.098
167.573
168.03
168.497
168.932
169.377
169.82
170.271
170.715
171.164
171.582
172.005
172.41
172.818
173.196
173.576
173.939
174.301
174.667
175.028
175.394
175.75
176.088
176.421
176.757
177.094
177.418
177.734
178.042
178.351
178.653
178.957
179.242
179.534
179.81
180.093
180.356
180.622
180.888
181.14
181.397
181.643
181.893
182.134
182.372
182.608
182.848
183.08
183.312
183.542
183.762
183.983
184.201
184.42
184.634
184.85
185.051
185.26
185.457
185.657
185.845
186.033
186.22
186.406
186.592
186.777
186.965
187.155
187.344
187.53
187.712
187.894
188.073
188.246
188.425
188.587
188.75
188.913
189.075
189.237
189.399
189.56
189.725
189.889
190.055
190.221
190.388
190.555
190.715
190.876
191.035
191.2
191.343
191.486
191.631
191.778
191.926
192.075
192.226
192.378
192.535
192.693
192.849
193.007
193.161
193.317
193.471
193.632
193.767
193.905
194.048
194.188
194.392
344.928
344.261
343.34
342.605
342.191
341.994
341.94
341.936
341.992
342.093
342.206
342.315
342.416
342.505
342.584
342.65
342.702
342.738
342.745
342.706
342.589
342.349
341.901
341.122
339.887
338.001
335.312
331.71
326.951
320.963
313.926
305.683
295.933
285.201
275.209
263.87
251.889
238.507
228.792
217.209
207.754
196.721
189.148
180.338
174.574
167.803
163.395
158.18
154.816
151.315
148.604
146.706
144.762
143.367
142.643
140.989
141.777
140.199
141.363
140.309
141.653
140.707
142.308
141.624
143.348
142.807
144.525
144.095
145.677
145.286
146.736
146.432
147.746
147.476
148.665
148.5
149.353
150.06
149.91
150.644
151.101
150.939
151.673
151.625
152.199
152.159
152.717
152.711
153.165
153.143
153.524
153.519
153.849
153.837
154.13
154.127
154.397
154.433
154.653
154.707
154.898
154.967
155.119
155.264
155.363
155.503
155.624
155.769
155.928
156.097
156.277
156.438
156.588
156.709
156.812
157.018
157.286
157.592
157.935
158.302
158.679
158.915
159.196
159.507
159.838
160.191
160.567
160.957
161.376
161.781
162.21
162.626
163.052
163.479
163.918
164.357
164.802
165.231
165.664
166.086
166.513
166.917
167.325
167.721
168.12
168.526
168.934
169.347
169.752
170.142
170.522
170.903
171.283
171.658
172.024
172.382
172.738
173.086
173.437
173.77
174.109
174.432
174.762
175.071
175.387
175.701
176.002
176.307
176.602
176.899
177.188
177.474
177.753
178.036
178.311
178.586
178.854
179.11
179.368
179.622
179.876
180.127
180.379
180.62
180.868
181.103
181.34
181.568
181.794
182.018
182.238
182.458
182.676
182.895
183.114
183.332
183.545
183.755
183.963
184.171
184.373
184.58
184.771
184.964
185.157
185.347
185.537
185.725
185.912
186.101
186.289
186.477
186.664
186.852
187.04
187.221
187.403
187.584
187.77
187.938
188.102
188.269
188.436
188.605
188.773
188.943
189.114
189.288
189.463
189.635
189.808
189.978
190.149
190.32
190.498
190.649
190.804
190.963
191.119
191.346
344.705
343.996
343.147
342.526
342.21
342.077
342.049
342.07
342.143
342.249
342.36
342.459
342.545
342.612
342.659
342.687
342.689
342.66
342.576
342.4
342.064
341.476
340.493
338.943
336.68
333.435
329.13
323.708
316.903
308.624
299.226
289.564
278.007
264.815
254.092
241.613
229.427
215.533
205.821
194.43
186.12
176.569
170.154
162.898
158.319
153.038
149.473
145.504
142.781
140.347
138.543
137.556
135.891
136.253
134.918
135.7
135.577
134.913
136.456
135.506
137.46
136.589
138.702
138.003
140.092
139.581
141.618
141.194
143.088
142.725
144.451
144.123
145.67
145.39
146.793
146.621
147.778
148.202
148.432
149.264
149.471
149.689
150.491
150.414
151.093
151.085