/*--------------------------------*- C++ -*----------------------------------*\
| =========                 |                                                 |
| \\      /  F ield         | OpenFOAM: The Open Source CFD Toolbox           |
|  \\    /   O peration     | Version:  2312                                  |
|   \\  /    A nd           | Website:  www.openfoam.com                      |
|    \\/     M anipulation  |                                                 |
\*---------------------------------------------------------------------------*/
FoamFile
{
    version     2.0;
    format      ascii;
    arch        "LSB;label=32;scalar=64";
    class       volScalarField;
    location    "0.004";
    object      thermo:psiLiqEff;
}
// * * * * * * * * * * * * * * * * * * * * * * * * * * * * * * * * * * * * * //

dimensions      [-2 4 2 0 0 0 0];

internalField   nonuniform List<scalar> 
48128
(
4.16529e-13
4.16531e-13
4.16529e-13
4.16526e-13
4.16545e-13
4.16629e-13
4.16914e-13
4.17483e-13
4.18243e-13
4.19162e-13
4.20007e-13
4.20939e-13
4.22041e-13
4.23278e-13
4.24497e-13
4.25633e-13
4.26722e-13
4.27785e-13
4.28806e-13
4.29773e-13
4.30734e-13
4.3167e-13
4.32559e-13
4.33385e-13
4.34127e-13
4.34764e-13
4.35276e-13
4.35644e-13
4.35851e-13
4.35916e-13
4.35835e-13
4.35548e-13
4.35074e-13
4.34439e-13
4.33661e-13
4.32752e-13
4.31732e-13
4.30636e-13
4.29462e-13
4.28234e-13
4.26982e-13
4.2573e-13
4.24489e-13
4.23239e-13
4.22046e-13
4.20932e-13
4.19924e-13
4.18994e-13
4.18167e-13
4.1745e-13
4.16867e-13
4.16418e-13
4.16122e-13
4.15979e-13
4.15986e-13
4.16141e-13
4.16437e-13
4.16876e-13
4.17443e-13
4.18129e-13
4.18921e-13
4.19801e-13
4.20765e-13
4.21807e-13
4.2293e-13
4.24121e-13
4.25385e-13
4.26714e-13
4.2809e-13
4.29538e-13
4.31045e-13
4.3259e-13
4.34207e-13
4.35836e-13
4.37531e-13
4.39208e-13
4.40944e-13
4.42649e-13
4.44387e-13
4.46062e-13
4.47747e-13
4.49358e-13
4.50963e-13
4.52544e-13
4.54171e-13
4.55746e-13
4.57307e-13
4.58802e-13
4.60253e-13
4.61642e-13
4.63013e-13
4.64335e-13
4.65631e-13
4.66885e-13
4.68096e-13
4.69266e-13
4.70423e-13
4.71576e-13
4.72684e-13
4.73749e-13
4.74777e-13
4.75739e-13
4.76624e-13
4.77465e-13
4.78277e-13
4.79038e-13
4.7976e-13
4.80436e-13
4.81101e-13
4.81722e-13
4.82351e-13
4.82912e-13
4.83394e-13
4.83849e-13
4.84319e-13
4.84834e-13
4.85413e-13
4.86052e-13
4.86848e-13
4.87915e-13
4.87714e-13
4.87921e-13
4.8842e-13
4.88153e-13
4.8821e-13
4.88311e-13
4.8846e-13
4.88652e-13
4.88865e-13
4.8909e-13
4.89285e-13
4.89463e-13
4.89652e-13
4.89853e-13
4.9006e-13
4.90273e-13
4.90471e-13
4.90636e-13
4.90785e-13
4.90938e-13
4.91084e-13
4.91207e-13
4.91323e-13
4.91442e-13
4.91574e-13
4.91718e-13
4.9185e-13
4.92004e-13
4.92212e-13
4.9212e-13
4.9213e-13
4.92169e-13
4.92091e-13
4.92048e-13
4.91964e-13
4.91878e-13
4.91786e-13
4.91702e-13
4.91613e-13
4.91536e-13
4.91456e-13
4.91417e-13
4.91382e-13
4.91353e-13
4.91349e-13
4.91357e-13
4.91368e-13
4.91384e-13
4.91399e-13
4.91428e-13
4.91424e-13
4.9139e-13
4.91356e-13
4.91303e-13
4.91229e-13
4.9112e-13
4.90998e-13
4.90854e-13
4.90708e-13
4.90562e-13
4.90462e-13
4.9036e-13
4.90319e-13
4.90277e-13
4.90278e-13
4.90285e-13
4.90305e-13
4.90332e-13
4.90331e-13
4.90324e-13
4.90294e-13
4.90248e-13
4.90161e-13
4.90058e-13
4.89946e-13
4.8982e-13
4.89683e-13
4.89553e-13
4.89451e-13
4.89356e-13
4.89315e-13
4.8927e-13
4.89256e-13
4.89254e-13
4.89256e-13
4.89246e-13
4.89223e-13
4.89181e-13
4.89122e-13
4.89045e-13
4.88946e-13
4.88832e-13
4.88706e-13
4.88588e-13
4.88474e-13
4.88384e-13
4.88305e-13
4.88213e-13
4.88228e-13
4.88208e-13
4.88177e-13
4.88161e-13
4.88132e-13
4.8809e-13
4.88031e-13
4.87955e-13
4.87865e-13
4.87765e-13
4.87654e-13
4.87538e-13
4.87418e-13
4.8731e-13
4.87217e-13
4.87121e-13
4.87103e-13
4.87061e-13
4.87018e-13
4.87004e-13
4.86975e-13
4.8691e-13
4.16602e-13
4.16602e-13
4.166e-13
4.16578e-13
4.16555e-13
4.16712e-13
4.17188e-13
4.1815e-13
4.19425e-13
4.20698e-13
4.22125e-13
4.23934e-13
4.25972e-13
4.27912e-13
4.29658e-13
4.31244e-13
4.32703e-13
4.3404e-13
4.35244e-13
4.36305e-13
4.37281e-13
4.38154e-13
4.38906e-13
4.39519e-13
4.39976e-13
4.40258e-13
4.40365e-13
4.40346e-13
4.40095e-13
4.39624e-13
4.38972e-13
4.38121e-13
4.3709e-13
4.359e-13
4.34577e-13
4.33143e-13
4.31645e-13
4.30128e-13
4.28595e-13
4.27069e-13
4.25584e-13
4.24163e-13
4.22824e-13
4.21563e-13
4.20428e-13
4.19439e-13
4.18613e-13
4.17934e-13
4.17415e-13
4.17073e-13
4.16927e-13
4.16987e-13
4.17227e-13
4.17654e-13
4.1828e-13
4.191e-13
4.20086e-13
4.2123e-13
4.22517e-13
4.23941e-13
4.25487e-13
4.27155e-13
4.28938e-13
4.30827e-13
4.32821e-13
4.3489e-13
4.37041e-13
4.39265e-13
4.41531e-13
4.43854e-13
4.46211e-13
4.48586e-13
4.5103e-13
4.53464e-13
4.55968e-13
4.58443e-13
4.60974e-13
4.63464e-13
4.65976e-13
4.6842e-13
4.70861e-13
4.73233e-13
4.75576e-13
4.77892e-13
4.8024e-13
4.82546e-13
4.84808e-13
4.87013e-13
4.89144e-13
4.91216e-13
4.93244e-13
4.95237e-13
4.97175e-13
4.99091e-13
5.0094e-13
5.02755e-13
5.0454e-13
5.06324e-13
5.08066e-13
5.09752e-13
5.11404e-13
5.12984e-13
5.14475e-13
5.15905e-13
5.17306e-13
5.18636e-13
5.19928e-13
5.21148e-13
5.22368e-13
5.23516e-13
5.2468e-13
5.2576e-13
5.26749e-13
5.27681e-13
5.28623e-13
5.29608e-13
5.30668e-13
5.31805e-13
5.33126e-13
5.34909e-13
5.35125e-13
5.35757e-13
5.36826e-13
5.36917e-13
5.37229e-13
5.37646e-13
5.3812e-13
5.38635e-13
5.39169e-13
5.39713e-13
5.4022e-13
5.40693e-13
5.41176e-13
5.41672e-13
5.42176e-13
5.42689e-13
5.43185e-13
5.43647e-13
5.44083e-13
5.44525e-13
5.44951e-13
5.45352e-13
5.45731e-13
5.46112e-13
5.46503e-13
5.46909e-13
5.47322e-13
5.4777e-13
5.4832e-13
5.48523e-13
5.48808e-13
5.4917e-13
5.4936e-13
5.49594e-13
5.49756e-13
5.49927e-13
5.50071e-13
5.50218e-13
5.50346e-13
5.50471e-13
5.50599e-13
5.50739e-13
5.50888e-13
5.51047e-13
5.51222e-13
5.51411e-13
5.51607e-13
5.51811e-13
5.52013e-13
5.52221e-13
5.52424e-13
5.52534e-13
5.5266e-13
5.52745e-13
5.5284e-13
5.52839e-13
5.52837e-13
5.52804e-13
5.5276e-13
5.52712e-13
5.52695e-13
5.52687e-13
5.52707e-13
5.52749e-13
5.52812e-13
5.5289e-13
5.52981e-13
5.53072e-13
5.53165e-13
5.53208e-13
5.53237e-13
5.53247e-13
5.53217e-13
5.53164e-13
5.53095e-13
5.53005e-13
5.52899e-13
5.52797e-13
5.5272e-13
5.52645e-13
5.52623e-13
5.52592e-13
5.52601e-13
5.52614e-13
5.52639e-13
5.52634e-13
5.52621e-13
5.52586e-13
5.52535e-13
5.52463e-13
5.52369e-13
5.52251e-13
5.52117e-13
5.51987e-13
5.51856e-13
5.5175e-13
5.51651e-13
5.51511e-13
5.51528e-13
5.51498e-13
5.51442e-13
5.51414e-13
5.51369e-13
5.51304e-13
5.51222e-13
5.51122e-13
5.51005e-13
5.50877e-13
5.50733e-13
5.50578e-13
5.50413e-13
5.50263e-13
5.50124e-13
5.4995e-13
5.49907e-13
5.49833e-13
5.49738e-13
5.4969e-13
5.49625e-13
5.49497e-13
4.16679e-13
4.1666e-13
4.16631e-13
4.16584e-13
4.16655e-13
4.17152e-13
4.182e-13
4.19576e-13
4.21051e-13
4.22677e-13
4.24401e-13
4.26104e-13
4.27696e-13
4.29174e-13
4.30522e-13
4.31732e-13
4.3282e-13
4.33816e-13
4.34691e-13
4.35427e-13
4.36079e-13
4.36628e-13
4.3706e-13
4.37363e-13
4.37528e-13
4.37553e-13
4.37428e-13
4.37124e-13
4.3662e-13
4.35929e-13
4.35075e-13
4.34066e-13
4.32923e-13
4.31685e-13
4.30364e-13
4.28975e-13
4.27563e-13
4.26166e-13
4.24799e-13
4.23481e-13
4.22243e-13
4.21111e-13
4.20105e-13
4.19226e-13
4.18502e-13
4.17959e-13
4.1761e-13
4.17459e-13
4.1751e-13
4.17757e-13
4.18223e-13
4.18905e-13
4.19795e-13
4.20877e-13
4.22178e-13
4.23683e-13
4.25349e-13
4.27179e-13
4.29144e-13
4.31244e-13
4.33451e-13
4.35769e-13
4.38186e-13
4.40699e-13
4.43306e-13
4.45959e-13
4.48678e-13
4.51444e-13
4.5424e-13
4.57085e-13
4.5993e-13
4.62779e-13
4.65681e-13
4.68539e-13
4.71468e-13
4.74345e-13
4.77261e-13
4.80122e-13
4.82984e-13
4.85766e-13
4.88524e-13
4.91204e-13
4.93837e-13
4.96444e-13
4.99066e-13
5.01642e-13
5.0415e-13
5.06598e-13
5.08956e-13
5.11251e-13
5.13496e-13
5.15705e-13
5.17849e-13
5.19975e-13
5.22025e-13
5.24041e-13
5.26028e-13
5.28006e-13
5.29939e-13
5.31814e-13
5.33657e-13
5.35422e-13
5.37094e-13
5.3871e-13
5.40292e-13
5.41802e-13
5.43271e-13
5.44672e-13
5.46071e-13
5.47397e-13
5.48743e-13
5.49996e-13
5.51161e-13
5.52263e-13
5.53382e-13
5.54542e-13
5.5577e-13
5.57083e-13
5.58569e-13
5.60531e-13
5.60893e-13
5.6169e-13
5.6288e-13
5.63172e-13
5.63666e-13
5.64253e-13
5.64891e-13
5.6556e-13
5.66241e-13
5.66929e-13
5.67571e-13
5.68174e-13
5.68787e-13
5.6941e-13
5.7004e-13
5.70679e-13
5.71295e-13
5.71881e-13
5.72443e-13
5.73011e-13
5.73559e-13
5.74083e-13
5.74586e-13
5.75086e-13
5.75596e-13
5.76116e-13
5.76643e-13
5.772e-13
5.77865e-13
5.78169e-13
5.78558e-13
5.79029e-13
5.79329e-13
5.79677e-13
5.79948e-13
5.80227e-13
5.8048e-13
5.80733e-13
5.80967e-13
5.81192e-13
5.8142e-13
5.81657e-13
5.81899e-13
5.82149e-13
5.82411e-13
5.82685e-13
5.82966e-13
5.83253e-13
5.83537e-13
5.83826e-13
5.84124e-13
5.84317e-13
5.84532e-13
5.84694e-13
5.8487e-13
5.84941e-13
5.85023e-13
5.85039e-13
5.85051e-13
5.85068e-13
5.851e-13
5.85145e-13
5.85214e-13
5.85304e-13
5.85414e-13
5.85538e-13
5.85678e-13
5.85822e-13
5.85946e-13
5.86054e-13
5.86116e-13
5.86189e-13
5.8618e-13
5.86159e-13
5.86121e-13
5.86062e-13
5.85984e-13
5.85905e-13
5.85846e-13
5.85787e-13
5.8578e-13
5.85769e-13
5.85787e-13
5.85813e-13
5.85853e-13
5.8587e-13
5.85866e-13
5.85845e-13
5.85805e-13
5.85744e-13
5.85657e-13
5.85544e-13
5.85414e-13
5.85282e-13
5.85148e-13
5.85037e-13
5.84929e-13
5.84779e-13
5.84784e-13
5.84751e-13
5.84692e-13
5.84656e-13
5.84605e-13
5.84534e-13
5.84445e-13
5.84336e-13
5.84209e-13
5.84067e-13
5.83909e-13
5.83737e-13
5.83554e-13
5.83381e-13
5.83217e-13
5.8302e-13
5.82948e-13
5.82849e-13
5.82731e-13
5.82661e-13
5.82574e-13
5.82417e-13
4.16743e-13
4.16685e-13
4.16634e-13
4.16667e-13
4.17104e-13
4.1814e-13
4.1951e-13
4.21038e-13
4.22538e-13
4.23939e-13
4.25215e-13
4.26457e-13
4.27669e-13
4.28821e-13
4.29887e-13
4.30824e-13
4.31633e-13
4.3234e-13
4.32938e-13
4.33417e-13
4.33831e-13
4.34155e-13
4.34381e-13
4.34497e-13
4.34499e-13
4.34365e-13
4.34078e-13
4.33618e-13
4.32999e-13
4.32234e-13
4.31341e-13
4.30327e-13
4.2921e-13
4.28024e-13
4.26787e-13
4.25513e-13
4.24254e-13
4.2305e-13
4.21919e-13
4.20874e-13
4.1995e-13
4.19176e-13
4.18573e-13
4.18137e-13
4.17901e-13
4.17884e-13
4.1811e-13
4.18575e-13
4.19277e-13
4.20203e-13
4.21371e-13
4.22769e-13
4.24402e-13
4.26232e-13
4.28305e-13
4.30577e-13
4.32992e-13
4.35579e-13
4.38284e-13
4.41118e-13
4.4403e-13
4.47037e-13
4.50116e-13
4.53268e-13
4.56492e-13
4.59716e-13
4.62991e-13
4.66269e-13
4.69548e-13
4.72856e-13
4.76109e-13
4.79342e-13
4.82604e-13
4.85783e-13
4.89033e-13
4.92199e-13
4.95378e-13
4.98484e-13
5.01562e-13
5.04544e-13
5.07476e-13
5.10319e-13
5.13092e-13
5.15829e-13
5.18568e-13
5.21247e-13
5.23831e-13
5.2635e-13
5.28764e-13
5.31107e-13
5.334e-13
5.3565e-13
5.37832e-13
5.39996e-13
5.42073e-13
5.44113e-13
5.46126e-13
5.48127e-13
5.50078e-13
5.5197e-13
5.53832e-13
5.55609e-13
5.57295e-13
5.58933e-13
5.6053e-13
5.62057e-13
5.63541e-13
5.64964e-13
5.66381e-13
5.67731e-13
5.69103e-13
5.70379e-13
5.71573e-13
5.72706e-13
5.73863e-13
5.75062e-13
5.7632e-13
5.77672e-13
5.79177e-13
5.8112e-13
5.81533e-13
5.82359e-13
5.83458e-13
5.83882e-13
5.84449e-13
5.85093e-13
5.85784e-13
5.86496e-13
5.87218e-13
5.87947e-13
5.88625e-13
5.89267e-13
5.89917e-13
5.90574e-13
5.91236e-13
5.91909e-13
5.92553e-13
5.93174e-13
5.93774e-13
5.94381e-13
5.94966e-13
5.95528e-13
5.96073e-13
5.96614e-13
5.97165e-13
5.97722e-13
5.98289e-13
5.98877e-13
5.99569e-13
5.99909e-13
6.00327e-13
6.00817e-13
6.0116e-13
6.01541e-13
6.0185e-13
6.02164e-13
6.02453e-13
6.02743e-13
6.03014e-13
6.03276e-13
6.03541e-13
6.03815e-13
6.04092e-13
6.04378e-13
6.04674e-13
6.0498e-13
6.05292e-13
6.05611e-13
6.05926e-13
6.06244e-13
6.06573e-13
6.068e-13
6.07048e-13
6.07242e-13
6.07452e-13
6.07555e-13
6.07672e-13
6.07717e-13
6.07755e-13
6.07798e-13
6.07855e-13
6.07922e-13
6.08014e-13
6.08127e-13
6.08259e-13
6.08403e-13
6.08565e-13
6.08734e-13
6.08874e-13
6.09007e-13
6.0909e-13
6.09189e-13
6.09194e-13
6.09186e-13
6.09163e-13
6.09117e-13
6.09054e-13
6.08988e-13
6.08938e-13
6.08889e-13
6.0889e-13
6.08886e-13
6.08908e-13
6.0894e-13
6.08983e-13
6.09009e-13
6.09008e-13
6.08992e-13
6.08956e-13
6.089e-13
6.08815e-13
6.08704e-13
6.08573e-13
6.0844e-13
6.08304e-13
6.08189e-13
6.08073e-13
6.07918e-13
6.07913e-13
6.07874e-13
6.07812e-13
6.07766e-13
6.07707e-13
6.07629e-13
6.07532e-13
6.07415e-13
6.07279e-13
6.07128e-13
6.06959e-13
6.06775e-13
6.06579e-13
6.06393e-13
6.06209e-13
6.05997e-13
6.05907e-13
6.05788e-13
6.05654e-13
6.05565e-13
6.05461e-13
6.05279e-13
4.16797e-13
4.16692e-13
4.1668e-13
4.17037e-13
4.17962e-13
4.1925e-13
4.20719e-13
4.22129e-13
4.23351e-13
4.24362e-13
4.25235e-13
4.26223e-13
4.27184e-13
4.28031e-13
4.28787e-13
4.29443e-13
4.30003e-13
4.30488e-13
4.30891e-13
4.31191e-13
4.31442e-13
4.31617e-13
4.31711e-13
4.31712e-13
4.31602e-13
4.31361e-13
4.30979e-13
4.30449e-13
4.29781e-13
4.28994e-13
4.28106e-13
4.27125e-13
4.26066e-13
4.24972e-13
4.23866e-13
4.22757e-13
4.21706e-13
4.20758e-13
4.19933e-13
4.19242e-13
4.18715e-13
4.18395e-13
4.18308e-13
4.18459e-13
4.18853e-13
4.19516e-13
4.20492e-13
4.21765e-13
4.23322e-13
4.25127e-13
4.2722e-13
4.29564e-13
4.32177e-13
4.34976e-13
4.38041e-13
4.41291e-13
4.44642e-13
4.48182e-13
4.51803e-13
4.5553e-13
4.59285e-13
4.63098e-13
4.66943e-13
4.7081e-13
4.74715e-13
4.78538e-13
4.82382e-13
4.86166e-13
4.89893e-13
4.93632e-13
4.97238e-13
5.00801e-13
5.04366e-13
5.07781e-13
5.11276e-13
5.14631e-13
5.17973e-13
5.21211e-13
5.24389e-13
5.2744e-13
5.30421e-13
5.33291e-13
5.36069e-13
5.38787e-13
5.41505e-13
5.44148e-13
5.46679e-13
5.49136e-13
5.5148e-13
5.53744e-13
5.55961e-13
5.58128e-13
5.60226e-13
5.62298e-13
5.64272e-13
5.66205e-13
5.68114e-13
5.70012e-13
5.7186e-13
5.7365e-13
5.75418e-13
5.77092e-13
5.78685e-13
5.80236e-13
5.81736e-13
5.8317e-13
5.84559e-13
5.85899e-13
5.87229e-13
5.88501e-13
5.89796e-13
5.90994e-13
5.92122e-13
5.93196e-13
5.94302e-13
5.9545e-13
5.96643e-13
5.9794e-13
5.99361e-13
6.01161e-13
6.01583e-13
6.02351e-13
6.03241e-13
6.03769e-13
6.04327e-13
6.04942e-13
6.05604e-13
6.06282e-13
6.06972e-13
6.0767e-13
6.08318e-13
6.08936e-13
6.09559e-13
6.10185e-13
6.10816e-13
6.11459e-13
6.12068e-13
6.12666e-13
6.13247e-13
6.13834e-13
6.14397e-13
6.14942e-13
6.15475e-13
6.16005e-13
6.16545e-13
6.17084e-13
6.17641e-13
6.1821e-13
6.18873e-13
6.19211e-13
6.19612e-13
6.20071e-13
6.20414e-13
6.20782e-13
6.21082e-13
6.21385e-13
6.21668e-13
6.21949e-13
6.22214e-13
6.22473e-13
6.22734e-13
6.23003e-13
6.23278e-13
6.23562e-13
6.23855e-13
6.24156e-13
6.24465e-13
6.2478e-13
6.25092e-13
6.25405e-13
6.2573e-13
6.25958e-13
6.26203e-13
6.26396e-13
6.26605e-13
6.26713e-13
6.26831e-13
6.2688e-13
6.26923e-13
6.26967e-13
6.27027e-13
6.27094e-13
6.27188e-13
6.27302e-13
6.27434e-13
6.27578e-13
6.2774e-13
6.27911e-13
6.28051e-13
6.28186e-13
6.2827e-13
6.28368e-13
6.28377e-13
6.28369e-13
6.28345e-13
6.283e-13
6.28236e-13
6.28171e-13
6.28119e-13
6.28068e-13
6.2807e-13
6.28057e-13
6.2808e-13
6.28106e-13
6.28146e-13
6.28163e-13
6.28161e-13
6.2814e-13
6.281e-13
6.28039e-13
6.27949e-13
6.27832e-13
6.27695e-13
6.27554e-13
6.27411e-13
6.27289e-13
6.27162e-13
6.27e-13
6.26981e-13
6.26932e-13
6.26862e-13
6.26803e-13
6.26732e-13
6.26642e-13
6.26534e-13
6.26406e-13
6.26258e-13
6.26094e-13
6.25913e-13
6.25716e-13
6.25506e-13
6.25307e-13
6.25105e-13
6.2488e-13
6.24771e-13
6.24635e-13
6.24485e-13
6.24377e-13
6.24255e-13
6.24047e-13
4.16811e-13
4.16707e-13
4.1693e-13
4.17696e-13
4.18865e-13
4.20252e-13
4.21604e-13
4.22746e-13
4.2362e-13
4.24311e-13
4.25046e-13
4.25777e-13
4.26439e-13
4.27014e-13
4.27518e-13
4.27955e-13
4.28329e-13
4.28651e-13
4.28915e-13
4.29091e-13
4.29226e-13
4.29293e-13
4.2929e-13
4.29198e-13
4.28998e-13
4.28677e-13
4.28232e-13
4.2766e-13
4.26968e-13
4.26184e-13
4.2533e-13
4.24418e-13
4.23461e-13
4.2251e-13
4.21599e-13
4.20732e-13
4.19973e-13
4.19374e-13
4.18964e-13
4.18765e-13
4.18805e-13
4.19123e-13
4.19763e-13
4.20727e-13
4.22029e-13
4.23675e-13
4.25733e-13
4.28178e-13
4.30974e-13
4.34035e-13
4.37474e-13
4.41191e-13
4.4521e-13
4.49405e-13
4.53789e-13
4.58399e-13
4.63043e-13
4.67851e-13
4.72731e-13
4.77575e-13
4.82449e-13
4.87207e-13
4.92008e-13
4.96665e-13
5.01372e-13
5.058e-13
5.10221e-13
5.14467e-13
5.18569e-13
5.22663e-13
5.26513e-13
5.30301e-13
5.3404e-13
5.37524e-13
5.41116e-13
5.4446e-13
5.47772e-13
5.50924e-13
5.53984e-13
5.56867e-13
5.59673e-13
5.62311e-13
5.6487e-13
5.67335e-13
5.6984e-13
5.72241e-13
5.74538e-13
5.76747e-13
5.78846e-13
5.80856e-13
5.82832e-13
5.84749e-13
5.86607e-13
5.88421e-13
5.90137e-13
5.91814e-13
5.93479e-13
5.9514e-13
5.96755e-13
5.9832e-13
5.99877e-13
6.01334e-13
6.02722e-13
6.04071e-13
6.05358e-13
6.06587e-13
6.07778e-13
6.08931e-13
6.10072e-13
6.11167e-13
6.12284e-13
6.13306e-13
6.14278e-13
6.1521e-13
6.16184e-13
6.17192e-13
6.18229e-13
6.19373e-13
6.20612e-13
6.22149e-13
6.22562e-13
6.2318e-13
6.23795e-13
6.24366e-13
6.24828e-13
6.25341e-13
6.25909e-13
6.26481e-13
6.27073e-13
6.27671e-13
6.28226e-13
6.2876e-13
6.29293e-13
6.29827e-13
6.30367e-13
6.30918e-13
6.31436e-13
6.31953e-13
6.32462e-13
6.32973e-13
6.33462e-13
6.33937e-13
6.34409e-13
6.34877e-13
6.35356e-13
6.3583e-13
6.36328e-13
6.3683e-13
6.37411e-13
6.37714e-13
6.38057e-13
6.38441e-13
6.38743e-13
6.39062e-13
6.39315e-13
6.3957e-13
6.3981e-13
6.40046e-13
6.4027e-13
6.40489e-13
6.40714e-13
6.40942e-13
6.41181e-13
6.41431e-13
6.41688e-13
6.41952e-13
6.42226e-13
6.42505e-13
6.42785e-13
6.43061e-13
6.43352e-13
6.43552e-13
6.43764e-13
6.43929e-13
6.44109e-13
6.44194e-13
6.44287e-13
6.44317e-13
6.44342e-13
6.44365e-13
6.44407e-13
6.44451e-13
6.44526e-13
6.44619e-13
6.44732e-13
6.44853e-13
6.44993e-13
6.45144e-13
6.45268e-13
6.45382e-13
6.45448e-13
6.45521e-13
6.4552e-13
6.455e-13
6.4546e-13
6.45398e-13
6.45319e-13
6.45243e-13
6.45174e-13
6.4511e-13
6.45097e-13
6.45058e-13
6.45077e-13
6.4508e-13
6.45106e-13
6.45105e-13
6.4509e-13
6.45055e-13
6.44998e-13
6.44922e-13
6.44818e-13
6.44686e-13
6.44534e-13
6.44379e-13
6.44221e-13
6.44083e-13
6.4394e-13
6.43766e-13
6.43725e-13
6.43658e-13
6.43575e-13
6.43496e-13
6.43407e-13
6.43299e-13
6.43174e-13
6.4303e-13
6.42865e-13
6.42684e-13
6.42486e-13
6.42272e-13
6.42045e-13
6.41828e-13
6.41607e-13
6.41366e-13
6.41235e-13
6.4108e-13
6.40913e-13
6.40782e-13
6.40638e-13
6.40401e-13
4.16773e-13
4.16786e-13
4.17337e-13
4.18368e-13
4.19683e-13
4.21013e-13
4.22142e-13
4.22994e-13
4.23597e-13
4.24148e-13
4.24685e-13
4.2517e-13
4.2559e-13
4.25952e-13
4.26271e-13
4.26551e-13
4.2679e-13
4.26987e-13
4.27135e-13
4.2721e-13
4.27247e-13
4.27226e-13
4.27141e-13
4.26971e-13
4.26701e-13
4.26323e-13
4.25841e-13
4.25254e-13
4.24571e-13
4.23827e-13
4.23052e-13
4.22262e-13
4.21472e-13
4.20747e-13
4.20127e-13
4.19613e-13
4.19283e-13
4.19196e-13
4.19413e-13
4.19939e-13
4.20823e-13
4.22107e-13
4.23868e-13
4.26118e-13
4.28862e-13
4.32052e-13
4.35832e-13
4.40117e-13
4.44855e-13
4.49872e-13
4.55293e-13
4.61063e-13
4.67018e-13
4.73325e-13
4.79326e-13
4.85819e-13
4.92394e-13
4.98757e-13
5.05457e-13
5.11612e-13
5.18072e-13
5.23873e-13
5.29936e-13
5.35417e-13
5.41074e-13
5.46065e-13
5.51047e-13
5.55659e-13
5.6007e-13
5.64377e-13
5.68253e-13
5.72054e-13
5.75654e-13
5.78915e-13
5.82271e-13
5.85257e-13
5.88187e-13
5.90893e-13
5.93464e-13
5.95818e-13
5.98078e-13
6.0011e-13
6.02096e-13
6.03945e-13
6.05928e-13
6.07771e-13
6.09522e-13
6.11184e-13
6.12734e-13
6.14219e-13
6.15673e-13
6.17072e-13
6.18447e-13
6.1978e-13
6.21029e-13
6.22249e-13
6.23483e-13
6.24731e-13
6.25932e-13
6.27109e-13
6.28296e-13
6.29382e-13
6.30417e-13
6.31427e-13
6.32369e-13
6.33275e-13
6.34151e-13
6.35007e-13
6.35851e-13
6.36664e-13
6.37499e-13
6.38242e-13
6.38958e-13
6.39664e-13
6.40408e-13
6.41188e-13
6.41965e-13
6.42855e-13
6.43814e-13
6.44968e-13
6.45389e-13
6.45706e-13
6.46039e-13
6.46519e-13
6.46839e-13
6.47182e-13
6.47596e-13
6.47991e-13
6.48418e-13
6.48845e-13
6.49245e-13
6.49632e-13
6.50015e-13
6.50396e-13
6.50785e-13
6.51184e-13
6.51557e-13
6.51935e-13
6.52315e-13
6.52697e-13
6.53058e-13
6.53414e-13
6.53777e-13
6.54132e-13
6.54503e-13
6.54864e-13
6.55257e-13
6.55644e-13
6.56092e-13
6.5633e-13
6.56567e-13
6.56834e-13
6.57056e-13
6.57287e-13
6.57459e-13
6.57629e-13
6.57788e-13
6.57944e-13
6.58092e-13
6.58236e-13
6.58392e-13
6.58544e-13
6.58716e-13
6.58899e-13
6.59089e-13
6.59282e-13
6.59492e-13
6.59702e-13
6.5992e-13
6.60129e-13
6.60353e-13
6.605e-13
6.60648e-13
6.60759e-13
6.60879e-13
6.6092e-13
6.6096e-13
6.60951e-13
6.6093e-13
6.60917e-13
6.60913e-13
6.60913e-13
6.60947e-13
6.60994e-13
6.61072e-13
6.61141e-13
6.6124e-13
6.61349e-13
6.61437e-13
6.61506e-13
6.61536e-13
6.61566e-13
6.61541e-13
6.61488e-13
6.61415e-13
6.61321e-13
6.61212e-13
6.61108e-13
6.61009e-13
6.60915e-13
6.60872e-13
6.60795e-13
6.60794e-13
6.60763e-13
6.60758e-13
6.60729e-13
6.60684e-13
6.60621e-13
6.60537e-13
6.60434e-13
6.60305e-13
6.60148e-13
6.59971e-13
6.59791e-13
6.59609e-13
6.59448e-13
6.59279e-13
6.59084e-13
6.59013e-13
6.58919e-13
6.58813e-13
6.58707e-13
6.58592e-13
6.58459e-13
6.5831e-13
6.58141e-13
6.57953e-13
6.57748e-13
6.57527e-13
6.57291e-13
6.57042e-13
6.56803e-13
6.56557e-13
6.56298e-13
6.56139e-13
6.55958e-13
6.55771e-13
6.55611e-13
6.55442e-13
6.5517e-13
4.16738e-13
4.16908e-13
4.17761e-13
4.18997e-13
4.20331e-13
4.21509e-13
4.2241e-13
4.23023e-13
4.23482e-13
4.23868e-13
4.24209e-13
4.24493e-13
4.24739e-13
4.24955e-13
4.2514e-13
4.25298e-13
4.25425e-13
4.25518e-13
4.25563e-13
4.25556e-13
4.25518e-13
4.25425e-13
4.25272e-13
4.25045e-13
4.2473e-13
4.24323e-13
4.23836e-13
4.23274e-13
4.22646e-13
4.21997e-13
4.21367e-13
4.20783e-13
4.20258e-13
4.19878e-13
4.19705e-13
4.19753e-13
4.20096e-13
4.20826e-13
4.2204e-13
4.23756e-13
4.26035e-13
4.28903e-13
4.325e-13
4.36814e-13
4.41831e-13
4.47385e-13
4.53753e-13
4.60761e-13
4.6828e-13
4.76321e-13
4.84253e-13
4.92858e-13
5.01169e-13
5.10353e-13
5.18286e-13
5.26961e-13
5.36282e-13
5.44327e-13
5.5325e-13
5.60864e-13
5.69191e-13
5.76066e-13
5.83461e-13
5.89719e-13
5.96356e-13
6.01933e-13
6.07493e-13
6.12328e-13
6.16927e-13
6.21178e-13
6.24905e-13
6.28456e-13
6.31605e-13
6.34476e-13
6.37132e-13
6.39568e-13
6.41742e-13
6.43711e-13
6.45396e-13
6.46896e-13
6.48149e-13
6.49305e-13
6.50264e-13
6.51193e-13
6.52168e-13
6.53124e-13
6.53842e-13
6.54637e-13
6.55189e-13
6.55854e-13
6.56379e-13
6.56939e-13
6.57445e-13
6.58023e-13
6.58474e-13
6.58989e-13
6.59508e-13
6.60093e-13
6.60602e-13
6.61153e-13
6.61723e-13
6.62227e-13
6.6273e-13
6.63225e-13
6.63665e-13
6.64095e-13
6.64518e-13
6.6493e-13
6.65346e-13
6.65734e-13
6.66162e-13
6.66498e-13
6.6684e-13
6.67203e-13
6.67598e-13
6.68065e-13
6.6848e-13
6.69016e-13
6.69574e-13
6.70253e-13
6.70597e-13
6.70539e-13
6.70597e-13
6.70832e-13
6.70948e-13
6.71074e-13
6.71253e-13
6.71407e-13
6.7158e-13
6.71771e-13
6.71942e-13
6.72117e-13
6.72293e-13
6.72463e-13
6.72638e-13
6.72828e-13
6.72993e-13
6.73179e-13
6.73373e-13
6.73574e-13
6.73753e-13
6.73939e-13
6.7414e-13
6.74336e-13
6.74553e-13
6.74751e-13
6.74993e-13
6.75214e-13
6.7548e-13
6.75614e-13
6.75703e-13
6.75817e-13
6.75916e-13
6.76017e-13
6.76071e-13
6.76121e-13
6.76163e-13
6.76206e-13
6.76238e-13
6.76278e-13
6.76326e-13
6.76376e-13
6.76445e-13
6.76527e-13
6.76624e-13
6.76707e-13
6.76825e-13
6.76934e-13
6.77059e-13
6.77169e-13
6.77294e-13
6.77364e-13
6.7742e-13
6.7745e-13
6.77483e-13
6.77455e-13
6.77418e-13
6.77347e-13
6.77259e-13
6.77183e-13
6.77109e-13
6.77047e-13
6.77008e-13
6.76995e-13
6.77017e-13
6.77004e-13
6.77045e-13
6.77091e-13
6.77118e-13
6.77122e-13
6.77097e-13
6.7707e-13
6.76999e-13
6.76895e-13
6.7677e-13
6.76628e-13
6.76473e-13
6.76324e-13
6.7618e-13
6.76042e-13
6.75952e-13
6.75826e-13
6.7578e-13
6.75707e-13
6.75655e-13
6.75584e-13
6.75496e-13
6.75391e-13
6.75266e-13
6.75124e-13
6.74959e-13
6.74765e-13
6.74552e-13
6.74337e-13
6.7412e-13
6.73925e-13
6.7372e-13
6.73497e-13
6.7338e-13
6.73252e-13
6.73113e-13
6.72971e-13
6.72821e-13
6.72654e-13
6.72472e-13
6.72271e-13
6.72052e-13
6.71816e-13
6.71564e-13
6.71299e-13
6.71021e-13
6.70754e-13
6.70478e-13
6.70194e-13
6.69999e-13
6.69788e-13
6.69574e-13
6.6938e-13
6.6918e-13
6.68865e-13
4.16708e-13
4.17105e-13
4.18189e-13
4.19524e-13
4.20793e-13
4.21795e-13
4.22499e-13
4.22956e-13
4.2327e-13
4.23517e-13
4.23696e-13
4.23835e-13
4.23955e-13
4.24057e-13
4.24142e-13
4.24204e-13
4.24237e-13
4.24244e-13
4.24217e-13
4.24146e-13
4.24044e-13
4.23899e-13
4.23701e-13
4.23442e-13
4.23113e-13
4.22713e-13
4.22267e-13
4.21783e-13
4.21274e-13
4.208e-13
4.20417e-13
4.20166e-13
4.2007e-13
4.20265e-13
4.20835e-13
4.21827e-13
4.23325e-13
4.25425e-13
4.28261e-13
4.31906e-13
4.36431e-13
4.41745e-13
4.48144e-13
4.55508e-13
4.6379e-13
4.72862e-13
4.82413e-13
4.93038e-13
5.03931e-13
5.16121e-13
5.26634e-13
5.38642e-13
5.49592e-13
5.61949e-13
5.72404e-13
5.83398e-13
5.95696e-13
6.05427e-13
6.16615e-13
6.25536e-13
6.35384e-13
6.43154e-13
6.51407e-13
6.58171e-13
6.65171e-13
6.71051e-13
6.76653e-13
6.81436e-13
6.85833e-13
6.89648e-13
6.93092e-13
6.95974e-13
6.98611e-13
7.00938e-13
7.02603e-13
7.04668e-13
7.05724e-13
7.07196e-13
7.07638e-13
7.08528e-13
7.0843e-13
7.08941e-13
7.08498e-13
7.08859e-13
7.08315e-13
7.08509e-13
7.07761e-13
7.07732e-13
7.06932e-13
7.06713e-13
7.05976e-13
7.05587e-13
7.04865e-13
7.04484e-13
7.03753e-13
7.03382e-13
7.02783e-13
7.02443e-13
7.01941e-13
7.0161e-13
7.0128e-13
7.00939e-13
7.00715e-13
7.00456e-13
7.00192e-13
6.99941e-13
6.99722e-13
6.99479e-13
6.993e-13
6.99055e-13
6.98909e-13
6.98677e-13
6.98535e-13
6.9836e-13
6.9832e-13
6.98372e-13
6.98328e-13
6.98378e-13
6.98346e-13
6.98531e-13
6.98586e-13
6.98218e-13
6.97856e-13
6.97745e-13
6.97596e-13
6.97456e-13
6.97269e-13
6.9713e-13
6.96942e-13
6.9684e-13
6.96704e-13
6.96614e-13
6.9652e-13
6.96425e-13
6.96307e-13
6.96241e-13
6.96123e-13
6.96075e-13
6.96017e-13
6.95989e-13
6.95923e-13
6.95893e-13
6.95874e-13
6.95875e-13
6.95879e-13
6.95873e-13
6.95906e-13
6.95906e-13
6.95956e-13
6.95929e-13
6.95849e-13
6.95767e-13
6.95695e-13
6.95621e-13
6.95523e-13
6.9542e-13
6.95303e-13
6.95202e-13
6.95079e-13
6.94988e-13
6.94884e-13
6.94812e-13
6.94732e-13
6.94686e-13
6.9466e-13
6.94594e-13
6.94597e-13
6.94571e-13
6.9457e-13
6.94548e-13
6.94549e-13
6.94513e-13
6.94452e-13
6.94369e-13
6.94291e-13
6.94169e-13
6.94034e-13
6.93872e-13
6.93697e-13
6.93533e-13
6.93368e-13
6.9322e-13
6.93088e-13
6.92993e-13
6.92922e-13
6.9282e-13
6.92777e-13
6.92736e-13
6.92681e-13
6.92606e-13
6.92504e-13
6.924e-13
6.92261e-13
6.92089e-13
6.91895e-13
6.91687e-13
6.91471e-13
6.91261e-13
6.91055e-13
6.90857e-13
6.90705e-13
6.90516e-13
6.90407e-13
6.90278e-13
6.90163e-13
6.90032e-13
6.89887e-13
6.89727e-13
6.89548e-13
6.89353e-13
6.89138e-13
6.88897e-13
6.88636e-13
6.88375e-13
6.88112e-13
6.87872e-13
6.87621e-13
6.87361e-13
6.87183e-13
6.87011e-13
6.86829e-13
6.86641e-13
6.86447e-13
6.86236e-13
6.86012e-13
6.85771e-13
6.85512e-13
6.85236e-13
6.84946e-13
6.84644e-13
6.8433e-13
6.84027e-13
6.83715e-13
6.83401e-13
6.83157e-13
6.82911e-13
6.82666e-13
6.8243e-13
6.82192e-13
6.81826e-13
4.16765e-13
4.17374e-13
4.18596e-13
4.19943e-13
4.21095e-13
4.2194e-13
4.22482e-13
4.22803e-13
4.23009e-13
4.23132e-13
4.23196e-13
4.23237e-13
4.23262e-13
4.23276e-13
4.2328e-13
4.2327e-13
4.23237e-13
4.23179e-13
4.23093e-13
4.22977e-13
4.22836e-13
4.2266e-13
4.22444e-13
4.22187e-13
4.21884e-13
4.2154e-13
4.21193e-13
4.20862e-13
4.2057e-13
4.20394e-13
4.20431e-13
4.20761e-13
4.21445e-13
4.22622e-13
4.2444e-13
4.26993e-13
4.30368e-13
4.34598e-13
4.39937e-13
4.4648e-13
4.54343e-13
4.6315e-13
4.73199e-13
4.8453e-13
4.96783e-13
5.10722e-13
5.2348e-13
5.38431e-13
5.52844e-13
5.70027e-13
5.83052e-13
5.98644e-13
6.12106e-13
6.2714e-13
6.40568e-13
6.52984e-13
6.67221e-13
6.78499e-13
6.91009e-13
7.0097e-13
7.10807e-13
7.19242e-13
7.27033e-13
7.34038e-13
7.4024e-13
7.4616e-13
7.50722e-13
7.55299e-13
7.58621e-13
7.61883e-13
7.64669e-13
7.66375e-13
7.68719e-13
7.70029e-13
7.7081e-13
7.7263e-13
7.72298e-13
7.73819e-13
7.72788e-13
7.73513e-13
7.72178e-13
7.72283e-13
7.70791e-13
7.70797e-13
7.69148e-13
7.68697e-13
7.66936e-13
7.66168e-13
7.64406e-13
7.63353e-13
7.61683e-13
7.6042e-13
7.58777e-13
7.57427e-13
7.55748e-13
7.54425e-13
7.52839e-13
7.51478e-13
7.49961e-13
7.4865e-13
7.47309e-13
7.4598e-13
7.44838e-13
7.4365e-13
7.42483e-13
7.41355e-13
7.40295e-13
7.39226e-13
7.3824e-13
7.37222e-13
7.36287e-13
7.35329e-13
7.34543e-13
7.33729e-13
7.33105e-13
7.32605e-13
7.32014e-13
7.31401e-13
7.3063e-13
7.30197e-13
7.29802e-13
7.28999e-13
7.28142e-13
7.27622e-13
7.27065e-13
7.26559e-13
7.2597e-13
7.25432e-13
7.24828e-13
7.24345e-13
7.23844e-13
7.23413e-13
7.22976e-13
7.22545e-13
7.22083e-13
7.21676e-13
7.21233e-13
7.20881e-13
7.2052e-13
7.20193e-13
7.19843e-13
7.19537e-13
7.19249e-13
7.18998e-13
7.18739e-13
7.18484e-13
7.18248e-13
7.17989e-13
7.17783e-13
7.17537e-13
7.17242e-13
7.16935e-13
7.16637e-13
7.1636e-13
7.16067e-13
7.15773e-13
7.15466e-13
7.15179e-13
7.14874e-13
7.14611e-13
7.14331e-13
7.14092e-13
7.13839e-13
7.13628e-13
7.13435e-13
7.13207e-13
7.13048e-13
7.1287e-13
7.12703e-13
7.12526e-13
7.12373e-13
7.12194e-13
7.11993e-13
7.11772e-13
7.11558e-13
7.11311e-13
7.11055e-13
7.10779e-13
7.10495e-13
7.10219e-13
7.09944e-13
7.09686e-13
7.09441e-13
7.09241e-13
7.09048e-13
7.08842e-13
7.08688e-13
7.08541e-13
7.08381e-13
7.08205e-13
7.08008e-13
7.07808e-13
7.0758e-13
7.07323e-13
7.07043e-13
7.06751e-13
7.06458e-13
7.0617e-13
7.05888e-13
7.05615e-13
7.05383e-13
7.05117e-13
7.04929e-13
7.04726e-13
7.04533e-13
7.04328e-13
7.0411e-13
7.0388e-13
7.03634e-13
7.03372e-13
7.03095e-13
7.02794e-13
7.02475e-13
7.02155e-13
7.01834e-13
7.01539e-13
7.01231e-13
7.00924e-13
7.00668e-13
7.00444e-13
7.00208e-13
6.99965e-13
6.99715e-13
6.99451e-13
6.99175e-13
6.98884e-13
6.98576e-13
6.98251e-13
6.97914e-13
6.97567e-13
6.9721e-13
6.96864e-13
6.96509e-13
6.96159e-13
6.95852e-13
6.95568e-13
6.95284e-13
6.94998e-13
6.94716e-13
6.94289e-13
4.16933e-13
4.1766e-13
4.18946e-13
4.20256e-13
4.21281e-13
4.2199e-13
4.224e-13
4.22603e-13
4.22721e-13
4.22752e-13
4.22742e-13
4.2271e-13
4.22667e-13
4.22618e-13
4.22562e-13
4.22497e-13
4.22415e-13
4.22313e-13
4.22193e-13
4.22055e-13
4.21898e-13
4.2172e-13
4.21519e-13
4.21306e-13
4.21079e-13
4.20856e-13
4.20696e-13
4.20636e-13
4.20739e-13
4.21112e-13
4.21893e-13
4.23228e-13
4.25218e-13
4.28e-13
4.31782e-13
4.36746e-13
4.42955e-13
4.50157e-13
4.59066e-13
4.69487e-13
4.81582e-13
4.95163e-13
5.09022e-13
5.25041e-13
5.41629e-13
5.61528e-13
5.77452e-13