/*--------------------------------*- C++ -*----------------------------------*\
| =========                 |                                                 |
| \\      /  F ield         | OpenFOAM: The Open Source CFD Toolbox           |
|  \\    /   O peration     | Version:  2312                                  |
|   \\  /    A nd           | Website:  www.openfoam.com                      |
|    \\/     M anipulation  |                                                 |
\*---------------------------------------------------------------------------*/
FoamFile
{
    version     2.0;
    format      ascii;
    arch        "LSB;label=32;scalar=64";
    class       volScalarField;
    location    "0.004";
    object      thermo:psiGasEff;
}
// * * * * * * * * * * * * * * * * * * * * * * * * * * * * * * * * * * * * * //

dimensions      [-2 4 2 0 0 0 0];

internalField   nonuniform List<scalar> 
48128
(
0.00813551
0.00813664
0.00815177
0.00815708
0.00816332
0.00817446
0.00819211
0.00822372
0.00827581
0.00834548
0.00846668
0.00860642
0.00874329
0.00886429
0.00896371
0.009036
0.00908742
0.00911958
0.00912735
0.00911095
0.00907606
0.00902015
0.00894154
0.0088386
0.00870959
0.00855304
0.0083703
0.00815961
0.00792209
0.00766092
0.00738072
0.00708439
0.00677398
0.00645333
0.00612658
0.00579757
0.00547292
0.00515267
0.00483975
0.00453776
0.0042467
0.00396977
0.00370301
0.0034535
0.00321665
0.00299767
0.00278988
0.00259836
0.00241824
0.00225459
0.00210161
0.00196294
0.00183425
0.00171856
0.00161105
0.00151436
0.00142587
0.00134534
0.001272
0.00120525
0.00114463
0.00108944
0.00103909
0.000993206
0.000951193
0.000913024
0.000878135
0.000846172
0.000817284
0.000790699
0.000766551
0.000744685
0.000724395
0.000706437
0.000689568
0.0006749
0.000660946
0.000648936
0.000637354
0.000627356
0.000617462
0.000608903
0.00060037
0.000593075
0.000586077
0.000580235
0.000574486
0.000569462
0.000564429
0.000560014
0.0005556
0.000551829
0.000548077
0.000544848
0.000541667
0.000538856
0.000536254
0.0005341
0.000532175
0.000530367
0.000528707
0.000527025
0.00052531
0.000523612
0.000521953
0.000520293
0.000518636
0.000516984
0.000515442
0.000513962
0.000512574
0.000511062
0.000509412
0.000507779
0.000506127
0.000504918
0.000504666
0.00050495
0.000506442
0.000508483
0.000504591
0.000504269
0.000504015
0.000500853
0.000498556
0.000496439
0.000494518
0.000493053
0.000491839
0.000490663
0.000489439
0.000488205
0.000486979
0.000486048
0.000485191
0.00048451
0.000483802
0.000483063
0.000482296
0.000481682
0.000481068
0.000480454
0.000479816
0.000479332
0.000478889
0.000478783
0.000478747
0.00047899
0.000479323
0.000478548
0.000478469
0.000478418
0.000477943
0.000477535
0.000476913
0.000476285
0.000475613
0.000474961
0.000474279
0.000473645
0.000473032
0.000472555
0.000472188
0.000471878
0.000471747
0.000471798
0.000471911
0.000472108
0.000472364
0.000472696
0.000473091
0.000473096
0.000473193
0.000473182
0.000473065
0.000472748
0.000472345
0.00047178
0.000471155
0.000470555
0.000470032
0.000469638
0.000469345
0.00046928
0.000469375
0.00046956
0.000469864
0.000470227
0.000470544
0.000470836
0.000471029
0.000471119
0.000471009
0.000470804
0.000470535
0.000470162
0.000469704
0.000469261
0.000468913
0.000468619
0.00046857
0.000468612
0.000468764
0.000468998
0.000469316
0.000469602
0.000469852
0.000470055
0.000470106
0.000470094
0.000469973
0.00046974
0.000469429
0.000469122
0.000468805
0.000468599
0.000468438
0.000468292
0.000468654
0.000468831
0.00046902
0.000469316
0.000469575
0.000469807
0.000469944
0.000469975
0.000469941
0.000469852
0.000469684
0.000469453
0.000469163
0.000468945
0.000468731
0.000468566
0.000468829
0.000468897
0.000469059
0.000469367
0.00046963
0.000469971
0.00813684
0.00813602
0.00815245
0.00815707
0.00815643
0.00816698
0.00818055
0.00820236
0.00825538
0.00832925
0.00843905
0.00856149
0.00867836
0.00877971
0.00885593
0.00891787
0.00896115
0.00898673
0.00899076
0.00897287
0.00893857
0.00888545
0.00881176
0.00871566
0.00859491
0.0084473
0.0082736
0.00807571
0.00785204
0.00760561
0.00733808
0.00705357
0.00675535
0.00644627
0.00612968
0.00580981
0.00549231
0.00517793
0.00486958
0.00457049
0.00428123
0.00400538
0.00373897
0.00348822
0.00324948
0.00302797
0.00281804
0.00262386
0.00244097
0.00227388
0.00211788
0.00197592
0.00184432
0.00172551
0.00161562
0.00151627
0.00142522
0.00134229
0.00126682
0.00119809
0.0011356
0.00107865
0.00102667
0.000979227
0.000935806
0.000896279
0.000860154
0.000827201
0.000797415
0.000769928
0.000744897
0.000722206
0.000701195
0.000682523
0.000665017
0.000649679
0.000635131
0.000622498
0.000610353
0.000599749
0.000589332
0.000580182
0.000571134
0.000563324
0.000555896
0.00054955
0.000543343
0.000537817
0.000532335
0.000527447
0.000522621
0.000518399
0.000514243
0.000510577
0.000506976
0.000503726
0.000500711
0.000498139
0.000495763
0.000493518
0.000491421
0.000489302
0.000487162
0.000485065
0.000483014
0.000480982
0.000478952
0.000476959
0.000475061
0.000473249
0.000471535
0.000469706
0.000467755
0.00046584
0.000463933
0.000462463
0.000461868
0.000461727
0.000462662
0.000464091
0.000460141
0.000459404
0.000458642
0.000455581
0.000453102
0.00045099
0.000449006
0.000447422
0.000446064
0.000444753
0.000443402
0.000442049
0.000440713
0.000439646
0.000438644
0.000437804
0.000436936
0.00043604
0.000435127
0.000434354
0.000433585
0.000432819
0.000432043
0.000431409
0.000430818
0.000430532
0.000430289
0.00043028
0.000430335
0.000429421
0.000429104
0.000428794
0.00042818
0.000427564
0.000426822
0.000426046
0.000425252
0.000424481
0.000423695
0.000422966
0.000422251
0.000421677
0.000421214
0.000420789
0.000420536
0.000420441
0.000420401
0.000420434
0.000420519
0.000420681
0.000420874
0.000420755
0.000420721
0.000420598
0.000420361
0.000419985
0.000419525
0.000418923
0.000418278
0.000417654
0.000417119
0.000416687
0.000416374
0.000416256
0.000416287
0.0004164
0.000416619
0.000416894
0.000417107
0.000417326
0.000417446
0.000417481
0.000417327
0.000417101
0.000416818
0.000416447
0.000416005
0.000415578
0.000415241
0.000414958
0.000414897
0.000414918
0.000415034
0.000415231
0.000415495
0.000415743
0.000415953
0.000416125
0.000416157
0.000416135
0.000416014
0.000415799
0.000415518
0.000415242
0.000414964
0.000414785
0.00041465
0.000414546
0.000414867
0.000415033
0.000415213
0.000415482
0.000415722
0.000415941
0.000416072
0.00041611
0.000416091
0.000416024
0.00041589
0.000415703
0.000415467
0.000415297
0.000415133
0.000415034
0.000415286
0.000415368
0.000415545
0.000415841
0.000416101
0.000416444
0.00813566
0.00813947
0.00815662
0.00815486
0.00815555
0.00816004
0.00816908
0.00820049
0.00825529
0.00833326
0.00843745
0.00854522
0.00865815
0.00876383
0.0088546
0.00892123
0.00896692
0.00899618
0.00900444
0.00899194
0.00896346
0.00891679
0.00884971
0.00875954
0.00864354
0.00850262
0.00833435
0.00814171
0.00792263
0.00768113
0.00741792
0.00713542
0.00683803
0.0065294
0.00621123
0.0058897
0.0055694
0.00525197
0.00493981
0.0046364
0.00434228
0.00406171
0.00379043
0.00353446
0.00329041
0.00306366
0.00284907
0.00265027
0.00246283
0.0022912
0.00213097
0.00198514
0.00185007
0.00172821
0.00161559
0.00151354
0.00142033
0.0013354
0.00125815
0.00118785
0.00112396
0.00106578
0.00101275
0.000964396
0.000920218
0.000880067
0.000843397
0.000810024
0.000779757
0.000751896
0.000726601
0.000703658
0.000682496
0.000663682
0.000646071
0.000630625
0.000615997
0.000603299
0.000591099
0.000580417
0.000569962
0.000560741
0.000551625
0.000543776
0.000536365
0.000530014
0.000523793
0.000518242
0.000512739
0.000507825
0.000502989
0.000498748
0.000494578
0.000490893
0.000487264
0.000483983
0.000480935
0.000478338
0.000475912
0.000473623
0.00047148
0.000469313
0.000467128
0.000464988
0.000462896
0.000460823
0.000458754
0.000456722
0.000454784
0.000452926
0.000451169
0.000449303
0.000447313
0.000445355
0.000443416
0.000441939
0.000441259
0.000441045
0.00044173
0.000443058
0.000439421
0.000438345
0.000437407
0.00043453
0.000431987
0.000429846
0.000427868
0.000426267
0.000424864
0.000423522
0.00042215
0.00042078
0.000419432
0.000418339
0.000417305
0.000416428
0.000415528
0.000414599
0.000413658
0.000412845
0.000412036
0.000411232
0.00041042
0.000409745
0.00040912
0.000408775
0.000408483
0.000408389
0.000408392
0.000407493
0.000407082
0.000406719
0.000406076
0.000405416
0.000404645
0.000403837
0.000403015
0.000402215
0.000401401
0.000400647
0.000399902
0.0003993
0.000398802
0.000398345
0.000398052
0.000397907
0.000397817
0.000397798
0.00039783
0.000397931
0.000398057
0.000397897
0.000397802
0.000397632
0.000397356
0.000396953
0.000396458
0.000395856
0.000395207
0.000394572
0.00039403
0.000393593
0.00039326
0.000393122
0.000393123
0.000393197
0.000393375
0.000393599
0.000393784
0.000393946
0.000394034
0.000394027
0.000393864
0.000393632
0.000393337
0.000392964
0.000392525
0.000392102
0.000391769
0.000391487
0.00039142
0.000391424
0.000391527
0.000391706
0.000391946
0.000392165
0.000392352
0.000392504
0.000392523
0.000392493
0.000392369
0.00039216
0.000391886
0.000391622
0.000391357
0.000391186
0.000391064
0.000390971
0.000391265
0.000391435
0.000391605
0.000391859
0.000392089
0.000392296
0.00039242
0.000392458
0.000392442
0.000392382
0.00039226
0.000392088
0.000391872
0.000391718
0.00039158
0.000391493
0.000391742
0.000391842
0.000392019
0.000392309
0.000392567
0.000392906
0.0081319
0.00814944
0.00815903
0.00815867
0.00814971
0.00815022
0.00816896
0.00820928
0.00827497
0.0083613
0.00846744
0.00858978
0.00870329
0.00880268
0.00888937
0.00895457
0.00900069
0.0090319
0.00904305
0.00903484
0.00901073
0.0089686
0.00890548
0.00881888
0.00870776
0.00857194
0.00840782
0.00821928
0.00800364
0.00776437
0.0075027
0.00722024
0.0069225
0.006613
0.00629203
0.0059676
0.00564341
0.00532209
0.00500505
0.0046966
0.00439676
0.00411117
0.00383349
0.00357183
0.00332196
0.00309027
0.00287015
0.00266618
0.00247354
0.00229773
0.00213308
0.00198366
0.00184502
0.00172036
0.00160513
0.00150066
0.0014058
0.00131936
0.00124081
0.00116947
0.00110468
0.0010458
0.000992182
0.000943395
0.000898926
0.000858672
0.000821852
0.000788513
0.00075821
0.000730391
0.000705248
0.000682362
0.000661393
0.000642741
0.000625311
0.000610066
0.000595614
0.00058314
0.00057113
0.000560628
0.000550362
0.000541299
0.000532302
0.000524626
0.000517429
0.000511279
0.000505234
0.000499852
0.000494504
0.000489746
0.000485065
0.000480978
0.000476948
0.000473407
0.000469906
0.000466755
0.000463826
0.000461354
0.000459023
0.000456832
0.000454785
0.000452708
0.000450618
0.000448569
0.000446564
0.000444574
0.000442593
0.000440644
0.000438788
0.000436993
0.000435304
0.000433506
0.000431589
0.000429688
0.00042782
0.000426445
0.000425788
0.000425609
0.000426122
0.000427397
0.000424334
0.000422959
0.000421844
0.000419284
0.000416787
0.000414664
0.000412761
0.000411204
0.000409814
0.000408499
0.000407163
0.000405831
0.000404528
0.000403462
0.000402449
0.00040159
0.000400707
0.000399802
0.000398888
0.000398087
0.000397289
0.000396498
0.000395702
0.000395038
0.000394426
0.000394073
0.000393783
0.00039365
0.00039364
0.000392833
0.00039237
0.000391985
0.000391374
0.000390715
0.000389958
0.000389165
0.000388355
0.000387566
0.000386762
0.00038602
0.000385284
0.000384686
0.000384189
0.000383734
0.000383438
0.000383278
0.000383175
0.000383142
0.00038316
0.000383235
0.000383345
0.000383182
0.000383062
0.000382877
0.000382595
0.000382189
0.000381692
0.000381098
0.000380459
0.000379832
0.000379299
0.000378867
0.000378532
0.000378391
0.00037838
0.000378436
0.000378593
0.000378795
0.000378967
0.00037911
0.000379177
0.00037915
0.000378991
0.000378758
0.000378463
0.000378092
0.000377662
0.000377247
0.000376921
0.00037664
0.000376577
0.00037657
0.000376669
0.000376837
0.000377065
0.000377269
0.000377445
0.000377587
0.000377599
0.000377566
0.000377443
0.000377239
0.000376973
0.000376718
0.000376463
0.000376298
0.000376186
0.000376103
0.000376369
0.000376549
0.000376716
0.000376958
0.000377185
0.000377386
0.000377504
0.000377544
0.000377531
0.000377476
0.000377362
0.0003772
0.000376997
0.000376853
0.000376733
0.000376652
0.000376891
0.000377007
0.000377186
0.000377468
0.000377726
0.000378065
0.00813034
0.00815737
0.00816046
0.00815406
0.0081421
0.00815189
0.00818191
0.00823725
0.00831494
0.00841222
0.00852697
0.00864395
0.00875482
0.00885224
0.00893483
0.00899877
0.00904525
0.00907706
0.00909028
0.00908523
0.00906424
0.00902502
0.00896497
0.00888246
0.00877552
0.00864325
0.00848364
0.00829754
0.00808416
0.00784628
0.00758525
0.00730194
0.00700313
0.00669227
0.00636746
0.00603916
0.00571016
0.00538399
0.00506067
0.00474613
0.00443928
0.00414886
0.00386239
0.0035941
0.00333683
0.00309976
0.00287286
0.00266319
0.00246488
0.00228547
0.00211654
0.00196397
0.00182191
0.00169485
0.00157721
0.00147139
0.00137549
0.00128823
0.00120915
0.00113743
0.00107254
0.00101357
0.000960102
0.000911599
0.000867553
0.000827884
0.000791522
0.000758864
0.000729082
0.000701929
0.000677507
0.000655106
0.000634785
0.000616669
0.000599787
0.000585118
0.000571162
0.000559234
0.0005477
0.000537657
0.000527828
0.000519173
0.000510518
0.000503253
0.000496472
0.00049071
0.000485007
0.000479956
0.000474905
0.000470446
0.000466051
0.000462245
0.000458474
0.000455198
0.000451942
0.000449044
0.000446347
0.000444107
0.000441963
0.000439967
0.000438102
0.000436198
0.000434286
0.000432417
0.000430582
0.000428756
0.000426944
0.000425156
0.000423458
0.000421799
0.000420243
0.000418575
0.000416802
0.000415027
0.000413301
0.000412113
0.000411541
0.000411458
0.000411846
0.00041305
0.000410676
0.000409071
0.000407761
0.000405578
0.000403222
0.00040118
0.000399401
0.000397929
0.000396585
0.000395337
0.000394072
0.000392819
0.000391603
0.000390601
0.000389644
0.000388834
0.000388
0.000387154
0.000386303
0.000385549
0.00038479
0.000384046
0.000383299
0.000382678
0.000382113
0.00038178
0.000381522
0.000381377
0.00038137
0.000380692
0.000380203
0.000379816
0.000379257
0.000378632
0.000377914
0.00037716
0.000376387
0.000375634
0.000374861
0.000374154
0.00037345
0.000372879
0.000372402
0.000371972
0.000371695
0.00037154
0.000371444
0.000371419
0.000371441
0.000371507
0.000371622
0.00037148
0.000371356
0.000371172
0.000370902
0.000370512
0.000370031
0.000369458
0.000368842
0.000368238
0.000367724
0.000367309
0.000366984
0.000366854
0.000366843
0.000366893
0.000367042
0.000367236
0.000367405
0.000367544
0.000367601
0.000367571
0.000367424
0.000367199
0.000366909
0.000366549
0.000366137
0.000365738
0.000365424
0.000365149
0.000365098
0.000365083
0.000365187
0.000365347
0.000365569
0.00036577
0.000365939
0.000366074
0.000366085
0.000366055
0.00036594
0.000365745
0.00036549
0.000365245
0.000365003
0.000364846
0.000364745
0.000364673
0.000364914
0.000365105
0.000365276
0.000365509
0.000365735
0.000365935
0.00036605
0.000366094
0.000366086
0.000366037
0.000365932
0.000365781
0.00036559
0.000365454
0.000365351
0.000365276
0.000365503
0.000365635
0.000365818
0.000366092
0.000366352
0.000366694
0.00811486
0.0081558
0.00814843
0.00814071
0.0081416
0.00816243
0.00820939
0.00828025
0.00836912
0.00847399
0.0085906
0.00870446
0.0088114
0.00890569
0.00898495
0.00904721
0.00909337
0.00912492
0.00913943
0.00913669
0.00911772
0.00908134
0.00902471
0.00894625
0.0088432
0.00871486
0.00855887
0.0083744
0.00816264
0.00792563
0.00766479
0.00737963
0.0070788
0.00676592
0.00643544
0.00610174
0.00576707
0.0054341
0.0051024
0.00477967
0.00446314
0.00416585
0.0038721
0.00359597
0.00332973
0.00308615
0.00285125
0.0026353
0.00243087
0.00224773
0.00207462
0.0019197
0.00177476
0.00164631
0.00152632
0.00142128
0.00132516
0.00123766
0.00115939
0.00108794
0.00102407
0.000965802
0.000913446
0.00086608
0.000823376
0.000785068
0.00074994
0.000718717
0.000690106
0.000664299
0.000641199
0.000619829
0.000600726
0.000583622
0.000567768
0.000554148
0.000541109
0.00053012
0.00051943
0.00051019
0.000501114
0.000493194
0.000485209
0.00047867
0.000472556
0.000467379
0.000462197
0.000457652
0.000453055
0.000449055
0.000445093
0.000441707
0.00043833
0.00043545
0.000432551
0.000430023
0.000427662
0.00042574
0.000423863
0.000422146
0.00042053
0.000418864
0.000417206
0.000415593
0.000413999
0.000412405
0.000410827
0.000409269
0.00040779
0.000406328
0.000404955
0.000403466
0.000401898
0.000400308
0.000398795
0.000397864
0.000397434
0.000397481
0.000397778
0.000398901
0.000397225
0.000395481
0.000394023
0.000392213
0.000390112
0.000388211
0.00038659
0.000385231
0.000383961
0.00038281
0.000381647
0.000380509
0.000379419
0.000378512
0.00037764
0.000376907
0.000376145
0.00037539
0.000374635
0.000373953
0.000373258
0.000372591
0.00037192
0.000371372
0.000370882
0.00037059
0.000370388
0.000370252
0.000370263
0.000369734
0.000369248
0.000368877
0.000368383
0.000367813
0.000367154
0.000366459
0.000365741
0.000365041
0.000364317
0.000363663
0.000363011
0.000362483
0.000362042
0.000361655
0.000361413
0.000361277
0.000361204
0.000361202
0.000361243
0.000361314
0.000361448
0.000361347
0.000361229
0.000361061
0.000360815
0.000360454
0.000360003
0.000359464
0.000358882
0.000358317
0.000357831
0.000357446
0.000357141
0.000357032
0.000357033
0.000357084
0.000357238
0.000357434
0.000357608
0.000357753
0.000357812
0.000357793
0.000357665
0.000357454
0.000357176
0.000356834
0.00035645
0.000356073
0.00035578
0.000355521
0.00035548
0.000355467
0.000355584
0.000355741
0.000355964
0.000356167
0.000356336
0.000356469
0.000356486
0.000356464
0.000356362
0.000356181
0.00035594
0.00035571
0.000355485
0.00035534
0.000355255
0.000355193
0.000355416
0.000355619
0.000355799
0.000356028
0.000356255
0.000356456
0.000356573
0.000356623
0.000356624
0.000356583
0.000356487
0.00035635
0.000356174
0.000356048
0.000355963
0.000355895
0.000356109
0.00035626
0.000356449
0.000356717
0.00035698
0.000357327
0.00809383
0.00812989
0.00812851
0.00813047
0.00814503
0.00818363
0.00824767
0.00832908
0.00842564
0.00853929
0.00865564
0.00876637
0.00886893
0.0089592
0.00903501
0.00909523
0.00914063
0.0091716
0.00918677
0.00918632
0.00916955
0.0091364
0.00908389
0.0090092
0.00890986
0.00878518
0.00863222
0.00844866
0.00823766
0.00800095
0.00773998
0.00745151
0.00714681
0.00683165
0.00649252
0.00614974
0.00580805
0.00546634
0.00512452
0.00479129
0.00446347
0.00415737
0.00385295
0.00356831
0.00329197
0.00304051
0.00279705
0.00257499
0.00236514
0.0021782
0.00200023
0.00184505
0.00169811
0.00157106
0.00144873
0.00134712
0.00125274
0.00116536
0.00108959
0.00101995
0.0009583
0.000901713
0.00085156
0.00080626
0.000765904
0.000729832
0.000696726
0.000667709
0.000640859
0.000617017
0.000595721
0.000575911
0.000558647
0.000542981
0.000528698
0.000516591
0.000504915
0.000495231
0.000485766
0.000477641
0.000469649
0.000462754
0.000455774
0.000450236
0.000445039
0.000440663
0.000436208
0.00043239
0.000428424
0.000425095
0.000421734
0.000418945
0.000416126
0.000413811
0.000411374
0.000409355
0.000407422
0.000405906
0.000404379
0.000403028
0.000401736
0.000400377
0.00039906
0.000397773
0.000396479
0.000395172
0.000393886
0.000392612
0.000391403
0.000390182
0.00038904
0.000387763
0.000386452
0.000385101
0.000383879
0.000383271
0.000383029
0.000383223
0.000383441
0.000384485
0.000383401
0.000381707
0.000380147
0.000378691
0.000376926
0.000375234
0.00037379
0.000372568
0.000371389
0.000370366
0.000369327
0.000368343
0.00036741
0.000366624
0.00036586
0.000365229
0.000364552
0.000363921
0.000363286
0.000362701
0.000362088
0.000361522
0.000360954
0.000360503
0.00036011
0.000359879
0.00035975
0.000359644
0.000359685
0.000359308
0.000358864
0.000358525
0.000358103
0.000357607
0.000357026
0.000356408
0.000355762
0.000355131
0.000354471
0.000353886
0.000353301
0.000352835
0.00035244
0.000352114
0.000351921
0.000351814
0.000351781
0.000351814
0.000351885
0.000351971
0.000352136
0.00035209
0.000351992
0.000351848
0.000351638
0.000351318
0.000350911
0.000350416
0.000349878
0.000349368
0.000348917
0.000348578
0.000348298
0.000348225
0.000348243
0.000348308
0.000348474
0.000348681
0.000348867
0.000349028
0.000349099
0.000349098
0.000348994
0.000348805
0.00034855
0.000348234
0.000347886
0.000347542
0.000347274
0.000347043
0.000347012
0.000347015
0.000347146
0.000347308
0.000347536
0.000347746
0.000347921
0.000348059
0.000348087
0.000348078
0.000347996
0.000347833
0.000347612
0.000347402
0.000347198
0.000347071
0.000347006
0.000346958
0.000347167
0.000347384
0.000347578
0.000347808
0.000348037
0.000348244
0.000348365
0.000348426
0.000348438
0.000348408
0.000348325
0.000348204
0.000348046
0.000347934
0.000347868
0.000347809
0.000348012
0.000348183
0.000348383
0.000348646
0.000348914
0.000349269
0.00805743
0.0080992
0.00810832
0.00812371
0.00815623
0.00821287
0.00828792
0.00837657
0.00848671
0.00860395
0.00871805
0.0088256
0.00892364
0.00900957
0.00908203
0.0091404
0.00918482
0.00921507
0.00923085
0.00923342
0.00921947
0.00918976
0.00914104
0.00907003
0.00897389
0.00885243
0.00870214
0.00851844
0.0083071
0.0080696
0.00780837
0.00751417
0.00720027
0.00688342
0.00653421
0.00617809
0.00582251
0.00547488
0.00511892
0.0047733
0.00443087
0.00411269
0.00379397
0.00349878
0.00321272
0.00295271
0.00270083
0.00247552
0.00226308
0.00207576
0.00189183
0.00174022
0.00159349
0.00147126
0.00134955
0.00125172
0.00116144
0.00107696
0.00100502
0.000938781
0.000880435
0.000826939
0.000779862
0.000737665
0.000700386
0.000667236
0.000636613
0.000610246
0.000585485
0.000564122
0.000544776
0.000526848
0.000511754
0.000497529
0.000485184
0.000474647
0.000464545
0.000456229
0.000448134
0.000441214
0.000434452
0.000428684
0.000422795
0.000418427
0.000414143
0.000410789
0.000407142
0.000404288
0.000401021
0.000398578
0.000395903
0.000393874
0.000391712
0.000390131
0.000388231
0.000386885
0.000385456
0.000384453
0.000383359
0.000382475
0.000381601
0.000380624
0.000379756
0.000378849
0.000377901
0.000376936
0.000375997
0.000375058
0.000374168
0.00037323
0.00037237
0.00037134
0.000370333
0.00036927
0.000368441
0.000368199
0.000368189
0.000368524
0.000368667
0.000369611
0.000369008
0.000367543
0.000365953
0.00036479
0.000363418
0.000362033
0.000360767
0.000359705
0.000358632
0.000357767
0.000356867
0.000356069
0.000355318
0.000354672
0.000354033
0.000353522
0.000352947
0.000352461
0.000351967
0.000351499
0.000350984
0.000350539
0.000350094
0.000349766
0.000349485
0.000349333
0.000349285
0.000349228
0.00034931
0.00034908
0.000348718
0.000348422
0.000348079
0.000347673
0.000347186
0.000346661
0.000346101
0.000345556
0.00034497
0.000344474
0.000343964
0.00034358
0.000343233
0.000342987
0.000342855
0.000342785
0.000342809
0.000342884
0.000342995
0.00034311
0.000343311
0.000343327
0.000343261
0.000343156
0.000342989
0.000342717
0.000342363
0.000341921
0.000341442
0.000341001
0.000340596
0.000340312
0.000340066
0.000340038
0.000340082
0.000340167
0.000340352
0.000340577
0.000340786
0.00034097
0.00034106
0.000341078
0.000341007
0.00034085
0.000340625
0.000340344
0.00034004
0.000339737
0.0003395
0.000339305
0.000339289
0.000339316
0.000339463
0.000339641
0.000339875
0.000340099
0.000340284
0.000340433
0.000340478
0.000340487
0.000340428
0.000340291
0.000340095
0.000339908
0.000339732
0.000339627
0.000339588
0.000339556
0.000339757
0.000339989
0.000340201
0.000340437
0.000340672
0.000340886
0.000341017
0.000341092
0.000341119
0.000341102
0.000341035
0.000340932
0.000340798
0.000340702
0.000340657
0.000340611
0.000340805
0.000340998
0.000341211
0.000341472
0.000341746
0.000342113
0.0080274
0.00806871
0.00809193
0.00812379
0.00817424
0.00824351
0.00832615
0.0084283
0.00854681
0.00866317
0.00877532
0.00887941
0.00897323
0.00905526
0.00912463
0.00918104
0.00922439
0.00925447
0.00927169
0.0092774
0.00926671
0.00923992
0.00919473
0.0091273
0.00903353
0.00891464
0.00876658
0.00858133
0.00836796
0.00812658
0.00786461
0.00756493
0.00723462
0.00691128
0.00654935
0.00618073
0.00580776
0.00544548
0.00507007
0.00470986
0.00435211
0.00401879
0.00368531
0.00338081
0.00308857
0.00282252
0.00255859
0.00233915
0.00212757
0.00194679
0.00176046
0.00161529
0.00147283
0.00135734
0.00124112
0.00114524
0.00106201
0.000983322
0.0009165
0.000854836
0.000800675
0.000751478
0.000708007
0.000669647
0.00063569
0.000605896
0.00057818
0.000554435
0.00053195
0.000513197
0.000495498
0.000479642
0.000466428
0.000453535
0.000442948
0.000433701
0.000424943
0.000417834
0.000410763
0.000404924
0.000399039
0.000394298
0.000389196
0.000385924
0.000382261
0.000379893
0.000376824
0.000374928
0.000372234
0.000370641
0.000368602
0.000367279
0.000365742
0.000364856
0.000363523
0.000362885
0.000362046
0.000361589
0.000360978
0.000360609
0.000360192
0.00035967
0.000359304
0.000358817
0.000358261
0.000357699
0.00035716
0.000356612
0.000356084
0.00035549
0.000354944
0.000354208
0.000353561
0.000352827
0.000352502
0.00035262
0.000352886
0.000353293
0.00035351
0.000354232
0.000353998
0.000352809
0.000351382
0.000350518
0.000349537
0.000348518
0.000347465
0.000346575
0.000345632
0.000344934
0.000344186
0.000343594
0.00034304
0.000342547
0.000342056
0.00034167
0.000341221
0.000340885
0.000340547
0.00034021
0.000339812
0.000339505
0.000339195
0.000339011
0.000338852
0.000338798
0.000338834
0.00033885
0.000338973
0.000338883
0.000338631
0.000338395
0.000338134
0.000337833
0.000337452
0.000337032
0.00033657
0.000336124
0.000335624
0.000335227
0.000334806
0.000334515
0.000334229
0.000334072
0.000334012
0.000333989
0.000334077
0.000334202
0.000334358
0.000334522
0.000334758
0.000334833
0.000334818
0.000334763
0.000334643
0.000334426
0.00033413
0.000333758
0.000333352
0.000332983
0.000332639
0.000332411
0.000332216
0.000332238
0.000332313
0.000332427
0.000332633
0.000332882
0.000333123
0.000333331
0.000333445
0.000333492
0.000333464
0.000333347
0.000333157
0.000332917
0.000332665
0.000332411
0.000332212
0.000332056
0.000332071
0.000332119
0.000332287
0.000332485
0.000332732
0.000332973
0.000333174
0.000333338
0.000333405
0.000333436
0.000333403
0.000333299
0.000333134
0.000332976
0.000332831
0.000332757
0.000332745
0.000332733
0.000332932
0.00033318
0.000333413
0.000333661
0.000333903
0.000334127
0.000334271
0.000334363
0.000334408
0.00033441
0.000334361
0.00033428
0.000334173
0.000334096
0.000334075
0.000334046
0.000334235
0.00033445
0.000334678
0.000334941
0.000335222
0.000335604
0.00800562
0.00804663
0.0080816
0.00812978
0.0081936
0.00827375
0.00836501
0.00848099
0.00860033
0.00871582
0.00882573
0.0089263
0.00901636
0.00909502
0.00916172
0.0092162
0.00925872
0.00928985
0.00930947
0.00931722
0.00930958
0.00928561
0.00924376
0.00917965
0.00908701
0.00896912
0.00882343
0.00863315
0.00841706
0.00817055
0.00790144
0.00758842
0.00724622
0.00690985
0.00652577
0.00613932
0.00574634
0.0053643
0.00496738
0.004591
0.004221
0.00387087
0.00352029
0.0032161
0.00292323
0.00266274
0.00238775
0.00217905
0.00197337
0.00180455
0.001626
0.00148778
0.00135211
0.00124384
0.00113765
0.00104406
0.000968787
0.000898013
0.00083712
0.000780827
0.000730993
0.000686195
0.000646976
0.000612075
0.000581558
0.000554582
0.000529932
0.000508237
0.000487918
0.000471132
0.000454809
0.000440634
0.000428715
0.000417058
0.000407635
0.000399324
0.000391289
0.000385296
0.000378567
0.00037372
0.000368139
0.000364078
0.000359349
0.000356922
0.000353411
0.000351661
0.000348811
0.000347521
0.000345201
0.000344101
0.000342501
0.00034158
0.000340457
0.000339922
0.000339037
0.000338893
0.000338485
0.000338431
0.000338187
0.00033823
0.000338184
0.000338072
0.000338152
0.000338079
0.00033793
0.000337792
0.00033766
0.000337522
0.000337362
0.000337147
0.000336898
0.000336504
0.000336256
0.000335898
0.000336137
0.000336609
0.000337112
0.000337553
0.00033786
0.000338419
0.000338448
0.000337586
0.000336511
0.000335982
0.000335368
0.000334701
0.000333909
0.000333197
0.000332402
0.000331869
0.000331293
0.000330916
0.000330566
0.00033024
0.000329908
0.000329657
0.000329347
0.000329171
0.000328993
0.000328794
0.000328535
0.000328376
0.000328209
0.000328185
0.000328157
0.000328211
0.000328332
0.000328432
0.000328598
0.000328632
0.000328521
0.000328366
0.000328193
0.000327998
0.000327735
0.00032743
0.00032708
0.000326736
0.000326339
0.000326045
0.000325729
0.00032553
0.000325322
0.000325261
0.000325279
0.000325314
0.000325469
0.00032565
0.000325857
0.000326077
0.000326349
0.000326492
0.000326535
0.000326532
0.000326471
0.000326319
0.000326086
0.000325794
0.000325472
0.00032518
0.000324909
0.000324739
0.000324603
0.000324683
0.000324791
0.000324944
0.000325177
0.000325455
0.000325727
0.000325965
0.000326107
0.000326192
0.00032621
0.00032614
0.000325995
0.000325802
0.000325606
0.000325407
0.000325255
0.000325144
0.000325195
0.000325266
0.000325459
0.000325683
0.000325947
0.000326207
0.000326427
0.000326612
0.000326705
0.000326764
0.000326761
0.000326691
0.000326566
0.000326441
0.000326332
0.000326293
0.00032631
0.000326323
0.000326526
0.000326791
0.000327047
0.00032731
0.000327562
0.0003278
0.00032796
0.000328073
0.000328139
0.000328161
0.000328134
0.000328079
0.000328002
0.000327948
0.000327954
0.000327943
0.000328133
0.00032837
0.000328615
0.000328884
0.000329173
0.000329572
0.0079963
0.00803638
0.00808014
0.00813975
0.00821425
0.00830533
0.00840481
0.00852818
0.00864643
0.00876115
0.00886825
0.00896549
0.00905225
0.00912795
0.0091924
0.00924573
0.00928845
0.00932104
0.00934244
0.00935192
0.00934718
0.0093258
0.00928684
0.00922562
0.00913233
0.00901189
0.00887041
0.00867195
0.00844786
0.00819069
0.00791239
0.00757881
0.00721461
0.00686236
0.00644963
0.0060418
0.0056281
0.00522037
0.00480413
0.00441252
0.00403843
0.00368475
0.00331162
0.00302138
0.00273162
0.00248875
0.00221641
0.00201818
0.00182041
0.00166741
0.00150465
0.0013749
0.00124908
0.0011473
0.00105206
0.000963652
0.000894178
0.000830126
0.000775455
0.000724472
0.000679381
0.000638703
0.000602282
0.000570868
0.000542033
0.000518028
0.000494825
0.000475558
0.00045633
0.000441082
0.000425844
0.000412616
0.000401231
0.000390387
0.000381937
0.000373792
0.000366426
0.00036059
0.000353944
0.000349719
0.000344191
0.000340441
0.000335957
0.0003338
0.000330326
0.000328599
0.000325829
0.0003246
0.000322475
0.000321449
0.000320033
0.000319238
0.000318228
0.000317804
0.000317081
0.000317154
0.000316905
0.000317015
0.000316917
0.000317147