/*--------------------------------*- C++ -*----------------------------------*\
| =========                 |                                                 |
| \\      /  F ield         | OpenFOAM: The Open Source CFD Toolbox           |
|  \\    /   O peration     | Version:  2312                                  |
|   \\  /    A nd           | Website:  www.openfoam.com                      |
|    \\/     M anipulation  |                                                 |
\*---------------------------------------------------------------------------*/
FoamFile
{
    version     2.0;
    format      ascii;
    arch        "LSB;label=32;scalar=64";
    class       volVectorField;
    location    "0.004";
    object      U;
}
// * * * * * * * * * * * * * * * * * * * * * * * * * * * * * * * * * * * * * //

dimensions      [0 1 -1 0 0 0 0];

internalField   nonuniform List<vector> 
48128
(
(2.92362 -1.08759 0)
(6.6707 -0.528186 0)
(7.89724 0.0624471 0)
(7.47325 -0.103158 0)
(7.24707 -0.83401 0)
(6.0546 -0.408343 0)
(0.215576 1.50846 0)
(-10.1997 2.43689 0)
(-26.0042 4.3986 0)
(-45.7907 5.64009 0)
(-64.4727 4.93853 0)
(-81.1525 4.36077 0)
(-95.9031 3.58451 0)
(-108.693 2.79427 0)
(-119.733 2.21576 0)
(-129.297 2.17608 0)
(-137.783 1.98532 0)
(-145.469 1.90979 0)
(-152.376 1.83212 0)
(-158.538 1.77209 0)
(-164.273 1.7262 0)
(-169.544 1.67623 0)
(-174.295 1.62136 0)
(-178.492 1.55216 0)
(-182.086 1.47131 0)
(-185.025 1.38959 0)
(-187.275 1.33675 0)
(-188.812 1.31622 0)
(-189.63 1.25114 0)
(-189.862 1.15099 0)
(-189.337 0.88997 0)
(-187.821 0.744172 0)
(-185.464 0.610975 0)
(-182.34 0.457748 0)
(-178.421 0.288584 0)
(-173.671 0.142554 0)
(-168.212 -0.0759147 0)
(-162.206 -0.249191 0)
(-155.539 -0.477376 0)
(-148.242 -0.675318 0)
(-140.431 -0.880926 0)
(-132.133 -1.07185 0)
(-123.306 -1.37064 0)
(-113.781 -1.58033 0)
(-103.896 -1.772 0)
(-93.7491 -1.85357 0)
(-83.5156 -2.06564 0)
(-72.8461 -2.25102 0)
(-61.8858 -2.4926 0)
(-50.6655 -2.56153 0)
(-39.4208 -2.73603 0)
(-28.0887 -2.73933 0)
(-16.7199 -2.89796 0)
(-5.57043 -2.96917 0)
(5.31593 -2.70997 0)
(16.3331 -2.87153 0)
(27.2388 -2.82284 0)
(38.2372 -2.92453 0)
(49.0724 -2.9047 0)
(59.7098 -2.88939 0)
(70.0867 -2.85466 0)
(80.197 -2.8147 0)
(90.0649 -2.78466 0)
(99.6988 -2.74046 0)
(109.154 -2.72215 0)
(118.336 -2.6557 0)
(127.282 -2.59992 0)
(136.005 -2.56415 0)
(144.364 -2.55526 0)
(152.522 -2.52689 0)
(160.463 -2.44835 0)
(168.116 -2.37542 0)
(175.682 -2.31677 0)
(182.922 -2.22214 0)
(190.104 -2.16392 0)
(196.921 -2.05953 0)
(203.671 -1.99698 0)
(210.041 -1.88688 0)
(216.288 -1.80716 0)
(222.106 -1.69323 0)
(227.756 -1.61553 0)
(233.024 -1.50547 0)
(238.105 -1.4483 0)
(242.973 -1.3831 0)
(247.838 -1.34241 0)
(252.459 -1.25414 0)
(256.924 -1.19428 0)
(261.126 -1.10699 0)
(265.11 -1.05038 0)
(268.862 -0.979603 0)
(272.479 -0.938235 0)
(275.919 -0.875007 0)
(279.223 -0.837593 0)
(282.381 -0.780939 0)
(285.388 -0.739192 0)
(288.255 -0.694644 0)
(291.045 -0.667244 0)
(293.785 -0.628129 0)
(296.403 -0.586042 0)
(298.888 -0.552815 0)
(301.28 -0.513445 0)
(303.502 -0.475393 0)
(305.552 -0.441474 0)
(307.471 -0.416009 0)
(309.324 -0.387795 0)
(311.039 -0.364787 0)
(312.667 -0.339539 0)
(314.18 -0.323743 0)
(315.665 -0.302175 0)
(317.052 -0.290866 0)
(318.45 -0.273703 0)
(319.708 -0.250921 0)
(320.812 -0.235277 0)
(321.85 -0.220958 0)
(322.908 -0.22593 0)
(324.042 -0.219758 0)
(325.299 -0.212661 0)
(326.669 -0.178811 0)
(328.33 -0.213698 0)
(330.541 -0.160449 0)
(330.371 -0.0869851 0)
(330.892 -0.0576403 0)
(332.009 -0.112574 0)
(331.673 -0.057475 0)
(331.862 -0.100727 0)
(332.153 -0.113821 0)
(332.537 -0.115325 0)
(333.004 -0.108994 0)
(333.511 -0.107559 0)
(334.039 -0.10591 0)
(334.516 -0.099725 0)
(334.948 -0.0945481 0)
(335.398 -0.0946443 0)
(335.867 -0.0876707 0)
(336.345 -0.0843893 0)
(336.83 -0.0783583 0)
(337.289 -0.0716654 0)
(337.687 -0.0668584 0)
(338.061 -0.0625886 0)
(338.442 -0.0579667 0)
(338.812 -0.0538484 0)
(339.148 -0.0507513 0)
(339.469 -0.0476227 0)
(339.798 -0.0442806 0)
(340.15 -0.0432681 0)
(340.526 -0.0351727 0)
(340.887 -0.0246189 0)
(341.292 -0.0212138 0)
(341.839 -0.0145508 0)
(341.816 0.0130106 0)
(341.927 0.0211962 0)
(342.156 0.0106279 0)
(342.107 0.0263132 0)
(342.14 0.0186335 0)
(342.089 0.0227829 0)
(342.04 0.022153 0)
(341.978 0.0207117 0)
(341.919 0.0193069 0)
(341.851 0.0166985 0)
(341.798 0.0165467 0)
(341.744 0.0141376 0)
(341.75 0.00848904 0)
(341.766 0.0101861 0)
(341.803 0.0102303 0)
(341.865 0.0135451 0)
(341.953 0.0151276 0)
(342.052 0.0163252 0)
(342.161 0.0176356 0)
(342.269 0.0202946 0)
(342.387 0.0195359 0)
(342.495 0.0253598 0)
(342.479 0.0214304 0)
(342.479 0.0219218 0)
(342.448 0.0205151 0)
(342.379 0.0222106 0)
(342.247 0.0221695 0)
(342.091 0.0239453 0)
(341.892 0.0224582 0)
(341.687 0.0210294 0)
(341.485 0.0213099 0)
(341.346 0.012983 0)
(341.227 0.0169567 0)
(341.163 0.0064176 0)
(341.163 0.00855416 0)
(341.191 0.00682942 0)
(341.239 0.0066962 0)
(341.31 0.00700697 0)
(341.383 0.00877144 0)
(341.442 0.0075358 0)
(341.445 0.0158228 0)
(341.419 0.0149521 0)
(341.366 0.0180174 0)
(341.248 0.014143 0)
(341.098 0.0164132 0)
(340.929 0.0157186 0)
(340.735 0.0149928 0)
(340.521 0.0142166 0)
(340.318 0.0118429 0)
(340.165 0.00983529 0)
(340.023 0.00853674 0)
(339.976 0.00768964 0)
(339.916 0.0080686 0)
(339.923 0.00639939 0)
(339.938 0.00737324 0)
(339.967 0.00868199 0)
(339.959 0.0110915 0)
(339.931 0.0116113 0)
(339.872 0.0142654 0)
(339.783 0.0141007 0)
(339.662 0.015969 0)
(339.504 0.0148142 0)
(339.316 0.0156481 0)
(339.107 0.0149095 0)
(338.911 0.0129551 0)
(338.723 0.0120125 0)
(338.575 0.00950202 0)
(338.447 0.00953998 0)
(338.29 0.00796774 0)
(338.335 0.00456822 0)
(338.308 0.00730077 0)
(338.254 0.00969993 0)
(338.236 0.00857981 0)
(338.193 0.0103182 0)
(338.123 0.01248 0)
(338.024 0.012886 0)
(337.895 0.0131172 0)
(337.739 0.0138213 0)
(337.568 0.0129087 0)
(337.376 0.0131331 0)
(337.172 0.0123539 0)
(336.959 0.0117157 0)
(336.771 0.00904426 0)
(336.607 0.00913264 0)
(336.42 0.00836213 0)
(336.399 0.00505254 0)
(336.332 0.00591526 0)
(336.251 0.00804311 0)
(336.229 0.00672019 0)
(336.179 0.00844686 0)
(336.059 0.0104993 0)
(5.34206 -5.07485 0)
(9.13535 -2.40581 0)
(10.7871 -0.0859854 0)
(9.28369 0.484102 0)
(5.54407 1.5107 0)
(-4.88968 4.81577 0)
(-20.6623 8.80985 0)
(-41.7233 12.774 0)
(-62.8151 15.3963 0)
(-81.3725 15.3196 0)
(-97.7458 13.2852 0)
(-112.249 11.2517 0)
(-124.804 9.63177 0)
(-135.35 8.47483 0)
(-144.045 7.89786 0)
(-151.408 6.84128 0)
(-157.76 6.13117 0)
(-163.28 5.58298 0)
(-168.012 5.15631 0)
(-171.99 4.78692 0)
(-175.528 4.5019 0)
(-178.594 4.21554 0)
(-181.143 3.93602 0)
(-183.145 3.64463 0)
(-184.566 3.35624 0)
(-185.381 3.09787 0)
(-185.641 2.87106 0)
(-185.287 2.52387 0)
(-184.03 2.25272 0)
(-181.885 1.91175 0)
(-178.921 1.46132 0)
(-175.144 1.03127 0)
(-170.606 0.648824 0)
(-165.318 0.229482 0)
(-159.292 -0.254941 0)
(-152.617 -0.60035 0)
(-145.329 -1.02077 0)
(-137.515 -1.42273 0)
(-129.109 -1.91272 0)
(-120.13 -2.35141 0)
(-110.675 -2.78676 0)
(-100.817 -3.14805 0)
(-90.5725 -3.75981 0)
(-79.762 -4.24248 0)
(-68.6137 -4.69863 0)
(-57.2057 -4.88777 0)
(-45.6954 -5.30227 0)
(-33.8183 -5.68363 0)
(-21.6777 -6.18588 0)
(-9.43907 -6.34538 0)
(2.80669 -6.71006 0)
(15.0392 -6.82237 0)
(27.2495 -7.10642 0)
(39.3253 -7.16825 0)
(51.483 -7.16523 0)
(63.676 -7.45626 0)
(75.6243 -7.48076 0)
(87.3091 -7.57227 0)
(98.7148 -7.52613 0)
(109.86 -7.47923 0)
(120.69 -7.37634 0)
(131.21 -7.26894 0)
(141.441 -7.17396 0)
(151.395 -7.05824 0)
(161.126 -6.9847 0)
(170.525 -6.80057 0)
(179.666 -6.67824 0)
(188.563 -6.46117 0)
(197.145 -6.22303 0)
(205.524 -6.06917 0)
(213.657 -5.86169 0)
(221.46 -5.69854 0)
(229.142 -5.54553 0)
(236.456 -5.33866 0)
(243.692 -5.19568 0)
(250.552 -4.96772 0)
(257.323 -4.81573 0)
(263.727 -4.57587 0)
(269.985 -4.38966 0)
(275.851 -4.14589 0)
(281.528 -3.96982 0)
(286.873 -3.73548 0)
(292.001 -3.6051 0)
(296.942 -3.45429 0)
(301.822 -3.34361 0)
(306.513 -3.14929 0)
(311.005 -3.00852 0)
(315.297 -2.82297 0)
(319.35 -2.69243 0)
(323.219 -2.53879 0)
(326.923 -2.43458 0)
(330.498 -2.2957 0)
(333.903 -2.20042 0)
(337.205 -2.07571 0)
(340.343 -1.97868 0)
(343.362 -1.87767 0)
(346.297 -1.80169 0)
(349.169 -1.7072 0)
(351.949 -1.61426 0)
(354.589 -1.53611 0)
(357.159 -1.4494 0)
(359.574 -1.36973 0)
(361.842 -1.29722 0)
(363.981 -1.236 0)
(366.067 -1.17039 0)
(368.011 -1.11621 0)
(369.888 -1.05845 0)
(371.637 -1.01544 0)
(373.372 -0.962636 0)
(374.993 -0.926591 0)
(376.627 -0.882586 0)
(378.129 -0.837284 0)
(379.504 -0.800162 0)
(380.797 -0.767507 0)
(382.1 -0.757025 0)
(383.453 -0.731163 0)
(384.896 -0.666693 0)
(386.428 -0.64257 0)
(388.171 -0.556729 0)
(390.521 -0.738793 0)
(390.805 -0.416291 0)
(391.616 -0.331257 0)
(393.003 -0.537312 0)
(393.138 -0.411271 0)
(393.561 -0.444569 0)
(394.116 -0.455233 0)
(394.747 -0.451737 0)
(395.43 -0.422855 0)
(396.135 -0.410608 0)
(396.852 -0.39941 0)
(397.523 -0.384374 0)
(398.142 -0.371395 0)
(398.77 -0.360893 0)
(399.408 -0.339123 0)
(400.046 -0.325953 0)
(400.69 -0.308323 0)
(401.303 -0.293569 0)
(401.871 -0.282041 0)
(402.409 -0.269691 0)
(402.953 -0.254171 0)
(403.479 -0.242607 0)
(403.979 -0.232392 0)
(404.456 -0.222098 0)
(404.936 -0.209633 0)
(405.43 -0.200133 0)
(405.94 -0.175107 0)
(406.455 -0.169021 0)
(407.006 -0.136708 0)
(407.681 -0.177094 0)
(407.934 -0.104803 0)
(408.282 -0.0809272 0)
(408.726 -0.116726 0)
(408.961 -0.0835908 0)
(409.249 -0.0976686 0)
(409.455 -0.0895512 0)
(409.67 -0.0871015 0)
(409.861 -0.0870742 0)
(410.055 -0.0833374 0)
(410.23 -0.0827481 0)
(410.404 -0.079596 0)
(410.584 -0.0744017 0)
(410.78 -0.0770958 0)
(410.985 -0.0685321 0)
(411.202 -0.0633682 0)
(411.436 -0.0523178 0)
(411.685 -0.0433687 0)
(411.94 -0.0388464 0)
(412.204 -0.030989 0)
(412.461 -0.0262051 0)
(412.721 -0.017966 0)
(412.987 -0.0166696 0)
(413.138 -0.0121482 0)
(413.31 -0.00737811 0)
(413.431 -0.00875779 0)
(413.565 -0.0107784 0)
(413.588 -0.00945485 0)
(413.617 -0.0126082 0)
(413.596 -0.0140136 0)
(413.568 -0.0142049 0)
(413.54 -0.0164572 0)
(413.545 -0.0192304 0)
(413.561 -0.0139616 0)
(413.605 -0.0177222 0)
(413.675 -0.0107905 0)
(413.77 -0.00401297 0)
(413.88 -0.00160585 0)
(414.007 0.00441634 0)
(414.14 0.00653066 0)
(414.249 0.00822505 0)
(414.343 0.0173534 0)
(414.387 0.0157077 0)
(414.433 0.0145931 0)
(414.408 0.0104811 0)
(414.362 0.0133439 0)
(414.299 0.0121899 0)
(414.213 0.010564 0)
(414.109 0.00978301 0)
(414.006 0.00761983 0)
(413.931 0.00685909 0)
(413.86 0.00611614 0)
(413.851 0.00865817 0)
(413.84 0.0119429 0)
(413.859 0.011617 0)
(413.889 0.0165174 0)
(413.932 0.0173913 0)
(413.952 0.0250594 0)
(413.948 0.0250745 0)
(413.924 0.027 0)
(413.879 0.0249943 0)
(413.81 0.0254362 0)
(413.713 0.0216857 0)
(413.589 0.0219811 0)
(413.447 0.0204179 0)
(413.308 0.0187305 0)
(413.168 0.0173184 0)
(413.055 0.0175728 0)
(412.95 0.0156367 0)
(412.807 0.0269068 0)
(412.831 0.0167978 0)
(412.803 0.0204761 0)
(412.75 0.0279554 0)
(412.727 0.0262968 0)
(412.685 0.028416 0)
(412.622 0.0326532 0)
(412.538 0.0312203 0)
(412.432 0.0302455 0)
(412.306 0.0296588 0)
(412.165 0.0277006 0)
(412.006 0.0265646 0)
(411.833 0.0255151 0)
(411.651 0.0240417 0)
(411.482 0.0227122 0)
(411.326 0.0197894 0)
(411.138 0.0320876 0)
(411.086 0.0194665 0)
(411.002 0.0204255 0)
(410.899 0.0297555 0)
(410.848 0.0272902 0)
(410.778 0.0292668 0)
(410.64 0.0323867 0)
(5.71495 -9.34109 0)
(8.70514 -4.654 0)
(9.66516 0.199072 0)
(5.74595 3.39581 0)
(-5.56473 8.16463 0)
(-23.353 14.334 0)
(-44.2445 20.8867 0)
(-64.0459 24.9705 0)
(-81.088 25.3902 0)
(-95.5406 23.8353 0)
(-107.848 20.8002 0)
(-118.452 18.2208 0)
(-127.435 15.6166 0)
(-135.247 13.33 0)
(-142.034 11.4439 0)
(-147.741 9.92364 0)
(-152.546 8.70615 0)
(-156.697 7.83144 0)
(-160.18 7.14101 0)
(-162.997 6.54382 0)
(-165.455 6.07737 0)
(-167.474 5.61842 0)
(-169.014 5.1766 0)
(-170.041 4.75105 0)
(-170.545 4.35274 0)
(-170.49 3.83123 0)
(-169.709 3.3754 0)
(-168.145 2.78243 0)
(-165.812 2.21706 0)
(-162.704 1.61881 0)
(-158.86 0.954703 0)
(-154.254 0.253417 0)
(-148.892 -0.405217 0)
(-142.832 -1.10356 0)
(-136.031 -1.90917 0)
(-128.447 -2.54572 0)
(-120.216 -3.20779 0)
(-111.448 -3.86331 0)
(-102.099 -4.65534 0)
(-92.1602 -5.37481 0)
(-81.7195 -6.09289 0)
(-70.8779 -6.64978 0)
(-59.6904 -7.59173 0)
(-47.9719 -8.33924 0)
(-35.887 -9.08925 0)
(-23.5737 -9.4071 0)
(-11.1179 -10.1004 0)
(1.6627 -10.7053 0)
(14.6275 -11.491 0)
(27.5669 -11.6931 0)
(40.4363 -12.2524 0)
(53.2959 -12.4187 0)
(66.0569 -12.8633 0)
(78.6498 -12.9039 0)
(91.2182 -13.0865 0)
(103.705 -13.4124 0)
(115.875 -13.3693 0)
(127.788 -13.4082 0)
(139.366 -13.278 0)
(150.645 -13.159 0)
(161.551 -12.9333 0)
(172.113 -12.7158 0)
(182.343 -12.5085 0)
(192.25 -12.2732 0)
(201.898 -12.0898 0)
(211.143 -11.7374 0)
(220.106 -11.4804 0)
(228.775 -11.1246 0)
(237.074 -10.7682 0)
(245.147 -10.4944 0)
(252.912 -10.1018 0)
(260.321 -9.78925 0)
(267.6 -9.47783 0)
(274.479 -9.10348 0)
(281.288 -8.82832 0)
(287.713 -8.42724 0)
(294.043 -8.14144 0)
(300.025 -7.73156 0)
(305.841 -7.40501 0)
(311.31 -6.99807 0)
(316.57 -6.69659 0)
(321.55 -6.31062 0)
(326.296 -6.07712 0)
(330.897 -5.80647 0)
(335.405 -5.59892 0)
(339.76 -5.28347 0)
(343.885 -5.04661 0)
(347.856 -4.75103 0)
(351.584 -4.53472 0)
(355.162 -4.28521 0)
(358.582 -4.10575 0)
(361.897 -3.88115 0)
(365.045 -3.71781 0)
(368.114 -3.51884 0)
(371.024 -3.35948 0)
(373.828 -3.19149 0)
(376.56 -3.05397 0)
(379.228 -2.89871 0)
(381.812 -2.75083 0)
(384.271 -2.6225 0)
(386.671 -2.48669 0)
(388.929 -2.36584 0)
(391.058 -2.25295 0)
(393.082 -2.15148 0)
(395.054 -2.04568 0)
(396.902 -1.95901 0)
(398.686 -1.86603 0)
(400.362 -1.79238 0)
(402.021 -1.7048 0)
(403.578 -1.63909 0)
(405.148 -1.56828 0)
(406.595 -1.50445 0)
(407.933 -1.44699 0)
(409.197 -1.3886 0)
(410.474 -1.35704 0)
(411.796 -1.29147 0)
(413.187 -1.18135 0)
(414.665 -1.13097 0)
(416.309 -0.952249 0)
(418.481 -1.31337 0)
(418.858 -0.842731 0)
(419.703 -0.703856 0)
(420.976 -0.984856 0)
(421.263 -0.897656 0)
(421.776 -0.867298 0)
(422.394 -0.864158 0)
(423.07 -0.847547 0)
(423.782 -0.792931 0)
(424.508 -0.767165 0)
(425.242 -0.744153 0)
(425.932 -0.721903 0)
(426.574 -0.69879 0)
(427.222 -0.673135 0)
(427.878 -0.634227 0)
(428.528 -0.608531 0)
(429.184 -0.577965 0)
(429.807 -0.556212 0)
(430.392 -0.537966 0)
(430.952 -0.515639 0)
(431.516 -0.487584 0)
(432.06 -0.468163 0)
(432.582 -0.450544 0)
(433.084 -0.43152 0)
(433.588 -0.408413 0)
(434.104 -0.385158 0)
(434.63 -0.346462 0)
(435.162 -0.336311 0)
(435.722 -0.28144 0)
(436.391 -0.348936 0)
(436.694 -0.258428 0)
(437.078 -0.22201 0)
(437.543 -0.25754 0)
(437.834 -0.237918 0)
(438.171 -0.239205 0)
(438.433 -0.233991 0)
(438.702 -0.226646 0)
(438.946 -0.223369 0)
(439.193 -0.213035 0)
(439.421 -0.209379 0)
(439.645 -0.1999 0)
(439.873 -0.190665 0)
(440.112 -0.180445 0)
(440.356 -0.167607 0)
(440.61 -0.155406 0)
(440.877 -0.135788 0)
(441.154 -0.118221 0)
(441.437 -0.108703 0)
(441.726 -0.0939195 0)
(442.009 -0.0849242 0)
(442.294 -0.068866 0)
(442.588 -0.0790409 0)
(442.779 -0.0585974 0)
(442.992 -0.0546266 0)
(443.154 -0.0564955 0)
(443.329 -0.064703 0)
(443.405 -0.0641576 0)
(443.494 -0.0705618 0)
(443.519 -0.0719386 0)
(443.54 -0.0723375 0)
(443.566 -0.0688935 0)
(443.608 -0.0693625 0)
(443.66 -0.0549915 0)
(443.736 -0.051591 0)
(443.831 -0.0394595 0)
(443.945 -0.0229132 0)
(444.072 -0.01396 0)
(444.213 -0.00612638 0)
(444.363 -0.00198666 0)
(444.482 0.00137271 0)
(444.6 0.010214 0)
(444.669 0.0106597 0)
(444.754 0.00117819 0)
(444.752 -0.00159102 0)
(444.74 -0.000733233 0)
(444.713 -0.00299843 0)
(444.665 -0.0071653 0)
(444.6 -0.00939222 0)
(444.534 -0.00849195 0)
(444.483 -0.00614573 0)
(444.438 -0.00112052 0)
(444.44 0.00563986 0)
(444.441 0.0126978 0)
(444.463 0.0171269 0)
(444.496 0.0253742 0)
(444.54 0.0282348 0)
(444.568 0.0367808 0)
(444.575 0.036965 0)
(444.562 0.0371149 0)
(444.532 0.03304 0)
(444.482 0.03016 0)
(444.407 0.0246094 0)
(444.308 0.0237546 0)
(444.192 0.0215643 0)
(444.074 0.0210314 0)
(443.955 0.0198084 0)
(443.855 0.0238009 0)
(443.759 0.0221944 0)
(443.626 0.0476897 0)
(443.637 0.0321503 0)
(443.609 0.0351346 0)
(443.558 0.0476173 0)
(443.53 0.0470641 0)
(443.488 0.0484174 0)
(443.428 0.0534415 0)
(443.35 0.0496825 0)
(443.253 0.047052 0)
(443.138 0.0446535 0)
(443.009 0.0417888 0)
(442.864 0.0385493 0)
(442.706 0.0374214 0)
(442.537 0.0353958 0)
(442.377 0.037008 0)
(442.225 0.032504 0)
(442.044 0.0578187 0)
(441.979 0.0376679 0)
(441.887 0.0382872 0)
(441.778 0.0555345 0)
(441.715 0.0523909 0)
(441.636 0.0533967 0)
(441.491 0.05682 0)
(4.24583 -13.141 0)
(7.14828 -6.01422 0)
(5.44737 1.97801 0)
(-4.38847 9.9715 0)
(-21.8581 17.5037 0)
(-41.6649 26.1502 0)
(-59.8924 31.8808 0)
(-75.4951 33.957 0)
(-88.5144 33.131 0)
(-99.2917 30.447 0)
(-108.205 26.8427 0)
(-116.094 23.1008 0)
(-123.048 19.4594 0)
(-128.94 16.3702 0)
(-134.013 13.9169 0)
(-138.269 12.0152 0)
(-141.857 10.5286 0)
(-144.988 9.43199 0)
(-147.595 8.58432 0)
(-149.628 7.82027 0)
(-151.388 7.21182 0)
(-152.754 6.61745 0)
(-153.694 6.05027 0)
(-154.181 5.48785 0)
(-154.129 4.8213 0)
(-153.453 4.17409 0)
(-152.07 3.45132 0)
(-149.886 2.62427 0)
(-146.946 1.81218 0)
(-143.24 0.957324 0)
(-138.782 0.0320922 0)
(-133.52 -0.960929 0)
(-127.42 -1.89875 0)
(-120.574 -2.88118 0)
(-112.961 -4.04952 0)
(-104.478 -5.03979 0)
(-95.3014 -5.99478 0)
(-85.5668 -6.93244 0)
(-75.2511 -8.07067 0)
(-64.3076 -9.11998 0)
(-52.8133 -10.1784 0)
(-40.9124 -10.9423 0)
(-28.6649 -12.2447 0)
(-15.9244 -13.2799 0)
(-2.81238 -14.3836 0)
(10.5075 -14.8484 0)
(23.9772 -15.8695 0)
(37.7366 -16.6858 0)
(51.5605 -17.7514 0)
(65.3346 -17.9536 0)
(78.9119 -18.6894 0)
(92.4376 -18.843 0)
(105.787 -19.4121 0)
(118.882 -19.3733 0)
(131.865 -19.6832 0)
(144.646 -19.9462 0)
(156.997 -19.7798 0)
(169.054 -19.7639 0)
(180.701 -19.4886 0)
(192.005 -19.2741 0)
(202.857 -18.8669 0)
(213.326 -18.5177 0)
(223.408 -18.1521 0)
(233.109 -17.7631 0)
(242.518 -17.4173 0)
(251.448 -16.8665 0)
(260.069 -16.449 0)
(268.347 -15.8953 0)
(276.222 -15.3672 0)
(283.856 -14.9181 0)
(291.102 -14.3031 0)
(297.962 -13.8279 0)
(304.699 -13.3297 0)
(310.997 -12.7823 0)
(317.248 -12.3622 0)
(323.1 -11.7827 0)
(328.851 -11.3483 0)
(334.272 -10.7682 0)
(339.51 -10.2969 0)
(344.44 -9.73153 0)
(349.146 -9.30449 0)
(353.619 -8.77482 0)
(357.848 -8.43616 0)
(361.958 -8.03948 0)
(365.964 -7.7232 0)
(369.831 -7.28593 0)
(373.46 -6.95533 0)
(376.957 -6.55356 0)
(380.229 -6.25781 0)
(383.372 -5.91939 0)
(386.381 -5.66864 0)
(389.301 -5.36315 0)
(392.071 -5.1375 0)
(394.78 -4.86616 0)
(397.34 -4.64991 0)
(399.805 -4.41765 0)
(402.212 -4.22122 0)
(404.561 -4.00531 0)
(406.833 -3.80641 0)
(408.997 -3.63238 0)
(411.116 -3.45099 0)
(413.106 -3.29574 0)
(414.987 -3.15032 0)
(416.786 -3.01389 0)
(418.535 -2.87279 0)
(420.18 -2.75783 0)
(421.767 -2.63452 0)
(423.266 -2.53353 0)
(424.746 -2.41419 0)
(426.14 -2.32257 0)
(427.547 -2.22522 0)
(428.843 -2.14889 0)
(430.047 -2.07396 0)
(431.189 -1.99552 0)
(432.351 -1.94112 0)
(433.555 -1.83586 0)
(434.813 -1.67286 0)
(436.16 -1.58838 0)
(437.634 -1.34513 0)
(439.545 -1.79841 0)
(439.929 -1.28788 0)
(440.708 -1.10204 0)
(441.75 -1.4289 0)
(442.126 -1.38394 0)
(442.645 -1.32293 0)
(443.239 -1.29386 0)
(443.88 -1.25261 0)
(444.546 -1.17116 0)
(445.223 -1.13112 0)
(445.907 -1.09516 0)
(446.551 -1.06605 0)
(447.157 -1.03299 0)
(447.767 -0.992384 0)
(448.383 -0.935304 0)
(448.991 -0.896296 0)
(449.606 -0.851304 0)
(450.185 -0.823866 0)
(450.736 -0.799112 0)
(451.266 -0.767276 0)
(451.799 -0.726794 0)
(452.311 -0.700584 0)
(452.807 -0.675648 0)
(453.286 -0.648076 0)
(453.768 -0.613376 0)
(454.26 -0.577054 0)
(454.758 -0.522836 0)
(455.266 -0.507473 0)
(455.79 -0.431765 0)
(456.407 -0.521224 0)
(456.707 -0.42037 0)
(457.074 -0.368542 0)
(457.502 -0.40926 0)
(457.795 -0.395095 0)
(458.12 -0.392794 0)
(458.379 -0.38916 0)
(458.642 -0.377669 0)
(458.883 -0.371559 0)
(459.125 -0.355247 0)
(459.351 -0.347939 0)
(459.573 -0.332855 0)
(459.798 -0.316064 0)
(460.033 -0.296 0)
(460.273 -0.276294 0)
(460.522 -0.255978 0)
(460.781 -0.22562 0)
(461.049 -0.199023 0)
(461.322 -0.183608 0)
(461.601 -0.161023 0)
(461.876 -0.147559 0)
(462.15 -0.126388 0)
(462.434 -0.143942 0)
(462.627 -0.116207 0)
(462.837 -0.112435 0)
(463.001 -0.115521 0)
(463.179 -0.128339 0)
(463.267 -0.130299 0)
(463.367 -0.138745 0)
(463.409 -0.140876 0)
(463.446 -0.140391 0)
(463.488 -0.13214 0)
(463.541 -0.125318 0)
(463.603 -0.104851 0)
(463.686 -0.0930395 0)
(463.785 -0.0724908 0)
(463.901 -0.0481412 0)
(464.027 -0.0315506 0)
(464.166 -0.0209146 0)
(464.315 -0.0147018 0)
(464.434 -0.0100486 0)
(464.554 -0.00158227 0)
(464.629 -0.00139207 0)
(464.718 -0.016957 0)
(464.731 -0.0211399 0)
(464.728 -0.0219126 0)
(464.713 -0.0260922 0)
(464.679 -0.0329727 0)
(464.63 -0.0363124 0)
(464.58 -0.0307707 0)
(464.54 -0.0239137 0)
(464.508 -0.0119784 0)
(464.513 0.00231626 0)
(464.517 0.0114237 0)
(464.54 0.0223439 0)
(464.572 0.033691 0)
(464.614 0.0385893 0)
(464.642 0.0465382 0)
(464.651 0.0479556 0)
(464.641 0.0457428 0)
(464.616 0.0392951 0)
(464.574 0.0321796 0)
(464.508 0.0254724 0)
(464.42 0.0234373 0)
(464.315 0.0198991 0)
(464.209 0.020924 0)
(464.1 0.0199142 0)
(464.008 0.0287679 0)
(463.916 0.0294579 0)
(463.791 0.0659366 0)
(463.792 0.0504989 0)
(463.763 0.0517555 0)
(463.715 0.0672323 0)
(463.682 0.0694137 0)
(463.636 0.0697684 0)
(463.575 0.07417 0)
(463.499 0.0681871 0)
(463.405 0.0637812 0)
(463.295 0.0593227 0)
(463.172 0.055671 0)
(463.034 0.0497169 0)
(462.882 0.0487611 0)
(462.721 0.045896 0)
(462.568 0.0516048 0)
(462.418 0.0471327 0)
(462.243 0.08177 0)
(462.171 0.0597678 0)
(462.074 0.0590863 0)
(461.964 0.0824696 0)
(461.891 0.0799712 0)
(461.806 0.0799138 0)
(461.656 0.0829265 0)
(1.86337 -16.0853 0)
(3.49219 -5.5819 0)
(-3.97781 7.29826 0)
(-18.5435 18.3865 0)
(-36.8327 28.7972 0)
(-53.5019 36.5242 0)
(-67.9802 40.444 0)
(-80.0048 41.1222 0)
(-89.7974 39.1877 0)
(-97.6512 35.5066 0)
(-104.155 30.6395 0)
(-110.067 26.0593 0)
(-115.231 22.0257 0)
(-119.618 18.5953 0)
(-123.425 15.8155 0)
(-126.691 13.6581 0)
(-129.476 11.9748 0)
(-131.913 10.6983 0)
(-133.924 9.71907 0)
(-135.401 8.81412 0)
(-136.649 8.07407 0)
(-137.523 7.35876 0)
(-137.997 6.6449 0)
(-137.977 5.84669 0)
(-137.373 5.0425 0)
(-136.122 4.15729 0)
(-134.134 3.1702 0)
(-131.335 2.05756 0)
(-127.719 0.957853 0)
(-123.298 -0.18344 0)
(-118.087 -1.40993 0)
(-112.022 -2.76111 0)
(-105.025 -4.04696 0)
(-97.2351 -5.34036 0)
(-88.6707 -6.93224 0)
(-79.1347 -8.33651 0)
(-68.8422 -9.63216 0)
(-57.9714 -10.8762 0)
(-46.5026 -12.41 0)
(-34.3403 -13.8325 0)
(-21.5488 -15.2898 0)
(-8.37563 -16.2938 0)
(5.1645 -17.9066 0)
(19.1288 -19.2005 0)
(33.4021 -20.6576 0)
(47.9819 -21.237 0)
(62.6442 -22.5836 0)
(77.5992 -23.5323 0)
(92.4879 -24.8287 0)
(107.277 -24.9595 0)
(121.792 -25.9026 0)
(136.202 -25.9891 0)
(150.344 -26.672 0)
(164.073 -26.4278 0)
(177.547 -26.8443 0)
(190.671 -26.9441 0)
(203.181 -26.5386 0)
(215.372 -26.4703 0)
(227.024 -25.9522 0)
(238.238 -25.6028 0)
(248.891 -24.9252 0)
(259.054 -24.4021 0)
(268.794 -23.8156 0)
(278.03 -23.2325 0)
(286.984 -22.6696 0)
(295.336 -21.8841 0)
(303.357 -21.2709 0)
(310.986 -20.4797 0)
(318.145 -19.756 0)
(325.066 -19.1123 0)
(331.578 -18.2809 0)
(337.708 -17.6456 0)
(343.74 -16.9471 0)
(349.297 -16.2291 0)
(354.844 -15.6589 0)
(359.973 -14.9019 0)
(365.005 -14.3147 0)
(369.718 -13.5701 0)
(374.248 -12.9604 0)
(378.494 -12.2482 0)
(382.524 -11.7062 0)
(386.349 -11.0482 0)
(389.942 -10.6061 0)
(393.403 -10.0725 0)
(396.769 -9.64159 0)
(400.006 -9.08189 0)
(403.022 -8.66972 0)
(405.929 -8.16574 0)
(408.642 -7.80446 0)
(411.248 -7.38267 0)
(413.749 -7.06834 0)
(416.178 -6.68738 0)
(418.482 -6.40726 0)
(420.737 -6.06293 0)
(422.852 -5.79713 0)
(424.888 -5.50257 0)
(426.879 -5.25005 0)
(428.822 -4.97708 0)
(430.699 -4.73405 0)
(432.486 -4.51977 0)
(434.245 -4.29779 0)
(435.888 -4.11769 0)
(437.446 -3.94634 0)
(438.946 -3.77982 0)
(440.395 -3.60919 0)
(441.76 -3.4713 0)
(443.077 -3.32277 0)
(444.326 -3.1982 0)
(445.559 -3.05132 0)
(446.722 -2.93826 0)
(447.898 -2.81601 0)
(448.975 -2.73373 0)
(449.982 -2.64548 0)
(450.94 -2.55244 0)
(451.928 -2.47262 0)
(452.952 -2.32242 0)
(454.017 -2.10775 0)
(455.172 -1.97762 0)
(456.418 -1.7052 0)
(458.007 -2.17225 0)
(458.358 -1.71298 0)
(459.008 -1.51882 0)
(459.76 -1.83 0)
(460.187 -1.84718 0)
(460.644 -1.76776 0)
(461.152 -1.70527 0)
(461.7 -1.63641 0)
(462.264 -1.52819 0)
(462.84 -1.4757 0)
(463.425 -1.42636 0)
(463.975 -1.39259 0)
(464.5 -1.35021 0)
(465.029 -1.29436 0)
(465.559 -1.21939 0)
(466.084 -1.16756 0)
(466.615 -1.10749 0)
(467.109 -1.07669 0)
(467.587 -1.04544 0)
(468.048 -1.00488 0)
(468.512 -0.95236 0)
(468.954 -0.921098 0)
(469.384 -0.889131 0)
(469.804 -0.853124 0)
(470.227 -0.807155 0)
(470.66 -0.75646 0)
(471.096 -0.688626 0)
(471.547 -0.664224 0)
(472.006 -0.575888 0)
(472.541 -0.670073 0)
(472.812 -0.574593 0)
(473.132 -0.514704 0)
(473.498 -0.549001 0)
(473.765 -0.544009 0)
(474.052 -0.540965 0)
(474.28 -0.538814 0)
(474.511 -0.52398 0)
(474.722 -0.515464 0)
(474.935 -0.493362 0)
(475.133 -0.482925 0)
(475.329 -0.461898 0)
(475.528 -0.438367 0)
(475.735 -0.407323 0)
(475.948 -0.380943 0)
(476.17 -0.352085 0)
(476.4 -0.310314 0)
(476.638 -0.27592 0)
(476.882 -0.253606 0)
(477.131 -0.22311 0)
(477.379 -0.205367 0)
(477.623 -0.17969 0)
(477.877 -0.203472 0)
(478.052 -0.17042 0)
(478.24 -0.167567 0)
(478.386 -0.172563 0)
(478.545 -0.190479 0)
(478.626 -0.195941 0)
(478.717 -0.207687 0)
(478.755 -0.210867 0)
(478.791 -0.211 0)
(478.828 -0.195647 0)
(478.878 -0.18313 0)
(478.933 -0.154428 0)
(479.008 -0.134298 0)
(479.098 -0.104925 0)
(479.203 -0.0714328 0)
(479.315 -0.0486379 0)
(479.44 -0.032417 0)
(479.574 -0.0253121 0)
(479.682 -0.0192742 0)
(479.79 -0.0143593 0)
(479.857 -0.0154536 0)
(479.935 -0.0346662 0)
(479.95 -0.0417952 0)
(479.946 -0.0441304 0)
(479.931 -0.0509084 0)
(479.899 -0.0601232 0)
(479.853 -0.0636626 0)
(479.808 -0.0535624 0)
(479.769 -0.04256 0)
(479.736 -0.0237576 0)
(479.742 -0.00195499 0)
(479.737 0.0112368 0)
(479.757 0.0276937 0)
(479.782 0.0430788 0)
(479.817 0.0501996 0)
(479.837 0.0578084 0)
(479.839 0.0593028 0)
(479.827 0.0544582 0)
(479.8 0.0454216 0)
(479.757 0.0339408 0)
(479.693 0.0257651 0)
(479.608 0.0227261 0)
(479.507 0.0171199 0)
(479.404 0.0198252 0)
(479.299 0.0193395 0)
(479.21 0.0333329 0)
(479.118 0.0378978 0)
(478.998 0.0861631 0)
(478.988 0.0695148 0)
(478.953 0.0701544 0)
(478.904 0.0876024 0)
(478.862 0.0934775 0)
(478.811 0.0929859 0)
(478.746 0.0959562 0)
(478.667 0.0875421 0)
(478.573 0.0812176 0)
(478.463 0.0743987 0)
(478.341 0.0700753 0)
(478.205 0.0607221 0)
(478.057 0.0600061 0)
(477.9 0.0564354 0)
(477.75 0.0663013 0)
(477.599 0.063231 0)
(477.429 0.105459 0)
(477.349 0.0842068 0)
(477.248 0.0822048 0)
(477.136 0.110573 0)
(477.054 0.109906 0)
(476.963 0.108914 0)
(476.805 0.110862 0)
(-1.70982 -16.4705 0)
(-4.65499 -2.04721 0)
(-15.7767 14.2957 0)
(-30.9744 28.2724 0)
(-46.3348 38.3892 0)
(-59.7226 44.5786 0)
(-70.9708 47.193 0)
(-80.1547 46.6938 0)
(-87.4108 43.563 0)
(-93.0647 38.5663 0)
(-97.8188 33.2721 0)
(-102.105 28.339 0)
(-105.849 23.9638 0)
(-109.133 20.285 0)
(-112.038 17.3118 0)
(-114.56 14.9733 0)
(-116.711 13.1322 0)
(-118.554 11.6981 0)
(-120.03 10.5813 0)
(-120.981 9.54981 0)
(-121.733 8.67544 0)
(-122.102 7.80471 0)
(-122.027 6.88702 0)
(-121.424 5.93825 0)
(-120.212 4.89819 0)
(-118.289 3.74764 0)
(-115.601 2.45431 0)
(-112.062 1.00512 0)
(-107.613 -0.432778 0)
(-102.303 -1.90023 0)
(-96.1583 -3.46124 0)
(-89.1132 -5.23939 0)
(-81.0115 -6.94923 0)
(-72.0528 -8.57131 0)
(-62.3367 -10.6523 0)
(-51.5071 -12.5498 0)
(-39.8311 -14.2457 0)
(-27.5438 -15.7801 0)
(-14.6535 -17.725 0)
(-1.01003 -19.5145 0)
(13.3327 -21.3641 0)
(28.1626 -22.5918 0)
(43.322 -24.6318 0)
(59.0918 -26.2227 0)
(75.1603 -28.0987 0)
(91.5865 -28.7469 0)
(108.007 -30.477 0)
(124.695 -31.4858 0)
(141.14 -32.9834 0)
(157.271 -32.8552 0)
(173.058 -34.0352 0)
(188.613 -33.897 0)
(203.66 -34.6539 0)
(218.173 -34.0539 0)
(231.922 -34.4184 0)
(245.363 -34.3326 0)
(258.004 -33.5606 0)
(270.152 -33.3674 0)
(281.768 -32.5558 0)
(292.585 -31.9349 0)
(302.917 -30.9385 0)
(312.419 -30.1514 0)
(321.611 -29.2893 0)
(330.03 -28.4449 0)
(338.287 -27.6226 0)
(345.724 -26.5523 0)
(352.846 -25.7028 0)
(359.503 -24.6367 0)
(365.597 -23.6936 0)
(371.507 -22.814 0)
(376.938 -21.7427 0)
(382.047 -20.9462 0)
(387.059 -20.0353 0)
(391.563 -19.1483 0)
(396.12 -18.4285 0)
(400.219 -17.4937 0)
(404.25 -16.7564 0)
(407.953 -15.8527 0)
(411.507 -15.1177 0)
(414.769 -14.2722 0)
(417.88 -13.6345 0)
(420.775 -12.8652 0)
(423.505 -12.3456 0)
(426.132 -11.6946 0)
(428.73 -11.1792 0)
(431.213 -10.5116 0)
(433.525 -10.05 0)
(435.75 -9.45495 0)
(437.824 -9.05737 0)
(439.812 -8.56098 0)
(441.731 -8.20201 0)
(443.594 -7.75615 0)
(445.362 -7.43773 0)
(447.075 -7.01887 0)
(448.664 -6.7188 0)
(450.194 -6.36489 0)
(451.695 -6.0662 0)
(453.166 -5.74451 0)
(454.585 -5.46928 0)
(455.937 -5.22397 0)
(457.281 -4.96943 0)
(458.523 -4.77767 0)
(459.707 -4.58442 0)
(460.853 -4.39374 0)
(461.945 -4.20261 0)
(462.977 -4.04957 0)
(463.974 -3.88217 0)
(464.925 -3.7403 0)
(465.861 -3.57138 0)
(466.744 -3.44493 0)
(467.642 -3.30089 0)
(468.452 -3.22 0)
(469.217 -3.12223 0)
(469.951 -3.02328 0)
(470.721 -2.91266 0)
(471.522 -2.71458 0)
(472.347 -2.44996 0)
(473.258 -2.26594 0)
(474.232 -1.99937 0)
(475.453 -2.42176 0)
(475.754 -2.08412 0)
(476.229 -1.91792 0)
(476.682 -2.16837 0)
(477.114 -2.25141 0)
(477.45 -2.16786 0)
(477.826 -2.06922 0)
(478.243 -1.97533 0)
(478.667 -1.8404 0)
(479.108 -1.77966 0)
(479.557 -1.71618 0)
(479.981 -1.68027 0)
(480.392 -1.62885 0)
(480.804 -1.5581 0)
(481.216 -1.46669 0)
(481.624 -1.40408 0)
(482.04 -1.32913 0)
(482.42 -1.29778 0)
(482.795 -1.25958 0)
(483.158 -1.21186 0)
(483.522 -1.14831 0)
(483.866 -1.11421 0)
(484.203 -1.07598 0)
(484.538 -1.0323 0)
(484.875 -0.974728 0)
(485.222 -0.910233 0)
(485.57 -0.830458 0)
(485.936 -0.79517 0)
(486.304 -0.702484 0)
(486.733 -0.788424 0)
(486.954 -0.711022 0)
(487.205 -0.646942 0)
(487.487 -0.670792 0)
(487.702 -0.674448 0)
(487.93 -0.674445 0)
(488.106 -0.674003 0)
(488.283 -0.657091 0)
(488.445 -0.646704 0)