/*--------------------------------*- C++ -*----------------------------------*\
| =========                 |                                                 |
| \\      /  F ield         | OpenFOAM: The Open Source CFD Toolbox           |
|  \\    /   O peration     | Version:  2312                                  |
|   \\  /    A nd           | Website:  www.openfoam.com                      |
|    \\/     M anipulation  |                                                 |
\*---------------------------------------------------------------------------*/
FoamFile
{
    version     2.0;
    format      ascii;
    arch        "LSB;label=32;scalar=64";
    class       volScalarField;
    location    "0.002";
    object      alphat;
}
// * * * * * * * * * * * * * * * * * * * * * * * * * * * * * * * * * * * * * //

dimensions      [1 -1 -1 0 0 0 0];

internalField   nonuniform List<scalar> 
48128
(
1.10785e-07
1.42031e-07
1.87823e-07
1.88844e-07
1.74064e-07
1.51753e-07
1.27575e-07
1.05483e-07
8.21067e-08
5.66927e-08
1.6551e-07
9.90899e-07
3.06327e-06
5.30922e-06
7.17346e-06
8.71214e-06
1.00154e-05
1.11631e-05
1.22193e-05
1.32257e-05
1.4215e-05
1.52082e-05
1.62189e-05
1.72584e-05
1.83409e-05
1.94766e-05
2.06785e-05
2.19826e-05
2.33839e-05
2.49115e-05
2.65651e-05
2.83574e-05
3.0306e-05
3.24272e-05
3.47165e-05
3.72227e-05
3.99669e-05
4.29672e-05
4.61332e-05
4.9575e-05
5.32055e-05
5.71559e-05
6.11899e-05
6.55557e-05
7.01266e-05
7.50612e-05
7.98583e-05
8.47109e-05
8.93618e-05
9.43395e-05
9.91023e-05
0.00010403
0.00010833
0.000113067
0.000117675
0.000123677
0.000129619
0.000135692
0.00014145
0.000147117
0.000152448
0.000157538
0.000162345
0.000166925
0.000171314
0.000175488
0.000179418
0.000183142
0.000182758
0.000175583
0.000168935
0.000162912
0.000157389
0.000152245
0.000147518
0.00014301
0.00013886
0.000134877
0.000131239
0.000127758
0.000124534
0.000121529
0.000118648
0.000116063
0.000113521
0.0001112
0.000108906
0.000106769
0.000104639
0.000102686
0.000100816
9.91118e-05
9.74941e-05
9.60025e-05
9.45596e-05
9.31889e-05
9.17874e-05
9.04945e-05
8.93041e-05
8.82378e-05
8.72688e-05
8.63693e-05
8.55068e-05
8.46694e-05
8.38649e-05
8.31076e-05
8.24042e-05
8.17553e-05
8.11513e-05
8.05992e-05
8.00976e-05
7.96404e-05
7.92297e-05
7.88456e-05
7.85041e-05
7.81775e-05
7.78567e-05
7.74729e-05
7.70475e-05
7.65541e-05
7.61314e-05
7.59274e-05
7.56692e-05
7.55275e-05
7.54502e-05
7.53528e-05
7.52499e-05
7.514e-05
7.49994e-05
7.48456e-05
7.4676e-05
7.45039e-05
7.43371e-05
7.4167e-05
7.39897e-05
7.38171e-05
7.36575e-05
7.3524e-05
7.34072e-05
7.33007e-05
7.31961e-05
7.31001e-05
7.30123e-05
7.29428e-05
7.28832e-05
7.28306e-05
7.27775e-05
7.27302e-05
7.26593e-05
7.2588e-05
7.25022e-05
7.24266e-05
7.23571e-05
7.22871e-05
7.221e-05
7.21171e-05
7.20173e-05
7.18856e-05
7.17463e-05
7.1615e-05
7.14698e-05
7.13383e-05
7.12739e-05
7.1192e-05
7.11183e-05
7.10696e-05
7.1022e-05
7.0995e-05
7.09686e-05
7.09364e-05
7.09032e-05
7.08617e-05
7.08101e-05
7.07496e-05
7.06777e-05
7.05865e-05
7.04991e-05
7.04002e-05
7.03069e-05
7.02329e-05
7.01612e-05
7.01013e-05
7.0049e-05
7.00206e-05
6.99981e-05
6.99749e-05
6.99557e-05
6.99405e-05
6.99178e-05
6.98876e-05
6.9846e-05
6.97938e-05
6.97338e-05
6.96575e-05
6.9592e-05
6.95208e-05
6.9461e-05
6.94061e-05
6.93567e-05
6.93187e-05
6.92879e-05
6.92641e-05
6.92516e-05
6.92408e-05
6.92247e-05
6.92051e-05
6.9173e-05
6.91438e-05
6.91077e-05
6.90163e-05
6.89669e-05
6.89169e-05
6.88599e-05
6.88102e-05
6.87644e-05
6.8725e-05
6.86965e-05
6.86708e-05
6.86475e-05
6.86277e-05
6.86115e-05
6.85915e-05
6.8575e-05
6.85449e-05
6.84839e-05
6.84471e-05
6.84006e-05
6.83442e-05
6.82994e-05
6.82563e-05
6.8215e-05
6.8177e-05
6.81475e-05
6.81198e-05
6.80932e-05
6.80688e-05
6.80465e-05
6.8024e-05
6.80018e-05
6.79464e-05
8.39985e-07
6.46802e-07
4.34004e-07
2.85058e-07
2.11569e-07
1.83441e-07
2.07594e-07
3.82887e-07
7.39114e-07
1.41428e-06
3.10784e-06
6.29327e-06
1.14185e-05
1.92359e-05
2.77937e-05
3.69338e-05
4.61268e-05
5.5142e-05
6.40257e-05
7.29077e-05
8.19778e-05
9.13758e-05
0.000101373
0.000111973
0.000123406
0.000135702
0.000149024
0.000163503
0.000178644
0.000195804
0.00021432
0.000233941
0.000255039
0.000277717
0.000301201
0.000325838
0.000349693
0.000375775
0.000402552
0.000430882
0.000460289
0.000491934
0.000523534
0.000556257
0.000588513
0.000623777
0.000658838
0.000694426
0.000727777
0.000763821
0.000798171
0.000834821
0.000866788
0.000901351
0.000933884
0.000965489
0.000993389
0.00102049
0.00104529
0.00106894
0.00109017
0.00110933
0.00112658
0.0011421
0.00115617
0.00116871
0.00117954
0.00118895
0.00119646
0.00120387
0.00121035
0.00121457
0.00121817
0.00121909
0.00121998
0.0012181
0.00121646
0.00121186
0.00120747
0.00120112
0.00119407
0.00118718
0.00117854
0.00117074
0.00116133
0.00115231
0.00114218
0.00113229
0.00112101
0.00111001
0.00109842
0.00108713
0.0010757
0.00106468
0.00105358
0.0010427
0.00103116
0.00101963
0.0010083
0.000997419
0.000986996
0.000977034
0.000967329
0.000957701
0.000948159
0.000938774
0.000929656
0.000920832
0.00091227
0.000904122
0.000896325
0.000888964
0.00088197
0.00087529
0.000869046
0.0008629
0.000857172
0.000850841
0.000844156
0.000836907
0.000829719
0.000824009
0.000817943
0.000813078
0.000808775
0.000804848
0.000801191
0.000797726
0.000794094
0.000790452
0.000786644
0.000782822
0.000778967
0.000775135
0.000771127
0.000767072
0.000763166
0.000759383
0.000755715
0.000752319
0.000749018
0.000745899
0.000742855
0.000740125
0.000736299
0.000732078
0.000727933
0.00072388
0.000719779
0.000715908
0.00071199
0.000708221
0.000704539
0.000700955
0.000697544
0.000694104
0.000690706
0.000687141
0.000683643
0.000680069
0.000676556
0.000672908
0.000669548
0.000666157
0.000662839
0.000659861
0.000656888
0.000654269
0.000651816
0.000649462
0.000647297
0.000645199
0.000643389
0.000641415
0.000639746
0.00063778
0.000635933
0.000633952
0.000631932
0.000629865
0.000627756
0.000625764
0.0006237
0.000622024
0.000620364
0.000618816
0.000617381
0.000616055
0.000614781
0.000613693
0.000612617
0.000611657
0.000610407
0.000609457
0.00060826
0.000607148
0.000605841
0.000604552
0.000603241
0.000602003
0.000600822
0.000599715
0.000598727
0.000597856
0.000597113
0.000596439
0.000595796
0.000595224
0.00059453
0.000593926
0.000593164
0.000592337
0.000591512
0.000590601
0.000589662
0.000588711
0.000587882
0.000587073
0.000586356
0.000585696
0.000585121
0.000584688
0.000584301
0.000583838
0.000583431
0.000582987
0.000582415
0.000581909
0.000581308
0.000580648
0.000579944
0.000579228
0.000578586
0.000577983
0.000577403
0.000576918
0.000576458
0.000576082
0.0005758
0.000575311
1.13017e-06
1.23558e-06
1.25399e-06
8.78161e-07
6.34862e-07
7.73345e-07
1.49437e-06
2.79663e-06
5.06089e-06
9.13626e-06
1.65219e-05
3.01169e-05
5.10209e-05
8.04679e-05
0.000111693
0.000142127
0.000170311
0.0001963
0.000220509
0.00024375
0.000266603
0.000289084
0.000312543
0.000336573
0.000361863
0.000388317
0.000416272
0.000445947
0.000476919
0.000510067
0.000544684
0.000580959
0.000619092
0.000658873
0.000699134
0.000741375
0.000784339
0.000830266
0.000876751
0.000925251
0.000974667
0.00102769
0.00108025
0.00113442
0.00118653
0.0012431
0.00129869
0.00135534
0.00140738
0.00146329
0.00151596
0.00157133
0.00161986
0.00167159
0.00172059
0.00176814
0.00181145
0.0018534
0.00189232
0.00192978
0.00196338
0.00199405
0.00202189
0.00204727
0.00207055
0.00209155
0.00211008
0.00212654
0.00213971
0.00215108
0.00216001
0.00216535
0.0021701
0.00217088
0.0021716
0.00216847
0.00216553
0.00215844
0.00215163
0.00214215
0.0021314
0.00212069
0.0021074
0.00209539
0.00208045
0.00206625
0.00204977
0.00203364
0.00201524
0.00199739
0.00197864
0.00196044
0.00194187
0.00192384
0.00190548
0.00188704
0.00186744
0.00184782
0.00182852
0.00180989
0.00179193
0.0017746
0.00175748
0.00174031
0.00172316
0.00170617
0.00168955
0.00167334
0.00165752
0.00164228
0.00162757
0.00161357
0.00160005
0.0015871
0.0015747
0.00156252
0.00155087
0.00153803
0.00152455
0.00151009
0.00149561
0.0014838
0.00147129
0.00146084
0.00145123
0.00144237
0.00143368
0.00142534
0.0014166
0.00140793
0.00139898
0.00139008
0.00138115
0.00137228
0.00136312
0.00135401
0.00134505
0.00133644
0.00132802
0.00131999
0.00131195
0.00130431
0.00129683
0.00128977
0.00128301
0.00127672
0.00127068
0.00126511
0.00125938
0.00125401
0.00124855
0.00124333
0.00123834
0.00123348
0.00122872
0.00122375
0.0012187
0.00121311
0.00120734
0.00120144
0.00119548
0.00118948
0.00118426
0.00117896
0.0011741
0.00116949
0.00116535
0.00116153
0.0011581
0.00115478
0.00115169
0.00114873
0.00114572
0.00114266
0.00113938
0.00113575
0.00113197
0.00112799
0.0011239
0.00111996
0.00111608
0.00111234
0.00110888
0.00110587
0.00110313
0.00110063
0.00109837
0.00109635
0.00109438
0.00109248
0.00109047
0.00108837
0.00108605
0.00108359
0.00108096
0.00107823
0.0010755
0.00107282
0.00107017
0.00106777
0.00106561
0.00106369
0.0010621
0.00106076
0.00105949
0.00105834
0.00105706
0.00105587
0.00105438
0.00105255
0.00105085
0.00104898
0.00104702
0.00104505
0.00104311
0.00104125
0.00103972
0.00103829
0.00103707
0.00103598
0.00103513
0.00103431
0.00103366
0.00103273
0.00103158
0.00103054
0.00102927
0.00102789
0.00102651
0.0010251
0.0010237
0.00102234
0.00102117
0.00102016
0.0010192
0.00101845
0.00101773
0.00101717
0.00101666
0.00101558
1.3464e-06
2.07036e-06
2.66051e-06
2.01838e-06
2.05308e-06
3.40991e-06
5.79459e-06
1.00637e-05
1.7408e-05
3.05195e-05
5.44535e-05
9.13409e-05
0.00014036
0.000196178
0.00024857
0.00029525
0.000336191
0.000373354
0.000407431
0.000439698
0.000471284
0.000502594
0.000534796
0.000567674
0.000601909
0.000637466
0.000674545
0.000713326
0.0007536
0.000795902
0.000839585
0.000885125
0.000931748
0.000980348
0.00102969
0.00108113
0.0011336
0.001189
0.00124453
0.00130194
0.00135936
0.00142068
0.00148109
0.00154384
0.001603
0.00166674
0.00172866
0.00179212
0.00185062
0.00191271
0.001971
0.00203142
0.00208533
0.00214256
0.00219631
0.00224841
0.00229734
0.00234458
0.00238904
0.00243143
0.00247003
0.00250609
0.00253951
0.00257069
0.00259972
0.00262636
0.00265036
0.0026725
0.00269079
0.00270757
0.00272117
0.00273182
0.00274146
0.00274721
0.00275225
0.00275325
0.00275407
0.00275077
0.00274752
0.00274166
0.00273467
0.00272689
0.00271689
0.00270786
0.00269555
0.00268374
0.002669
0.00265393
0.00263638
0.00261927
0.00260136
0.00258404
0.00256624
0.00254885
0.00253083
0.00251212
0.00249175
0.00247131
0.00245131
0.00243198
0.00241331
0.00239525
0.00237717
0.0023588
0.00234025
0.00232179
0.00230362
0.00228586
0.0022685
0.00225168
0.00223541
0.00221989
0.00220484
0.00219046
0.00217651
0.0021629
0.0021496
0.00213466
0.00211861
0.00210141
0.00208385
0.00206967
0.00205485
0.00204244
0.0020311
0.00202068
0.00201024
0.00200018
0.00198945
0.00197869
0.00196741
0.00195613
0.00194469
0.00193322
0.00192132
0.00190954
0.00189781
0.00188654
0.00187548
0.0018649
0.00185416
0.00184389
0.00183373
0.00182412
0.00181479
0.00180607
0.00179759
0.00178972
0.0017816
0.00177396
0.00176614
0.00175865
0.00175142
0.00174437
0.00173739
0.00173015
0.00172271
0.00171456
0.00170611
0.00169745
0.0016887
0.00167987
0.00167207
0.00166429
0.00165704
0.00165012
0.0016439
0.00163808
0.00163282
0.00162766
0.00162286
0.0016181
0.00161331
0.0016084
0.00160319
0.00159753
0.00159168
0.0015856
0.00157929
0.00157333
0.00156736
0.00156172
0.00155639
0.00155171
0.00154727
0.00154328
0.00153953
0.00153625
0.00153289
0.00152967
0.00152631
0.00152277
0.00151903
0.00151492
0.00151069
0.00150632
0.001502
0.00149779
0.00149365
0.00148991
0.00148646
0.00148338
0.00148066
0.00147834
0.00147609
0.00147406
0.00147184
0.00146976
0.00146726
0.00146419
0.00146128
0.00145833
0.00145525
0.00145217
0.00144918
0.00144634
0.00144392
0.00144166
0.00143966
0.00143788
0.00143639
0.00143492
0.00143378
0.00143219
0.00143026
0.0014285
0.00142649
0.00142436
0.00142222
0.00142009
0.00141798
0.00141599
0.00141425
0.00141271
0.00141127
0.00141008
0.00140894
0.00140798
0.00140709
0.00140536
1.52153e-06
4.08473e-06
5.6049e-06
4.21802e-06
5.84268e-06
8.92744e-06
1.46221e-05
2.45806e-05
4.29568e-05
7.47074e-05
0.000123353
0.000187725
0.000257946
0.00032633
0.000387955
0.000442421
0.000491453
0.000534531
0.000574725
0.000612859
0.000650111
0.000687055
0.000724609
0.000762793
0.000802125
0.000842623
0.000884382
0.000927584
0.000972062
0.00101819
0.00106524
0.00111363
0.00116283
0.00121399
0.00126579
0.00131963
0.00137424
0.00143159
0.00148867
0.00154728
0.00160498
0.00166674
0.00172695
0.00178926
0.00184648
0.00190811
0.00196702
0.0020275
0.00208332
0.00214254
0.00219758
0.00225454
0.0023059
0.00236003
0.00239237
0.00242618
0.0024633
0.00250023
0.00253452
0.00257102
0.00260622
0.0026503
0.00268832
0.00273481
0.00277324
0.00281221
0.00285432
0.00288886
0.00292899
0.0029584
0.00297667
0.00299284
0.00300711
0.00301821
0.00302792
0.0030339
0.0030392
0.00304106
0.00304316
0.00304292
0.00304232
0.00303991
0.00303628
0.00303302
0.00302656
0.00302029
0.00301074
0.0030002
0.00298727
0.00297461
0.00296145
0.00294883
0.00293569
0.00292278
0.00290892
0.0028939
0.00287693
0.00285984
0.00284326
0.00282721
0.00281169
0.00279668
0.00278141
0.00276572
0.00274965
0.00273361
0.00271773
0.00270222
0.00268707
0.00267233
0.00265811
0.00264456
0.00263144
0.00261893
0.00260675
0.00259495
0.00258307
0.00256942
0.00255421
0.00253807
0.00252107
0.00250767
0.00249395
0.00248245
0.00247229
0.00246308
0.00245374
0.0024447
0.00243486
0.00242487
0.00241413
0.00240328
0.00239207
0.00238066
0.00236877
0.00235696
0.00234511
0.0023337
0.00232247
0.00231174
0.00230079
0.00229024
0.00227977
0.00226983
0.00226021
0.00225118
0.00224242
0.00223429
0.00222581
0.00221784
0.00220955
0.00220168
0.00219391
0.00218641
0.00217885
0.00217099
0.00216278
0.00215373
0.00214424
0.00213448
0.00212452
0.00211434
0.00210542
0.00209655
0.00208826
0.00208035
0.00207326
0.00206663
0.00206068
0.00205483
0.0020494
0.00204391
0.00203833
0.00203257
0.00202644
0.0020197
0.00201277
0.00200552
0.00199794
0.00199079
0.00198361
0.00197688
0.00197045
0.00196479
0.00195941
0.00195464
0.00195008
0.00194613
0.00194205
0.00193812
0.00193391
0.00192954
0.00192486
0.00191976
0.00191444
0.00190901
0.00190356
0.00189832
0.00189314
0.00188851
0.00188417
0.00188031
0.00187682
0.00187388
0.00187098
0.00186836
0.0018655
0.00186277
0.00185961
0.0018557
0.00185186
0.00184806
0.00184413
0.00184018
0.00183641
0.00183284
0.00182976
0.0018269
0.00182433
0.00182203
0.00182012
0.00181819
0.00181664
0.00181466
0.00181217
0.00180983
0.00180725
0.00180453
0.00180178
0.00179909
0.00179645
0.00179397
0.0017918
0.00178989
0.00178812
0.00178663
0.00178524
0.00178401
0.00178285
0.00178063
1.67924e-06
7.932e-06
1.00608e-05
8.2793e-06
1.16536e-05
1.80347e-05
2.93669e-05
5.0096e-05
8.70947e-05
0.000142165
0.000214609
0.000293916
0.000373056
0.00044665
0.000512884
0.000572518
0.000624374
0.000671412
0.000715303
0.000756878
0.000797334
0.000837277
0.000877406
0.000917953
0.000959172
0.00100125
0.00104416
0.00108812
0.00113284
0.00117861
0.0012247
0.00127207
0.00131979
0.00136935
0.00141896
0.00146994
0.0015209
0.00157441
0.00162708
0.00168037
0.00173198
0.0017878
0.00184136
0.00189118
0.0019131
0.00193814
0.00195243
0.00196659
0.00199371
0.00202179
0.00204413
0.00206744
0.00209517
0.00213819
0.0021625
0.00219639
0.00222012
0.00226384
0.00228597
0.0023286
0.00235184
0.00240108
0.00243068
0.00247594
0.00250875
0.00254423
0.00258256
0.00261345
0.00265153
0.00268644
0.00272203
0.00276216
0.00279782
0.00283944
0.00287315
0.00290876
0.00294219
0.00297825
0.00301142
0.00304723
0.00308265
0.0031112
0.00313625
0.00313952
0.00313994
0.00314049
0.00313747
0.00313306
0.00312657
0.0031203
0.00311362
0.00310745
0.00310068
0.00309399
0.00308591
0.0030764
0.00306491
0.00305324
0.00304212
0.00303128
0.00302076
0.00301054
0.00299994
0.00298885
0.00297724
0.00296558
0.00295392
0.00294258
0.0029315
0.00292071
0.00291037
0.00290051
0.00289105
0.00288206
0.00287338
0.00286489
0.00285593
0.00284523
0.00283287
0.00281982
0.00280572
0.00279481
0.00278415
0.00277511
0.00276759
0.0027611
0.00275443
0.00274795
0.00274065
0.00273317
0.00272473
0.00271613
0.00270691
0.00269731
0.00268727
0.00267727
0.00266713
0.00265736
0.00264771
0.0026385
0.00262907
0.00261998
0.00261092
0.00260234
0.00259411
0.0025864
0.00257899
0.00257214
0.00256496
0.00255821
0.00255109
0.00254441
0.00253765
0.00253117
0.00252452
0.0025175
0.00251003
0.00250167
0.00249274
0.00248349
0.00247391
0.00246394
0.00245535
0.00244688
0.00243893
0.00243141
0.0024247
0.00241854
0.00241305
0.00240775
0.00240279
0.00239768
0.00239242
0.00238691
0.002381
0.00237432
0.0023675
0.00236025
0.00235257
0.00234532
0.00233803
0.00233127
0.00232473
0.00231904
0.00231367
0.002309
0.00230452
0.00230069
0.00229672
0.00229287
0.0022887
0.00228426
0.00227946
0.00227415
0.00226859
0.0022629
0.00225714
0.00225164
0.00224615
0.00224137
0.0022368
0.00223278
0.00222915
0.00222616
0.00222317
0.0022205
0.00221753
0.00221466
0.00221141
0.00220724
0.00220302
0.00219888
0.00219466
0.00219037
0.00218631
0.00218248
0.0021792
0.00217615
0.00217347
0.00217101
0.00216906
0.00216705
0.00216541
0.00216341
0.00216076
0.00215819
0.00215541
0.00215247
0.00214946
0.00214656
0.00214373
0.00214108
0.0021388
0.00213681
0.002135
0.0021335
0.00213212
0.0021309
0.00212972
0.00212738
1.85254e-06
1.21281e-05
1.47725e-05
1.37058e-05
2.03226e-05
3.18384e-05
5.23259e-05
9.02238e-05
0.000147758
0.000223235
0.000307475
0.000393868
0.000476349
0.000551932
0.000621156
0.000681397
0.000735031
0.000784168
0.000829858
0.000872986
0.000914633
0.00095546
0.000995923
0.00103642
0.00107707
0.00111818
0.00115958
0.00120154
0.00124359
0.00128624
0.00132861
0.00137183
0.00141464
0.00145888
0.00150261
0.00154734
0.00159109
0.0016374
0.0016801
0.0016805
0.0016866
0.00169633
0.0016989
0.0017011
0.0017142
0.00173209
0.00174024
0.00175552
0.00178038
0.00180904
0.00182574
0.00185028
0.00186385
0.00191545
0.00193564
0.00196548
0.00197457
0.0020174
0.00202899
0.00206604
0.00207934
0.00212011
0.00214109
0.00217842
0.00220286
0.0022314
0.00226026
0.00228443
0.00231469
0.00234274
0.00237448
0.00240919
0.00244333
0.00248208
0.002516
0.00255041
0.00258542
0.00262125
0.00265697
0.00269338
0.00273206
0.00276402
0.00280775
0.00283973
0.00287498
0.00291157
0.00294447
0.00297506
0.00300734
0.00303748
0.00306898
0.00309074
0.00309219
0.00309332
0.00309248
0.00308999
0.00308581
0.00308125
0.00307721
0.00307328
0.00306935
0.00306544
0.00306103
0.0030561
0.00305052
0.00304472
0.00303867
0.00303275
0.00302692
0.00302123
0.00301585
0.00301075
0.00300595
0.00300144
0.0029973
0.00299283
0.00298764
0.00298091
0.00297276
0.00296411
0.00295432
0.00294707
0.00294034
0.00293464
0.00293056
0.00292743
0.00292426
0.00292115
0.00291738
0.00291337
0.00290831
0.002903
0.0028968
0.00289011
0.00288309
0.00287601
0.00286875
0.0028617
0.00285468
0.00284802
0.0028412
0.00283463
0.00282807
0.00282193
0.00281612
0.00281078
0.00280576
0.0028012
0.00279642
0.0027919
0.00278707
0.0027826
0.00277795
0.00277345
0.00276876
0.0027636
0.00275798
0.00275148
0.00274429
0.00273679
0.00272886
0.00272033
0.00271314
0.00270631
0.0026998
0.00269378
0.00268845
0.00268383
0.00267974
0.00267594
0.00267233
0.00266854
0.00266455
0.00266019
0.00265548
0.00264987
0.00264416
0.00263791
0.00263124
0.00262496
0.00261854
0.00261272
0.00260706
0.00260224
0.00259775
0.00259398
0.00259039
0.00258743
0.00258435
0.00258138
0.00257805
0.00257436
0.00257026
0.00256555
0.00256061
0.00255551
0.00255026
0.0025453
0.00254031
0.00253614
0.00253208
0.00252862
0.00252552
0.00252313
0.00252067
0.00251856
0.0025161
0.00251368
0.00251096
0.00250719
0.00250326
0.00249941
0.00249552
0.00249153
0.00248779
0.00248429
0.00248138
0.00247866
0.00247639
0.00247426
0.00247273
0.00247111
0.00246981
0.00246826
0.00246592
0.00246358
0.00246108
0.00245839
0.0024556
0.00245294
0.00245036
0.00244796
0.00244598
0.0024443
0.00244283
0.0024417
0.00244069
0.00243984
0.00243897
0.00243703
2.10817e-06
1.62748e-05
2.03334e-05
2.12748e-05
3.29447e-05
5.17279e-05
8.62698e-05
0.00014255
0.000217458
0.000303279
0.000393806
0.000482614
0.000565705
0.000642511
0.000711018
0.000771148
0.00082541
0.000875103
0.000921102
0.000964262
0.00100546
0.00104542
0.00108441
0.001123
0.00116116
0.00119935
0.00123719
0.00127511
0.0013124
0.00134987
0.00138626
0.00142312
0.0014589
0.00149572
0.0015314
0.00153383
0.00152571
0.00152061
0.0015084
0.0014973
0.00149906
0.00150278
0.00150446
0.00151014
0.00152687
0.00155577
0.00156943
0.00158773
0.00160105
0.00163735
0.00164544
0.00167
0.00167009
0.00172272
0.00173545
0.00175619
0.00175263
0.00178314
0.00178573
0.00181131
0.00181755
0.00184472
0.00185868
0.00188345
0.00190194
0.00192218
0.00194378
0.00196493
0.00198923
0.00201457
0.00204104
0.00206878
0.00209811
0.00212616
0.00215528
0.00217858
0.00221137
0.00223775
0.00227232
0.00229939
0.00233828
0.00236136
0.00240348
0.00243795
0.00246627
0.00251327
0.00253574
0.00258328
0.0026152
0.00266048
0.00269439
0.00273894
0.00276847
0.00280993
0.00283358
0.00286811
0.00290191
0.00293995
0.0029671
0.00297238
0.00297669
0.0029806
0.00298378
0.00298633
0.00298801
0.00298925
0.00299008
0.00299088
0.00299161
0.00299228
0.00299294
0.00299376
0.00299467
0.00299572
0.00299702
0.00299734
0.00299673
0.00299504
0.00299238
0.00298913
0.00298469
0.002982
0.00297998
0.0029784
0.00297816
0.00297875
0.00297949
0.00298029
0.00298058
0.00298069
0.00297965
0.00297831
0.00297577
0.00297279
0.00296955
0.00296613
0.00296246
0.00295885
0.00295514
0.00295165
0.00294809
0.00294469
0.00294126
0.00293823
0.0029354
0.00293311
0.00293107
0.00292937
0.00292762
0.00292595
0.00292412
0.00292251
0.00292061
0.00291876
0.0029166
0.00291396
0.00291095
0.00290702
0.0029024
0.00289742
0.002892
0.00288592
0.0028809
0.00287645
0.00287217
0.00286846
0.0028653
0.00286284
0.00286081
0.00285913
0.00285756
0.00285575
0.00285374
0.00285125
0.00284843
0.00284469
0.0028407
0.00283641
0.00283157
0.00282708
0.00282234
0.0028182
0.00281424
0.00281101
0.00280808
0.00280584
0.00280379
0.00280233
0.00280077
0.00279932
0.00279748
0.00279528
0.0027925
0.00278918
0.00278558
0.00278178
0.00277776
0.00277405
0.00277029
0.00276741
0.00276454
0.00276228
0.00276031
0.00275912
0.00275776
0.00275679
0.00275539
0.002754
0.00275241
0.00274965
0.00274669
0.00274374
0.00274081
0.00273773
0.00273494
0.00273234
0.00273038
0.00272851
0.00272719
0.00272589
0.00272527
0.0027245
0.00272401
0.00272338
0.00272188
0.00272026
0.00271853
0.00271659
0.00271452
0.00271257
0.00271073
0.00270905
0.00270782
0.00270686
0.00270616
0.0027058
0.00270554
0.00270547
0.00270529
0.00270431
2.41973e-06
2.16107e-05
2.79264e-05
3.25153e-05
5.00556e-05
7.91254e-05
0.000129967
0.000201666
0.000286012
0.000377472
0.0004703
0.000559069
0.000641721
0.000717948
0.000784549
0.000843976
0.000897775
0.00094686
0.000991971
0.00103385
0.00107318
0.00111085
0.00114688
0.00118203
0.00121614
0.00124982
0.00128249
0.00131481
0.0013458
0.00137671
0.00140574
0.00143468
0.0014316
0.00141304
0.00138834
0.00136608
0.001352
0.0013419
0.00133191
0.00132745
0.00133814
0.00134971
0.0013583
0.00137126
0.00138455
0.00142771
0.00143691
0.00144691
0.00144082
0.00148123
0.00147596
0.00149537
0.00148399
0.00151962
0.00152135
0.00154391
0.00153825
0.00155682
0.00155928
0.0015792
0.00158777
0.00160524
0.00162277
0.00163848
0.00165943
0.00167542
0.00169774
0.00171684
0.0017381
0.001764
0.00178355
0.00181111
0.00183325
0.00185561
0.00188315
0.00189423
0.00193049
0.00194483
0.00198079
0.00199653
0.00203345
0.00204772
0.00208413
0.00210838
0.00213187
0.00216955
0.00218196
0.00222263
0.00225096
0.00228794
0.00231737
0.0023523
0.00238102
0.00241704
0.00244039
0.00247631
0.00251678
0.00255796
0.00259341
0.0026308
0.00265988
0.0026915
0.00272025
0.00275035
0.00278052
0.00280322
0.00281341
0.00282296
0.00283198
0.00284069
0.00284893
0.00285728
0.00286532
0.00287331
0.00288111
0.00288752
0.00289266
0.00289719
0.00290128
0.00290451
0.00290671
0.0029098
0.00291348
0.00291688
0.00292112
0.00292603
0.00293127
0.00293661
0.00294158
0.00294646
0.0029501
0.0029535
0.00295543
0.00295691
0.00295812
0.00295902
0.00295967
0.00296009
0.00296027
0.00296053
0.00296073
0.00296102
0.00296125
0.00296175
0.00296247
0.00296361
0.00296493
0.00296653
0.00296812
0.00296985
0.00297142
0.00297313
0.00297445
0.00297569
0.00297653
0.00297687
0.00297689
0.00297599
0.00297454
0.0029726
0.00297033
0.00296734
0.00296512
0.00296349
0.00296205
0.00296105
0.00296058
0.00296071
0.00296122
0.00296207
0.00296298
0.00296363
0.00296407
0.00296396
0.0029635
0.00296219
0.00296047
0.00295873
0.00295633
0.00295418
0.00295174
0.00294992
0.00294821
0.00294706
0.00294618
0.00294598
0.00294592
0.0029464
0.00294682
0.00294737
0.00294753
0.0029473
0.00294645
0.00294509
0.00294337
0.00294144
0.00293924
0.00293735
0.00293541
0.00293435
0.00293322
0.00293267
0.00293234
0.0029328
0.00293304
0.00293365
0.00293379
0.00293392
0.00293397
0.00293278
0.00293133
0.00292982
0.0029284
0.00292679
0.00292548
0.0029243
0.00292377
0.00292326
0.00292334
0.00292336
0.00292407
0.00292459
0.00292534
0.00292606
0.00292588
0.00292545
0.00292498
0.00292424
0.00292338
0.0029226
0.00292196
0.00292144
0.00292139
0.00292158
0.00292203
0.00292285
0.00292372
0.00292481
0.0029257
0.00292628
2.75134e-06
2.77406e-05
3.44038e-05
4.6996e-05
7.23919e-05
0.000113983
0.000179549
0.000259786
0.000349599
0.000443385
0.000536074
0.000623553
0.00070537
0.000779074
0.000843777
0.000901885
0.000954348
0.00100184
0.00104495
0.00108436
0.00112062
0.00115466
0.00118639
0.00121673
0.00124543
0.00127325
0.00129941
0.00132501
0.00134871
0.00136919
0.00133831
0.00130447
0.001272
0.00124595
0.0012221
0.00120455
0.00120121
0.00119889
0.00120049
0.00120117
0.00121509
0.00123843
0.00124808
0.00126349
0.00126097
0.00131169
0.0013098
0.0013064
0.00128061
0.00131521
0.0013042
0.00132867
0.0013214
0.00133926
0.00134011
0.00136645
0.00136931
0.00137116
0.00138073
0.00138781
0.00140832
0.00141327
0.00143554
0.0014432
0.00146864
0.00147949
0.00150617
0.00151707
0.00154143
0.00156445
0.00157761
0.00161303
0.00162047
0.00164888
0.00167457
0.00168667
0.00171588
0.00173088
0.00174434
0.00176246
0.00178106
0.00179963
0.00182338
0.00184648
0.00187118
0.00189911
0.00192414
0.00195203
0.00197701
0.00199992
0.00202277
0.002042
0.00206329
0.00208134
0.00210043
0.00212537
0.00215863
0.00218723
0.00221884
0.00224757
0.00227509
0.00230287
0.00233127
0.00236235
0.00239522
0.00242823
0.00246043
0.00249279
0.00252348
0.00255357
0.0025762
0.00259495
0.00261265
0.00262981
0.00264614
0.00266056
0.00267366
0.00268609
0.00269851
0.00271023
0.00272087
0.00273161
0.00274229
0.0027521
0.00276194
0.00277232
0.00278299
0.00279383
0.00280441
0.002815
0.00282436
0.00283346
0.00284082
0.00284784
0.00285439
0.00286069
0.00286638
0.00287183
0.00287671
0.00288153
0.00288615
0.00289082
0.00289531
0.00289998
0.0029047
0.00290975
0.00291489
0.00292029
0.00292569
0.00293127
0.00293668
0.0029422
0.00294717
0.00295193
0.00295618
0.00295995
0.00296342
0.00296594
0.00296812
0.00296975
0.0029711
0.00297174
0.00297278
0.00297436
0.00297612
0.00297826
0.00298081
0.00298382
0.00298723
0.00299095
0.00299467
0.00299813
0.00300134
0.00300405
0.00300626
0.00300774
0.00300876
0.00300992
0.00301043
0.00301104
0.00301136
0.0030123
0.00301324
0.00301459
0.00301617
0.00301827
0.00302055
0.00302328
0.00302597
0.00302888
0.00303134
0.00303348
0.00303501
0.00303602
0.00303661
0.00303699
0.00303707
0.00303742
0.00303774
0.00303887
0.00303991
0.00304146
0.00304319
0.0030456
0.00304782
0.00305033
0.00305239
0.00305441
0.00305646
0.00305731
0.00305784
0.00305822
0.00305872
0.00305904
0.00305965
0.00306033
0.00306164
0.0030629
0.00306475
0.00306649
0.00306886
0.00307106
0.00307339
0.00307581
0.0030774
0.00307856
0.00307976
0.00308064
0.00308141
0.00308221
0.00308317
0.00308422
0.00308572
0.00308744
0.00308941
0.00309174
0.00309408
0.00309667
0.003099
0.00310167
3.0628e-06
3.45854e-05
4.39035e-05
6.47816e-05
9.93077e-05
0.000153969
0.000228555
0.000314158
0.000406209
0.000500167
0.000591317
0.000676882
0.000756989
0.000827706
0.000890373
0.000946574
0.000996916
0.00104187
0.00108191
0.0011177
0.00114962
0.00117871
0.00120481
0.00122905
0.00125101
0.00127184
0.0012906
0.00129977
0.00126277
0.00122143
0.00117828
0.00114172
0.00111693
0.001101
0.00109092
0.00108331
0.00108859
0.00109165
0.00109972
0.00110697
0.00111784
0.00115502
0.00115406
0.00116556
0.00114409
0.00118094
0.00117344
0.00118004
0.00115701
0.00117618
0.00117039
0.00119335
0.00119734
0.00118695
0.00119073
0.00119756
0.00121468
0.00119721
0.00121505
0.00120635
0.00123656
0.00122423
0.00124936
0.00124213
0.00127623
0.00127128
0.00127034
0.00126709
0.00126167
0.0012603
0.00126183
0.00126152
0.00126532
0.00126757
0.00127461
0.0012814
0.00128768
0.00129637
0.00130486
0.00131633
0.00132987
0.00134159
0.00135721
0.00137199
0.00138952
0.00140921
0.0014274
0.00145014
0.00147309
0.00149843
0.0015248
0.00155202
0.00158004
0.00160968
0.00163918
0.00167071
0.00170479
0.00173921
0.00177452
0.00180872
0.00184339
0.00187633
0.00191038
0.00194452
0.00197904
0.00201315
0.00204672
0.00207961
0.00211196
0.00214343
0.00217418
0.00220371
0.00223219
0.00225951
0.00228554
0.00230951
0.0023326
0.00235501
0.00237761
0.00239986
0.00242091
0.00244145
0.00246093
0.00247882
0.00249609
0.00251353
0.00253093
0.00254863
0.00256603
0.00258366
0.00260003
0.00261618
0.00263056
0.00264448
0.00265778
0.00267069
0.00268276
0.00269435
0.00270513
0.00271569
0.00272572
0.00273579
0.00274541
0.00275509
0.0027646
0.00277431
0.00278394
0.0027939
0.00280376
0.00281393
0.00282376
0.00283377
0.00284288
0.00285188
0.00286006
0.00286786
0.00287527
0.0028819
0.00288812
0.00289392
0.0028994
0.00290424
0.00290917
0.00291436
0.00291976
0.00292539
0.00293136
0.00293763
0.00294428
0.00295111
0.00295801
0.00296455
0.00297098
0.00297672
0.00298204
0.00298664
0.00299075
0.00299514
0.00299892
0.00300268
0.00300616
0.00301022
0.00301415
0.00301836
0.00302267
0.00302738
0.0030322
0.00303742
0.00304259
0.0030481
0.00305314
0.00305796
0.00306216
0.00306589
0.00306913
0.00307215
0.00307485
0.00307778
0.00308068
0.00308429
0.00308781
0.00309176
0.00309583
0.00310042
0.00310491
0.00310953
0.00311383
0.00311798
0.00312232
0.00312555
0.00312842