/*--------------------------------*- C++ -*----------------------------------*\
| =========                 |                                                 |
| \\      /  F ield         | OpenFOAM: The Open Source CFD Toolbox           |
|  \\    /   O peration     | Version:  2312                                  |
|   \\  /    A nd           | Website:  www.openfoam.com                      |
|    \\/     M anipulation  |                                                 |
\*---------------------------------------------------------------------------*/
FoamFile
{
    version     2.0;
    format      ascii;
    arch        "LSB;label=32;scalar=64";
    class       volScalarField;
    location    "0.002";
    object      cSound;
}
// * * * * * * * * * * * * * * * * * * * * * * * * * * * * * * * * * * * * * //

dimensions      [0 1 -1 0 0 0 0];

internalField   nonuniform List<scalar> 
48128
(
381.109
381.24
381.135
381.166
381.269
381.377
381.541
381.644
381.453
380.617
378.006
376.756
376.101
375.559
375.062
374.224
373.492
372.8
372.151
371.551
371.018
370.501
370.011
369.558
369.15
368.792
368.492
368.266
368.118
368.036
368.011
368.077
368.227
368.444
368.729
369.076
369.482
369.939
370.414
370.931
371.449
371.993
372.536
373.059
373.578
374.063
374.53
374.946
375.3
375.614
375.862
376.068
376.187
376.256
376.243
376.168
376.026
375.822
375.558
375.238
374.867
374.451
373.992
373.495
372.957
372.379
371.771
371.131
370.467
369.785
369.068
368.344
367.592
366.845
366.071
365.301
364.514
363.73
362.961
362.202
361.462
360.734
360.008
359.321
358.636
357.963
357.299
356.631
355.961
355.325
354.7
354.123
353.567
353.036
352.526
352.008
351.481
350.986
350.515
350.083
349.686
349.307
348.937
348.569
348.212
347.87
347.544
347.236
346.947
346.674
346.422
346.188
345.971
345.772
345.584
345.418
345.247
345.063
344.87
344.658
344.41
344.325
344.182
344.131
344.105
344.059
344
343.929
343.848
343.757
343.659
343.556
343.451
343.348
343.241
343.148
343.059
342.985
342.932
342.891
342.852
342.817
342.787
342.76
342.743
342.735
342.732
342.736
342.736
342.736
342.735
342.739
342.747
342.757
342.765
342.774
342.772
342.767
342.755
342.743
342.723
342.717
342.73
342.743
342.762
342.795
342.831
342.877
342.928
342.975
343.021
343.068
343.101
343.135
343.147
343.16
343.16
343.155
343.147
343.15
343.156
343.17
343.19
343.225
343.267
343.313
343.362
343.415
343.463
343.503
343.537
343.558
343.583
343.583
343.591
343.589
343.594
343.605
343.622
343.647
343.677
343.715
343.762
343.814
343.863
343.909
343.948
343.983
344.026
344.021
344.03
344.043
344.051
344.063
344.082
344.106
344.137
344.174
344.214
344.257
344.305
344.345
344.387
344.424
344.436
344.452
344.471
344.474
344.482
344.495
344.513
344.537
344.566
344.6
344.638
344.68
344.724
344.77
344.813
344.867
380.744
380.958
380.916
380.969
381.122
381.313
381.564
381.51
380.588
378.805
376.86
375.529
374.428
373.176
371.924
370.894
369.984
369.191
368.514
367.941
367.475
367.068
366.717
366.434
366.222
366.086
366.025
366.016
366.11
366.283
366.532
366.869
367.27
367.736
368.254
368.822
369.421
370.059
370.705
371.354
371.992
372.614
373.214
373.766
374.269
374.72
375.116
375.44
375.673
375.837
375.902
375.892
375.78
375.6
375.323
374.962
374.521
373.997
373.397
372.724
371.99
371.201
370.361
369.476
368.546
367.576
366.573
365.532
364.471
363.4
362.31
361.236
360.142
359.07
357.976
356.896
355.805
354.733
353.68
352.65
351.651
350.663
349.696
348.766
347.853
346.96
346.08
345.202
344.33
343.489
342.665
341.892
341.145
340.43
339.734
339.042
338.336
337.665
337.022
336.419
335.856
335.314
334.785
334.262
333.751
333.258
332.785
332.332
331.899
331.485
331.093
330.722
330.369
330.036
329.715
329.42
329.121
328.812
328.494
328.16
327.785
327.577
327.32
327.143
327.017
326.879
326.736
326.585
326.425
326.258
326.083
325.904
325.721
325.535
325.345
325.165
324.987
324.825
324.684
324.559
324.441
324.332
324.231
324.142
324.061
323.987
323.914
323.848
323.778
323.707
323.633
323.564
323.5
323.441
323.38
323.317
323.251
323.18
323.105
323.029
322.951
322.869
322.829
322.786
322.741
322.724
322.703
322.702
322.703
322.703
322.706
322.707
322.704
322.699
322.685
322.669
322.646
322.617
322.582
322.556
322.532
322.518
322.507
322.514
322.53
322.55
322.576
322.607
322.64
322.666
322.687
322.697
322.712
322.703
322.704
322.696
322.695
322.696
322.704
322.718
322.738
322.765
322.802
322.846
322.89
322.935
322.975
323.013
323.066
323.066
323.077
323.095
323.105
323.12
323.14
323.166
323.198
323.236
323.279
323.326
323.379
323.429
323.481
323.536
323.561
323.59
323.623
323.637
323.655
323.677
323.703
323.734
323.769
323.81
323.855
323.905
323.959
324.014
324.071
324.149
380.546
380.811
380.868
380.959
381.164
381.409
381.405
380.503
378.442
376.318
374.729
373.441
372.401
371.635
370.936
370.242
369.66
369.152
368.697
368.317
368.027
367.77
367.564
367.415
367.325
367.296
367.328
367.436
367.624
367.883
368.209
368.603
369.048
369.546
370.078
370.644
371.227
371.825
372.418
372.992
373.535
374.043
374.507
374.91
375.236
375.495
375.678
375.782
375.777
375.688
375.486
375.204
374.817
374.351
373.783
373.124
372.389
371.568
370.677
369.714
368.701
367.638
366.535
365.394
364.216
363.01
361.783
360.527
359.269
358.004
356.743
355.503
354.26
353.047
351.82
350.615
349.41
348.234
347.084
345.967
344.888
343.822
342.791
341.796
340.829
339.887
338.962
338.04
337.13
336.253
335.396
334.59
333.81
333.062
332.334
331.613
330.88
330.185
329.518
328.891
328.302
327.732
327.175
326.625
326.089
325.57
325.072
324.595
324.138
323.701
323.282
322.884
322.503
322.139
321.788
321.46
321.127
320.785
320.435
320.074
319.675
319.434
319.155
318.935
318.777
318.61
318.438
318.262
318.079
317.889
317.692
317.491
317.287
317.079
316.868
316.663
316.46
316.271
316.101
315.945
315.798
315.661
315.533
315.419
315.316
315.222
315.131
315.046
314.957
314.866
314.772
314.682
314.596
314.513
314.429
314.343
314.253
314.161
314.064
313.967
313.87
313.768
313.706
313.644
313.578
313.542
313.502
313.482
313.464
313.445
313.428
313.41
313.389
313.366
313.337
313.306
313.271
313.231
313.185
313.149
313.112
313.087
313.057
313.055
313.058
313.066
313.081
313.101
313.122
313.14
313.153
313.157
313.16
313.15
313.145
313.134
313.127
313.124
313.127
313.135
313.15
313.171
313.202
313.24
313.279
313.319
313.357
313.394
313.445
313.448
313.461
313.48
313.492
313.508
313.528
313.554
313.585
313.622
313.665
313.712
313.765
313.818
313.873
313.93
313.962
313.997
314.036
314.056
314.08
314.106
314.136
314.169
314.207
314.251
314.298
314.35
314.406
314.464
314.524
314.609
380.427
380.77
381.01
381.099
381.312
381.268
380.454
378.368
376.059
374.42
373.262
372.465
371.883
371.442
371.05
370.58
370.165
369.807
369.493
369.234
369.047
368.882
368.758
368.683
368.658
368.689
368.787
368.95
369.179
369.472
369.818
370.222
370.665
371.151
371.658
372.185
372.713
373.238
373.743
374.212
374.627
374.989
375.287
375.511
375.635
375.673
375.603
375.453
375.177
374.807
374.306
373.717
373.022
372.242
371.356
370.373
369.326
368.189
366.994
365.731
364.436
363.1
361.741
360.358
358.949
357.532
356.109
354.668
353.251
351.841
350.458
349.11
347.773
346.479
345.178
343.91
342.65
341.435
340.25
339.112
338.016
336.935
335.901
334.909
333.951
333.029
332.123
331.222
330.338
329.488
328.66
327.88
327.127
326.408
325.707
325.014
324.311
323.651
323.018
322.422
321.862
321.318
320.785
320.26
319.749
319.255
318.781
318.328
317.894
317.479
317.08
316.7
316.337
315.986
315.651
315.33
315.004
314.671
314.328
313.978
313.595
313.358
313.093
312.867
312.712
312.548
312.381
312.21
312.033
311.85
311.66
311.465
311.266
311.063
310.857
310.655
310.453
310.265
310.092
309.932
309.781
309.64
309.509
309.391
309.286
309.191
309.101
309.017
308.929
308.838
308.744
308.655
308.566
308.479
308.391
308.301
308.207
308.11
308.01
307.909
307.809
307.705
307.638
307.572
307.504
307.464
307.42
307.397
307.375
307.35
307.328
307.303
307.275
307.246
307.212
307.176
307.138
307.095
307.047
307.009
306.97
306.94
306.906
306.897
306.897
306.901
306.911
306.927
306.942
306.958
306.968
306.97
306.969
306.958
306.951
306.938
306.93
306.925
306.928
306.934
306.946
306.965
306.994
307.029
307.065
307.102
307.138
307.175
307.223
307.23
307.244
307.264
307.278
307.296
307.317
307.343
307.375
307.412
307.454
307.502
307.555
307.609
307.665
307.723
307.759
307.798
307.841
307.866
307.894
307.924
307.956
307.992
308.033
308.078
308.127
308.181
308.238
308.297
308.358
308.445
380.344
380.794
381.17
381.27
381.192
380.454
378.534
376.15
374.5
373.41
372.719
372.266
371.963
371.673
371.427
371.116
370.844
370.602
370.386
370.21
370.091
369.989
369.922
369.897
369.919
369.997
370.133
370.328
370.579
370.886
371.238
371.637
372.063
372.52
372.985
373.45
373.897
374.322
374.708
375.038
375.287
375.465
375.546
375.54
375.402
375.163
374.778
374.301
373.68
372.954
372.076
371.103
370.026
368.857
367.578
366.202
364.781
363.265
361.717
360.111
358.501
356.872
355.242
353.618
351.981
350.365
348.767
347.168
345.63
344.112
342.648
341.237
339.85
338.528
337.202
335.927
334.668
333.47
332.308
331.207
330.153
329.116
328.139
327.209
326.317
325.467
324.633
323.8
322.988
322.211
321.454
320.744
320.062
319.413
318.783
318.159
317.528
316.942
316.379
315.852
315.353
314.869
314.396
313.93
313.477
313.04
312.621
312.22
311.837
311.474
311.124
310.789
310.471
310.161
309.868
309.579
309.285
308.986
308.674
308.363
308.02
307.808
307.579
307.369
307.234
307.092
306.948
306.801
306.649
306.49
306.325
306.154
305.978
305.796
305.612
305.43
305.246
305.074
304.914
304.765
304.625
304.494
304.374
304.266
304.171
304.087
304.009
303.936
303.861
303.783
303.701
303.623
303.544
303.464
303.383
303.3
303.212
303.122
303.029
302.934
302.84
302.744
302.679
302.62
302.56
302.524
302.485
302.466
302.448
302.429
302.408
302.385
302.359
302.331
302.298
302.264
302.228
302.189
302.145
302.11
302.075
302.047
302.016
302.006
302.006
302.01
302.02
302.036
302.052
302.069
302.08
302.084
302.084
302.074
302.068
302.056
302.05
302.047
302.051
302.059
302.072
302.091
302.12
302.154
302.19
302.227
302.262
302.301
302.346
302.357
302.375
302.397
302.414
302.434
302.458
302.486
302.519
302.557
302.601
302.649
302.703
302.758
302.816
302.875
302.915
302.958
303.004
303.033
303.065
303.099
303.134
303.174
303.217
303.264
303.316
303.371
303.429
303.49
303.552
303.641
380.286
380.836
381.224
381.142
380.557
378.878
376.547
374.804
373.691
373.031
372.646
372.398
372.218
372.045
371.904
371.711
371.54
371.381
371.238
371.125
371.058
371.008
370.988
371.006
371.068
371.182
371.346
371.563
371.826
372.138
372.483
372.862
373.254
373.657
374.053
374.426
374.756
375.039
375.256
375.397
375.417
375.336
375.116
374.79
374.293
373.668
372.851
371.919
370.829
369.613
368.227
366.737
365.153
363.48
361.684
359.812
357.902
355.937
353.947
351.958
349.966
348.042
346.115
344.27
342.413
340.628
338.892
337.175
335.58
334.011
332.531
331.128
329.759
328.496
327.218
326.022
324.849
323.758
322.703
321.727
320.799
319.891
319.057
318.257
317.5
316.783
316.085
315.379
314.696
314.043
313.41
312.82
312.259
311.727
311.211
310.697
310.178
309.703
309.243
308.817
308.413
308.022
307.64
307.265
306.9
306.547
306.209
305.887
305.582
305.295
305.017
304.752
304.501
304.255
304.024
303.789
303.548
303.305
303.046
302.794
302.516
302.344
302.167
301.994
301.891
301.786
301.679
301.571
301.459
301.34
301.215
301.082
300.942
300.797
300.649
300.5
300.348
300.206
300.072
299.947
299.831
299.722
299.624
299.537
299.462
299.4
299.342
299.29
299.235
299.179
299.12
299.062
299.001
298.938
298.873
298.804
298.732
298.656
298.578
298.496
298.417
298.336
298.281
298.236
298.189
298.164
298.138
298.129
298.122
298.112
298.101
298.087
298.068
298.047
298.021
297.994
297.965
297.935
297.901
297.875
297.848
297.828
297.805
297.8
297.803
297.811
297.825
297.845
297.866
297.887
297.904
297.912
297.92
297.912
297.912
297.905
297.903
297.905
297.912
297.925
297.942
297.965
297.996
298.033
298.07
298.108
298.146
298.187
298.232
298.25
298.273
298.298
298.32
298.344
298.372
298.403
298.439
298.48
298.526
298.576
298.632
298.689
298.75
298.809
298.856
298.903
298.952
298.987
299.023
299.061
299.101
299.144
299.191
299.241
299.295
299.353
299.414
299.476
299.54
299.631
380.251
380.781
381.022
380.609
379.323
377.131
375.269
374.055
373.361
372.985
372.763
372.632
372.556
372.473
372.4
372.291
372.192
372.098
372.016
371.956
371.935
371.931
371.95
372.006
372.101
372.241
372.424
372.651
372.915
373.215
373.535
373.871
374.2
374.518
374.804
375.041
375.199
375.277
375.241
375.101
374.785
374.331
373.671
372.862
371.828
370.622
369.165
367.565
365.807
363.89
361.786
359.589
357.288
355.006
352.564
350.106
347.553
345.134
342.614
340.254
337.812
335.644
333.405
331.393
329.344
327.445
325.628
323.867
322.292
320.758
319.371
318.082
316.848
315.763
314.651
313.655
312.686
311.815
310.981
310.239
309.545
308.869
308.287
307.705
307.166
306.664
306.189
305.686
305.21
304.754
304.318
303.913
303.529
303.164
302.814
302.455
302.092
301.767
301.45
301.164
300.89
300.625
300.365
300.11
299.86
299.617
299.386
299.167
298.963
298.774
298.588
298.414
298.251
298.089
297.936
297.775
297.607
297.44
297.251
297.077
296.883
296.762
296.656
296.541
296.478
296.421
296.364
296.305
296.247
296.178
296.107
296.024
295.934
295.837
295.736
295.633
295.525
295.425
295.328
295.237
295.155
295.079
295.012
294.955
294.91
294.877
294.848
294.824
294.798
294.772
294.742
294.713
294.679
294.641
294.599
294.553
294.502
294.447
294.392
294.332
294.274
294.216
294.177
294.151
294.125
294.115
294.108
294.112
294.122
294.127
294.133
294.131
294.126
294.119
294.104
294.09
294.072
294.058
294.037
294.024
294.011
294.003
293.993
293.997
294.008
294.024
294.046
294.073
294.102
294.132
294.158
294.175
294.194
294.192
294.2
294.2
294.206
294.215
294.231
294.251
294.276
294.304
294.341
294.382
294.425
294.467
294.508
294.554
294.601
294.628
294.657
294.687
294.717
294.747
294.78
294.817
294.858
294.903
294.952
295.006
295.065
295.126
295.191
295.252
295.306
295.357
295.411
295.452
295.495
295.538
295.583
295.631
295.682
295.736
295.794
295.856
295.92
295.985
296.051
296.145
380.219
380.515
380.564
379.698
377.824
375.886
374.517
373.718
373.297
373.078
372.972
372.924
372.918
372.898
372.877
372.831
372.787
372.746
372.715
372.702
372.718
372.751
372.803
372.888
373.005
373.161
373.35
373.573
373.817
374.083
374.35
374.609
374.834
375.018
375.132
375.163
375.053
374.82
374.393
373.8
372.952
371.899
370.554
368.99
367.166
365.126
362.783
360.3
357.637
354.851
351.838
348.818
345.595
342.727
339.606
336.559
333.303
330.509
327.472
324.822
321.976
319.651
317.183
315.096
312.95
311.04
309.239
307.537
306.053
304.633
303.425
302.316
301.329
300.482
299.646
298.92
298.247
297.668
297.151
296.705
296.336
295.956
295.713
295.445
295.184
295
294.804
294.601
294.395
294.228
294.055
293.918
293.763
293.637
293.499
293.353
293.194
293.079
292.951
292.845
292.736
292.628
292.521
292.413
292.305
292.2
292.1
292.008
291.925
291.854
291.779
291.714
291.654
291.595
291.539
291.469
291.387
291.311
291.206
291.131
291.037
290.983
290.958
290.912
290.902
290.902
290.902
290.904
290.907
290.901
290.893
290.873
290.841
290.802
290.759
290.712
290.659
290.61
290.559
290.513
290.473
290.439
290.412
290.393
290.386
290.388
290.394
290.405
290.413
290.428
290.43
290.44
290.437
290.432
290.42
290.402
290.381
290.351
290.329
290.294
290.266
290.237
290.219
290.217
290.217
290.226
290.24
290.265
290.297
290.323
290.351
290.366
290.38
290.388
290.39
290.396
290.391
290.399
290.395
290.398
290.404
290.415
290.421
290.436
290.459
290.487
290.52
290.559
290.598
290.64
290.68
290.708
290.741
290.75
290.768
290.78
290.796
290.816
290.843
290.873
290.908
290.946
290.99
291.039
291.088
291.137
291.185
291.236
291.289
291.329
291.364
291.402
291.44
291.479
291.52
291.564
291.611
291.662
291.717
291.777
291.841
291.906
291.975
292.041
292.104
292.16
292.219
292.269
292.318
292.368
292.419
292.473
292.529
292.589
292.652
292.718
292.786
292.855
292.925
293.024
380.149
380.139
379.886
378.544
376.627
375.104
374.139
373.617
373.363
373.252
373.221
373.234
373.274
373.298
373.315
373.319
373.32
373.323
373.332
373.355
373.401
373.463
373.539
373.641
373.768
373.924
374.101
374.297
374.496
374.694
374.865
375
375.058
375.032
374.863
374.552
374.002
373.251
372.186
370.867
369.217
367.265
364.951
362.361
359.479
356.448
353.052
349.558
345.759
342.145
338.168
334.408
330.225
326.932
323.216
319.751
315.913
312.843
309.413
306.661
303.617
301.294
298.816
296.782
294.76
292.99
291.363
289.908
288.627
287.511
286.556
285.712
285.037
284.418
283.914
283.4
283.08
282.724
282.565
282.331
282.323
282.144
282.239
282.265
282.218
282.402
282.379
282.552
282.588
282.758
282.829
283.006
283.087
283.261
283.333
283.461
283.546
283.691
283.782
283.9
283.978
284.061
284.132
284.201
284.264
284.323
284.376
284.43
284.485
284.548
284.6
284.66
284.72
284.775
284.836
284.866
284.878
284.901
284.905
284.943
284.956
284.99
285.045
285.078
285.133
285.195
285.261
285.333
285.401
285.473
285.531
285.589
285.616
285.646
285.668
285.685
285.695
285.705
285.709
285.715
285.725
285.74
285.76
285.787
285.822
285.865
285.911
285.964
286.014
286.071
286.115
286.167
286.2
286.234
286.256
286.272
286.286
286.29
286.303
286.302
286.311
286.312
286.324
286.348
286.375
286.412
286.452
286.501
286.558
286.609
286.661
286.7
286.737
286.766
286.79
286.816
286.832
286.861
286.88
286.904
286.932
286.964
286.99
287.022
287.06
287.104
287.151
287.203
287.257
287.313
287.368
287.412
287.46
287.485
287.516
287.543
287.572
287.607
287.646
287.689
287.737
287.786
287.841
287.9
287.958
288.016
288.072
288.132
288.192
288.247
288.291
288.338
288.386
288.436
288.487
288.54
288.595
288.654
288.717
288.784
288.854
288.926
289.001
289.073
289.145
289.208
289.273
289.333
289.39
289.447
289.506
289.567
289.631
289.697
289.766
289.838
289.912
289.986
290.06
290.165
380.083
379.693
379.094
377.434
375.83
374.67
373.986
373.651
373.503
373.46
373.481
373.54
373.607
373.664
373.712
373.751
373.787
373.824
373.864
373.913
373.98
374.059
374.146
374.252
374.372
374.508
374.648
374.786
374.9
374.983
374.996
374.925
374.694
374.307
373.657
372.771
371.522
369.96
367.961
365.607
362.883
359.783
356.288
352.534
348.375
344.455
340.031
335.495
330.442
326.264
321.437
317.194
312.242
308.718
304.615
301.104
297.101
294.041
290.637
288.033
285.2
283.026
280.927
279.074
277.454
275.962
274.725
273.611
272.634
271.944
271.204
270.734
270.311
269.923
269.781
269.332
269.415
269.152
269.329
269.19
269.458
269.387
269.683
269.876
270
270.381
270.477
270.855
271.088
271.444
271.717
272.07
272.348
272.698
272.954
273.277
273.582
273.927
274.225
274.545
274.816
275.092
275.348
275.604
275.851
276.089
276.308
276.523
276.73
276.94
277.131
277.325
277.511
277.692
277.865
278.008
278.13
278.256
278.384
278.533
278.662
278.794
278.942
279.054
279.179
279.315
279.453
279.598
279.74
279.889
280.022
280.158
280.256
280.36
280.453
280.54
280.619
280.693
280.757
280.822
280.888
280.958
281.031
281.109
281.192
281.28
281.372
281.469
281.565
281.668
281.76
281.857
281.932
282.008
282.069
282.124
282.178
282.222
282.273
282.311
282.358
282.397
282.443
282.497
282.556
282.622
282.693
282.77
282.854
282.933
283.013
283.08
283.143
283.196
283.245
283.295
283.337
283.39
283.435
283.484
283.537
283.592
283.641
283.693
283.751
283.813
283.878
283.945
284.016
284.089
284.162
284.224
284.289
284.333
284.38
284.424
284.471
284.521
284.576
284.635
284.698
284.761
284.828
284.899
284.969
285.038
285.104
285.175
285.244
285.315
285.37
285.429
285.489
285.551
285.613
285.677
285.743
285.812
285.884
285.959
286.037
286.117
286.199
286.279
286.362
286.432
286.506
286.577
286.643
286.709
286.777
286.846
286.918
286.991
287.068
287.147
287.228
287.308
287.388
287.501
379.944
379.215
378.289
376.679
375.342
374.457
373.987
373.751
373.677
373.677
373.739
373.824
373.911
373.99
374.061
374.126
374.187
374.247
374.307
374.373
374.449
374.532
374.616
374.708
374.799
374.888
374.954
374.992
374.962
374.851
374.579
374.143
373.417
372.431
371.032
369.273
367.043
364.364
361.179
357.551
353.544
349.297
344.569
339.69
334.148
329.579
324.265
318.941
312.787
308.343
302.972
298.746
293.685
290.129
286.046
282.798
279.192
276.273
273.44
271.035
268.953
266.999
265.546
263.973
263.022
261.804
261.156
260.305
259.765
259.445
258.869
258.851
258.494
258.413
258.478
258.16
258.505
258.282
258.645
258.553
258.955
258.939
259.34
259.524
259.769
260.197
260.326
260.781
261.074
261.498
261.827
262.251
262.585
263.008
263.338
263.751
264.158
264.604
265.017
265.447
265.837
266.238
266.622
267.015
267.402
267.783
268.147
268.508
268.856
269.202
269.527
269.851
270.157
270.461
270.739
270.992
271.227
271.464
271.712
271.975
272.222
272.456
272.697
272.889
273.092
273.303
273.517
273.738
273.955
274.183
274.391
274.609
274.782
274.961
275.131
275.291
275.442
275.585
275.714
275.84
275.968
276.096
276.226
276.358
276.493
276.631
276.77
276.915
277.061
277.211
277.353
277.499
277.619
277.74
277.844
277.943
278.04
278.127
278.218
278.301
278.389
278.469
278.551
278.641
278.735
278.834
278.936
279.044
279.157
279.268
279.378
279.474
279.567
279.648
279.725
279.801
279.872
279.951
280.026
280.104
280.183
280.264
280.339
280.414
280.494
280.576
280.661
280.747
280.836
280.928
281.021
281.104
281.189
281.253
281.32
281.383
281.449
281.517
281.59
281.666
281.747
281.826
281.908
281.992
282.076
282.158
282.237
282.319
282.401
282.488
282.557
282.629
282.703
282.778
282.854
282.931
283.009
283.089
283.172
283.257
283.345
283.433
283.523
283.613
283.707
283.787
283.869
283.953
284.029
284.106
284.184
284.263
284.343
284.426
284.511
284.598
284.687
284.774
284.861
284.984
379.771
378.8
377.612
376.164
375.072
374.401
374.034
373.888
373.857
373.894
373.98
374.082
374.182
374.275
374.361
374.441
374.517
374.59
374.66
374.731
374.804
374.875
374.938
374.993
375.024
375.029
374.971
374.837
374.543
374.083
373.321
372.281
370.801
368.929
366.509
363.581
360.124
356.137
351.657
346.739
341.331
336.133
330.255
324.49
317.694
312.644
306.687
301.142
294.747
290.17
284.84
280.882
276.348
272.817
269.396
266.349
263.772
261.052
259.163
257.063
255.905
254.191
253.618
252.221
252.128
251.016
251.157
250.356
250.502
250.205
250.171
250.386
250.086
250.436
250.279
250.522
250.883
250.67
251.175
251.076
251.564
251.559
252.023
252.072
252.396
252.77
252.843
253.3
253.5
253.899
254.145
254.54
254.804
255.194
255.465
255.86
256.239
256.667
257.067
257.491
257.885
258.301
258.708
259.134
259.565
260
260.428
260.859
261.283
261.705
262.118
262.528
262.927
263.316
263.679
264.022
264.351
264.691
265.041
265.403
265.762
266.091
266.414
266.685
266.962
267.245
267.531
267.824
268.115
268.415
268.698
268.993
269.243
269.498
269.743
269.977
270.201
270.412
270.609
270.799
270.988
271.178
271.366
271.555
271.744
271.932
272.122
272.316
272.511
272.711
272.904
273.099
273.266
273.435
273.584
273.728
273.871
274.003
274.137
274.266
274.399
274.522
274.645
274.772
274.903
275.037
275.174
275.314
275.458
275.601
275.742
275.871
275.995
276.107
276.215
276.319
276.421
276.529
276.636
276.742
276.852
276.961
277.064
277.164
277.267
277.372
277.478
277.585
277.694
277.807
277.921
278.027
278.133
278.22
278.309
278.394
278.48
278.569
278.661
278.756
278.856
278.953
279.051
279.151
279.25
279.346
279.44
279.536
279.632
279.735
279.82
279.908
279.997
280.087
280.179
280.269
280.36
280.453
280.548
280.645
280.743
280.842
280.942
281.043
281.148
281.239
281.332
281.428
281.516
281.605
281.694
281.783
281.874
281.966
282.061
282.157
282.256
282.351
282.446
282.58
379.622
378.453
377.109
375.824
374.921
374.392
374.127
374.038
374.038
374.099
374.2
374.31
374.416
374.516
374.609
374.696
374.777
374.853
374.923
374.986
375.041
375.083
375.099
375.087
375.016
374.877
374.589
374.142
373.392
372.354
370.851
368.932
366.44
363.408
359.738
355.441
350.623
345.435
339.678
333.633
326.795
320.948
314.049
307.828
300.524
295.024
288.937
283.567
277.86
273.05
268.606
264.694
261.264
257.92
255.445
252.775
251.315
248.885
248.163
246.357
246.2
244.721
245.004
243.88
244.486
243.596
244.324
243.649
244.447
244.045
244.78
244.786
245.049
245.562
245.301
246.014
246.242
246.261
246.913
246.782
247.367
247.351
247.878
247.813
248.159
248.473
248.497
248.927
248.985
249.336
249.451
249.783
249.874
250.168
250.309
250.606
250.827
251.142
251.4
251.711
251.976
252.284
252.584
252.92
253.265
253.625
253.999
254.382
254.772
255.167
255.569
255.973
256.38
256.774
257.159
257.526
257.899
258.291
258.698
259.117
259.545
259.939
260.318
260.649
260.981
261.317
261.657
262.006
262.355
262.715
263.061
263.421
263.739
264.062
264.372
264.675
264.965
265.241
265.502
265.754
266.004
266.252
266.497
266.742
266.982
267.221
267.459
267.702
267.946
268.194
268.437
268.682
268.896
269.113
269.308
269.497
269.686
269.864
270.043
270.219
270.397
270.568
270.73
270.896
271.065
271.236
271.408
271.581
271.757
271.933
272.106
272.269
272.425
272.57
272.71
272.845
272.979
273.117
273.256
273.394
273.534
273.673
273.807
273.933
274.062
274.191
274.32
274.449
274.58
274.714
274.85
274.98
275.109
275.22
275.333
275.441
275.549
275.66
275.773
275.889
276.009
276.125
276.242
276.358
276.473
276.585
276.695
276.806
276.918
277.036
277.141
277.245
277.351
277.457
277.565
277.67
277.776
277.883
277.992
278.102
278.211
278.321
278.432
278.545
278.662
278.765
278.871
278.979
279.081
279.182
279.283
279.384
279.486
279.589
279.694
279.801
279.909
280.013
280.117
280.264
379.333
378.032
376.71
375.59
374.848
374.423
374.237
374.188
374.211
374.286
374.394
374.507
374.613
374.714
374.806
374.891
374.968
375.037
375.094
375.136
375.155
375.143
375.079
374.954
374.697
374.295
373.604
372.63
371.184
369.307
366.816
363.758
360.042
355.67
350.67
345.04
338.833
332.699
325.767
318.892
310.852
304.54
297.038
290.794
283.771
277.853
272.416
267.165
262.734
257.961
254.658
250.963
248.726
245.835
244.421
242.202
241.64
239.692
240.026
238.632
239.17
238.106
239.01
238.181
239.252
238.633
239.821
239.404
240.629
240.392
241.514
241.317
242.211
242.629
242.727
243.661
243.512
244.147
244.859
244.719
245.378
245.334
245.899
245.799
246.23
246.437
246.537
246.964
246.943
247.305
247.352
247.647
247.614
247.87
247.91
248.147
248.228
248.45
248.543
248.749
248.846
249.019
249.154
249.342
249.509
249.71
249.927
250.156
250.394
250.644
250.91
251.185
251.466
251.753
252.034
252.313
252.623
252.964
253.331
253.719
254.128
254.513
254.884
255.223
255.558
255.899
256.247
256.61
256.975
257.357
257.73
258.122
258.48
258.845
259.196
259.545
259.882
260.206
260.518
260.821
261.121
261.416
261.71
262.002
262.289
262.571
262.853
263.139
263.427
263.718
264.006
264.296
264.554
264.815
265.053
265.287
265.521
265.742
265.967
266.187
266.409
266.625
266.829
267.034
267.24
267.448
267.654
267.861
268.069
268.275
268.482
268.677
268.867
269.044
269.217
269.384
269.551
269.721
269.892
270.062
270.233
270.402
270.567
270.721
270.877
271.031
271.183
271.334
271.488
271.645
271.804
271.958
272.111
272.248
272.386
272.518
272.649
272.782
272.917
273.055
273.196
273.333
273.469
273.602
273.734
273.864
273.99
274.118
274.247
274.38
274.507
274.628
274.751
274.875
274.999
275.121
275.243
275.365
275.488
275.612
275.733
275.856
275.978
276.104
276.234
276.351
276.469
276.591
276.707
276.821
276.935
277.048
277.162
277.277
277.394
277.512
277.631
277.744
277.858
278.019
379.104
377.687
376.413
375.432
374.815
374.48
374.349
374.329
374.37
374.453
374.563
374.672
374.774
374.869
374.954
375.029
375.093
375.143
375.174
375.176
375.135
375.036
374.83
374.497
373.907
373.052
371.734
369.983
367.604
364.65
360.974
356.587
351.537
345.866
339.555
332.854
325.266
318.428
310.428
303.13
294.532
287.863
280.201
274.1
267.867
262.201
257.659
252.884
249.528
245.452
243.13
239.941
238.7
236.316
235.8
234.231
233.626
233.534
233.742
233.212
234.327
233.596
235.033
234.479
236.047
235.591
237.294
236.999
238.566
238.389
239.789
239.546
240.85
240.622
241.581
242.527
242.29
243.134
243.705
243.633
244.408
244.314
244.99
244.921
245.479
245.459
245.805
246.247
246.223
246.617
246.63
246.943
246.857
247.126
247.137
247.372
247.393
247.584
247.598
247.784
247.79
247.922
247.966
248.078
248.127
248.228
248.336
248.446
248.556
248.672
248.797
248.926
249.047
249.18
249.276
249.39
249.547
249.739
249.961
250.2
250.466
250.729
250.986
251.218
251.462
251.713
251.981
252.272
252.569
252.897
253.22
253.571
253.908
254.255
254.596
254.941
255.28
255.612
255.937
256.255
256.574
256.889
257.207
257.522
257.833
258.14
258.45
258.762
259.079
259.399
259.718
260.04
260.331
260.628
260.9
261.17
261.442
261.701
261.965
262.226
262.486
262.744
262.986
263.228
263.467
263.709
263.946
264.185
264.421
264.656
264.894
265.119
265.342
265.55
265.757
265.955
266.154
266.355
266.556
266.758
266.96
267.158
267.355
267.537
267.719
267.898
268.073
268.248
268.424
268.603
268.784
268.964
269.14
269.304
269.467
269.624
269.779
269.935
270.093
270.252
270.415
270.573
270.73
270.88
271.029
271.177
271.321
271.466
271.613
271.762
271.91
272.049
272.19
272.332
272.474
272.614
272.752
272.889
273.028
273.166
273.3
273.437
273.571
273.711
273.854
273.984
274.117
274.252
274.384
274.511
274.639
274.765
274.891
275.019
275.147
275.277
275.407
275.532
275.655
275.831
378.878
377.399
376.191
375.329
374.818
374.553
374.462
374.459
374.512
374.601
374.707
374.808
374.9
374.983
375.054
375.112
375.153
375.171
375.157
375.097
374.956
374.699
374.236
373.537
372.411
370.871
368.698
365.943
362.439
358.231
353.262
347.512
341.074
334.357
326.784
319.263
310.478
303.027
294.144
286.736
278.203
271.496
264.451
258.743
253.604
248.899
245.164
241.242
238.394
235.21
233.61
231.312
230.852
229.298
229.849
228.956
229.299
229.622
229.065
230.261
231.052
230.392
232.25
231.766
233.759
233.323
235.334
235.09
236.937
236.771
238.421
238.168
239.717
239.588
240.777
241.568
241.517
242.616
242.793
243.197
244.079
243.949
244.731
244.696
245.305
245.23
245.686
246.086
246.097
246.544
246.493