/*--------------------------------*- C++ -*----------------------------------*\
| =========                 |                                                 |
| \\      /  F ield         | OpenFOAM: The Open Source CFD Toolbox           |
|  \\    /   O peration     | Version:  2312                                  |
|   \\  /    A nd           | Website:  www.openfoam.com                      |
|    \\/     M anipulation  |                                                 |
\*---------------------------------------------------------------------------*/
FoamFile
{
    version     2.0;
    format      ascii;
    arch        "LSB;label=32;scalar=64";
    class       volScalarField;
    location    "0.002";
    object      k;
}
// * * * * * * * * * * * * * * * * * * * * * * * * * * * * * * * * * * * * * //

dimensions      [0 2 -2 0 0 0 0];

internalField   nonuniform List<scalar> 
48128
(
7.3146
9.39174
12.4912
12.6502
11.6798
10.2153
8.61583
7.15125
5.58097
3.84345
10.9656
65.7737
205.11
363.3
503.119
623.993
729.026
822.445
907.812
987.411
1063.04
1136.16
1207.22
1276.49
1344.35
1411.05
1476.87
1542.22
1607.6
1673.92
1740.06
1806.26
1873.28
1940.64
2008.25
2077.5
2149.95
2225.05
2298.48
2373.87
2449.53
2526.47
2599.42
2672.88
2751.67
2828.6
2893.42
2943.97
2980.9
3019.45
3045.72
3068.73
3063.23
3068.25
3068.11
3121.46
3170.49
3220.07
3256.22
3287.28
3306.31
3317.07
3319.51
3316.43
3309.56
3298.92
3284.21
3266.53
3242.44
3213.85
3181.92
3147.44
3112.45
3075.37
3039.77
3002.56
2967.2
2930.08
2893.98
2856.84
2819.51
2784.21
2748.2
2714.56
2680.37
2648.38
2616.5
2587.5
2558.38
2531.17
2504.41
2478.79
2453.73
2429.98
2406.9
2385.67
2365.01
2345.69
2327.31
2310.11
2293.6
2277.89
2262.93
2248.75
2235.3
2222.65
2210.79
2199.62
2188.99
2178.99
2169.59
2160.59
2152.17
2143.96
2136.36
2128.82
2121.75
2114.5
2107.82
2100.81
2096.76
2092.33
2088.47
2084.67
2080.41
2075.87
2071.22
2066.5
2061.72
2057.11
2052.75
2048.76
2045.24
2042.05
2039.19
2036.54
2034.28
2032.31
2030.36
2028.37
2026.37
2024.45
2022.59
2020.76
2018.83
2016.71
2014.38
2011.79
2008.99
2006.08
2003.11
2000.23
1997.37
1994.53
1991.7
1988.91
1986.23
1983.54
1981.1
1979.13
1977.09
1975.83
1974.55
1973.11
1971.63
1969.99
1968.2
1966.22
1964.01
1961.6
1959.07
1956.41
1953.88
1951.31
1949.05
1946.78
1944.96
1943.23
1941.97
1940.85
1939.79
1938.69
1937.59
1936.39
1934.98
1933.36
1931.58
1929.6
1927.45
1925.24
1922.93
1920.94
1918.82
1917.24
1915.76
1914.6
1913.61
1912.64
1911.65
1910.6
1909.44
1908.14
1906.64
1904.92
1903.05
1901.07
1899.05
1897.19
1895.01
1893.29
1892.15
1890.97
1889.95
1888.97
1887.96
1886.89
1885.71
1884.38
1882.89
1881.26
1879.47
1877.63
1875.73
1873.61
1871.78
1870.3
1868.7
1867.46
1866.41
1865.37
1864.28
1863.14
1861.9
1860.53
1859.02
1857.4
1855.67
1853.88
1852.03
1849.39
20.0197
9.87658
5.30849
3.62705
2.80795
2.51955
3.05172
6.19994
15.2338
37.5597
93.8724
200.735
360.805
545.587
723.384
898.272
1068.99
1236.71
1403.88
1572.52
1745.95
1925.56
2114.4
2311.25
2518.92
2736.35
2965.06
3205.65
3451.82
3714.85
3986.16
4263.89
4551.06
4844.45
5138.78
5435.11
5728.85
6028.61
6323.27
6616.38
6906.94
7197.45
7472.57
7730.71
7969.37
8207.46
8429.07
8622.05
8773.59
8922.6
9041.55
9157.52
9207.93
9258.62
9283.58
9303.14
9289.98
9260.44
9206.2
9133.8
9039.56
8926.65
8798.08
8657.32
8508.59
8353.37
8191.8
8026.42
7855.33
7686.32
7514.86
7340.22
7165.92
6989.04
6816.92
6643.41
6476.57
6307.99
6146.14
5984.62
5827.62
5676.35
5528.51
5387.09
5249.21
5116.11
4986.55
4861.97
4740.42
4623.54
4510.85
4402.78
4299.35
4200.35
4105.86
4015.28
3927.48
3843.24
3762.45
3685.72
3612.88
3543.96
3478.35
3415.56
3355.36
3297.76
3242.81
3190.51
3140.58
3093.24
3048.13
3005.55
2965.15
2926.68
2890.54
2855.6
2822.84
2790.07
2757.93
2726.16
2694.26
2667.33
2639.65
2616.02
2594.54
2574.09
2554.77
2536.33
2518.26
2500.6
2483.01
2465.69
2448.53
2431.83
2415.29
2399.1
2383.63
2368.89
2354.81
2341.88
2329.59
2318.09
2306.94
2296.89
2286.85
2277.03
2267.45
2258.24
2249.11
2240.36
2231.66
2223.49
2215.5
2208.02
2200.6
2193.36
2186.13
2178.79
2171.48
2164.18
2157.09
2149.9
2143.86
2137.76
2132.46
2127.23
2122.58
2118.31
2114.34
2110.69
2107.31
2104.21
2101.06
2097.89
2094.46
2090.81
2086.96
2082.9
2078.77
2074.58
2070.74
2066.88
2063.53
2060.6
2058.04
2055.69
2053.63
2051.73
2050.01
2048.27
2046.42
2044.4
2042.21
2039.76
2037.16
2034.4
2031.63
2028.88
2026.21
2023.8
2021.64
2019.75
2018.23
2016.99
2015.85
2014.71
2013.51
2012.23
2010.66
2008.7
2006.69
2004.57
2002.35
2000.09
1997.92
1995.85
1994.14
1992.56
1991.24
1990.04
1989.09
1988.15
1987.19
1986.02
1984.57
1983
1981.27
1979.36
1977.4
1975.42
1973.47
1971.67
1970.06
1968.68
1967.35
1966.28
1965.2
1964.35
1963.41
1961.83
26.9076
13.9053
8.32526
4.98297
3.70633
5.12222
13.814
37.3936
84.3228
165.885
304.79
519.588
795.896
1123.88
1444.82
1752.75
2044.23
2322.71
2592.37
2858.3
3124.56
3393.91
3672.56
3958.98
4256.79
4565.51
4886.52
5220.92
5564.33
5920.18
6285.34
6659.35
7042.51
7433.72
7826.92
8226.28
8627.93
9034.36
9433.5
9824.47
10205.7
10586.9
10951.2
11289.1
11585.9
11874.4
12143.7
12382
12554.5
12712.9
12829.8
12935.2
12965.8
12978.5
12959.6
12920
12841.6
12736.8
12603.2
12447.1
12265.2
12061.8
11840.1
11604.4
11359.8
11108.5
10851
10591.2
10325.8
10060.1
9791.65
9521.4
9255.03
8989.18
8730.74
8475.32
8229.17
7984.96
7750.93
7520.86
7298.15
7083.57
6876.04
6676.81
6483.59
6297.08
6115.76
5941.61
5772.54
5610.53
5454.62
5305.5
5162.63
5025.99
4895.07
4769.27
4647.74
4530.79
4418.69
4311.57
4209.56
4112.55
4019.82
3930.87
3845.42
3763.43
3684.94
3609.92
3538.08
3469.55
3403.88
3341.53
3281.84
3224.9
3170.63
3118.27
3068.62
3019.54
2971.41
2924.5
2877.4
2835.82
2793.77
2755.73
2720.46
2686.82
2654.74
2624.15
2594.4
2565.62
2537.35
2509.8
2482.76
2456.42
2430.49
2405.14
2380.55
2356.87
2333.96
2312.23
2291.26
2271.29
2252.1
2233.94
2216.53
2199.9
2183.89
2168.57
2153.56
2139.06
2124.89
2111.14
2097.85
2085.08
2072.62
2060.4
2048.36
2036.22
2024.25
2012.27
2000.65
1988.91
1978.3
1968
1958.1
1948.75
1939.94
1931.71
1923.99
1916.58
1909.64
1902.97
1896.49
1890.23
1883.89
1877.49
1871.03
1864.46
1857.8
1851.3
1844.89
1838.72
1832.82
1827.45
1822.47
1817.82
1813.51
1809.5
1805.76
1802.19
1798.61
1794.96
1791.29
1787.4
1783.47
1779.44
1775.45
1771.52
1767.63
1763.93
1760.49
1757.27
1754.45
1751.98
1749.67
1747.55
1745.46
1743.35
1741.23
1738.73
1736.14
1733.52
1730.77
1727.98
1725.27
1722.62
1720.26
1718.05
1716.09
1714.3
1712.81
1711.39
1710.08
1708.76
1707.16
1705.46
1703.69
1701.73
1699.68
1697.61
1695.52
1693.58
1691.74
1690.14
1688.59
1687.3
1686.02
1685.02
1683.98
1682.51
32.0754
18.2986
12.4026
7.99447
9.48758
23.1938
57.5938
122.124
225.576
394.42
654.742
1010.57
1422.72
1844.47
2235.73
2599.77
2939.72
3264.78
3581.25
3894.6
4209.45
4530.22
4861.49
5203.98
5560.92
5932.72
6319.21
6721.51
7138.03
7569.61
8014.18
8471.48
8938.61
9418.66
9903.23
10393.2
10885
11381.8
11870.4
12343.3
12796
13245
13676.1
14075.9
14409.4
14721.1
15006.1
15257.6
15426
15564.5
15651.1
15713.3
15700.2
15653.3
15564.8
15444.4
15283.9
15093.1
14871.1
14624.3
14352.6
14060.8
13752
13430.9
13102.8
12770.4
12433.9
12099.6
11762
11428.4
11093.8
10763
10437.8
10118.4
9806.53
9502.7
9208.98
8921.6
8646.06
8378.14
8119.68
7870.55
7631.38
7400.96
7178.87
6964.38
6756.34
6556.34
6363.26
6178.37
6001.22
5831.9
5669.93
5514.8
5366
5222.56
5084.17
4950.83
4823.33
4701.19
4584.73
4473.74
4367.33
4265.03
4166.61
4072.07
3981.47
3894.72
3811.65
3732.09
3655.81
3583.08
3513.28
3446.55
3382.54
3320.91
3262.01
3204.05
3147.03
3091.8
3036.26
2986.47
2936.66
2890.7
2847.77
2806.8
2767.53
2730
2693.5
2658.16
2623.58
2589.92
2557.01
2524.96
2493.48
2462.77
2432.85
2403.9
2375.82
2348.91
2322.83
2297.74
2273.62
2250.54
2228.44
2207.28
2186.92
2167.43
2148.39
2129.99
2112.02
2094.54
2077.56
2061.2
2045.2
2029.55
2014.15
1998.72
1983.57
1968.45
1953.79
1939.01
1925.39
1912.21
1899.36
1887.12
1875.5
1864.44
1854
1843.87
1834.26
1824.95
1815.92
1807.21
1798.56
1789.96
1781.48
1772.99
1764.38
1756.14
1747.84
1739.97
1732.19
1725
1718.2
1711.82
1705.76
1700.11
1694.67
1689.53
1684.4
1679.34
1674.26
1669.1
1663.97
1658.83
1653.77
1648.79
1643.92
1639.24
1634.78
1630.53
1626.63
1623.07
1619.72
1616.6
1613.58
1610.63
1607.78
1604.64
1601.42
1598.24
1594.98
1591.67
1588.46
1585.31
1582.41
1579.64
1577.12
1574.75
1572.69
1570.72
1568.93
1567.22
1565.3
1563.32
1561.31
1559.17
1556.96
1554.74
1552.49
1550.36
1548.32
1546.49
1544.7
1543.15
1541.6
1540.32
1539.04
1537.3
36.2338
26.8499
19.705
15.6975
30.8975
69.9828
141.619
256.089
438.943
720.324
1105.29
1561.37
2007.68
2437.05
2844.01
3231.52
3601.97
3960.86
4314.04
4666.06
5022.07
5387.15
5765.37
6158.89
6570.66
7000.95
7450.45
7919.86
8408.45
8916.41
9440.58
9980.11
10531.5
11099.2
11672.8
12249.2
12824.6
13404.3
13974.8
14519.7
15031.1
15529.1
16003.4
16444.1
16791.6
17097.6
17360.4
17581.3
17708
17786.5
17803
17778.3
17687.2
17541.3
17348.9
17116.2
16846.8
16542.7
16212
15856.9
15487.5
15102.6
14714.2
14319.5
13921.9
13526
13130.9
12741.8
12355.5
11978.2
11603.1
11238.7
10880.6
10534.5
10195.1
9868.78
9552.41
9246.88
8953.68
8671.38
8399.92
8138.23
7888.91
7648.19
7418.24
7195.98
6981.09
6774.1
6575.34
6384.79
6203.11
6029.15
5863.05
5703.6
5550.55
5402.7
5260.2
5122.64
4991.45
4865.43
4745.08
4630.18
4519.77
4413.43
4310.95
4212.4
4117.84
4027.15
3940.32
3856.84
3776.87
3700.26
3626.73
3556.2
3488.32
3422.99
3360.17
3298.53
3237.7
3179.07
3119.77
3066.09
3012.94
2962.91
2916.31
2871.86
2829.15
2788.24
2748.44
2709.87
2672.12
2635.35
2599.43
2564.39
2530.06
2496.55
2463.85
2432.07
2401.23
2371.52
2342.67
2314.75
2287.87
2261.98
2237.19
2213.38
2190.51
2168.59
2147.22
2126.55
2106.32
2086.67
2067.47
2048.97
2030.82
2013.12
1995.67
1978.29
1961.22
1944.22
1927.69
1911.06
1895.59
1880.63
1865.97
1852
1838.64
1825.85
1813.7
1801.9
1790.58
1779.54
1768.81
1758.4
1748.2
1738.06
1728.18
1718.38
1708.44
1698.95
1689.39
1680.3
1671.29
1662.77
1654.71
1647.12
1639.85
1633.03
1626.42
1620.12
1613.83
1607.72
1601.54
1595.4
1589.32
1583.33
1577.42
1571.64
1566.01
1560.59
1555.34
1550.3
1545.59
1541.19
1537.03
1533.1
1529.32
1525.65
1522.18
1518.47
1514.68
1511
1507.29
1503.54
1499.91
1496.33
1493
1489.78
1486.8
1483.96
1481.42
1478.99
1476.74
1474.67
1472.41
1470.12
1467.86
1465.51
1463.11
1460.72
1458.31
1456.01
1453.79
1451.76
1449.77
1448
1446.22
1444.68
1443.15
1441.1
39.9599
40.3673
33.8762
35.5606
74.6793
145.505
258.017
438.006
717.229
1103.47
1561.1
2014.68
2456.39
2885.66
3301.84
3705.55
4098.82
4485.51
4869.93
5255.56
5648.49
6053.7
6475.79
6917.32
7381.07
7868.36
8380.22
8917.22
9478.03
10062.5
10666.2
11288.3
11922.6
12574.7
13233.4
13890.3
14539.3
15188.7
15826.7
16425.8
16974.9
17492.3
17969.3
18405.5
18730.7
18984.3
19166.4
19288.1
19311.3
19263.7
19149.3
18971.2
18744.3
18459.2
18132.8
17762.5
17368.8
16936.5
16491.2
16025.7
15565.4
15095.7
14628.1
14160.4
13700
13250.2
12813.6
12386
11973.8
11579.1
11193.2
10830.6
10473.2
10137.8
9805.83
9494.46
9189.67
8901.87
8623.61
8359.98
8107.03
7862.58
7631.68
7405.79
7192.58
6985.15
6785.36
6591.81
6406.93
6228.67
6059.62
5896.84
5742.33
5593.33
5450.15
5311.46
5177.87
5048.39
4924.99
4805.88
4691.83
4582.66
4477.52
4376.09
4278.1
4183.64
4092.79
4005.42
3921.65
3840.8
3763.35
3688.77
3617.16
3548.21
3481.72
3417.56
3355.53
3294.69
3234.67
3176.77
3118.03
3064.21
3011.54
2960.78
2913.72
2868.96
2825.94
2784.61
2744.44
2705.42
2667.22
2629.91
2593.42
2557.73
2522.84
2488.71
2455.36
2422.81
2391.18
2360.58
2330.84
2301.95
2274.05
2247.06
2221.23
2196.31
2172.44
2149.48
2127.2
2105.57
2084.42
2063.85
2043.66
2024.2
2005.03
1986.41
1967.97
1949.75
1931.76
1913.91
1896.49
1878.97
1862.5
1846.66
1831.07
1816.25
1801.94
1788.29
1775.19
1762.58
1750.28
1738.29
1726.57
1715.13
1704.02
1692.9
1682.24
1671.64
1660.92
1650.68
1640.37
1630.53
1620.76
1611.44
1602.59
1594.21
1586.16
1578.56
1571.19
1564.12
1557.1
1550.25
1543.34
1536.52
1529.8
1523.2
1516.71
1510.39
1504.21
1498.27
1492.46
1486.86
1481.59
1476.58
1471.84
1467.31
1462.98
1458.76
1454.81
1450.65
1446.43
1442.35
1438.29
1434.21
1430.27
1426.38
1422.72
1419.16
1415.84
1412.62
1409.71
1406.94
1404.33
1401.95
1399.41
1396.84
1394.38
1391.86
1389.28
1386.75
1384.2
1381.77
1379.41
1377.23
1375.08
1373.14
1371.2
1369.44
1367.71
1365.37
44.0026
58.8051
59.6954
71.9843
139.232
242.208
405.271
663.545
1028.51
1472.12
1921.02
2363.79
2797.66
3224.32
3644.72
4059.35
4470.03
4878.86
5289.04
5703.92
6129.5
6571.1
7033.39
7519.5
8032.8
8575.8
9149.15
9753.14
10385.3
11045.2
11727.1
12429.7
13142.2
13871
14606.3
15332.7
16039.5
16734.2
17410
18035.7
18585.1
19068.6
19477.7
19826
20051
20161.9
20170.3
20122.8
19993.6
19761.7
19459.2
19083.1
18671.1
18168.2
17619
17032.2
16443.3
15835.4
15232.6
14641.2
14069.1
13526.9
12993.7
12496.2
12010.4
11550
11119
10696.2
10311.2
9946.78
9601.67
9291.78
8985.19
8713.56
8439.4
8194.74
7948.72
7726.57
7506.31
7305.38
7110.69
6923.12
6749.23
6574.54
6415.41
6255.4
6104.51
5953.63
5811.77
5671.12
5539.46
5409.65
5286.14
5164.14
5046.89
4931.85
4821.18
4712.42
4608.56
4507.89
4411.12
4318.13
4228.32
4141.42
4057.04
3975.22
3896.08
3819.6
3745.94
3674.57
3605.98
3539.58
3475.6
3413.8
3353.97
3295.86
3239.42
3184.13
3129.77
3076.89
3023.08
2973.01
2924.33
2876.52
2832.32
2790.15
2749.9
2711
2673.41
2636.68
2600.76
2565.43
2530.83
2496.88
2463.71
2431.13
2399.22
2367.94
2337.43
2307.8
2278.96
2250.88
2223.62
2197.17
2171.82
2147.28
2123.84
2101.17
2079.37
2057.98
2037.22
2016.85
1996.91
1977.54
1958.44
1939.94
1921.5
1903.48
1885.49
1867.78
1850.34
1832.81
1816.16
1800.28
1784.53
1769.62
1755.1
1741.36
1728.03
1715.26
1702.67
1690.4
1678.34
1666.51
1655.08
1643.56
1632.65
1621.76
1610.81
1600.31
1589.75
1579.6
1569.55
1559.91
1550.69
1541.9
1533.46
1525.44
1517.72
1510.24
1502.89
1495.62
1488.41
1481.18
1474.15
1467.2
1460.41
1453.78
1447.32
1441.09
1434.98
1429.05
1423.45
1418.08
1412.98
1408.07
1403.38
1398.82
1394.57
1390.12
1385.63
1381.28
1377.03
1372.76
1368.63
1364.54
1360.69
1356.91
1353.37
1349.91
1346.75
1343.74
1340.89
1338.3
1335.56
1332.8
1330.21
1327.57
1324.88
1322.26
1319.63
1317.12
1314.68
1312.4
1310.17
1308.11
1306.06
1304.17
1302.3
1299.75
49.9064
84.0815
97.5709
123.897
218.602
358.379
582.016
911.524
1325.83
1764.13
2199.69
2628.65
3052.55
3474.15
3894.63
4315.57
4738.12
5163.22
5593.77
6033.25
6486.67
6960.14
7458.18
7985.56
8546.02
9142.59
9775.55
10444.6
11145.6
11878.5
12634.4
13412.1
14194.7
14986.4
15779.7
16557
17294.7
17989.9
18637.9
19223.3
19695.4
20048.2
20294.7
20466.8
20497.9
20379.2
20139.6
19778.4
19344.4
18780
18150.8
17454
16756.6
16013.6
15238.1
14456.2
13678.7
12969
12251.2
11625
10992.4
10458.2
9917.93
9460.12
9007.98
8603.35
8235.82
7887.76
7590.65
7307.92
7056.78
6834.79
6619.64
6439.68
6255.27
6102.96
5947.73
5818.86
5686.84
5576.93
5466.1
5364.27
5271.14
5175.64
5093.49
5007.9
4929.73
4848.92
4773.25
4695.59
4623.4
4549.6
4477.43
4403.43
4331.01
4257.86
4186.97
4115.17
4046.05
3976.25
3908.21
3841.7
3776.84
3713.32
3650.76
3589.24
3529.32
3470.84
3414.05
3358.58
3304.78
3252.41
3201.53
3152.16
3103.93
3056.56
3010.37
2965.39
2921.03
2877.16
2832.5
2789.87
2748.66
2707.59
2669.35
2632.67
2598.1
2564.29
2532.07
2500.14
2469.16
2438.21
2407.9
2378.02
2348.76
2319.85
2291.42
2263.36
2235.88
2209.01
2182.84
2157.24
2132.25
2107.95
2084.54
2061.84
2040.19
2019.17
1999.05
1979.2
1960
1941.01
1922.45
1904.25
1886.31
1868.88
1851.53
1834.59
1817.56
1800.9
1784.27
1767.72
1751.7
1736.53
1721.43
1707.14
1693.15
1679.93
1667.06
1654.7
1642.51
1630.59
1618.82
1607.27
1596.01
1584.77
1573.99
1563.39
1552.75
1542.47
1532.15
1522.17
1512.31
1502.75
1493.58
1484.76
1476.32
1468.25
1460.54
1453.02
1445.7
1438.38
1431.21
1423.94
1416.9
1409.9
1403.07
1396.41
1389.93
1383.66
1377.52
1371.51
1365.8
1360.32
1355.07
1350.01
1345.18
1340.48
1336.11
1331.56
1327.01
1322.56
1318.27
1313.95
1309.78
1305.65
1301.73
1297.87
1294.24
1290.68
1287.4
1284.27
1281.31
1278.61
1275.79
1272.95
1270.32
1267.64
1264.93
1262.29
1259.66
1257.14
1254.69
1252.39
1250.13
1248.04
1245.96
1244.01
1242.06
1239.41
57.0821
117.996
145.388
188.691
311.054
493.841
775.572
1151.63
1567.79
1991.25
2409.94
2823.76
3235.81
3649.53
4066.29
4488.69
4917.39
5353.23
5798.78
6257.51
6733.4
7233.69
7763.44
8328.81
8933.56
9581.03
10270.7
11001.8
11768.2
12569.8
13392.1
14234
15072.8
15903.9
16715.3
17495.9
18205.4
18819.4
19338.1
19775.1
20070.1
20194.5
20156.4
19973.1
19661.6
19134.9
18471.3
17713.8
16922.9
16025.6
15081.7
14128.7
13187.1
12329.9
11457.1
10685.8
9899.07
9253.92
8592.82
8055.19
7505.14
7069.37
6625.68
6272.15
5920.75
5624.86
5355.81
5112.84
4911.16
4719.16
4562.89
4420.21
4291.73
4187.81
4081.29
4001.96
3920.32
3859.84
3797.22
3752.17
3706.48
3668.25
3635.99
3602.99
3578.66
3552.71
3531.42
3509.09
3488.99
3467.47
3446.76
3425.1
3403.36
3380.68
3357.64
3334.06
3310.24
3285.1
3259.18
3231.55
3202.87
3173.32
3142.65
3110.9
3078.14
3044.46
3010.07
2975.19
2940.4
2905.66
2871.41
2837.62
2804.45
2771.7
2739.27
2706.82
2674.69
2643.68
2612.63
2581.33
2549.33
2517.72
2486.8
2455.6
2426.22
2397.87
2371.3
2345.2
2320.53
2295.88
2271.96
2247.79
2223.94
2200.23
2176.87
2153.62
2130.58
2107.56
2084.89
2062.54
2040.67
2019.13
1998
1977.31
1957.3
1937.82
1919.22
1901.16
1883.83
1866.79
1850.27
1833.81
1817.68
1801.74
1786.01
1770.59
1755.36
1740.28
1725.28
1710.47
1695.64
1680.88
1666.37
1652.6
1638.92
1625.92
1613.18
1601.09
1589.3
1578
1566.82
1555.88
1545.01
1534.35
1523.81
1513.48
1503.3
1493.52
1483.68
1474.1
1464.51
1455.17
1445.93
1436.87
1428.16
1419.73
1411.66
1403.92
1396.56
1389.38
1382.43
1375.44
1368.6
1361.68
1354.92
1348.2
1341.63
1335.22
1328.98
1322.94
1317.02
1311.19
1305.62
1300.25
1295.1
1290.11
1285.35
1280.72
1276.44
1271.99
1267.56
1263.22
1259.04
1254.85
1250.8
1246.77
1242.95
1239.15
1235.58
1232.06
1228.79
1225.67
1222.72
1220.05
1217.27
1214.46
1211.89
1209.29
1206.65
1204.09
1201.55
1199.09
1196.72
1194.48
1192.28
1190.23
1188.19
1186.28
1184.34
1181.7
64.6861
156.655
198.488
263.756
416.09
642.409
969.341
1352.04
1757.28
2162.13
2562.33
2959.85
3357.94
3760.57
4170.14
4589.35
5018.98
5460.11
5915.09
6387.37
6880.74
7403.43
7961.21
8561.55
9207.9
9903.61
10646.8
11437.3
12264.2
13126.2
14001.8
14883.3
15745.4
16568.7
17327.7
18011.3
18599.8
19035.2
19334.8
19451
19389.2
19112.2
18660.1
18022.7
17292.3
16373.8
15333.1
14253
13155.6
12132.8
11093.4
10180.2
9244.18
8485.62
7716.73
7081.9
6423.59
5910.97
5388.2
4985.72
4576.21
4263.83
3949.61
3709.43
3470.99
3283.53
3107.52
2960.88
2836.04
2722.85
2636.2
2554.03
2488.33
2433.98
2384.63
2350.81
2315.62
2294.7
2272.14
2261.8
2251.41
2247.54
2246.47
2248.49
2253.5
2260.27
2269.8
2280.35
2292.18
2302.28
2312.65
2321.66
2331.51
2340.42
2349.4
2358.41
2368.2
2375.63
2382.97
2387.21
2390.4
2390.75
2390.03
2388.21
2385.04
2380.3
2373.89
2365.95
2356.73
2346.44
2335.25
2323.25
2310.49
2296.79
2282.27
2267.04
2251.38
2235.83
2219.93
2203.5
2186.01
2167.87
2149.24
2130.13
2111.69
2093.69
2076.84
2060.3
2044.7
2029.12
2013.81
1998.21
1982.45
1966.6
1950.73
1934.73
1918.57
1902.23
1885.82
1869.47
1853.3
1837.17
1821.27
1805.49
1790.15
1775.1
1760.72
1746.72
1733.3
1720.09
1707.28
1694.38
1681.69
1669
1656.44
1643.98
1631.73
1619.4
1607.3
1595.13
1583
1570.77
1558.62
1546.99
1535.43
1524.38
1513.54
1503.22
1493.14
1483.51
1473.9
1464.55
1455.15
1445.96
1436.74
1427.75
1418.8
1410.28
1401.72
1393.31
1384.91
1376.69
1368.52
1360.39
1352.56
1344.91
1337.6
1330.54
1323.89
1317.4
1311.14
1304.84
1298.66
1292.42
1286.27
1280.14
1274.13
1268.26
1262.55
1257
1251.57
1246.18
1240.99
1235.98
1231.16
1226.47
1222
1217.66
1213.65
1209.52
1205.42
1201.37
1197.5
1193.61
1189.85
1186.09
1182.51
1178.95
1175.58
1172.24
1169.13
1166.17
1163.35
1160.83
1158.22
1155.59
1153.19
1150.76
1148.32
1145.93
1143.58
1141.29
1139.08
1136.99
1134.94
1133.03
1131.1
1129.31
1127.48
1124.97
71.7603
197.723
255.128
345.877
528.974
793.321
1135.7
1512.56
1899.86
2284.17
2665.01
3044.78
3426.7
3815.71
4214.73
4626.49
5052.26
5493.5
5952.71
6433.47
6940.27
7482.17
8065.36
8698.72
9385.02
10127.5
10922.2
11767.7
12645.5
13547.6
14451.4
15325.8
16135.4
16867.1
17486.9
17986.2
18310
18394.7
18297.1
18003.6
17547.4
16826.7
15949.3
14905.2
13794.1
12660.2
11492.2
10397.3
9269.22
8360.68
7424.28
6668.21
5893.33
5291.94
4697.71
4232.66
3761.58
3400.64
3048.29
2780.36
2520.86
2321.6
2130.24
1984.99
1844.2
1740.13
1635.28
1557.53
1482.46
1423.95
1375.3
1329.16
1297.21
1264.45
1245.64
1229.52
1214.06
1207.68
1200.52
1200.9
1202.91
1207.99
1215.03
1225.28
1238.16
1253.36
1271.56
1291.36
1313.1
1335.25
1358.69
1381.55
1405.5
1429.14
1453.56
1478.37
1504.4
1529.02
1554.23
1576.6
1598.89
1618.12
1637.36
1655.66
1673.25
1689.57
1704.48
1717.79
1729.52
1739.64
1748.33
1755.14
1760.47
1764.33
1766.83
1768.26
1769.07
1769.17
1768.79
1767.57
1765.04
1761.07
1755.92
1749.84
1743.32
1736.55
1730.2
1723.91
1718.1
1712.2
1706.28
1699.98
1693.24
1686.13
1678.67
1670.82
1662.51
1653.75
1644.62
1635.24
1625.68
1615.94
1606.12
1596.17
1586.37
1576.63
1567.34
1558.25
1549.57
1541.01
1532.65
1524.16
1515.65
1507.04
1498.38
1489.71
1481.1
1472.37
1463.75
1455.04
1446.23
1437.26
1428.19
1419.38
1410.59
1402.12
1393.76
1385.78
1377.97
1370.54
1363.09
1355.8
1348.45
1341.21
1333.87
1326.67
1319.49
1312.67
1305.84
1299.07
1292.31
1285.63
1278.94
1272.2
1265.65
1259.14
1252.95
1246.95
1241.33
1235.88
1230.63
1225.36
1220.17
1214.93
1209.71
1204.47
1199.32
1194.28
1189.37
1184.58
1179.89
1175.21
1170.66
1166.23
1161.98
1157.83
1153.86
1150.03
1146.5
1142.91
1139.34
1135.78
1132.38
1128.98
1125.68
1122.37
1119.2
1116.03
1113.02
1110.02
1107.21
1104.55
1102.01
1099.76
1097.47
1095.15
1093.02
1090.9
1088.77
1086.67
1084.61
1082.6
1080.65
1078.79
1076.99
1075.3
1073.59
1072
1070.37
1068.13
78.4809
241.951
313.889
430.784
642.918
928.186
1270.52
1634.41
2000.6
2363.71
2724.28
3084.89
3448.68
3822
4208.56
4610.28
5028.37
5465.2
5923.95
6409.11
6926.13
7485.46
8093.55
8760.23
9487.17
10276.4
11117.5
12006.5
12918.7
13824.3
14687.9
15482.3
16168.5
16703.2
17046.5
17209.4
17157.6
16867.4
16368
15638.7
14775.6
13699.5
12518.4
11315.2
10076.6
9011.86
7925.67
6979.36
6011.98
5271.92
4542.28
3982.65
3441.64
3011.14
2626.28
2315.77
2034.58
1810.79
1604.38
1448.74
1301.29
1189.94
1084.74
1006.97
932.186
878.317
823.935
784.913
744.679
717.122
689.04
667.286
649.467
630.846
621.102
610.709
602.953
598.588
593.694
592.711
593.249
595.412
598.737
604.016
610.967
619.755
630.65
642.893
656.931
672.083
688.807
706.392
725.476
745.609
767.207
789.874
814.007
838.873
864.697
890.712
917.265
943.494
970.086
996.45
1022.88
1048.93
1074.51
1099.13
1122.82
1145.22
1166.63
1186.32
1204.46
1221.58
1237.54
1252.59
1267.37
1281.06
1294.4
1306.24
1317.25
1325.42
1332.52
1337.51
1341.98
1345.82
1349.76
1353.53
1357.49
1361.09
1364.76
1367.81
1370.25
1371.95
1373.34
1373.96
1373.78
1372.99
1371.52
1369.46
1366.91
1363.91
1360.58
1356.93
1353.1
1349.14
1345.37
1341.64
1338.18
1334.7
1331.27
1327.6
1323.77
1319.69
1315.41
1310.99
1306.48
1301.84
1297.15
1292.33
1287.36
1282.11
1276.67
1271.2
1265.67
1260.27
1254.86
1249.68
1244.59
1239.75
1234.88
1230.08
1225.22
1220.31
1215.31
1210.32
1205.32
1200.6
1195.87
1191.14
1186.4
1181.64
1176.8
1171.87
1166.94
1161.96
1157.21
1152.59
1148.31
1144.2
1140.27
1136.34
1132.45
1128.5
1124.51
1120.46
1116.46
1112.52
1108.67
1104.89
1101.18
1097.46
1093.8
1090.2
1086.74
1083.34
1080.1
1076.99
1074.15
1071.3
1068.44
1065.58
1062.85
1060.12
1057.45
1054.76
1052.17
1049.56
1047.07
1044.56
1042.2
1039.98
1037.85
1036.03
1034.18
1032.3
1030.58
1028.89
1027.18
1025.49
1023.83
1022.2
1020.62
1019.11
1017.64
1016.26
1014.87
1013.58
1012.23
1010.41
80.4038
284.687
374.117
514.127
745.484
1039.74
1375.14
1720.6
2064.52
2405.92
2745.13
3085.68
3433.66
3791.53
4162.74
4550.19
4956.53
5385.31
5840.65
6328.64
6855.55
7433.39
8068.84
8772.4
9540.19
10371.8
11254.7
12165.3
13062.2
13913.1
14673.8
15284.8
15732.2
15966.4
15950.7
15748
15353.5
14670.5
13798.3
12712.9
11541.2
10339.8
9110.39
7984.75
6844.91
5915.65
5030.79
4298.89
3611.87
3060.69
2583.42
2206.36
1877.6
1612.57
1389.19
1207.44
1059.41
937.552
831.413
752.063
680.12
626.316
576.663
539.883
505.11
479.277
453.658
434.462
414.829
400.435
385.213
374.611
363.722
354.024
347.066
339.541
334.262
329.885
325.214
322.378
319.466
318.397
317.326
317.589
318.401
320.103
322.776
326.125
330.385
335.354
341.209
347.745
355.279
363.715
373.257
383.705
395.356
407.985
421.803
436.529
452.331
469.048
486.82
505.491
525.128
545.636
566.901
588.713
610.959
633.504
656.349
679.038
701.548
723.757
745.578
767.418
789.525
810.947
832.56
852.588
872.688
889.886
906.344
920.229
933.636
946.2
958.886
971.24
983.847
995.92
1008.11
1019.63
1030.51
1040.33
1049.62
1057.9
1065.35
1071.8
1077.52
1082.39
1086.75
1090.36
1093.6
1096.2
1098.56
1100.56
1102.58
1104.48
1106.5
1108.28
1110.15
1111.29
1112.35
1112.89
1113.08
1113.07
1112.93
1112.59
1112.11
1111.42
1110.5
1109.24
1107.68
1105.9
1103.93
1101.86
1099.7
1097.59
1095.46
1093.48
1091.44
1089.4
1087.24
1084.98
1082.57
1080.1
1077.57
1075.23
1072.87
1070.48
1068.02
1065.46
1062.75
1059.88
1056.88
1053.75
1050.69
1047.7
1045.02
1042.5
1040.14
1037.8
1035.46
1033.04
1030.54
1027.96
1025.33
1022.72
1020.15
1017.63
1015.11
1012.57
1010.03
1007.48
1005.01
1002.59
1000.29
998.085
996.111
994.191
992.232
990.258
988.372
986.491
984.619
982.726
980.863
978.978
977.147
975.289
973.534
971.895
970.329
969.05
967.771
966.467
965.279
964.136
962.98
961.815
960.67
959.524
958.417
957.351
956.327
955.356
954.377
953.478
952.511
951.234
94.9329
321.695
428.56
586.679
830.868
1126.12
1449.89
1775.05
2096.42
2415.37
2735.85
3059.24
3387.69
3726.62
4080.04
4451.31
4844.07
5263.39
5714.98
6207.32
6747.5
7349.53
8018.01
8760.77
9573.3
10444.3
11343
12230.4
13062.9
13779.5
14342.3
14686.9
14829.8
14714.6
14399.5
13821.8
13071
12072.1
10918
9680.9
8403.23
7266.4
6149.9
5199.82
4314.28
3580.53
2952.77
2444.65
2019.85
1668.97
1392.71
1173.74
996.827
857.298
743.462
650.873
582.792
523.445
478.245
442.197
410.336
386.044
363.495
345.97
328.751
315.425
301.496
290.789
279.842
271.137
261.996
254.937
247.334
241.706
236.408
230.837
226.313
222.394
218.578
215.478
212.24
209.811
207.338
205.523
203.781
202.621
202.103
201.508
201.484
201.663
202.159
202.915
204.054
205.583
207.597
209.993
212.875
216.222
220.139
224.556
229.572
235.153
241.392
248.274
255.906
264.305
273.489
283.435
294.155
305.659
317.959
330.977
344.735
359.203
374.472
390.652
407.717
425.495
443.879
462.598
481.785
500.284
518.938
536.582
554.029
571.025
588.191
605.362
622.856
640.245
657.877
675.203
692.2
708.159
723.568
737.904
751.47
764.075
776.131
787.169
797.775
807.401
816.714
825.117
833.295
840.775
848.277
855.262
862.369
868.9
875.578
881.427
887.193
892.313
897.058
901.492
905.733
909.677
913.528
917.062
920.371
923.245
925.694
927.758
929.383
930.85
932.001
933.149
934.111
935.146
936.013
936.925
937.528
938.058
938.352
938.598
938.755
938.935
939.104
939.228
939.164
938.962
938.539
937.871
936.968
935.862
934.693
933.533
932.611
931.832
931.216
930.618
930.009
929.297
928.459
927.491
926.432
925.327
924.215
923.097
921.961
920.766
919.508
918.196
916.896
915.61
914.412
913.291
912.351
911.496
910.591
909.67
908.785
907.89
906.975
906.02
905.036
904.02
902.988
901.928
900.912
899.982
899.127
898.499
897.911
897.301
896.769
896.286
895.786
895.267
894.741
894.197
893.662
893.145
892.653
892.189
891.721
891.311
890.811
890.209
110.766
349.937
474.509
646.533
897.648
1189.17
1497.03
1801.39
2100.69
2401.6
2702.89
3005.5
3313.33
3632.6
3967.65
4322.48
4701.75
5112.79
5563.61
6066.11
6627.12
7259.8
7970.34
8760.68
9616
10509.3
11382.9
12196.9
12892.3
13406.2
13706.9
13724.6
13579.7
13152.4
12506.5
11596.6
10525.9
9320.88
8052.39
6860.51
5680.29
4702.95
3808.9
3095.14
2493.24
2003.64
1622.58
1320.56
1094.44
907.825
769.857
656.862
571.106
502.98
447.823
403.833
371.171
344.674
326.921
309.203
293.717
281.085
268.331
257.82
246.928
237.943
229.118
221.87
214.483
208.267
201.859
196.514
190.971
186.487
182.507
178.569
175.217
171.8
168.86
166.352
163.746
161.386
159.066
157.102
155.219
153.564
152.318
151.03
149.982
148.911
148.108
147.28
146.697
146.102
145.859
145.649
145.673
145.801
146.103
146.584
147.257
148.113
149.18
150.457
151.992
153.814
155.937
158.364
161.117
164.225
167.711
171.585
175.893
180.674
186.026
192.037
198.733
206.103
214.147
222.834
232.178
242.07
252.507
263.392
274.77
286.665
299.176
312.352
326.307
340.977
356.387
372.342
388.742
405.322
422.096
438.513
454.856
470.606
486.223
501.04
515.707
529.49
543.161
555.933
568.642
580.521
592.477
603.719
615.087
625.702
636.494
646.557
656.569
665.903
674.9
683.495
691.827
699.851
707.663
715.167
722.272
728.981
735.053
740.725
745.851
750.776
755.239
759.671
763.734
767.866
771.706
775.604
779.103
782.495
785.616
788.701
791.628
794.434
797.194
799.881
802.349
804.563
806.48
808.056
809.311
810.245
811.124
811.982
812.932
813.997
815.197
816.444
817.694
818.747
819.639
820.369
820.967
821.475
821.942
822.335
822.705
822.953
823.068
823.078
823.077
823.062
823.086
823.167
823.36
823.649
823.913
824.15
824.388
824.589
824.756
824.827
824.831
824.786
824.683
824.53
824.367
824.248
824.242
824.343
824.525
824.716
824.948
825.218
825.482
825.695
825.893
826.035
826.167
826.294
826.419
826.555
826.685
826.866
826.886
827.083
123.298
370.802
511.208
692.534
945.306
1229.11
1519.06
1803.03
2086.76
2367.72
2647.54
2928.78
3216.04
3516.07
3833.63
4173.66
4542
4949.41
5406.44
5927.41
6520.31
7200.18
7963.62
8807.24
9696.18
10580.8
11382.3
12057.2
12555.9
12804.8
12782.6
12537.1
12080
11315.6
10352.9
9180.58
7885.56
6644.81
5430.27
4418.12
3491.03
2772.46
2175.7
1722.31
1372.7
1102.63
903.093
747.454
635.917
543.353
476.774
417.661
375.503
339.166
311.911
290.909
273.957
261.155
250.22
238.381
229.444
220.45
211.171
203.399
195.478
189.205
182.829
177.602
172.287
167.79
163.128
159.25
155.304
152.226
149.128
146.448
144.099
141.733
139.514
137.647
135.706
133.774
131.961
130.42
128.941
127.513
126.376
125.207
124.244
123.252
122.273
121.282
120.461
119.653
118.989
118.31