/*--------------------------------*- C++ -*----------------------------------*\
| =========                 |                                                 |
| \\      /  F ield         | OpenFOAM: The Open Source CFD Toolbox           |
|  \\    /   O peration     | Version:  2312                                  |
|   \\  /    A nd           | Website:  www.openfoam.com                      |
|    \\/     M anipulation  |                                                 |
\*---------------------------------------------------------------------------*/
FoamFile
{
    version     2.0;
    format      ascii;
    arch        "LSB;label=32;scalar=64";
    class       volScalarField;
    location    "0.002";
    object      minKappa;
}
// * * * * * * * * * * * * * * * * * * * * * * * * * * * * * * * * * * * * * //

dimensions      [0 0 0 0 0 0 0];

internalField   nonuniform List<scalar> 
48128
(
0.611472
0.61117
0.611317
0.610953
0.61079
0.610617
0.610353
0.610189
0.610494
0.611835
0.616062
0.618105
0.619182
0.620076
0.620897
0.622288
0.623508
0.624665
0.625755
0.626765
0.627665
0.62854
0.629374
0.630144
0.630841
0.631453
0.631968
0.632355
0.63261
0.63275
0.632794
0.63268
0.632422
0.63205
0.631561
0.630967
0.630378
0.629394
0.628441
0.627455
0.626479
0.625498
0.624539
0.62364
0.622788
0.622009
0.621273
0.620554
0.619973
0.619617
0.61951
0.619381
0.619376
0.619467
0.619706
0.620065
0.620546
0.621149
0.621864
0.622689
0.623609
0.624616
0.625703
0.626866
0.628217
0.629669
0.631192
0.632798
0.63446
0.636153
0.637905
0.639647
0.641444
0.643224
0.645058
0.646883
0.648749
0.650602
0.652434
0.654246
0.656016
0.657775
0.659519
0.661203
0.662872
0.664515
0.666146
0.667783
0.669423
0.671013
0.672578
0.674053
0.67548
0.676855
0.678195
0.679538
0.680913
0.682229
0.683496
0.684684
0.685792
0.686862
0.687909
0.688948
0.689965
0.69095
0.691897
0.692806
0.693675
0.694507
0.695295
0.696038
0.696746
0.69741
0.69805
0.698634
0.699227
0.699843
0.70048
0.701158
0.701926
0.702333
0.702855
0.703186
0.703422
0.703684
0.703962
0.704258
0.704574
0.704907
0.705257
0.705619
0.705987
0.706363
0.706747
0.707111
0.707465
0.707785
0.708061
0.708299
0.708522
0.708727
0.708919
0.709085
0.709237
0.709375
0.709514
0.709636
0.709768
0.709902
0.710042
0.71017
0.710284
0.710388
0.710497
0.710608
0.710729
0.710858
0.711
0.711143
0.711293
0.679496
0.679471
0.679444
0.679407
0.679343
0.679271
0.679178
0.679079
0.678986
0.678894
0.678801
0.711585
0.678669
0.711592
0.678619
0.67862
0.678629
0.678645
0.67864
0.678627
0.6786
0.678559
0.678491
0.678407
0.678317
0.678221
0.678116
0.678021
0.677941
0.677874
0.677834
0.677783
0.677784
0.677768
0.677772
0.677761
0.677741
0.677706
0.677658
0.677598
0.677523
0.67743
0.677329
0.677232
0.677141
0.677064
0.676995
0.676912
0.676921
0.676904
0.676877
0.676863
0.676837
0.676801
0.676753
0.676692
0.67662
0.676541
0.676456
0.676362
0.676283
0.676202
0.676128
0.676106
0.676074
0.676037
0.676032
0.676014
0.675989
0.675954
0.675908
0.675851
0.675784
0.675709
0.675627
0.67554
0.67545
0.675365
0.67526
0.611472
0.61117
0.611317
0.610953
0.61079
0.610617
0.610318
0.610189
0.610494
0.611835
0.616062
0.618105
0.619182
0.620076
0.620897
0.622288
0.623508
0.624665
0.625755
0.626765
0.627665
0.62854
0.629374
0.630144
0.630841
0.631453
0.631968
0.632355
0.63261
0.63275
0.632794
0.63268
0.632422
0.63154
0.630611
0.629611
0.628574
0.627499
0.626423
0.625368
0.62435
0.623379
0.622466
0.621648
0.620939
0.620327
0.61988
0.619708
0.619716
0.619617
0.61951
0.619381
0.619376
0.619467
0.619706
0.620065
0.620546
0.621149
0.621864
0.622689
0.623609
0.624616
0.625703
0.626866
0.628217
0.629669
0.631192
0.632798
0.63446
0.636153
0.637905
0.639647
0.641444
0.643224
0.645058
0.646883
0.648749
0.650602
0.652434
0.654246
0.656016
0.657775
0.659519
0.661203
0.662872
0.664515
0.666146
0.667783
0.669423
0.671013
0.672578
0.674053
0.67548
0.676855
0.678195
0.679538
0.680913
0.682229
0.683496
0.684684
0.685792
0.686862
0.687909
0.688948
0.689965
0.69095
0.691897
0.692806
0.693675
0.694507
0.695295
0.696038
0.696746
0.69741
0.69805
0.698634
0.699227
0.699843
0.70048
0.701158
0.701926
0.702333
0.702855
0.703186
0.703422
0.703684
0.703962
0.704258
0.704574
0.704907
0.705257
0.705619
0.705987
0.706363
0.706747
0.707111
0.707465
0.707785
0.708061
0.708299
0.708522
0.708727
0.708919
0.709085
0.709237
0.709375
0.709514
0.709636
0.709768
0.709902
0.710042
0.71017
0.710284
0.710388
0.710497
0.710608
0.710729
0.710858
0.711
0.711143
0.711293
0.679496
0.679471
0.679444
0.679407
0.679343
0.679271
0.679178
0.679079
0.678986
0.678894
0.678801
0.711585
0.678669
0.711592
0.678619
0.67862
0.678629
0.678645
0.67864
0.678627
0.6786
0.678559
0.678491
0.678407
0.678317
0.678221
0.678116
0.678021
0.677941
0.677874
0.677834
0.677783
0.677784
0.677768
0.677772
0.677761
0.677741
0.677706
0.677658
0.677598
0.677523
0.67743
0.677329
0.677232
0.677141
0.677064
0.676995
0.676912
0.676921
0.676904
0.676877
0.676863
0.676837
0.676801
0.676753
0.676692
0.67662
0.676541
0.676456
0.676362
0.676283
0.676202
0.676128
0.676106
0.676074
0.676037
0.676032
0.676014
0.675989
0.675954
0.675908
0.675851
0.675784
0.675709
0.675627
0.67554
0.67545
0.675365
0.67526
0.611854
0.61149
0.611319
0.611279
0.610923
0.610565
0.610318
0.610511
0.612579
0.616242
0.618879
0.621142
0.623346
0.625325
0.626969
0.628427
0.629695
0.630804
0.631459
0.631945
0.632293
0.632605
0.632836
0.632977
0.633027
0.632985
0.632851
0.632565
0.632161
0.631648
0.631073
0.630391
0.629454
0.628603
0.627707
0.626765
0.625806
0.624841
0.623895
0.622997
0.622167
0.621412
0.62074
0.62018
0.61995
0.619887
0.61988
0.619708
0.619716
0.61974
0.619853
0.620094
0.620506
0.621039
0.62174
0.622587
0.623566
0.624691
0.625942
0.62732
0.628799
0.630374
0.632035
0.633776
0.635598
0.63749
0.639439
0.641462
0.643516
0.645598
0.647707
0.649798
0.651921
0.654012
0.65615
0.658268
0.66041
0.662521
0.664602
0.666645
0.668658
0.670695
0.672691
0.674632
0.676537
0.678412
0.680265
0.682122
0.683969
0.685762
0.687526
0.689195
0.690817
0.692379
0.69391
0.695433
0.696989
0.698477
0.699911
0.701266
0.702541
0.703778
0.704992
0.706194
0.70737
0.708511
0.709611
0.710669
0.711686
0.712664
0.713599
0.714491
0.715345
0.71616
0.716949
0.717684
0.718429
0.719195
0.719981
0.720801
0.721709
0.722252
0.722894
0.72338
0.723738
0.724119
0.724509
0.724913
0.725334
0.725771
0.726224
0.726685
0.727154
0.727632
0.728119
0.728589
0.729054
0.729485
0.729872
0.730224
0.730557
0.730865
0.731155
0.731413
0.731649
0.731863
0.732074
0.73227
0.732476
0.732686
0.732904
0.733111
0.733308
0.733495
0.733685
0.733879
0.734081
0.734291
0.73451
0.73473
0.734954
0.735188
0.735324
0.735466
0.735615
0.735694
0.735784
0.735826
0.735862
0.735903
0.735934
0.73597
0.736011
0.736058
0.736119
0.736185
0.736262
0.732407
0.7325
0.73257
0.73264
0.732686
0.732733
0.732727
0.732705
0.732672
0.732626
0.732566
0.732504
0.732453
0.732413
0.732397
0.732376
0.732398
0.732402
0.732424
0.732434
0.732435
0.732423
0.732398
0.732358
0.732302
0.732223
0.732129
0.732033
0.731935
0.731846
0.731758
0.73164
0.731636
0.731609
0.731566
0.731541
0.731506
0.731459
0.7314
0.731327
0.731241
0.731143
0.731034
0.730912
0.730795
0.730673
0.730544
0.73048
0.730407
0.730323
0.730285
0.730236
0.730181
0.730119
0.730045
0.729961
0.729864
0.729758
0.729642
0.729517
0.729387
0.729254
0.729068
0.612074
0.611571
0.61099
0.61095
0.610721
0.610565
0.610699
0.61283
0.617108
0.620387
0.622667
0.624408
0.625769
0.626786
0.627515
0.62812
0.628683
0.629163
0.629578
0.629917
0.630149
0.630353
0.630516
0.630601
0.630604
0.63051
0.630311
0.630006
0.629596
0.629087
0.628349
0.627657
0.626907
0.626093
0.625252
0.624397
0.623549
0.622722
0.62194
0.621236
0.620632
0.620231
0.620097
0.620107
0.61995
0.619887
0.619941
0.619979
0.620211
0.62059
0.621171
0.621893
0.622793
0.623831
0.625048
0.626428
0.627931
0.629592
0.631372
0.63328
0.635273
0.637357
0.639511
0.641733
0.644026
0.64637
0.648754
0.651199
0.653643
0.656104
0.658556
0.660974
0.663402
0.665779
0.668192
0.670571
0.672958
0.675291
0.677585
0.679815
0.68198
0.68413
0.686212
0.688225
0.690189
0.692101
0.69399
0.695881
0.69775
0.699559
0.701336
0.703015
0.704645
0.706212
0.707747
0.709272
0.710826
0.7123
0.713718
0.715091
0.71639
0.717656
0.7189
0.720131
0.721334
0.7225
0.723624
0.724703
0.725741
0.726738
0.727697
0.728613
0.729491
0.730339
0.731155
0.731929
0.732716
0.733523
0.734351
0.735206
0.736142
0.736722
0.73738
0.737925
0.738313
0.738722
0.739139
0.739568
0.740012
0.740472
0.740949
0.741435
0.74193
0.742435
0.74295
0.743451
0.743952
0.744419
0.744845
0.74524
0.745613
0.745962
0.746288
0.746581
0.746845
0.747084
0.747314
0.747531
0.747756
0.747987
0.748228
0.748455
0.748683
0.7489
0.749121
0.749346
0.749581
0.749822
0.750071
0.750321
0.750573
0.750834
0.750999
0.751166
0.751338
0.751441
0.751553
0.751616
0.751674
0.751739
0.751796
0.751859
0.751927
0.751999
0.752083
0.752172
0.752269
0.752377
0.752498
0.752595
0.751073
0.75114
0.752856
0.752878
0.752877
0.752868
0.752844
0.752805
0.752767
0.752731
0.752708
0.751019
0.751015
0.751042
0.751056
0.751085
0.751104
0.751113
0.751106
0.751088
0.751056
0.751007
0.750934
0.750847
0.750755
0.750662
0.750573
0.750482
0.750364
0.750351
0.750318
0.750271
0.75024
0.7502
0.75015
0.750087
0.750011
0.749921
0.749819
0.749704
0.749576
0.749447
0.749314
0.749174
0.749093
0.749004
0.748905
0.748852
0.748789
0.748721
0.748647
0.748563
0.748468
0.748362
0.748245
0.748119
0.747983
0.747842
0.747697
0.747491
0.612227
0.611483
0.610861
0.610787
0.610721
0.610904
0.612864
0.61722
0.620536
0.622802
0.624346
0.625394
0.626002
0.626364
0.626655
0.627047
0.627387
0.62771
0.628013
0.628258
0.628416
0.628545
0.628618
0.628624
0.628553
0.628389
0.628136
0.627787
0.627352
0.626685
0.626081
0.625409
0.624699
0.623951
0.623198
0.622463
0.621772
0.621131
0.620576
0.620344
0.62031
0.620231
0.620097
0.620107
0.620142
0.620308
0.620684
0.621203
0.621946
0.622857
0.624007
0.625315
0.626805
0.628452
0.630292
0.632308
0.634432
0.636731
0.639126
0.641649
0.644225
0.646876
0.649571
0.652304
0.655096
0.657901
0.660719
0.663579
0.666382
0.669186
0.671932
0.674617
0.677288
0.679875
0.68249
0.685044
0.687591
0.690049
0.692457
0.69477
0.697006
0.699223
0.701341
0.703376
0.705348
0.707247
0.709122
0.711
0.712846
0.714626
0.71637
0.718015
0.719608
0.721132
0.722623
0.724103
0.725609
0.727021
0.728381
0.729664
0.730877
0.732058
0.733218
0.734364
0.735483
0.736566
0.737609
0.738609
0.739567
0.740483
0.741366
0.742211
0.743027
0.743837
0.744608
0.745358
0.746122
0.746904
0.747711
0.748531
0.74943
0.749989
0.750605
0.751158
0.751524
0.751911
0.752305
0.752709
0.753126
0.75356
0.754011
0.754473
0.754949
0.755436
0.755933
0.756419
0.756911
0.75737
0.757793
0.758191
0.758564
0.758915
0.75924
0.759532
0.759792
0.760025
0.760244
0.76045
0.760664
0.760884
0.761113
0.761331
0.761552
0.761771
0.761993
0.762219
0.762456
0.762699
0.762949
0.763204
0.763456
0.763716
0.76389
0.764055
0.764223
0.764326
0.764437
0.764497
0.764556
0.764618
0.764681
0.76475
0.764825
0.764903
0.764994
0.765089
0.765189
0.765299
0.765421
0.765518
0.765618
0.765697
0.765787
0.765818
0.765821
0.765815
0.765795
0.765759
0.765725
0.765689
0.765667
0.765664
0.764687
0.764714
0.76473
0.764761
0.764779
0.764788
0.764781
0.764763
0.764731
0.764682
0.764611
0.764524
0.764433
0.764341
0.764251
0.764156
0.764041
0.764017
0.763977
0.763925
0.763885
0.763839
0.763782
0.763714
0.763634
0.763539
0.763432
0.763312
0.763178
0.763042
0.762899
0.762753
0.762657
0.762555
0.762444
0.762378
0.762303
0.762223
0.762138
0.762044
0.76194
0.761825
0.761699
0.761564
0.76142
0.761271
0.761118
0.760899
0.61234
0.611483
0.610861
0.610787
0.611009
0.612754
0.616773
0.62021
0.622501
0.623961
0.624862
0.625229
0.625428
0.625619
0.62577
0.626006
0.626234
0.626447
0.626636
0.626782
0.626856
0.626902
0.626902
0.62684
0.626708
0.626493
0.626201
0.625827
0.625231
0.624698
0.624117
0.623493
0.622856
0.622215
0.621598
0.621034
0.620671
0.620542
0.620576
0.620344
0.62031
0.620338
0.620452
0.620727
0.621252
0.621968
0.622967
0.624143
0.625575
0.62721
0.629126
0.631224
0.633505
0.635961
0.638639
0.641492
0.644445
0.647559
0.650756
0.654037
0.657358
0.660667
0.664014
0.66731
0.670666
0.673962
0.677229
0.680507
0.683635
0.686747
0.68974
0.692625
0.695475
0.698172
0.700908
0.703525
0.70612
0.708581
0.710981
0.713243
0.715417
0.717563
0.719571
0.721502
0.723352
0.725118
0.726855
0.728606
0.730315
0.731959
0.733563
0.73507
0.736516
0.737895
0.73924
0.740578
0.741937
0.743194
0.744411
0.745548
0.746628
0.747678
0.748707
0.749721
0.750711
0.751669
0.75259
0.753471
0.75431
0.755107
0.755878
0.756615
0.757315
0.758001
0.75865
0.759299
0.759961
0.760635
0.761345
0.762048
0.762823
0.763304
0.763813
0.764315
0.764623
0.764946
0.765275
0.76561
0.765955
0.766319
0.766699
0.767097
0.767511
0.767938
0.768374
0.768808
0.769248
0.76966
0.770046
0.770409
0.770748
0.771065
0.771357
0.771617
0.771844
0.772041
0.772223
0.772393
0.772569
0.772751
0.772941
0.773125
0.773314
0.773506
0.773705
0.773909
0.774124
0.774345
0.774576
0.774812
0.775043
0.77528
0.775444
0.775585
0.77573
0.775815
0.775908
0.775946
0.775987
0.77603
0.776081
0.776133
0.776202
0.77627
0.776351
0.776439
0.776527
0.776626
0.776732
0.776815
0.776902
0.77697
0.777046
0.777071
0.777072
0.77706
0.777034
0.776991
0.776949
0.776905
0.776872
0.776863
0.776226
0.776251
0.776256
0.776282
0.776293
0.776294
0.776279
0.776253
0.776214
0.776159
0.776082
0.77599
0.775895
0.775798
0.775704
0.775601
0.775484
0.775447
0.775395
0.775335
0.775283
0.775226
0.77516
0.775084
0.774995
0.774893
0.774778
0.774651
0.77451
0.774365
0.774212
0.77406
0.773948
0.773833
0.77371
0.773628
0.77354
0.773448
0.773351
0.773245
0.773131
0.773005
0.772869
0.772725
0.772572
0.772415
0.772253
0.772024
0.612399
0.611528
0.610861
0.611097
0.612443
0.615928
0.619499
0.621946
0.62345
0.624316
0.624629
0.624751
0.624791
0.624857
0.624936
0.625065
0.625185
0.625298
0.625394
0.625455
0.625459
0.625434
0.625375
0.625256
0.625079
0.62483
0.624519
0.623978
0.623531
0.623031
0.622507
0.621973
0.621461
0.620981
0.620782
0.620731
0.620671
0.620542
0.620589
0.620588
0.620832
0.621276
0.622005
0.622949
0.624225
0.625759
0.627674
0.629821
0.632252
0.634947
0.637978
0.64121
0.644651
0.648193
0.652032
0.656001
0.660141
0.664262
0.668554
0.672747
0.677075
0.681121
0.68529
0.689197
0.6932
0.697018
0.700742
0.704426
0.70782
0.711174
0.714303
0.717266
0.720154
0.722783
0.725477
0.727965
0.730415
0.732675
0.734862
0.736863
0.738764
0.74063
0.742306
0.743948
0.745497
0.746957
0.74837
0.749831
0.751236
0.752585
0.75389
0.75511
0.756271
0.757378
0.758449
0.75953
0.760627
0.761625
0.762597
0.763488
0.764339
0.765166
0.765974
0.766771
0.76755
0.768305
0.769029
0.769719
0.770368
0.770976
0.771571
0.772133
0.772664
0.773189
0.773682
0.774193
0.77472
0.77525
0.77583
0.776381
0.776995
0.777375
0.777743
0.778117
0.778333
0.778546
0.778759
0.778978
0.7792
0.779446
0.779702
0.779984
0.780289
0.780615
0.780953
0.781296
0.781647
0.781976
0.782291
0.782586
0.782857
0.78311
0.783339
0.783537
0.783704
0.783837
0.783959
0.784068
0.784179
0.784302
0.784422
0.78455
0.784679
0.784823
0.784972
0.785131
0.785303
0.785483
0.78567
0.785864
0.786054
0.786246
0.786379
0.786477
0.786582
0.786634
0.78668
0.786694
0.786697
0.78671
0.786722
0.786751
0.786789
0.786828
0.786891
0.786952
0.78702
0.787085
0.787161
0.787219
0.787277
0.787321
0.787369
0.787374
0.787362
0.787334
0.787291
0.787232
0.787171
0.787106
0.787052
0.787025
0.786572
0.786587
0.786575
0.786585
0.786581
0.786565
0.786534
0.786492
0.786436
0.786367
0.786277
0.786174
0.786068
0.785961
0.785857
0.785742
0.785619
0.785559
0.785492
0.785419
0.78535
0.785277
0.785197
0.785107
0.785006
0.784892
0.784766
0.784628
0.784477
0.784321
0.784155
0.783995
0.783863
0.783734
0.783598
0.783498
0.783394
0.783287
0.783175
0.783056
0.782927
0.782789
0.782642
0.782485
0.782321
0.782154
0.781983
0.781741
0.61245
0.611786
0.611348
0.612278
0.614926
0.618511
0.621176
0.622849
0.623779
0.624121
0.624203
0.624212
0.624169
0.624166
0.624168
0.624204
0.62424
0.624272
0.62429
0.624282
0.62423
0.62415
0.624044
0.623887
0.623683
0.623422
0.622949
0.622574
0.622172
0.621747
0.621332
0.621
0.620905
0.620947
0.620782
0.620731
0.620791
0.62092
0.621303
0.62191
0.622877
0.624134
0.625814
0.627812
0.630236
0.633012
0.636292
0.639853
0.643755
0.647956
0.652591
0.657385
0.662536
0.667416
0.672766
0.678147
0.683915
0.689182
0.694883
0.700107
0.705705
0.710537
0.715669
0.720201
0.724899
0.72922
0.733374
0.737395
0.740985
0.744486
0.747592
0.75052
0.753266
0.755596
0.758033
0.760094
0.762154
0.763967
0.765672
0.767178
0.768532
0.769882
0.770943
0.772036
0.773068
0.773957
0.774829
0.775748
0.776635
0.777449
0.778246
0.778957
0.779665
0.780311
0.780954
0.781621
0.782309
0.782893
0.783482
0.784002
0.78451
0.785007
0.785495
0.785979
0.786457
0.786921
0.787364
0.787781
0.788165
0.788513
0.788864
0.789184
0.789485
0.789783
0.790062
0.790374
0.79071
0.791039
0.791436
0.791771
0.792161
0.792397
0.792575
0.792793
0.792893
0.792971
0.793048
0.793126
0.793202
0.793303
0.79341
0.79355
0.793716
0.7939
0.794096
0.794299
0.794518
0.794721
0.794923
0.795115
0.795289
0.795447
0.795582
0.795694
0.795768
0.795816
0.795855
0.79588
0.795914
0.795932
0.795982
0.796011
0.796067
0.796133
0.796209
0.796302
0.796407
0.796536
0.796643
0.796782
0.796906
0.797026
0.797115
0.797157
0.797193
0.797204
0.797202
0.797166
0.79711
0.797075
0.797031
0.797021
0.797012
0.797019
0.797041
0.797053
0.797097
0.797102
0.797144
0.797164
0.797178
0.797177
0.797187
0.797166
0.797125
0.797068
0.796997
0.796911
0.796822
0.796728
0.796641
0.796584
0.796229
0.79622
0.796183
0.796168
0.796138
0.796097
0.79604
0.795972
0.795891
0.795801
0.795691
0.795568
0.795444
0.795321
0.795199
0.795067
0.794932
0.794841
0.794754
0.794662
0.794571
0.794477
0.794376
0.794267
0.794148
0.794018
0.793876
0.793722
0.793556
0.793386
0.793205
0.793033
0.792875
0.792731
0.792578
0.792456
0.792333
0.792207
0.792077
0.791941
0.791796
0.791643
0.79148
0.791309
0.791131
0.790951
0.790768
0.79051
0.612535
0.612302
0.612289
0.614054
0.617335
0.620181
0.622114
0.623215
0.623667
0.623763
0.623751
0.623683
0.623593
0.623526
0.623471
0.623435
0.623404
0.623372
0.62333
0.623271
0.623176
0.623059
0.622923
0.622749
0.622544
0.622131
0.621839
0.621525
0.621216
0.621028
0.621006
0.621
0.620905
0.620947
0.621004
0.621236
0.621782
0.6226
0.623843
0.625442
0.627544
0.630091
0.63322
0.636809
0.640924
0.645417
0.650579
0.656041
0.66205
0.668113
0.674862
0.681541
0.688985
0.69531
0.702462
0.709417
0.717147
0.723671
0.731421
0.737968
0.745394
0.751151
0.757636
0.762897
0.768457
0.773302
0.777975
0.782189
0.785943
0.789443
0.792278
0.795029
0.797186
0.79917
0.80102
0.802525
0.803928
0.805039
0.805921
0.806698
0.807079
0.807723
0.807721
0.807863
0.808222
0.807962
0.808185
0.80797
0.808128
0.807899
0.807966
0.807699
0.807735
0.80748
0.807522
0.807422
0.807477
0.807408
0.807464
0.807452
0.807499
0.807539
0.807594
0.80765
0.807717
0.807786
0.807854
0.80791
0.80795
0.807965
0.808
0.808009
0.80801
0.808019
0.808012
0.808071
0.808169
0.808247
0.808391
0.808442
0.808559
0.808588
0.808547
0.808566
0.808505
0.808418
0.808327
0.808224
0.808126
0.808033
0.807963
0.807911
0.807919
0.807932
0.807964
0.808005
0.808067
0.808123
0.808189
0.808245
0.808289
0.808316
0.808325
0.808319
0.808289
0.80823
0.808161
0.808075
0.807999
0.8079
0.807841
0.807759
0.807723
0.807685
0.807678
0.807686
0.807701
0.807744
0.807759
0.807819
0.807843
0.807892
0.807905
0.807882
0.80785
0.807788
0.807714
0.807615
0.807495
0.807392
0.807281
0.80721
0.807143
0.807097
0.807065
0.807022
0.807015
0.806964
0.806792
0.806755
0.806708
0.806815
0.806775
0.806713
0.806631
0.806534
0.806425
0.806303
0.806175
0.806042
0.805912
0.805615
0.805504
0.805455
0.805388
0.805334
0.80527
0.805194
0.805103
0.805001
0.804886
0.804765
0.804627
0.804477
0.804328
0.80418
0.804036
0.803881
0.803726
0.803594
0.803484
0.803366
0.803247
0.803125
0.802997
0.802864
0.802721
0.802569
0.802405
0.802231
0.802046
0.801857
0.801658
0.801468
0.801281
0.801118
0.800946
0.800796
0.80065
0.800502
0.80035
0.800193
0.800028
0.799855
0.799674
0.799484
0.799289
0.799093
0.798896
0.798617
0.612642
0.612909
0.613561
0.616089
0.618972
0.621187
0.622556
0.623213
0.623373
0.623387
0.62331
0.62319
0.623062
0.622949
0.622849
0.622762
0.622682
0.622602
0.622518
0.622423
0.622303
0.622169
0.622027
0.621862
0.62152
0.621302
0.621089
0.621012
0.621063
0.621028
0.621006
0.621062
0.621206
0.621547
0.622226
0.623223
0.624724
0.626667
0.629257
0.632389
0.63616
0.64057
0.645716
0.651434
0.657894
0.664403
0.671879
0.67973
0.688598
0.696607
0.705877
0.714527
0.7252
0.733221
0.742854
0.751567
0.761871
0.769749
0.7792
0.786297
0.794834
0.80106
0.807725
0.813319
0.818841
0.823534
0.827956
0.831614
0.835137
0.83773
0.8402
0.842273
0.843657
0.845291
0.846025
0.847595
0.84772
0.848591
0.848313
0.84881
0.848178
0.848481
0.847716
0.847109
0.8469
0.845798
0.845549
0.844503
0.843875
0.842884
0.842135
0.841165
0.840397
0.839443
0.838775
0.83793
0.837156
0.836263
0.83553
0.834729
0.834088
0.833439
0.83286
0.832289
0.831755
0.831252
0.830808
0.830379
0.829965
0.829539
0.829163
0.828773
0.828397
0.828035
0.827673
0.82741
0.82721
0.826999
0.826794
0.826517
0.826307
0.826064
0.82577
0.825558
0.825295
0.825007
0.824711
0.824394
0.82409
0.823768
0.823491
0.823209
0.823029
0.822835
0.822669
0.822519
0.82239
0.82227
0.822171
0.822068
0.82196
0.821841
0.821709
0.82156
0.821395
0.821208
0.821011
0.820798
0.820586
0.820358
0.820162
0.819949
0.819797
0.819643
0.819526
0.819428
0.819333
0.819267
0.819179
0.81913
0.819055
0.818998
0.818921
0.818813
0.818693
0.818548
0.818391
0.818213
0.818013
0.817828
0.81764
0.817493
0.817352
0.817238
0.817137
0.817032
0.816951
0.81673
0.816638
0.816534
0.816419
0.816295
0.816309
0.816192
0.816059
0.815911
0.815753
0.815585
0.815411
0.815229
0.815048
0.814754
0.814593
0.814495
0.814384
0.814283
0.814175
0.814055
0.813921
0.813776
0.813618
0.813459
0.813286
0.813102
0.812919
0.81274
0.812566
0.812381
0.812199
0.812021
0.81188
0.81173
0.811576
0.81142
0.81126
0.811095
0.810923
0.810742
0.810551
0.810352
0.810143
0.809931
0.80971
0.809495
0.809277
0.80909
0.808895
0.808711
0.808539
0.808365
0.808187
0.808005
0.807816
0.80762
0.807416
0.807205
0.806988
0.806773
0.806557
0.806253
0.612807
0.613684
0.614936
0.617613
0.620031
0.621724
0.622683
0.622993
0.623054
0.623018
0.622895
0.622739
0.622583
0.62244
0.622309
0.622189
0.622075
0.621965
0.621856
0.621743
0.621618
0.621491
0.62137
0.621089
0.62096
0.620952
0.621049
0.621012
0.621063
0.621137
0.621352
0.621772
0.622568
0.623711
0.625424
0.627651
0.630603
0.634238
0.638738
0.64401
0.650046
0.656765
0.66445
0.672716
0.682246
0.690821
0.70092
0.711454
0.724501
0.73453
0.747251
0.757839
0.771161
0.78039
0.792046
0.801156
0.812571
0.821203
0.83079
0.838409
0.846065
0.852464
0.858324
0.8636
0.867956
0.872078
0.875425
0.878311
0.881185
0.882292
0.885084
0.885518
0.886813
0.887783
0.887205
0.889193
0.888044
0.88882
0.88782
0.88812
0.886901
0.886969
0.88572
0.88488
0.884184
0.882661
0.882144
0.880627
0.879505
0.878059
0.876839
0.875395
0.874188
0.872747
0.871579
0.870206
0.868842
0.867369
0.866016
0.864622
0.86338
0.862122
0.860929
0.859734
0.858571
0.857448
0.856394
0.855366
0.854389
0.853418
0.852534
0.851654
0.850838
0.850023
0.849286
0.848638
0.848053
0.84747
0.846858
0.846198
0.845602
0.845026
0.844409
0.843937
0.843426
0.842888
0.842342
0.841775
0.841223
0.84064
0.840119
0.83957
0.839157
0.838729
0.838325
0.837953
0.8376
0.837274
0.836983
0.836696
0.836405
0.836108
0.835802
0.835489
0.835163
0.834826
0.834481
0.834119
0.833757
0.833379
0.83303
0.832669
0.83238
0.832089
0.831845
0.831619
0.831397
0.831202
0.830998
0.830818
0.830622
0.830447
0.830261
0.830049
0.829826
0.829584
0.82933
0.829059
0.82877
0.82849
0.828212
0.827974
0.827748
0.827553
0.82737
0.827189
0.826941
0.826749
0.826572
0.826387
0.826193
0.825994
0.825812
0.825723
0.825526
0.825317
0.825101
0.824877
0.824648
0.824409
0.824057
0.823846
0.823627
0.823471
0.823304
0.823147
0.822985
0.822813
0.822628
0.822432
0.822223
0.822017
0.821801
0.821576
0.821353
0.821135
0.820924
0.820704
0.820486
0.820257
0.820078
0.819888
0.819694
0.819498
0.819298
0.819096
0.818888
0.818674
0.818451
0.81822
0.817983
0.817742
0.817495
0.81725
0.816998
0.816782
0.816559
0.816338
0.816135
0.81593
0.815722
0.81551
0.815294
0.815071
0.81484
0.814603
0.814361
0.814124
0.813886
0.813551
0.613078
0.614434
0.616152
0.618655
0.620658
0.621948
0.622564
0.622732
0.622748
0.622666
0.622511
0.622335
0.622163
0.622002
0.621854
0.621715
0.621585
0.621462
0.621346
0.621234
0.621128
0.621035
0.620836
0.620856
0.62096
0.620952
0.621049
0.621141
0.62141
0.621884
0.622743
0.623973
0.625821
0.62823
0.631478
0.635509
0.64047
0.646383
0.653318
0.661226
0.670161
0.679375
0.690025
0.701057
0.714473
0.72526
0.738846
0.752289
0.768977
0.780512
0.795828
0.806812
0.821169
0.831789
0.843422
0.853388
0.863186
0.872427
0.880461
0.887981
0.893535
0.899841
0.903258
0.908638
0.910156
0.914508
0.91501
0.918123
0.918727
0.919624
0.921096
0.919945
0.922036
0.921043
0.921434
0.921377
0.91983
0.921017
0.919442
0.919744
0.918143
0.918143
0.916576
0.916201
0.915073
0.913626
0.913277
0.911595
0.910639
0.909138
0.908039
0.906531
0.905305
0.903771
0.902602
0.901054
0.89947
0.897795
0.896177
0.894527
0.89296
0.891363
0.889798
0.888206
0.886608
0.885022
0.883496
0.881974
0.880508
0.879059
0.877676
0.87631
0.875011
0.873739
0.872586
0.871504
0.870499
0.869478
0.86843
0.867346
0.866295
0.865341
0.86439
0.863611
0.86281
0.861989
0.861161
0.860314
0.859477
0.858618
0.85782
0.856988
0.856305
0.855606
0.854938
0.854309
0.853708
0.853145
0.852627
0.852128
0.851629
0.851129
0.850629
0.850125
0.84962
0.849111
0.848599
0.848071
0.847543
0.846999
0.846481
0.845953
0.84551
0.845065
0.844675
0.844304
0.843937
0.8436
0.843258
0.842934
0.842596
0.84229
0.841976
0.841646
0.841307
0.840952
0.840589
0.840215
0.839826
0.839439
0.839062
0.83872
0.838397
0.838105
0.837829
0.837483
0.837222
0.836942
0.836668
0.836392
0.836109
0.835824
0.835556
0.835294
0.835021
0.834829
0.834545
0.834257
0.833963
0.833567
0.833258
0.832978
0.832692
0.832468
0.832236
0.832015
0.831791
0.831557
0.831313
0.831058
0.830791
0.830531
0.830264
0.829991
0.829721
0.829459
0.829203
0.828941
0.828679
0.828399
0.828171
0.827936
0.827695
0.827453
0.827207
0.826962
0.826714
0.82646
0.826198
0.825931
0.825661
0.825387
0.825109
0.82483
0.824539
0.82429
0.824034
0.823773
0.823533
0.823293
0.82305
0.822805
0.822557
0.822303
0.822042
0.821775
0.821504
0.821241
0.820977
0.820606
0.613319
0.615053
0.617115
0.619358
0.621006
0.622001
0.622373
0.622473
0.622454
0.62234
0.622166
0.621982
0.621805
0.621638
0.621484
0.621342
0.621211
0.621091
0.620986
0.620899
0.620837
0.620763
0.620836
0.620856
0.620967
0.621078
0.621365
0.621846
0.622714
0.623962
0.62586
0.628355
0.631736
0.635959
0.641283
0.647713
0.655237
0.66379
0.673596
0.684426
0.696935
0.708627
0.722726
0.736943
0.754718
0.767943
0.78448
0.799099
0.816757
0.830835
0.845847
0.858371
0.87117
0.88292
0.892983
0.902971
0.909611
0.919162
0.923617
0.931017
0.932841
0.939154
0.939214
0.944035
0.942578
0.946493
0.944556
0.94763
0.945362
0.947218
0.945121
0.944718
0.944895
0.942757
0.944427
0.94212
0.940546
0.941628
0.939265
0.939745
0.937669
0.937678
0.93576
0.935943
0.934799
0.933425
0.933475
0.931865
0.931503
0.930213
0.929664
0.928363
0.927801
0.926649
0.925942
0.924742
0.923677
0.922361
0.921124
0.919803
0.918544
0.917186
0.915818
0.914345
0.9128
0.911232
0.90963
0.908003
0.906366
0.904723
0.903082
0.901449
0.899819
0.898272
0.896766
0.895351
0.893962
0.892537
0.891082
0.8896
0.888118
0.886771
0.88548
0.884382
0.883273
0.882156
0.881036
0.879894
0.878763
0.877604
0.876505
0.875368
0.874388
0.873392
0.872443
0.871528
0.870659
0.869837
0.869069
0.868331
0.867601
0.866876
0.866163
0.865449
0.864747
0.864049
0.863355
0.862646
0.861935
0.861212
0.860507
0.859798
0.859187
0.858571
0.858019
0.857488
0.85696
0.856468
0.85585
0.855372
0.854885
0.854424
0.853977
0.853518
0.853156
0.852678
0.852194
0.851704
0.851204
0.850705
0.850216
0.849762
0.84933
0.848929
0.84846
0.84809
0.847726
0.847347
0.846969
0.846592
0.846209
0.845829
0.845464
0.845118
0.844763
0.844404
0.844045
0.843684
0.843318
0.842941
0.842559
0.842201
0.841842
0.841542
0.841235
0.840942
0.840648
0.840346
0.840034
0.839715
0.839383
0.83906
0.838735
0.83841
0.838087
0.837773
0.837467
0.837156
0.836842
0.836511
0.836225
0.835937
0.835645
0.83535
0.835053
0.83476
0.834465
0.834166
0.833861
0.833553
0.833244
0.832933
0.83262
0.832301
0.83197
0.831682
0.831387
0.831085
0.830802
0.830522
0.830241
0.829959
0.829675
0.829386
0.829091
0.82879
0.828486
0.828193
0.827901
0.827488
0.613559
0.615617
0.617854
0.619832
0.621191
0.621932
0.622175
0.622231
0.622178
0.622045
0.621865
0.621681
0.621508
0.621346
0.621199
0.621066
0.620949
0.620851
0.620778
0.620742
0.620759
0.620763
0.620852
0.620966
0.621238
0.621686
0.622499
0.623683
0.625522
0.627977
0.631373
0.635655
0.641078
0.647667
0.655556
0.664827
0.675433
0.686691
0.699755
0.713585
0.730705
0.745093
0.763255
0.77939
0.799164
0.816082
0.833177
0.849829
0.865404
0.882122
0.894881
0.908615
0.918312
0.929795
0.936675
0.946299
0.948384
0.95947
0.957912
0.965098
0.964066
0.968981
0.966389
0.970268
0.966936
0.969748
0.965989
0.967905
0.963671
0.964739
0.960818
0.96151
0.958771
0.955868
0.957158
0.953521
0.953935
0.951861
0.948832
0.949501
0.947176
0.947252
0.94529
0.945736
0.944324
0.9431
0.943189
0.941587
0.941664
0.940347
0.940102
0.939019
0.939044
0.9381
0.937896
0.936994
0.93658
0.935683
0.935187
0.93438
0.933846
0.933124
0.932449
0.931605
0.930763
0.929834
0.928832
0.927766
0.926653
0.925489
0.924253
0.922982
0.921666
0.920345
0.918996
0.917692
0.916302
0.91481
0.913236
0.911591
0.909885
0.908305
0.906797
0.905416
0.904083
0.902734
0.901379
0.899991
0.898609
0.897198
0.895823
0.894407
0.893145
0.891866
0.890652
0.889458
0.888317
0.887233
0.886202
0.885208
0.884231
0.883272
0.882326
0.881389
0.880473
0.879576
0.878682
0.87778
0.876874
0.875958
0.87506
0.874157
0.873367
0.872568