/*--------------------------------*- C++ -*----------------------------------*\
| =========                 |                                                 |
| \\      /  F ield         | OpenFOAM: The Open Source CFD Toolbox           |
|  \\    /   O peration     | Version:  2312                                  |
|   \\  /    A nd           | Website:  www.openfoam.com                      |
|    \\/     M anipulation  |                                                 |
\*---------------------------------------------------------------------------*/
FoamFile
{
    version     2.0;
    format      ascii;
    arch        "LSB;label=32;scalar=64";
    class       volScalarField;
    location    "0.002";
    object      nut;
}
// * * * * * * * * * * * * * * * * * * * * * * * * * * * * * * * * * * * * * //

dimensions      [0 2 -1 0 0 0 0];

internalField   nonuniform List<scalar> 
48128
(
3.30994e-06
4.24623e-06
5.63051e-06
5.68161e-06
5.2416e-06
4.5774e-06
3.85471e-06
3.19356e-06
2.48927e-06
1.71668e-06
4.95259e-06
2.95958e-05
9.12477e-05
0.000158664
0.000215668
0.000263314
0.000303818
0.000339365
0.000371699
0.00040193
0.000430912
0.000459245
0.000487202
0.000514983
0.000542835
0.000570912
0.000599402
0.00062878
0.000659012
0.000690545
0.000723043
0.000756579
0.000791374
0.000827345
0.000864266
0.000902734
0.000943058
0.00098505
0.00102679
0.00106978
0.00111277
0.0011567
0.00119867
0.0012411
0.00128421
0.00132699
0.00136454
0.00139738
0.00142472
0.00145233
0.00147495
0.00149614
0.00150743
0.00152162
0.0015333
0.00156074
0.00158586
0.00161038
0.00163003
0.00164748
0.00166072
0.00167096
0.00167824
0.00168343
0.00168706
0.00168919
0.00168973
0.00168906
0.00165239
0.00155774
0.00147174
0.0013955
0.00132604
0.00126342
0.00120617
0.00115375
0.00110567
0.00106127
0.00102078
0.000983012
0.000948489
0.000916469
0.000886703
0.000859594
0.000833996
0.000810435
0.000788086
0.000767398
0.000747617
0.000729501
0.000712399
0.000696741
0.000682001
0.000668333
0.000655399
0.000643241
0.000631437
0.000620576
0.000610497
0.000601305
0.000592821
0.000584874
0.000577323
0.000570134
0.000563327
0.000556946
0.000550991
0.000545447
0.000540249
0.00053541
0.000530911
0.000526706
0.000522805
0.000519096
0.000515658
0.000512365
0.000509156
0.00050583
0.000502565
0.000499116
0.000496174
0.000494126
0.000491895
0.000490174
0.000488657
0.000487007
0.00048531
0.000483576
0.000481799
0.000480033
0.000478296
0.000476629
0.00047506
0.000473556
0.000472114
0.000470765
0.000469514
0.000468408
0.000467394
0.000466443
0.000465502
0.000464612
0.000463761
0.000462985
0.00046224
0.000461518
0.000460778
0.000460037
0.000459234
0.000458415
0.000457572
0.000456782
0.000456023
0.000455276
0.000454504
0.000453723
0.000452931
0.000452103
0.000451294
0.000450579
0.000449831
0.000449247
0.000448852
0.000448412
0.000447972
0.000447613
0.000447226
0.000446886
0.000446512
0.000446095
0.000445659
0.000445181
0.00044468
0.000444164
0.000443636
0.000443094
0.000442611
0.000442117
0.000441706
0.000441387
0.000441095
0.000440842
0.000440605
0.000440427
0.000440239
0.000440022
0.000439789
0.000439537
0.000439246
0.000438913
0.00043854
0.000438168
0.000437791
0.000437407
0.00043709
0.000436797
0.000436574
0.00043638
0.00043621
0.00043606
0.000435916
0.000435777
0.000435644
0.000435485
0.000435283
0.000435049
0.000434773
0.000434517
0.000434238
0.000433821
0.000433599
0.0004334
0.0004332
0.000433039
0.000432899
0.000432776
0.00043266
0.000432537
0.0004324
0.000432251
0.000432091
0.000431898
0.000431696
0.000431449
0.000431134
0.000430924
0.00043071
0.00043048
0.000430324
0.000430185
0.000430055
0.000429937
0.000429821
0.000429699
0.000429563
0.000429417
0.00042926
0.000429094
0.0004289
0.00042859
2.51256e-05
1.93431e-05
1.30045e-05
8.5666e-06
6.36204e-06
5.52472e-06
6.26172e-06
1.1554e-05
2.22236e-05
4.21894e-05
9.17765e-05
0.000185479
0.000335953
0.000566904
0.00082088
0.00109227
0.00136777
0.00163821
0.00190361
0.00216651
0.00243144
0.0027019
0.00298477
0.00327874
0.00358887
0.00391385
0.00425609
0.00461814
0.00498087
0.005379
0.00579167
0.00620701
0.00663392
0.00706935
0.00749243
0.00790754
0.00826865
0.00864369
0.00899901
0.0093473
0.0096867
0.0100254
0.0103331
0.0106148
0.0108641
0.0111183
0.0113486
0.0115442
0.0116868
0.0118368
0.0119477
0.0120634
0.0121037
0.0121578
0.0121794
0.0121752
0.0121221
0.0120572
0.0119695
0.0118718
0.0117537
0.0116205
0.0114764
0.0113247
0.0111694
0.0110106
0.0108476
0.0106831
0.0105154
0.0103591
0.010204
0.0100461
0.00988937
0.0097279
0.00957249
0.00941185
0.00925911
0.0090979
0.00894439
0.00878569
0.00863041
0.00848174
0.00833061
0.00818778
0.00804408
0.00790608
0.00776966
0.00763964
0.00750823
0.00738209
0.00725609
0.00713467
0.00701573
0.00690157
0.00679089
0.00668521
0.00658111
0.00647902
0.00637941
0.00628325
0.00619084
0.00610234
0.00601734
0.00593518
0.00585547
0.00577813
0.0057034
0.00563124
0.00556142
0.00549455
0.0054301
0.00536858
0.00530946
0.00525268
0.00519861
0.00514591
0.00509641
0.00504641
0.0049978
0.00494844
0.00490004
0.00485532
0.00481041
0.00477032
0.00473222
0.0046965
0.00466271
0.00463031
0.00459856
0.00456774
0.00453727
0.00450757
0.00447832
0.00444996
0.00442157
0.00439346
0.0043664
0.00433991
0.00431397
0.00428973
0.00426622
0.0042439
0.004222
0.00420181
0.00417508
0.00414595
0.00411706
0.00408844
0.00406037
0.00403348
0.00400692
0.0039812
0.00395596
0.00393149
0.00390821
0.00388555
0.00386355
0.00384205
0.00382149
0.00380093
0.00378129
0.00376117
0.00374121
0.00372163
0.00370182
0.00368369
0.00366513
0.00364809
0.00363168
0.00361584
0.00360101
0.00358664
0.00357441
0.00356153
0.00355106
0.00353978
0.00352952
0.00351901
0.00350856
0.00349766
0.00348653
0.00347584
0.00346448
0.00345459
0.00344451
0.00343487
0.00342561
0.00341665
0.00340814
0.00340076
0.0033937
0.00338786
0.00338073
0.00337598
0.00337
0.00336485
0.00335866
0.00335249
0.00334613
0.00333974
0.00333339
0.00332715
0.00332112
0.0033155
0.00331057
0.00330603
0.00330196
0.00329836
0.00329436
0.00329229
0.00328882
0.00328521
0.00328188
0.00327804
0.00327401
0.00326973
0.00326566
0.00326153
0.00325772
0.00325402
0.00325055
0.00324788
0.00324526
0.00324262
0.00324118
0.00323916
0.00323688
0.00323523
0.00323304
0.00323056
0.00322779
0.00322489
0.003222
0.00321921
0.00321641
0.00321397
0.00321152
0.0032095
0.00320784
0.00320596
3.37547e-05
3.69316e-05
3.75644e-05
2.63915e-05
1.90967e-05
2.33085e-05
4.50571e-05
8.40024e-05
0.000150633
0.000269379
0.000484996
0.000883259
0.00149524
0.00236039
0.00329427
0.00421836
0.00507399
0.005861
0.00659052
0.00728342
0.00795465
0.00860318
0.00926651
0.009929
0.0106067
0.0112932
0.0119922
0.0127066
0.0134176
0.0141448
0.0148647
0.0155726
0.0162744
0.0169539
0.0175827
0.0181915
0.0187527
0.01931
0.019815
0.0202873
0.0207241
0.0211495
0.0215171
0.02183
0.0220688
0.0223021
0.022492
0.0226288
0.0226707
0.0227168
0.0227008
0.0226818
0.0225623
0.0224546
0.0223129
0.0221413
0.021924
0.021687
0.0214254
0.0211567
0.0208621
0.0205525
0.0202336
0.0199106
0.0195889
0.0192686
0.0189484
0.0186322
0.018313
0.0180008
0.0176891
0.0173776
0.017075
0.0167726
0.0164821
0.0161925
0.0159163
0.015635
0.0153666
0.0150965
0.0148318
0.0145787
0.0143252
0.0140847
0.0138439
0.0136128
0.0133834
0.0131652
0.0129464
0.0127367
0.0125286
0.0123281
0.0121312
0.0119416
0.0117567
0.0115783
0.011403
0.011231
0.011063
0.0109
0.0107426
0.0105908
0.0104437
0.0103005
0.0101608
0.0100247
0.00989245
0.00976412
0.00963932
0.00951883
0.00940189
0.00928955
0.00918041
0.00907525
0.00897349
0.00887425
0.00877955
0.00868347
0.00858993
0.00849519
0.00840156
0.00831467
0.00822684
0.00814679
0.00806952
0.00799662
0.00792577
0.00785753
0.00778995
0.00772447
0.00765979
0.00759684
0.00753494
0.0074747
0.00741447
0.00735546
0.00729744
0.00724121
0.0071858
0.00713275
0.00708006
0.00702991
0.00698067
0.00693376
0.00688805
0.00684476
0.00680253
0.00676241
0.00672275
0.00668478
0.0066473
0.00661101
0.00657592
0.00654183
0.00650867
0.00647569
0.006443
0.00640987
0.00637673
0.00634366
0.00631126
0.00627911
0.0062488
0.0062188
0.00619019
0.0061626
0.00613668
0.00611182
0.00608845
0.00606565
0.00604398
0.00602318
0.0060031
0.0059832
0.00596337
0.00594322
0.00592289
0.00590242
0.00588188
0.00586178
0.0058419
0.00582255
0.00580385
0.00578676
0.00577062
0.00575535
0.00574095
0.00572736
0.00571426
0.00570178
0.00568921
0.00567717
0.0056644
0.00565222
0.00563946
0.00562677
0.00561407
0.00560152
0.00558905
0.00557714
0.005566
0.00555561
0.00554623
0.00553773
0.00552965
0.00552218
0.0055146
0.00550772
0.00549969
0.00549226
0.00548483
0.00547675
0.00546862
0.00546042
0.00545228
0.00544424
0.00543713
0.00543027
0.00542424
0.00541852
0.00541366
0.00540905
0.00540509
0.00540022
0.00539578
0.00539139
0.00538645
0.00538139
0.00537628
0.00537103
0.00536576
0.00536058
0.00535574
0.00535148
0.0053473
0.00534392
0.00534045
0.00533779
0.00533516
0.00533118
4.01957e-05
6.19356e-05
7.97784e-05
6.07178e-05
6.18203e-05
0.000102729
0.000173901
0.000298698
0.000511827
0.000893669
0.00159297
0.00267435
0.00412174
0.00579445
0.00737559
0.0088001
0.010057
0.0111962
0.0122354
0.0132065
0.0141409
0.0150482
0.0159596
0.0168626
0.0177731
0.0186843
0.0195951
0.0205048
0.021399
0.0222858
0.0231425
0.0239705
0.0247519
0.0254958
0.0261769
0.0268163
0.0273996
0.02795
0.0284226
0.028835
0.0291846
0.0295033
0.0297503
0.0299344
0.030016
0.0300734
0.0300745
0.0300194
0.0298678
0.0297049
0.0294806
0.0292403
0.028917
0.0286014
0.0282543
0.0278781
0.0274794
0.0270623
0.026635
0.0262022
0.0257547
0.025305
0.0248566
0.024415
0.0239826
0.0235598
0.0231443
0.0227423
0.0223432
0.0219581
0.0215776
0.0212086
0.0208502
0.0205009
0.0201619
0.0198323
0.0195158
0.0192028
0.0189018
0.0186057
0.0183172
0.0180399
0.0177679
0.0175071
0.0172499
0.0170012
0.016755
0.0165182
0.0162838
0.016058
0.0158362
0.0156221
0.0154126
0.0152099
0.0150119
0.014819
0.0146293
0.0144432
0.0142618
0.0140852
0.0139142
0.0137486
0.0135871
0.0134292
0.0132746
0.0131235
0.0129762
0.012833
0.0126935
0.012558
0.0124262
0.0122989
0.0121746
0.0120545
0.0119372
0.0118229
0.0117126
0.0116001
0.0114898
0.0113781
0.0112663
0.0111628
0.0110586
0.0109625
0.01087
0.010782
0.0106959
0.0106128
0.0105298
0.0104489
0.0103684
0.0102896
0.0102118
0.0101357
0.0100593
0.00998448
0.00991022
0.00983813
0.00976678
0.00969817
0.00962928
0.00956328
0.00949812
0.00943576
0.00937456
0.00931627
0.00925912
0.00920458
0.00915039
0.00909842
0.00904683
0.00899669
0.0089478
0.00890027
0.00885357
0.00880733
0.00876105
0.00871439
0.00866739
0.0086205
0.00857438
0.00852855
0.00848503
0.00844236
0.00840127
0.00836156
0.00832426
0.00828808
0.00825403
0.00822043
0.00818849
0.00815704
0.00812672
0.00809643
0.00806637
0.00803603
0.00800562
0.00797518
0.00794448
0.00791504
0.00788541
0.00785703
0.00782914
0.00780348
0.00777858
0.00775536
0.0077328
0.00771206
0.00769121
0.00767154
0.00765169
0.00763243
0.00761255
0.00759274
0.00757277
0.0075528
0.00753316
0.00751393
0.00749491
0.00747682
0.00745963
0.00744362
0.00742844
0.00741473
0.00740136
0.00738912
0.00737676
0.00736547
0.00735261
0.00733994
0.00732758
0.00731508
0.00730253
0.00728993
0.00727765
0.00726561
0.00725469
0.00724423
0.00723464
0.0072257
0.00721772
0.00721005
0.00720376
0.00719588
0.00718838
0.00718123
0.00717363
0.00716594
0.00715823
0.00715055
0.00714287
0.00713555
0.00712857
0.00712238
0.00711634
0.00711118
0.007106
0.00710162
0.0070973
0.00709101
4.53886e-05
0.000122312
0.000168225
0.000127003
0.00017583
0.000267902
0.000434194
0.000722477
0.00125631
0.00218423
0.00361153
0.00552
0.00761395
0.00968891
0.0115737
0.0132606
0.0147828
0.0161188
0.0173568
0.018515
0.0196255
0.0207023
0.021768
0.0228171
0.0238595
0.0248887
0.0258997
0.02689
0.0278456
0.0287687
0.0296358
0.0304445
0.0311877
0.0318752
0.0324883
0.0330396
0.0335236
0.033949
0.0342826
0.0345305
0.0347005
0.0348225
0.0348646
0.0348257
0.0346619
0.034459
0.0341912
0.0338725
0.0334767
0.0330602
0.0325924
0.0321062
0.0315711
0.0310335
0.0302507
0.0294994
0.0288308
0.0281741
0.0275285
0.0269365
0.0263688
0.0259182
0.0254404
0.0250704
0.024656
0.0242803
0.02396
0.0236052
0.0233331
0.0229975
0.0226112
0.0222428
0.0218816
0.0215391
0.0212029
0.0208853
0.0205774
0.0202825
0.0199994
0.0197272
0.0194657
0.0192133
0.0189725
0.0187386
0.0185124
0.0182913
0.0180737
0.0178623
0.0176554
0.017455
0.0172607
0.0170726
0.01689
0.0167125
0.016539
0.0163689
0.0162016
0.0160373
0.0158772
0.015721
0.015569
0.0154218
0.0152774
0.015136
0.014997
0.0148611
0.0147281
0.0145988
0.0144726
0.0143496
0.0142297
0.0141134
0.0139997
0.0138892
0.0137809
0.013675
0.013572
0.0134668
0.0133625
0.0132577
0.0131506
0.0130523
0.0129533
0.0128609
0.012773
0.0126892
0.012607
0.0125277
0.0124482
0.0123703
0.0122923
0.0122157
0.0121392
0.0120641
0.0119883
0.0119139
0.0118395
0.0117669
0.0116948
0.0116252
0.0115551
0.0114875
0.0114205
0.0113561
0.011293
0.0112326
0.0111735
0.0111169
0.0110605
0.0110062
0.0109519
0.0108992
0.0108471
0.0107965
0.0107462
0.0106965
0.0106463
0.0105957
0.0105443
0.010493
0.010442
0.0103911
0.0103428
0.0102955
0.0102498
0.0102056
0.0101641
0.0101238
0.0100858
0.0100483
0.0100124
0.00997672
0.00994209
0.0099073
0.00987275
0.00983771
0.00980285
0.00976774
0.00973219
0.0096982
0.00966387
0.00963112
0.00959854
0.00956842
0.00953906
0.00951192
0.00948523
0.00946091
0.00943623
0.00941293
0.00938896
0.00936597
0.00934197
0.00931823
0.00929395
0.00926994
0.00924607
0.00922296
0.00920001
0.00917834
0.00915745
0.00913806
0.00911935
0.0091025
0.00908587
0.00907068
0.00905527
0.00904118
0.00902551
0.00900974
0.00899415
0.00897875
0.00896331
0.00894781
0.0089329
0.00891834
0.008905
0.00889226
0.00888046
0.00886938
0.00885959
0.00884995
0.00884206
0.00883256
0.00882327
0.00881437
0.00880509
0.00879575
0.00878639
0.00877726
0.00876814
0.00875957
0.00875138
0.00874414
0.00873714
0.00873109
0.00872507
0.00871975
0.00871447
0.00870683
5.00478e-05
0.000237492
0.000301931
0.000249114
0.000349585
0.000536333
0.00086427
0.00146532
0.00254487
0.00416168
0.00630686
0.00867808
0.0110725
0.013335
0.0153861
0.0172523
0.0188806
0.0203543
0.0217188
0.0229931
0.024209
0.0253804
0.0265244
0.0276398
0.0287303
0.029791
0.0308141
0.031795
0.0327191
0.0335822
0.0343654
0.0350767
0.0357058
0.0362615
0.0367254
0.0370961
0.0373851
0.0375929
0.0377015
0.037689
0.0375993
0.0374447
0.0372066
0.0367783
0.0358218
0.0348341
0.0336924
0.0325317
0.0316401
0.0307184
0.0297689
0.0288208
0.0280017
0.0273562
0.0265321
0.0258342
0.0250671
0.0245355
0.0238218
0.0233464
0.0227214
0.02237
0.0218731
0.0215453
0.0211395
0.0207928
0.0204964
0.0201718
0.0199408
0.019703
0.0195033
0.0193567
0.019193
0.0191028
0.018967
0.0188831
0.0187911
0.0187461
0.0186845
0.0186616
0.0186401
0.0185972
0.0185462
0.0183681
0.0182003
0.018033
0.0178706
0.0177111
0.0175573
0.0174077
0.017264
0.0171245
0.0169907
0.0168598
0.0167313
0.0166046
0.0164799
0.0163565
0.0162367
0.016119
0.0160042
0.015893
0.0157833
0.0156758
0.0155694
0.0154652
0.0153626
0.015263
0.0151655
0.0150703
0.0149774
0.0148866
0.0147979
0.0147109
0.0146254
0.0145412
0.0144587
0.014374
0.0142896
0.0142048
0.0141167
0.0140362
0.0139557
0.0138786
0.0138069
0.0137388
0.0136724
0.0136081
0.0135439
0.0134807
0.0134169
0.0133539
0.0132903
0.0132275
0.0131638
0.0131009
0.0130375
0.0129753
0.0129131
0.012853
0.0127922
0.0127333
0.0126748
0.0126185
0.0125635
0.0125108
0.0124595
0.0124103
0.0123615
0.0123142
0.0122668
0.0122205
0.0121743
0.0121294
0.0120843
0.0120398
0.0119942
0.0119485
0.0119014
0.0118543
0.0118069
0.0117592
0.0117142
0.0116701
0.0116275
0.0115863
0.0115476
0.0115103
0.0114751
0.0114405
0.011407
0.0113736
0.0113408
0.0113077
0.0112749
0.0112412
0.0112081
0.0111743
0.01114
0.0111073
0.0110741
0.0110424
0.0110105
0.0109812
0.0109524
0.010926
0.0108999
0.0108764
0.0108525
0.0108299
0.0108066
0.0107839
0.0107603
0.0107367
0.0107124
0.0106886
0.0106645
0.0106415
0.0106184
0.0105969
0.0105759
0.0105565
0.0105375
0.0105207
0.0105038
0.0104886
0.010473
0.0104588
0.0104432
0.0104273
0.0104113
0.0103957
0.0103801
0.0103645
0.0103494
0.0103348
0.0103214
0.0103086
0.0102968
0.0102855
0.010276
0.0102663
0.0102586
0.0102495
0.0102403
0.0102315
0.0102225
0.0102133
0.0102041
0.0101953
0.0101865
0.0101783
0.0101705
0.0101637
0.0101572
0.0101517
0.0101463
0.0101415
0.0101366
0.0101294
5.51295e-05
0.000362784
0.000442596
0.00041117
0.000605205
0.000938989
0.0015322
0.00263604
0.00432286
0.00655482
0.00907017
0.0116868
0.0142153
0.0165653
0.0187329
0.0206384
0.022339
0.0238926
0.0253255
0.0266591
0.0279214
0.0291263
0.030286
0.0314022
0.0324746
0.0334991
0.0344658
0.0353686
0.0361913
0.03693
0.0375702
0.0381167
0.0385611
0.0389086
0.0391549
0.0392829
0.0393195
0.039258
0.0390486
0.0377462
0.0366031
0.0354355
0.034156
0.0328277
0.0317651
0.0307026
0.0295152
0.0284339
0.0275611
0.026699
0.0257274
0.0248538
0.0239077
0.0234104
0.0226096
0.0219279
0.0210767
0.0205894
0.0198578
0.0193953
0.0187629
0.0184064
0.0179171
0.0175953
0.0172022
0.0168812
0.0165879
0.0162955
0.0160825
0.0158695
0.015717
0.0155987
0.015493
0.0154445
0.0153725
0.0153401
0.0153142
0.015319
0.0153233
0.0153508
0.0153923
0.0154156
0.0155122
0.0155423
0.0156094
0.0156768
0.0157475
0.015811
0.0158954
0.0159674
0.0160526
0.0160844
0.0160189
0.0159506
0.0158828
0.0158143
0.0157467
0.0156777
0.0156114
0.0155461
0.015482
0.0154196
0.0153572
0.0152956
0.0152333
0.0151716
0.01511
0.0150498
0.0149903
0.0149319
0.0148745
0.0148179
0.0147623
0.0147072
0.0146528
0.0145978
0.0145438
0.0144878
0.0144323
0.0143751
0.0143144
0.0142591
0.0142039
0.0141494
0.0141003
0.0140541
0.01401
0.0139674
0.0139253
0.0138837
0.0138412
0.0137986
0.0137549
0.0137114
0.0136668
0.0136223
0.0135769
0.0135318
0.0134862
0.0134419
0.0133971
0.0133534
0.0133099
0.0132681
0.0132274
0.0131887
0.0131514
0.0131159
0.0130809
0.0130468
0.0130126
0.0129788
0.012945
0.0129116
0.012878
0.0128445
0.0128098
0.0127751
0.0127385
0.012702
0.0126645
0.0126264
0.0125907
0.0125559
0.0125221
0.0124899
0.0124595
0.0124308
0.0124036
0.0123772
0.0123513
0.0123253
0.0122995
0.0122731
0.0122471
0.0122198
0.0121935
0.0121664
0.0121386
0.0121123
0.0120851
0.0120595
0.0120332
0.0120092
0.0119855
0.011964
0.0119429
0.0119241
0.0119052
0.0118875
0.011869
0.0118509
0.0118317
0.0118123
0.0117922
0.0117724
0.0117522
0.0117333
0.0117139
0.0116964
0.0116788
0.011663
0.0116473
0.0116337
0.0116198
0.0116077
0.0115949
0.0115837
0.0115713
0.0115583
0.0115452
0.0115324
0.0115198
0.0115068
0.0114947
0.0114827
0.0114721
0.0114616
0.0114526
0.0114435
0.0114365
0.0114291
0.0114238
0.0114172
0.0114105
0.011404
0.0113975
0.0113908
0.0113839
0.0113775
0.0113711
0.0113652
0.0113598
0.0113554
0.0113513
0.0113482
0.0113451
0.0113427
0.0113397
0.0113355
6.25772e-05
0.000485885
0.000606913
0.000634077
0.000973569
0.00151701
0.00252129
0.00416762
0.00637662
0.00893337
0.0116678
0.014389
0.0169667
0.0193772
0.0215467
0.0234663
0.0252019
0.0267868
0.0282417
0.0295882
0.030848
0.0320353
0.0331591
0.0342225
0.0352232
0.0361571
0.0370134
0.037784
0.0384531
0.0390165
0.0394611
0.0397913
0.0400046
0.0400968
0.0400886
0.0390768
0.0377903
0.0364651
0.0349973
0.0334918
0.0323108
0.0310685
0.0298249
0.028615
0.0276604
0.0268255
0.0257748
0.0247829
0.0237694
0.0230427
0.0220074
0.0211824
0.0201358
0.0196717
0.0188694
0.0181665
0.0172783
0.0167464
0.0160321
0.0155582
0.0149651
0.0145842
0.0141338
0.0138034
0.0134575
0.0131678
0.0129077
0.0126827
0.0125048
0.0123477
0.0122324
0.0121321
0.0120637
0.0120067
0.011967
0.0119258
0.0119398
0.0119388
0.0119843
0.0120042
0.0120876
0.0121074
0.0122286
0.0123122
0.0123776
0.0125296
0.0125829
0.0127593
0.0128689
0.0130421
0.0131651
0.0133355
0.0134404
0.0135978
0.0136795
0.0138163
0.0139555
0.0141128
0.0142192
0.0142184
0.0142152
0.01421
0.0142027
0.0141941
0.0141825
0.0141697
0.014156
0.0141421
0.0141274
0.0141123
0.0140967
0.0140807
0.0140643
0.0140473
0.0140296
0.0140095
0.01399
0.0139687
0.0139478
0.0139231
0.0138956
0.0138701
0.0138442
0.0138172
0.013794
0.0137733
0.0137551
0.0137377
0.0137215
0.013705
0.0136879
0.0136695
0.0136498
0.0136297
0.0136083
0.0135862
0.0135627
0.0135386
0.0135136
0.013489
0.0134638
0.0134391
0.0134142
0.0133906
0.0133678
0.0133467
0.0133269
0.0133085
0.013291
0.0132737
0.0132565
0.0132389
0.0132212
0.013203
0.0131845
0.0131657
0.013146
0.0131258
0.013104
0.0130819
0.0130587
0.0130344
0.0130118
0.0129903
0.0129693
0.0129497
0.0129314
0.0129149
0.0128994
0.0128847
0.01287
0.0128551
0.0128399
0.012824
0.0128083
0.0127913
0.0127751
0.0127586
0.0127411
0.0127251
0.0127078
0.0126919
0.0126751
0.0126599
0.0126446
0.0126314
0.0126183
0.0126076
0.0125968
0.0125873
0.0125769
0.0125667
0.0125554
0.0125436
0.0125311
0.0125186
0.0125056
0.0124939
0.0124816
0.0124712
0.0124604
0.0124511
0.0124416
0.0124343
0.0124262
0.01242
0.0124129
0.0124073
0.012401
0.0123937
0.0123864
0.0123792
0.0123724
0.0123649
0.0123584
0.0123517
0.0123465
0.0123409
0.012337
0.0123325
0.0123304
0.0123275
0.0123268
0.0123251
0.012323
0.0123212
0.0123194
0.0123173
0.0123151
0.0123132
0.0123114
0.0123099
0.0123089
0.0123087
0.012309
0.0123101
0.0123112
0.0123129
0.0123137
0.0123151
7.16242e-05
0.000643426
0.000829178
0.000961925
0.00146996
0.00231365
0.00379724
0.00590444
0.00840789
0.0111598
0.0139933
0.0167423
0.0193324
0.0217462
0.0238763
0.0257898
0.027525
0.0291035
0.0305426
0.0318614
0.0330764
0.0342017
0.0352448
0.0362092
0.0370921
0.0378892
0.0385892
0.0391824
0.0396575
0.040007
0.0402175
0.040294
0.0394147
0.0379855
0.0363948
0.0347836
0.0333984
0.0319976
0.0306252
0.0293068
0.0283495
0.0272915
0.026204
0.0251488
0.0241362
0.0235281
0.0224417
0.0213619
0.0201138
0.0194565
0.0183391
0.0175277
0.0164555
0.0158773
0.0150715
0.0144928
0.0137159
0.0131874
0.0125878
0.0121742
0.0117105
0.0113545
0.0110266
0.010723
0.0104787
0.0102463
0.0100649
0.00990478
0.00976969
0.00968089
0.00958134
0.00952864
0.00947312
0.00942403
0.00942149
0.00935428
0.00941991
0.00938906
0.00947042
0.00946284
0.00955928
0.00956756
0.00967625
0.00973356
0.0097983
0.00992256
0.00995278
0.0101099
0.0102191
0.0103657
0.0104846
0.0106234
0.0107425
0.0108886
0.0109888
0.011146
0.0113259
0.0115067
0.0116645
0.011828
0.0119559
0.0120944
0.0122203
0.0123522
0.0124845
0.0125835
0.0126265
0.0126659
0.0127015
0.0127351
0.0127663
0.0127966
0.0128247
0.0128507
0.0128744
0.0128942
0.0129136
0.0129314
0.0129488
0.012961
0.0129709
0.0129793
0.0129857
0.0129902
0.0129963
0.0130042
0.0130143
0.0130251
0.0130372
0.0130489
0.0130597
0.0130689
0.0130761
0.0130823
0.0130867
0.0130898
0.0130909
0.0130906
0.0130886
0.0130863
0.013083
0.0130797
0.0130757
0.0130724
0.0130696
0.013068
0.0130677
0.0130686
0.0130703
0.0130721
0.013074
0.0130749
0.0130752
0.0130747
0.0130734
0.0130716
0.013069
0.0130655
0.013061
0.0130556
0.0130493
0.0130415
0.0130343
0.0130282
0.0130223
0.0130176
0.0130139
0.0130115
0.0130099
0.0130092
0.0130081
0.0130066
0.0130045
0.0130016
0.0129983
0.0129942
0.0129903
0.012987
0.0129824
0.012979
0.0129742
0.0129706
0.0129656
0.0129617
0.0129574
0.0129545
0.0129519
0.0129513
0.0129509
0.0129517
0.0129518
0.0129521
0.0129509
0.0129494
0.0129468
0.0129442
0.0129409
0.0129387
0.012936
0.0129351
0.0129334
0.0129331
0.0129322
0.0129333
0.0129333
0.0129351
0.0129359
0.0129382
0.01294
0.012941
0.0129418
0.0129424
0.0129437
0.0129441
0.0129455
0.0129463
0.0129486
0.0129502
0.0129534
0.0129557
0.0129603
0.012964
0.0129698
0.0129749
0.0129795
0.0129843
0.0129892
0.0129938
0.0129982
0.0130028
0.0130075
0.0130123
0.0130176
0.0130235
0.0130298
0.013037
0.0130439
0.0130515
0.0130578
0.0130673
8.12112e-05
0.000822571
0.00101619
0.00138114
0.00211755
0.00332832
0.00524869
0.00762019
0.0103056
0.0131555
0.0160122
0.0187468
0.021332
0.0236864
0.0257737
0.0276592
0.0293648
0.0309049
0.0322936
0.0335466
0.0346772
0.035699
0.0366188
0.0374408
0.0381638
0.0387805
0.0392832
0.039663
0.0399116
0.0399385
0.0384169
0.0367147
0.0350527
0.0334524
0.0319195
0.0304579
0.0293642
0.0281645
0.0270677
0.0258647
0.0249615
0.024124
0.0230558
0.0220476
0.0207814
0.0202642
0.0190857
0.0179018
0.0164868
0.015822
0.0147718
0.0141294
0.0132411
0.012606
0.0119122
0.0114711
0.010903
0.0103711
0.00994375
0.00954309
0.00926756
0.00892158
0.008711
0.00843822
0.00829909
0.00810497
0.00801248
0.00786775
0.0077967
0.00774494
0.00765039
0.00767354
0.00758228
0.00758874
0.00760356
0.00756799
0.00761668
0.00761181
0.00760451
0.00762651
0.00765075
0.00769309
0.00774734
0.00781378
0.00789052
0.00797691
0.00807436
0.00817511
0.00827393
0.00836218
0.00845655
0.0085328
0.0086242
0.00869909
0.00878906
0.00890203
0.00905028
0.00917754
0.00932173
0.00945184
0.0095799
0.00970837
0.00983929
0.00998121
0.0101302
0.0102801
0.0104262
0.0105721
0.0107096
0.0108439
0.0109458
0.0110303
0.011109
0.0111838
0.0112537
0.0113193
0.0113831
0.0114432
0.0115028
0.0115573
0.0116086
0.0116564
0.0116988
0.0117394
0.0117785
0.0118182
0.0118593
0.0119013
0.0119438
0.0119866
0.0120275
0.0120671
0.0121042
0.0121396
0.0121724
0.0122037
0.0122317
0.0122581
0.0122816
0.0123042
0.0123251
0.0123453
0.0123643
0.0123832
0.0124021
0.0124217
0.0124423
0.012464
0.0124862
0.0125088
0.0125309
0.012552
0.0125719
0.0125907
0.0126082
0.012625
0.0126409
0.0126556
0.0126699
0.0126827
0.0126948
0.012705
0.0127151
0.0127257
0.0127363
0.0127477
0.0127599
0.0127729
0.0127867
0.0128011
0.0128149
0.0128284
0.0128408
0.0128525
0.0128631
0.0128733
0.0128833
0.0128944
0.0129043
0.012915
0.0129243
0.0129346
0.0129432
0.012952
0.0129603
0.0129693
0.0129784
0.0129893
0.0130006
0.0130132
0.0130253
0.0130375
0.0130483
0.0130586
0.0130676
0.0130765
0.0130846
0.0130937
0.0131022
0.0131122
0.0131214
0.0131316
0.013141
0.0131519
0.0131617
0.013173
0.0131833
0.0131951
0.0132067
0.0132176
0.0132282
0.0132385
0.0132495
0.0132596
0.0132705
0.0132806
0.0132921
0.0133025
0.0133144
0.0133251
0.013338
0.0133498
0.0133637
0.0133771
0.0133901
0.0134031
0.0134164
0.0134292
0.0134419
0.0134546
0.0134674
0.0134801
0.0134932
0.0135067
0.0135205
0.0135352
0.0135493
0.0135643
0.0135777
0.0135975
9.01531e-05
0.00102161
0.00129001
0.00189496
0.00289774
0.00449366
0.00668862
0.00923192
0.0120093
0.0148882
0.0177229
0.0204182
0.0229677
0.0252448
0.0272812
0.0291181
0.0307678
0.032239
0.0335423
0.0346905
0.0356955
0.0365709
0.0373236
0.03796
0.0384797
0.0388763
0.0391491
0.0390251
0.0374695
0.0356864
0.0338395
0.0320766
0.0306491
0.029336
0.0281719
0.0269582
0.0260591
0.0249648
0.0239907
0.0229178
0.0219213
0.0213007
0.0200775
0.0190253
0.017533
0.0168295
0.0156862
0.0147497
0.0135287
0.0128013
0.0119454
0.011401
0.0107671
0.0100256
0.00948529
0.0089981
0.00866787
0.00812765
0.00787202
0.00746971
0.00734776
0.00698575
0.00687439
0.00659878
0.00657107
0.00635626
0.00618479
0.00602398
0.00586305
0.00573953
0.00563382
0.0055342
0.005466
0.00539419
0.00535571
0.00532241
0.00529162
0.00528323
0.00527367
0.00528319
0.00530039
0.00532189
0.00535131
0.00539122
0.00544033
0.00549842
0.00556678
0.00564517
0.0057305
0.00582507
0.00592816
0.00603351
0.00614777
0.00626654
0.00639336
0.00652689
0.0066702
0.00681363
0.00696593
0.00711278
0.00726623
0.00741273
0.00756411
0.00771578
0.00786864
0.00802032
0.00817009
0.00831702
0.00846079
0.00860089
0.00873768
0.00886893
0.00899475
0.0091152
0.00923012
0.00934076
0.00944977
0.00955468
0.0096587
0.00975862
0.00985412
0.0099443
0.0100278
0.0101079
0.0101837
0.0102587
0.0103333
0.0104088
0.0104843
0.0105605
0.0106343
0.010707
0.0107771
0.0108449
0.0109093
0.0109714
0.0110294
0.0110852
0.0111373
0.0111878
0.0112352
0.0112818
0.0113258
0.0113693
0.0114117
0.0114545
0.0114977
0.0115421
0.0115864
0.0116315
0.0116751
0.0117184
0.0117593
0.0117992
0.0118371
0.0118741
0.0119096
0.0119443
0.0119782
0.012011
0.0120425
0.0120723
0.0121012
0.0121296
0.012158
0.0121865
0.0122155
0.0122449
0.012275
0.0123053
0.0123353
0.0123644
0.0123928
0.0124199
0.0124457
0.012471
0.0124958
0.0125222
0.0125475
0.0125733
0.0125979
0.0126231
0.0126462
0.0126691
0.0126908
0.0127126
0.0127343
0.0127575
0.0127813
0.0128066
0.0128314
0.0128565
0.0128803
0.0129036
0.0129253
0.0129467
0.0129672
0.0129886
0.0130093
0.0130313
0.0130524
0.0130741
0.0130949
0.0131165
0.0131373
0.0131588
0.0131799
0.013202
0.0132245
0.0132465
0.0132681
0.0132893
0.0133111
0.013332
0.0133536
0.0133743
0.0133959
0.0134164
0.0134381
0.0134585
0.0134805
0.0135019
0.0135246
0.0135477
0.0135702
0.0135926
0.0136155
0.0136378
0.01366
0.013682
0.0137041
0.0137259
0.013748
0.0137703
0.0137928
0.013816
0.0138386
0.013862
0.0138836
0.0139157
9.86406e-05
0.00119718
0.0016695
0.0024864
0.00377849
0.00566339
0.00803344
0.0106814
0.0134885
0.016349
0.0191336
0.0217808
0.0242543
0.0264575
0.0284384
0.0302128
0.031781
0.0331483
0.0343235
0.035319
0.036148
0.0368273
0.0373673
0.037771
0.0380501
0.0381536
0.0365608
0.0346602
0.0327558
0.0309711
0.0294794
0.0281094
0.0271291
0.0260704
0.0251028
0.0239658
0.0231487
0.0223595
0.0214303
0.020422
0.0191071
0.0184886
0.0171176
0.0161538
0.0148123
0.0138891
0.0129126
0.012238
0.0114233
0.0103989
0.00977209
0.00906783
0.00869766
0.00790311
0.00754298
0.00698854
0.00687101
0.00637812
0.00617059
0.00581757
0.00547151
0.00520399
0.00494578
0.00475387
0.00456507
0.0044335
0.00429411
0.00419855
0.00409538
0.00402822
0.00395665
0.00390283
0.00385784
0.00380931
0.00378462
0.00375669
0.00373614
0.00372323
0.00370901
0.00370378
0.00370427
0.00370894
0.00371656
0.00372995
0.00374849
0.00377291
0.00380403
0.00384048
0.00388358
0.00393222
0.00398689
0.00404866
0.00411586
0.00419044
0.00427049
0.00436013
0.00445499
0.00456061
0.00466971
0.00478803
0.00491069
0.00503947
0.00517261
0.00531359
0.00545855
0.00560658
0.00575783
0.00591007
0.00606359
0.00621637
0.00636998
0.00652046
0.00666803
0.00681456
0.00695887
0.00710162
0.00724622
0.00738772
0.00753043
0.00766781
0.00780453
0.00792885
0.00805054
0.00816324
0.00827386
0.0083823
0.00849035
0.00859917
0.00870814
0.0088167
0.00892548
0.009032
0.00913612
0.00923659
0.0093351
0.00942966
0.00951892
0.00960601
0.00968908
0.00976922
0.00984562
0.00992003
0.00999131
0.0100615
0.0101296
0.0101975
0.0102651
0.0103337
0.0104021
0.0104712
0.0105383
0.010605
0.010669
0.0107315
0.0107916
0.0108504
0.0109072
0.0109637
0.0110186
0.0110727
0.0111253
0.0111759
0.0112258
0.0112735
0.011321