/*--------------------------------*- C++ -*----------------------------------*\
| =========                 |                                                 |
| \\      /  F ield         | OpenFOAM: The Open Source CFD Toolbox           |
|  \\    /   O peration     | Version:  2312                                  |
|   \\  /    A nd           | Website:  www.openfoam.com                      |
|    \\/     M anipulation  |                                                 |
\*---------------------------------------------------------------------------*/
FoamFile
{
    version     2.0;
    format      ascii;
    arch        "LSB;label=32;scalar=64";
    class       volScalarField;
    location    "0.002";
    object      omega;
}
// * * * * * * * * * * * * * * * * * * * * * * * * * * * * * * * * * * * * * //

dimensions      [0 0 -1 0 0 0 0];

internalField   nonuniform List<scalar> 
48128
(
2.20989e+06
2.21178e+06
2.21848e+06
2.22652e+06
2.22828e+06
2.23168e+06
2.23514e+06
2.23927e+06
2.24201e+06
2.23889e+06
2.21411e+06
2.2224e+06
2.24783e+06
2.28975e+06
2.33284e+06
2.36976e+06
2.39955e+06
2.42348e+06
2.44233e+06
2.45667e+06
2.46695e+06
2.47398e+06
2.47787e+06
2.4787e+06
2.47654e+06
2.47157e+06
2.4639e+06
2.45272e+06
2.4394e+06
2.42405e+06
2.40658e+06
2.38741e+06
2.36713e+06
2.34562e+06
2.32364e+06
2.30134e+06
2.27976e+06
2.25882e+06
2.2385e+06
2.21903e+06
2.2013e+06
2.1842e+06
2.1686e+06
2.15364e+06
2.1427e+06
2.13159e+06
2.12044e+06
2.10678e+06
2.09228e+06
2.07903e+06
2.06497e+06
2.0511e+06
2.03208e+06
2.01643e+06
2.00099e+06
1.99999e+06
1.99922e+06
1.99957e+06
1.99764e+06
1.99533e+06
1.99089e+06
1.98513e+06
1.97797e+06
1.97005e+06
1.96173e+06
1.95296e+06
1.94363e+06
1.93393e+06
1.92298e+06
1.91117e+06
1.89874e+06
1.88596e+06
1.87316e+06
1.8601e+06
1.8475e+06
1.83475e+06
1.82254e+06
1.81005e+06
1.79788e+06
1.78551e+06
1.77315e+06
1.76138e+06
1.74952e+06
1.73828e+06
1.72699e+06
1.71631e+06
1.70578e+06
1.6961e+06
1.68648e+06
1.67744e+06
1.66854e+06
1.65998e+06
1.65159e+06
1.64359e+06
1.63582e+06
1.62864e+06
1.62173e+06
1.61524e+06
1.60902e+06
1.60315e+06
1.59748e+06
1.59205e+06
1.58687e+06
1.58196e+06
1.57731e+06
1.57292e+06
1.56878e+06
1.56486e+06
1.56111e+06
1.55756e+06
1.55419e+06
1.55095e+06
1.54787e+06
1.54487e+06
1.54204e+06
1.53925e+06
1.53661e+06
1.534e+06
1.53167e+06
1.5293e+06
1.52792e+06
1.52624e+06
1.5248e+06
1.5233e+06
1.52159e+06
1.51978e+06
1.51793e+06
1.51605e+06
1.51419e+06
1.51243e+06
1.51078e+06
1.50928e+06
1.50795e+06
1.50677e+06
1.50572e+06
1.50476e+06
1.50393e+06
1.50319e+06
1.50246e+06
1.50171e+06
1.50095e+06
1.50022e+06
1.49951e+06
1.49879e+06
1.49803e+06
1.49719e+06
1.49628e+06
1.49527e+06
1.49422e+06
1.49313e+06
1.49203e+06
1.49097e+06
1.4899e+06
1.48885e+06
1.4878e+06
1.4868e+06
1.48584e+06
1.48494e+06
1.48414e+06
1.4835e+06
1.48287e+06
1.48252e+06
1.48209e+06
1.48163e+06
1.48114e+06
1.48056e+06
1.47993e+06
1.4792e+06
1.47838e+06
1.4775e+06
1.47656e+06
1.47559e+06
1.47467e+06
1.47375e+06
1.47296e+06
1.4722e+06
1.4716e+06
1.47105e+06
1.47068e+06
1.47035e+06
1.47004e+06
1.4697e+06
1.46936e+06
1.46895e+06
1.46845e+06
1.46788e+06
1.46723e+06
1.4665e+06
1.46572e+06
1.46491e+06
1.46408e+06
1.46339e+06
1.46266e+06
1.46215e+06
1.46167e+06
1.46133e+06
1.46104e+06
1.46076e+06
1.46047e+06
1.46014e+06
1.45975e+06
1.45931e+06
1.45878e+06
1.45816e+06
1.45748e+06
1.45676e+06
1.45604e+06
1.45537e+06
1.4546e+06
1.45407e+06
1.4537e+06
1.45334e+06
1.45304e+06
1.45275e+06
1.45245e+06
1.45213e+06
1.45174e+06
1.45129e+06
1.45078e+06
1.45021e+06
1.44957e+06
1.44891e+06
1.44822e+06
1.44747e+06
1.44686e+06
1.44635e+06
1.44583e+06
1.44544e+06
1.44512e+06
1.4448e+06
1.44447e+06
1.44412e+06
1.44371e+06
1.44325e+06
1.44274e+06
1.44218e+06
1.44157e+06
1.44094e+06
1.44028e+06
1.43938e+06
796782
510599
408205
423395
441360
456050
487362
536607
685476
890262
1.02284e+06
1.08225e+06
1.07398e+06
962398
881231
822393
781562
754915
737484
725828
718072
712669
708397
704921
701871
699145
696664
694143
693015
690622
688257
686947
686028
685275
685862
687333
692840
697458
702662
707839
713033
717924
723165
728294
733549
738197
742740
746875
750726
753804
756762
759117
760754
761539
762239
764105
766368
768041
769136
769367
769079
768180
766621
764463
761779
758663
755172
751320
747030
741988
736462
730657
724608
718453
712136
705856
699480
693345
687150
681179
675242
669244
663638
657942
652556
647111
641798
636413
631363
626318
621663
617096
612815
608608
604613
600622
596782
593183
589781
586595
583584
580754
578054
575478
573030
570732
568575
566572
564708
562965
561339
559841
558465
557179
556021
554925
553889
552882
551829
550913
549845
549361
548736
548395
548270
548088
547915
547766
547619
547449
547247
547010
546751
546483
546252
546060
545904
545838
545856
545928
546054
546215
546411
546643
546884
547115
547355
547582
547815
548024
548246
548479
548720
548981
549229
549491
549747
550008
550272
550526
550791
551080
551458
551927
552420
552900
553401
553900
554380
554869
555351
555800
556144
556590
556863
557219
557509
557807
558049
558333
558667
558988
559396
559707
560071
560443
560812
561171
561556
561838
562108
562248
562541
562581
562723
562798
562931
563083
563261
563441
563639
563815
564021
564237
564430
564587
564729
564774
564913
564818
564729
564754
564722
564727
564763
564819
564876
564947
565006
565078
565157
565185
565170
565212
565101
564948
564862
564709
564560
564459
564365
564328
564280
564254
564225
564186
564150
564097
564013
563886
797151
376515
221627
188810
194082
219758
306589
445149
559790
615806
628438
588262
532285
476141
438586
415504
402884
396299
393348
392440
392797
394495
396327
398729
401328
404271
407476
410883
414703
418541
422838
427631
432734
438467
445150
452205
460090
467859
476080
484267
492453
500575
508953
517138
524990
532433
539911
547179
553774
559627
565170
570287
574669
577988
580812
583525
585731
587300
588237
588329
587918
586880
585174
582827
579911
576507
572662
568435
563851
558869
553542
547911
542021
535945
529710
523410
517029
510710
504401
498185
492060
485885
479995
474048
468336
462584
456965
451314
445881
440499
435373
430359
425565
420882
416362
411916
407589
403419
399412
395556
391855
388313
384906
381621
378455
375417
372500
369713
367046
364494
362042
359709
357482
355351
353333
351384
349519
347734
345918
344254
342484
341063
339593
338260
337127
335994
334951
333967
333045
332141
331256
330374
329499
328632
327804
326988
326217
325481
324801
324171
323622
323089
322619
322184
321793
321400
321041
320680
320339
319990
319661
319337
319020
318731
318440
318175
317920
317669
317443
317210
316997
316750
316589
316459
316323
316223
316122
316062
316006
315973
315957
315942
315919
315923
315910
315904
315898
315881
315851
315825
315804
315793
315795
315799
315818
315849
315890
315940
316009
316075
316144
316171
316237
316230
316248
316246
316250
316256
316267
316278
316294
316305
316332
316371
316416
316460
316515
316529
316605
316579
316535
316523
316492
316455
316431
316411
316392
316383
316375
316377
316388
316394
316383
316424
316389
316331
316291
316224
316145
316069
315989
315932
315874
315827
315783
315743
315707
315677
315639
315597
797981
295445
155464
131666
153470
225777
331187
408854
440726
441349
411021
377876
345175
318318
303125
295425
292306
291597
292696
294900
297679
301047
304613
308612
312885
317524
322489
327802
333569
339661
346297
353413
361129
369421
378319
387570
397269
407220
417639
428065
438450
448933
459697
470226
480058
489506
498964
508258
516474
523970
530893
537384
542939
547291
550883
553998
556193
557717
558327
558131
557281
555654
553254
550110
546345
542041
537234
532029
526424
520463
514134
507485
500608
493558
486389
479154
471872
464600
457421
450300
443281
436286
429503
422740
416169
409642
403243
396915
390772
384753
378956
373312
367876
362580
357450
352424
347533
342779
338200
333768
329501
325396
321433
317593
313879
310289
306828
303492
300284
297188
294203
291334
288574
285914
283360
280887
278504
276208
273898
271732
269498
267537
265556
263690
261985
260322
258746
257237
255798
254397
253036
251701
250397
249115
247879
246659
245489
244345
243255
242202
241226
240266
239376
238512
237711
236927
236191
235473
234787
234106
233454
232812
232186
231588
231003
230439
229898
229359
228855
228346
227864
227355
226916
226502
226080
225690
225306
224954
224617
224304
224005
223727
223451
223211
222971
222742
222529
222313
222089
221874
221655
221454
221249
221055
220888
220727
220588
220448
220339
220233
220134
220027
219935
219828
219731
219631
219532
219431
219338
219243
219150
219051
218974
218898
218841
218781
218738
218672
218668
218618
218547
218485
218415
218339
218266
218193
218123
218055
217996
217937
217893
217852
217793
217794
217754
217695
217645
217581
217507
217429
217348
217273
217199
217131
217063
217003
216944
216897
216848
216796
798301
219520
117135
123599
175723
261225
326165
354460
349390
329784
306045
282858
263684
251530
245732
243693
243660
245729
248550
252015
255895
260220
264855
269925
275389
281290
287666
294528
301967
309934
318553
327813
337682
348206
359292
370744
382555
394838
407635
420489
433168
445950
459017
472183
484440
496172
507744
519043
528964
538003
546230
553735
560234
564982
568828
571776
573545
574368
574140
573081
571147
568194
564391
559716
554408
548565
542202
535457
528307
520847
513156
505274
497249
489087
480834
472523
464220
455905
447697
439564
431524
423572
415809
408151
400717
393410
386256
379240
372426
365785
359378
353147
347132
341277
335604
330058
324672
319421
314378
309487
304777
300237
295847
291584
287455
283452
279590
275855
272261
268777
265420
262180
259057
256040
253128
250310
247581
244939
242298
239791
237234
234909
232599
230382
228319
226324
224410
222566
220791
219062
217381
215735
214134
212563
211043
209549
208104
206687
205325
203998
202740
201502
200330
199186
198104
197050
196045
195071
194134
193214
192324
191453
190602
189781
188981
188203
187452
186707
185998
185288
184610
183913
183275
182666
182050
181469
180895
180352
179826
179324
178836
178369
177911
177486
177073
176673
176294
175924
175545
175182
174815
174465
174119
173777
173467
173164
172885
172608
172359
172116
171886
171655
171435
171213
171006
170802
170605
170405
170218
170029
169844
169653
169485
169315
169167
169017
168888
168745
168653
168536
168408
168287
168162
168034
167908
167781
167659
167537
167424
167312
167210
167119
167013
166958
166878
166787
166706
166616
166520
166421
166319
166219
166121
166027
165932
165844
165755
165678
165604
165514
798435
169974
112198
142748
213623
271296
298538
298915
281833
265149
247524
232157
221846
216398
214599
214786
217091
220372
224226
228572
233322
238519
244145
250267
256909
264118
271961
280459
289679
299638
310377
321818
333911
346778
360333
374439
388906
404031
419789
435824
451467
467151
482961
498954
513929
527968
541487
554235
565435
574739
583112
589964
596262
599439
601791
602707
602665
601329
599151
595733
591717
586601
580982
574659
567865
560624
552926
544903
536539
527949
519153
510220
501180
492045
482836
473663
464495
455385
446338
437446
428635
419960
411496
403188
395190
387355
379693
372185
364916
357812
350997
344352
337968
331756
325747
319879
314194
308647
303325
298150
293162
288345
283687
279162
274777
270520
266412
262427
258590
254859
251268
247791
244438
241196
238059
235026
232077
229212
226365
223641
220875
218307
215793
213334
211033
208821
206690
204629
202633
200688
198795
196940
195135
193365
191649
189965
188330
186725
185174
183660
182208
180782
179415
178076
176800
175554
174360
173201
172083
170988
169924
168885
167867
166884
165920
164987
164076
163179
162315
161454
160626
159787
158995
158239
157478
156758
156044
155364
154700
154064
153438
152835
152244
151678
151134
150599
150092
149597
149094
148613
148128
147660
147201
146746
146324
145910
145520
145136
144777
144425
144087
143756
143429
143110
142805
142507
142221
141933
141661
141387
141120
140848
140601
140351
140125
139896
139691
139477
139306
139121
138929
138745
138562
138378
138197
138017
137842
137668
137502
137341
137185
137044
136893
136783
136657
136523
136404
136278
136149
136018
135886
135757
135629
135505
135380
135261
135142
135033
134928
134792
798168
162094
134875
175072
230058
257945
264503
251721
237924
224586
211795
202261
196806
194643
194563
196690
200100
204200
208843
213958
219527
225607
232232
239458
247357
256001
265456
275757
286955
299085
312140
326097
340814
356503
373038
390315
407929
426263
445237
464958
483893
502511
520795
538336
554696
568521
581117
591917
601885
608508
614427
617864
621830
621781
621028
618864
616148
611773
606791
600750
594398
587225
579600
571389
562823
553978
544900
535630
526326
517039
507668
498510
489248
480177
470985
462059
453018
444268
435439
426967
418481
410170
402089
393998
386346
378675
371265
363867
356768
349708
342989
336329
329995
323759
317758
311860
306170
300580
295205
289970
284920
280042
275331
270758
266326
262017
257848
253797
249892
246089
242427
238872
235438
232118
228897
225778
222736
219781
216859
214043
211191
208499
205883
203297
200870
198529
196282
194095
191982
189913
187900
185920
183994
182103
180269
178467
176714
174991
173320
171687
170109
168562
167065
165598
164191
162812
161491
160200
158962
157739
156557
155396
154261
153159
152077
151033
150002
149000
148016
147046
146104
145157
144246
143381
142510
141685
140864
140084
139317
138581
137854
137149
136456
135785
135141
134500
133895
133299
132702
132123
131546
130984
130435
129893
129381
128878
128399
127929
127483
127044
126623
126204
125798
125394
125010
124630
124267
123903
123556
123208
122871
122529
122213
121894
121601
121305
121034
120757
120519
120271
120018
119774
119537
119299
119066
118835
118609
118387
118171
117964
117759
117572
117377
117218
117047
116871
116711
116548
116382
116217
116051
115890
115730
115575
115420
115271
115121
114980
114845
114662
797517
173048
160766
195397
224537
236240
230840
218716
207921
197476
188527
182685
179914
179290
180753
183905
188006
192753
198068
203907
210279
217265
224921
233342
242625
252857
264109
276429
289848
304450
320173
337062
354826
373756
393621
414566
435777
457527
479478
501572
522037
540686
558163
573493
588053
597420
605210
611554
618316
620280
621682
620636
619329
614922
608422
600446
592233
583319
574179
564810
555371
545981
536397
527086
517590
508222
499068
489775
481083
472345
463838
455729
447515
439783
431836
424434
416848
409757
402489
395735
388829
382236
375751
369150
363034
356734
350768
344662
338814
332860
327237
321521
316039
310476
305157
299812
294678
289514
284549
279655
274932
270352
265925
261610
257412
253303
249316
245425
241662
237989
234437
230983
227635
224396
221242
218177
215181
212288
209426
206646
203841
201143
198542
195958
193515
191143
188883
186661
184533
182426
180390
178369
176405
174473
172597
170751
168950
167177
165454
163764
162126
160520
158955
157420
155938
154484
153088
151720
150406
149107
147852
146614
145407
144228
143071
141951
140843
139770
138703
137664
136634
135619
134624
133679
132731
131829
130933
130077
129236
128424
127623
126844
126077
125332
124608
123894
123208
122536
121869
121215
120568
119932
119314
118702
118119
117545
116998
116458
115945
115436
114949
114460
113992
113520
113071
112624
112195
111768
111358
110948
110552
110151
109777
109400
109050
108696
108369
108039
107743
107439
107134
106838
106550
106264
105983
105706
105434
105168
104907
104657
104409
104179
103945
103740
103529
103314
103116
102916
102714
102515
102317
102124
101933
101748
101563
101383
101205
101033
100869
100642
796967
183387
175335
196160
211607
213447
204246
195045
186467
178431
172221
168660
167378
167824
170306
174049
178652
183938
189859
196398
203571
211501
220272
230019
240848
252870
266155
280784
296746
314190
332991
353254
374535
397170
420603
444911
468405
491282
513021
533312
551695
565817
578502
588567
599012
602394
604197
603638
602919
598546
592630
584931
576963
567693
557365
546328
534995
524302
513284
502817
491939
482034
471689
462369
452779
443813
435227
426724
419144
411440
404513
397745
391169
385154
378898
373385
367649
362509
357176
352372
347409
342734
338084
333350
328902
324301
319895
315372
310909
306350
301927
297450
293186
288870
284718
280560
276502
272402
268405
264408
260501
256695
252942
249227
245570
241941
238393
234898
231501
228161
224920
221747
218677
215685
212769
209925
207122
204439
201767
199162
196543
193979
191503
189035
186685
184392
182208
180052
177993
175944
173967
171996
170076
168184
166343
164526
162753
160999
159291
157611
155978
154371
152802
151259
149760
148287
146867
145475
144131
142807
141523
140254
139017
137803
136614
135454
134314
133197
132094
131014
129941
128887
127845
126848
125854
124901
123959
123052
122161
121299
120450
119622
118806
118013
117232
116473
115725
115002
114284
113576
112878
112190
111520
110855
110220
109593
108993
108400
107835
107274
106736
106195
105676
105154
104653
104155
103674
103195
102735
102275
101831
101383
100959
100536
100137
99737.4
99363.6
98987.3
98642.6
98291.6
97943.4
97602.9
97271.1
96943.8
96620.7
96303.3
95990.9
95686.3
95386.5
95098.1
94812
94544.5
94274.2
94031.1
93783.5
93533.1
93299.8
93066.4
92832.5
92602.4
92373.6
92150.6
91930.5
91716.8
91504.2
91296.7
91091.8
90892.1
90699.9
90431.8
796518
190446
180986
190971
196496
193013
184683
177429
170518
164352
160024
157886
157414
158765
161798
165925
170919
176674
183166
190403
198422
207385
217408
228669
241273
255376
271026
288361
307285
328003
350408
374528
399404
424866
449734
474103
496298
516020
533416
548084
562387
570357
577324
579511
581954
578553
572936
565915
558773
549363
538849
527189
514750
502380
489709
476709
462385
449349
435511
423340
410394
399414
387940
378381
368480
360097
351848
344442
338110
331754
326825
321822
317541
313849
310112
307147
304019
301466
298788
296571
294273
292151
289967
287759
285595
283352
281098
278749
276310
273725
271035
268259
265491
262687
259877
257058
254219
251327
248388
245402
242389
239356
236378
233423
230497
227569
224667
221772
218927
216103
213347
210624
207984
205368
202802
200282
197783
195384
192991
190658
188310
185981
183715
181451
179283
177157
175123
173116
171193
169282
167434
165591
163782
161998
160258
158537
156853
155181
153549
151937
150368
148815
147301
145801
144343
142903
141511
140141
138817
137510
136245
134989
133766
132558
131378
130216
129084
127959
126860
125772
124697
123634
122580
121565
120555
119581
118617
117688
116773
115889
115014
114164
113322
112504
111694
110907
110128
109372
108625
107883
107155
106435
105732
105033
104362
103699
103063
102434
101833
101236
100661
100084
99527.7
98970.7
98432
97896.1
97376.7
96860.6
96362.1
95864.7
95383.9
94899.7
94436.7
93977.4
93540.9
93105.3
92692.7
92281.2
91897
91508.4
91125.1
90748.3
90380.8
90018.7
89661.1
89309.9
88963.9
88626.2
88293.8
87972.5
87654.6
87354.4
87053.3
86777
86498.3
86218.1
85953.4
85690.7
85428.7
85170.7
84914.8
84665.1
84419
84179.4
83942.1
83709.6
83480.3
83256.1
83039.1
82733.6
795983
193541
180051
182525
182547
176542
169796
163841
158199
153422
150371
149121
149196
151149
154492
158887
164206
170399
177469
185453
194430
204594
216093
229155
243895
260505
278989
299540
322008
346470
372426
399372
425295
450186
472656
493070
511035
525191
537448
545759
553810
553680
552619
548774
544077
536068
525786
513784
500814
487356
472370
456413
438457
422115
404795
389053
372171
357954
343117
330787
317964
307441
296611
287879
278910
271736
264403
258555
252848
248095
244114
240172
237324
234409
232581
231007
229431
228587
227644
227305
226948
226985
227053
227274
227590
227949
228419
228754
229143
229225
229192
228980
228619
228058
227354
226504
225540
224406
223119
221658
220044
218290
216464
214581
212647
210662
208624
206539
204416
202263
200091
197898
195721
193559
191420
189306
187208
185162
183130
181130
179117
177093
175105
173117
171187
169276
167440
165619
163874
162133
160451
158773
157114
155477
153876
152288
150734
149185
147667
146163
144695
143235
141811
140393
139013
137643
136318
135006
133741
132486
131275
130066
128890
127723
126584
125459
124362
123269
122201
121142
120093
119055
118020
117017
116021
115055
114098
113172
112258
111378
110503
109653
108810
107989
107175
106381
105594
104827
104071
103319
102581
101847
101132
100417
99729.1
99047
98391.6
97742.5
97121.4
96503.8
95907.7
95310.2
94732.1
94154.3
93592
93032.9
92488.7
91948.8
91424.8
90902.9
90396.2
89888.5
89398.3
88913.3
88448.8
87988.6
87546.6
87110.2
86695.2
86280
85870.3
85465.9
85071
84681.9
84297.9
83920.2
83548.1
83183.8
82825.9
82477.4
82134.6
81806.9
81481.4
81176.9
80873.3
80569.3
80277.9
79991
79705.3
79423.8
79145.1
78872.4
78604.1
78342.3
78083.7
77829.8
77579.3
77334.1
77095.6
76757.6
795624
196471
176448
173256
170152
163892
158154
153015
148319
144579
142382
141633
142189
144458
147989
152594
158220
164871
172592
181464
191605
203259
216595
231930
249334
269038
291019
315362
341399
368851
395819
422294
446044
467202
484925
499805
513708
521258
526495
527443
527681
523475
516857
507278
496122
483837
469370
452635
432593
413081
391733
372848
352666
335196
317485
302289
286658
273505
260005
249029
237830
228659
219326
211821
204200
198109
191876
186949
181834
178024
174147
170975
168350
165606
164112
162566
161384
160771
160068
160029
160153
160534
161100
161937
162990
164265
165785
167399
169156
170917
172768
174476
176264
177931
179653
181158
182718
183939
185171
186029
186789
187221
187543
187529
187390
187090
186618
185976
185174
184227
183145
181937
180632
179260
177837
176380
174900
173404
171889
170354
168781
167165
165520
163846
162195
160555
158975
157402
155888
154376
152906
151441
149982
148535
147116
145706
144321
142930
141553
140181
138834
137491
136176
134863
133579
132302
131062
129832
128645
127464
126327
125187
124076
122973
121891
120824
119781
118741
117724
116713
115714
114720
113726
112760
111798
110864
109933
109034
108141
107282
106427
105596
104771
103966
103168
102386
101612
100854
100108
99363.9
98633
97905.5
97194.6
96482.1
95793.9
95109.4
94450.6
93797.7
93170.9
92548.3
91946.1
91343.3
90757.9
90173.6
89601.9
89034
88478.7
87928.4
87391.7
86858.3
86337.6
85818.2
85312.4
84813.2
84331.5
83857.4
83396.9
82945.5
82509.4
82078.7
81651.4
81228.7
80815.5
80408.1
80006.2
79609.9
79219.8
78836.2
78460.3
78091.4
77730.6
77382.1
77038.3
76712.2
76389.6
76067.9
75755.5
75450
75145.9
74845.9
74549.1
74258
73972
73692.1
73416.4
73145.1
72877.4
72615.2
72358.9
71993.9
793993
199456
171321
164626
159800
153943
148799
144163
140133
137149
135520
135089
135986
138423
142090
146905
152882
160095
168640
178665
190335
203941
219710
237988
258795
282323
308114
335774
363635
391256
416474
439947
459864
475677
488441
497754
505859
506067
504980
500763
494990
485811
474192
459877
442560
424294
403169
380630
356306
334684
312693
294381
275841
259814
244780
231477
219373
208582
197827
189108
180283
172955
165539
159477
153355
148326
143215
139040
134754
131378
127857
125197
122570
120167
118403
116573
115179
114105
112992
112308
111714
111425
111344
111482
111792
112338
113127
114088
115259
116582
118082
119698
121482
123392
125456
127595
129848
132137
134515
136817
139173
141359
143570
145620
147578
149394
151062
152534
153811
154886
155759
156438
156863
157162
157172
157095
156911
156606
156182
155634
154963
154154
153226
152191
151099
149974
148841
147697
146574
145441
144312
143169
142010
140838
139663
138479
137295
136105
134915
133723
132541
131359
130192
129022
127872
126723
125603
124487
123410
122337
121296
120247
119221
118197
117189
116195
115219
114246
113293
112344
111406
110471
109534
108620
107706
106816
105927
105064
104206
103379
102555
101755
100959
100183
99412.6
98656.4
97907.8
97172.5
96448.5
95726.5
95015.3
94307
93612.9
92916.5
92241.3
91567.3
90918
90273.5
89653
89037.4
88441.3
87845.2
87265.2
86686.6
86117.8
85553.6
84999.4
84450.9
83913
83379.4
82855.7
82335.3
81825
81322.4
80834.1
80356
79887.4
79430.3
78983.8
78547.1
78111.3
77679.9
77257.5
76840.6
76429.5
76022.7
75622.6
75227.7
74841.3
74459.6
74087.7
73725.9
73370.1
73029.3
72694.1
72360.8
72034.2
71715.8
71398.9
71085.9
70776.4
70472.2
70173.3
69880.2
69591.9
69307.7
69027.1
68752.5
68482.6
68096.9
797957
197824
165208
156834
151186
145786
141053
136784
133174
130718
129464
129249
130372
132921
136741
141839
148306
156301
165998
177637
191412
207719
226716
248806
273710
301173
329671
358847
386028
411655
433771
452800
468000
478028
485770
488398
489393
485894
480012
470377
458272
443860
426577
406558
382535
357019
331441
307922
285682
265233
247006
231348
216919
204510
193135
182680
174030
165425
157823
151079
144262
138476
132678
127790
122826
118701
114441
111008
107517
104694
101783
99477.4
97098.2
95164.2
93441.3
91681.1
90206.1
88936.1
87690.3
86710.5
85704.2
84945
84197.1
83668.7
83175
82883.8
82738.4
82703.7
82782.8
82956.9
83253.5
83658.2
84202.9
84882.4
85719.7
86682.8
87792.2
89035.3
90435.8
91963.1
93634.4
95415.5
97315
99304
101388
103548
105765
108010
110277
112499
114725
116847
118901
120850
122716
124467
126171
127683
129099
130267
131323
132093
132698
133049
133270
133291
133233
133096
132889
132607
132258
131836
131332
130752
130102
129388
128621
127812
126968
126097
125204
124295
123371
122435
121491
120537
119591
118639
117707
116771
115859
114940
114034
113127
112228
111338
110461
109585
108724
107864
107013
106163
105312
104470
103624
102794
101962
101150
100339
99556.2
98773.9
98015.7
97259.5
96521.5
95789.8
95070.5
94357.5
93655.4
92964.1
92272.9
91589.8
90908.9
90239.8
89568.5
88914.3
88259.9
87628.5
87000.6
86394.3
85793.6
85211.2
84630.2
84063.8
83499.4
82942.4
82390.7
81846.5
81308.1
80777.3
80251.8
79733.5
79220.2
78714.1
78216.2
77730.1
77255.3
76787.8
76332.3
75884.6
75449.3
75013.3
74581.2
74157.6
73738.9
73326.1
72916.5
72513.8
72115.1
71724.7
71337.8
70961.3
70593
70231.6
69882.7
69541.4
69202.3
68868
68542.6
68218.4
67898.2
67581.5
67269.5
66962.8
66661.7
66365.5
66073.1
65784.4
65501.9
65222.9
64823.1
800825
194905
158850
149689
143885
138860
134440
130450
127175
125035
124031
123977
125262
127945
132015
137576
144809
153992
165402
179350
196098
216065
239268
265886
294678
325043
354396
383065
408101
430363
448539
461793
471754
476161
477855
475328
471015
463010
451959
437089
418246
396687
370979
343463
315640
289528
266645
245963
228961
212995
199978
187985
177608
168431
159714
151700
144548
137781
132141
126394
120794
116047
111244
107151
102976
99513.5
96128.8
93390.5
90650.2
88376.7
86059.2
84135.2
82174.7
80535.4
79057.8
77629.1
76401.4
75201.7
74114
73199.8
72265.2
71437
70633.3
69938.1
69285.6
68696.9
68237.9
67770.5
67408.6
67038.9
66774.9
66505.1
66346.7
66194.2
66160.1
66184.6
66263.8
66407
66631.9
66938.5
67336.3
67820
68397.8
69065.6
69836.7
70714.5
71701
72792.9
73990.2
75291.2
76693.1
78186.1
79772.2
81448.5
83226.2
85106.2
87073.6
89097.5
91164.8
93211.3
95291.7
97231.3
99186.1
100949
102668
104221
105738
107115
108470
109689
110844
111844
112720
113424
113981
114381
114638
114764
114736
114631
114439
114164
113816
113401
112930
112409
111848
111253
110631
109985
109326
108653
107968
107272
106567
105856
105143
104423
103703
102977
102248
101512
100768
100023
99274.4
98533.4
97788
97055.2
96319.5
95605.3
94890.4
94196
93502.9
92824.7
92152.4
91490.8
90834.1
90181
89535.6
88888.3
88245.4
87602.6
86968.6
86333.2
85709.5
85085.1
84480.7
83878.6
83294.7
82717.3
82156.2
81598
81051.8
80508.6
79970.6
79438
78910.2
78388
77870.6
77358.5
76852.2
76351.1
75855.8
75368.2
74890.9
74424.5
73964.6
73515.6
73073.4
72644
72214.2
71787.4
71368.5
70953.5
70544.5
70137.8
69738.1
69341.2
68952.1
68566
68190.1
67821
67459.3
67107.6
66765.4
66425.3
66088.7
65761.5
65435.1
65112.8
64793.6
64478.7
64168.9
63864.5
63564.6
63268.6
62976.1
62690.1
62406.3
61998.8
803299
191517
152616
143156
137497
132806
128654
124923
121950
119972
119116
119218
120669
123600
128134
134502
142987
154012
167899
185235
206086
230863
258923
289985
321585
353257
381678
408184
430026
447667
460934
467411
472377
471101
468087
461026
450725
436604
418314
395926
367817
337409
306547
279440
255500
234429
217078
201787
189638
178190
168912
159513
151600
143870
136618
129988
123566
117913
112735
107327
102941
98917.8
94820.4
91376.5
88050
85369.9
82820.7
80730.8
78608.9
76811.2
74969.1
73443.5
71901.2
70660.3
69446
68361
67423
66496.1
65620.4
64870.2
64103.9
63375.4
62679.9
62061.4
61472.2
60902.4
60418
59925.6
59505.3
59076.1
58673.7
58265.7
57924.7
57580.6
57293.2
57001.3
56760.3
56515.3
56329.7
56137.4
56009.4
55888.2
55825.2
55770.5
55778.1
55818.2
55900.7
56029.5
56207.8
56439.3
56725.8
57069.9
57478.4
57958.8
58526
59188.7
59947.1
60802.2
61750.8
62783.2
63903.1
65101.2
66386.1
67739.4
69158.7
70641.7
72194.3
73816.7
75516.8
77282
79117.1
80988
82902.4
84760
86591.4
88301.9
89917.8
91400.8
92771.7
93977.6
95074.6
96001.1
96831.7
97496.2
98081.6
98513.9
98879.2
99119.8
99293.8
99370.9
99353.1
99280
99145.8
98949.9
98698.8
98400.4
98060.7
97684.4
97275.5
96835.4
96365.6
95865.1
95333.7
94781.2
94213.1
93633.6
93044.5
92448.8
91846.2
91247.8
90644.8
90051.2
89453.9
88862.7
88272.5
87686.1
87100.7
86517.5
85938.8
85358.5
84778.1
84195.9
83618.2
83038.7
82465
81890.1
81329.9
80771
80226.3
79689.1
79162.7
78638.7
78123.4
77611.1
77101.9
76597.3
76094.8
75597.2
75101.7
74610.3
74124.3
73642.1
73165.5
72694.9
72233.4
71780.6
71334.5
70896.7
70465.9
70046.1
69627.9
69211.4
68801.7
68394.9
67994.2
67595
67202.7
66811.9
66428.4
66047.5
65676
65310.2
64951.9
64601.6
64262.1
63924.5
63589.7
63264.2
62939.5
62618.9
62300.9
61987
61677.6
61373.6
61073.3
60777.4
60484.3
60198.2
59913
59503.2
805391
188077
146743
137196
131795
127415
123500
120029
117303
115487
114708
114998
116716
120129
125504
133227
143685
157463
175135
197246
223523
253932
286735
321476
353918
384755
411078
433850
451327
462873
469905
470103
469385
464312
455694
442216
423609
400364
370768
338245
305016
276083
250604
229096
211238
196261
183821
172773
163232
154381
146526
138623
131423
124146
117701
111541
105710
100759
95837
91530.3
88164.2
84724.7
81489
78950.9
76589.2