/*--------------------------------*- C++ -*----------------------------------*\
| =========                 |                                                 |
| \\      /  F ield         | OpenFOAM: The Open Source CFD Toolbox           |
|  \\    /   O peration     | Version:  2312                                  |
|   \\  /    A nd           | Website:  www.openfoam.com                      |
|    \\/     M anipulation  |                                                 |
\*---------------------------------------------------------------------------*/
FoamFile
{
    version     2.0;
    format      ascii;
    arch        "LSB;label=32;scalar=64";
    class       volScalarField;
    location    "0.002";
    object      p;
}
// * * * * * * * * * * * * * * * * * * * * * * * * * * * * * * * * * * * * * //

dimensions      [1 -1 -2 0 0 0 0];

internalField   nonuniform List<scalar> 
48128
(
3472.4
3472.56
3461.22
3449.33
3448.1
3444.28
3441.35
3436.35
3428.17
3417.33
3410.84
3394.64
3391.91
3371.18
3342.13
3309.67
3284.66
3265.45
3252.11
3244.71
3243.53
3247.01
3255.46
3269.23
3288.75
3314.21
3346.03
3386.69
3434.54
3490.28
3554.18
3627.12
3708.95
3800.48
3901
4011.93
4132.58
4263.93
4403.29
4554.36
4712.18
4884.05
5060.44
5250.87
5443.54
5653.4
5863.8
6087.43
6310.35
6546.1
6780.1
7024.14
7264.25
7513.91
7760.05
8009.26
8254.86
8500.85
8742.45
8981.04
9214.11
9442.35
9664.53
9880.27
10089
10289.9
10482.6
10667.6
10842.7
11009.2
11168
11313.6
11455.7
11583.2
11706.8
11814.9
11919.3
12010.1
12098.3
12178.7
12253.3
12325.5
12387.3
12451.9
12505.2
12558.5
12601.3
12639.7
12667.6
12694.3
12717.4
12741.9
12764.7
12787.9
12807.2
12822.3
12827.1
12831.5
12837.3
12846.1
12857.7
12870.1
12880.9
12888.4
12893.7
12898.3
12903.2
12908.8
12915.1
12922.9
12932.4
12943.8
12956.9
12971.2
12987.1
13003.6
13018.9
13026.1
13024.1
13014.1
13000.3
13012.7
13016.5
13033.9
13059
13082.8
13106.2
13128.6
13146.1
13160.4
13170.8
13178.5
13184.4
13188
13188.5
13188.3
13187.9
13189.4
13193
13197.6
13202.4
13207.7
13213.7
13221.1
13230.3
13240.8
13252.2
13265.2
13275.4
13286.1
13294.8
13304.2
13314.1
13323.9
13332.9
13339.4
13344.1
13343.7
13340.7
13336.5
13330
13322.4
13323
13321.8
13322.6
13326.7
13332.1
13340.8
13350.9
13361
13371.4
13381.6
13389.4
13396.2
13399.5
13399.6
13397.6
13393.3
13387.4
13383.2
13378.9
13376.2
13375
13377.7
13382.4
13388.1
13395.3
13404.2
13412.6
13420.1
13426.2
13429.1
13431.1
13428.2
13425.9
13421
13416.7
13412.9
13409.9
13409.1
13410
13412.6
13418
13424.8
13431.7
13438.7
13444.1
13449.1
13454
13448.8
13446.7
13444.2
13439.9
13436.1
13433
13431
13431.5
13433.1
13435.9
13440.1
13445.6
13450.9
13457.1
13461.9
13460.6
13461.2
13460.2
13456.5
13453.3
13450.1
13447.4
13445.4
13445.5
13446.6
13448.6
13451.6
13455.6
13459.9
13465
13467.9
3461.73
3466.34
3458.84
3449.66
3450.29
3448.42
3447.68
3445.27
3440.95
3435.86
3435.25
3417.76
3403.6
3375.22
3345.39
3322.52
3297.45
3277.09
3262.53
3254.17
3252.08
3254.82
3262.47
3275.43
3294.13
3319.1
3350.73
3387.9
3433.82
3488.39
3551.04
3623.42
3704.08
3794.62
3894.05
4003.73
4122.58
4252.47
4390.93
4540.66
4696.71
4866.29
5040.81
5229.19
5420.02
5627.02
5834.97
6056.43
6277.61
6510.72
6742.68
6984.28
7223.29
7470.72
7715.25
7963.75
8210.46
8456.06
8697.03
8934.75
9167.5
9395.6
9617.82
9833.76
10042.7
10243.7
10436.9
10621.5
10796.1
10962.3
11121.8
11268.9
11411.9
11541.1
11665.6
11775
11880.2
11972.5
12062
12144.2
12220.6
12293.7
12357.3
12423.2
12477.9
12532.5
12576.5
12615.5
12644.3
12672
12696.3
12722
12745.9
12770.2
12790.6
12806.3
12811.4
12816.7
12823.2
12832.9
12845.3
12858.5
12869.9
12877.8
12883.6
12888.6
12894
12900
12906.9
12915
12924.9
12936.7
12950.1
12964.8
12980.9
12997.8
13013.3
13020.7
13018.8
13009.2
12995.2
13008.1
13012.4
13029.7
13055
13079.4
13102.8
13125.2
13142.8
13157.3
13167.8
13175.6
13181.6
13185.3
13185.9
13185.8
13185.6
13187.2
13190.9
13195.6
13200.5
13205.9
13211.9
13219.4
13228.6
13239.2
13250.6
13263.7
13274
13284.8
13293.5
13302.9
13312.9
13322.8
13331.9
13338.3
13343.1
13342.7
13340
13335.7
13329.3
13321.6
13322.5
13321.3
13322.1
13326.1
13331.6
13340.3
13350.4
13360.5
13371.1
13381.2
13389.1
13395.9
13399.2
13399.3
13397.4
13393.1
13387.3
13383
13378.8
13376.2
13374.8
13377.7
13382.3
13388
13395.2
13404.1
13412.5
13420
13426.1
13429
13431.1
13428.3
13425.9
13421.1
13416.8
13413
13410
13409.2
13410.1
13412.7
13418
13424.9
13431.8
13438.8
13444.2
13449.2
13454.2
13449
13446.8
13444.3
13440
13436.3
13433.1
13431.2
13431.6
13433.3
13436.1
13440.2
13445.8
13451
13457.2
13462.1
13460.8
13461.3
13460.4
13456.7
13453.4
13450.3
13447.6
13445.6
13445.7
13446.7
13448.7
13451.8
13455.7
13460.1
13465.1
13468.1
3463.34
3465.49
3458.91
3449.35
3449.99
3447.58
3446.18
3442.97
3436.99
3430.74
3416.86
3396.55
3380.1
3363.12
3332.23
3298.94
3276.19
3260.09
3248.76
3242.84
3242.47
3246.31
3254.86
3268.58
3288.03
3313.39
3345.49
3384.46
3431.22
3485.96
3548.55
3620.55
3700.73
3790.9
3889.86
3999.04
4117.09
4246.03
4383.45
4532.18
4687.21
4855.97
5029.6
5217.32
5407.32
5613.59
5820.76
6041.32
6261.49
6493.97
6725.21
6966.21
7204.5
7451.7
7695.43
7941.28
8184.12
8427.87
8668.17
8905.61
9138.34
9366.64
9589.28
9805.84
10015.4
10217.1
10411.1
10596.4
10772.3
10939.9
11100.2
11248.5
11392.9
11523.2
11648.8
11759
11864.9
11957.9
12048.5
12131.5
12209.5
12282.8
12347.4
12414.4
12469.4
12524.9
12569.3
12608.2
12637
12665.2
12689.7
12716.1
12740.4
12765.3
12786.1
12801.8
12806.7
12812.3
12819.2
12829.2
12841.9
12855.3
12866.7
12874.8
12880.7
12885.8
12891.4
12897.6
12904.6
12912.9
12922.9
12934.7
12948.3
12963
12979.2
12996.2
13011.5
13018.8
13016.8
13007.7
12994.1
13006.6
13011.9
13028.5
13053.7
13078.6
13101.9
13124.2
13141.8
13156.3
13166.8
13174.8
13180.7
13184.3
13185
13185
13184.9
13186.5
13190.2
13195
13199.9
13205.2
13211.3
13218.8
13228
13238.7
13250.1
13263.1
13273.5
13284.3
13293
13302.6
13312.5
13322.3
13331.4
13337.8
13342.6
13342.2
13339.6
13335.3
13329
13321.4
13322
13321
13321.9
13325.9
13331.3
13340.1
13350.2
13360.3
13370.9
13381
13388.8
13395.5
13399
13399
13397.2
13393
13387
13382.8
13378.6
13376
13374.8
13377.6
13382.2
13387.9
13395.2
13404
13412.4
13419.9
13426.1
13428.9
13430.8
13428.4
13425.7
13421
13416.7
13412.9
13410
13409.2
13410.1
13412.7
13418
13424.9
13431.8
13438.8
13444.2
13449.1
13454
13449.2
13446.7
13444.2
13440
13436.2
13433.1
13431.2
13431.7
13433.3
13436.1
13440.2
13445.8
13451.1
13457.2
13462.1
13460.9
13461.3
13460.4
13456.7
13453.4
13450.3
13447.6
13445.7
13445.8
13446.8
13448.8
13451.8
13455.8
13460.1
13465.2
13468.1
3462.65
3461.81
3457.98
3448.53
3449.12
3446.54
3445.06
3445.28
3435.64
3419.72
3401.87
3384.46
3363.93
3336.51
3314.28
3291.08
3271.75
3257.41
3247.3
3242.21
3242.19
3246.21
3254.79
3268.53
3287.67
3312.63
3344.15
3382.52
3428.42
3482.29
3544.08
3615.12
3694.24
3783.42
3881.04
3989.04
4105.23
4232.94
4368.77
4516.23
4669.29
4836.55
5008.27
5194.55
5382.52
5586.99
5792.18
6011.04
6229.57
6461.14
6690.76
6930.67
7167.44
7414.27
7657.05
7902.47
8145.37
8389.08
8629
8865.85
9098.35
9326.45
9549.39
9766.39
9976.28
10178.5
10372.8
10558.4
10734.3
10903.1
11063.6
11213.4
11358.9
11490.6
11617.5
11728.3
11834.9
11928.3
12020.1
12103.9
12184
12257.4
12323.4
12391.9
12448
12505.4
12550.9
12590.3
12619.5
12648.5
12674
12701.7
12727
12753
12774.8
12790.8
12796
12802.3
12810
12820.9
12834.2
12848
12859.8
12868.2
12874.6
12880.2
12886.1
12892.7
12900.2
12908.9
12919
12931.1
12944.8
12959.6
12976
12993.1
13007.9
13015.1
13013
13005
12992.5
13004.1
13010.7
13026.7
13051.6
13076.8
13100
13122.1
13139.7
13154.4
13164.9
13173.1
13179
13182.4
13183.3
13183.6
13183.6
13185.3
13189.1
13193.8
13198.8
13204.2
13210.4
13218
13227.2
13237.9
13249.4
13262.3
13272.7
13283.5
13292.3
13302
13311.9
13321.7
13330.7
13337
13341.7
13341.3
13338.9
13334.7
13328.6
13321.1
13321.5
13320.8
13321.8
13325.7
13331.1
13339.9
13350
13360.1
13370.7
13380.7
13388.4
13395.1
13398.5
13398.5
13396.8
13392.8
13386.8
13382.6
13378.5
13376
13374.8
13377.6
13382.1
13387.9
13395.1
13403.9
13412.3
13419.8
13425.9
13428.7
13430.6
13428.2
13425.5
13420.9
13416.6
13412.9
13409.9
13409.3
13410.1
13412.8
13418
13424.9
13431.8
13438.8
13444.2
13449
13453.7
13449.4
13446.6
13444.1
13440
13436.2
13433.1
13431.3
13431.7
13433.4
13436.2
13440.3
13445.9
13451.1
13457.1
13462
13461
13461.3
13460.3
13456.8
13453.4
13450.3
13447.7
13445.7
13445.8
13446.9
13448.9
13451.9
13455.9
13460.2
13465.2
13468.1
3463.86
3458.97
3457.7
3448.51
3448.87
3445.31
3446.75
3438.45
3425.39
3406.5
3389.17
3366.38
3348.05
3323.36
3303.16
3282.19
3265.73
3253.33
3244.68
3240.45
3240.82
3245.06
3253.69
3267.24
3285.99
3310.55
3341.43
3379.15
3424.29
3477.44
3538.4
3608.63
3686.71
3775.13
3871.59
3978.81
4093.45
4220.42
4354.94
4501.83
4653.02
4819.69
4989.92
5175.57
5362.4
5566.88
5771.86
5990.01
6207.05
6438.82
6667.51
6907.65
7143.11
7390.52
7632.45
7878.15
8120.76
8364.7
8604.44
8841.16
9073.48
9302.23
9525.26
9743.33
9953.45
10155.7
10350.4
10535.8
10711.3
10880.4
11040.2
11191.2
11337.5
11470.5
11598.5
11709
11816
11909.4
12002.2
12086.4
12168.5
12241.3
12308.5
12378.3
12434.8
12493.7
12539.5
12578.7
12607.9
12637.5
12663.5
12692.2
12718.1
12744.8
12766.9
12782.7
12788.1
12795.1
12803.5
12815
12828.4
12842.2
12854.1
12862.8
12869.4
12875.3
12881.5
12888.3
12896.2
12905.2
12915.6
12927.8
12941.6
12956.7
12973.2
12990.2
13004.2
13011.3
13009
13002.7
12991.8
13002.2
13010.4
13025.7
13050.2
13075.4
13098.3
13120.2
13137.8
13152.6
13163.2
13171.7
13177.5
13180.7
13181.8
13182.4
13182.6
13184.5
13188.2
13192.9
13198
13203.4
13209.7
13217.3
13226.6
13237.3
13248.7
13261.5
13271.9
13282.8
13291.6
13301.6
13311.3
13321
13329.9
13336.1
13340.7
13340.4
13338.1
13334
13328.3
13320.9
13320.9
13320.7
13321.8
13325.6
13331.1
13339.7
13349.8
13359.9
13370.5
13380.3
13387.9
13394.5
13397.9
13397.9
13396.3
13392.5
13386.7
13382.5
13378.4
13376
13374.9
13377.6
13382
13387.9
13395.2
13403.8
13412.1
13419.5
13425.7
13428.5
13430.4
13428
13425.3
13420.8
13416.5
13412.8
13409.9
13409.4
13410.3
13412.9
13418.1
13424.9
13431.8
13438.7
13444.2
13448.8
13453.4
13449.6
13446.6
13443.9
13440
13436.2
13433.2
13431.4
13431.9
13433.5
13436.3
13440.4
13445.9
13451.2
13456.9
13461.9
13461.2
13461.2
13460.3
13456.8
13453.5
13450.4
13447.8
13445.8
13445.9
13447
13449
13452
13456
13460.3
13465.2
13468.1
3465.93
3460.05
3459.05
3448.58
3448.43
3447.82
3441.27
3430.44
3413.68
3395.36
3375.2
3354.95
3334.21
3311.61
3293.24
3275.1
3260.7
3249.7
3242.13
3238.48
3239.07
3243.46
3251.98
3265.28
3283.49
3307.54
3337.72
3374.85
3419.16
3471.68
3531.8
3601.3
3678.29
3766.06
3861.37
3968.04
4081.05
4207.64
4340.89
4487.9
4637.27
4804.42
4974.18
5159.28
5344.22
5549.13
5754.2
5972.75
6189.33
6422.47
6650.42
6891.42
7126.16
7376
7615.8
7862.09
8103.51
8349.65
8587.02
8825.29
9055.14
9287.03
9508.95
9728.79
9938.82
10140.9
10336.3
10520.9
10695.9
10865.2
11023.5
11175.9
11322.6
11456.9
11585.3
11695
11802
11895
11988.5
12072.7
12156.6
12228.1
12296
12366
12422.3
12483.2
12529.1
12567.8
12597
12627.2
12653.8
12683.8
12710
12737.6
12759.6
12775
12780.8
12788.9
12798.2
12810.4
12823.8
12837.3
12849.1
12857.9
12865
12871.3
12877.8
12885
12893.2
12902.6
12913.1
12925.4
12939.2
12954.3
12971
12987.4
13000.1
13006.9
13004.5
13000.3
12992.1
13000.9
13010.9
13025.8
13049.1
13073.8
13096.4
13117.8
13135.3
13150.4
13161.2
13170
13175.8
13178.7
13180.1
13181.1
13181.7
13183.9
13187.5
13192.1
13197.2
13202.8
13209.2
13216.9
13226.2
13236.9
13248.2
13260.7
13271.1
13282
13291
13301.2
13310.8
13320.4
13329.1
13335.1
13339.5
13339.2
13337.3
13333.3
13328.1
13321
13320.6
13320.8
13322.1
13325.8
13331.3
13339.7
13349.6
13359.7
13370.3
13379.8
13387.3
13393.8
13397.2
13397.2
13395.6
13392.2
13386.6
13382.4
13378.4
13376.1
13375.2
13377.7
13382.1
13388
13395.3
13403.8
13411.9
13419.3
13425.3
13428.1
13430.1
13427.5
13425.1
13420.6
13416.4
13412.8
13410
13409.6
13410.5
13413.1
13418.2
13425
13431.8
13438.6
13444.1
13448.5
13452.9
13449.7
13446.6
13443.7
13440
13436.3
13433.3
13431.6
13432
13433.6
13436.5
13440.5
13445.9
13451.3
13456.7
13461.7
13461.4
13461.1
13460.1
13456.9
13453.5
13450.4
13447.9
13446
13446.1
13447.1
13449.1
13452.1
13456.1
13460.3
13465.2
13468
3470.52
3462.32
3461.13
3449.14
3451.17
3444.66
3435.26
3420.69
3403.38
3384.2
3364.59
3342.61
3322.18
3301.78
3284.63
3268.6
3255.73
3245.88
3239.22
3236.07
3236.8
3241.34
3249.56
3262.48
3280.14
3303.7
3333.17
3369.75
3413.22
3465.23
3524.43
3593.35
3669.24
3756.57
3850.7
3957.39
4068.94
4195.68
4327.35
4474.4
4623.06
4791.31
4960.79
5145.85
5329.28
5535.14
5739.52
5958.11
6174.36
6408.65
6634.69
6875.88
7108.54
7365.59
7601.14
7847.71
8083.23
8336.76
8567.01
8808.93
9033.32
9268.71
9488.17
9711.9
9921.43
10123.4
10320.1
10503.1
10678.5
10848.9
11006.8
11161.7
11308.9
11445.5
11574.3
11683.1
11790.3
11883.4
11977.8
12062.4
12148.1
12218
12287.6
12356.7
12412.7
12475.8
12521.2
12559.1
12588.7
12619.7
12646.7
12677.4
12703.1
12731.4
12752.8
12767.4
12774.1
12783.8
12794.3
12807.4
12820.6
12833.4
12844.8
12853.9
12861.4
12868.3
12875.2
12882.6
12891.3
12901.1
12911.7
12924
12937.8
12952.8
12969.7
12985.1
12996
13002.2
13000
12998.6
12993.5
13001.3
13012.8
13027.4
13049.1
13072.9
13094.8
13115.6
13133.1
13148.3
13159.4
13168.5
13174.1
13176.8
13178.7
13180.1
13181.2
13183.7
13187.1
13191.6
13196.7
13202.4
13208.9
13216.7
13226
13236.7
13247.9
13260
13270.4
13281.3
13290.4
13301
13310.4
13319.7
13328.2
13333.9
13338.2
13338
13336.4
13332.6
13328.1
13321.3
13320.2
13321.1
13322.6
13326.3
13331.7
13340
13349.7
13359.6
13370.3
13379.2
13386.8
13392.9
13396.3
13396.6
13394.9
13391.7
13386.6
13382.4
13378.5
13376.4
13375.7
13378
13382.3
13388.3
13395.5
13403.8
13411.7
13418.9
13424.9
13427.7
13429.8
13427
13424.7
13420.5
13416.4
13412.9
13410.1
13410
13410.9
13413.4
13418.4
13425.1
13431.9
13438.5
13443.9
13448.2
13452.3
13449.8
13446.5
13443.5
13440
13436.3
13433.4
13431.8
13432.3
13433.8
13436.7
13440.7
13446
13451.4
13456.5
13461.4
13461.5
13461
13459.9
13456.9
13453.5
13450.5
13448
13446.1
13446.3
13447.3
13449.3
13452.3
13456.2
13460.4
13465.2
13467.9
3478.8
3464.16
3465.86
3455.19
3450.4
3441.28
3428.08
3412.22
3394.43
3375.2
3353.65
3331.83
3312.01
3293.36
3277.21
3262.79
3251.1
3242.18
3236.25
3233.49
3234.21
3238.72
3246.53
3259.09
3276.17
3299.25
3327.97
3364.05
3406.64
3458.21
3516.45
3584.95
3659.87
3747.28
3839.79
3946.12
4056.5
4184.64
4315.29
4461.92
4609.46
4778.58
4947.38
5132.47
5315.47
5522.73
5724.15
5940.52
6153.8
6391.06
6611.07
6851.92
7075.84
7347.54
7576.63
7821.58
8048.97
8308.08
8531.91
8773.96
8993.44
9231.46
9450.09
9676.67
9886.83
10087.6
10286.3
10466.5
10643.2
10814.9
10972.7
11132
11279.8
11420.4
11550.7
11659.2
11767.7
11862.7
11958.7
12044.9
12133.8
12202.1
12276.6
12345.7
12401.2
12468.6
12510.1
12551.2
12580.4
12614
12640.5
12673.6
12696.8
12726.9
12745.3
12760.2
12767.9
12781
12791.4
12805.6
12817.6
12829.6
12840.5
12849.8
12858
12865.6
12872.9
12880.8
12890.2
12900.5
12911
12923.5
12937.2
12952.1
12969.1
12982.8
12991
12996.6
12995.2
12997.4
12995.4
13002.8
13016
13030.4
13050.3
13072.5
13093.2
13113.4
13130.4
13146.3
13157.3
13167.3
13172.1
13174.9
13177.2
13179.2
13180.9
13183.8
13187.1
13191.3
13196.4
13202.3
13209
13217
13226.1
13236.9
13247.9
13259.4
13269.7
13280.8
13289.9
13301.1
13310
13319.4
13327.2
13332.5
13336.7
13336.5
13335.4
13331.8
13328
13322
13320.4
13321.6
13323.3
13327.1
13332.5
13340.4
13349.9
13359.6
13370.1
13378.5
13386.3
13391.8
13395.3
13396
13393.7
13391.5
13386.6
13382.5
13378.7
13376.8
13376.4
13378.5
13382.8
13388.7
13395.8
13403.8
13411.4
13418.5
13424.4
13427.3
13429.1
13426.6
13424.3
13420.4
13416.4
13413
13410.4
13410.4
13411.4
13413.9
13418.6
13425.3
13431.9
13438.4
13443.7
13447.7
13451.7
13449.8
13446.5
13443.3
13439.9
13436.4
13433.6
13432.1
13432.6
13434.1
13437
13441
13446.1
13451.4
13456.2
13461
13461.7
13460.8
13459.7
13456.9
13453.6
13450.6
13448.1
13446.4
13446.5
13447.5
13449.5
13452.5
13456.4
13460.5
13465.1
13467.8
3487.28
3466.78
3471.73
3459.79
3450.18
3437.11
3422.19
3405.48
3387.14
3365.93
3343.94
3322.64
3303.6
3286.2
3270.97
3257.72
3246.95
3238.79
3233.38
3230.77
3231.32
3235.75
3243.14
3255.29
3271.74
3294.36
3322.29
3357.95
3399.55
3450.89
3508.42
3576.44
3649.48
3737.19
3828.9
3935.48
4044.56
4173.28
4303.17
4449.98
4596.12
4764.8
4931.39
5113.95
5294.91
5507.02
5700.64
5911.71
6116.92
6365.75
6574.06
6814.73
7024.41
7307.1
7532.39
7779.77
7994.8
8252.79
8470.81
8713.32
8927.69
9166.96
9386.38
9613.34
9827.87
10026.2
10228.3
10405.9
10586.2
10758.8
10918.2
11082.6
11230.6
11377.3
11508.3
11617
11730.4
11826.5
11928.3
12012.8
12110.8
12169.7
12255.3
12327.2
12378
12455.3
12486.5
12536.8
12564.2
12605.1
12628.8
12667.6
12687.3
12722
12734.3
12751
12761.2
12779.2
12789.3
12805
12815.1
12826.4
12836.3
12845.9
12855
12863.3
12870.9
12879.3
12889.3
12900.4
12910.9
12923.5
12937
12951.8
12968.7
12980.2
12985
12989.5
12990.7
12996.5
12997.5
13005.9
13021
13034.7
13052.5
13072.3
13091.5
13111.1
13127.4
13144
13154.8
13166
13169.8
13172.9
13175.9
13178.3
13181.1
13184.2
13187.4
13191.5
13196.4
13202.6
13209.5
13217.5
13226.8
13237.5
13248
13259
13269.1
13280.3
13289.6
13301.1
13309.8
13319
13326.1
13331
13335
13335
13334.2
13330.9
13328
13322.7
13321.2
13322.3
13324.3
13328.1
13333.6
13341.1
13350.3
13359.7
13369.9
13377.9
13385.5
13390.7
13394.2
13395
13392.7
13391.1
13386.6
13382.7
13379.1
13377.5
13377.3
13379.2
13383.2
13389.3
13396.2
13403.9
13411.2
13418.1
13423.9
13426.6
13428.4
13426.1
13423.9
13420.3
13416.5
13413.2
13410.9
13411
13412.1
13414.5
13419
13425.5
13432
13438.3
13443.4
13447.1
13451
13449.7
13446.4
13443.2
13439.9
13436.6
13433.9
13432.5
13433
13434.5
13437.3
13441.3
13446.2
13451.5
13455.8
13460.6
13461.7
13460.6
13459.4
13456.9
13453.7
13450.7
13448.3
13446.6
13446.8
13447.7
13449.7
13452.7
13456.5
13460.5
13465.1
13467.7
3495.89
3472.8
3475.33
3462.41
3449.14
3433.87
3417.55
3399.82
3380.33
3357.64
3335.67
3315.07
3296.77
3280.29
3265.86
3253.49
3243.41
3235.76
3230.58
3228.03
3228.37
3232.59
3239.51
3251.24
3266.98
3289.23
3316.33
3351.77
3392.54
3443.24
3499.13
3567.41
3639.05
3727.35
3818.28
3925.37
4033.13
4161.58
4289.28
4434.03
4578.69
4746.55
4908.37
5087.24
5260.12
5485.79
5667.71
5867.12
6058.18
6320.38
6515.88
6757.96
6949.64
7232.47
7456.23
7714.28
7918.38
8164.88
8377.8
8617.81
8828.9
9063.77
9289.81
9514.53
9730.59
9929.61
10133.9
10310.9
10496.5
10670.2
10833.8
11005.4
11154.3
11307.6
11449.3
11547.8
11679.8
11766.5
11885
11961.5
12073.4
12125.7
12226.6
12293.7
12348.4
12432
12452.7
12512.3
12542.7
12587.1
12614.2
12653.1
12675.4
12708.8
12717.9
12735.7
12751.5
12773.4
12785.4
12802.6
12811.3
12821.9
12831.2
12841.2
12851.4
12860.6
12869
12878.2
12888.8
12900.4
12911.4
12923.8
12937.2
12951.9
12967.5
12976
12978.3
12981.7
12986.2
12995
13000.4
13010.5
13027.8
13039.6
13054.5
13072.3
13090
13108.3
13124.3
13140.9
13152.3
13164.1
13167
13170.8
13174.3
13177.7
13181.2
13184.7
13187.9
13191.8
13196.8
13203
13210.1
13218.5
13227.7
13238
13248.1
13258.7
13268.7
13279.7
13289.4
13301.2
13309.6
13318.3
13324.8
13329.3
13333.2
13333.2
13332.7
13330.2
13327.9
13323.8
13322.2
13323.3
13325.6
13329.5
13334.9
13342
13350.8
13359.9
13369.6
13377.3
13384.5
13389.6
13393
13393.6
13391.9
13390.4
13386.7
13383
13379.6
13378.4
13378.4
13380.1
13384.1
13389.9
13396.7
13404
13410.9
13417.7
13423.1
13425.8
13427.6
13425.6
13423.4
13420.2
13416.6
13413.5
13411.5
13411.7
13412.8
13415.2
13419.6
13425.7
13432.1
13438.2
13443
13446.4
13450.3
13449.5
13446.3
13443.1
13439.8
13436.8
13434.3
13433
13433.4
13434.9
13437.8
13441.7
13446.4
13451.5
13455.5
13460.1
13461.7
13460.4
13459.2
13456.9
13453.8
13450.8
13448.6
13446.9
13447.1
13448
13450
13453
13456.7
13460.6
13465
13467.5
3503.07
3477.38
3478.79
3464.7
3448.65
3431.69
3413.8
3395.42
3373.62
3350.72
3328.84
3309.04
3291.4
3275.65
3261.86
3250.12
3240.49
3233.1
3227.94
3225.49
3225.52
3229.38
3235.77
3247.13
3262.09
3284.14
3310.53
3345.34
3384.47
3435.22
3489.67
3558.92
3629.68
3718.35
3807.79
3914.06
4019.87
4146.66
4271.26
4410.75
4552.76
4725.6
4874.64
5049.42
5204.22
5444.4
5618.47
5813.09
5976.58
6239.7
6424
6672.68
6850.98
7118.26
7336.76
7602.79
7802.3
8030.76
8243.37
8474.1
8695.36
8923.62
9153.89
9369.01
9597.3
9791.79
10006.1
10180.3
10371.9
10557.5
10720.9
10909.7
11048.5
11208.5
11357.4
11461.1
11615.3
11692
11823.1
11897
12017.7
12073.2
12184.2
12243.1
12310.8
12394.1
12412.1
12478.3
12515.2
12564.4
12594.8
12636.7
12658
12691.8
12699.8
12719
12738.9
12765.5
12779.7
12798.5
12805.9
12815.7
12824.1
12834.4
12845.6
12856.5
12866.2
12876.6
12888
12900.1
12911.5
12924.2
12937.4
12951.7
12964.5
12969.5
12970.4
12974
12981.1
12993.5
13004.1
13017.8
13035.4
13044.6
13057
13072.3
13088.3
13105.3
13120.6
13137.2
13148.6
13161.4
13164.2
13168.3
13172.7
13177
13181.4
13185.4
13188.5
13192.3
13197.4
13203.7
13211.2
13219.6
13228.9
13238.9
13248.3
13258.5
13268.3
13279.1
13289.4
13301.2
13309.1
13317.6
13323.1
13327.3
13331.2
13331.4
13331
13329.3
13328
13325
13323.6
13324.7
13327.2
13331.2
13336.5
13343.2
13351.4
13360.1
13369.3
13376.4
13383.6
13388
13391.6
13392.2
13390.8
13389.7
13386.8
13383.4
13380.4
13379.5
13379.7
13381.3
13385
13390.8
13397.3
13404.3
13410.6
13417.1
13422.2
13424.9
13426.7
13424.9
13422.9
13420
13416.7
13414
13412.2
13412.5
13413.7
13416.1
13420.2
13426
13432.2
13438
13442.5
13445.7
13449.4
13449.2
13446.2
13442.9
13439.8
13437
13434.7
13433.6
13434
13435.4
13438.3
13442.1
13446.5
13451.5
13455.1
13459.6
13461.6
13460.2
13458.9
13456.8
13453.8
13451
13448.8
13447.3
13447.4
13448.4
13450.3
13453.3
13456.9
13460.7
13464.9
13467.3
3508.52
3485.52
3479.91
3465.07
3447.95
3430.02
3410.18
3391.63
3368.11
3345.12
3323.58
3304.47
3287.41
3272.24
3258.94
3247.59
3238.19
3230.86
3225.72
3223.16
3222.85
3226.25
3232.08
3243.18
3257.47
3279.02
3303.83
3338.61
3376.37
3428.09
3481.72
3551.28
3620.61
3708.71
3795.76
3898.96
4002.91
4127.43
4247.29
4379.3
4509.02
4693.1
4826.73
5000.55
5128.37
5367.05
5538.19
5744.3
5880.49
6113.69
6286.53
6532.57
6714.69
6950.97
7178.81
7432.53
7650.97
7857.22
8069.99
8285.61
8529.64
8730
8985.85
9170.84
9435.2
9600.67
9850.81
10003.2
10220.1
10391
10580.6
10781.3
10918.9
11097.8
11210.3
11365.3
11521.6
11599
11746.5
11814.9
11943
12008.4
12127.7
12176.6
12259.8
12337.7
12362.8
12439
12477.7
12534.7
12566.7
12613
12634.5
12669.7
12676.5
12699.9
12723.8
12754.8
12771.5
12793.2
12799.9
12809.8
12817.4
12828.4
12840.5
12852.6
12863.7
12875.5
12887.5
12899.9
12911.8
12924.8
12937.5
12950.9
12959.1
12960.9
12961.6
12966.1
12975.9
12991.8
13008.2
13025.6
13043.1
13050.1
13059.8
13072.4
13086.2
13101.7
13116.5
13132.5
13144.1
13157.7
13160.8
13165.6
13170.7
13176
13181.5
13185.9
13189.1
13193
13198.1
13204.7
13212.3
13221
13230.2
13239.7
13248.5
13258.2
13267.9
13278.6
13289.2
13301.2
13308.4
13316.6
13321.2
13325
13328.9
13329.1
13329
13328.4
13328
13326.5
13325.3
13326.4
13329
13333.1
13338.3
13344.6
13352.2
13360.3
13368.8
13375.6
13382.4
13386.4
13390
13390.6
13389.6
13388.9
13386.8
13383.9
13381.3
13380.8
13381.1
13382.7
13386.3
13391.7
13397.9
13404.4
13410.3
13416.4
13421.2
13423.9
13425.7
13424.1
13422.4
13419.9
13416.9
13414.5
13413
13413.4
13414.7
13417.2
13421.1
13426.4
13432.2
13437.7
13442
13444.9
13448.4
13448.7
13446
13442.8
13439.8
13437.3
13435.2
13434.2
13434.6
13436
13438.8
13442.6
13446.7
13451.5
13454.7
13458.9
13461.4
13459.9
13458.5
13456.7
13453.9
13451.2
13449.1
13447.7
13447.8
13448.8
13450.7
13453.7
13457.2
13460.7
13464.8
13467.1
3515.32
3489.93
3480.78
3464.64
3446.92
3427.51
3408.3
3387.52
3363.7
3340.78
3319.87
3301.34
3284.75
3270.03
3257.05
3245.9
3236.52
3229.16
3224
3221.15
3220.45
3223.38
3228.64
3239.51
3252.38
3273.76
3297.19
3332.89
3369.9
3422.15
3474.53
3543.41
3610.5
3696.48
3780.43
3877.8
3978.44
4105.13
4211.7
4338.53
4446.01
4636.86
4755.59
4932.81
5039.61
5249.56
5418.2
5628.37
5759.61
5940.56
6123.14
6341.38
6542.94
6753.62
6971.77
7197.89
7449.99
7629.55
7876.35
8051.68
8329.42
8494.56
8779.23
8933.86
9230.9
9378.57
9657.82
9795.5
10052.2
10196
10432.4
10593.6
10781.1
10963.5
11056.7
11260.6
11382.6
11495.4
11667.6
11718.5
11857.3
11925.1
12057.5
12095.2
12191.5
12263.2
12304.2
12392.6
12428.2
12494.2
12528.4
12583.1
12599.2
12635.7
12647.9
12676.6
12701.7
12736.6
12756.2
12782
12788.6
12800.3
12807.8
12820.7
12833.2
12846.6
12860.2
12874.3
12887.4
12900.1
12913.3
12927.4
12939.6
12950.6
12953.8
12952.7
12953.8
12960.2
12972.6
12991.6
13013
13033.8
13050.3
13055.8
13063.3
13073
13084.2
13097.7
13111.3
13126.8
13138.4
13152.7
13156.7
13162.4
13168.5
13174.9
13181.3
13186.1
13189.7
13193.8
13199.1
13205.8
13213.7
13222.5
13231.4
13240.4
13248.6
13257.9
13267.5
13278
13288.9
13300.9
13307.4
13315.2
13318.8
13322.3
13326.1
13326.4
13326.9
13327.2
13328
13327.9
13327.3
13328.4
13331.2
13335.3
13340.4
13346.2
13353.1
13360.4
13368.3
13374.5
13381
13384.5
13388
13388.8
13388.2
13388
13386.7
13384.5
13382.4
13382.2
13382.7
13384.3
13387.7
13392.8
13398.6
13404.6
13409.9
13415.6
13420.1
13422.6
13424.4
13423.2
13421.7
13419.7
13417.2
13415.2
13414
13414.4
13415.9
13418.3
13422
13426.9
13432.3
13437.4
13441.4
13444
13447.3
13448
13445.8
13442.8
13439.8
13437.6
13435.8
13434.9
13435.3
13436.7
13439.5
13443.1
13446.9
13451.5
13454.3
13458.3
13461.1
13459.5
13458.2
13456.6
13454
13451.4
13449.5
13448.1
13448.3
13449.2
13451.2
13454.1
13457.4
13460.8
13464.6
13466.8
3506.79
3487.3
3478.98
3462.96
3445.16
3425.11
3407.15
3384.3
3360.52
3337.78
3317.6
3299.56
3283.33
3268.94
3256.11
3244.99
3235.52
3228.16
3222.75
3219.52
3218.38
3220.97
3225.13
3235.75
3247.29
3269.42
3292.27
3328.67
3364.63
3416.62
3466.8
3533.11
3597.44
3679.73
3760.06
3850.13
3938.69
4072.56
4162.1
4290.28
4367.34
4548.62
4655.11
4832.38
4938.75
5101.34
5268.16
5449.66
5610.64
5756.73
5927.29
6111.16
6329.05
6510.28
6743.08
6923.72
7187.49
7349.8
7639.72
7797.3
8090.85
8231.32
8529.59
8670.25
8980.29
9101.07
9397.13
9534.22
9831.37
9969.52
10242.2
10364.8
10592.4
10751.5
10901.9
11128.7
11207
11378.1
11560.5
11623.4
11781.6
11842.8
11978.8
12016.3
12121.6
12185.3
12253.5
12352.8
12378.6
12454.7
12491.4
12552.6
12559.4
12600.1
12617.8
12658.3
12678.5
12715.8
12734.7
12764.3
12772
12787.2
12794.7
12809
12820.5
12835.7
12852.1
12868.8
12883.1
12896.7
12911.4
12926.8
12937.8
12946.5
12945.1
12942.4
12945.9
12955.5
12971.2
12993.1
13019
13043.5
13057.9
13063.6
13068.8
13074.9
13083.4
13094.6
13106.7
13121.5
13132.7
13147.7
13153
13159.8
13166.4
13173.7
13180.9
13186.1
13190.2
13194.8
13200.4
13207.3
13215.3
13224.1
13232.8
13240.9
13248.9
13257.6
13266.9
13277.4
13288.4
13300.3
13306.1
13313.4
13316.2
13319.2
13322.8
13323.3
13324.5
13326
13328
13329.4
13329.4
13330.7
13333.6
13337.7
13342.6
13348
13354
13360.6
13367.7
13373.2
13379.3
13382.4
13385.7
13386.7
13386.7
13387
13386.5
13385
13383.7
13383.8
13384.5
13386.1
13389.4
13394.1
13399.2
13404.8
13409.5
13414.7
13418.7
13421.2
13423
13422.1
13421
13419.5
13417.4
13415.9
13415.1
13415.6
13417.2
13419.6
13423
13427.4
13432.2
13437
13440.8
13443.1
13446.1
13447.2
13445.5
13442.7
13439.9
13437.9
13436.4
13435.7
13436.1
13437.6
13440.2
13443.6
13447.1
13451.4
13453.8
13457.6
13460.6
13459.2
13457.9
13456.4
13454.1
13451.7
13449.9
13448.6
13448.8
13449.7
13451.7
13454.5
13457.7
13460.8
13464.4
13466.5
3505.78
3484.77
3476.33
3460.7
3443.21
3424.17
3405.19
3381.91
3358.47
3336.14
3316.71
3299.08
3283.11
3268.93
3256.1
3244.87
3235.31
3227.79
3222.01
3218.45
3216.55
3218.61
3221.65
3232.69
3243.68
3266.72
3288.76
3325.16
3359.29
3409.66
3456.55
3517.39
3578.92
3658.51
3729.41
3819.14
3883.76
4020.8
4093.78
4227.33
4285.87
4439.45
4531.46
4686.33
4806.19
4945.43
5092.8
5231.6
5404.81
5538.28
5721.16
5869.49
6084.06
6218.3
6447.13
6563.83
6773.76
6974.57
7245.44
7429.41
7726.3
7875.74
8201.53
8340.13
8670.25
8807.41
9151.74
9279.63
9596.31
9738.64
10033.7
10147.2
10425.9
10512.1
10748.8
10987.2
11044.9
11247.3
11411.1
11494.3
11671.3
11719.4
11861.8
11907.6
12026.5
12071.5
12169.4
12276
12309.6
12396.9
12431.6
12500.9
12507.3
12555.5
12576.5
12627.1
12648.9
12689.5
12707.3
12742
12752.2
12774
12783.6
12800
12808.1
12825.2
12844
12862.4
12877.6
12892.4
12908.2
12923.3
12932
12936.7
12931.6
12928.7
12935.3
12949
12968.5
12992.5
13020.4
13047.9
13064.2
13069.2
13073.6
13077.3
13083.2
13091.7
13101.8
13115.6
13126.1
13141.9
13149.3
13157.9
13165.3
13173.6
13181
13187.3
13192.1
13196.9
13202.7
13209.6
13217.7
13226.3
13234.8
13241.8
13249.4
13257.6
13266.8
13277.1
13287.8
13299.3
13304.3
13311.2
13313.2
13315.7
13319.2
13320
13322.1
13324.7
13327.9
13330.8
13331.5
13333.3
13336.2
13340.3
13344.9
13349.8
13355
13360.6
13366.8
13371.7
13377.3
13379.9
13383.1
13384.3
13385
13385.9
13386.1
13385.6
13385.1
13385.5
13386.5
13388.1
13391.2
13395.4
13399.9
13404.9
13409
13413.7
13417.2
13419.6
13421.4
13420.9
13420.3
13419.2
13417.7
13416.7
13416.3
13416.9
13418.6
13421
13424.2
13428
13432.2
13436.5
13440
13442.1
13444.8
13446.1
13445.1
13442.5
13440
13438.3
13437.1
13436.6
13437
13438.5
13441
13444.2
13447.4
13451.3
13453.4
13456.8
13459.9
13458.7
13457.5
13456.2
13454.2
13452
13450.3
13449.2
13449.4
13450.3
13452.2
13455
13457.9
13460.9
13464.2
13466.1
3503.14
3481.7
3473.28
3458.38
3441.53
3423.86
3403.68
3380.53
3357.59
3335.96
3317.13
3299.83
3283.99
3269.91
3256.95
3245.51
3235.8
3228.04
3221.88
3217.73
3214.77
3216.77
3219.25
3231.27
3241.45
3264.93
3285.33
3320.42
3351.45
3398.12
3441.89
3495.87
3549.29
3634.21
3687.23
3783.53
3824.09
3952.95
4008.48
4140
4195.41
4314
4395.14
4512.26
4633.38
4749.53
4886.26
4997.51
5149.72
5251.33
5408.73
5515.83
5694.44
5827.08
6066.5
6223.73
6421.16
6657.35
6849.38
7141.55
7394.41
7541.82
7879.42
8013.23
8364.97
8488.05
8847.71
8995.82
9346.29
9488.9
9807
9914.99
10208
10320
10589.3
10788.8
10898.2
11135.8
11247.6
11397.5
11592.4
11631.4
11783.1
11838.9
11969.6
12006
12121.6
12219.5
12268.8
12373.8
12392.2
12455.9
12465.6
12526.9
12555.4
12608.5
12627.4
12669.7
12683.6
12719.7
12727.1
12754.7
12767.5
12787.9
12795.4
12812.6
12831.6
12851.8
12868.8
12884.8
12902.3
12916.9
12922.9
12926.8
12918.2
12917.2
12925.6
12941.3
12963.5
12991.6
13020.7
13047.2
13063.9