/*--------------------------------*- C++ -*----------------------------------*\
| =========                 |                                                 |
| \\      /  F ield         | OpenFOAM: The Open Source CFD Toolbox           |
|  \\    /   O peration     | Version:  2312                                  |
|   \\  /    A nd           | Website:  www.openfoam.com                      |
|    \\/     M anipulation  |                                                 |
\*---------------------------------------------------------------------------*/
FoamFile
{
    version     2.0;
    format      ascii;
    arch        "LSB;label=32;scalar=64";
    class       surfaceScalarField;
    location    "0.002";
    object      phi;
}
// * * * * * * * * * * * * * * * * * * * * * * * * * * * * * * * * * * * * * //

dimensions      [1 0 -1 0 0 0 0];

oriented        oriented;

internalField   nonuniform List<scalar> 
95760
(
1.43729e-08
-1.43936e-08
1.86069e-08
-4.2555e-09
1.91523e-08
-5.66744e-10
1.81301e-08
1.002e-09
1.6853e-08
1.25736e-09
1.54443e-08
1.38959e-09
1.39542e-08
1.47069e-09
1.21265e-08
1.8082e-09
8.79623e-09
3.31036e-09
1.48347e-09
7.29493e-09
-1.03486e-08
1.18187e-08
-3.0247e-08
1.98857e-08
-5.68581e-08
2.65993e-08
-7.94232e-08
2.25531e-08
-9.73775e-08
1.79427e-08
-1.11676e-07
1.42877e-08
-1.23044e-07
1.13574e-08
-1.32509e-07
9.45325e-09
-1.40706e-07
8.1857e-09
-1.47977e-07
7.2611e-09
-1.54588e-07
6.6023e-09
-1.60736e-07
6.13876e-09
-1.66479e-07
5.73474e-09
-1.71877e-07
5.389e-09
-1.76942e-07
5.05527e-09
-1.81664e-07
4.7122e-09
-1.86139e-07
4.46458e-09
-1.90057e-07
3.90748e-09
-1.93799e-07
3.73122e-09
-1.97248e-07
3.43882e-09
-2.00085e-07
2.82734e-09
-2.02439e-07
2.34436e-09
-2.04342e-07
1.89538e-09
-2.05587e-07
1.2394e-09
-2.06317e-07
7.24139e-10
-2.06313e-07
-8.43687e-12
-2.05793e-07
-5.22838e-10
-2.04225e-07
-1.5708e-09
-2.01843e-07
-2.38354e-09
-1.98527e-07
-3.31607e-09
-1.94359e-07
-4.16833e-09
-1.88795e-07
-5.56325e-09
-1.82063e-07
-6.73215e-09
-1.73973e-07
-8.08985e-09
-1.6483e-07
-9.14307e-09
-1.54012e-07
-1.08176e-08
-1.41565e-07
-1.24465e-08
-1.27592e-07
-1.39703e-08
-1.12705e-07
-1.48826e-08
-9.60232e-08
-1.66742e-08
-7.79724e-08
-1.8043e-08
-5.79389e-08
-2.00247e-08
-3.71098e-08
-2.08178e-08
-1.44059e-08
-2.2693e-08
9.74393e-09
-2.41388e-08
3.58597e-08
-2.61043e-08
6.30971e-08
-2.72273e-08
9.20386e-08
-2.8929e-08
1.22131e-07
-3.00757e-08
1.53557e-07
-3.14028e-08
1.85829e-07
-3.22461e-08
2.18908e-07
-3.3053e-08
2.52667e-07
-3.37343e-08
2.87023e-07
-3.43373e-08
3.22051e-07
-3.50157e-08
3.5767e-07
-3.56102e-08
3.93669e-07
-3.59871e-08
4.30089e-07
-3.64038e-08
4.66187e-07
-3.60746e-08
5.02435e-07
-3.62263e-08
5.38328e-07
-3.58742e-08
5.7374e-07
-3.53919e-08
6.08994e-07
-3.52355e-08
6.43595e-07
-3.45945e-08
6.78146e-07
-3.45491e-08
7.1201e-07
-3.38649e-08
7.45556e-07
-3.35493e-08
7.7794e-07
-3.23807e-08
8.09708e-07
-3.1767e-08
8.40091e-07
-3.03936e-08
8.69821e-07
-2.97493e-08
8.98712e-07
-2.89003e-08
9.26306e-07
-2.76083e-08
9.53315e-07
-2.70322e-08
9.79196e-07
-2.59095e-08
1.00445e-06
-2.53018e-08
1.02902e-06
-2.46496e-08
1.05306e-06
-2.41175e-08
1.07595e-06
-2.29577e-08
1.098e-06
-2.20776e-08
1.11882e-06
-2.08397e-08
1.13874e-06
-1.9936e-08
1.15775e-06
-1.90138e-08
1.17598e-06
-1.82526e-08
1.19364e-06
-1.7676e-08
1.21097e-06
-1.73386e-08
1.22736e-06
-1.63874e-08
1.24283e-06
-1.54761e-08
1.25744e-06
-1.4601e-08
1.27127e-06
-1.38193e-08
1.28448e-06
-1.3192e-08
1.2972e-06
-1.27031e-08
1.30946e-06
-1.22557e-08
1.32124e-06
-1.1762e-08
1.33248e-06
-1.12316e-08
1.34319e-06
-1.06923e-08
1.3534e-06
-1.01698e-08
1.36312e-06
-9.66154e-09
1.37238e-06
-9.20182e-09
1.38126e-06
-8.82418e-09
1.38978e-06
-8.45296e-09
1.39795e-06
-8.1074e-09
1.4058e-06
-7.79512e-09
1.4134e-06
-7.53797e-09
1.42069e-06
-7.25456e-09
1.42783e-06
-7.11718e-09
1.43482e-06
-7.00787e-09
1.44144e-06
-6.63809e-09
1.44781e-06
-6.44024e-09
1.45344e-06
-5.6934e-09
1.4593e-06
-5.92438e-09
1.46392e-06
-4.75368e-09
1.46888e-06
-5.09858e-09
1.47338e-06
-4.77732e-09
1.47752e-06
-4.22668e-09
1.48209e-06
-4.58112e-09
1.48679e-06
-4.6444e-09
1.49144e-06
-4.57222e-09
1.49584e-06
-4.33778e-09
1.50008e-06
-4.2045e-09
1.50414e-06
-4.01997e-09
1.50807e-06
-3.89453e-09
1.51186e-06
-3.78202e-09
1.51541e-06
-3.57206e-09
1.51868e-06
-3.27051e-09
1.5217e-06
-3.05349e-09
1.52454e-06
-2.85527e-09
1.52713e-06
-2.64413e-09
1.52954e-06
-2.47706e-09
1.53182e-06
-2.35139e-09
1.53399e-06
-2.24037e-09
1.53611e-06
-2.17973e-09
1.53816e-06
-2.0709e-09
1.54009e-06
-1.9255e-09
1.5419e-06
-1.78199e-09
1.54358e-06
-1.62311e-09
1.54515e-06
-1.5003e-09
1.54657e-06
-1.381e-09
1.54784e-06
-1.22047e-09
1.54909e-06
-1.20344e-09
1.55017e-06
-1.01387e-09
1.55118e-06
-9.59406e-10
1.55214e-06
-9.16339e-10
1.55302e-06
-8.34795e-10
1.55393e-06
-8.73411e-10
1.55466e-06
-7.17206e-10
1.5553e-06
-6.30332e-10
1.55565e-06
-3.53905e-10
1.55593e-06
-2.95225e-10
1.55611e-06
-2.03711e-10
1.55611e-06
-1.21274e-11
1.55603e-06
6.33728e-11
1.55589e-06
1.13757e-10
1.55555e-06
3.3937e-10
1.55528e-06
2.6006e-10
1.55502e-06
2.85558e-10
1.55471e-06
3.26897e-10
1.55445e-06
2.90546e-10
1.55422e-06
2.59247e-10
1.55401e-06
2.41743e-10
1.55382e-06
1.98911e-10
1.5537e-06
9.67193e-11
1.5537e-06
-1.09486e-11
1.55352e-06
1.68685e-10
1.55357e-06
-4.42199e-11
1.55332e-06
2.62719e-10
1.55312e-06
2.19598e-10
1.5528e-06
3.32153e-10
1.55246e-06
3.53426e-10
1.55192e-06
5.50608e-10
1.55124e-06
6.71202e-10
1.5506e-06
6.36732e-10
1.54981e-06
8.04224e-10
1.54928e-06
5.41727e-10
1.54862e-06
6.69076e-10
1.54801e-06
6.22798e-10
1.54746e-06
5.61902e-10
1.54695e-06
5.31076e-10
1.54647e-06
4.97386e-10
1.54607e-06
4.17175e-10
1.54572e-06
3.63438e-10
1.54544e-06
2.78262e-10
1.54483e-06
5.9842e-10
1.54456e-06
2.64917e-10
1.54399e-06
5.64322e-10
1.5435e-06
4.86083e-10
1.54279e-06
7.11783e-10
1.54203e-06
7.75506e-10
1.54117e-06
8.72855e-10
1.54033e-06
8.46207e-10
1.53946e-06
8.63455e-10
1.5387e-06
7.66528e-10
1.53792e-06
7.75474e-10
1.5372e-06
7.22647e-10
1.53656e-06
6.44003e-10
1.53596e-06
5.97998e-10
1.53543e-06
5.3545e-10
1.53497e-06
4.62092e-10
1.53425e-06
7.34704e-10
1.53385e-06
4.13472e-10
1.53332e-06
5.25199e-10
1.53256e-06
7.59388e-10
1.53186e-06
6.99429e-10
1.53102e-06
8.22891e-10
1.53006e-06
9.39957e-10
1.52906e-06
9.7678e-10
1.52812e-06
9.32163e-10
1.52716e-06
9.38087e-10
1.52629e-06
8.64308e-10
1.52543e-06
8.72601e-10
1.52465e-06
7.87196e-10
1.52396e-06
7.11023e-10
1.52334e-06
6.51444e-10
1.52252e-06
8.47604e-10
1.52197e-06
5.97282e-10
1.5214e-06
6.16374e-10
1.52064e-06
8.04706e-10
1.51999e-06
6.87827e-10
1.5192e-06
8.1999e-10
1.51832e-06
9.09185e-10
1.51738e-06
9.68773e-10
1.51636e-06
1.04103e-09
1.51539e-06
9.96218e-10
1.51438e-06
1.0141e-09
1.51341e-06
9.75242e-10
1.5125e-06
8.99574e-10
1.51159e-06
8.80376e-10
1.51077e-06
7.67725e-10
1.51e-06
7.14957e-10
7.92374e-10
1.31025e-08
-2.75144e-08
1.67755e-08
-7.94771e-09
1.78243e-08
-1.63514e-09
1.70448e-08
1.76173e-09
1.52673e-08
3.0149e-09
1.19725e-08
4.66447e-09
6.4621e-09
6.96144e-09
-2.404e-09
1.0655e-08
-1.64416e-08
1.73297e-08
-3.82028e-08
2.90402e-08
-6.71966e-08
4.07996e-08
-9.15163e-08
4.41929e-08
-1.09662e-07
4.47335e-08
-1.24275e-07
3.71542e-08
-1.35145e-07
2.88027e-08
-1.433e-07
2.24316e-08
-1.50442e-07
1.84875e-08
-1.56472e-07
1.5471e-08
-1.61626e-07
1.33283e-08
-1.66126e-07
1.17509e-08
-1.70091e-07
1.05571e-08
-1.73669e-07
9.70717e-09
-1.76878e-07
8.93462e-09
-1.79749e-07
8.25088e-09
-1.82291e-07
7.58722e-09
-1.84546e-07
6.95623e-09
-1.86454e-07
6.36204e-09
-1.88116e-07
5.55856e-09
-1.89132e-07
4.7363e-09
-1.89599e-07
3.89505e-09
-1.8968e-07
2.89905e-09
-1.89279e-07
1.93373e-09
-1.88264e-07
8.72767e-10
-1.86581e-07
-4.50489e-10
-1.84243e-07
-1.61966e-09
-1.81175e-07
-3.08175e-09
-1.77324e-07
-4.37808e-09
-1.7243e-07
-6.46766e-09
-1.66592e-07
-8.2241e-09
-1.59674e-07
-1.02353e-08
-1.5188e-07
-1.19622e-08
-1.42708e-07
-1.47359e-08
-1.32289e-07
-1.7151e-08
-1.20463e-07
-1.99164e-08
-1.07556e-07
-2.20507e-08
-9.28926e-08
-2.54814e-08
-7.64899e-08
-2.8849e-08
-5.83192e-08
-3.21391e-08
-3.8949e-08
-3.4249e-08
-1.76921e-08
-3.79254e-08
5.0622e-09
-4.07912e-08
2.98559e-08
-4.48111e-08
5.57136e-08
-4.66663e-08
8.3552e-08
-5.05225e-08
1.12953e-07
-5.35306e-08
1.44342e-07
-5.74841e-08
1.77101e-07
-5.99778e-08
2.11659e-07
-6.34772e-08
2.47447e-07
-6.58482e-08
2.84682e-07
-6.86167e-08
3.2283e-07
-7.03684e-08
3.61911e-07
-7.21058e-08
4.01765e-07
-7.35619e-08
4.42333e-07
-7.48813e-08
4.8368e-07
-7.63448e-08
5.25614e-07
-7.75286e-08
5.67951e-07
-7.83045e-08
6.10864e-07
-7.92901e-08
6.53631e-07
-7.88081e-08
6.96578e-07
-7.91383e-08
7.39179e-07
-7.84422e-08
7.81253e-07
-7.74304e-08
8.23067e-07
-7.7015e-08
8.64146e-07
-7.56498e-08
9.05077e-07
-7.54579e-08
9.45194e-07
-7.39652e-08
9.8486e-07
-7.32015e-08
1.02332e-06
-7.08258e-08
1.0611e-06
-6.95376e-08
1.09756e-06
-6.68551e-08
1.13319e-06
-6.54067e-08
1.16795e-06
-6.36679e-08
1.20142e-06
-6.10914e-08
1.23422e-06
-5.98558e-08
1.26577e-06
-5.74917e-08
1.29654e-06
-5.61224e-08
1.32634e-06
-5.45491e-08
1.3554e-06
-5.32648e-08
1.38327e-06
-5.09031e-08
1.41027e-06
-4.91089e-08
1.43615e-06
-4.67159e-08
1.46115e-06
-4.49332e-08
1.48521e-06
-4.30796e-08
1.5085e-06
-4.15506e-08
1.53102e-06
-4.02262e-08
1.55279e-06
-3.91264e-08
1.57372e-06
-3.73116e-08
1.59374e-06
-3.54952e-08
1.61296e-06
-3.38161e-08
1.63151e-06
-3.23725e-08
1.64948e-06
-3.11465e-08
1.66686e-06
-3.0069e-08
1.68362e-06
-2.90185e-08
1.69978e-06
-2.79126e-08
1.71534e-06
-2.67922e-08
1.73033e-06
-2.56888e-08
1.7448e-06
-2.46367e-08
1.75878e-06
-2.36108e-08
1.77228e-06
-2.26647e-08
1.78539e-06
-2.18871e-08
1.79815e-06
-2.11433e-08
1.81057e-06
-2.04438e-08
1.82267e-06
-1.97743e-08
1.83446e-06
-1.92088e-08
1.84593e-06
-1.85835e-08
1.85716e-06
-1.82109e-08
1.86798e-06
-1.77201e-08
1.87813e-06
-1.6696e-08
1.88777e-06
-1.60543e-08
1.89641e-06
-1.43225e-08
1.90569e-06
-1.52125e-08
1.91413e-06
-1.33201e-08
1.92257e-06
-1.37099e-08
1.93095e-06
-1.34773e-08
1.93916e-06
-1.2624e-08
1.94732e-06
-1.28831e-08
1.95537e-06
-1.27624e-08
1.96318e-06
-1.23922e-08
1.97058e-06
-1.17344e-08
1.97764e-06
-1.12704e-08
1.98437e-06
-1.0726e-08
1.99086e-06
-1.03573e-08
1.99713e-06
-1.00364e-08
2.00311e-06
-9.51697e-09
2.00877e-06
-8.85028e-09
2.0142e-06
-8.41057e-09
2.01943e-06
-8.00743e-09
2.02452e-06
-7.6901e-09
2.02947e-06
-7.40185e-09
2.03423e-06
-7.12902e-09
2.03876e-06
-6.81804e-09
2.04316e-06
-6.65151e-09
2.0474e-06
-6.37859e-09
2.0516e-06
-6.19815e-09
2.05572e-06
-5.94643e-09
2.05985e-06
-5.77178e-09
2.06389e-06
-5.54083e-09
2.06783e-06
-5.32262e-09
2.0716e-06
-4.94894e-09
2.07528e-06
-4.82737e-09
2.07878e-06
-4.41353e-09
2.08223e-06
-4.30317e-09
2.08562e-06
-4.20075e-09
2.0889e-06
-3.9991e-09
2.09201e-06
-3.8758e-09
2.09491e-06
-3.51099e-09
2.09752e-06
-3.15097e-09
2.09982e-06
-2.59792e-09
2.10176e-06
-2.20341e-09
2.10357e-06
-2.00572e-09
2.10504e-06
-1.48085e-09
2.10687e-06
-1.79516e-09
2.10821e-06
-1.27363e-09
2.10956e-06
-1.03925e-09
2.11103e-06
-1.25731e-09
2.11252e-06
-1.21135e-09
2.1141e-06
-1.26537e-09
2.11568e-06
-1.25141e-09
2.1173e-06
-1.32087e-09
2.11885e-06
-1.24981e-09
2.12039e-06
-1.30236e-09
2.12184e-06
-1.33788e-09
2.12316e-06
-1.30231e-09
2.12428e-06
-9.27929e-10
2.12515e-06
-8.94904e-10
2.12584e-06
-4.15712e-10
2.12618e-06
-1.11841e-10
2.12651e-06
2.19951e-11
2.12673e-06
1.5167e-10
2.1269e-06
4.15555e-10
2.127e-06
5.96914e-10
2.12703e-06
6.30876e-10
2.12732e-06
5.32172e-10
2.12758e-06
3.07166e-10
2.1279e-06
3.7405e-10
2.12823e-06
3.12351e-10
2.12863e-06
1.75097e-10
2.12908e-06
1.0232e-10
2.12943e-06
1.60719e-10
2.12972e-06
1.60542e-10
2.1299e-06
2.22706e-10
2.12998e-06
2.21689e-10
2.12975e-06
8.36733e-10
2.12953e-06
5.01192e-10
2.12906e-06
1.04355e-09
2.1285e-06
1.05229e-09
2.1279e-06
1.34038e-09
2.12724e-06
1.46478e-09
2.12659e-06
1.55697e-09
2.12601e-06
1.46443e-09
2.12549e-06
1.41033e-09
2.12514e-06
1.13618e-09
2.1248e-06
1.13982e-09
2.12448e-06
1.06099e-09
2.12417e-06
9.6975e-10
2.12387e-06
9.0447e-10
2.12344e-06
9.83448e-10
2.12313e-06
7.85858e-10
2.12205e-06
1.82588e-09
2.12138e-06
1.09331e-09
2.12066e-06
1.26015e-09
2.11965e-06
1.77919e-09
2.11861e-06
1.74541e-09
2.11752e-06
1.90728e-09
2.11636e-06
2.1005e-09
2.11527e-06
2.0592e-09
2.11425e-06
1.94513e-09
2.1133e-06
1.88274e-09
2.11241e-06
1.75321e-09
2.11161e-06
1.67133e-09
2.11081e-06
1.59216e-09
2.11007e-06
1.45801e-09
2.10941e-06
1.32263e-09
2.10806e-06
2.21747e-09
2.10718e-06
1.51117e-09
2.10625e-06
1.59713e-09
2.10503e-06
2.08773e-09
2.10382e-06
1.95588e-09
2.10258e-06
2.12425e-09
2.10127e-06
2.28117e-09
2.09995e-06
2.3519e-09
2.09865e-06
2.4111e-09
2.0974e-06
2.30684e-09
2.0962e-06
2.27824e-09
2.09503e-06
2.19546e-09
2.0939e-06
2.06311e-09
2.09282e-06
1.97909e-09
2.09177e-06
1.8238e-09
2.09066e-06
1.79015e-09
2.02367e-09
9.46439e-09
-3.69972e-08
1.30824e-08
-1.15839e-08
1.41366e-08
-2.70808e-09
1.25138e-08
3.36609e-09
8.83999e-09
6.66975e-09
2.21764e-09
1.1268e-08
-8.94979e-09
1.81112e-08
-2.66681e-08
2.83574e-08
-5.28779e-08
4.35253e-08
-7.82719e-08
5.44196e-08
-9.73659e-08
5.98802e-08
-1.11262e-07
5.80767e-08
-1.20308e-07
5.37677e-08
-1.2668e-07
4.35138e-08
-1.33419e-07
3.55292e-08
-1.3957e-07
2.85712e-08
-1.44517e-07
2.3423e-08
-1.48703e-07
1.96447e-08
-1.52306e-07
1.69189e-08
-1.55497e-07
1.49307e-08
-1.58296e-07
1.33462e-08
-1.60775e-07
1.2176e-08
-1.62946e-07
1.10958e-08
-1.64829e-07
1.01242e-08
-1.66442e-07
9.18954e-09
-1.67666e-07
8.16976e-09
-1.68424e-07
7.10831e-09
-1.68753e-07
5.87704e-09
-1.68682e-07
4.65367e-09
-1.68067e-07
3.26968e-09
-1.66961e-07
1.78277e-09
-1.6522e-07
1.83818e-10
-1.62835e-07
-1.52033e-09
-1.59717e-07
-3.57652e-09
-1.55838e-07
-5.50456e-09
-1.51092e-07
-7.83332e-09
-1.45448e-07
-1.00261e-08
-1.38688e-07
-1.3232e-08
-1.30862e-07
-1.60531e-08
-1.21821e-07
-1.92775e-08
-1.11805e-07
-2.19796e-08
-1.0029e-07
-2.62511e-08
-8.73863e-08
-3.00553e-08
-7.29166e-08
-3.43867e-08
-5.72688e-08
-3.76988e-08
-3.97253e-08
-4.30252e-08
-2.02996e-08
-4.8275e-08
1.11613e-09
-5.35534e-08
2.38816e-08
-5.70112e-08
4.87497e-08
-6.27885e-08
7.52452e-08
-6.72814e-08
1.03979e-07
-7.35381e-08
1.33812e-07
-7.649e-08
1.65861e-07
-8.25628e-08
1.99618e-07
-8.72782e-08
2.35534e-07
-9.33906e-08
2.72626e-07
-9.70622e-08
3.11683e-07
-1.02524e-07
3.52092e-07
-1.06244e-07
3.9407e-07
-1.10575e-07
4.36898e-07
-1.13171e-07
4.80753e-07
-1.15932e-07
5.25366e-07
-1.18145e-07
5.70697e-07
-1.20185e-07
6.16822e-07
-1.22445e-07
6.63413e-07
-1.24097e-07
7.10328e-07
-1.25193e-07
7.57643e-07
-1.26572e-07
8.04615e-07
-1.25738e-07
8.51608e-07
-1.26084e-07
8.97896e-07
-1.24686e-07
9.43647e-07
-1.23132e-07
9.88847e-07
-1.22167e-07
1.03324e-06
-1.20006e-07
1.07735e-06
-1.19529e-07
1.12046e-06
-1.17043e-07
1.16288e-06
-1.15595e-07
1.20403e-06
-1.11941e-07
1.24435e-06
-1.09839e-07
1.28331e-06
-1.05813e-07
1.32134e-06
-1.0346e-07
1.35834e-06
-1.00683e-07
1.39404e-06
-9.6809e-08
1.42891e-06
-9.47558e-08
1.46239e-06
-9.10134e-08
1.49492e-06
-8.8723e-08
1.52633e-06
-8.60614e-08
1.55677e-06
-8.38166e-08
1.58596e-06
-8.01733e-08
1.61425e-06
-7.74266e-08
1.64141e-06
-7.38687e-08
1.66779e-06
-7.12897e-08
1.6932e-06
-6.84816e-08
1.71785e-06
-6.62058e-08
1.74164e-06
-6.40516e-08
1.7645e-06
-6.20006e-08
1.78637e-06
-5.91894e-08
1.80737e-06
-5.6502e-08
1.82763e-06
-5.40796e-08
1.84734e-06
-5.20793e-08
1.86655e-06
-5.03494e-08
1.88516e-06
-4.86744e-08
1.90312e-06
-4.69615e-08
1.92039e-06
-4.51821e-08
1.93704e-06
-4.34427e-08
1.95312e-06
-4.17786e-08
1.96869e-06
-4.02199e-08
1.98379e-06
-3.87083e-08
1.99845e-06
-3.73082e-08
2.01275e-06
-3.61628e-08
2.02675e-06
-3.50981e-08
2.04047e-06
-3.40756e-08
2.0539e-06
-3.30844e-08
2.06707e-06
-3.22215e-08
2.07996e-06
-3.12788e-08
2.0926e-06
-3.06538e-08
2.10472e-06
-2.96537e-08
2.11603e-06
-2.78219e-08
2.12665e-06
-2.65557e-08
2.13619e-06
-2.37691e-08
2.14638e-06
-2.53493e-08
2.15602e-06
-2.30507e-08
2.1657e-06
-2.3562e-08
2.17557e-06
-2.36123e-08
2.18546e-06
-2.27297e-08
2.19512e-06
-2.27779e-08
2.20457e-06
-2.237e-08
2.21368e-06
-2.16128e-08
2.22231e-06
-2.04288e-08
2.23051e-06
-1.95367e-08
2.23829e-06
-1.853e-08
2.24578e-06
-1.78467e-08
2.25298e-06
-1.72383e-08
2.25985e-06
-1.63425e-08
2.26638e-06
-1.52733e-08
2.27271e-06
-1.46093e-08
2.27885e-06
-1.40018e-08
2.28494e-06
-1.36499e-08
2.29093e-06
-1.32875e-08
2.29676e-06
-1.28981e-08
2.30233e-06
-1.23835e-08
2.30775e-06
-1.21048e-08
2.31301e-06
-1.17026e-08
2.31821e-06
-1.14987e-08
2.32333e-06
-1.11606e-08
2.32845e-06
-1.09744e-08
2.33349e-06
-1.06532e-08
2.3384e-06
-1.02948e-08
2.34313e-06
-9.68637e-09
2.34774e-06
-9.40158e-09
2.35216e-06
-8.74716e-09
2.35658e-06
-8.59259e-09
2.36092e-06
-8.40378e-09
2.36515e-06
-8.06854e-09
2.36918e-06
-7.73283e-09
2.37293e-06
-7.10003e-09
2.37631e-06
-6.38737e-09
2.37932e-06
-5.49047e-09
2.38191e-06
-4.70197e-09
2.38429e-06
-4.34368e-09
2.38637e-06
-3.53338e-09
2.38878e-06
-4.20923e-09
2.39076e-06
-3.30022e-09
2.3928e-06
-3.12431e-09
2.39497e-06
-3.49888e-09
2.39723e-06
-3.50888e-09
2.3996e-06
-3.68792e-09
2.40203e-06
-3.67329e-09
2.40444e-06
-3.70276e-09
2.4068e-06
-3.53502e-09
2.40915e-06
-3.59195e-09
2.41134e-06
-3.46388e-09
2.41332e-06
-3.22694e-09
2.41505e-06
-2.61399e-09
2.4164e-06
-2.21139e-09
2.41753e-06
-1.52283e-09
2.41829e-06
-8.66501e-10
2.41879e-06
-4.69044e-10
2.41927e-06
-3.2166e-10
2.41973e-06
-1.30108e-11
2.42017e-06
1.90637e-10
2.42061e-06
2.41777e-10
2.42129e-06
-8.72644e-11
2.42198e-06
-3.55219e-10
2.42276e-06
-3.77053e-10
2.4236e-06
-4.98578e-10
2.4245e-06
-7.15568e-10
2.42546e-06
-8.402e-10
2.42625e-06
-6.29336e-10
2.42692e-06
-4.83222e-10
2.42739e-06
-2.02698e-10
2.42763e-06
2.76302e-11
2.42773e-06
7.72204e-10
2.4275e-06
7.61478e-10
2.4271e-06
1.46541e-09
2.42655e-06
1.62343e-09
2.42601e-06
1.91199e-09
2.42543e-06
2.0914e-09
2.42487e-06
2.17082e-09
2.42441e-06
1.9628e-09
2.42411e-06
1.75788e-09
2.42395e-06
1.33928e-09
2.42386e-06
1.27569e-09
2.42381e-06
1.1522e-09
2.42371e-06
1.09925e-09
2.42362e-06
1.02228e-09
2.4233e-06
1.32281e-09
2.423e-06
1.10034e-09
2.42194e-06
2.89156e-09
2.42103e-06
2.00866e-09
2.42015e-06
2.14908e-09
2.41904e-06
2.90166e-09
2.41781e-06
2.98729e-09
2.41658e-06
3.15235e-09
2.41533e-06
3.35447e-09
2.41419e-06
3.21431e-09
2.41314e-06
3.00321e-09
2.41219e-06
2.84342e-09
2.41129e-06
2.65245e-09
2.41054e-06
2.42775e-09
2.40976e-06
2.36789e-09
2.40897e-06
2.2499e-09
2.40827e-06
2.02363e-09
2.40681e-06
3.68467e-09
2.40567e-06
2.66878e-09
2.40451e-06
2.79549e-09
2.40303e-06
3.62119e-09
2.4015e-06
3.54421e-09
2.39999e-06
3.707e-09
2.39844e-06
3.91605e-09
2.3969e-06
3.97626e-09
2.39544e-06
3.96799e-09
2.39403e-06
3.80201e-09
2.39271e-06
3.6924e-09
2.39143e-06
3.5554e-09
2.39021e-06
3.36133e-09
2.38905e-06
3.20144e-09
2.38786e-06
3.05366e-09
2.38661e-06
3.04646e-09
3.4739e-09
5.87643e-09
-4.28919e-08
8.47151e-09
-1.41969e-08
8.89781e-09
-3.15226e-09
5.21223e-09
7.03318e-09
-1.633e-09
1.3496e-08
-1.29468e-08
2.25638e-08
-3.09755e-08
3.61247e-08
-5.60797e-08
5.34489e-08
-7.7773e-08
6.52044e-08
-9.3892e-08
7.0524e-08
-1.04869e-07
7.08437e-08
-1.12027e-07
6.52208e-08
-1.16933e-07
5.86611e-08
-1.2181e-07
4.83782e-08
-1.26217e-07
3.99243e-08
-1.30131e-07
3.24731e-08
-1.33601e-07
2.68812e-08
-1.36672e-07
2.27028e-08
-1.3937e-07
1.96048e-08
-1.41783e-07
1.73327e-08
-1.43895e-07
1.54479e-08
-1.45709e-07
1.39794e-08
-1.47246e-07
1.26226e-08
-1.48485e-07
1.1353e-08
-1.49335e-07
1.00285e-08
-1.49759e-07
8.58316e-09
-1.49784e-07
7.12186e-09
-1.49358e-07
5.43996e-09
-1.48416e-07
3.70017e-09
-1.46847e-07
1.69007e-09
-1.44682e-07
-3.92289e-10
-1.41794e-07
-2.71368e-09
-1.3818e-07
-5.14305e-09
-1.33699e-07
-8.06532e-09
-1.28337e-07
-1.08733e-08
-1.21964e-07
-1.42126e-08
-1.14624e-07
-1.73704e-08
-1.06038e-07
-2.18223e-08
-9.6235e-08
-2.58601e-08
-8.50384e-08
-3.04765e-08
-7.2735e-08
-3.4284e-08
-5.87627e-08
-4.02239e-08
-4.32274e-08
-4.55915e-08
-2.59233e-08
-5.16915e-08
-7.32902e-09
-5.62931e-08
1.33522e-08
-6.37066e-08
3.60727e-08
-7.09961e-08
6.10705e-08
-7.85502e-08
8.75316e-08
-8.34692e-08
1.16434e-07
-9.16866e-08
1.47083e-07
-9.79255e-08
1.80214e-07
-1.06662e-07
2.14446e-07
-1.10712e-07
2.51229e-07
-1.19336e-07
2.89752e-07
-1.2579e-07
3.30644e-07
-1.34272e-07
3.72678e-07
-1.39088e-07
4.16988e-07
-1.46824e-07
4.62531e-07
-1.51773e-07
5.09782e-07
-1.57806e-07
5.57705e-07
-1.61068e-07
6.06804e-07
-1.65002e-07
6.56527e-07
-1.67835e-07
7.06963e-07
-1.70586e-07
7.58159e-07
-1.73607e-07
8.09491e-07
-1.75399e-07
8.61124e-07
-1.7679e-07
9.12828e-07
-1.78234e-07
9.63979e-07
-1.76837e-07
1.01483e-06
-1.76879e-07
1.06465e-06
-1.74442e-07
1.11379e-06
-1.72212e-07
1.16209e-06
-1.70399e-07
1.20943e-06
-1.67304e-07
1.2562e-06
-1.66241e-07
1.30171e-06
-1.62508e-07
1.34623e-06
-1.60065e-07
1.38932e-06
-1.54983e-07
1.43138e-06
-1.51872e-07
1.47197e-06
-1.46388e-07
1.51151e-06
-1.43027e-07
1.54979e-06
-1.38962e-07
1.58665e-06
-1.33699e-07
1.62254e-06
-1.30687e-07
1.65672e-06
-1.25262e-07
1.68991e-06
-1.21981e-07
1.72171e-06
-1.17987e-07
1.75233e-06
-1.14557e-07
1.78159e-06
-1.09512e-07
1.80993e-06
-1.05801e-07
1.83711e-06
-1.01045e-07
1.86363e-06
-9.77731e-08
1.88911e-06
-9.39502e-08
1.91383e-06
-9.09293e-08
1.93758e-06
-8.78349e-08
1.96022e-06
-8.46579e-08
1.9817e-06
-8.06703e-08
2.00237e-06
-7.71847e-08
2.02236e-06
-7.40804e-08
2.04191e-06
-7.16347e-08
2.06104e-06
-6.948e-08
2.07957e-06
-6.72023e-08
2.09741e-06
-6.47848e-08
2.11453e-06
-6.2285e-08
2.131e-06
-5.99053e-08
2.14691e-06
-5.76968e-08
2.16233e-06
-5.56616e-08
2.17732e-06
-5.37059e-08
2.1919e-06
-5.18994e-08
2.20616e-06
-5.04232e-08
2.22018e-06
-4.90918e-08
2.23394e-06
-4.77747e-08
2.24751e-06
-4.65344e-08
2.26082e-06
-4.53648e-08
2.27395e-06
-4.41941e-08
2.28684e-06
-4.33007e-08
2.29913e-06
-4.16805e-08
2.3105e-06
-3.89355e-08
2.32104e-06
-3.68941e-08
2.33058e-06
-3.31425e-08
2.34061e-06
-3.52529e-08
2.35041e-06
-3.28727e-08
2.36025e-06
-3.35285e-08
2.37059e-06
-3.41814e-08
2.38109e-06
-3.34386e-08
2.39123e-06
-3.32035e-08
2.4011e-06
-3.24709e-08
2.41058e-06
-3.12877e-08
2.41952e-06
-2.95188e-08
2.428e-06
-2.81523e-08
2.43601e-06
-2.66192e-08
2.4437e-06
-2.55867e-08
2.45106e-06
-2.46306e-08
2.45806e-06
-2.33089e-08
2.46474e-06
-2.18352e-08
2.47123e-06
-2.0932e-08
2.47756e-06
-2.01365e-08
2.48391e-06
-1.98058e-08
2.4902e-06
-1.93949e-08
2.49638e-06
-1.89276e-08
2.5023e-06
-1.82311e-08
2.50806e-06
-1.78545e-08
2.51368e-06
-1.73623e-08
2.51925e-06
-1.71617e-08
2.52473e-06
-1.67654e-08
2.53019e-06
-1.65607e-08
2.53558e-06
-1.61749e-08
2.5408e-06
-1.56391e-08
2.54583e-06
-1.47853e-08
2.55072e-06
-1.43037e-08
2.55542e-06
-1.33862e-08
2.56017e-06
-1.32219e-08
2.56482e-06
-1.28973e-08
2.56939e-06
-1.24393e-08
2.57372e-06
-1.18651e-08
2.57775e-06
-1.09181e-08
2.58137e-06
-9.80424e-09
2.58456e-06
-8.51797e-09
2.58732e-06
-7.3246e-09
2.58982e-06
-6.74892e-09
2.59202e-06
-5.66797e-09
2.59449e-06
-6.65766e-09
2.5967e-06
-5.54101e-09
2.59895e-06
-5.42604e-09
2.60134e-06
-5.96193e-09
2.60385e-06
-6.0861e-09
2.6065e-06
-6.43429e-09
2.60926e-06
-6.46789e-09
2.61202e-06
-6.45554e-09
2.61475e-06
-6.2028e-09
2.61745e-06
-6.22579e-09
2.61997e-06
-5.88385e-09
2.62225e-06
-5.41928e-09
2.62425e-06
-4.5315e-09
2.62581e-06
-3.71485e-09
2.6271e-06
-2.7813e-09
2.62803e-06
-1.78497e-09
2.62853e-06
-9.82388e-10
2.62908e-06
-8.642e-10
2.6296e-06
-5.16318e-10
2.63015e-06
-3.19898e-10
2.63076e-06
-3.01631e-10
2.6316e-06
-8.47814e-10
2.6325e-06
-1.20873e-09
2.63346e-06
-1.28735e-09
2.63454e-06
-1.55043e-09
2.6357e-06
-1.86557e-09
2.63691e-06
-2.04772e-09
2.63795e-06
-1.67402e-09
2.63882e-06
-1.34175e-09
2.63944e-06
-7.81576e-10
2.63979e-06
-2.73242e-10
2.63997e-06
6.4025e-10
2.63974e-06
1.04076e-09
2.63936e-06
1.89083e-09
2.6388e-06
2.22385e-09
2.63824e-06
2.51214e-09
2.63768e-06
2.7038e-09
2.63711e-06
2.78574e-09
2.63671e-06
2.41683e-09
2.63651e-06
2.01935e-09
2.63644e-06
1.46605e-09
2.63644e-06
1.3399e-09
2.63656e-06
1.09164e-09
2.63661e-06
1.10216e-09
2.63663e-06
1.03947e-09
2.63641e-06
1.57333e-09
2.63608e-06
1.44661e-09
2.6351e-06
3.87337e-09
2.634e-06
3.10611e-09
2.63297e-06
3.18475e-09
2.63178e-06
4.10809e-09
2.63041e-06
4.3712e-09
2.62903e-06
4.54512e-09
2.6277e-06
4.69932e-09
2.6265e-06
4.44627e-09
2.62541e-06
4.11832e-09
2.62443e-06
3.8422e-09
2.62352e-06
3.57624e-09
2.62278e-06
3.18377e-09
2.62203e-06
3.12641e-09
2.62118e-06
3.09819e-09
2.62041e-06
2.78367e-09
2.61894e-06
5.13686e-09
2.61761e-06
3.9994e-09
2.61627e-06
4.16485e-09
2.6146e-06
5.3281e-09
2.61284e-06
5.35396e-09
2.61111e-06
5.51176e-09
2.60937e-06
5.74357e-09
2.60766e-06
5.78672e-09
2.60605e-06
5.68739e-09
2.60452e-06
5.44416e-09
2.60308e-06
5.23745e-09
2.60172e-06
5.03043e-09
2.60042e-06
4.76565e-09
2.59919e-06
4.52171e-09
2.59793e-06
4.39264e-09
2.59659e-06
4.43142e-09
5.09311e-09
2.95035e-09
-4.58604e-08
3.72453e-09
-1.49887e-08
3.12751e-09
-2.57358e-09
-3.03919e-09
1.31811e-08
-1.40299e-08
2.4468e-08
-3.09359e-08
3.94533e-08
-5.36677e-08
5.88433e-08
-7.26541e-08
7.24223e-08
-8.68338e-08
7.93697e-08
-9.67254e-08
8.04008e-08
-1.02927e-07
7.70313e-08
-1.07786e-07
7.00653e-08
-1.10584e-07
6.14462e-08
-1.13482e-07
5.12635e-08
-1.16258e-07
4.26877e-08
-1.18984e-07
3.51875e-08
-1.21545e-07
2.94298e-08
-1.23872e-07
2.50174e-08
-1.25939e-07
2.16596e-08
-1.27747e-07
1.91291e-08
-1.29292e-07
1.69813e-08
-1.30541e-07
1.52182e-08
-1.3149e-07
1.35604e-08
-1.32053e-07
1.19057e-08
-1.32239e-07
1.02033e-08
-1.32009e-07
8.34238e-09
-1.31296e-07
6.39765e-09
-1.30023e-07
4.15591e-09
-1.28146e-07
1.81161e-09
-1.25556e-07
-9.10514e-10
-1.22268e-07
-3.6905e-09
-1.18142e-07
-6.84935e-09
-1.13194e-07
-1.01004e-08
-1.07229e-07
-1.40386e-08
-1.00252e-07
-1.78579e-08
-9.2096e-08
-2.23744e-08
-8.28666e-08
-2.66053e-08
-7.22076e-08
-3.24859e-08
-6.01575e-08
-3.79143e-08
-4.64893e-08
-4.41473e-08
-3.1543e-08
-4.92314e-08
-1.4661e-08
-5.71065e-08
4.01721e-09
-6.42711e-08
2.47359e-08
-7.24109e-08
4.68354e-08
-7.83917e-08
7.14572e-08
-8.83275e-08
9.83024e-08
-9.78416e-08
1.27815e-07
-1.08062e-07
1.58904e-07
-1.14553e-07
1.92928e-07
-1.25705e-07
2.2885e-07
-1.33843e-07
2.67646e-07
-1.4545e-07
3.07504e-07
-1.50559e-07
3.50567e-07
-1.62387e-07
3.95553e-07
-1.70761e-07
4.43234e-07
-1.81937e-07
4.91824e-07
-1.87667e-07
5.43227e-07
-1.98213e-07
5.95512e-07
-2.04041e-07
6.49761e-07
-2.12032e-07
7.04243e-07
-2.1552e-07
7.59959e-07
-2.20683e-07
8.16012e-07
-2.23848e-07
8.72488e-07
-2.27019e-07
9.29553e-07
-2.30629e-07
9.86361e-07
-2.32164e-07
1.04328e-06
-2.33658e-07
1.09971e-06
-2.34615e-07
1.15525e-06
-2.32304e-07
1.21019e-06
-2.31745e-07
1.26375e-06
-2.27934e-07
1.31644e-06
-2.24818e-07
1.36795e-06
-2.21834e-07
1.41823e-06
-2.17522e-07
1.46749e-06
-2.15429e-07
1.51508e-06
-2.10047e-07
1.56133e-06
-2.06232e-07
1.60585e-06
-1.99441e-07
1.64911e-06
-1.95086e-07
1.69065e-06
-1.87905e-07
1.73098e-06
-1.83383e-07
1.76966e-06
-1.77633e-07
1.80674e-06
-1.70824e-07
1.84258e-06
-1.66583e-07
1.87633e-06
-1.59094e-07
1.90911e-06
-1.54853e-07
1.94019e-06
-1.49202e-07
1.96991e-06
-1.44413e-07
1.99815e-06
-1.37847e-07
2.02555e-06
-1.33244e-07
2.05176e-06
-1.27248e-07
2.07741e-06
-1.23384e-07
2.10187e-06
-1.1839e-07
2.12556e-06
-1.1461e-07
2.1481e-06
-1.10408e-07
2.16938e-06
-1.0595e-07
2.18932e-06
-1.00617e-07
2.20862e-06
-9.64899e-08
2.22731e-06
-9.27838e-08
2.24568e-06
-9.00208e-08
2.26367e-06
-8.74898e-08
2.28106e-06
-8.45949e-08
2.29774e-06
-8.14457e-08
2.31368e-06
-7.81981e-08
2.32897e-06
-7.5175e-08
2.34374e-06
-7.24623e-08
2.35806e-06
-6.99941e-08
2.37199e-06
-6.76522e-08
2.38557e-06
-6.55035e-08
2.39889e-06
-6.37662e-08
2.41203e-06
-6.22323e-08
2.42496e-06
-6.06712e-08
2.43782e-06
-5.92959e-08
2.45039e-06
-5.7771e-08
2.46296e-06
-5.65271e-08
2.47525e-06
-5.53141e-08
2.48685e-06
-5.29628e-08
2.49745e-06
-4.92145e-08
2.50713e-06
-4.6279e-08
2.51603e-06
-4.1807e-08
2.52514e-06
-4.41639e-08
2.53439e-06
-4.20538e-08
2.54376e-06
-4.29699e-08
2.55379e-06
-4.43977e-08
2.5641e-06
-4.39527e-08
2.57405e-06
-4.34478e-08
2.58363e-06
-4.23502e-08
2.59279e-06
-4.07124e-08
2.60137e-06
-3.83291e-08
2.60948e-06
-3.64692e-08
2.61709e-06
-3.43644e-08
2.62438e-06
-3.29843e-08
2.63129e-06
-3.16162e-08
2.63783e-06
-2.98392e-08
2.64409e-06
-2.79945e-08
2.65019e-06
-2.68529e-08
2.65619e-06
-2.58935e-08
2.66226e-06
-2.562e-08
2.6683e-06
-2.51758e-08
2.67426e-06
-2.46747e-08
2.68001e-06
-2.38326e-08
2.68562e-06
-2.33859e-08
2.6911e-06
-2.28422e-08
2.69655e-06
-2.26859e-08
2.70193e-06
-2.22746e-08
2.70728e-06
-2.20661e-08
2.71256e-06
-2.16489e-08
2.71768e-06
-2.09209e-08
2.72259e-06
-1.98222e-08
2.72735e-06
-1.91428e-08
2.73195e-06
-1.79607e-08
2.73658e-06
-1.77651e-08
2.74117e-06
-1.73223e-08
2.74568e-06
-1.67396e-08
2.74994e-06
-1.59028e-08
2.75387e-06
-1.46021e-08
2.75737e-06
-1.30555e-08
2.76042e-06
-1.13518e-08
2.76304e-06
-9.76407e-09
2.76535e-06
-8.91198e-09
2.7674e-06
-7.61409e-09
2.76963e-06
-8.82457e-09
2.77174e-06
-7.6529e-09
2.77391e-06
-7.64162e-09
2.77622e-06
-8.35114e-09
2.77867e-06
-8.62325e-09
2.7813e-06
-9.18365e-09
2.78406e-06
-9.30909e-09
2.78687e-06
-9.30338e-09
2.78966e-06
-8.95741e-09
2.79245e-06
-8.93855e-09
2.79501e-06
-8.32149e-09
2.79735e-06
-7.63779e-09
2.79936e-06
-6.43315e-09
2.80092e-06
-5.1813e-09
2.80218e-06
-3.99338e-09
2.80302e-06
-2.6137e-09
2.80342e-06
-1.38945e-09
2.80383e-06
-1.29685e-09
2.80423e-06
-9.14655e-10
2.80469e-06
-7.44573e-10
2.80527e-06
-7.97733e-10
2.80607e-06
-1.55092e-09
2.80699e-06
-2.05662e-09
2.808e-06
-2.23987e-09
2.80918e-06
-2.67812e-09
2.81042e-06
-3.09375e-09
2.8117e-06
-3.33151e-09
2.81281e-06
-2.80642e-09
2.81372e-06
-2.25784e-09
2.81435e-06
-1.38369e-09
2.81469e-06
-5.56339e-10
2.81484e-06
5.46003e-10
2.81452e-06
1.43276e-09
2.81405e-06
2.41675e-09
2.81341e-06
2.91868e-09
2.81274e-06
3.22811e-09
2.81209e-06
3.40689e-09
2.81149e-06
3.44602e-09
2.81105e-06
2.90729e-09
2.81082e-06
2.31488e-09
2.81075e-06
1.59985e-09
2.81078e-06
1.39381e-09
2.81097e-06
9.8223e-10
2.81107e-06
1.07379e-09
2.81111e-06
1.05173e-09
2.81094e-06
1.79095e-09
2.81052e-06
1.89334e-09
2.80958e-06
4.8199e-09
2.80832e-06
4.35534e-09
2.80708e-06
4.42292e-09
2.80576e-06
5.43155e-09
2.80423e-06
5.91319e-09
2.8027e-06
6.08758e-09
2.80126e-06
6.16861e-09
2.79995e-06
5.78561e-09
2.79879e-06
5.32505e-09
2.79775e-06
4.91747e-09
2.7968e-06
4.55713e-09
2.79601e-06
3.99873e-09
2.79525e-06
3.90381e-09
2.79433e-06
4.01278e-09
2.79345e-06
3.65061e-09
2.79199e-06