/*--------------------------------*- C++ -*----------------------------------*\
| =========                 |                                                 |
| \\      /  F ield         | OpenFOAM: The Open Source CFD Toolbox           |
|  \\    /   O peration     | Version:  2312                                  |
|   \\  /    A nd           | Website:  www.openfoam.com                      |
|    \\/     M anipulation  |                                                 |
\*---------------------------------------------------------------------------*/
FoamFile
{
    version     2.0;
    format      ascii;
    arch        "LSB;label=32;scalar=64";
    class       volScalarField;
    location    "0.002";
    object      rho;
}
// * * * * * * * * * * * * * * * * * * * * * * * * * * * * * * * * * * * * * //

dimensions      [1 -3 0 0 0 0 0];

internalField   nonuniform List<scalar> 
48128
(
0.0334703
0.0334487
0.033358
0.0332379
0.0332082
0.0331527
0.0330959
0.0330299
0.0329843
0.0330246
0.0334189
0.0334811
0.0335709
0.0334621
0.0332616
0.0330865
0.0329653
0.0328942
0.0328743
0.0329054
0.032988
0.0331155
0.0332898
0.0335126
0.0337872
0.0341149
0.0344986
0.0349606
0.0354833
0.0360751
0.0367407
0.0374811
0.0382954
0.0391943
0.0401687
0.0412333
0.0423801
0.0436193
0.0449295
0.0463414
0.0478138
0.0494128
0.0510483
0.0528206
0.0546069
0.0565649
0.0585241
0.0606213
0.0627225
0.0649572
0.0671904
0.0695325
0.0718641
0.0743067
0.0767462
0.0792425
0.0817337
0.084261
0.0867775
0.089298
0.0917967
0.0942798
0.0967349
0.0991578
0.101545
0.103889
0.106181
0.108428
0.110603
0.112716
0.114786
0.116741
0.11869
0.120502
0.122302
0.123953
0.125588
0.127091
0.128568
0.129966
0.131298
0.132605
0.133808
0.135021
0.136117
0.137211
0.138191
0.139132
0.139964
0.140762
0.141516
0.142251
0.142953
0.143645
0.144278
0.144874
0.145363
0.145823
0.146281
0.146744
0.147209
0.147672
0.148109
0.148508
0.148874
0.14922
0.149556
0.149887
0.150211
0.150538
0.150868
0.151205
0.151547
0.15189
0.152241
0.152582
0.152913
0.15316
0.153309
0.153379
0.153437
0.15366
0.153832
0.154083
0.154403
0.154726
0.155055
0.155384
0.155665
0.155918
0.156129
0.156314
0.156479
0.156617
0.15672
0.156803
0.15688
0.156966
0.157056
0.157148
0.157241
0.157336
0.157435
0.157549
0.157674
0.157807
0.157945
0.158096
0.158218
0.158346
0.15845
0.158558
0.15867
0.158776
0.158877
0.158945
0.159003
0.159003
0.158979
0.15894
0.158881
0.158796
0.158791
0.158765
0.158756
0.158775
0.158806
0.158866
0.15894
0.159016
0.159098
0.159175
0.159238
0.159287
0.159315
0.159304
0.15928
0.159234
0.159171
0.159119
0.159061
0.159017
0.158983
0.158983
0.159
0.159026
0.159066
0.159123
0.159177
0.159229
0.159269
0.159285
0.159285
0.159251
0.159217
0.15916
0.159105
0.15905
0.158998
0.158966
0.158948
0.158944
0.158964
0.158997
0.159034
0.159074
0.159101
0.159128
0.159147
0.15909
0.159057
0.159015
0.158957
0.158901
0.158846
0.158801
0.158777
0.158763
0.158759
0.158768
0.158789
0.158814
0.15885
0.158871
0.158846
0.158838
0.158809
0.158763
0.158716
0.158667
0.158619
0.158574
0.158548
0.158529
0.158517
0.158515
0.158521
0.158529
0.158549
0.158535
0.0334314
0.0334383
0.0333734
0.0332756
0.033255
0.0332036
0.0331528
0.0331391
0.033258
0.0335222
0.0338632
0.0339299
0.0339884
0.0339314
0.0338585
0.0338139
0.0337241
0.03366
0.0336338
0.0336521
0.0337158
0.033819
0.0339634
0.0341512
0.0343859
0.0346724
0.0350142
0.0354045
0.0358661
0.0364016
0.0370049
0.0376898
0.0384447
0.0392847
0.0402007
0.041206
0.0422915
0.0434739
0.0447329
0.0460969
0.0475176
0.049069
0.0506655
0.0524038
0.0541703
0.0561038
0.0580544
0.0601538
0.0622734
0.0645295
0.0668055
0.0692029
0.0716135
0.0741378
0.0766776
0.0792996
0.0819487
0.0846371
0.0873289
0.0900403
0.0927506
0.0954629
0.0981643
0.10085
0.103513
0.106144
0.108737
0.111292
0.113781
0.116214
0.118615
0.1209
0.12318
0.125319
0.127446
0.129422
0.13138
0.133202
0.134998
0.136713
0.138356
0.139969
0.141471
0.142986
0.144371
0.145749
0.147005
0.148212
0.149304
0.150366
0.151378
0.152373
0.153327
0.154266
0.155146
0.155972
0.156685
0.157374
0.158055
0.158743
0.159428
0.160108
0.160757
0.16136
0.161927
0.16247
0.163
0.163522
0.164035
0.164549
0.165066
0.165587
0.166113
0.166637
0.167169
0.167686
0.168191
0.168603
0.168905
0.169126
0.169329
0.169712
0.170036
0.170445
0.170908
0.171372
0.17183
0.172283
0.172683
0.173051
0.173374
0.173668
0.173942
0.174189
0.174401
0.174594
0.174782
0.174977
0.175178
0.175377
0.175569
0.175758
0.175949
0.176144
0.176356
0.176577
0.176809
0.177055
0.177269
0.177492
0.17769
0.177892
0.178095
0.178292
0.178481
0.178637
0.178775
0.178848
0.178894
0.178921
0.178922
0.178909
0.178966
0.178996
0.179057
0.17913
0.179226
0.179346
0.179481
0.179616
0.179754
0.17989
0.179999
0.180096
0.180156
0.180175
0.180176
0.180151
0.180111
0.180082
0.180052
0.180032
0.180027
0.180057
0.180102
0.180157
0.180225
0.180309
0.180386
0.180458
0.180516
0.180544
0.180555
0.180527
0.180493
0.180438
0.180382
0.180329
0.18028
0.180255
0.180244
0.180249
0.180279
0.180322
0.180365
0.18041
0.180437
0.18046
0.180469
0.180399
0.180358
0.180305
0.180236
0.180169
0.180104
0.180049
0.180019
0.179999
0.179989
0.179992
0.180007
0.180021
0.180048
0.180051
0.180006
0.179981
0.179931
0.179867
0.179802
0.179736
0.179672
0.179611
0.179573
0.179542
0.179518
0.179503
0.179497
0.179493
0.179498
0.17945
0.0334818
0.033456
0.0333825
0.0332744
0.0332446
0.0331787
0.0331661
0.0332923
0.0335974
0.033916
0.034066
0.0340974
0.0341221
0.0340909
0.0339052
0.0336924
0.0335655
0.0334925
0.0334585
0.0334664
0.0335154
0.033602
0.0337283
0.033898
0.0341164
0.034385
0.034712
0.0350958
0.0355442
0.0360604
0.0366429
0.0373064
0.0380408
0.0388627
0.0397627
0.040754
0.0418254
0.0429966
0.0442469
0.0456074
0.0470305
0.0485915
0.0502043
0.0519663
0.0537651
0.055739
0.05774
0.0598947
0.0620792
0.0644145
0.0667799
0.0692772
0.071795
0.0744432
0.0771119
0.0798571
0.0826239
0.0854611
0.0883212
0.0912136
0.0941125
0.0970222
0.0999274
0.102823
0.1057
0.108547
0.111359
0.114133
0.116841
0.119499
0.12211
0.124606
0.127092
0.12943
0.131755
0.133918
0.136057
0.138051
0.14002
0.141897
0.143705
0.145465
0.147111
0.148771
0.15028
0.151787
0.153157
0.154471
0.15566
0.156821
0.15793
0.159022
0.160072
0.161104
0.162076
0.162981
0.163767
0.164528
0.165283
0.166045
0.166805
0.16756
0.168282
0.168954
0.169588
0.170197
0.170792
0.171376
0.171954
0.17253
0.173111
0.173697
0.17429
0.174883
0.175484
0.176073
0.176645
0.177121
0.177481
0.177759
0.178016
0.178455
0.178841
0.179315
0.17984
0.180372
0.180888
0.181397
0.18185
0.182269
0.18264
0.182981
0.1833
0.18359
0.183845
0.184083
0.184317
0.18456
0.184811
0.18506
0.185302
0.185538
0.185774
0.186014
0.186265
0.186526
0.186795
0.187079
0.187331
0.187592
0.187828
0.18807
0.188314
0.188552
0.188782
0.188976
0.189151
0.189257
0.189336
0.189392
0.18942
0.189435
0.189519
0.189579
0.189671
0.189772
0.189898
0.190047
0.190213
0.190381
0.190551
0.190718
0.190855
0.190979
0.191063
0.1911
0.191117
0.191107
0.191078
0.191061
0.191047
0.191041
0.191059
0.191103
0.191163
0.191236
0.191322
0.191424
0.191518
0.191603
0.191674
0.19171
0.191733
0.191711
0.191678
0.191626
0.191572
0.191522
0.191476
0.191455
0.19145
0.191462
0.191499
0.191551
0.191602
0.191653
0.191684
0.191707
0.191716
0.191643
0.191592
0.191533
0.191459
0.191386
0.191316
0.191258
0.191226
0.191204
0.191192
0.191193
0.191207
0.191218
0.191239
0.191238
0.191182
0.191146
0.191085
0.191009
0.190933
0.190857
0.190783
0.190714
0.190669
0.190631
0.190602
0.190582
0.19057
0.190561
0.19056
0.190498
0.033496
0.0334277
0.0333487
0.033242
0.0332105
0.0331933
0.0333211
0.0336917
0.0340114
0.0341508
0.0341837
0.0341545
0.0340536
0.0338562
0.0337017
0.0335507
0.0334286
0.0333465
0.0332995
0.033294
0.0333276
0.0333988
0.0335095
0.0336647
0.0338664
0.0341177
0.0344241
0.0347883
0.0352166
0.0357134
0.036279
0.0369256
0.0376435
0.0384514
0.0393358
0.0403161
0.0413728
0.0425401
0.0437866
0.0451512
0.046578
0.0481533
0.0497839
0.051574
0.0534048
0.0554225
0.0574793
0.0596988
0.0619604
0.0643904
0.0668574
0.0694732
0.0721145
0.0749109
0.0777336
0.0806514
0.0836023
0.0866364
0.0896956
0.0927949
0.0959063
0.0990355
0.102166
0.105292
0.1084
0.111476
0.114515
0.117512
0.12043
0.123306
0.126111
0.128807
0.131484
0.134004
0.136507
0.138827
0.14112
0.143249
0.145358
0.147356
0.149295
0.151159
0.15291
0.154672
0.156265
0.157856
0.159296
0.160667
0.161902
0.163113
0.164267
0.165409
0.166503
0.167579
0.168588
0.16952
0.170326
0.171105
0.17188
0.172662
0.173443
0.174218
0.174958
0.175647
0.176296
0.176918
0.177526
0.178124
0.178714
0.179303
0.179896
0.180496
0.181102
0.181712
0.182329
0.182942
0.183528
0.18402
0.184391
0.184689
0.184962
0.185407
0.185815
0.186312
0.186854
0.187412
0.187944
0.188468
0.188935
0.189369
0.189751
0.190107
0.190435
0.190733
0.191
0.191251
0.1915
0.191758
0.192026
0.192294
0.192555
0.192809
0.193063
0.19332
0.193587
0.193862
0.194143
0.194438
0.194702
0.194975
0.195222
0.195478
0.195737
0.195991
0.196236
0.196444
0.196633
0.196751
0.196842
0.196909
0.196948
0.19697
0.197062
0.197135
0.197236
0.197346
0.197483
0.197643
0.197821
0.198002
0.198188
0.198369
0.198519
0.198655
0.19875
0.198796
0.198821
0.198817
0.198791
0.198777
0.198767
0.198767
0.198794
0.198848
0.198914
0.198996
0.199091
0.199201
0.199305
0.199396
0.199474
0.199513
0.199543
0.199522
0.19949
0.199439
0.199385
0.199336
0.199289
0.19927
0.199267
0.199282
0.199323
0.199379
0.199435
0.19949
0.199525
0.199547
0.199556
0.199483
0.199422
0.199359
0.199281
0.199202
0.199128
0.199067
0.199032
0.199008
0.198995
0.198995
0.199008
0.199017
0.199032
0.19903
0.198968
0.198921
0.198852
0.198768
0.198683
0.198598
0.198517
0.198442
0.198391
0.198348
0.198314
0.19829
0.198275
0.198263
0.198257
0.198188
0.0335224
0.0333961
0.0333179
0.0332119
0.0332291
0.0333236
0.0336765
0.0340227
0.0341928
0.034203
0.0341553
0.0340082
0.0338781
0.0336808
0.0335205
0.0333636
0.033245
0.033162
0.0331123
0.0331007
0.0331258
0.0331874
0.0332878
0.0334308
0.0336187
0.0338557
0.0341465
0.0344955
0.034909
0.0353922
0.0359442
0.0365791
0.037285
0.0380856
0.0389614
0.0399409
0.0409933
0.042169
0.0434235
0.0448092
0.0462525
0.047864
0.0495331
0.0513775
0.0532713
0.0553733
0.0575301
0.0598567
0.0622319
0.0648073
0.067426
0.0702215
0.0730384
0.076048
0.079085
0.0822451
0.0854398
0.0887421
0.092069
0.0954472
0.0988373
0.102256
0.105671
0.109085
0.112477
0.115823
0.119128
0.122382
0.125529
0.12864
0.131646
0.134553
0.137427
0.140127
0.142807
0.145265
0.147696
0.149935
0.152163
0.15425
0.156291
0.158219
0.160036
0.161859
0.163488
0.165122
0.166581
0.167962
0.169198
0.170415
0.171572
0.172723
0.173813
0.174886
0.175882
0.176792
0.177571
0.178324
0.179077
0.179837
0.180595
0.181346
0.182061
0.182724
0.183347
0.183944
0.184527
0.185099
0.185666
0.18623
0.1868
0.187379
0.187964
0.188558
0.189157
0.189759
0.190324
0.190797
0.191148
0.191442
0.191708
0.192125
0.192533
0.193024
0.193556
0.194109
0.194633
0.195145
0.195599
0.196023
0.196393
0.196738
0.197053
0.197334
0.19759
0.197833
0.198075
0.198327
0.19859
0.198856
0.199115
0.199369
0.199621
0.199878
0.200143
0.200415
0.200691
0.200981
0.201239
0.201507
0.20175
0.202004
0.202259
0.202511
0.202756
0.202962
0.203149
0.203265
0.203355
0.20342
0.203459
0.203476
0.203563
0.203638
0.203736
0.203844
0.203979
0.204136
0.204315
0.204496
0.204686
0.204868
0.20502
0.205158
0.205255
0.205302
0.205325
0.205321
0.205292
0.205274
0.20526
0.20526
0.205287
0.205341
0.205409
0.205493
0.205592
0.205702
0.205808
0.205899
0.205977
0.206016
0.206045
0.206022
0.205988
0.205935
0.205878
0.205826
0.205776
0.205757
0.205753
0.205767
0.205807
0.205864
0.205922
0.205978
0.206012
0.206031
0.20604
0.205966
0.205896
0.205826
0.205743
0.205657
0.205578
0.205513
0.205475
0.205448
0.205432
0.205429
0.20544
0.205447
0.205455
0.205451
0.205385
0.205327
0.205251
0.205159
0.205065
0.204972
0.204884
0.204801
0.204745
0.204696
0.204657
0.204629
0.20461
0.204594
0.204585
0.204509
0.0335526
0.0333991
0.0333215
0.0332351
0.0333356
0.0336258
0.0339789
0.0341877
0.0342236
0.0341605
0.0340278
0.0338688
0.033692
0.0334947
0.0333342
0.0331851
0.0330696
0.0329863
0.0329347
0.0329177
0.0329355
0.0329891
0.0330792
0.0332113
0.0333853
0.0336092
0.0338859
0.034223
0.0346232
0.0350961
0.0356377
0.0362653
0.0369629
0.0377632
0.0386369
0.0396251
0.040682
0.0418805
0.043157
0.0445851
0.046064
0.0477451
0.0494901
0.0514211
0.0534059
0.0556392
0.0579486
0.0604514
0.0630122
0.0658168
0.0686668
0.0717344
0.0748229
0.0781608
0.0815052
0.0850189
0.0885673
0.0922679
0.0959611
0.0997415
0.103508
0.107335
0.111127
0.114918
0.118676
0.122361
0.126001
0.12956
0.13297
0.136346
0.139567
0.142698
0.145773
0.14864
0.151482
0.15404
0.156574
0.158874
0.161172
0.163289
0.165377
0.167295
0.169105
0.170922
0.172521
0.174153
0.175566
0.176898
0.178078
0.179249
0.180353
0.181463
0.182492
0.183514
0.18444
0.185274
0.185979
0.186668
0.187361
0.188057
0.188748
0.189426
0.19007
0.190666
0.191224
0.191759
0.19228
0.192792
0.1933
0.193805
0.194317
0.19484
0.195369
0.195914
0.196465
0.197019
0.197524
0.197943
0.198246
0.198512
0.198751
0.199114
0.199499
0.199956
0.20045
0.200971
0.20146
0.201934
0.202354
0.202747
0.203081
0.203397
0.203675
0.203917
0.204141
0.204358
0.204574
0.204801
0.20504
0.205283
0.205522
0.205758
0.205993
0.206232
0.20648
0.206734
0.20699
0.207258
0.207496
0.207745
0.207968
0.208209
0.208443
0.20868
0.208909
0.209098
0.20927
0.209372
0.20945
0.209502
0.209531
0.209533
0.209604
0.209671
0.209756
0.209852
0.209974
0.210119
0.210286
0.210458
0.210641
0.210811
0.210956
0.211087
0.211177
0.211217
0.211232
0.21122
0.211181
0.211151
0.211127
0.211119
0.211137
0.211184
0.211248
0.211331
0.211425
0.211531
0.21163
0.211716
0.211787
0.21182
0.21184
0.211811
0.211771
0.211712
0.211649
0.21159
0.211533
0.211511
0.2115
0.211508
0.211544
0.211599
0.211654
0.211707
0.211739
0.211751
0.211755
0.21168
0.211598
0.211518
0.211428
0.211335
0.211249
0.211178
0.211134
0.211101
0.211082
0.211074
0.21108
0.211083
0.211083
0.211076
0.211006
0.210935
0.21085
0.21075
0.210646
0.210544
0.210448
0.210358
0.210295
0.210239
0.210195
0.210161
0.210137
0.210116
0.210103
0.210019
0.0336033
0.0334307
0.0333769
0.0333335
0.0335797
0.0339071
0.0341509
0.0342271
0.0341807
0.0340566
0.0338996
0.0337019
0.0335096
0.0333186
0.0331586
0.033016
0.0329035
0.0328205
0.0327677
0.0327463
0.0327574
0.032804
0.0328839
0.0330048
0.0331666
0.0333795
0.0336443
0.033972
0.0343616
0.034829
0.0353634
0.0359903
0.0366857
0.037495
0.0383761
0.0393895
0.0404656
0.0417088
0.0430258
0.0445211
0.0460779
0.0478709
0.0497395
0.051819
0.0539649
0.0564151
0.0589607
0.0617404
0.0645976
0.067757
0.0709651
0.0744465
0.0779599
0.0818208
0.0856113
0.0896337
0.093685
0.0979826
0.102176
0.106523
0.110822
0.115183
0.1195
0.123807
0.128057
0.132183
0.136259
0.140188
0.143925
0.147625
0.151077
0.154448
0.157706
0.16071
0.163669
0.166258
0.168825
0.171111
0.173395
0.175455
0.177496
0.1793
0.181002
0.18271
0.184182
0.185725
0.18698
0.188164
0.189196
0.190229
0.191183
0.192158
0.193034
0.193932
0.194706
0.195392
0.195965
0.196537
0.197113
0.197689
0.198253
0.198802
0.199322
0.199802
0.200253
0.200685
0.201103
0.201514
0.201926
0.202335
0.202753
0.203183
0.203623
0.20408
0.204555
0.205019
0.205424
0.205754
0.20598
0.206198
0.206387
0.20668
0.20701
0.207404
0.207837
0.208297
0.208727
0.20914
0.209502
0.209842
0.21012
0.210384
0.210601
0.210782
0.210956
0.211125
0.211296
0.21148
0.211674
0.211876
0.212077
0.212278
0.212478
0.212686
0.2129
0.21312
0.213343
0.213573
0.213778
0.213992
0.214182
0.214395
0.214596
0.214802
0.215
0.215159
0.215302
0.215379
0.215433
0.215461
0.215473
0.215447
0.215488
0.21554
0.215602
0.215677
0.215775
0.215902
0.216045
0.216198
0.216361
0.216509
0.21664
0.216749
0.216825
0.21685
0.216851
0.21682
0.216767
0.216719
0.216675
0.216652
0.216655
0.216686
0.216741
0.216815
0.216899
0.216992
0.217078
0.217151
0.217209
0.21723
0.217235
0.217194
0.217144
0.217075
0.217002
0.21693
0.216863
0.216831
0.21681
0.216807
0.216833
0.216881
0.216929
0.216974
0.216999
0.217002
0.216998
0.216917
0.216823
0.21673
0.216629
0.216526
0.21643
0.21635
0.216298
0.216257
0.21623
0.216216
0.216214
0.216212
0.216199
0.216188
0.216111
0.216028
0.215932
0.215823
0.215708
0.215595
0.215489
0.21539
0.215318
0.215255
0.215202
0.215162
0.215131
0.215104
0.215083
0.214991
0.0336891
0.0334952
0.033503
0.0335523
0.0338391
0.0340986
0.0342165
0.0342041
0.0341025
0.0339491
0.0337516
0.0335405
0.0333421
0.033158
0.032999
0.0328619
0.0327519
0.0326692
0.032615
0.0325894
0.0325939
0.0326334
0.0327031
0.0328146
0.0329659
0.0331704
0.0334254
0.0337474
0.0341299
0.0345974
0.0351299
0.0357647
0.0364684
0.0373026
0.0382005
0.0392518
0.0403732
0.0417005
0.0431004
0.0447064
0.046395
0.0483699
0.0504429
0.0527745
0.0552006
0.0579958
0.0608899
0.0640654
0.0673575
0.0710572
0.0747677
0.0788393
0.0829412
0.0875738
0.0919715
0.096672
0.101435
0.106479
0.111385
0.116421
0.121453
0.126487
0.131506
0.136448
0.14133
0.145976
0.15059
0.154931
0.159077
0.163154
0.166855
0.170521
0.17392
0.177081
0.180103
0.182678
0.185211
0.187434
0.189608
0.191549
0.193445
0.195034
0.196547
0.19801
0.199253
0.200586
0.201522
0.202463
0.203218
0.203992
0.204661
0.205387
0.205982
0.206646
0.20714
0.207589
0.20794
0.208317
0.208669
0.209051
0.209402
0.209754
0.210085
0.210392
0.210682
0.21096
0.211224
0.211487
0.21176
0.212033
0.212315
0.212614
0.212927
0.21326
0.213621
0.21395
0.214205
0.21441
0.214542
0.214688
0.214794
0.214995
0.215251
0.215557
0.215902
0.216269
0.216611
0.216943
0.21722
0.21749
0.217685
0.21788
0.218007
0.218112
0.218216
0.218319
0.218427
0.218548
0.21868
0.21882
0.218964
0.219113
0.219264
0.219425
0.219588
0.219764
0.219937
0.220112
0.220271
0.220433
0.22058
0.220751
0.220904
0.221068
0.221215
0.22133
0.221432
0.221474
0.22149
0.221483
0.221461
0.221407
0.221407
0.221431
0.22146
0.221508
0.221576
0.22167
0.22178
0.221901
0.222033
0.222149
0.222256
0.222336
0.22239
0.222392
0.222363
0.222314
0.222238
0.222166
0.222095
0.222046
0.22203
0.222041
0.222077
0.222133
0.222199
0.222274
0.222339
0.222393
0.22243
0.222435
0.222415
0.222359
0.222294
0.222211
0.222121
0.222032
0.22195
0.221904
0.221867
0.22185
0.22186
0.221896
0.221931
0.221964
0.221978
0.221965
0.221952
0.221859
0.22175
0.221642
0.221527
0.221411
0.221302
0.221211
0.221147
0.221095
0.221057
0.221033
0.221021
0.221009
0.220983
0.220963
0.220878
0.220779
0.220671
0.220551
0.220423
0.220297
0.22018
0.220071
0.219988
0.219914
0.219852
0.219802
0.219763
0.219726
0.219698
0.219594
0.0337837
0.0335869
0.0336796
0.0338023
0.0340523
0.0341994
0.0342268
0.0341549
0.0340171
0.0338244
0.0336089
0.0333926
0.0331941
0.0330149
0.0328589
0.0327252
0.0326167
0.0325343
0.0324783
0.0324482
0.0324457
0.0324794
0.0325404
0.0326444
0.0327871
0.0329862
0.0332344
0.0335561
0.0339356
0.0344117
0.0349534
0.0356054
0.0363214
0.0371995
0.0381466
0.0392737
0.0404809
0.0419375
0.0434907
0.0452949
0.0472015
0.0494553
0.0518355
0.0545258
0.0573641
0.0606809
0.0640287
0.0677332
0.0716332
0.07613
0.0804816
0.0853147
0.0901818
0.0957101
0.100942
0.10653
0.112151
0.118053
0.123872
0.129717
0.135586
0.141375
0.14717
0.152801
0.158362
0.163515
0.168679
0.173334
0.177907
0.182215
0.186149
0.19007
0.193521
0.196903
0.199878
0.202499
0.204937
0.207138
0.209156
0.210987
0.21272
0.214027
0.215386
0.216609
0.217576
0.218648
0.219231
0.219846
0.22027
0.220722
0.221026
0.221426
0.221645
0.221978
0.22208
0.22217
0.222215
0.222302
0.222334
0.222421
0.222474
0.22254
0.222602
0.22266
0.222717
0.22277
0.222818
0.22288
0.222965
0.223059
0.22316
0.223283
0.223422
0.223591
0.223787
0.223938
0.224002
0.224043
0.224058
0.224097
0.224095
0.224187
0.224361
0.224545
0.224765
0.225007
0.225234
0.225457
0.225629
0.225801
0.225894
0.225995
0.226017
0.226023
0.226041
0.226055
0.226086
0.226124
0.226172
0.226232
0.226302
0.226383
0.226469
0.226565
0.226669
0.226783
0.22689
0.226996
0.227089
0.227189
0.227277
0.227392
0.227488
0.227591
0.227678
0.227736
0.227782
0.227775
0.227742
0.227688
0.227623
0.227531
0.227486
0.227468
0.227459
0.227465
0.227494
0.227545
0.227612
0.227691
0.227781
0.227856
0.227926
0.227969
0.227991
0.227962
0.227899
0.227823
0.227718
0.227613
0.227508
0.227431
0.227386
0.227367
0.227375
0.227409
0.227451
0.227499
0.227538
0.227566
0.227577
0.227554
0.227509
0.22743
0.227343
0.22724
0.227129
0.22702
0.226918
0.226851
0.226794
0.226758
0.226748
0.226764
0.226782
0.226798
0.226796
0.226764
0.226736
0.226627
0.226502
0.226374
0.226242
0.22611
0.225985
0.225879
0.225799
0.225732
0.225681
0.225644
0.225617
0.225593
0.225549
0.225517
0.225423
0.225307
0.225185
0.225049
0.224907
0.224767
0.224636
0.224513
0.224418
0.224331
0.224257
0.224196
0.224145
0.224098
0.224058
0.223939
0.0338789
0.0337242
0.0338556
0.0340271
0.0341867
0.0342463
0.0342083
0.0340918
0.0339233
0.0337033
0.0334791
0.0332619
0.0330663
0.0328912
0.032738
0.032607
0.0324998
0.0324169
0.0323579
0.032324
0.0323157
0.0323444
0.0323985
0.0324974
0.0326338
0.0328322
0.0330781
0.0334068
0.0337926
0.0342824
0.0348365
0.0355298
0.0362881
0.0372453
0.0382868
0.0395481
0.0409073
0.0425673
0.0443515
0.0464405
0.0486784
0.0513362
0.054133
0.0573073
0.0606778
0.0647297
0.0686276
0.072976
0.077675
0.0831251
0.0882894
0.0940356
0.0997951
0.10624
0.112498
0.119121
0.125591
0.132209
0.138854
0.145425
0.151962
0.15841
0.164797
0.171031
0.176964
0.182542
0.187978
0.192822
0.197703
0.201996
0.206214
0.210207
0.213719
0.217279
0.220235
0.222869
0.225279
0.227394
0.229382
0.231096
0.232795
0.233928
0.235356
0.23631
0.237142
0.238076
0.238303
0.238777
0.238945
0.239162
0.239196
0.239312
0.239244
0.23926
0.238982
0.238752
0.238515
0.238324
0.238028
0.237792
0.237486
0.237205
0.236935
0.236679
0.236443
0.236206
0.235986
0.235788
0.235629
0.235484
0.235359
0.235256
0.235184
0.235145
0.235134
0.235047
0.234881
0.234731
0.234596
0.234504
0.234384
0.234345
0.234408
0.234433
0.234489
0.23458
0.234667
0.23475
0.2348
0.234845
0.234826
0.234808
0.234696
0.23459
0.234496
0.234412
0.234341
0.23428
0.234229
0.234191
0.234169
0.234162
0.234167
0.234186
0.234211
0.234247
0.234273
0.234298
0.234314
0.234337
0.234355
0.234401
0.234424
0.234453
0.234464
0.234452
0.234431
0.234359
0.234266
0.234157
0.23404
0.233902
0.2338
0.233729
0.233672
0.233631
0.233609
0.233605
0.23362
0.233649
0.233685
0.23371
0.233733
0.233733
0.233712
0.233641
0.23354
0.233429
0.23329
0.233143
0.232999
0.232887
0.232805
0.23275
0.232724
0.232725
0.232736
0.232752
0.232757
0.232754
0.232728
0.232674
0.232599
0.232491
0.232376
0.232248
0.232111
0.231976
0.23185
0.231758
0.231676
0.231614
0.23158
0.231571
0.231567
0.23156
0.231534
0.23148
0.231433
0.231305
0.23116
0.231009
0.230856
0.230704
0.230561
0.230436
0.230336
0.230251
0.230183
0.230129
0.230085
0.230045
0.229981
0.229931
0.229826
0.22969
0.229551
0.229398
0.22924
0.229083
0.228936
0.228798
0.228687
0.228586
0.228497
0.228423
0.228357
0.228296
0.228243
0.228106
0.0339733
0.033854
0.0340336
0.0341862
0.0342708
0.0342636
0.0341707
0.0340296
0.0338245
0.0335949
0.0333645
0.0331509
0.0329588
0.0327873
0.0326368
0.0325081
0.0324013
0.032317
0.032255
0.0322192
0.0322064
0.0322307
0.03228
0.0323774
0.0325108
0.032715
0.0329661
0.0333061
0.0337011
0.0342267
0.0348198
0.0355936
0.0364426
0.0375307
0.0387238
0.0401847
0.0417741
0.0437275
0.0458395
0.0483019
0.0509936
0.0542244
0.0574802
0.0612639
0.0652538
0.0701712
0.0748076
0.0800047
0.0855228
0.0918804
0.0979781
0.104671
0.111203
0.118391
0.125534
0.133091
0.140135
0.147301
0.154351
0.161499
0.168292
0.175246
0.181741
0.188237
0.19422
0.200003
0.205397
0.210342
0.215191
0.219583
0.223974
0.22795
0.231489
0.234989
0.237991
0.240756
0.243343
0.245375
0.24743
0.249154
0.250901
0.252089
0.253622
0.254487
0.25541
0.256293
0.256414
0.256881
0.257062
0.257238
0.257213
0.257233
0.257011
0.256869
0.256388
0.255973
0.255583
0.255254
0.254743
0.254291
0.253693
0.253123
0.252558
0.252019
0.25151
0.251006
0.250513
0.250043
0.249617
0.24921
0.248828
0.248476
0.248165
0.247884
0.247618
0.247251
0.246842
0.246478
0.246163
0.245922
0.245675
0.245513
0.24541
0.245236
0.245105
0.245014
0.24493
0.244853
0.244751
0.244654
0.244494
0.244343
0.244087
0.243846
0.243626
0.243423
0.243236
0.243059
0.242888
0.242736
0.242605
0.242496
0.242404
0.242327
0.24226
0.242202
0.24213
0.242062
0.241988
0.241922
0.241861
0.241823
0.241756
0.241701
0.241619
0.241523
0.241425
0.241277
0.241114
0.240939
0.240763
0.240571
0.240403
0.240268
0.240151
0.240052
0.239971
0.239907
0.23986
0.239824
0.239801
0.239764
0.239735
0.239674
0.239605
0.239487
0.23934
0.239186
0.239005
0.238813
0.238623
0.23847
0.238344
0.238246
0.238178
0.23814
0.238112
0.238089
0.238051
0.238011
0.237944
0.237852
0.23774
0.237599
0.237451
0.237292
0.237125
0.236961
0.236806
0.236683
0.23657
0.23648
0.236415
0.236375
0.236343
0.236308
0.236256
0.236174
0.236102
0.235953
0.235785
0.235607
0.235428
0.235254
0.235088
0.234941
0.234818
0.234711
0.234623
0.234548
0.234482
0.234422
0.234335
0.234264
0.234145
0.233988
0.23383
0.233656
0.23348
0.233303
0.233138
0.232982
0.232853
0.232734
0.232629
0.232538
0.232455
0.232378
0.232308
0.23215
0.0340571
0.0340077
0.0341668
0.0342835
0.034313
0.0342572
0.0341258
0.0339667
0.0337367
0.0334998
0.0332689
0.0330595
0.0328713
0.0327033
0.0325554
0.0324282
0.0323212
0.0322355
0.0321721
0.0321344
0.0321188
0.0321405
0.0321878
0.0322889
0.0324257
0.0326394
0.0328967
0.0332666
0.0336958
0.0342961
0.034975
0.0358732
0.0368662
0.0381474
0.0395602
0.0412927
0.0432114
0.045559
0.0480842
0.0509951
0.0541824
0.058152
0.0619559
0.0664879
0.0711362
0.076871
0.0824338
0.0886795
0.0947641
0.101654
0.108477
0.115921
0.123095
0.130746
0.138483
0.146677
0.153952
0.161415
0.168211
0.175539
0.182348
0.189157
0.195581
0.201824
0.207796
0.213317
0.218629
0.223434
0.228013
0.232377
0.236681
0.240757
0.244416
0.247726
0.250551
0.253521
0.25627
0.25843
0.260666
0.262391
0.264206
0.265665
0.267317
0.268291
0.26943
0.270341
0.270733
0.271421
0.271837
0.272221
0.272387
0.272541
0.272442
0.272367
0.271935
0.271595
0.271303
0.271058
0.27057
0.270135
0.269452
0.268793
0.268106
0.267456
0.26682
0.266178
0.265533
0.264898
0.264288
0.263688
0.263101
0.262543
0.262005
0.2615
0.260947
0.260306
0.259671
0.259095
0.258606
0.258217
0.257845
0.257553
0.257274
0.256887
0.256547
0.256251
0.255974
0.255716
0.255448
0.255188
0.254877
0.25458
0.254169
0.253779
0.253419
0.253081
0.252766
0.252455
0.25215
0.251871
0.251617
0.251391
0.251187
0.251001
0.250827
0.25066
0.250477
0.250303
0.250128
0.249963
0.24981
0.249676
0.249507
0.249353
0.249166
0.248975
0.248788
0.248552
0.248308
0.248062
0.247816
0.247565
0.247321
0.247113
0.246927
0.246762
0.246613
0.246478
0.246359
0.246252
0.246159
0.246052
0.245958
0.245831
0.245705
0.245531
0.245331
0.245128
0.2449
0.244658
0.244417
0.244216
0.244039
0.243892
0.243776
0.24369
0.243616
0.243547
0.243462
0.243376
0.243263
0.243127
0.242973
0.242793
0.242606
0.242413
0.242211
0.242013
0.241825
0.241667
0.241518
0.241395
0.241294
0.241218
0.241151
0.241084
0.240999
0.240886
0.240782
0.240611
0.240416
0.240209
0.240001
0.239801
0.239609
0.239436
0.239287
0.239155
0.239042
0.238943
0.238851
0.238768
0.238654
0.238558
0.238423
0.238242
0.23806
0.237866
0.237668
0.23747
0.237284
0.237108
0.236958
0.236819
0.236695
0.236585
0.236481
0.236385
0.236297
0.236113
0.03415
0.0341132
0.0342665
0.0343414
0.0343305
0.0342337
0.0340902
0.0338984
0.03366
0.0334198
0.0331927
0.032988
0.0328035
0.0326391
0.0324934
0.0323671
0.0322597
0.0321733
0.03211
0.0320707
0.0320543
0.0320764
0.0321259
0.0322362
0.0323766
0.0326135
0.0328974
0.0333331
0.0338389
0.0345552
0.0353693
0.0364466
0.0376434
0.0391856
0.0408974
0.0429713
0.0453064
0.0481641
0.0511036
0.0545675
0.058284
0.0630206
0.0675054
0.0728796
0.0781211
0.0844377
0.0908609
0.0979941
0.104441
0.11155
0.118814
0.126714
0.134196
0.142133
0.14958
0.157713
0.165138
0.172437
0.179051
0.185731
0.192383
0.198575
0.204757
0.210288
0.216204
0.221271
0.226504
0.231006
0.235515
0.239672
0.243758
0.247513
0.251352
0.254539
0.257249
0.260478
0.262812
0.265376
0.267931
0.269385
0.271288
0.272875
0.27473
0.275737
0.277156
0.278082
0.278958
0.279994
0.280667
0.281361
0.281872
0.282351
0.282506
0.28266
0.282613
0.282584
0.282644
0.282711
0.282565
0.282437
0.281989
0.281558
0.281057
0.280591
0.280101
0.279596
0.27907
0.278535
0.277965
0.277379
0.276788
0.276216
0.2756
0.274989
0.274234
0.273429
0.272663
0.271971
0.271375
0.270894
0.270446
0.270057
0.269612
0.269043
0.268513
0.26802
0.267554
0.267116
0.266683
0.266267
0.265801
0.265364
0.264806
0.264272
0.263773
0.263299
0.262851
0.262401
0.261955
0.261539
0.261153
0.2608
0.260476
0.260171
0.259878
0.25959
0.259289
0.259
0.258715
0.258443
0.258187
0.257948
0.257663
0.2574
0.257097
0.256802
0.256514
0.256183
0.255853
0.255527
0.255206
0.254881
0.254563
0.254273
0.254009
0.253768
0.253543
0.25333
0.253132
0.252944
0.252771
0.252586
0.252419
0.252217
0.252024
0.251789
0.251531
0.251273
0.250993
0.250698
0.250403
0.250146
0.249911
0.249709
0.249539
0.249398
0.249271
0.24915
0.24901
0.248872
0.248708
0.248521
0.248321
0.248098
0.247867
0.247635
0.247395
0.24716
0.246935
0.246736
0.246548
0.246385
0.246244
0.246127
0.246021
0.245915
0.245795
0.245645
0.245505
0.245309
0.245083
0.244844
0.244604
0.244375
0.244153
0.243952
0.243773
0.243612
0.243471
0.243343
0.243222
0.243112
0.242969
0.242844
0.242689
0.242483
0.242275
0.242058
0.241835
0.241614
0.241404
0.241206
0.241033
0.240872
0.240725
0.240593
0.240467
0.240349
0.240239
0.240026
0.0341191
0.0341634
0.0343215
0.0343675
0.0343263
0.0342041
0.0340586
0.0338391
0.0335971
0.0333563
0.0331355
0.0329355
0.0327549
0.0325939
0.0324499
0.0323244
0.0322168
0.0321318
0.0320682
0.0320289
0.0320142
0.032042
0.0320944
0.0322215
0.0323809
0.0326717
0.0330218
0.0335616
0.0341892
0.0350711
0.0360711
0.0373817
0.0388522
0.040724
0.0428082
0.0452757
0.0480295
0.0515102
0.0549069
0.0590646
0.0632757
0.0686625
0.0738644
0.0800053
0.0858634
0.0925085
0.0993853
0.106891
0.113791
0.121114
0.127959
0.135841
0.143227
0.150814
0.15802
0.165239
0.172333
0.179101
0.185648
0.191696
0.19802
0.203262
0.209037
0.213966
0.219638
0.223748
0.228744