/*--------------------------------*- C++ -*----------------------------------*\
| =========                 |                                                 |
| \\      /  F ield         | OpenFOAM: The Open Source CFD Toolbox           |
|  \\    /   O peration     | Version:  2312                                  |
|   \\  /    A nd           | Website:  www.openfoam.com                      |
|    \\/     M anipulation  |                                                 |
\*---------------------------------------------------------------------------*/
FoamFile
{
    version     2.0;
    format      ascii;
    arch        "LSB;label=32;scalar=64";
    class       volScalarField;
    location    "0.002";
    object      T;
}
// * * * * * * * * * * * * * * * * * * * * * * * * * * * * * * * * * * * * * //

dimensions      [0 0 0 1 0 0 0];

internalField   nonuniform List<scalar> 
48128
(
361.483
361.733
361.532
361.593
361.787
361.991
362.304
362.499
362.137
360.551
355.621
353.274
352.046
351.032
350.104
348.54
347.178
345.893
344.689
343.579
342.594
341.641
340.736
339.903
339.153
338.496
337.945
337.532
337.259
337.11
337.063
337.184
337.46
337.858
338.381
339.018
339.764
340.604
341.48
342.434
343.39
344.397
345.403
346.375
347.337
348.242
349.11
349.887
350.549
351.134
351.598
351.984
352.206
352.335
352.311
352.17
351.906
351.523
351.03
350.431
349.739
348.963
348.109
347.184
346.184
345.113
343.986
342.802
341.578
340.321
339.003
337.673
336.297
334.931
333.518
332.118
330.687
329.268
327.875
326.506
325.174
323.864
322.562
321.332
320.109
318.909
317.727
316.539
315.352
314.226
313.121
312.103
311.124
310.191
309.294
308.386
307.463
306.598
305.776
305.022
304.331
303.671
303.029
302.39
301.771
301.178
300.615
300.081
299.582
299.111
298.676
298.274
297.9
297.557
297.234
296.948
296.653
296.338
296.006
295.642
295.218
295.071
294.826
294.739
294.694
294.616
294.515
294.394
294.254
294.099
293.93
293.755
293.576
293.399
293.217
293.058
292.905
292.779
292.689
292.62
292.553
292.493
292.442
292.395
292.366
292.353
292.347
292.354
292.354
292.354
292.353
292.359
292.373
292.391
292.403
292.419
292.416
292.408
292.387
292.366
292.332
292.323
292.344
292.367
292.399
292.454
292.516
292.596
292.681
292.762
292.841
292.921
292.977
293.035
293.056
293.079
293.077
293.07
293.056
293.06
293.072
293.095
293.13
293.189
293.262
293.339
293.422
293.513
293.596
293.664
293.723
293.758
293.802
293.801
293.814
293.811
293.821
293.839
293.868
293.91
293.963
294.028
294.108
294.196
294.28
294.359
294.426
294.486
294.559
294.551
294.565
294.589
294.601
294.623
294.655
294.697
294.75
294.813
294.881
294.955
295.037
295.106
295.177
295.242
295.261
295.289
295.321
295.326
295.341
295.364
295.394
295.434
295.484
295.543
295.608
295.68
295.756
295.835
295.909
296.001
360.792
361.197
361.117
361.218
361.508
361.87
362.347
362.244
360.496
357.126
353.467
350.976
348.92
346.592
344.269
342.366
340.687
339.228
337.985
336.935
336.082
335.339
334.698
334.18
333.794
333.546
333.436
333.418
333.59
333.905
334.36
334.975
335.708
336.561
337.509
338.55
339.652
340.825
342.017
343.214
344.395
345.548
346.662
347.688
348.625
349.465
350.204
350.81
351.245
351.551
351.673
351.654
351.445
351.108
350.59
349.917
349.095
348.117
347.001
345.751
344.392
342.932
341.383
339.752
338.044
336.266
334.435
332.537
330.61
328.669
326.702
324.766
322.804
320.884
318.931
317.01
315.075
313.179
311.323
309.512
307.761
306.035
304.349
302.732
301.149
299.605
298.088
296.577
295.08
293.64
292.234
290.916
289.647
288.433
287.256
286.086
284.897
283.768
282.687
281.677
280.736
279.83
278.947
278.076
277.227
276.408
275.624
274.874
274.159
273.475
272.828
272.217
271.637
271.089
270.562
270.079
269.588
269.083
268.563
268.016
267.404
267.065
266.646
266.358
266.153
265.929
265.695
265.449
265.19
264.918
264.635
264.344
264.047
263.746
263.439
263.146
262.859
262.597
262.368
262.166
261.976
261.8
261.637
261.493
261.362
261.243
261.126
261.02
260.907
260.792
260.672
260.562
260.459
260.363
260.265
260.165
260.057
259.944
259.823
259.701
259.575
259.443
259.378
259.31
259.238
259.211
259.177
259.175
259.177
259.178
259.182
259.184
259.179
259.171
259.148
259.122
259.086
259.038
258.982
258.941
258.903
258.88
258.862
258.874
258.898
258.931
258.973
259.023
259.075
259.117
259.151
259.168
259.191
259.177
259.179
259.166
259.163
259.166
259.179
259.2
259.232
259.276
259.336
259.406
259.477
259.549
259.614
259.675
259.76
259.76
259.777
259.807
259.823
259.847
259.88
259.921
259.973
260.034
260.102
260.179
260.264
260.345
260.428
260.517
260.556
260.603
260.657
260.679
260.709
260.744
260.785
260.835
260.892
260.958
261.031
261.111
261.197
261.287
261.378
261.504
360.417
360.919
361.026
361.198
361.588
362.053
362.045
360.336
356.443
352.453
349.481
347.084
345.153
343.734
342.442
341.163
340.09
339.157
338.321
337.625
337.092
336.623
336.245
335.972
335.808
335.755
335.814
336.011
336.355
336.83
337.427
338.149
338.966
339.882
340.86
341.904
342.98
344.085
345.184
346.25
347.258
348.203
349.068
349.819
350.429
350.913
351.254
351.448
351.439
351.273
350.895
350.368
349.645
348.778
347.72
346.494
345.131
343.611
341.964
340.191
338.328
336.381
334.364
332.287
330.148
327.965
325.752
323.494
321.239
318.982
316.738
314.54
312.345
310.21
308.057
305.95
303.851
301.81
299.819
297.892
296.036
294.21
292.447
290.753
289.11
287.514
285.951
284.397
282.869
281.4
279.967
278.622
277.324
276.084
274.878
273.686
272.477
271.334
270.24
269.211
268.248
267.318
266.409
265.514
264.643
263.803
262.997
262.225
261.487
260.782
260.107
259.467
258.856
258.271
257.71
257.183
256.651
256.106
255.547
254.97
254.335
253.952
253.508
253.16
252.909
252.644
252.372
252.092
251.802
251.501
251.19
250.873
250.55
250.223
249.888
249.566
249.245
248.949
248.68
248.435
248.204
247.989
247.788
247.609
247.447
247.3
247.157
247.024
246.884
246.742
246.594
246.454
246.318
246.188
246.056
245.922
245.782
245.637
245.486
245.335
245.182
245.023
244.927
244.829
244.727
244.671
244.608
244.577
244.549
244.519
244.493
244.464
244.431
244.396
244.351
244.303
244.248
244.185
244.114
244.058
244
243.96
243.914
243.911
243.916
243.929
243.951
243.982
244.015
244.044
244.064
244.07
244.075
244.059
244.052
244.034
244.023
244.018
244.023
244.036
244.058
244.092
244.141
244.199
244.26
244.323
244.381
244.44
244.518
244.524
244.544
244.574
244.592
244.617
244.649
244.689
244.738
244.796
244.862
244.936
245.019
245.102
245.187
245.277
245.326
245.381
245.442
245.473
245.511
245.552
245.598
245.65
245.71
245.778
245.852
245.934
246.021
246.112
246.206
246.339
360.191
360.84
361.295
361.464
361.869
361.785
360.243
356.303
351.966
348.905
346.75
345.271
344.193
343.378
342.653
341.786
341.021
340.362
339.784
339.307
338.963
338.66
338.434
338.295
338.25
338.307
338.486
338.786
339.207
339.744
340.382
341.125
341.942
342.84
343.778
344.752
345.732
346.706
347.645
348.518
349.292
349.968
350.523
350.942
351.174
351.245
351.115
350.834
350.318
349.628
348.693
347.597
346.306
344.859
343.219
341.404
339.477
337.39
335.202
332.9
330.547
328.128
325.676
323.19
320.669
318.141
315.613
313.064
310.569
308.093
305.677
303.329
301.011
298.774
296.535
294.36
292.208
290.139
288.129
286.204
284.358
282.542
280.81
279.154
277.56
276.028
274.529
273.041
271.586
270.19
268.833
267.56
266.332
265.162
264.025
262.902
261.766
260.701
259.683
258.726
257.827
256.957
256.105
255.268
254.454
253.669
252.916
252.197
251.509
250.853
250.223
249.624
249.052
248.5
247.973
247.468
246.957
246.435
245.898
245.351
244.753
244.383
243.971
243.619
243.376
243.121
242.862
242.596
242.322
242.036
241.742
241.44
241.132
240.817
240.497
240.186
239.873
239.582
239.316
239.069
238.836
238.618
238.416
238.235
238.073
237.927
237.789
237.659
237.523
237.385
237.24
237.103
236.966
236.832
236.697
236.558
236.414
236.266
236.113
235.958
235.804
235.645
235.542
235.442
235.338
235.277
235.21
235.174
235.14
235.103
235.068
235.03
234.988
234.943
234.891
234.837
234.778
234.712
234.639
234.581
234.521
234.476
234.423
234.409
234.41
234.416
234.43
234.455
234.479
234.503
234.518
234.521
234.52
234.502
234.492
234.472
234.46
234.453
234.457
234.467
234.485
234.514
234.558
234.611
234.666
234.723
234.778
234.835
234.907
234.918
234.941
234.971
234.992
235.019
235.052
235.092
235.14
235.197
235.262
235.335
235.416
235.498
235.584
235.674
235.729
235.788
235.854
235.892
235.934
235.98
236.03
236.086
236.148
236.217
236.293
236.374
236.462
236.553
236.647
236.78
360.034
360.886
361.6
361.79
361.641
360.242
356.615
352.137
349.055
347.026
345.743
344.904
344.342
343.805
343.35
342.776
342.272
341.826
341.429
341.104
340.884
340.697
340.573
340.527
340.568
340.712
340.961
341.321
341.784
342.351
343.001
343.738
344.527
345.373
346.236
347.099
347.932
348.723
349.442
350.058
350.524
350.856
351.008
350.997
350.739
350.292
349.574
348.684
347.529
346.179
344.552
342.751
340.765
338.614
336.27
333.758
331.173
328.427
325.632
322.748
319.868
316.968
314.078
311.214
308.339
305.515
302.733
299.963
297.313
294.706
292.204
289.803
287.452
285.219
282.99
280.853
278.752
276.761
274.835
273.017
271.281
269.58
267.982
266.466
265.015
263.636
262.285
260.942
259.635
258.387
257.174
256.039
254.951
253.919
252.918
251.93
250.93
250.006
249.119
248.289
247.505
246.746
246.005
245.277
244.569
243.888
243.235
242.611
242.017
241.454
240.911
240.393
239.902
239.423
238.97
238.524
238.072
237.611
237.133
236.654
236.129
235.804
235.452
235.131
234.924
234.707
234.487
234.262
234.031
233.789
233.537
233.276
233.007
232.731
232.45
232.173
231.894
231.633
231.391
231.164
230.952
230.754
230.571
230.408
230.264
230.137
230.019
229.909
229.794
229.676
229.553
229.436
229.315
229.195
229.072
228.946
228.814
228.678
228.538
228.394
228.253
228.108
228.01
227.921
227.831
227.777
227.719
227.69
227.663
227.633
227.602
227.568
227.528
227.486
227.437
227.386
227.331
227.272
227.206
227.154
227.101
227.059
227.012
226.997
226.997
227.004
227.019
227.043
227.067
227.092
227.109
227.114
227.115
227.099
227.091
227.073
227.063
227.06
227.065
227.077
227.097
227.126
227.169
227.22
227.275
227.329
227.383
227.441
227.509
227.526
227.553
227.585
227.612
227.642
227.677
227.719
227.769
227.827
227.892
227.965
228.046
228.129
228.217
228.305
228.367
228.431
228.5
228.544
228.592
228.643
228.697
228.756
228.821
228.893
228.971
229.054
229.142
229.234
229.328
229.462
359.924
360.966
361.702
361.545
360.438
357.264
352.881
349.621
347.549
346.322
345.607
345.147
344.813
344.494
344.232
343.875
343.558
343.264
343
342.791
342.668
342.575
342.539
342.572
342.687
342.898
343.201
343.601
344.089
344.666
345.306
346.008
346.735
347.486
348.223
348.918
349.533
350.061
350.466
350.729
350.767
350.615
350.204
349.595
348.669
347.506
345.987
344.259
342.245
340.004
337.459
334.734
331.848
328.814
325.573
322.211
318.8
315.309
311.792
308.298
304.818
301.477
298.148
294.978
291.803
288.769
285.833
282.945
280.273
277.658
275.203
272.886
270.635
268.565
266.48
264.536
262.636
260.874
259.176
257.612
256.128
254.679
253.354
252.085
250.886
249.755
248.655
247.546
246.475
245.454
244.465
243.545
242.672
241.846
241.046
240.251
239.448
238.715
238.007
237.352
236.731
236.131
235.546
234.972
234.414
233.876
233.36
232.87
232.405
231.969
231.546
231.144
230.764
230.391
230.041
229.685
229.322
228.955
228.564
228.184
227.764
227.506
227.239
226.98
226.825
226.667
226.507
226.344
226.177
225.997
225.81
225.611
225.401
225.184
224.962
224.739
224.512
224.3
224.1
223.913
223.74
223.578
223.43
223.301
223.19
223.097
223.011
222.933
222.852
222.767
222.679
222.593
222.503
222.41
222.312
222.21
222.102
221.989
221.873
221.752
221.635
221.515
221.432
221.365
221.297
221.259
221.22
221.207
221.196
221.182
221.165
221.144
221.116
221.086
221.047
221.007
220.964
220.919
220.868
220.83
220.79
220.76
220.726
220.719
220.723
220.736
220.756
220.786
220.816
220.848
220.874
220.885
220.897
220.884
220.885
220.874
220.871
220.874
220.886
220.904
220.93
220.964
221.01
221.064
221.12
221.176
221.232
221.293
221.36
221.387
221.42
221.457
221.49
221.527
221.567
221.614
221.667
221.728
221.796
221.871
221.954
222.039
222.129
222.218
222.287
222.356
222.43
222.481
222.536
222.592
222.652
222.716
222.785
222.86
222.941
223.027
223.117
223.21
223.305
223.441
359.858
360.861
361.318
360.535
358.103
353.976
350.49
348.226
346.935
346.237
345.824
345.581
345.44
345.287
345.15
344.95
344.766
344.592
344.439
344.329
344.29
344.283
344.317
344.421
344.596
344.857
345.195
345.617
346.106
346.664
347.259
347.882
348.496
349.089
349.621
350.063
350.359
350.504
350.437
350.177
349.587
348.739
347.511
346.008
344.092
341.863
339.181
336.247
333.038
329.557
325.757
321.812
317.707
313.662
309.361
305.063
300.631
296.46
292.145
288.136
284.015
280.381
276.652
273.323
269.954
266.85
263.897
261.05
258.518
256.062
253.853
251.807
249.857
248.149
246.404
244.848
243.336
241.982
240.69
239.543
238.473
237.432
236.537
235.646
234.821
234.054
233.329
232.563
231.839
231.147
230.487
229.874
229.293
228.742
228.214
227.673
227.127
226.638
226.162
225.734
225.324
224.926
224.538
224.156
223.783
223.421
223.076
222.749
222.446
222.165
221.889
221.63
221.387
221.147
220.921
220.682
220.433
220.186
219.906
219.649
219.362
219.182
219.026
218.857
218.764
218.679
218.595
218.508
218.422
218.321
218.216
218.094
217.961
217.819
217.67
217.518
217.36
217.212
217.069
216.936
216.815
216.704
216.605
216.522
216.456
216.408
216.365
216.329
216.292
216.253
216.209
216.166
216.117
216.061
216
215.932
215.858
215.776
215.696
215.608
215.524
215.439
215.381
215.343
215.304
215.29
215.279
215.286
215.301
215.308
215.317
215.314
215.307
215.296
215.274
215.254
215.227
215.206
215.177
215.157
215.138
215.127
215.112
215.118
215.133
215.157
215.189
215.229
215.271
215.315
215.354
215.378
215.406
215.402
215.415
215.415
215.423
215.437
215.46
215.489
215.525
215.568
215.621
215.682
215.744
215.805
215.866
215.933
216.003
216.043
216.084
216.129
216.172
216.217
216.266
216.319
216.379
216.445
216.518
216.597
216.684
216.773
216.868
216.959
217.038
217.113
217.192
217.253
217.315
217.379
217.445
217.515
217.59
217.67
217.756
217.846
217.94
218.036
218.134
218.272
359.797
360.357
360.45
358.812
355.278
351.644
349.087
347.598
346.816
346.409
346.211
346.123
346.112
346.074
346.036
345.95
345.869
345.794
345.735
345.711
345.74
345.803
345.899
346.057
346.274
346.563
346.914
347.328
347.784
348.279
348.775
349.258
349.678
350.022
350.233
350.291
350.087
349.652
348.856
347.752
346.176
344.224
341.738
338.86
335.518
331.799
327.554
323.087
318.328
313.389
308.089
302.822
297.252
292.339
287.039
281.911
276.483
271.866
266.894
262.592
258.01
254.298
250.386
247.102
243.748
240.782
238.001
235.388
233.122
230.964
229.135
227.464
225.981
224.713
223.463
222.383
221.382
220.523
219.758
219.099
218.554
217.994
217.636
217.242
216.859
216.588
216.3
216.002
215.701
215.456
215.202
215.002
214.775
214.592
214.39
214.176
213.944
213.776
213.589
213.435
213.277
213.119
212.962
212.806
212.649
212.495
212.351
212.217
212.097
211.993
211.883
211.79
211.703
211.616
211.536
211.434
211.316
211.205
211.052
210.944
210.808
210.73
210.694
210.627
210.611
210.612
210.612
210.614
210.619
210.611
210.599
210.571
210.524
210.468
210.405
210.338
210.26
210.189
210.116
210.049
209.991
209.942
209.903
209.876
209.866
209.869
209.877
209.893
209.905
209.926
209.929
209.943
209.939
209.932
209.915
209.889
209.859
209.815
209.783
209.732
209.693
209.651
209.625
209.621
209.621
209.635
209.655
209.691
209.737
209.774
209.815
209.837
209.858
209.869
209.872
209.881
209.873
209.885
209.879
209.883
209.892
209.907
209.916
209.938
209.971
210.012
210.06
210.115
210.173
210.233
210.29
210.331
210.378
210.392
210.418
210.435
210.459
210.488
210.526
210.57
210.621
210.675
210.739
210.811
210.882
210.952
211.022
211.096
211.172
211.23
211.282
211.336
211.391
211.448
211.508
211.571
211.64
211.714
211.795
211.881
211.973
212.068
212.169
212.265
212.356
212.438
212.524
212.596
212.667
212.74
212.815
212.893
212.975
213.062
213.154
213.25
213.349
213.45
213.552
213.696
359.665
359.645
359.167
356.633
353.032
350.182
348.383
347.411
346.939
346.732
346.676
346.699
346.773
346.818
346.85
346.857
346.859
346.864
346.882
346.923
347.009
347.124
347.265
347.456
347.691
347.982
348.311
348.676
349.047
349.417
349.736
349.988
350.095
350.047
349.733
349.152
348.128
346.731
344.754
342.316
339.276
335.699
331.482
326.792
321.615
316.215
310.218
304.109
297.534
291.348
284.613
278.319
271.4
266.015
260.002
254.457
248.384
243.58
238.27
234.049
229.426
225.928
222.228
219.213
216.235
213.647
211.28
209.176
207.331
205.731
204.366
203.164
202.205
201.329
200.615
199.889
199.439
198.937
198.713
198.384
198.373
198.121
198.254
198.292
198.225
198.485
198.452
198.695
198.746
198.984
199.084
199.334
199.448
199.693
199.795
199.975
200.095
200.3
200.429
200.595
200.706
200.823
200.923
201.021
201.11
201.193
201.268
201.345
201.423
201.512
201.586
201.67
201.755
201.834
201.921
201.963
201.98
202.012
202.018
202.073
202.09
202.138
202.216
202.263
202.341
202.43
202.523
202.626
202.722
202.825
202.907
202.989
203.028
203.071
203.101
203.126
203.14
203.154
203.16
203.169
203.182
203.204
203.233
203.271
203.32
203.381
203.447
203.522
203.593
203.675
203.738
203.812
203.859
203.907
203.938
203.962
203.982
203.988
204.006
204.004
204.017
204.019
204.036
204.069
204.108
204.16
204.218
204.288
204.368
204.441
204.517
204.572
204.625
204.666
204.7
204.737
204.76
204.802
204.829
204.863
204.903
204.948
204.985
205.031
205.086
205.148
205.216
205.29
205.367
205.447
205.527
205.589
205.657
205.694
205.738
205.776
205.819
205.867
205.924
205.986
206.054
206.125
206.203
206.288
206.371
206.454
206.535
206.621
206.706
206.785
206.848
206.916
206.985
207.056
207.129
207.205
207.285
207.37
207.461
207.556
207.657
207.76
207.868
207.972
208.076
208.166
208.26
208.346
208.428
208.511
208.596
208.684
208.775
208.871
208.97
209.074
209.181
209.287
209.395
209.547
359.54
358.803
357.672
354.545
351.538
349.372
348.098
347.475
347.199
347.119
347.159
347.267
347.392
347.498
347.587
347.661
347.728
347.795
347.87
347.961
348.087
348.233
348.396
348.593
348.816
349.07
349.33
349.589
349.801
349.956
349.98
349.848
349.416
348.695
347.486
345.839
343.526
340.643
336.972
332.675
327.735
322.16
315.932
309.308
302.054
295.294
287.758
280.132
271.756
264.929
257.148
250.404
242.645
237.2
230.936
225.644
219.683
215.182
210.228
206.479
202.436
199.362
196.416
193.834
191.59
189.535
187.84
186.32
184.991
184.056
183.056
182.421
181.852
181.329
181.139
180.537
180.648
180.296
180.533
180.347
180.706
180.61
181.008
181.267
181.434
181.946
182.076
182.584
182.899
183.38
183.748
184.226
184.603
185.078
185.425
185.864
186.279
186.749
187.156
187.593
187.964
188.342
188.692
189.044
189.383
189.709
190.01
190.306
190.591
190.88
191.144
191.412
191.668
191.919
192.158
192.355
192.525
192.699
192.876
193.083
193.262
193.445
193.65
193.805
193.98
194.168
194.36
194.563
194.759
194.967
195.153
195.343
195.479
195.624
195.754
195.875
195.986
196.089
196.179
196.27
196.362
196.459
196.562
196.671
196.786
196.91
197.038
197.174
197.31
197.454
197.583
197.719
197.824
197.93
198.016
198.094
198.17
198.232
198.302
198.357
198.422
198.478
198.541
198.618
198.701
198.794
198.893
199.001
199.119
199.232
199.344
199.438
199.527
199.602
199.671
199.741
199.801
199.875
199.939
200.009
200.082
200.161
200.23
200.303
200.385
200.472
200.564
200.66
200.759
200.862
200.965
201.053
201.146
201.207
201.275
201.337
201.403
201.474
201.552
201.635
201.724
201.814
201.909
202.009
202.109
202.206
202.301
202.401
202.499
202.6
202.679
202.762
202.848
202.935
203.024
203.115
203.209
203.307
203.409
203.516
203.627
203.74
203.857
203.971
204.089
204.19
204.294
204.396
204.49
204.585
204.682
204.78
204.882
204.988
205.097
205.21
205.326
205.44
205.555
205.716
359.277
357.9
356.155
353.128
350.626
348.974
348.098
347.66
347.522
347.523
347.637
347.796
347.958
348.105
348.238
348.358
348.471
348.583
348.696
348.818
348.961
349.114
349.271
349.442
349.612
349.778
349.903
349.974
349.916
349.709
349.202
348.39
347.038
345.208
342.621
339.38
335.292
330.417
324.664
318.176
311.084
303.655
295.49
287.18
277.887
270.339
261.692
253.169
243.494
236.624
228.452
222.123
214.661
209.495
203.639
199.041
193.997
189.963
186.086
182.828
180.029
177.423
175.497
173.423
172.176
170.586
169.742
168.638
167.939
167.525
166.783
166.759
166.3
166.196
166.279
165.87
166.314
166.026
166.493
166.375
166.893
166.873
167.39
167.628
167.944
168.499
168.665
169.255
169.635
170.187
170.615
171.169
171.605
172.159
172.591
173.132
173.667
174.254
174.798
175.367
175.882
176.412
176.923
177.443
177.959
178.466
178.952
179.434
179.899
180.363
180.798
181.233
181.645
182.053
182.428
182.769
183.086
183.407
183.742
184.097
184.433
184.749
185.076
185.337
185.613
185.9
186.191
186.492
186.788
187.098
187.382
187.681
187.918
188.162
188.395
188.613
188.822
189.016
189.194
189.368
189.542
189.719
189.898
190.08
190.265
190.454
190.647
190.846
191.047
191.255
191.451
191.652
191.818
191.985
192.129
192.265
192.399
192.52
192.646
192.761
192.883
192.994
193.108
193.233
193.362
193.5
193.642
193.792
193.949
194.103
194.256
194.39
194.519
194.632
194.739
194.845
194.944
195.054
195.159
195.266
195.377
195.491
195.595
195.7
195.811
195.926
196.044
196.165
196.288
196.417
196.547
196.663
196.782
196.872
196.966
197.055
197.146
197.242
197.344
197.451
197.564
197.675
197.79
197.908
198.026
198.141
198.252
198.367
198.482
198.605
198.702
198.804
198.908
199.013
199.12
199.228
199.338
199.451
199.568
199.688
199.811
199.936
200.063
200.19
200.323
200.436
200.552
200.67
200.778
200.887
200.997
201.108
201.222
201.339
201.459
201.583
201.709
201.832
201.956
202.13
358.95
357.116
354.88
352.164
350.122
348.87
348.187
347.915
347.858
347.927
348.086
348.276
348.462
348.635
348.796
348.945
349.086
349.222
349.354
349.486
349.623
349.755
349.872
349.974
350.033
350.041
349.933
349.683
349.135
348.278
346.86
344.931
342.194
338.748
334.317
328.998
322.772
315.663
307.771
299.223
289.962
281.199
271.449
262.056
251.193
243.271
234.089
225.7
216.216
209.554
201.926
196.353
190.066
185.24
180.623
176.56
173.16
169.607
167.162
164.463
162.985
160.809
160.085
158.327
158.209
156.817
156.994
155.993
156.176
155.805
155.763
156.031
155.657
156.093
155.897
156.201
156.651
156.385
157.015
156.892
157.503
157.496
158.078
158.139
158.546
159.016
159.108
159.684
159.935
160.439
160.75
161.251
161.586
162.08
162.425
162.928
163.411
163.957
164.468
165.012
165.517
166.051
166.575
167.124
167.68
168.243
168.797
169.357
169.907
170.457
170.995
171.531
172.052
172.562
173.037
173.488
173.921
174.368
174.83
175.309
175.783
176.218
176.646
177.006
177.374
177.75
178.13
178.521
178.909
179.31
179.688
180.083
180.418
180.76
181.088
181.402
181.703
181.987
182.253
182.509
182.764
183.02
183.274
183.53
183.784
184.04
184.296
184.559
184.823
185.095
185.357
185.623
185.85
186.079
186.283
186.478
186.673
186.853
187.036
187.212
187.393
187.562
187.73
187.904
188.082
188.266
188.454
188.645
188.843
189.04
189.233
189.41
189.579
189.734
189.882
190.026
190.166
190.314
190.461
190.608
190.759
190.909
191.052
191.189
191.332
191.477
191.623
191.771
191.922
192.078
192.236
192.381
192.529
192.649
192.772
192.89
193.009
193.132
193.26
193.392
193.531
193.665
193.802
193.941
194.078
194.212
194.342
194.475
194.609
194.752
194.871
194.994
195.118
195.244
195.371
195.497
195.624
195.754
195.887
196.022
196.159
196.297
196.437
196.578
196.725
196.853
196.983
197.117
197.241
197.365
197.49
197.615
197.742
197.872
198.005
198.14
198.278
198.412
198.545
198.734
358.668
356.462
353.936
351.527
349.839
348.854
348.359
348.194
348.194
348.307
348.495
348.701
348.899
349.085
349.259
349.421
349.571
349.713
349.843
349.962
350.065
350.142
350.173
350.149
350.017
349.758
349.221
348.388
346.992
345.067
342.285
338.752
334.192
328.685
322.079
314.431
305.965
296.976
287.16
277.03
265.791
256.365
245.462
235.834
224.775
216.623
207.776
200.125
192.15
185.556
179.565
174.372
169.883
165.562
162.4
159.022
157.191
154.165
153.273
151.05
150.857
149.05
149.395
148.028
148.764
147.683
148.567
147.748
148.717
148.228
149.122
149.129
149.45
150.076
149.758
150.629
150.909
150.932
151.732
151.571
152.291
152.271
152.921
152.84
153.267
153.656
153.685
154.217
154.289
154.725
154.867
155.281
155.394
155.759
155.935
156.306
156.581
156.974
157.297
157.687
158.018
158.406
158.782
159.205
159.639
160.094
160.566
161.051
161.545
162.047
162.557
163.072
163.591
164.094
164.586
165.056
165.535
166.038
166.562
167.103
167.655
168.164
168.655
169.083
169.514
169.951
170.394
170.849
171.304
171.775
172.227
172.7
173.116
173.542
173.949
174.348
174.73
175.094
175.439
175.772
176.103
176.431
176.756
177.081
177.401
177.718
178.035
178.358
178.683
179.014
179.339
179.667
179.953
180.243
180.505
180.759
181.012
181.251
181.492
181.728
181.967
182.197
182.416
182.64
182.868
183.099
183.33
183.565
183.803
184.041
184.276
184.496
184.707
184.904
185.094
185.277
185.459
185.647
185.836
186.024
186.214
186.403
186.586
186.758
186.933
187.11
187.286
187.462
187.64
187.824
188.011
188.188
188.365
188.517
188.672
188.82
188.968
189.12
189.275
189.434
189.599
189.759
189.919
190.079
190.237
190.392
190.542
190.695
190.85
191.013
191.158
191.301
191.447
191.594
191.743
191.888
192.035
192.183
192.333
192.485
192.637
192.789
192.942
193.099
193.262
193.405
193.551
193.702
193.843
193.983
194.124
194.264
194.406
194.549
194.696
194.845
194.996
195.14
195.285
195.49
358.122
355.669
353.186
351.09
349.705
348.911
348.564
348.473
348.516
348.656
348.858
349.067
349.266
349.453
349.626
349.785
349.928
350.056
350.163
350.241
350.278
350.255
350.135
349.902
349.421
348.672
347.387
345.578
342.9
339.442
334.878
329.319
322.623
314.836
306.046
296.297
285.734
275.481
264.122
253.091
240.49
230.823
219.59
210.456
200.414
192.142
184.695
177.643
171.8
165.615
161.4
156.751
153.969
150.41
148.684
145.997
145.321
142.987
143.386
141.726
142.365
141.101
142.175
141.191
142.462
141.727
143.141
142.644
144.107
143.823
145.169
144.932
146.009
146.513
146.632
147.762
147.581
148.352
149.218
149.048
149.852
149.798
150.489
150.366
150.894
151.148
151.27
151.795
151.769
152.214
152.273
152.635
152.595
152.911
152.96
153.253
153.352
153.628
153.743
153.997
154.117
154.331
154.499
154.732
154.94
155.19
155.459
155.744
156.04
156.352
156.685
157.028
157.38
157.739
158.091
158.441
158.831
159.26
159.723
160.212
160.729
161.217
161.687
162.118
162.543
162.977
163.421
163.885
164.351
164.84
165.318
165.822
166.281
166.751
167.204
167.655
168.091
168.51
168.914
169.307
169.696
170.081
170.464
170.844
171.218
171.586
171.956
172.33
172.707
173.09
173.468
173.849
174.188
174.533
174.847
175.155
175.464
175.756
176.053
176.345
176.639
176.927
177.197
177.47
177.744
178.02
178.294
178.571
178.847
179.123
179.399
179.659
179.913
180.151
180.383
180.607
180.831
181.059
181.288
181.517
181.747
181.974
182.197
182.404
182.614
182.821
183.026
183.231
183.439
183.651
183.866
184.075
184.282
184.467
184.654
184.833
185.011
185.192
185.376
185.562
185.754
185.941
186.126
186.307
186.487
186.663
186.835
187.01
187.186
187.368
187.541
187.706
187.874
188.044
188.214
188.382
188.548
188.715
188.884
189.054
189.221
189.389
189.557
189.73
189.909
190.069
190.232
190.399
190.56
190.716
190.874
191.03
191.187
191.345
191.506
191.669
191.834
191.991
192.148
192.37
357.69
355.02
352.63
350.795
349.642
349.018
348.774
348.736
348.812
348.968
349.172
349.376
349.566
349.742
349.901
350.042
350.161
350.255
350.312
350.316
350.24
350.055
349.67
349.05
347.949
346.36
343.918
340.686
336.318
330.934
324.296
316.462
307.562
297.718
286.953
275.738
263.31
252.356
239.834
228.691
215.901
206.234
195.402
186.986
178.578
171.104
165.227
159.16
154.963
149.942
147.119
143.284
141.806
138.987
138.381
136.546
135.841
135.735
135.977
135.361
136.658
135.806
137.483
136.835
138.672
138.136
140.14
139.793
141.646
141.437
143.103
142.813
144.372
144.099
145.25
146.39
146.104
147.123
147.816
147.728
148.669
148.555
149.378
149.294
149.975
149.95
150.374
150.915
150.886
151.368
151.385
151.769
151.663
151.994
152.007
152.296
152.323
152.558
152.576
152.805
152.812
152.975
153.029
153.167
153.228
153.353
153.486
153.623
153.758
153.901
154.056
154.216
154.366
154.531
154.65
154.792
154.987
155.226
155.502
155.799
156.13
156.458
156.78
157.069
157.374
157.69
158.025
158.39
158.764
159.176
159.582
160.026
160.451
160.89
161.322
161.759
162.19
162.611
163.026
163.431
163.838
164.241
164.648
165.051
165.45
165.845
166.243
166.645
167.053
167.467
167.878
168.294
168.672
169.056
169.41
169.761
170.115
170.452
170.795
171.136
171.476
171.812
172.129
172.446
172.76
173.077
173.389
173.702
174.013
174.323
174.636
174.933
175.228
175.502
175.775
176.039
176.302
176.568
176.835
177.102
177.371
177.635
177.896
178.138
178.382
178.619
178.853
179.086
179.321
179.561
179.804
180.044
180.28
180.499
180.718
180.928
181.137
181.347
181.559
181.773
181.991
182.205
182.415
182.618
182.82
183.018
183.213
183.409
183.608
183.809
184.01
184.198
184.389
184.582
184.774
184.963
185.15
185.337
185.526
185.713
185.896
186.082
186.265
186.455
186.65
186.828
187.009
187.193
187.373
187.547
187.722
187.894
188.067
188.241
188.417
188.595
188.773
188.944
189.114
189.355
357.263
354.479
352.214
350.602
349.647
349.153
348.984
348.978
349.078
349.243
349.44
349.63
349.801
349.956
350.088
350.196
350.272
350.307
350.282
350.168
349.905
349.426
348.563
347.261
345.171
342.323
338.323
333.286
326.934
319.386
310.587
300.558
289.526
278.234
265.774
253.681
239.912
228.535
215.333
204.623
192.626
183.449
174.053
166.621
160.068
154.183
149.59
144.842
141.443
137.689
135.823
133.164
132.635
130.855
131.485
130.465
130.856
131.225
130.59
131.956
132.865
132.107
134.246
133.687
135.996
135.489
137.835
137.549
139.719
139.523
141.475
141.175
143.017
142.863
144.285
145.235
145.173
146.497
146.711
147.2
148.269
148.111
149.063
149.02
149.763
149.671