/*--------------------------------*- C++ -*----------------------------------*\
| =========                 |                                                 |
| \\      /  F ield         | OpenFOAM: The Open Source CFD Toolbox           |
|  \\    /   O peration     | Version:  2312                                  |
|   \\  /    A nd           | Website:  www.openfoam.com                      |
|    \\/     M anipulation  |                                                 |
\*---------------------------------------------------------------------------*/
FoamFile
{
    version     2.0;
    format      ascii;
    arch        "LSB;label=32;scalar=64";
    class       volScalarField;
    location    "0.002";
    object      thermo:psiGasEff;
}
// * * * * * * * * * * * * * * * * * * * * * * * * * * * * * * * * * * * * * //

dimensions      [-2 4 2 0 0 0 0];

internalField   nonuniform List<scalar> 
48128
(
0.0086042
0.00860935
0.00866104
0.00872233
0.00873321
0.00875755
0.00878004
0.0088104
0.00884363
0.00886085
0.00877296
0.00879846
0.00878199
0.00886472
0.00899567
0.00913198
0.00923534
0.00930974
0.00935358
0.00936605
0.00934599
0.00930004
0.00922735
0.00912738
0.00899948
0.00884455
0.00866302
0.00844588
0.00820553
0.00794204
0.00765796
0.00735572
0.00704048
0.00671334
0.0063817
0.00604503
0.00570975
0.00537665
0.00505465
0.0047381
0.00443838
0.00414363
0.00387106
0.0036055
0.00336412
0.00312711
0.00291398
0.00270982
0.00252652
0.00235174
0.00219511
0.00204748
0.00191557
0.00179104
0.00167911
0.00157561
0.00148214
0.00139608
0.00131814
0.0012469
0.00118228
0.00112331
0.00106964
0.00102071
0.00097609
0.000935448
0.000898422
0.000864551
0.000833868
0.000805857
0.000780071
0.000757139
0.000735469
0.000716436
0.000698438
0.000682832
0.000668038
0.000655151
0.000642901
0.000631783
0.000621567
0.000611833
0.000603308
0.000594789
0.000587485
0.00058033
0.000574257
0.000568643
0.000564017
0.000559636
0.000555646
0.000551712
0.000548021
0.000544389
0.000541186
0.000538323
0.000536315
0.000534434
0.000532526
0.000530478
0.000528325
0.000526164
0.000524169
0.000522458
0.000520956
0.000519565
0.0005182
0.000516834
0.000515466
0.000514039
0.000512533
0.000510944
0.000509274
0.000507562
0.000505776
0.000504003
0.000502319
0.000501232
0.000500824
0.000500977
0.000501321
0.000500116
0.000499413
0.000497932
0.000495947
0.000494008
0.000492081
0.000490203
0.000488666
0.000487343
0.000486301
0.00048544
0.000484712
0.000484151
0.000483815
0.000483569
0.000483342
0.000483024
0.000482616
0.000482166
0.000481706
0.000481223
0.000480701
0.000480085
0.000479371
0.000478586
0.000477758
0.000476831
0.000476097
0.00047533
0.000474707
0.000474049
0.000473361
0.000472697
0.00047208
0.000471648
0.00047131
0.000471325
0.000471498
0.000471764
0.000472167
0.000472693
0.000472683
0.000472805
0.000472804
0.000472604
0.00047232
0.000471833
0.000471256
0.000470675
0.000470066
0.000469481
0.000469019
0.000468639
0.000468443
0.000468471
0.000468611
0.000468894
0.000469286
0.00046959
0.00046991
0.000470135
0.000470277
0.000470184
0.000469968
0.000469691
0.000469319
0.00046884
0.000468391
0.000467975
0.000467644
0.000467495
0.000467424
0.000467629
0.000467809
0.000468143
0.000468457
0.000468752
0.000469009
0.000469132
0.000469156
0.000469075
0.000468829
0.000468494
0.000468144
0.00046778
0.000467513
0.000467261
0.000467034
0.000467385
0.000467555
0.000467765
0.000468087
0.000468381
0.000468652
0.000468854
0.000468909
0.000468894
0.000468806
0.000468636
0.00046838
0.000468123
0.0004678
0.000467573
0.000467692
0.000467694
0.000467814
0.000468079
0.000468329
0.000468583
0.000468819
0.000469021
0.000469095
0.000469116
0.000469081
0.000468984
0.000468827
0.00046865
0.000468415
0.000468356
0.00864079
0.00862748
0.00866303
0.0087116
0.00871541
0.00873362
0.00874889
0.00875864
0.00873826
0.00868227
0.00859635
0.00862335
0.00864432
0.00873164
0.00882847
0.00890095
0.00899251
0.00906562
0.00911317
0.00913162
0.00912022
0.00908474
0.00902489
0.00893974
0.00882836
0.00868951
0.00852347
0.00833703
0.00811967
0.00787507
0.00761
0.00732246
0.00702236
0.00670824
0.00638801
0.00606143
0.00573559
0.00540916
0.00509115
0.00477759
0.00448075
0.00418789
0.0039155
0.00364924
0.00340595
0.00316759
0.00295206
0.00274486
0.00255802
0.0023802
0.00222001
0.00206897
0.00193317
0.0018055
0.00169037
0.00158347
0.00148624
0.00139724
0.00131665
0.00124303
0.00117607
0.00111491
0.00105918
0.00100833
0.000961959
0.000919703
0.000881148
0.000845956
0.000814069
0.000784948
0.000758031
0.000733996
0.00071138
0.000691412
0.000672617
0.000656192
0.000640691
0.00062705
0.000614121
0.000602311
0.000591436
0.000581147
0.000572016
0.000562952
0.000555109
0.000547465
0.00054089
0.000534828
0.000529705
0.000524813
0.000520308
0.000515865
0.000511693
0.000507609
0.000503929
0.000500645
0.000498168
0.000495783
0.000493393
0.000490885
0.000488302
0.000485732
0.000483344
0.00048124
0.00047934
0.000477551
0.000475799
0.000474059
0.000472325
0.000470554
0.00046872
0.000466823
0.000464861
0.000462875
0.000460828
0.000458809
0.000456888
0.000455512
0.000454763
0.000454505
0.00045445
0.000452975
0.000451961
0.00045028
0.000448189
0.000446142
0.00044416
0.000442231
0.000440616
0.000439196
0.000438031
0.000437027
0.000436143
0.000435401
0.000434849
0.000434374
0.000433914
0.000433378
0.000432759
0.000432114
0.000431479
0.000430843
0.000430177
0.000429457
0.000428645
0.000427766
0.000426835
0.000425821
0.000424976
0.0004241
0.000423347
0.000422568
0.000421767
0.000420991
0.000420258
0.000419688
0.000419215
0.000419056
0.000419033
0.000419103
0.000419304
0.000419575
0.000419415
0.000419384
0.000419214
0.000418916
0.000418521
0.000417968
0.000417337
0.000416708
0.000416059
0.00041543
0.000414935
0.000414502
0.000414257
0.000414213
0.000414269
0.000414458
0.000414732
0.00041493
0.000415131
0.000415258
0.000415312
0.000415154
0.000414907
0.000414602
0.000414223
0.000413754
0.000413321
0.000412924
0.000412603
0.000412451
0.000412363
0.000412511
0.000412665
0.000412936
0.000413199
0.000413436
0.00041364
0.000413724
0.000413722
0.00041363
0.000413396
0.000413087
0.000412774
0.000412457
0.000412229
0.000412024
0.00041185
0.000412169
0.000412333
0.000412529
0.000412818
0.000413087
0.000413332
0.000413518
0.000413573
0.000413569
0.000413504
0.000413373
0.000413167
0.000412973
0.000412721
0.000412564
0.00041271
0.000412748
0.000412893
0.000413153
0.000413402
0.000413649
0.00041388
0.00041408
0.000414166
0.000414208
0.0004142
0.000414141
0.000414034
0.000413909
0.000413743
0.000413762
0.00862375
0.00862504
0.00866049
0.00871271
0.00871891
0.00874231
0.00874918
0.00872415
0.00865996
0.00859423
0.00859116
0.00863456
0.00867031
0.00872204
0.00885113
0.00899691
0.00909362
0.00915846
0.00919974
0.00921435
0.00920196
0.00916739
0.00910906
0.00902542
0.0089146
0.00877724
0.00861113
0.0084189
0.00819942
0.00795512
0.00769059
0.00740359
0.00710336
0.00678773
0.00646533
0.00613584
0.00580723
0.00547751
0.00515586
0.00483791
0.00453634
0.00423803
0.00396027
0.00368834
0.00343967
0.00319595
0.00297538
0.00276363
0.00257262
0.0023906
0.00222663
0.00207211
0.00193331
0.00180268
0.00168518
0.00157687
0.00147884
0.0013884
0.00130619
0.00123105
0.00116275
0.00110039
0.00104359
0.000991802
0.00094462
0.000901687
0.00086254
0.000826863
0.000794503
0.000764932
0.000737764
0.000713452
0.000690636
0.000670489
0.000651558
0.000635024
0.00061946
0.000605766
0.000592759
0.000580916
0.000569943
0.000559686
0.000550528
0.00054145
0.000533649
0.000526008
0.000519462
0.00051345
0.000508367
0.000503483
0.000498981
0.000494524
0.000490345
0.000486253
0.000482551
0.000479282
0.000476798
0.000474386
0.000471968
0.000469435
0.000466832
0.000464246
0.000461842
0.000459717
0.000457789
0.000455969
0.000454187
0.00045242
0.000450655
0.000448862
0.000447009
0.000445092
0.000443115
0.000441111
0.00043905
0.000437007
0.000435083
0.000433669
0.000432858
0.000432482
0.000432308
0.000430832
0.000429728
0.000428044
0.00042597
0.000423906
0.000421947
0.000420045
0.00041844
0.000417016
0.000415839
0.000414811
0.000413904
0.000413139
0.00041254
0.000412008
0.000411489
0.000410897
0.000410224
0.000409524
0.000408836
0.000408151
0.000407444
0.000406689
0.000405856
0.000404965
0.000404032
0.000403022
0.000402166
0.000401281
0.000400513
0.000399711
0.000398892
0.000398096
0.000397341
0.000396742
0.000396235
0.000396023
0.000395937
0.000395946
0.000396076
0.000396269
0.000396075
0.00039598
0.000395761
0.000395433
0.000395007
0.00039444
0.000393795
0.000393152
0.00039249
0.00039185
0.00039134
0.00039089
0.000390618
0.000390542
0.00039056
0.000390701
0.000390935
0.000391093
0.000391244
0.000391334
0.000391334
0.00039116
0.000390904
0.000390586
0.0003902
0.000389734
0.000389299
0.000388909
0.000388587
0.000388431
0.000388328
0.000388446
0.000388589
0.00038883
0.000389066
0.000389275
0.000389456
0.000389521
0.000389506
0.000389404
0.000389175
0.000388872
0.000388567
0.000388262
0.000388041
0.000387854
0.000387696
0.000387982
0.000388158
0.000388347
0.000388619
0.000388877
0.000389109
0.000389282
0.000389335
0.000389333
0.000389274
0.000389154
0.000388963
0.00038879
0.00038857
0.000388431
0.000388579
0.00038864
0.000388791
0.000389051
0.000389302
0.000389547
0.000389776
0.000389973
0.000390063
0.000390111
0.000390113
0.000390066
0.000389974
0.000389868
0.000389725
0.000389766
0.00862181
0.00864152
0.00867157
0.00872326
0.00873003
0.00874109
0.00871132
0.00861493
0.0085579
0.00856267
0.00859931
0.00865092
0.00872952
0.00885258
0.00895281
0.00905648
0.00914328
0.00920613
0.00924786
0.00926388
0.00925458
0.00922342
0.00916874
0.00908809
0.00898137
0.00884806
0.00868662
0.00849821
0.00828244
0.00804089
0.00777754
0.00749116
0.00719093
0.00687389
0.00655035
0.00621803
0.00588773
0.00555341
0.00522757
0.00490405
0.004598
0.00429376
0.00401073
0.00373268
0.00347884
0.0032295
0.00300363
0.00278666
0.00259076
0.00240364
0.0022355
0.00207686
0.0019347
0.00180047
0.00168008
0.00156901
0.00146849
0.0013759
0.00129202
0.0012155
0.00114602
0.00108266
0.00102498
0.000972462
0.000924701
0.000881324
0.000841863
0.00080597
0.000773551
0.000743817
0.000716722
0.000692347
0.000669561
0.000649436
0.000630565
0.000614177
0.000598754
0.000585236
0.000572339
0.000560671
0.000549749
0.00053972
0.000530684
0.000521737
0.00051409
0.000506573
0.000500175
0.000494355
0.000489448
0.000484698
0.000480325
0.000475968
0.000471902
0.000467917
0.000464323
0.00046119
0.000458823
0.000456508
0.000454176
0.000451736
0.000449237
0.000446757
0.000444458
0.000442425
0.000440581
0.00043884
0.000437136
0.000435447
0.000433756
0.000432041
0.000430278
0.000428449
0.000426563
0.000424642
0.00042267
0.000420701
0.000418881
0.00041753
0.000416759
0.000416342
0.000416127
0.000414758
0.000413636
0.000412028
0.000410046
0.000408039
0.000406164
0.00040435
0.000402812
0.000401439
0.00040031
0.000399314
0.000398445
0.000397721
0.000397137
0.00039661
0.000396094
0.000395508
0.000394845
0.000394152
0.000393469
0.000392789
0.00039209
0.000391344
0.000390531
0.000389664
0.000388763
0.000387793
0.000386965
0.000386108
0.000385363
0.000384579
0.000383783
0.000383007
0.000382269
0.000381682
0.000381183
0.000380964
0.000380857
0.000380849
0.000380948
0.000381119
0.00038093
0.000380809
0.000380585
0.000380262
0.000379842
0.000379287
0.000378656
0.000378026
0.000377371
0.000376745
0.000376244
0.000375798
0.000375522
0.000375436
0.000375438
0.000375557
0.000375773
0.000375917
0.000376051
0.000376123
0.000376105
0.000375925
0.000375673
0.000375357
0.000374974
0.000374522
0.000374093
0.000373713
0.000373397
0.000373245
0.000373136
0.000373242
0.000373378
0.000373601
0.000373823
0.000374019
0.000374189
0.000374243
0.000374224
0.000374121
0.000373898
0.000373603
0.000373305
0.000373009
0.000372793
0.00037262
0.000372472
0.000372727
0.000372917
0.000373106
0.000373365
0.000373619
0.000373844
0.00037401
0.000374062
0.000374062
0.000374008
0.000373895
0.000373715
0.000373552
0.000373359
0.000373226
0.000373369
0.00037345
0.000373606
0.000373863
0.000374116
0.000374362
0.000374588
0.000374785
0.000374878
0.000374931
0.000374939
0.0003749
0.000374818
0.000374721
0.000374592
0.000374642
0.00861201
0.00865681
0.0086803
0.00873123
0.00872579
0.00871005
0.00861516
0.00854807
0.00853797
0.00858276
0.00863871
0.00873482
0.00881636
0.00893388
0.00903149
0.00913195
0.00921072
0.00926897
0.00930763
0.00932305
0.00931492
0.00928546
0.00923291
0.0091553
0.00905219
0.00892213
0.00876439
0.00857886
0.00836551
0.00812518
0.00786257
0.00757574
0.00727489
0.00695516
0.00662942
0.00629258
0.00595934
0.0056189
0.00528803
0.00495728
0.00464654
0.00433482
0.00404586
0.0037607
0.00350064
0.00324405
0.00301154
0.00278907
0.00258882
0.00239646
0.00222438
0.00206158
0.00191673
0.00177925
0.00165669
0.00154335
0.00144126
0.00134716
0.00126231
0.00118503
0.00111508
0.00105129
0.000993497
0.000940864
0.000893229
0.000850152
0.000811013
0.000775555
0.000743729
0.000714459
0.000688046
0.000664092
0.000641817
0.000622149
0.000603736
0.00058792
0.000573007
0.000560023
0.000547559
0.000536389
0.000525809
0.000516314
0.000507663
0.000499117
0.000491899
0.000484736
0.000478732
0.000473316
0.000468773
0.000464334
0.000460255
0.000456154
0.000452373
0.000448655
0.000445342
0.0004425
0.000440375
0.000438275
0.000436144
0.000433915
0.000431639
0.000429389
0.000427308
0.000425471
0.000423807
0.000422237
0.000420702
0.000419178
0.000417643
0.000416087
0.000414485
0.000412815
0.00041109
0.000409318
0.000407502
0.000405678
0.00040404
0.000402819
0.000402148
0.000401727
0.000401504
0.000400312
0.000399212
0.000397729
0.000395893
0.000394004
0.000392255
0.000390573
0.000389145
0.000387865
0.000386822
0.000385896
0.000385108
0.000384467
0.000383937
0.000383449
0.000382974
0.000382431
0.000381817
0.000381172
0.00038053
0.000379889
0.000379229
0.000378523
0.000377756
0.000376939
0.000376096
0.000375193
0.000374417
0.000373612
0.000372915
0.000372166
0.000371425
0.000370693
0.000369997
0.000369449
0.000368983
0.000368782
0.00036868
0.000368676
0.000368764
0.000368938
0.000368779
0.00036865
0.000368442
0.000368142
0.000367747
0.000367227
0.000366629
0.000366028
0.000365397
0.000364804
0.000364327
0.000363901
0.000363637
0.000363555
0.000363558
0.000363668
0.000363878
0.000364024
0.000364159
0.000364225
0.000364207
0.000364038
0.000363798
0.000363488
0.000363117
0.000362687
0.000362277
0.000361916
0.000361614
0.000361471
0.000361368
0.000361474
0.000361606
0.000361819
0.000362036
0.000362226
0.000362393
0.00036244
0.000362424
0.000362328
0.000362118
0.000361833
0.000361545
0.000361262
0.000361055
0.000360897
0.00036076
0.00036099
0.000361194
0.000361389
0.000361639
0.000361891
0.000362113
0.000362275
0.00036233
0.000362335
0.000362286
0.000362181
0.000362014
0.000361859
0.000361691
0.000361565
0.000361699
0.000361801
0.000361961
0.000362215
0.000362473
0.00036272
0.000362947
0.000363145
0.000363242
0.000363301
0.000363315
0.000363284
0.00036321
0.000363123
0.000363005
0.000363063
0.00859912
0.00865332
0.00867596
0.00872494
0.00869902
0.00862546
0.0085521
0.0085267
0.00855955
0.00862165
0.00870695
0.00880066
0.00890185
0.00901539
0.00910932
0.00920095
0.00927386
0.00932875
0.00936519
0.00938059
0.00937382
0.00934592
0.00929601
0.00922134
0.0091224
0.00899573
0.00884162
0.00865819
0.0084472
0.00820732
0.00794501
0.00765684
0.00735508
0.00703143
0.00670279
0.00635994
0.00602318
0.00567479
0.00533789
0.00499767
0.0046814
0.00435943
0.00406219
0.00376937
0.0035037
0.00323888
0.00299897
0.00276962
0.00256408
0.00236571
0.0021898
0.00202285
0.00187547
0.00173456
0.00161101
0.00149605
0.00139333
0.00129802
0.00121356
0.00113604
0.00106692
0.00100319
0.000946343
0.000894444
0.000847817
0.000805898
0.000767822
0.000733629
0.00070312
0.000675026
0.000649976
0.000627045
0.000605867
0.000587216
0.000569815
0.000555093
0.000541163
0.000529157
0.000517543
0.000507271
0.000497408
0.000488833
0.000480926
0.000473122
0.000466612
0.000459983
0.000454613
0.000449797
0.000445783
0.000441811
0.000438183
0.000434475
0.000431132
0.000427803
0.000424923
0.000422497
0.000420704
0.000418889
0.000417033
0.000415096
0.000413143
0.000411231
0.000409463
0.000407902
0.000406489
0.000405155
0.000403854
0.000402559
0.000401242
0.000399905
0.000398527
0.000397082
0.000395581
0.000394024
0.000392413
0.000390813
0.000389434
0.000388406
0.000387883
0.00038749
0.000387268
0.000386299
0.000385259
0.000383937
0.00038231
0.000380597
0.000379018
0.00037751
0.000376225
0.000375066
0.00037414
0.000373311
0.000372637
0.000372112
0.000371664
0.000371242
0.000370833
0.00037036
0.000369828
0.000369259
0.000368689
0.00036811
0.000367513
0.000366872
0.000366174
0.000365429
0.000364663
0.00036385
0.000363147
0.000362414
0.000361782
0.000361084
0.000360418
0.000359752
0.000359122
0.000358635
0.000358222
0.000358056
0.000357974
0.000357992
0.000358082
0.000358272
0.000358161
0.00035804
0.000357861
0.000357597
0.000357242
0.000356769
0.000356222
0.000355662
0.000355072
0.000354532
0.000354089
0.0003537
0.00035346
0.000353391
0.000353408
0.000353519
0.000353732
0.000353894
0.00035404
0.000354112
0.000354106
0.000353964
0.000353741
0.000353444
0.000353094
0.000352695
0.000352317
0.000351981
0.000351703
0.000351574
0.000351489
0.000351605
0.000351736
0.00035195
0.000352165
0.000352359
0.000352527
0.000352574
0.000352568
0.000352487
0.000352294
0.000352025
0.000351754
0.000351488
0.000351293
0.000351155
0.000351034
0.000351242
0.000351461
0.000351668
0.000351915
0.000352168
0.000352391
0.000352553
0.000352614
0.000352627
0.000352585
0.000352491
0.00035234
0.000352195
0.000352053
0.000351935
0.00035206
0.000352185
0.000352353
0.000352604
0.000352867
0.000353119
0.000353348
0.000353548
0.000353652
0.000353719
0.00035374
0.000353718
0.000353654
0.000353578
0.000353473
0.000353539
0.00857477
0.00863949
0.00865637
0.00869777
0.00862893
0.00856176
0.0085239
0.00854116
0.00859623
0.00867646
0.00876746
0.00887686
0.00898271
0.00909003
0.00918159
0.00926645
0.0093349
0.0093869
0.00942136
0.00943671
0.00943138
0.00940477
0.00935821
0.009287
0.00919193
0.00906815
0.00891724
0.00873537
0.00852633
0.00828566
0.00802337
0.0077324
0.00742894
0.00709961
0.00676706
0.0064152
0.00607341
0.0057144
0.00537092
0.00501994
0.00469437
0.00435987
0.00405273
0.00375019
0.00347712
0.0032024
0.00295503
0.00271846
0.00250722
0.00230292
0.0021239
0.00195356
0.00180446
0.00165932
0.0015367
0.00142163
0.00132052
0.00122421
0.00114241
0.0010657
0.000998913
0.000936681
0.000881964
0.000831669
0.000787088
0.00074731
0.000711134
0.000679161
0.000650658
0.000624385
0.000601366
0.000580079
0.0005607
0.000543653
0.000527884
0.000514823
0.000502386
0.00049179
0.000481492
0.000472499
0.000463772
0.000456477
0.000449624
0.00044293
0.000437408
0.000431579
0.000427128
0.000423159
0.000419864
0.000416556
0.000413593
0.000410499
0.000407809
0.000405018
0.000402732
0.00040086
0.000399476
0.000398013
0.000396522
0.000394963
0.000393432
0.000391957
0.000390587
0.000389374
0.000388269
0.000387225
0.000386215
0.000385203
0.000384158
0.000383091
0.000381987
0.000380815
0.000379587
0.0003783
0.000376928
0.000375631
0.000374577
0.000373796
0.000373448
0.000373096
0.0003729
0.000372149
0.000371227
0.000370105
0.00036872
0.000367238
0.000365866
0.000364565
0.00036345
0.000362442
0.000361657
0.000360952
0.000360428
0.000360044
0.000359698
0.00035937
0.000359049
0.00035867
0.000358248
0.000357784
0.000357308
0.000356816
0.000356303
0.000355745
0.000355137
0.000354483
0.000353814
0.000353111
0.000352495
0.000351852
0.000351301
0.00035067
0.000350094
0.000349515
0.000348971
0.000348564
0.00034822
0.000348103
0.000348057
0.000348111
0.000348208
0.000348427
0.00034839
0.000348282
0.000348144
0.000347925
0.000347628
0.000347208
0.000346725
0.000346222
0.000345686
0.000345219
0.000344813
0.000344484
0.000344275
0.000344229
0.000344271
0.0003444
0.000344616
0.000344803
0.000344971
0.000345062
0.000345076
0.000344967
0.000344769
0.000344497
0.000344179
0.000343819
0.000343481
0.00034318
0.000342935
0.000342831
0.000342769
0.000342905
0.000343041
0.000343259
0.000343478
0.000343683
0.00034386
0.000343915
0.000343924
0.000343864
0.000343696
0.000343448
0.0003432
0.000342958
0.000342781
0.000342667
0.000342567
0.00034276
0.000342994
0.000343217
0.000343467
0.000343723
0.000343951
0.000344118
0.00034419
0.000344214
0.000344184
0.000344103
0.000343971
0.000343839
0.000343728
0.00034362
0.000343739
0.000343886
0.000344065
0.000344316
0.000344586
0.000344845
0.000345078
0.000345284
0.000345396
0.000345473
0.000345505
0.000345493
0.000345441
0.000345378
0.000345288
0.000345366
0.00853259
0.00861826
0.00861201
0.00862592
0.0085647
0.00852204
0.00852537
0.0085681
0.00863867
0.00872716
0.00883464
0.00894845
0.00905557
0.0091574
0.00924687
0.00932648
0.00939147
0.00944113
0.00947414
0.00948969
0.00948626
0.00946159
0.00941871
0.00935053
0.00925908
0.00913763
0.00898966
0.00880841
0.0086008
0.00835806
0.00809504
0.00779943
0.00749234
0.00715392
0.00681747
0.00645609
0.00610598
0.00573061
0.00537661
0.00501313
0.00467605
0.00432639
0.00400705
0.0036919
0.00340812
0.00312212
0.00286909
0.00262756
0.00241252
0.00220201
0.00202309
0.00185117
0.00170393
0.00155412
0.00143506
0.00132253
0.00122481
0.00113041
0.00105227
0.000978975
0.000915519
0.000856415
0.000804673
0.000757368
0.000715664
0.0006791
0.000645573
0.00061668
0.000590636
0.000566734
0.000546195
0.000526806
0.00050974
0.000494479
0.000480698
0.000469511
0.000458822
0.000449745
0.000441021
0.000433428
0.000426035
0.000420198
0.000414435
0.000409071
0.000404697
0.000399835
0.000396658
0.000393524
0.000391148
0.000388628
0.000386546
0.000384174
0.000382365
0.000380233
0.000378778
0.000377518
0.000376653
0.000375586
0.000374648
0.000373548
0.000372574
0.000371601
0.000370701
0.000369893
0.000369147
0.000368442
0.000367773
0.00036709
0.000366351
0.000365585
0.000364803
0.000363939
0.00036302
0.000362037
0.000360948
0.000360014
0.000359357
0.00035886
0.000358679
0.000358373
0.000358253
0.000357714
0.000356924
0.000356024
0.000354914
0.000353709
0.000352593
0.00035151
0.000350608
0.00034975
0.000349143
0.000348566
0.000348236
0.000347996
0.000347767
0.00034755
0.000347334
0.000347067
0.000346771
0.000346438
0.000346076
0.000345686
0.000345274
0.000344812
0.000344316
0.000343761
0.000343208
0.000342635
0.000342123
0.000341585
0.000341125
0.000340574
0.000340108
0.000339617
0.000339194
0.000338882
0.000338618
0.00033856
0.000338564
0.000338666
0.000338796
0.000339029
0.000339073
0.000339005
0.000338918
0.000338747
0.000338506
0.000338162
0.000337753
0.000337323
0.00033686
0.00033647
0.000336115
0.000335853
0.000335686
0.000335665
0.000335768
0.000335896
0.000336133
0.000336347
0.000336547
0.000336669
0.000336706
0.000336635
0.000336474
0.000336239
0.000335961
0.000335647
0.000335358
0.0003351
0.000334898
0.000334817
0.000334802
0.000334949
0.000335104
0.000335328
0.000335563
0.000335782
0.000335971
0.000336041
0.000336072
0.000336036
0.000335902
0.000335682
0.000335463
0.00033525
0.000335098
0.000335017
0.000334938
0.000335125
0.000335373
0.000335615
0.000335874
0.000336137
0.000336373
0.000336549
0.000336636
0.000336676
0.000336661
0.000336598
0.000336489
0.000336373
0.000336295
0.000336204
0.000336318
0.000336489
0.000336681
0.000336935
0.000337213
0.000337482
0.000337722
0.000337935
0.000338059
0.000338148
0.000338193
0.000338193
0.000338157
0.00033811
0.000338037
0.00033813
0.00848801
0.00858824
0.0085524
0.00855074
0.00851161
0.00850722
0.00853749
0.00859742
0.00867899
0.00878344
0.0088979
0.00901294
0.00911912
0.00921714
0.00930403
0.00938002
0.00944244
0.00949023
0.00952248
0.00953899
0.00953814
0.00951518
0.00947572
0.00941027
0.0093222
0.00920231
0.00905679
0.00887471
0.00866807
0.00842099
0.00815452
0.00785296
0.00754407
0.00719313
0.00684652
0.00646994
0.00610771
0.00571374
0.00534337
0.00496127
0.00460949
0.00424368
0.00391205
0.00358626
0.00329232
0.00299248
0.00273969
0.00249739
0.0022822
0.00206345
0.00189004
0.00172
0.0015786
0.00142987
0.00131521
0.0012066
0.0011153
0.00102641
0.000953017
0.00088475
0.000826127
0.000771617
0.000723909
0.000680769
0.000642525
0.00060997
0.00057961
0.000554419
0.000530965
0.000510095
0.000492029
0.000474728
0.000460119
0.000446386
0.000434734
0.000425091
0.000415975
0.00040821
0.000400823
0.00039455
0.000388168
0.000383928
0.000378843
0.000374507
0.000371312
0.000367198
0.000365308
0.000362822
0.000361333
0.000359425
0.000358256
0.000356516
0.00035561
0.000354107
0.000353601
0.000352997
0.000352642
0.000352008
0.000351679
0.000351111
0.000350752
0.000350339
0.000349971
0.000349616
0.000349281
0.000348974
0.000348691
0.000348366
0.000347965
0.000347517
0.000347079
0.000346548
0.000345971
0.000345313
0.000344564
0.000344025
0.000343801
0.000343618
0.000343563
0.000343352
0.000343329
0.000342965
0.000342301
0.000341661
0.00034086
0.00033998
0.000339137
0.000338295
0.000337619
0.000336934
0.000336521
0.000336084
0.000335955
0.000335864
0.000335763
0.00033568
0.000335563
0.000335427
0.000335275
0.000335084
0.000334853
0.000334579
0.000334277
0.000333931
0.000333544
0.000333108
0.000332687
0.000332253
0.000331866
0.000331441
0.00033108
0.000330626
0.000330272
0.000329893
0.000329593
0.000329386
0.000329221
0.000329232
0.000329299
0.000329459
0.000329623
0.000329889
0.00032999
0.00032999
0.000329953
0.000329852
0.000329673
0.000329412
0.00032909
0.000328744
0.000328364
0.00032806
0.000327771
0.000327582
0.000327464
0.000327489
0.000327634
0.000327784
0.000328043
0.000328293
0.000328531
0.000328682
0.000328751
0.000328732
0.000328623
0.000328423
0.000328194
0.000327936
0.000327703
0.000327493
0.000327336
0.000327303
0.000327322
0.000327492
0.000327672
0.000327909
0.000328162
0.0003284
0.000328605
0.000328698
0.000328755
0.000328749
0.000328653
0.000328471
0.000328284
0.000328107
0.000327986
0.000327943
0.000327887
0.000328076
0.00032834
0.000328603
0.000328876
0.000329149
0.000329396
0.000329585
0.000329691
0.000329751
0.000329756
0.000329712
0.000329631
0.000329537
0.000329494
0.000329425
0.000329535
0.000329731
0.000329939
0.000330201
0.000330488
0.000330768
0.000331018
0.000331242
0.00033138
0.000331483
0.000331543
0.000331559
0.000331541
0.000331513
0.00033146
0.000331572
0.00844332
0.00853843
0.00849911
0.00848784
0.0084807
0.0085036
0.00855368
0.00862768
0.00872053
0.00883676
0.00895455
0.00906902
0.0091733
0.00926847
0.009353
0.00942626
0.00948676
0.00953351
0.0095662
0.0095838
0.00958523
0.00956423
0.00952787
0.00946459
0.00937963
0.00925989
0.00911594
0.00893084
0.00872277
0.00847152
0.00820363
0.00788959
0.00757265
0.00720324
0.00684043
0.0064416
0.00606117
0.00564502
0.00525662
0.00485629
0.00448665
0.00410392
0.00376357
0.00343011
0.0031331
0.00281616
0.00257095
0.00233559
0.00212509
0.00190338
0.00173827
0.00157359
0.00144188
0.00130144
0.00119216
0.00108822
0.00100556
0.000926376
0.000859632
0.000797929
0.000745345
0.000696479
0.000653199
0.000614521
0.000580733
0.000551704
0.000524948
0.000502976
0.000481882
0.000463963
0.00044761
0.000432264
0.000419484
0.000407017
0.000396584
0.000388555
0.000380053
0.000373745
0.00036681
0.000361762
0.000355794
0.000352542
0.000347512
0.000344218
0.000341492
0.000337866
0.000336983
0.000334711
0.000333666
0.000332185
0.000331426
0.000330248
0.00032976
0.00032887
0.000329016
0.000328875
0.000328793
0.000328492
0.000328591
0.000328478
0.000328677
0.000328794
0.000328931
0.00032903
0.000329097
0.00032919
0.000329283
0.000329323
0.000329276
0.000329182
0.000329076
0.000328904
0.000328664
0.000328345
0.000327965
0.000327871
0.000328047
0.00032817
0.000328245
0.000328152
0.000328183
0.000327982
0.000327458
0.000327128
0.000326676
0.000326106
0.000325543
0.000324972
0.000324508
0.000324037
0.000323781
0.000323515
0.000323598
0.000323651
0.000323694
0.000323727
0.00032374
0.000323738
0.00032373
0.000323687
0.000323596
0.000323453
0.000323272
0.000323041
0.000322781
0.000322479
0.000322198
0.000321907
0.000321641
0.000321346
0.000321086
0.000320737
0.000320504
0.000320255
0.000320083
0.000319991
0.000319926
0.000320025
0.000320164
0.000320373
0.000320588
0.000320876
0.000321054
0.000321125
0.000321149
0.000321112
0.000321012
0.000320848
0.000320614
0.000320357
0.000320074
0.000319856
0.000319651
0.00031953
0.000319479
0.00031956
0.00031974
0.000319928
0.000320206
0.000320497
0.000320776
0.00032096
0.000321073
0.000321108
0.000321049
0.000320908
0.000320729
0.000320531
0.000320361
0.000320204
0.000320111
0.000320119
0.000320179
0.000320376
0.000320587
0.000320841
0.000321117
0.000321375
0.0003216
0.000321723
0.00032181
0.000321837
0.000321781
0.000321647
0.000321499
0.000321362
0.000321284
0.000321277
0.000321251
0.000321446
0.000321725
0.000322012
0.000322304
0.000322589
0.00032285
0.000323056
0.000323185
0.000323269
0.000323296
0.000323277
0.000323227
0.000323159
0.000323153
0.000323113
0.000323221
0.000323444
0.00032367
0.000323941
0.00032424
0.000324533
0.000324795
0.000325031
0.000325186
0.000325307
0.000325384
0.000325418
0.000325422
0.000325415
0.000325385
0.000325519
0.00840258
0.0084945
0.00844624
0.00844273
0.0084611
0.00850471
0.0085725
0.00865467
0.00876338
0.0088836
0.00900371
0.00911599
0.00921823
0.00931103
0.00939347
0.00946477
0.00952416
0.00957084
0.00960456
0.00962255
0.00962628
0.00960751
0.00957388
0.00951172
0.00942924
0.00930749
0.00916294
0.00897504
0.00876727
0.00850514
0.00822981
0.00789423
0.00756001
0.00716578
0.00678187
0.00635787
0.00595498
0.00551501
0.00510745
0.00469379
0.00430734
0.00390255
0.00356894
0.00323262
0.00294468
0.00261753
0.00237923
0.0021502
0.00195644
0.00174427
0.00158879
0.00143178
0.00131259
0.00118661
0.00108576
0.000988298
0.000914595
0.000845361
0.000785936
0.000730692
0.000683367
0.000639455
0.000601088
0.000567028
0.000536491
0.000510621
0.000486562
0.000467
0.000448043
0.000431365
0.000416461
0.000402115
0.00039099
0.000379669
0.000369967
0.000362408
0.000353795
0.000348564
0.000341835
0.00033736
0.000331649
0.000328566
0.000323605
0.000320954
0.000318034
0.00031481
0.000314204
0.000311968
0.000310832
0.000309401
0.000308685
0.000307639
0.000307387
0.000306737
0.000307118
0.000307151
0.00030714
0.000306895
0.000307168
0.000307262
0.000307809
0.000308266