/*--------------------------------*- C++ -*----------------------------------*\
| =========                 |                                                 |
| \\      /  F ield         | OpenFOAM: The Open Source CFD Toolbox           |
|  \\    /   O peration     | Version:  2312                                  |
|   \\  /    A nd           | Website:  www.openfoam.com                      |
|    \\/     M anipulation  |                                                 |
\*---------------------------------------------------------------------------*/
FoamFile
{
    version     2.0;
    format      ascii;
    arch        "LSB;label=32;scalar=64";
    class       volScalarField;
    location    "0.002";
    object      thermo:psiLiqEff;
}
// * * * * * * * * * * * * * * * * * * * * * * * * * * * * * * * * * * * * * //

dimensions      [-2 4 2 0 0 0 0];

internalField   nonuniform List<scalar> 
48128
(
3.98989e-13
3.98714e-13
3.98936e-13
3.98869e-13
3.98655e-13
3.9843e-13
3.98086e-13
3.97871e-13
3.98269e-13
4.00021e-13
4.05567e-13
4.08262e-13
4.09687e-13
4.1087e-13
4.11959e-13
4.13807e-13
4.15431e-13
4.16975e-13
4.18431e-13
4.19783e-13
4.2099e-13
4.22165e-13
4.23285e-13
4.24323e-13
4.25261e-13
4.26087e-13
4.26782e-13
4.27305e-13
4.2765e-13
4.27839e-13
4.27899e-13
4.27745e-13
4.27395e-13
4.26892e-13
4.26232e-13
4.25431e-13
4.24497e-13
4.23449e-13
4.22364e-13
4.21187e-13
4.20014e-13
4.18786e-13
4.17566e-13
4.16394e-13
4.1524e-13
4.14161e-13
4.1313e-13
4.12214e-13
4.11435e-13
4.10749e-13
4.10207e-13
4.09756e-13
4.09499e-13
4.09348e-13
4.09377e-13
4.0954e-13
4.09848e-13
4.10294e-13
4.1087e-13
4.11572e-13
4.12387e-13
4.13304e-13
4.14318e-13
4.15421e-13
4.16621e-13
4.17915e-13
4.19284e-13
4.20732e-13
4.22239e-13
4.238e-13
4.25447e-13
4.27122e-13
4.2887e-13
4.3062e-13
4.32444e-13
4.34268e-13
4.36146e-13
4.38027e-13
4.39887e-13
4.41732e-13
4.43542e-13
4.45335e-13
4.47133e-13
4.48845e-13
4.5056e-13
4.52255e-13
4.53938e-13
4.55641e-13
4.57357e-13
4.58996e-13
4.60616e-13
4.62118e-13
4.63572e-13
4.64967e-13
4.66316e-13
4.67689e-13
4.69092e-13
4.70416e-13
4.71682e-13
4.72847e-13
4.73921e-13
4.74951e-13
4.75958e-13
4.76962e-13
4.77941e-13
4.78883e-13
4.7978e-13
4.80633e-13
4.81434e-13
4.82193e-13
4.82895e-13
4.83546e-13
4.84153e-13
4.84711e-13
4.85238e-13
4.85704e-13
4.86188e-13
4.86704e-13
4.87251e-13
4.8785e-13
4.88552e-13
4.88795e-13
4.89201e-13
4.89345e-13
4.8942e-13
4.8955e-13
4.89718e-13
4.89919e-13
4.90152e-13
4.90411e-13
4.90692e-13
4.90984e-13
4.91284e-13
4.91581e-13
4.91885e-13
4.92153e-13
4.9241e-13
4.92622e-13
4.92773e-13
4.9289e-13
4.93002e-13
4.93103e-13
4.9319e-13
4.93268e-13
4.93317e-13
4.9334e-13
4.93349e-13
4.93337e-13
4.93338e-13
4.93337e-13
4.93339e-13
4.93329e-13
4.93306e-13
4.93276e-13
4.93254e-13
4.93228e-13
4.93232e-13
4.93247e-13
4.93281e-13
4.93317e-13
4.93375e-13
4.9339e-13
4.93354e-13
4.93316e-13
4.93261e-13
4.93168e-13
4.93064e-13
4.9293e-13
4.92786e-13
4.9265e-13
4.92517e-13
4.92382e-13
4.92288e-13
4.92191e-13
4.92156e-13
4.92118e-13
4.9212e-13
4.92133e-13
4.92155e-13
4.92148e-13
4.92129e-13
4.9209e-13
4.92031e-13
4.91933e-13
4.91811e-13
4.91681e-13
4.91541e-13
4.91389e-13
4.91251e-13
4.91136e-13
4.91039e-13
4.9098e-13
4.90906e-13
4.90908e-13
4.90885e-13
4.9089e-13
4.90875e-13
4.90845e-13
4.90795e-13
4.90726e-13
4.90638e-13
4.90529e-13
4.90395e-13
4.90249e-13
4.90109e-13
4.89977e-13
4.89865e-13
4.89766e-13
4.89645e-13
4.89658e-13
4.89634e-13
4.89595e-13
4.89574e-13
4.89537e-13
4.89485e-13
4.89415e-13
4.89327e-13
4.89223e-13
4.89109e-13
4.88986e-13
4.8885e-13
4.88736e-13
4.88619e-13
4.88512e-13
4.8848e-13
4.88434e-13
4.88381e-13
4.88372e-13
4.88347e-13
4.8831e-13
4.8826e-13
4.88194e-13
4.88112e-13
4.88014e-13
4.87906e-13
4.87788e-13
4.87662e-13
4.87532e-13
4.8741e-13
4.87259e-13
3.99754e-13
3.99305e-13
3.99394e-13
3.99282e-13
3.98962e-13
3.98563e-13
3.98039e-13
3.98151e-13
4.00082e-13
4.03858e-13
4.08038e-13
4.10935e-13
4.13356e-13
4.16134e-13
4.18941e-13
4.2127e-13
4.23346e-13
4.25167e-13
4.26731e-13
4.28061e-13
4.29147e-13
4.30099e-13
4.30923e-13
4.3159e-13
4.3209e-13
4.32411e-13
4.32553e-13
4.32576e-13
4.32354e-13
4.31946e-13
4.31358e-13
4.30566e-13
4.29626e-13
4.28537e-13
4.27333e-13
4.26019e-13
4.24636e-13
4.23175e-13
4.217e-13
4.20229e-13
4.18787e-13
4.1739e-13
4.16049e-13
4.14821e-13
4.13706e-13
4.12711e-13
4.1184e-13
4.11129e-13
4.10619e-13
4.10262e-13
4.10119e-13
4.10141e-13
4.10385e-13
4.10779e-13
4.11386e-13
4.12178e-13
4.13148e-13
4.14308e-13
4.15641e-13
4.17143e-13
4.1879e-13
4.20573e-13
4.22482e-13
4.24509e-13
4.26655e-13
4.2891e-13
4.31259e-13
4.3372e-13
4.36249e-13
4.38825e-13
4.41468e-13
4.44098e-13
4.46799e-13
4.49473e-13
4.52224e-13
4.54965e-13
4.57759e-13
4.60531e-13
4.63276e-13
4.65988e-13
4.6864e-13
4.71283e-13
4.73893e-13
4.76424e-13
4.78929e-13
4.81397e-13
4.83848e-13
4.86313e-13
4.8878e-13
4.91177e-13
4.93541e-13
4.95778e-13
4.97949e-13
5.00044e-13
5.02094e-13
5.04148e-13
5.06252e-13
5.08267e-13
5.10209e-13
5.1204e-13
5.13757e-13
5.1542e-13
5.17051e-13
5.18672e-13
5.20259e-13
5.21801e-13
5.23286e-13
5.24714e-13
5.26083e-13
5.27397e-13
5.28648e-13
5.29835e-13
5.30968e-13
5.32041e-13
5.33076e-13
5.34031e-13
5.35002e-13
5.36007e-13
5.37045e-13
5.38141e-13
5.39372e-13
5.40058e-13
5.40906e-13
5.4149e-13
5.41908e-13
5.42365e-13
5.42843e-13
5.43345e-13
5.43876e-13
5.44435e-13
5.45018e-13
5.45618e-13
5.4623e-13
5.46854e-13
5.47492e-13
5.48101e-13
5.487e-13
5.49247e-13
5.49726e-13
5.5015e-13
5.5055e-13
5.50918e-13
5.51264e-13
5.51566e-13
5.51842e-13
5.52093e-13
5.52341e-13
5.52566e-13
5.52805e-13
5.53049e-13
5.53303e-13
5.53538e-13
5.53756e-13
5.5396e-13
5.54169e-13
5.54383e-13
5.54612e-13
5.54853e-13
5.55112e-13
5.55373e-13
5.55642e-13
5.55924e-13
5.56063e-13
5.56209e-13
5.56365e-13
5.56423e-13
5.56495e-13
5.565e-13
5.56496e-13
5.56494e-13
5.56485e-13
5.56481e-13
5.56492e-13
5.56509e-13
5.56557e-13
5.56613e-13
5.56691e-13
5.56793e-13
5.56915e-13
5.57002e-13
5.57085e-13
5.57133e-13
5.57172e-13
5.57147e-13
5.57095e-13
5.57024e-13
5.56935e-13
5.56826e-13
5.56714e-13
5.56624e-13
5.56551e-13
5.56516e-13
5.56466e-13
5.56496e-13
5.56491e-13
5.5652e-13
5.56525e-13
5.56518e-13
5.56492e-13
5.56446e-13
5.56377e-13
5.56283e-13
5.56154e-13
5.56004e-13
5.55851e-13
5.55697e-13
5.55558e-13
5.55427e-13
5.55246e-13
5.55246e-13
5.5521e-13
5.55146e-13
5.55112e-13
5.5506e-13
5.54991e-13
5.54901e-13
5.54792e-13
5.54662e-13
5.54516e-13
5.54352e-13
5.5417e-13
5.53999e-13
5.53823e-13
5.53634e-13
5.53549e-13
5.5345e-13
5.53334e-13
5.53289e-13
5.53225e-13
5.5315e-13
5.53063e-13
5.52958e-13
5.52837e-13
5.52698e-13
5.52542e-13
5.52374e-13
5.5219e-13
5.52001e-13
5.51808e-13
5.51542e-13
4.0017e-13
3.99613e-13
3.99494e-13
3.99304e-13
3.98873e-13
3.98362e-13
3.98371e-13
4.0026e-13
4.04632e-13
4.09213e-13
4.12693e-13
4.15544e-13
4.17869e-13
4.19594e-13
4.21177e-13
4.22757e-13
4.2409e-13
4.25257e-13
4.26307e-13
4.27187e-13
4.27861e-13
4.28458e-13
4.2894e-13
4.29289e-13
4.29498e-13
4.29566e-13
4.2949e-13
4.29239e-13
4.28799e-13
4.28195e-13
4.27437e-13
4.26524e-13
4.25496e-13
4.24349e-13
4.23132e-13
4.21839e-13
4.20516e-13
4.19165e-13
4.1783e-13
4.16544e-13
4.15334e-13
4.14207e-13
4.1318e-13
4.12293e-13
4.11576e-13
4.11008e-13
4.10609e-13
4.10382e-13
4.10393e-13
4.10586e-13
4.11028e-13
4.11647e-13
4.12498e-13
4.13524e-13
4.14782e-13
4.1625e-13
4.17893e-13
4.19742e-13
4.21763e-13
4.23963e-13
4.26296e-13
4.28764e-13
4.3135e-13
4.34047e-13
4.3686e-13
4.39768e-13
4.42755e-13
4.45846e-13
4.48975e-13
4.52152e-13
4.55355e-13
4.58539e-13
4.61761e-13
4.64939e-13
4.68189e-13
4.71413e-13
4.7467e-13
4.77881e-13
4.81054e-13
4.84166e-13
4.87201e-13
4.90226e-13
4.9318e-13
4.96054e-13
4.98875e-13
5.01643e-13
5.04386e-13
5.07142e-13
5.09881e-13
5.12544e-13
5.15168e-13
5.17655e-13
5.20077e-13
5.22413e-13
5.24707e-13
5.26992e-13
5.2933e-13
5.3156e-13
5.33712e-13
5.35751e-13
5.37675e-13
5.39547e-13
5.41387e-13
5.43212e-13
5.45e-13
5.46737e-13
5.48412e-13
5.50026e-13
5.51578e-13
5.53071e-13
5.54505e-13
5.55874e-13
5.57187e-13
5.58447e-13
5.59665e-13
5.6081e-13
5.61974e-13
5.6317e-13
5.64401e-13
5.65678e-13
5.6709e-13
5.67946e-13
5.6894e-13
5.69724e-13
5.70289e-13
5.70888e-13
5.71503e-13
5.72136e-13
5.72796e-13
5.73482e-13
5.74191e-13
5.74918e-13
5.75658e-13
5.76412e-13
5.77183e-13
5.7793e-13
5.78672e-13
5.79362e-13
5.79987e-13
5.8056e-13
5.81101e-13
5.81605e-13
5.82076e-13
5.82497e-13
5.82879e-13
5.83226e-13
5.83562e-13
5.83877e-13
5.84207e-13
5.84544e-13
5.84896e-13
5.85228e-13
5.8555e-13
5.8586e-13
5.86174e-13
5.86494e-13
5.86828e-13
5.87174e-13
5.87535e-13
5.87897e-13
5.88263e-13
5.88645e-13
5.88875e-13
5.89111e-13
5.89357e-13
5.89492e-13
5.89644e-13
5.89719e-13
5.89785e-13
5.89859e-13
5.89921e-13
5.89991e-13
5.9007e-13
5.90157e-13
5.90265e-13
5.90381e-13
5.90513e-13
5.90665e-13
5.90837e-13
5.90973e-13
5.91113e-13
5.91209e-13
5.91321e-13
5.9133e-13
5.91317e-13
5.91286e-13
5.91233e-13
5.91156e-13
5.91077e-13
5.91008e-13
5.90959e-13
5.90943e-13
5.90931e-13
5.90971e-13
5.90988e-13
5.91031e-13
5.91058e-13
5.91069e-13
5.91056e-13
5.91025e-13
5.90972e-13
5.90891e-13
5.90773e-13
5.90631e-13
5.90483e-13
5.90332e-13
5.90191e-13
5.90049e-13
5.8986e-13
5.89845e-13
5.89798e-13
5.89726e-13
5.89682e-13
5.89623e-13
5.89546e-13
5.8945e-13
5.89332e-13
5.89191e-13
5.89032e-13
5.88854e-13
5.88654e-13
5.88457e-13
5.88252e-13
5.88036e-13
5.87918e-13
5.87787e-13
5.8764e-13
5.87565e-13
5.87476e-13
5.87377e-13
5.87268e-13
5.87142e-13
5.86999e-13
5.86837e-13
5.86659e-13
5.86465e-13
5.86257e-13
5.8604e-13
5.85816e-13
5.85501e-13
4.0042e-13
3.997e-13
3.99198e-13
3.99011e-13
3.98565e-13
3.98656e-13
4.00364e-13
4.04791e-13
4.09779e-13
4.13374e-13
4.15944e-13
4.17725e-13
4.19034e-13
4.20029e-13
4.20918e-13
4.21985e-13
4.22932e-13
4.23751e-13
4.24472e-13
4.25068e-13
4.255e-13
4.25881e-13
4.26166e-13
4.26341e-13
4.26398e-13
4.26325e-13
4.26099e-13
4.25722e-13
4.25194e-13
4.24522e-13
4.23726e-13
4.22803e-13
4.21792e-13
4.20688e-13
4.1954e-13
4.18354e-13
4.17168e-13
4.15996e-13
4.14872e-13
4.13833e-13
4.12916e-13
4.12118e-13
4.11465e-13
4.10975e-13
4.10702e-13
4.1062e-13
4.10772e-13
4.111e-13
4.11706e-13
4.12518e-13
4.13624e-13
4.14929e-13
4.16476e-13
4.18223e-13
4.20222e-13
4.22456e-13
4.24854e-13
4.27482e-13
4.30272e-13
4.33248e-13
4.36332e-13
4.39549e-13
4.42859e-13
4.46265e-13
4.49774e-13
4.53349e-13
4.5698e-13
4.607e-13
4.64402e-13
4.68134e-13
4.71835e-13
4.75487e-13
4.79149e-13
4.82736e-13
4.86381e-13
4.89976e-13
4.93585e-13
4.97105e-13
5.00573e-13
5.0394e-13
5.07212e-13
5.10472e-13
5.13622e-13
5.16667e-13
5.19636e-13
5.2252e-13
5.25374e-13
5.28237e-13
5.31067e-13
5.3381e-13
5.36506e-13
5.39059e-13
5.41543e-13
5.43933e-13
5.46277e-13
5.4861e-13
5.50991e-13
5.53242e-13
5.55412e-13
5.57466e-13
5.59409e-13
5.61305e-13
5.63171e-13
5.65018e-13
5.66827e-13
5.68581e-13
5.70273e-13
5.719e-13
5.73464e-13
5.74964e-13
5.76411e-13
5.77795e-13
5.79121e-13
5.80409e-13
5.81643e-13
5.82828e-13
5.84035e-13
5.85273e-13
5.8655e-13
5.87858e-13
5.89296e-13
5.90186e-13
5.91185e-13
5.92039e-13
5.92628e-13
5.9325e-13
5.93884e-13
5.94535e-13
5.95208e-13
5.9591e-13
5.96637e-13
5.97382e-13
5.98146e-13
5.98926e-13
5.99724e-13
6.00502e-13
6.01284e-13
6.02014e-13
6.02684e-13
6.03308e-13
6.03897e-13
6.04447e-13
6.04959e-13
6.05419e-13
6.05831e-13
6.06202e-13
6.06555e-13
6.06887e-13
6.07233e-13
6.07588e-13
6.07959e-13
6.08309e-13
6.08662e-13
6.09005e-13
6.09354e-13
6.0971e-13
6.10082e-13
6.10465e-13
6.10861e-13
6.11261e-13
6.11661e-13
6.12075e-13
6.12341e-13
6.12603e-13
6.12872e-13
6.13033e-13
6.13206e-13
6.13301e-13
6.13389e-13
6.13486e-13
6.13577e-13
6.13676e-13
6.13786e-13
6.13902e-13
6.14038e-13
6.14181e-13
6.14336e-13
6.14507e-13
6.14698e-13
6.14851e-13
6.15009e-13
6.15127e-13
6.15265e-13
6.15301e-13
6.153e-13
6.15284e-13
6.15245e-13
6.15181e-13
6.15118e-13
6.15056e-13
6.15016e-13
6.15009e-13
6.15012e-13
6.15057e-13
6.15084e-13
6.15136e-13
6.15169e-13
6.15187e-13
6.15177e-13
6.15151e-13
6.15102e-13
6.15026e-13
6.14912e-13
6.14773e-13
6.14627e-13
6.14478e-13
6.14335e-13
6.14185e-13
6.13997e-13
6.13968e-13
6.1391e-13
6.1383e-13
6.13774e-13
6.13705e-13
6.1362e-13
6.13515e-13
6.13389e-13
6.1324e-13
6.13071e-13
6.12882e-13
6.1267e-13
6.12456e-13
6.12231e-13
6.12e-13
6.11856e-13
6.11702e-13
6.11532e-13
6.11434e-13
6.11323e-13
6.11204e-13
6.11075e-13
6.10931e-13
6.10771e-13
6.10592e-13
6.10396e-13
6.10185e-13
6.09959e-13
6.09724e-13
6.09483e-13
6.09138e-13
4.00595e-13
3.9965e-13
3.98861e-13
3.98652e-13
3.98816e-13
4.00364e-13
4.04436e-13
4.0958e-13
4.13197e-13
4.15613e-13
4.17155e-13
4.18171e-13
4.18852e-13
4.19507e-13
4.20062e-13
4.20767e-13
4.21386e-13
4.21936e-13
4.22427e-13
4.22829e-13
4.23102e-13
4.23335e-13
4.23489e-13
4.23545e-13
4.23495e-13
4.23316e-13
4.23006e-13
4.22561e-13
4.21988e-13
4.21289e-13
4.2049e-13
4.19589e-13
4.18627e-13
4.17602e-13
4.16561e-13
4.15525e-13
4.1453e-13
4.1359e-13
4.12739e-13
4.12013e-13
4.11465e-13
4.11076e-13
4.10898e-13
4.1091e-13
4.11212e-13
4.11737e-13
4.12583e-13
4.13635e-13
4.15011e-13
4.16629e-13
4.18597e-13
4.20796e-13
4.23249e-13
4.25937e-13
4.28906e-13
4.32134e-13
4.35508e-13
4.3915e-13
4.42919e-13
4.46877e-13
4.509e-13
4.55027e-13
4.59213e-13
4.63439e-13
4.67762e-13
4.72085e-13
4.76424e-13
4.80823e-13
4.85109e-13
4.89402e-13
4.93591e-13
4.97681e-13
5.01752e-13
5.05681e-13
5.09664e-13
5.13543e-13
5.17413e-13
5.21137e-13
5.24789e-13
5.28284e-13
5.31664e-13
5.3502e-13
5.38209e-13
5.41273e-13
5.44236e-13
5.47083e-13
5.499e-13
5.52732e-13
5.55515e-13
5.58199e-13
5.60831e-13
5.63316e-13
5.65721e-13
5.68019e-13
5.70269e-13
5.72507e-13
5.74786e-13
5.76913e-13
5.78966e-13
5.80903e-13
5.82741e-13
5.84534e-13
5.86296e-13
5.88036e-13
5.89738e-13
5.91386e-13
5.92974e-13
5.94497e-13
5.95957e-13
5.97348e-13
5.98695e-13
5.99984e-13
6.01213e-13
6.02416e-13
6.03558e-13
6.04685e-13
6.05835e-13
6.07009e-13
6.08234e-13
6.09465e-13
6.1082e-13
6.11662e-13
6.12575e-13
6.13412e-13
6.13953e-13
6.1452e-13
6.15097e-13
6.15687e-13
6.16296e-13
6.16935e-13
6.176e-13
6.1829e-13
6.19004e-13
6.19738e-13
6.20488e-13
6.21227e-13
6.21977e-13
6.22678e-13
6.23329e-13
6.2394e-13
6.24513e-13
6.2505e-13
6.25546e-13
6.25989e-13
6.2638e-13
6.26724e-13
6.27046e-13
6.27348e-13
6.2766e-13
6.27982e-13
6.2832e-13
6.28641e-13
6.28971e-13
6.293e-13
6.29638e-13
6.29985e-13
6.30348e-13
6.30724e-13
6.31111e-13
6.31508e-13
6.31898e-13
6.323e-13
6.32571e-13
6.32818e-13
6.3307e-13
6.3322e-13
6.33381e-13
6.3346e-13
6.33536e-13
6.33619e-13
6.33705e-13
6.33801e-13
6.33912e-13
6.34028e-13
6.34165e-13
6.34309e-13
6.34461e-13
6.34626e-13
6.3481e-13
6.34955e-13
6.35105e-13
6.35221e-13
6.35353e-13
6.35395e-13
6.35394e-13
6.35376e-13
6.35335e-13
6.35266e-13
6.352e-13
6.3513e-13
6.35081e-13
6.35067e-13
6.35066e-13
6.35109e-13
6.35131e-13
6.35181e-13
6.35209e-13
6.3522e-13
6.35205e-13
6.35172e-13
6.35116e-13
6.35034e-13
6.34914e-13
6.3477e-13
6.34619e-13
6.34466e-13
6.34316e-13
6.34155e-13
6.33965e-13
6.33917e-13
6.33843e-13
6.33752e-13
6.33679e-13
6.33595e-13
6.33496e-13
6.33379e-13
6.33241e-13
6.3308e-13
6.32899e-13
6.32697e-13
6.32472e-13
6.32241e-13
6.31998e-13
6.31753e-13
6.31584e-13
6.31406e-13
6.31214e-13
6.31093e-13
6.3096e-13
6.3082e-13
6.30671e-13
6.30508e-13
6.30328e-13
6.30131e-13
6.29918e-13
6.29689e-13
6.29446e-13
6.29195e-13
6.28937e-13
6.2857e-13
4.00718e-13
3.99561e-13
3.98749e-13
3.98921e-13
4.00147e-13
4.03702e-13
4.08717e-13
4.12527e-13
4.14987e-13
4.16458e-13
4.17319e-13
4.17876e-13
4.1828e-13
4.18668e-13
4.18987e-13
4.19422e-13
4.19808e-13
4.20168e-13
4.20491e-13
4.20748e-13
4.20899e-13
4.21013e-13
4.21057e-13
4.21017e-13
4.20876e-13
4.20617e-13
4.20246e-13
4.19755e-13
4.19161e-13
4.18459e-13
4.17683e-13
4.16836e-13
4.15961e-13
4.15063e-13
4.14184e-13
4.13359e-13
4.12632e-13
4.12009e-13
4.11533e-13
4.11225e-13
4.1118e-13
4.11358e-13
4.1184e-13
4.12558e-13
4.13654e-13
4.15038e-13
4.1686e-13
4.18952e-13
4.21418e-13
4.24196e-13
4.27396e-13
4.30876e-13
4.34622e-13
4.38633e-13
4.43e-13
4.47622e-13
4.52413e-13
4.57422e-13
4.6258e-13
4.67824e-13
4.73165e-13
4.78409e-13
4.83751e-13
4.88951e-13
4.94271e-13
4.99464e-13
5.04596e-13
5.09746e-13
5.14606e-13
5.19453e-13
5.24087e-13
5.28536e-13
5.32933e-13
5.37042e-13
5.41244e-13
5.45221e-13
5.49167e-13
5.52876e-13
5.56498e-13
5.59878e-13
5.63122e-13
5.66325e-13
5.69288e-13
5.72154e-13
5.74888e-13
5.77491e-13
5.80047e-13
5.82647e-13
5.85177e-13
5.87613e-13
5.89989e-13
5.92219e-13
5.94348e-13
5.9638e-13
5.98359e-13
6.00339e-13
6.02351e-13
6.04202e-13
6.06001e-13
6.07673e-13
6.09267e-13
6.10815e-13
6.12332e-13
6.13827e-13
6.15289e-13
6.16705e-13
6.18067e-13
6.1937e-13
6.20607e-13
6.21775e-13
6.22911e-13
6.23994e-13
6.25021e-13
6.26034e-13
6.26986e-13
6.27957e-13
6.28953e-13
6.29962e-13
6.31039e-13
6.3209e-13
6.33255e-13
6.33975e-13
6.34718e-13
6.35443e-13
6.35877e-13
6.36321e-13
6.36771e-13
6.37229e-13
6.377e-13
6.38206e-13
6.38735e-13
6.39299e-13
6.39893e-13
6.40511e-13
6.41145e-13
6.41779e-13
6.42428e-13
6.43035e-13
6.43609e-13
6.44148e-13
6.44647e-13
6.45114e-13
6.4554e-13
6.45915e-13
6.46235e-13
6.46505e-13
6.46752e-13
6.4698e-13
6.47215e-13
6.4746e-13
6.47717e-13
6.47967e-13
6.4823e-13
6.48502e-13
6.48787e-13
6.49084e-13
6.494e-13
6.49731e-13
6.50071e-13
6.50425e-13
6.5077e-13
6.51122e-13
6.51364e-13
6.51562e-13
6.51764e-13
6.51875e-13
6.51991e-13
6.52028e-13
6.5206e-13
6.52102e-13
6.52151e-13
6.52213e-13
6.52298e-13
6.52386e-13
6.525e-13
6.5262e-13
6.52746e-13
6.52878e-13
6.53028e-13
6.53143e-13
6.53259e-13
6.53348e-13
6.53448e-13
6.53471e-13
6.53457e-13
6.5342e-13
6.53359e-13
6.53271e-13
6.53182e-13
6.53088e-13
6.53012e-13
6.52979e-13
6.52942e-13
6.52981e-13
6.52977e-13
6.53011e-13
6.5302e-13
6.53012e-13
6.52977e-13
6.52924e-13
6.52847e-13
6.52747e-13
6.5261e-13
6.5245e-13
6.52285e-13
6.52118e-13
6.51954e-13
6.51775e-13
6.51577e-13
6.51499e-13
6.51401e-13
6.51292e-13
6.51194e-13
6.51087e-13
6.50967e-13
6.50831e-13
6.50674e-13
6.50496e-13
6.50297e-13
6.50078e-13
6.49835e-13
6.49585e-13
6.49321e-13
6.49062e-13
6.4886e-13
6.48657e-13
6.48442e-13
6.48293e-13
6.48134e-13
6.47969e-13
6.47797e-13
6.4761e-13
6.47409e-13
6.47191e-13
6.46956e-13
6.46707e-13
6.46445e-13
6.46176e-13
6.459e-13
6.45509e-13
4.00792e-13
3.99678e-13
3.99172e-13
4.00039e-13
4.02755e-13
4.07452e-13
4.11505e-13
4.1418e-13
4.15722e-13
4.1656e-13
4.17057e-13
4.17351e-13
4.17522e-13
4.17706e-13
4.17872e-13
4.18114e-13
4.18338e-13
4.18549e-13
4.18734e-13
4.18869e-13
4.18916e-13
4.18924e-13
4.18883e-13
4.18757e-13
4.18544e-13
4.18227e-13
4.17818e-13
4.17307e-13
4.16718e-13
4.16047e-13
4.15334e-13
4.1459e-13
4.1386e-13
4.13157e-13
4.12528e-13
4.12006e-13
4.11658e-13
4.11488e-13
4.11566e-13
4.11873e-13
4.12568e-13
4.1357e-13
4.15033e-13
4.16836e-13
4.19156e-13
4.2189e-13
4.25226e-13
4.28937e-13
4.3307e-13
4.37644e-13
4.4275e-13
4.48177e-13
4.53968e-13
4.59824e-13
4.66217e-13
4.72786e-13
4.79757e-13
4.86506e-13
4.93692e-13
5.00562e-13
5.07827e-13
5.14409e-13
5.21343e-13
5.27693e-13
5.3428e-13
5.40494e-13
5.46544e-13
5.52504e-13
5.57917e-13
5.63267e-13
5.6817e-13
5.72787e-13
5.77256e-13
5.8123e-13
5.85347e-13
5.89068e-13
5.92727e-13
5.96045e-13
5.99244e-13
6.02113e-13
6.04817e-13
6.07467e-13
6.09766e-13
6.12073e-13
6.14224e-13
6.16236e-13
6.1815e-13
6.20188e-13
6.22124e-13
6.23986e-13
6.25773e-13
6.27443e-13
6.29032e-13
6.30547e-13
6.32007e-13
6.33508e-13
6.35031e-13
6.36402e-13
6.37741e-13
6.38951e-13
6.40115e-13
6.41247e-13
6.42354e-13
6.43448e-13
6.44523e-13
6.45566e-13
6.46566e-13
6.47513e-13
6.48397e-13
6.49217e-13
6.50025e-13
6.50783e-13
6.51498e-13
6.52205e-13
6.52872e-13
6.53579e-13
6.54319e-13
6.55053e-13
6.55887e-13
6.56654e-13
6.57515e-13
6.58052e-13
6.58521e-13
6.59032e-13
6.59311e-13
6.59567e-13
6.5982e-13
6.60082e-13
6.60343e-13
6.60649e-13
6.60967e-13
6.61336e-13
6.6174e-13
6.62173e-13
6.62625e-13
6.63087e-13
6.6357e-13
6.64021e-13
6.64459e-13
6.64866e-13
6.65237e-13
6.65579e-13
6.65882e-13
6.66138e-13
6.66341e-13
6.6649e-13
6.66622e-13
6.66732e-13
6.66847e-13
6.66968e-13
6.67102e-13
6.67235e-13
6.67388e-13
6.67561e-13
6.67749e-13
6.67959e-13
6.68188e-13
6.6844e-13
6.68689e-13
6.68964e-13
6.69224e-13
6.69487e-13
6.69668e-13
6.69785e-13
6.69905e-13
6.69951e-13
6.69983e-13
6.69962e-13
6.69917e-13
6.69894e-13
6.69865e-13
6.69876e-13
6.69898e-13
6.69932e-13
6.7e-13
6.70062e-13
6.70148e-13
6.7021e-13
6.70303e-13
6.70366e-13
6.70423e-13
6.70458e-13
6.70504e-13
6.70486e-13
6.70438e-13
6.70364e-13
6.70265e-13
6.70139e-13
6.7001e-13
6.69873e-13
6.69752e-13
6.69678e-13
6.69589e-13
6.69601e-13
6.69561e-13
6.69562e-13
6.69537e-13
6.69493e-13
6.69421e-13
6.69331e-13
6.69219e-13
6.69087e-13
6.68921e-13
6.68733e-13
6.68542e-13
6.6835e-13
6.68162e-13
6.67955e-13
6.67739e-13
6.67616e-13
6.67487e-13
6.6735e-13
6.67217e-13
6.67078e-13
6.66928e-13
6.66762e-13
6.66579e-13
6.66375e-13
6.6615e-13
6.65906e-13
6.6564e-13
6.65366e-13
6.65076e-13
6.64798e-13
6.64554e-13
6.64325e-13
6.64083e-13
6.63897e-13
6.63707e-13
6.63512e-13
6.6331e-13
6.63096e-13
6.62868e-13
6.62623e-13
6.62363e-13
6.62089e-13
6.61803e-13
6.61511e-13
6.61215e-13
6.60796e-13
4.00859e-13
4.00236e-13
4.00133e-13
4.0196e-13
4.05959e-13
4.10155e-13
4.13159e-13
4.14929e-13
4.15864e-13
4.16353e-13
4.16591e-13
4.16697e-13
4.1671e-13
4.16756e-13
4.16802e-13
4.16905e-13
4.17004e-13
4.17094e-13
4.17165e-13
4.17194e-13
4.17159e-13
4.17083e-13
4.16967e-13
4.16777e-13
4.16516e-13
4.16168e-13
4.15748e-13
4.15251e-13
4.14707e-13
4.14118e-13
4.13529e-13
4.12956e-13
4.12461e-13
4.12055e-13
4.11807e-13
4.11739e-13
4.11978e-13
4.12491e-13
4.13432e-13
4.14745e-13
4.16633e-13
4.18996e-13
4.22044e-13
4.25629e-13
4.29869e-13
4.34687e-13
4.4032e-13
4.4641e-13
4.53083e-13
4.60225e-13
4.68143e-13
4.76285e-13
4.8521e-13
4.93366e-13
5.02476e-13
5.11618e-13
5.21662e-13
5.30521e-13
5.40406e-13
5.49261e-13
5.59014e-13
5.67176e-13
5.76039e-13
5.83694e-13
5.91727e-13
5.99018e-13
6.06018e-13
6.12745e-13
6.18702e-13
6.24482e-13
6.29467e-13
6.34094e-13
6.38253e-13
6.41857e-13
6.45446e-13
6.48582e-13
6.51513e-13
6.54051e-13
6.5633e-13
6.58304e-13
6.59946e-13
6.61641e-13
6.62729e-13
6.6393e-13
6.65105e-13
6.65935e-13
6.66823e-13
6.67743e-13
6.68675e-13
6.69434e-13
6.70225e-13
6.70848e-13
6.71558e-13
6.72132e-13
6.72765e-13
6.73437e-13
6.74165e-13
6.74696e-13
6.75286e-13
6.75774e-13
6.76276e-13
6.76777e-13
6.77274e-13
6.77772e-13
6.78273e-13
6.78763e-13
6.79226e-13
6.79655e-13
6.80039e-13
6.80371e-13
6.80723e-13
6.81025e-13
6.81303e-13
6.81583e-13
6.81841e-13
6.82171e-13
6.82552e-13
6.82911e-13
6.83405e-13
6.83754e-13
6.84198e-13
6.84451e-13
6.84568e-13
6.84785e-13
6.84835e-13
6.84834e-13
6.84832e-13
6.84825e-13
6.84811e-13
6.84837e-13
6.84874e-13
6.84967e-13
6.85119e-13
6.85301e-13
6.85507e-13
6.85727e-13
6.85978e-13
6.8621e-13
6.8645e-13
6.86669e-13
6.86857e-13
6.87019e-13
6.87145e-13
6.87235e-13
6.87267e-13
6.87257e-13
6.8723e-13
6.87178e-13
6.8714e-13
6.87072e-13
6.87061e-13
6.87015e-13
6.87029e-13
6.87053e-13
6.87108e-13
6.87191e-13
6.87291e-13
6.87435e-13
6.8754e-13
6.87705e-13
6.87835e-13
6.87973e-13
6.88059e-13
6.88071e-13
6.88071e-13
6.88026e-13
6.8796e-13
6.87841e-13
6.87689e-13
6.87569e-13
6.87435e-13
6.87363e-13
6.87295e-13
6.87259e-13
6.87247e-13
6.8722e-13
6.87246e-13
6.87206e-13
6.87225e-13
6.87212e-13
6.87184e-13
6.87133e-13
6.87104e-13
6.87031e-13
6.86923e-13
6.86789e-13
6.86632e-13
6.86452e-13
6.86264e-13
6.86068e-13
6.85881e-13
6.85746e-13
6.85593e-13
6.85548e-13
6.85465e-13
6.85408e-13
6.85332e-13
6.85236e-13
6.85112e-13
6.84969e-13
6.84805e-13
6.84627e-13
6.84419e-13
6.84188e-13
6.83957e-13
6.83728e-13
6.83504e-13
6.83261e-13
6.83015e-13
6.82827e-13
6.82662e-13
6.82485e-13
6.82308e-13
6.82125e-13
6.81933e-13
6.81728e-13
6.81507e-13
6.81268e-13
6.81009e-13
6.80732e-13
6.80434e-13
6.80129e-13
6.79807e-13
6.795e-13
6.79208e-13
6.78947e-13
6.78672e-13
6.78442e-13
6.78214e-13
6.77982e-13
6.77744e-13
6.77495e-13
6.77234e-13
6.76957e-13
6.76666e-13
6.7636e-13
6.76045e-13
6.75726e-13
6.75404e-13
6.74949e-13
4.01007e-13
4.01029e-13
4.01562e-13
4.04416e-13
4.08542e-13
4.11867e-13
4.13994e-13
4.15152e-13
4.15717e-13
4.15965e-13
4.16033e-13
4.16005e-13
4.15917e-13
4.15862e-13
4.15823e-13
4.15816e-13
4.15813e-13
4.15807e-13
4.15786e-13
4.15736e-13
4.15633e-13
4.15495e-13
4.15327e-13
4.15099e-13
4.14817e-13
4.14471e-13
4.1408e-13
4.13646e-13
4.13206e-13
4.12769e-13
4.12393e-13
4.12095e-13
4.11969e-13
4.12025e-13
4.12396e-13
4.13082e-13
4.14297e-13
4.15967e-13
4.18352e-13
4.21332e-13
4.25106e-13
4.29637e-13
4.35103e-13
4.41347e-13
4.48453e-13
4.56112e-13
4.64929e-13
4.7427e-13
4.84751e-13
4.95045e-13
5.0676e-13
5.18221e-13
5.31435e-13
5.42194e-13
5.54733e-13
5.66822e-13
5.80683e-13
5.92135e-13
6.05335e-13
6.16253e-13
6.28671e-13
6.38405e-13
6.49036e-13
6.57964e-13
6.67025e-13
6.75106e-13
6.8267e-13
6.89538e-13
6.95674e-13
7.01086e-13
7.05768e-13
7.09944e-13
7.13311e-13
7.16417e-13
7.18965e-13
7.21578e-13
7.23206e-13
7.25029e-13
7.25849e-13
7.27051e-13
7.27091e-13
7.28016e-13
7.27527e-13
7.27388e-13
7.27633e-13
7.26682e-13
7.26802e-13
7.25914e-13
7.25727e-13
7.24858e-13
7.24494e-13
7.23584e-13
7.23172e-13
7.22284e-13
7.21916e-13
7.21265e-13
7.20834e-13
7.20095e-13
7.19632e-13
7.19035e-13
7.18638e-13
7.1822e-13
7.17862e-13
7.17511e-13
7.17193e-13
7.16898e-13
7.16631e-13
7.16358e-13
7.16078e-13
7.15764e-13
7.15502e-13
7.15202e-13
7.14899e-13
7.14621e-13
7.14315e-13
7.14166e-13
7.14103e-13
7.13991e-13
7.13971e-13
7.13777e-13
7.13716e-13
7.13545e-13
7.13271e-13
7.13104e-13
7.12829e-13
7.12518e-13
7.1219e-13
7.11828e-13
7.11491e-13
7.1113e-13
7.1084e-13
7.10554e-13
7.10419e-13
7.10268e-13
7.10162e-13
7.10075e-13
7.10026e-13
7.09977e-13
7.09957e-13
7.09924e-13
7.09879e-13
7.09802e-13
7.09702e-13
7.09568e-13
7.09397e-13
7.09183e-13
7.08953e-13
7.08693e-13
7.08445e-13
7.08161e-13
7.0794e-13
7.07686e-13
7.07521e-13
7.07353e-13
7.07246e-13
7.07166e-13
7.07095e-13
7.07075e-13
7.07011e-13
7.07019e-13
7.06972e-13
7.06967e-13
7.06909e-13
7.06793e-13
7.06659e-13
7.06477e-13
7.06276e-13
7.06034e-13
7.05757e-13
7.05506e-13
7.05246e-13
7.05055e-13
7.04874e-13
7.04732e-13
7.04616e-13
7.04485e-13
7.04408e-13
7.04262e-13
7.04171e-13
7.04052e-13
7.03916e-13
7.0376e-13
7.03633e-13
7.03477e-13
7.03288e-13
7.03074e-13
7.02841e-13
7.02588e-13
7.02325e-13
7.02051e-13
7.0178e-13
7.01567e-13
7.01334e-13
7.0121e-13
7.0106e-13
7.0093e-13
7.00784e-13
7.00618e-13
7.00426e-13
7.00215e-13
6.99982e-13
6.99742e-13
6.99477e-13
6.99191e-13
6.98906e-13
6.98627e-13
6.98354e-13
6.98064e-13
6.97775e-13
6.97509e-13
6.97295e-13
6.97066e-13
6.96833e-13
6.96595e-13
6.96349e-13
6.96094e-13
6.95825e-13
6.9554e-13
6.95236e-13
6.94916e-13
6.94579e-13
6.94235e-13
6.93875e-13
6.93528e-13
6.93181e-13
6.92881e-13
6.92567e-13
6.92281e-13
6.92009e-13
6.91733e-13
6.91451e-13
6.91161e-13
6.90859e-13
6.90543e-13
6.90213e-13
6.89871e-13
6.89519e-13
6.89167e-13
6.88813e-13
6.88315e-13
4.01147e-13
4.0197e-13
4.03241e-13
4.06798e-13
4.10278e-13
4.12822e-13
4.14333e-13
4.15076e-13
4.15406e-13
4.15501e-13
4.15454e-13
4.15325e-13
4.15174e-13
4.15049e-13
4.14942e-13
4.14854e-13
4.14774e-13
4.14694e-13
4.14604e-13
4.14496e-13
4.14347e-13
4.14173e-13
4.13979e-13
4.13744e-13
4.13479e-13
4.13179e-13
4.12871e-13
4.12566e-13
4.12315e-13
4.12133e-13
4.12104e-13
4.1226e-13
4.1277e-13
4.13623e-13
4.15063e-13
4.1704e-13
4.19847e-13
4.23401e-13
4.28013e-13
4.33543e-13
4.40078e-13
4.47694e-13
4.56521e-13
4.66298e-13
4.77498e-13
4.8843e-13
5.01222e-13
5.14867e-13
5.30738e-13
5.44417e-13
5.60892e-13
5.75999e-13
5.94419e-13
6.08065e-13
6.24561e-13
6.39209e-13
6.56555e-13
6.70292e-13
6.86088e-13
6.98548e-13
7.12498e-13
7.23486e-13
7.3434e-13
7.44123e-13
7.5284e-13
7.61004e-13
7.67872e-13
7.74137e-13
7.79696e-13
7.83659e-13
7.87941e-13
7.90681e-13
7.93155e-13
7.95443e-13
7.9628e-13
7.98935e-13
7.98443e-13
8.00004e-13
7.98952e-13
7.99775e-13
7.98187e-13
7.98611e-13
7.96854e-13
7.95716e-13
7.94983e-13
7.92745e-13
7.92181e-13
7.89974e-13
7.88614e-13
7.86546e-13
7.84969e-13
7.82935e-13
7.81333e-13
7.79329e-13
7.77869e-13
7.76033e-13
7.74303e-13
7.72353e-13
7.70672e-13
7.68877e-13
7.67363e-13
7.6582e-13
7.64398e-13
7.62977e-13
7.61612e-13
7.603e-13
7.59096e-13
7.57917e-13
7.56783e-13
7.55637e-13
7.54594e-13
7.53538e-13
7.5253e-13
7.51546e-13
7.50609e-13
7.49839e-13
7.4918e-13
7.48504e-13
7.47816e-13
7.47015e-13
7.46323e-13
7.45615e-13
7.44827e-13
7.4423e-13
7.43559e-13
7.42838e-13
7.42104e-13
7.41332e-13
7.40583e-13
7.39793e-13
7.3909e-13
7.38371e-13
7.37856e-13
7.37311e-13
7.36819e-13
7.36365e-13
7.35947e-13
7.3556e-13
7.35223e-13
7.34884e-13
7.34538e-13
7.34173e-13
7.3379e-13
7.33384e-13
7.32954e-13
7.32493e-13
7.32016e-13
7.31512e-13
7.31008e-13
7.30476e-13
7.29999e-13
7.29495e-13
7.29107e-13
7.28716e-13
7.284e-13
7.28115e-13
7.27836e-13
7.27609e-13
7.27349e-13
7.2715e-13
7.2691e-13
7.26707e-13
7.26474e-13
7.26194e-13
7.25892e-13
7.25551e-13
7.25189e-13
7.24794e-13
7.24364e-13
7.23957e-13
7.23547e-13
7.23209e-13
7.22886e-13
7.22612e-13
7.22363e-13
7.2211e-13
7.21894e-13
7.21627e-13
7.21394e-13
7.21144e-13
7.20877e-13
7.20596e-13
7.20346e-13
7.20082e-13
7.1979e-13
7.19477e-13
7.19148e-13
7.18804e-13
7.18449e-13
7.18079e-13
7.17709e-13
7.17396e-13
7.17066e-13
7.16847e-13
7.16607e-13
7.16385e-13
7.16152e-13
7.15899e-13
7.15622e-13
7.15327e-13
7.1501e-13
7.14692e-13
7.14355e-13
7.14001e-13
7.13648e-13
7.13305e-13
7.12971e-13
7.1262e-13
7.12274e-13
7.11919e-13
7.11643e-13
7.11349e-13
7.11049e-13
7.10744e-13
7.10432e-13
7.10114e-13
7.09786e-13
7.09444e-13
7.09085e-13
7.08713e-13
7.08327e-13
7.07934e-13
7.07529e-13
7.07131e-13
7.06723e-13
7.06375e-13
7.06013e-13
7.05663e-13
7.05339e-13
7.0501e-13
7.04677e-13
7.04337e-13
7.03987e-13
7.03625e-13
7.0325e-13
7.02862e-13
7.02466e-13
7.02076e-13
7.01684e-13
7.01132e-13
4.0144e-13
4.02985e-13
4.0496e-13
4.0843e-13
4.11346e-13
4.13292e-13
4.14332e-13
4.14855e-13
4.15019e-13
4.15019e-13
4.14882e-13
4.14693e-13
4.14499e-13
4.14325e-13
4.14167e-13
4.14024e-13
4.13889e-13
4.13757e-13
4.13623e-13
4.13478e-13
4.13309e-13
4.13127e-13
4.12941e-13
4.12739e-13
4.12538e-13
4.12342e-13
4.12196e-13
4.12112e-13
4.1218e-13
4.12423e-13
4.13023e-13
4.13986e-13
4.15598e-13
4.17801e-13
4.20957e-13
4.24978e-13
4.30158e-13
4.36506e-13
4.44241e-13
4.53301e-13
4.63636e-13
4.7498e-13
4.88106e-13
5.02231e-13
5.19028e-13
5.3352e-13
5.51151e-13