/*--------------------------------*- C++ -*----------------------------------*\
| =========                 |                                                 |
| \\      /  F ield         | OpenFOAM: The Open Source CFD Toolbox           |
|  \\    /   O peration     | Version:  2312                                  |
|   \\  /    A nd           | Website:  www.openfoam.com                      |
|    \\/     M anipulation  |                                                 |
\*---------------------------------------------------------------------------*/
FoamFile
{
    version     2.0;
    format      ascii;
    arch        "LSB;label=32;scalar=64";
    class       volVectorField;
    location    "0.002";
    object      U;
}
// * * * * * * * * * * * * * * * * * * * * * * * * * * * * * * * * * * * * * //

dimensions      [0 1 -1 0 0 0 0];

internalField   nonuniform List<vector> 
48128
(
(12.4641 -4.8246 0)
(17.3478 -2.55213 0)
(20.4059 -0.326246 0)
(19.8713 0.559874 0)
(18.6267 0.68464 0)
(17.2905 0.675882 0)
(15.7658 0.597838 0)
(14.0536 0.646827 0)
(11.4109 1.37609 0)
(5.66702 3.53961 0)
(-4.62765 5.57166 0)
(-21.4501 8.18809 0)
(-46.4528 10.889 0)
(-72.5897 9.58414 0)
(-94.4822 7.1129 0)
(-112.335 4.53805 0)
(-126.626 3.59509 0)
(-138.165 2.97256 0)
(-147.829 2.59935 0)
(-156.045 2.32442 0)
(-162.973 2.14302 0)
(-169.136 2.01183 0)
(-174.591 1.9021 0)
(-179.331 1.80942 0)
(-183.368 1.71966 0)
(-186.702 1.64189 0)
(-189.318 1.66101 0)
(-191.118 1.82506 0)
(-192.118 1.67798 0)
(-192.482 1.51144 0)
(-192.08 1.15689 0)
(-190.743 0.922206 0)
(-188.645 0.691721 0)
(-185.767 0.405161 0)
(-182.148 0.206543 0)
(-177.85 -0.0541688 0)
(-172.862 -0.255049 0)
(-167.111 -0.682616 0)
(-160.592 -0.95348 0)
(-153.605 -1.24855 0)
(-145.991 -1.49799 0)
(-137.926 -1.88845 0)
(-129.035 -2.16822 0)
(-119.914 -2.47529 0)
(-110.163 -2.67684 0)
(-100.31 -3.02085 0)
(-89.6746 -3.31141 0)
(-78.9345 -3.53792 0)
(-68.0302 -3.60978 0)
(-57.1352 -3.86831 0)
(-45.9727 -4.00677 0)
(-34.6904 -4.25164 0)
(-23.4549 -4.23699 0)
(-12.2939 -4.42792 0)
(-1.05896 -4.5177 0)
(10.3027 -4.26933 0)
(21.5533 -3.50926 0)
(32.8049 -3.28369 0)
(43.9394 -3.2687 0)
(54.9715 -3.27889 0)
(65.8035 -3.23742 0)
(76.3971 -3.19064 0)
(86.7423 -3.13323 0)
(96.8346 -3.06814 0)
(106.713 -3.01251 0)
(116.397 -2.95753 0)
(125.857 -2.88306 0)
(135.155 -2.83083 0)
(144.146 -2.76758 0)
(152.814 -2.73634 0)
(161.321 -2.63386 0)
(169.376 -2.52091 0)
(177.298 -2.43399 0)
(184.822 -2.32039 0)
(192.274 -2.25127 0)
(199.4 -2.15102 0)
(206.453 -2.07984 0)
(213.16 -1.96272 0)
(219.608 -1.87813 0)
(225.782 -1.75432 0)
(231.542 -1.66812 0)
(237.216 -1.58749 0)
(242.523 -1.48145 0)
(247.606 -1.41142 0)
(252.429 -1.32645 0)
(257.11 -1.26476 0)
(261.625 -1.20919 0)
(266.128 -1.16774 0)
(270.478 -1.0983 0)
(274.623 -1.03985 0)
(278.565 -0.964007 0)
(282.207 -0.901467 0)
(285.64 -0.841584 0)
(288.9 -0.790408 0)
(292.007 -0.74744 0)
(295.135 -0.729529 0)
(298.265 -0.683214 0)
(301.202 -0.635362 0)
(303.943 -0.587297 0)
(306.437 -0.541342 0)
(308.702 -0.503179 0)
(310.836 -0.474336 0)
(312.914 -0.451419 0)
(314.954 -0.42824 0)
(316.928 -0.403176 0)
(318.808 -0.377214 0)
(320.583 -0.351779 0)
(322.242 -0.327189 0)
(323.791 -0.304679 0)
(325.237 -0.285457 0)
(326.576 -0.267469 0)
(327.803 -0.250604 0)
(328.941 -0.235815 0)
(329.999 -0.223659 0)
(330.984 -0.21133 0)
(331.898 -0.202096 0)
(332.854 -0.201246 0)
(333.889 -0.193308 0)
(335.002 -0.191717 0)
(336.225 -0.170201 0)
(337.611 -0.163829 0)
(338.214 -0.12018 0)
(339.109 -0.124473 0)
(339.547 -0.106009 0)
(339.78 -0.0884312 0)
(340.083 -0.0982847 0)
(340.416 -0.102751 0)
(340.778 -0.104037 0)
(341.179 -0.100847 0)
(341.619 -0.0987927 0)
(342.093 -0.0952374 0)
(342.593 -0.0915265 0)
(343.11 -0.0878037 0)
(343.645 -0.0837627 0)
(344.196 -0.0760021 0)
(344.711 -0.0683131 0)
(345.221 -0.0614359 0)
(345.664 -0.0530435 0)
(346.028 -0.0463932 0)
(346.334 -0.0420429 0)
(346.63 -0.039549 0)
(346.905 -0.0378545 0)
(347.162 -0.0358336 0)
(347.361 -0.0301965 0)
(347.519 -0.0255943 0)
(347.606 -0.0185882 0)
(347.668 -0.0144172 0)
(347.676 -0.010789 0)
(347.696 -0.00781255 0)
(347.713 -0.00752235 0)
(347.738 -0.00377625 0)
(347.731 -0.00173167 0)
(347.709 -0.000354971 0)
(347.675 0.000861588 0)
(347.674 -0.0014955 0)
(347.691 4.65371e-05 0)
(347.743 -0.000288646 0)
(347.829 0.00479733 0)
(347.957 0.00458283 0)
(348.094 0.0062878 0)
(348.251 0.00883001 0)
(348.417 0.018011 0)
(348.402 0.0147844 0)
(348.399 0.021074 0)
(348.364 0.0215332 0)
(348.257 0.0214265 0)
(348.121 0.0242803 0)
(347.927 0.0226629 0)
(347.709 0.0221058 0)
(347.493 0.0204468 0)
(347.272 0.0189135 0)
(347.057 0.0159861 0)
(346.918 0.00835991 0)
(346.771 0.0135323 0)
(346.733 0.00329283 0)
(346.695 0.00981413 0)
(346.714 0.00787487 0)
(346.755 0.0110163 0)
(346.822 0.0098711 0)
(346.832 0.0157552 0)
(346.818 0.0185836 0)
(346.773 0.0175206 0)
(346.696 0.0251755 0)
(346.555 0.0183127 0)
(346.371 0.0206428 0)
(346.174 0.0196447 0)
(345.956 0.0186451 0)
(345.717 0.0178608 0)
(345.481 0.0166856 0)
(345.28 0.0135535 0)
(345.102 0.011512 0)
(345.001 0.0078226 0)
(344.867 0.0133155 0)
(344.877 0.00640484 0)
(344.84 0.011019 0)
(344.858 0.00948717 0)
(344.838 0.0130791 0)
(344.795 0.0148955 0)
(344.721 0.0175376 0)
(344.614 0.017369 0)
(344.474 0.0180482 0)
(344.298 0.0173827 0)
(344.075 0.0173078 0)
(343.829 0.0160188 0)
(343.596 0.0140488 0)
(343.374 0.0130025 0)
(343.187 0.0102268 0)
(343.022 0.00942911 0)
(342.815 0.0102764 0)
(342.848 0.00660942 0)
(342.812 0.00780323 0)
(342.749 0.0112034 0)
(342.721 0.00956457 0)
(342.664 0.0117046 0)
(342.578 0.0137386 0)
(342.458 0.0154078 0)
(342.308 0.0150272 0)
(342.129 0.0156295 0)
(341.93 0.014254 0)
(341.712 0.0149048 0)
(341.47 0.0129191 0)
(341.256 0.0117856 0)
(341.039 0.0108448 0)
(340.82 0.00957449 0)
(340.738 0.00828661 0)
(340.631 0.0075186 0)
(340.505 0.00927142 0)
(340.471 0.00723695 0)
(340.41 0.00917129 0)
(340.328 0.0106662 0)
(340.227 0.0119051 0)
(340.099 0.013535 0)
(339.947 0.0131839 0)
(339.77 0.0136816 0)
(339.575 0.0132354 0)
(339.366 0.0119587 0)
(339.146 0.0118989 0)
(338.922 0.010033 0)
(338.715 0.0083874 0)
(338.463 0.00865119 0)
(13.5791 -13.5102 0)
(14.9468 -3.90261 0)
(18.9071 -0.710809 0)
(18.7546 0.866585 0)
(17.2925 1.32916 0)
(14.6452 1.79086 0)
(9.96532 2.2624 0)
(2.33192 3.00394 0)
(-9.82385 4.83775 0)
(-28.6728 8.72104 0)
(-55.5414 11.9196 0)
(-82.9999 16.2599 0)
(-105.138 18.4616 0)
(-122.458 14.7341 0)
(-136.18 11.7202 0)
(-146.393 10.3301 0)
(-154.823 8.33201 0)
(-162.116 6.95955 0)
(-168.202 5.99192 0)
(-173.22 5.2732 0)
(-177.216 4.72961 0)
(-180.559 4.32965 0)
(-183.331 3.96514 0)
(-185.483 3.63875 0)
(-187.013 3.32202 0)
(-187.913 3.01819 0)
(-188.209 2.76561 0)
(-187.905 2.50303 0)
(-186.84 2.18539 0)
(-184.867 1.86573 0)
(-182.166 1.46604 0)
(-178.743 1.10456 0)
(-174.525 0.765215 0)
(-169.591 0.353824 0)
(-163.915 0.0448674 0)
(-157.61 -0.325227 0)
(-150.637 -0.603853 0)
(-142.998 -1.10641 0)
(-134.652 -1.44944 0)
(-125.823 -1.81807 0)
(-116.464 -2.13218 0)
(-106.774 -2.6716 0)
(-96.3784 -3.07385 0)
(-85.7822 -3.51443 0)
(-74.7075 -3.79064 0)
(-63.5832 -4.28423 0)
(-51.7535 -4.71983 0)
(-39.8231 -5.07062 0)
(-27.682 -5.17845 0)
(-15.5848 -5.54081 0)
(-3.28503 -5.74166 0)
(9.04152 -6.09037 0)
(21.3127 -6.07689 0)
(33.4505 -6.33943 0)
(45.6092 -6.45909 0)
(57.7673 -6.75998 0)
(69.7962 -6.9179 0)
(81.7582 -7.11112 0)
(93.5443 -7.10762 0)
(105.17 -7.14215 0)
(116.532 -7.06724 0)
(127.607 -6.98834 0)
(138.39 -6.88893 0)
(148.881 -6.7817 0)
(159.127 -6.69391 0)
(169.129 -6.59116 0)
(178.859 -6.45897 0)
(188.4 -6.34512 0)
(197.639 -6.10386 0)
(206.581 -5.95031 0)
(215.323 -5.7325 0)
(223.595 -5.50518 0)
(231.697 -5.342 0)
(239.374 -5.1169 0)
(246.946 -4.98758 0)
(254.182 -4.77606 0)
(261.293 -4.62501 0)
(268.082 -4.3686 0)
(274.576 -4.19961 0)
(280.821 -3.94135 0)
(286.669 -3.78681 0)
(292.393 -3.60987 0)
(297.802 -3.3903 0)
(302.954 -3.26254 0)
(307.893 -3.07119 0)
(312.636 -2.94856 0)
(317.238 -2.82133 0)
(321.753 -2.71191 0)
(326.167 -2.54144 0)
(330.339 -2.40813 0)
(334.374 -2.24416 0)
(338.106 -2.11916 0)
(341.679 -1.99588 0)
(345.062 -1.89193 0)
(348.336 -1.80634 0)
(351.559 -1.7404 0)
(354.806 -1.62965 0)
(357.871 -1.52272 0)
(360.765 -1.42433 0)
(363.449 -1.33753 0)
(365.92 -1.26388 0)
(368.274 -1.20216 0)
(370.563 -1.14487 0)
(372.804 -1.08629 0)
(374.98 -1.02727 0)
(377.067 -0.969469 0)
(379.06 -0.914481 0)
(380.945 -0.861675 0)
(382.73 -0.81408 0)
(384.417 -0.774482 0)
(386.003 -0.735768 0)
(387.487 -0.699758 0)
(388.88 -0.666479 0)
(390.195 -0.638207 0)
(391.44 -0.608323 0)
(392.605 -0.590156 0)
(393.797 -0.569312 0)
(395.041 -0.531297 0)
(396.342 -0.506913 0)
(397.721 -0.448187 0)
(399.259 -0.474968 0)
(400.15 -0.387259 0)
(401.243 -0.40686 0)
(402.044 -0.385131 0)
(402.601 -0.342193 0)
(403.195 -0.356412 0)
(403.79 -0.353571 0)
(404.391 -0.3409 0)
(405.007 -0.319135 0)
(405.639 -0.305266 0)
(406.287 -0.288646 0)
(406.945 -0.27758 0)
(407.611 -0.26726 0)
(408.287 -0.249508 0)
(408.976 -0.227751 0)
(409.635 -0.213124 0)
(410.295 -0.199782 0)
(410.904 -0.18687 0)
(411.452 -0.17537 0)
(411.952 -0.165422 0)
(412.437 -0.156216 0)
(412.896 -0.15088 0)
(413.333 -0.142291 0)
(413.718 -0.134635 0)
(414.061 -0.126114 0)
(414.362 -0.118196 0)
(414.644 -0.1102 0)
(414.883 -0.102594 0)
(415.132 -0.09186 0)
(415.374 -0.0894559 0)
(415.621 -0.0779069 0)
(415.849 -0.0749618 0)
(416.051 -0.0718725 0)
(416.25 -0.0659032 0)
(416.461 -0.064967 0)
(416.686 -0.0554284 0)
(416.939 -0.04838 0)
(417.215 -0.0337309 0)
(417.519 -0.0280411 0)
(417.832 -0.0234826 0)
(418.157 -0.0125262 0)
(418.502 -0.015048 0)
(418.692 -0.00589213 0)
(418.888 0.00237037 0)
(419.1 -0.00259586 0)
(419.183 -0.000893945 0)
(419.286 -0.000716908 0)
(419.293 -0.000783647 0)
(419.288 -0.00261712 0)
(419.282 -0.00230839 0)
(419.263 -0.00378851 0)
(419.258 -0.00745657 0)
(419.27 -0.00872758 0)
(419.297 -0.000912796 0)
(419.359 -0.00596476 0)
(419.437 0.00673041 0)
(419.541 0.00673562 0)
(419.67 0.00989443 0)
(419.82 0.0122696 0)
(419.922 0.0195135 0)
(420.023 0.0246023 0)
(420.075 0.0234221 0)
(420.13 0.0259404 0)
(420.105 0.0180025 0)
(420.057 0.0221727 0)
(419.993 0.0204565 0)
(419.908 0.0173626 0)
(419.802 0.0160237 0)
(419.693 0.0152831 0)
(419.595 0.012917 0)
(419.507 0.0114626 0)
(419.463 0.00890593 0)
(419.409 0.0214929 0)
(419.442 0.0108214 0)
(419.442 0.0208675 0)
(419.474 0.0192589 0)
(419.491 0.0270152 0)
(419.486 0.029285 0)
(419.461 0.0321939 0)
(419.413 0.0310738 0)
(419.339 0.0311075 0)
(419.237 0.0262065 0)
(419.095 0.0266725 0)
(418.933 0.0249692 0)
(418.77 0.0222832 0)
(418.608 0.0205721 0)
(418.467 0.019573 0)
(418.334 0.0157518 0)
(418.155 0.0288433 0)
(418.164 0.0155222 0)
(418.129 0.0192349 0)
(418.069 0.0280347 0)
(418.035 0.0267507 0)
(417.982 0.0301919 0)
(417.909 0.0340686 0)
(417.811 0.0342063 0)
(417.691 0.0322979 0)
(417.548 0.0317997 0)
(417.388 0.0292147 0)
(417.209 0.0287892 0)
(417.011 0.0264887 0)
(416.822 0.0234149 0)
(416.626 0.0213437 0)
(416.419 0.0315905 0)
(416.315 0.0201822 0)
(416.191 0.0216867 0)
(416.049 0.0285555 0)
(415.981 0.0248297 0)
(415.895 0.0284034 0)
(415.797 0.030912 0)
(415.686 0.0321634 0)
(415.557 0.0336918 0)
(415.412 0.0318922 0)
(415.247 0.0319081 0)
(415.067 0.030493 0)
(414.874 0.0281288 0)
(414.669 0.0270864 0)
(414.458 0.0238555 0)
(414.251 0.0228645 0)
(413.976 0.0255016 0)
(9.59285 -20.7632 0)
(10.9605 -6.51636 0)
(15.1977 -1.55559 0)
(14.5832 1.56054 0)
(11.5125 2.9467 0)
(6.11534 4.85058 0)
(-3.36613 7.55384 0)
(-18.662 11.6253 0)
(-41.7208 17.5982 0)
(-68.7603 23.7886 0)
(-91.2753 29.519 0)
(-108.752 28.989 0)
(-120.792 27.6197 0)
(-129.121 23.2494 0)
(-136.228 18.8364 0)
(-144.148 15.6192 0)
(-150.488 12.7146 0)
(-155.641 10.5252 0)
(-159.989 8.95819 0)
(-163.573 7.80678 0)
(-166.335 6.90513 0)
(-168.677 6.24523 0)
(-170.487 5.63976 0)
(-171.752 5.10077 0)
(-172.461 4.62261 0)
(-172.608 4.13266 0)
(-172.036 3.60429 0)
(-170.746 3.00045 0)
(-168.776 2.42979 0)
(-165.989 1.79587 0)
(-162.483 1.15704 0)
(-158.258 0.539986 0)
(-153.232 -0.108926 0)
(-147.505 -0.850181 0)
(-141.004 -1.49902 0)
(-133.842 -2.23961 0)
(-125.965 -2.89114 0)
(-117.451 -3.79935 0)
(-108.215 -4.50804 0)
(-98.4786 -5.2652 0)
(-88.2006 -5.83742 0)
(-77.6205 -6.77311 0)
(-66.3352 -7.50078 0)
(-54.8504 -8.27576 0)
(-42.9117 -8.7483 0)
(-30.9662 -9.60788 0)
(-18.3568 -10.3716 0)
(-5.64872 -11.0257 0)
(7.2678 -11.2545 0)
(20.0946 -11.8786 0)
(33.1132 -12.2148 0)
(46.096 -12.7978 0)
(58.9745 -12.7714 0)
(71.6548 -13.2068 0)
(84.3227 -13.3991 0)
(96.9896 -13.7052 0)
(109.39 -13.6042 0)
(121.661 -13.7595 0)
(133.703 -13.7074 0)
(145.549 -13.7242 0)
(157.06 -13.5387 0)
(168.242 -13.3595 0)
(179.083 -13.1368 0)
(189.59 -12.9005 0)
(199.818 -12.7009 0)
(209.751 -12.4644 0)
(219.363 -12.1792 0)
(228.754 -11.9479 0)
(237.771 -11.5338 0)
(246.441 -11.2501 0)
(254.846 -10.8382 0)
(262.754 -10.4153 0)
(270.48 -10.0775 0)
(277.764 -9.65356 0)
(284.944 -9.38652 0)
(291.789 -8.99002 0)
(298.484 -8.69172 0)
(304.867 -8.24055 0)
(310.954 -7.921 0)
(316.793 -7.47607 0)
(322.27 -7.16594 0)
(327.613 -6.84813 0)
(332.68 -6.46152 0)
(337.471 -6.21066 0)
(342.088 -5.86485 0)
(346.474 -5.61987 0)
(350.748 -5.36729 0)
(354.918 -5.15347 0)
(359.003 -4.85745 0)
(362.844 -4.62016 0)
(366.575 -4.3401 0)
(370.019 -4.11933 0)
(373.334 -3.89767 0)
(376.469 -3.71018 0)
(379.519 -3.54134 0)
(382.516 -3.39121 0)
(385.536 -3.19987 0)
(388.373 -3.01231 0)
(391.058 -2.84072 0)
(393.558 -2.69279 0)
(395.874 -2.5642 0)
(398.09 -2.44691 0)
(400.248 -2.33323 0)
(402.359 -2.21885 0)
(404.409 -2.10748 0)
(406.379 -2.00078 0)
(408.264 -1.90076 0)
(410.054 -1.80491 0)
(411.754 -1.71612 0)
(413.366 -1.64085 0)
(414.888 -1.57034 0)
(416.324 -1.50409 0)
(417.669 -1.44048 0)
(418.954 -1.38494 0)
(420.165 -1.32626 0)
(421.311 -1.28458 0)
(422.48 -1.23483 0)
(423.692 -1.15064 0)
(424.953 -1.09457 0)
(426.269 -0.967148 0)
(427.725 -1.01506 0)
(428.626 -0.899044 0)
(429.676 -0.906488 0)
(430.534 -0.890234 0)
(431.142 -0.836696 0)
(431.781 -0.836129 0)
(432.416 -0.816085 0)
(433.051 -0.783155 0)
(433.694 -0.734324 0)
(434.347 -0.696833 0)
(435.008 -0.655972 0)
(435.674 -0.626197 0)
(436.344 -0.600495 0)
(437.02 -0.565394 0)
(437.706 -0.522699 0)
(438.363 -0.493384 0)
(439.024 -0.466562 0)
(439.64 -0.4466 0)
(440.206 -0.428264 0)
(440.735 -0.410347 0)
(441.25 -0.389432 0)
(441.742 -0.376708 0)
(442.214 -0.358934 0)
(442.639 -0.347545 0)
(443.026 -0.331939 0)
(443.372 -0.321688 0)
(443.7 -0.307774 0)
(443.987 -0.294732 0)
(444.282 -0.273601 0)
(444.564 -0.264009 0)
(444.853 -0.241609 0)
(445.117 -0.233708 0)
(445.364 -0.226645 0)
(445.606 -0.215307 0)
(445.857 -0.205606 0)
(446.12 -0.186814 0)
(446.406 -0.166928 0)
(446.712 -0.140841 0)
(447.039 -0.118777 0)
(447.377 -0.108666 0)
(447.724 -0.0831066 0)
(448.089 -0.0993562 0)
(448.322 -0.0736411 0)
(448.561 -0.0651707 0)
(448.814 -0.0742368 0)
(448.953 -0.0719867 0)
(449.107 -0.0743841 0)
(449.18 -0.0732036 0)
(449.23 -0.0750643 0)
(449.282 -0.0705415 0)
(449.317 -0.0718725 0)
(449.36 -0.0705811 0)
(449.416 -0.0672019 0)
(449.485 -0.0512273 0)
(449.581 -0.0454851 0)
(449.69 -0.0278118 0)
(449.819 -0.0120053 0)
(449.967 -0.00630148 0)
(450.134 -0.000882802 0)
(450.258 0.00800934 0)
(450.383 0.013757 0)
(450.464 0.0155413 0)
(450.559 0.00876606 0)
(450.567 0.00257996 0)
(450.557 0.0027754 0)
(450.534 0.000857603 0)
(450.493 -0.00399203 0)
(450.431 -0.0067037 0)
(450.368 -0.00327035 0)
(450.306 -0.00177221 0)
(450.252 0.00228619 0)
(450.225 0.00405396 0)
(450.202 0.0236701 0)
(450.235 0.0167761 0)
(450.248 0.034049 0)
(450.285 0.0355576 0)
(450.314 0.0429097 0)
(450.324 0.0469745 0)
(450.312 0.0486109 0)
(450.282 0.045051 0)
(450.23 0.0421287 0)
(450.154 0.0328726 0)
(450.042 0.0317679 0)
(449.911 0.0293557 0)
(449.776 0.0270833 0)
(449.64 0.0249675 0)
(449.52 0.0290469 0)
(449.401 0.0224973 0)
(449.242 0.0565796 0)
(449.24 0.0361593 0)
(449.206 0.0394132 0)
(449.148 0.0544119 0)
(449.11 0.0540684 0)
(449.057 0.0574494 0)
(448.987 0.0621036 0)
(448.898 0.0601135 0)
(448.789 0.0562106 0)
(448.66 0.0534669 0)
(448.515 0.0495558 0)
(448.354 0.0460709 0)
(448.175 0.0440729 0)
(447.998 0.0405673 0)
(447.814 0.0359422 0)
(447.62 0.0631715 0)
(447.509 0.0437558 0)
(447.382 0.0453661 0)
(447.238 0.0587037 0)
(447.157 0.0559465 0)
(447.06 0.0591626 0)
(446.955 0.0626692 0)
(446.84 0.0638 0)
(446.71 0.0642664 0)
(446.567 0.061135 0)
(446.407 0.0594908 0)
(446.234 0.0569389 0)
(446.048 0.0533501 0)
(445.85 0.050595 0)
(445.647 0.0469526 0)
(445.444 0.0460163 0)
(445.168 0.0518014 0)
(5.81708 -25.5456 0)
(6.82845 -8.17274 0)
(10.1969 -1.9726 0)
(7.99369 2.82454 0)
(2.09258 5.84785 0)
(-7.48942 10.034 0)
(-23.0515 16.0012 0)
(-45.875 23.3898 0)
(-69.7295 31.3103 0)
(-89.0487 36.333 0)
(-103.288 37.4169 0)
(-113.091 35.732 0)
(-120.089 32.9579 0)
(-125.271 26.9874 0)
(-130.78 22.0625 0)
(-135.751 17.5824 0)
(-140.248 14.3583 0)
(-144.078 12.006 0)
(-147.412 10.2857 0)
(-150.19 9.0217 0)
(-152.272 7.98316 0)
(-154.034 7.18703 0)
(-155.292 6.45305 0)
(-156.045 5.78885 0)
(-156.254 5.11694 0)
(-155.811 4.39203 0)
(-154.702 3.68656 0)
(-152.852 2.9044 0)
(-150.288 2.13678 0)
(-146.932 1.29561 0)
(-142.786 0.441309 0)
(-137.877 -0.453022 0)
(-132.135 -1.36057 0)
(-125.655 -2.38546 0)
(-118.336 -3.29499 0)
(-110.327 -4.32697 0)
(-101.559 -5.22946 0)
(-92.1848 -6.50599 0)
(-82.0249 -7.52969 0)
(-71.3537 -8.63464 0)
(-60.0878 -9.41118 0)
(-48.5539 -10.7081 0)
(-36.2808 -11.7171 0)
(-23.8234 -12.7969 0)
(-10.9179 -13.4246 0)
(1.93798 -14.6165 0)
(15.4323 -15.6735 0)
(29.0049 -16.6117 0)
(42.781 -16.9105 0)
(56.4065 -17.7758 0)
(70.2095 -18.1942 0)
(83.8958 -18.9775 0)
(97.4095 -18.8707 0)
(110.648 -19.4494 0)
(123.809 -19.6405 0)
(136.895 -20.0975 0)
(149.618 -19.9945 0)
(162.183 -20.2325 0)
(174.422 -20.0953 0)
(186.41 -20.0649 0)
(197.96 -19.7099 0)
(209.142 -19.4233 0)
(219.908 -19.0348 0)
(230.296 -18.6567 0)
(240.358 -18.3202 0)
(250.066 -17.8983 0)
(259.396 -17.4433 0)
(268.479 -17.0391 0)
(277.117 -16.3845 0)
(285.369 -15.9025 0)
(293.292 -15.2347 0)
(300.684 -14.6203 0)
(307.892 -14.085 0)
(314.635 -13.474 0)
(321.284 -13.065 0)
(327.592 -12.4757 0)
(333.734 -12.0158 0)
(339.557 -11.3776 0)
(345.099 -10.914 0)
(350.379 -10.2981 0)
(355.335 -9.86197 0)
(360.162 -9.40102 0)
(364.725 -8.87499 0)
(369.01 -8.52115 0)
(373.137 -8.03706 0)
(377.014 -7.69503 0)
(380.808 -7.33226 0)
(384.503 -7.01667 0)
(388.115 -6.61038 0)
(391.499 -6.29004 0)
(394.789 -5.91926 0)
(397.818 -5.63885 0)
(400.743 -5.34304 0)
(403.503 -5.09716 0)
(406.196 -4.86131 0)
(408.845 -4.63417 0)
(411.515 -4.36929 0)
(414 -4.12631 0)
(416.358 -3.90867 0)
(418.554 -3.72704 0)
(420.599 -3.56546 0)
(422.562 -3.40569 0)
(424.474 -3.24574 0)
(426.343 -3.0865 0)
(428.158 -2.93576 0)
(429.901 -2.79481 0)
(431.573 -2.6642 0)
(433.162 -2.53945 0)
(434.673 -2.42435 0)
(436.106 -2.32756 0)
(437.464 -2.23862 0)
(438.752 -2.15309 0)
(439.951 -2.07096 0)
(441.11 -1.99768 0)
(442.19 -1.92109 0)
(443.228 -1.86219 0)
(444.287 -1.77712 0)
(445.381 -1.64745 0)
(446.522 -1.55174 0)
(447.699 -1.38042 0)
(448.995 -1.46374 0)
(449.816 -1.33311 0)
(450.743 -1.35093 0)
(451.565 -1.34815 0)
(452.132 -1.29424 0)
(452.727 -1.27586 0)
(453.322 -1.23695 0)
(453.916 -1.17987 0)
(454.514 -1.1026 0)
(455.121 -1.04261 0)
(455.733 -0.978427 0)
(456.347 -0.933265 0)
(456.967 -0.891777 0)
(457.591 -0.836688 0)
(458.221 -0.77627 0)
(458.825 -0.737883 0)
(459.435 -0.703159 0)
(460.004 -0.683217 0)
(460.534 -0.660947 0)
(461.034 -0.637072 0)
(461.522 -0.606987 0)
(461.991 -0.588629 0)
(462.443 -0.565654 0)
(462.855 -0.55245 0)
(463.232 -0.533229 0)
(463.568 -0.521011 0)
(463.887 -0.502262 0)
(464.166 -0.480866 0)
(464.451 -0.449731 0)
(464.722 -0.431736 0)
(464.998 -0.399943 0)
(465.244 -0.390846 0)
(465.483 -0.378367 0)
(465.716 -0.360541 0)
(465.956 -0.341807 0)
(466.208 -0.311957 0)
(466.48 -0.27841 0)
(466.77 -0.239047 0)
(467.079 -0.203585 0)
(467.399 -0.186501 0)
(467.727 -0.154312 0)
(468.069 -0.181541 0)
(468.303 -0.144145 0)
(468.536 -0.138906 0)
(468.779 -0.152754 0)
(468.926 -0.153848 0)
(469.083 -0.160676 0)
(469.169 -0.158118 0)
(469.23 -0.156642 0)
(469.294 -0.148696 0)
(469.341 -0.148959 0)
(469.396 -0.14139 0)
(469.461 -0.129597 0)
(469.536 -0.106498 0)
(469.636 -0.0878587 0)
(469.75 -0.0629623 0)
(469.879 -0.0388169 0)
(470.024 -0.0212549 0)
(470.189 -0.0171127 0)
(470.313 -0.00777466 0)
(470.439 -0.00128064 0)
(470.523 -0.000413775 0)
(470.62 -0.0118091 0)
(470.647 -0.0211268 0)
(470.646 -0.0219367 0)
(470.636 -0.0268889 0)
(470.609 -0.0336109 0)
(470.565 -0.0374051 0)
(470.52 -0.0294231 0)
(470.474 -0.0231526 0)
(470.434 -0.0124736 0)
(470.415 -0.00266645 0)
(470.401 0.0184603 0)
(470.431 0.0223332 0)
(470.448 0.0426805 0)
(470.486 0.0484466 0)
(470.516 0.0557588 0)
(470.53 0.0601037 0)
(470.521 0.0618997 0)
(470.498 0.0548633 0)
(470.455 0.0472457 0)
(470.389 0.0348943 0)
(470.292 0.0322331 0)
(470.175 0.0280173 0)
(470.054 0.0271123 0)
(469.931 0.0249061 0)
(469.823 0.0344731 0)
(469.711 0.0292503 0)
(469.571 0.0790448 0)
(469.56 0.0579188 0)
(469.523 0.0598282 0)
(469.468 0.0787517 0)
(469.426 0.0821256 0)
(469.371 0.0853445 0)
(469.301 0.0891897 0)
(469.214 0.0843197 0)
(469.109 0.0778778 0)
(468.987 0.0726696 0)
(468.85 0.0672992 0)
(468.697 0.0602825 0)
(468.529 0.0587138 0)
(468.36 0.0561875 0)
(468.183 0.049813 0)
(468.002 0.091879 0)
(467.886 0.0681113 0)
(467.758 0.0703917 0)
(467.615 0.0902402 0)
(467.526 0.0889535 0)
(467.424 0.0915816 0)
(467.313 0.0955612 0)
(467.194 0.0960134 0)
(467.063 0.0944008 0)
(466.919 0.0898138 0)
(466.761 0.0861845 0)
(466.59 0.0823258 0)
(466.407 0.0773787 0)
(466.214 0.0729991 0)
(466.016 0.0697813 0)
(465.816 0.069527 0)
(465.543 0.0789241 0)
(2.77522 -28.409 0)
(3.25209 -9.65739 0)
(4.66356 -2.0191 0)
(0.819519 6.31726 0)
(-8.91358 11.5821 0)
(-23.6606 18.7008 0)
(-44.6009 27.9264 0)
(-65.5906 37.3226 0)
(-82.7125 42.3252 0)
(-95.3583 43.776 0)
(-104.16 43.2797 0)
(-110.581 39.8855 0)
(-115.075 34.9135 0)
(-118.05 28.882 0)
(-121.822 23.8711 0)
(-125.261 19.5024 0)
(-128.606 16.1773 0)
(-131.553 13.6454 0)
(-134.152 11.7348 0)
(-136.305 10.2974 0)
(-137.841 9.08446 0)
(-139.094 8.1095 0)
(-139.853 7.21049 0)
(-140.111 6.34145 0)
(-139.766 5.44912 0)
(-138.768 4.51354 0)
(-137.069 3.57262 0)
(-134.64 2.52802 0)
(-131.423 1.47269 0)
(-127.387 0.301634 0)
(-122.492 -0.853711 0)
(-116.791 -2.09417 0)
(-110.204 -3.31972 0)
(-102.844 -4.7206 0)
(-94.5672 -5.98691 0)
(-85.5731 -7.40605 0)
(-75.7521 -8.63615 0)
(-65.3429 -10.3115 0)
(-54.0662 -11.6957 0)
(-42.2924 -13.1908 0)
(-29.8325 -14.2158 0)
(-17.1476 -15.9273 0)
(-3.65346 -17.281 0)
(9.99536 -18.6855 0)
(24.0691 -19.412 0)
(38.0365 -20.9299 0)
(52.6362 -22.2281 0)
(67.2815 -23.4601 0)
(82.0971 -23.8049 0)
(96.6664 -24.9181 0)
(111.395 -25.3631 0)
(125.896 -26.3092 0)
(140.142 -26.0581 0)
(154.035 -26.8129 0)
(167.852 -26.9441 0)
(181.493 -27.4343 0)
(194.613 -27.0936 0)
(207.535 -27.3694 0)
(219.974 -26.9988 0)
(232.084 -26.9049 0)
(243.604 -26.2507 0)
(254.649 -25.8381 0)
(265.186 -25.2063 0)
(275.225 -24.6252 0)
(284.901 -24.1109 0)
(294.148 -23.4461 0)
(302.92 -22.802 0)
(311.446 -22.172 0)
(319.42 -21.2796 0)
(327.001 -20.5978 0)
(334.244 -19.6861 0)
(340.936 -18.8733 0)
(347.459 -18.129 0)
(353.49 -17.3258 0)
(359.448 -16.74 0)
(365.05 -15.9532 0)
(370.487 -15.3199 0)
(375.588 -14.5003 0)
(380.438 -13.8877 0)
(385.01 -13.108 0)
(389.297 -12.5403 0)
(393.469 -11.93 0)
(397.367 -11.2578 0)
(400.995 -10.779 0)
(404.471 -10.1323 0)
(407.697 -9.69642 0)
(410.867 -9.2111 0)
(413.967 -8.79026 0)
(416.991 -8.27685 0)
(419.813 -7.88281 0)
(422.562 -7.42379 0)
(425.084 -7.09228 0)
(427.518 -6.72129 0)
(429.803 -6.4213 0)
(432.037 -6.11393 0)
(434.238 -5.80657 0)
(436.459 -5.46231 0)
(438.499 -5.17334 0)
(440.445 -4.91418 0)
(442.25 -4.70541 0)
(443.943 -4.51542 0)
(445.57 -4.31573 0)
(447.153 -4.11059 0)
(448.698 -3.90661 0)
(450.196 -3.71711 0)
(451.635 -3.54436 0)
(453.018 -3.38623 0)
(454.333 -3.23646 0)
(455.583 -3.09839 0)
(456.764 -2.98199 0)
(457.89 -2.87693 0)
(458.959 -2.7727 0)
(459.949 -2.67587 0)
(460.913 -2.58054 0)
(461.798 -2.4922 0)
(462.669 -2.41297 0)
(463.559 -2.29569 0)
(464.473 -2.12048 0)
(465.435 -1.98604 0)
(466.413 -1.76812 0)
(467.493 -1.86264 0)
(468.179 -1.73794 0)
(468.929 -1.75018 0)
(469.651 -1.78721 0)
(470.122 -1.73637 0)
(470.617 -1.70029 0)
(471.116 -1.64448 0)
(471.617 -1.56895 0)
(472.117 -1.4654 0)
(472.626 -1.38286 0)
(473.14 -1.2934 0)
(473.658 -1.23031 0)
(474.184 -1.17201 0)
(474.714 -1.09886 0)
(475.248 -1.02085 0)
(475.76 -0.969918 0)
(476.278 -0.926233 0)
(476.76 -0.905804 0)
(477.215 -0.881062 0)
(477.646 -0.85431 0)
(478.067 -0.816772 0)
(478.47 -0.793877 0)
(478.863 -0.767394 0)
(479.22 -0.753454 0)
(479.549 -0.731226 0)
(479.84 -0.717008 0)
(480.117 -0.695813 0)
(480.358 -0.66639 0)
(480.603 -0.62501 0)
(480.835 -0.598788 0)
(481.071 -0.556336 0)
(481.275 -0.545983 0)
(481.478 -0.527129 0)
(481.677 -0.504912 0)
(481.884 -0.476727 0)
(482.101 -0.435297 0)
(482.335 -0.387373 0)
(482.587 -0.334726 0)
(482.855 -0.285702 0)
(483.136 -0.260591 0)
(483.423 -0.218426 0)
(483.72 -0.254008 0)
(483.934 -0.215115 0)
(484.136 -0.20961 0)
(484.347 -0.226269 0)
(484.477 -0.230459 0)
(484.617 -0.242354 0)
(484.691 -0.244312 0)
(484.743 -0.24095 0)
(484.796 -0.230086 0)
(484.836 -0.228134 0)
(484.881 -0.212257 0)
(484.937 -0.193568 0)
(485.001 -0.161914 0)
(485.088 -0.130858 0)
(485.188 -0.09925 0)
(485.303 -0.0648145 0)
(485.43 -0.0353389 0)
(485.577 -0.0322606 0)
(485.688 -0.0213587 0)
(485.798 -0.0167137 0)
(485.872 -0.0154377 0)
(485.954 -0.0332368 0)
(485.978 -0.0443488 0)
(485.976 -0.0478435 0)
(485.964 -0.0558677 0)
(485.939 -0.0652326 0)
(485.897 -0.0708384 0)
(485.856 -0.0584158 0)
(485.814 -0.0468753 0)
(485.774 -0.0282412 0)
(485.755 -0.0114453 0)
(485.734 0.0145656 0)
(485.759 0.029371 0)
(485.769 0.0529913 0)
(485.8 0.0631131 0)
(485.823 0.0695267 0)
(485.831 0.0741251 0)
(485.819 0.0754793 0)
(485.794 0.0643559 0)
(485.751 0.0519935 0)
(485.687 0.0366465 0)
(485.593 0.0325902 0)
(485.482 0.024711 0)
(485.366 0.025413 0)
(485.25 0.0240138 0)
(485.145 0.0385104 0)
(485.036 0.036946 0)
(484.907 0.0976287 0)
(484.886 0.0828382 0)
(484.843 0.0833311 0)
(484.787 0.104593 0)
(484.737 0.111793 0)
(484.676 0.115091 0)
(484.603 0.117046 0)
(484.514 0.109583 0)
(484.409 0.100495 0)
(484.288 0.0926049 0)
(484.153 0.0854796 0)
(484.005 0.0748662 0)
(483.841 0.0727794 0)
(483.676 0.0731117 0)
(483.503 0.0649209 0)
(483.332 0.118575 0)
(483.21 0.0946692 0)
(483.08 0.0976512 0)
(482.938 0.123321 0)
(482.84 0.124418 0)
(482.732 0.126642 0)
(482.616 0.130409 0)
(482.492 0.130238 0)
(482.357 0.126581 0)
(482.211 0.12025 0)
(482.052 0.11453 0)
(481.881 0.109088 0)
(481.699 0.102663 0)
(481.508 0.0965676 0)
(481.312 0.0935811 0)
(481.114 0.0941449 0)
(480.842 0.107563 0)
(0.0368406 -29.6725 0)
(0.40521 -9.2622 0)
(-3.39421 -1.00569 0)
(-8.86793 10.7664 0)
(-22.062 19.5976 0)
(-40.7986 29.6655 0)
(-59.5386 40.3896 0)
(-75.1482 46.5418 0)
(-86.6959 49.1943 0)
(-95.0101 49.1607 0)
(-100.984 46.5444 0)
(-104.823 41.6346 0)
(-107.259 36.123 0)
(-109.222 30.2343 0)
(-111.671 25.2266 0)
(-114.125 20.866 0)
(-116.581 17.4682 0)
(-118.778 14.8134 0)
(-120.702 12.7595 0)
(-122.246 11.1783 0)
(-123.22 9.82208 0)
(-123.938 8.67666 0)
(-124.14 7.58736 0)
(-123.812 6.49943 0)
(-122.832 5.4066 0)
(-121.215 4.22551 0)
(-118.843 3.01209 0)
(-115.7 1.66044 0)
(-111.699 0.290566 0)
(-106.839 -1.24221 0)
(-101.038 -2.73714 0)
(-94.3813 -4.3644 0)
(-86.7641 -5.93943 0)
(-78.3414 -7.76579 0)
(-68.8975 -9.42058 0)
(-58.7175 -11.2771 0)
(-47.6043 -12.8557 0)
(-35.9122 -15.0057 0)
(-23.238 -16.7677 0)
(-10.1441 -18.6559 0)
(3.78205 -19.9532 0)
(17.888 -22.0905 0)
(32.9028 -23.7555 0)
(48.1193 -25.5562 0)
(63.8659 -26.4253 0)
(79.4829 -28.3541 0)
(95.7661 -29.8582 0)
(112.03 -31.3638 0)
(128.326 -31.6294 0)
(144.241 -32.9903 0)
(160.278 -33.3668 0)
(175.912 -34.4255 0)
(191.148 -33.8444 0)
(205.825 -34.7845 0)
(220.483 -34.7616 0)
(234.675 -35.2147 0)
(248.305 -34.5309 0)
(261.435 -34.7868 0)
(274.079 -34.1 0)
(286.069 -33.8037 0)
(297.509 -32.8362 0)
(308.059 -32.1297 0)
(318.198 -31.2184 0)
(327.53 -30.345 0)
(336.552 -29.6049 0)
(345.052 -28.6379 0)
(352.934 -27.7534 0)
(360.622 -26.8466 0)
(367.587 -25.6725 0)
(374.196 -24.7554 0)
(380.438 -23.5727 0)
(386.098 -22.5707 0)
(391.621 -21.6093 0)
(396.587 -20.6159 0)
(401.542 -19.8565 0)
(406.095 -18.8665 0)
(410.518 -18.0603 0)
(414.568 -17.0759 0)
(418.431 -16.3274 0)
(421.992 -15.4015 0)
(425.316 -14.7221 0)
(428.562 -13.9699 0)
(431.527 -13.2023 0)
(434.33 -12.6304 0)
(437.011 -11.8455 0)
(439.473 -11.336 0)
(441.907 -10.732 0)
(444.315 -10.2152 0)
(446.657 -9.61102 0)
(448.837 -9.16574 0)
(450.964 -8.63461 0)
(452.905 -8.2614 0)
(454.753 -7.80663 0)
(456.474 -7.4563 0)
(458.159 -7.08157 0)
(459.829 -6.69709 0)
(461.519 -6.28099 0)
(463.041 -5.96614 0)
(464.517 -5.68069 0)
(465.869 -5.46087 0)
(467.15 -5.25352 0)
(468.379 -5.02134 0)
(469.571 -4.7785 0)
(470.731 -4.53648 0)
(471.855 -4.31565 0)
(472.933 -4.11985 0)
(473.974 -3.94159 0)
(474.961 -3.7747 0)
(475.899 -3.62189 0)
(476.776 -3.49406 0)
(477.622 -3.37925 0)
(478.422 -3.2647 0)
(479.158 -3.16405 0)
(479.877 -3.04939 0)
(480.528 -2.96085 0)
(481.189 -2.86303 0)
(481.866 -2.70428 0)
(482.555 -2.4824 0)
(483.294 -2.30303 0)
(484.03 -2.07419 0)
(484.852 -2.15414 0)
(485.366 -2.06355 0)
(485.907 -2.08301 0)
(486.467 -2.13799 0)
(486.817 -2.12005 0)
(487.178 -2.06988 0)
(487.543 -1.99452 0)
(487.911 -1.89505 0)
(488.274 -1.76565 0)
(488.651 -1.66197 0)
(489.03 -1.55029 0)
(489.42 -1.47397 0)
(489.82 -1.39705 0)
(490.224 -1.30548 0)
(490.631 -1.21621 0)
(491.022 -1.15706 0)
(491.419 -1.10781 0)
(491.787 -1.09032 0)
(492.139 -1.06305 0)
(492.472 -1.0344 0)
(492.796 -0.991932 0)
(493.105 -0.966005 0)
(493.409 -0.937172 0)
(493.682 -0.925496 0)
(493.934 -0.902882 0)
(494.152 -0.887494 0)
(494.36 -0.864072 0)
(494.539 -0.827283 0)
(494.72 -0.778337 0)
(494.889 -0.74462 0)
(495.062 -0.693704 0)
(495.204 -0.679983 0)
(495.348 -0.658264 0)
(495.493 -0.629943 0)
(495.645 -0.592646 0)
(495.807 -0.539142 0)