/*--------------------------------*- C++ -*----------------------------------*\
| =========                 |                                                 |
| \\      /  F ield         | OpenFOAM: The Open Source CFD Toolbox           |
|  \\    /   O peration     | Version:  2312                                  |
|   \\  /    A nd           | Website:  www.openfoam.com                      |
|    \\/     M anipulation  |                                                 |
\*---------------------------------------------------------------------------*/
FoamFile
{
    version     2.0;
    format      ascii;
    arch        "LSB;label=32;scalar=64";
    class       volScalarField;
    location    "0.1";
    object      cSound;
}
// * * * * * * * * * * * * * * * * * * * * * * * * * * * * * * * * * * * * * //

dimensions      [0 1 -1 0 0 0 0];

internalField   nonuniform List<scalar> 
100
(
446.276
446.182
446.122
446.062
445.996
445.928
445.858
445.783
445.705
445.623
445.537
445.446
445.351
445.25
445.144
445.032
444.914
444.789
444.656
444.515
444.365
444.206
444.036
443.855
443.661
443.454
443.231
442.991
442.733
442.454
442.152
441.824
441.467
441.077
440.649
440.177
439.657
439.078
438.432
437.705
436.882
435.942
434.858
433.591
432.087
430.263
427.99
425.037
420.926
414.561
398.107
389.826
383.878
378.766
374.18
370.022
366.207
362.672
359.376
356.28
353.362
350.598
347.972
345.469
343.08
340.791
338.598
336.498
334.469
332.546
330.631
328.856
327.056
325.45
324.076
323.928
357.955
430.046
436.552
437.226
437.69
438.22
438.679
439.097
439.486
439.848
440.186
440.502
440.797
441.075
441.336
441.582
441.813
442.03
442.233
442.419
442.586
442.722
442.808
442.97
)
;

boundaryField
{
    inlet
    {
        type            calculated;
        value           uniform 446.388;
    }
    outlet
    {
        type            calculated;
        value           uniform 442.97;
    }
    upperWall
    {
        type            calculated;
        value           nonuniform List<scalar> 
100
(
446.276
446.182
446.122
446.062
445.996
445.928
445.858
445.783
445.705
445.623
445.537
445.446
445.351
445.25
445.144
445.032
444.914
444.789
444.656
444.515
444.365
444.206
444.036
443.855
443.661
443.454
443.231
442.991
442.733
442.454
442.152
441.824
441.467
441.077
440.649
440.177
439.657
439.078
438.432
437.705
436.882
435.942
434.858
433.591
432.087
430.263
427.99
425.037
420.926
414.561
398.107
389.826
383.878
378.766
374.18
370.022
366.207
362.672
359.376
356.28
353.362
350.598
347.972
345.469
343.08
340.791
338.598
336.498
334.469
332.546
330.631
328.856
327.056
325.45
324.076
323.928
357.955
430.046
436.552
437.226
437.69
438.22
438.679
439.097
439.486
439.848
440.186
440.502
440.797
441.075
441.336
441.582
441.813
442.03
442.233
442.419
442.586
442.722
442.808
442.97
)
;
    }
    lowerWall
    {
        type            calculated;
        value           nonuniform List<scalar> 
100
(
446.276
446.182
446.122
446.062
445.996
445.928
445.858
445.783
445.705
445.623
445.537
445.446
445.351
445.25
445.144
445.032
444.914
444.789
444.656
444.515
444.365
444.206
444.036
443.855
443.661
443.454
443.231
442.991
442.733
442.454
442.152
441.824
441.467
441.077
440.649
440.177
439.657
439.078
438.432
437.705
436.882
435.942
434.858
433.591
432.087
430.263
427.99
425.037
420.926
414.561
398.107
389.826
383.878
378.766
374.18
370.022
366.207
362.672
359.376
356.28
353.362
350.598
347.972
345.469
343.08
340.791
338.598
336.498
334.469
332.546
330.631
328.856
327.056
325.45
324.076
323.928
357.955
430.046
436.552
437.226
437.69
438.22
438.679
439.097
439.486
439.848
440.186
440.502
440.797
441.075
441.336
441.582
441.813
442.03
442.233
442.419
442.586
442.722
442.808
442.97
)
;
    }
    frontAndBack
    {
        type            empty;
    }
}


// ************************************************************************* //
