/*--------------------------------*- C++ -*----------------------------------*\
| =========                 |                                                 |
| \\      /  F ield         | OpenFOAM: The Open Source CFD Toolbox           |
|  \\    /   O peration     | Version:  2312                                  |
|   \\  /    A nd           | Website:  www.openfoam.com                      |
|    \\/     M anipulation  |                                                 |
\*---------------------------------------------------------------------------*/
FoamFile
{
    version     2.0;
    format      ascii;
    arch        "LSB;label=32;scalar=64";
    class       volScalarField;
    location    "0.1";
    object      rho;
}
// * * * * * * * * * * * * * * * * * * * * * * * * * * * * * * * * * * * * * //

dimensions      [1 -3 0 0 0 0 0];

internalField   nonuniform List<scalar> 
100
(
2.11252
2.10857
2.10593
2.10486
2.10354
2.10206
2.10056
2.09898
2.09732
2.09557
2.09374
2.09182
2.0898
2.08767
2.08542
2.08305
2.08055
2.0779
2.0751
2.07213
2.06899
2.06564
2.06209
2.0583
2.05425
2.04992
2.04529
2.04032
2.03497
2.02922
2.023
2.01627
2.00896
2.00101
1.99232
1.9828
1.97234
1.96077
1.94794
1.93362
1.91753
1.89934
1.87859
1.85467
1.82672
1.79352
1.75311
1.70236
1.63405
1.53814
1.27855
1.11466
1.02067
0.949127
0.888327
0.836973
0.791867
0.75249
0.716988
0.685403
0.656364
0.630244
0.605875
0.583807
0.562975
0.544027
0.525965
0.509489
0.493651
0.479231
0.465164
0.452396
0.439698
0.428572
0.413846
0.411594
0.487906
0.856667
1.1407
1.16228
1.16712
1.17381
1.18105
1.18701
1.19267
1.19795
1.20289
1.20752
1.21187
1.21596
1.21981
1.22345
1.2269
1.23016
1.23328
1.23626
1.23896
1.24188
1.24414
1.24069
)
;

boundaryField
{
    inlet
    {
        type            calculated;
        value           uniform 2.10777;
    }
    outlet
    {
        type            calculated;
        value           uniform 1.24859;
    }
    upperWall
    {
        type            calculated;
        value           nonuniform List<scalar> 
100
(
2.11252
2.10857
2.10593
2.10486
2.10354
2.10206
2.10056
2.09898
2.09732
2.09557
2.09374
2.09182
2.0898
2.08767
2.08542
2.08305
2.08055
2.0779
2.0751
2.07213
2.06899
2.06564
2.06209
2.0583
2.05425
2.04992
2.04529
2.04032
2.03497
2.02922
2.023
2.01627
2.00896
2.00101
1.99232
1.9828
1.97234
1.96077
1.94794
1.93362
1.91753
1.89934
1.87859
1.85467
1.82672
1.79352
1.75311
1.70236
1.63405
1.53814
1.27855
1.11466
1.02067
0.949127
0.888327
0.836973
0.791867
0.75249
0.716988
0.685403
0.656364
0.630244
0.605875
0.583807
0.562975
0.544027
0.525965
0.509489
0.493651
0.479231
0.465164
0.452396
0.439698
0.428572
0.413846
0.411594
0.487906
0.856667
1.1407
1.16228
1.16712
1.17381
1.18105
1.18701
1.19267
1.19795
1.20289
1.20752
1.21187
1.21596
1.21981
1.22345
1.2269
1.23016
1.23328
1.23626
1.23896
1.24188
1.24414
1.24069
)
;
    }
    lowerWall
    {
        type            calculated;
        value           nonuniform List<scalar> 
100
(
2.11252
2.10857
2.10593
2.10486
2.10354
2.10206
2.10056
2.09898
2.09732
2.09557
2.09374
2.09182
2.0898
2.08767
2.08542
2.08305
2.08055
2.0779
2.0751
2.07213
2.06899
2.06564
2.06209
2.0583
2.05425
2.04992
2.04529
2.04032
2.03497
2.02922
2.023
2.01627
2.00896
2.00101
1.99232
1.9828
1.97234
1.96077
1.94794
1.93362
1.91753
1.89934
1.87859
1.85467
1.82672
1.79352
1.75311
1.70236
1.63405
1.53814
1.27855
1.11466
1.02067
0.949127
0.888327
0.836973
0.791867
0.75249
0.716988
0.685403
0.656364
0.630244
0.605875
0.583807
0.562975
0.544027
0.525965
0.509489
0.493651
0.479231
0.465164
0.452396
0.439698
0.428572
0.413846
0.411594
0.487906
0.856667
1.1407
1.16228
1.16712
1.17381
1.18105
1.18701
1.19267
1.19795
1.20289
1.20752
1.21187
1.21596
1.21981
1.22345
1.2269
1.23016
1.23328
1.23626
1.23896
1.24188
1.24414
1.24069
)
;
    }
    frontAndBack
    {
        type            empty;
    }
}


// ************************************************************************* //
