/*--------------------------------*- C++ -*----------------------------------*\
| =========                 |                                                 |
| \\      /  F ield         | OpenFOAM: The Open Source CFD Toolbox           |
|  \\    /   O peration     | Version:  2312                                  |
|   \\  /    A nd           | Website:  www.openfoam.com                      |
|    \\/     M anipulation  |                                                 |
\*---------------------------------------------------------------------------*/
FoamFile
{
    version     2.0;
    format      ascii;
    arch        "LSB;label=32;scalar=64";
    class       volVectorField;
    location    "0.1";
    object      U;
}
// * * * * * * * * * * * * * * * * * * * * * * * * * * * * * * * * * * * * * //

dimensions      [0 1 -1 0 0 0 0];

internalField   nonuniform List<vector> 
100
(
(90.4814 -1.83394e-12 0)
(92.1006 -1.83765e-12 2.20174e-15)
(93.5356 -1.80874e-12 0)
(94.8923 -1.83443e-12 -2.40244e-15)
(96.3105 -1.82754e-12 0)
(97.7746 -1.82847e-12 -2.46073e-15)
(99.2726 -1.81721e-12 0)
(100.819 -1.82479e-12 -2.53146e-15)
(102.418 -1.80402e-12 -2.56856e-15)
(104.068 -1.82741e-12 -2.60702e-15)
(105.775 -1.82013e-12 0)
(107.54 -1.82182e-12 -2.68671e-15)
(109.367 -1.80982e-12 0)
(111.259 -1.81802e-12 0)
(113.221 -1.79788e-12 -2.81587e-15)
(115.255 -1.81855e-12 0)
(117.367 -1.81528e-12 -5.81782e-15)
(119.561 -1.81373e-12 0)
(121.842 -1.80964e-12 -3.00812e-15)
(124.216 -1.8088e-12 -3.06015e-15)
(126.689 -1.80214e-12 -3.11384e-15)
(129.267 -1.80334e-12 0)
(131.957 -1.7932e-12 -3.22675e-15)
(134.769 -1.80041e-12 0)
(137.709 -1.78319e-12 -3.34783e-15)
(140.789 -1.80067e-12 0)
(144.019 -1.77135e-12 0)
(147.411 -1.77153e-12 0)
(150.978 -1.76272e-12 -3.61788e-15)
(154.736 -1.76758e-12 0)
(158.701 -1.75492e-12 -3.76883e-15)
(162.893 -1.76783e-12 0)
(167.333 -1.74428e-12 0)
(172.048 -1.73958e-12 0)
(177.066 -1.74226e-12 -4.10789e-15)
(182.421 -1.7347e-12 -4.20124e-15)
(188.155 -1.73987e-12 0)
(194.313 -1.72754e-12 0)
(200.953 -1.73959e-12 0)
(208.145 -1.74845e-12 0)
(215.976 -1.73243e-12 0)
(224.553 -1.75316e-12 0)
(234.017 -1.75153e-12 0)
(244.557 -1.75062e-12 0)
(256.431 -1.74927e-12 5.2002e-15)
(270.016 -1.74785e-12 0)
(285.891 -1.74589e-12 -5.4278e-15)
(305.019 -1.74468e-12 0)
(329.418 -1.74244e-12 0)
(363.513 -1.74227e-12 0)
(438.624 -1.73581e-12 0)
(481.636 -1.74351e-12 0)
(507.49 -1.73441e-12 0)
(527.21 -1.72942e-12 4.36257e-15)
(544.539 -1.73282e-12 0)
(558.981 -1.72599e-12 3.89051e-15)
(572.24 -1.72933e-12 0)
(583.556 -1.7236e-12 0)
(594.319 -1.73276e-12 0)
(603.596 -1.72709e-12 0)
(612.672 -1.72982e-12 0)
(620.506 -1.7298e-12 0)
(628.355 -1.72772e-12 0)
(635.107 -1.7295e-12 0)
(642.017 -1.72763e-12 2.58291e-15)
(647.927 -1.72433e-12 0)
(654.093 -1.7253e-12 2.39472e-15)
(659.318 -1.72335e-12 0)
(664.882 -1.72179e-12 2.22931e-15)
(669.521 -1.72196e-12 0)
(674.617 -1.71891e-12 0)
(678.779 -1.71758e-12 0)
(683.497 -1.71715e-12 1.95221e-15)
(687.161 -1.71745e-12 0)
(692.025 -1.71672e-12 1.80784e-15)
(692.715 -1.71717e-12 0)
(635.57 -1.71748e-12 1.75874e-15)
(328.299 -1.71252e-12 0)
(233.3 -1.72677e-12 -2.99516e-15)
(225.011 -1.7202e-12 0)
(220.577 -1.72801e-12 5.90544e-15)
(215.381 -1.71492e-12 0)
(210.32 -1.72951e-12 2.88834e-15)
(205.701 -1.70518e-12 2.84792e-15)
(201.283 -1.72626e-12 -2.80448e-15)
(197.081 -1.71331e-12 2.76266e-15)
(193.079 -1.71885e-12 0)
(189.26 -1.70619e-12 0)
(185.61 -1.7151e-12 2.64349e-15)
(182.116 -1.70207e-12 0)
(178.768 -1.7142e-12 2.56902e-15)
(175.555 -1.7161e-12 2.53327e-15)
(172.468 -1.71381e-12 2.49826e-15)
(169.496 -1.71422e-12 0)
(166.638 -1.71008e-12 2.43205e-15)
(163.888 -1.7071e-12 2.39308e-15)
(161.192 -1.70144e-12 2.35835e-15)
(158.728 -1.69885e-12 0)
(156.414 -1.6925e-12 -2.19458e-15)
(152.939 -1.69085e-12 0)
)
;

boundaryField
{
    inlet
    {
        type            zeroGradient;
    }
    outlet
    {
        type            zeroGradient;
    }
    upperWall
    {
        type            slip;
    }
    lowerWall
    {
        type            slip;
    }
    frontAndBack
    {
        type            empty;
    }
}


// ************************************************************************* //
