/*--------------------------------*- C++ -*----------------------------------*\
| =========                 |                                                 |
| \\      /  F ield         | OpenFOAM: The Open Source CFD Toolbox           |
|  \\    /   O peration     | Version:  2312                                  |
|   \\  /    A nd           | Website:  www.openfoam.com                      |
|    \\/     M anipulation  |                                                 |
\*---------------------------------------------------------------------------*/
FoamFile
{
    version     2.0;
    format      ascii;
    arch        "LSB;label=32;scalar=64";
    class       volScalarField;
    location    "0.0006";
    object      cSound;
}
// * * * * * * * * * * * * * * * * * * * * * * * * * * * * * * * * * * * * * //

dimensions      [0 1 -1 0 0 0 0];

internalField   nonuniform List<scalar> 
28800
(
315.13780841042
314.97759338001
314.78779551373
314.56297739895
314.29381852524
313.96747835793
313.56965282921
313.08824087747
312.51712506513
311.8579515504
311.11911391358
310.31287690546
309.45205129608
308.54742064779
307.60651669526
306.63355825138
305.63005746708
304.59588314159
303.53002230416
302.43150605006
301.29974669634
300.13480393503
298.9373664911
297.70796217869
296.45036968647
295.16952098057
293.87203797198
292.55574291591
291.21839638898
289.88137287391
288.54534603822
287.20696502881
285.87462161078
284.54908778427
283.21638126947
281.88283122903
280.55282896003
279.20663273043
277.86225812361
276.50676091062
275.13224188693
273.76741709857
272.38674152164
270.98758300992
269.59900961312
268.1932281373
266.76617441897
265.37972342047
263.97263752863
262.60491870436
261.27105914432
259.92925754191
258.653116056
257.36763581834
256.14838421535
254.9300737856
253.70503155839
252.5142569084
251.30946493503
250.13539099003
248.95610799904
247.77008575794
246.57154073103
245.40811770958
244.23767830299
243.05310643925
241.88952985163
240.72485015174
239.53514175198
238.38808726716
237.25690050225
236.10374990109
234.98377260821
233.85694348055
232.73062564061
231.65071162735
230.56412119426
229.51753991822
228.46502270173
227.43394787784
226.42474660994
225.40972728261
224.4312835197
223.48556315159
222.51075648961
221.53811904514
220.6316782123
219.71422487775
218.7913705131
217.89217255562
217.02446044956
216.13704260179
215.25733789828
214.41840008822
213.56072215875
212.72644794255
211.88345441423
211.06630180343
210.25081362307
209.43034726648
208.63459272903
207.82701199791
207.05399349355
206.25418226408
205.4424680664
204.29608893753
204.64245465379
210.39300422055
244.70687687757
311.61513302371
354.82286231907
358.53765915717
358.27952681591
358.83939936277
361.24090322662
363.08929159275
362.23557026643
358.25355490698
351.01073991624
344.53912496431
341.43716652279
339.93968289996
339.1056450965
338.49008470358
337.88528218287
337.16410364587
336.72604245504
336.74768173114
336.9691769564
337.40928561198
338.07099139369
338.93469575564
339.96108975406
341.11846182632
342.38234284146
343.72347852811
344.94086685663
345.88529502801
346.63613653709
347.22158975656
347.67451119626
348.03195394735
348.28930571945
348.42307775467
348.44775953322
348.41565087882
348.30645620358
348.12429321587
347.91200687562
347.71062845894
347.53169855617
347.37680415848
347.24774455574
347.14158348041
347.06524143028
347.03424009907
346.99715272728
346.92351633661
346.78777842709
346.57814018367
346.29384421444
345.94203598548
345.533554536
345.08053559285
344.59320344406
344.077752737
343.53668166801
342.96853444723
342.3797638104
341.77094875396
341.15053578388
340.51027158275
339.91640950722
339.31409226824
338.7156247834
338.11436047255
337.50172531821
336.90601961895
336.30737887609
335.68424928736
335.03042536297
334.31043847858
333.48238021655
332.51189522184
331.3534178007
329.99536650726
328.43415642167
326.6799422805
324.77254212645
322.90923379452
321.41207241431
320.26831608019
319.32046275127
318.59614398964
318.09005411032
317.64607357951
317.18740796818
316.66023413396
316.00339778263
315.17769628124
314.21226258318
313.09985256548
311.82575452467
310.51029213527
309.29212273775
308.16951588016
307.14702339778
306.19140184011
305.31964323836
304.51760065283
303.80068196438
303.16166917877
302.60399209037
302.13368728964
301.75132038958
301.45501531624
301.21822810146
301.01791889913
300.85417732457
300.71695737165
300.60275732972
300.50021287284
300.41939685218
300.36328252513
300.30859531875
300.24870695522
300.17152433664
300.06640507848
299.92503878809
299.74299790731
299.52027930468
299.26014128803
298.97640849608
298.69044989962
298.40892405655
298.15762786173
297.9158353309
297.7050411596
297.53344059494
297.40666139417
315.13777984284
314.97757330953
314.78775693635
314.56248947982
314.29204402002
313.96340184235
313.5624752659
313.0778048628
312.50398883472
311.84305945535
311.10330559414
310.29659203614
309.43528433587
308.52985958143
307.58772362732
306.61309991151
305.60763571429
304.57133350982
303.50330409579
302.40276591683
301.26911653545
300.10263411944
298.9037811898
297.67369414949
296.41617645139
295.13565999632
293.83891969968
292.52266010921
291.18554820446
289.85008817404
288.51521063638
287.17757296765
285.84606160472
284.51928545674
283.18637851541
281.85472199534
280.52476837402
279.17769854489
277.83484803238
276.48052538367
275.10720786432
273.7440673293
272.36424871954
270.96662418317
269.5788814857
268.17383735661
266.75371897412
265.36901724568
263.96325026015
262.60446095896
261.26954581098
259.9331305006
258.65848111163
257.37524497333
256.1555500282
254.92989148857
253.70812534446
252.51933178267
251.31599554338
250.14057618425
248.96237344681
247.7764678306
246.58048986744
245.41900342661
244.24894425606
243.06384335753
241.90311614392
240.73997011637
239.55253532815
238.41216605594
237.27844609361
236.12357278396
235.00586492621
233.87836647433
232.76089203071
231.68037314687
230.59410948314
229.54743946541
228.49190935638
227.4675199369
226.45745625554
225.43968000323
224.46409526324
223.51707440558
222.54345111012
221.57295184513
220.66706101111
219.74800206372
218.82460820092
217.9286084677
217.05632306473
216.17452790597
215.29351337097
214.45335551013
213.59733167727
212.76458533125
211.9222096222
211.10427583216
210.29092905481
209.47217576061
208.67481962562
207.86999143033
207.09373302184
206.29651902394
205.4831482737
204.35337223172
204.71411185477
210.47838907093
244.68935383193
311.23557443777
354.00226662655
357.85566238273
357.72541395908
358.23395091319
360.29686926543
362.36091500837
362.06874060727
359.28060754847
353.32824178006
346.01923260967
341.965762814
340.07946290115
339.10143286023
338.47023942297
337.91404177305
337.21221726802
336.65740238784
336.61714150324
336.7921351512
337.18782207505
337.79448664609
338.58865269569
339.53509180467
340.606718209
341.78688584785
343.05842716905
344.3753924682
345.44470106675
346.28473666379
346.9396569217
347.44159848505
347.81809297027
348.09091609669
348.22272297554
348.23998684221
348.19783791657
348.06888371066
347.85953356538
347.61014170978
347.35994477036
347.13036092481
346.92526695728
346.74935245044
346.60437489659
346.5019511042
346.44977723464
346.43072550466
346.39333096145
346.30349620926
346.13915327716
345.89585998569
345.58073119568
345.20438227301
344.77718760443
344.30779752616
343.8019317295
343.26263364326
342.68994133815
342.09015089934
341.46485134969
340.82044061476
340.16418840295
339.50848926962
338.83351046664
338.13750930865
337.42974045789
336.71426449036
336.02534235435
335.32207569867
334.66947995751
334.0450814388
333.41606651336
332.78387645336
332.13264016975
331.43605621231
330.67838806595
329.83411420546
328.84616504797
327.65031981704
326.26029104742
324.62278157406
322.91021286683
321.15017763768
319.70833893611
318.56330500671
317.50142227711
316.42449783547
315.25973231305
313.92394489495
312.34978351303
310.61297601522
308.72889485374
306.8031310929
304.99014189372
303.33141479061
301.83510085156
300.4483241714
299.1955387319
298.08750402504
297.10409519305
296.23958975529
295.49982031934
294.88543944925
294.39838670745
294.04193330343
293.80515431254
293.68030368181
293.65380069842
293.69591669127
293.84234069445
294.10652585684
294.47212767214
294.92311530062
295.44942451286
296.03554124283
296.66644799525
297.3046447142
297.85131736007
298.27453725951
298.55266683285
298.70311595
298.71065149916
298.65186734789
298.53799574781
298.38186271404
298.20140756451
298.02892219067
297.859534692
297.71733905637
297.55993501506
315.13773164937
314.9775615903
314.78768264667
314.56133776221
314.2879121612
313.95410530142
313.54645440227
313.05491845329
312.4754969728
311.81091727375
311.06923688583
310.26154239188
309.3992615499
308.49220676409
307.54753531496
306.56947829327
305.55992250922
304.51912444299
303.44644705629
302.34144481556
301.20354202492
300.03337944425
298.83102317492
297.59871706094
296.34040171369
295.05938663872
293.76205737551
292.44419073929
291.10562549563
289.77120293965
288.43570462043
287.09752408118
285.76525364165
284.43508354588
283.09823910614
281.76817133834
280.4346303658
279.08399866437
277.74092394572
276.38666816857
275.01309544457
273.64820484021
272.26632525146
270.86806096497
269.47823354494
268.07211840082
266.66203678915
265.27721342558
263.87107686685
262.5291201036
261.18354921089
259.85960015243
258.58463928716
257.30182884286
256.07761603795
254.84191250424
253.6270589106
252.43783042406
251.23436387995
250.05398439278
248.87854915683
247.69144789481
246.50022282074
245.33964545053
244.16729217714
242.98122233134
241.82477870592
240.66268393688
239.47985987779
238.34380899687
237.20687379856
236.05310171079
234.93870860569
233.81366035916
232.70604326551
231.62301430694
230.53842244658
229.49058138455
228.43288545132
227.41642000115
226.40657229222
225.38677656269
224.41311842055
223.46321440656
222.4966133285
221.53028226174
220.62105922372
219.7022776013
218.78039753885
217.88894275815
217.00843475104
216.13633700951
215.25965526028
214.41573078021
213.56288142009
212.73255334335
211.8913610716
211.07240014295
210.2620537832
209.44253362082
208.64557715056
207.83859602546
207.06397210937
206.26655475023
205.44633698743
204.32548437268
204.69707898323
210.58069109571
245.19376500677
311.86986212323
354.25635854756
358.18016069487
358.16288868803
358.75141134568
360.81446315144
362.4463013538
362.04542684786
359.02937896253
352.82568109913
345.67449928787
341.86079829617
339.99731624818
338.94681608202
338.24870891751
337.63966948971
336.910312741
336.49390287202
336.49959160512
336.72694085266
337.1904536473
337.87324039768
338.75727564777
339.80944555766
341.00065932736
342.30752597259
343.7057898148
344.94429860785
345.90365604008
346.65934367088
347.25005773642
347.70327094738
348.04992573625
348.30354132015
348.44083013133
348.46167894013
348.42715839251
348.31612223946
348.13405496203
347.91668404369
347.70395062579
347.51568803727
347.35514573554
347.22521712851
347.12884797296
347.0742349769
347.06946224855
347.07474242556
347.04100664009
346.94380025387
346.76963714168
346.51887211918
346.20122903303
345.82727167284
345.40579908721
344.94194266777
344.437469193
343.89277527904
343.30786817393
342.68693559623
342.03390023147
341.35338701663
340.65351273776
339.93949941176
339.20337217919
338.46378482216
337.70907806819
336.95948916161
336.22394682245
335.48054511999
334.77350237484
334.08340759269
333.42172890904
332.7666125799
332.11179492594
331.44810994072
330.75830655354
330.03466076175
329.25006068932
328.34364295216
327.26231644452
325.9776220251
324.47987240539
322.65911234197
320.56596425349
318.36499783174
316.18339704797
313.97355183957
311.64257994887
309.09811389307
306.37773967292
303.53455977519
300.92216243652
298.65491275877
296.77969141563
295.22227240817
293.91363394684
292.7878521603
291.78830352381
290.8959461209
290.05051942869
289.30770198501
288.59849801378
287.94388942763
287.37268392629
286.85069547202
286.39200493134
286.03343565454
285.76561821814
285.58680045067
285.51066348067
285.52218455561
285.62759361179
285.86688416165
286.25144339373
286.79764860847
287.49447207335
288.3362088003
289.30384089467
290.35899920752
291.4500104225
292.55115330568
293.58134829062
294.39422232939
294.9428524673
295.29045792284
295.521827072
295.53759017788
295.45338461986
295.28245367531
294.96181462444
315.13773253139
314.97783926393
314.78783717787
314.55944788079
314.28099087609
313.93906717207
313.5214194411
313.02003112503
312.43263118393
311.76269716545
311.01789907301
310.20832142997
309.34421604324
308.43452159887
307.48599655967
306.50279718863
305.487134086
304.43952769897
303.35989983568
302.24806744045
301.10385692899
299.92808063087
298.72081489005
297.48546175917
296.22581379979
294.94402922475
293.64484483724
292.32528000708
290.98474733662
289.65204018382
288.31661938392
286.97641220401
285.6472119488
284.30945386645
282.96845966453
281.63901109426
280.30101831873
278.94777314741
277.60260027526
276.2487978408
274.87867691271
273.50532531159
272.12228834204
270.72370462845
269.33072120378
267.92074575256
266.53508079406
265.13530515543
263.74242384753
262.41102828843
261.06534052131
259.75009078339
258.4758789302
257.19423307903
255.96542023475
254.722068424
253.50994605896
252.32003952978
251.11393974259
249.93635502276
248.75433075884
247.55918339449
246.38538215208
245.2206078216
244.04506875525
242.85808601589
241.7060427862
240.54536014411
239.37207728391
238.23955331544
237.09848012513
235.94668132993
234.83479684278
233.71257585238
232.62285495748
231.52552917487
230.4545942706
229.40486000364
228.34661359929
227.33522514283
226.32084592634
225.30986365316
224.33403191916
223.38081939912
222.41974087401
221.4628472762
220.54971090077
219.62984746924
218.71102174339
217.82706053862
216.93750569472
216.0749919357
215.20458891157
214.3578569619
213.50560513089
212.67838763041
211.83920113823
211.02187176346
210.21191321628
209.39241827096
208.5960810772
207.78585765628
207.01359103286
206.21290095741
205.39099806418
204.27455023418
204.6621461399
210.67315344806
245.61830829637
311.9395298851
353.97199241982
357.97210299393
358.0349303541
358.65619475708
360.59304140219
362.01063453147
361.72407186822
359.08242560571
353.34396230285
346.16318198184
342.04413036683
339.98285473168
338.76710361082
337.97096264724
337.29621528921
336.58299400077
336.28761137501
336.32017685501
336.58613446083
337.1091141439
337.86725558471
338.83703959239
339.98300987716
341.27578610739
342.67445093999
344.12019182524
345.28973028093
346.19442848263
346.91027015716
347.47661317427
347.91313283407
348.25181577692
348.49579289321
348.64627153035
348.67426762416
348.64507910566
348.55102764924
348.39683171686
348.21171377677
348.03664099708
347.88820354322
347.7729845786
347.69443785857
347.6557776664
347.65374968592
347.69735055256
347.77300545795
347.84274692606
347.82496223368
347.75693148555
347.63344876295
347.4567864438
347.22258089875
346.92398535431
346.55271722413
346.10256123505
345.57175195925
344.96348532816
344.28435958411
343.54294561961
342.74628575368
341.89798461361
341.01851921589
340.10455698019
339.1936634625
338.28927007311
337.40274700125
336.55584538368
335.71797838236
334.93844479683
334.16234424984
333.45566275195
332.76062643737
332.08089106564
331.40794738658
330.72389554349
330.0017326307
329.24895846008
328.4430706241
327.4642100798
326.23635038645
324.69488000813
322.6444567877
320.03380131576
316.89233974278
313.28242937264
309.30035886523
305.48375913853
302.3565982698
299.93598535739
298.12198898085
296.728571362
295.61492945915
294.65405147587
293.77318123309
292.94383097024
292.18115000002
291.4682534497
290.78315069715
290.12065568513
289.46810656372
288.81751433202
288.17796275994
287.55650829074
286.96036829304
286.37856257844
285.80716172905
285.22951851524
284.61862567377
283.97536945834
283.37901782254
282.82091216086
282.24371615873
281.72793553974
281.4177990956
281.3132018429
281.32886165032
281.43874680061
281.71059963726
282.20179417354
282.91225244346
283.8478437999
284.99616732123
286.33724268809
287.65358523546
288.58666868462
289.01927653289
289.0231812659
288.90466081778
288.51636580677
315.1378542799
314.97861645955
314.78824116888
314.55639619925
314.27043179732
313.91737011949
313.48684625131
312.97320693965
312.37586493425
311.69890939031
310.94950372878
310.13670167365
309.26950565518
308.35591894754
307.40213355551
306.41211898601
305.38838867075
304.33178733585
303.24295936174
302.12206080993
300.96958364458
299.78618075995
298.57319376425
297.3340326959
296.07190546166
294.78783167886
293.4853192519
292.16402901758
290.82098133905
289.49140768329
288.15415115062
286.81472781146
285.48400800851
284.13940778181
282.79673668415
281.46461383189
280.12249455086
278.76704318541
277.41868714957
276.06352243914
274.69521924315
273.30793653874
271.93050853029
270.53425134208
269.1374904947
267.72908867224
266.35048900148
264.95518622184
263.58164397246
262.25510346471
260.9128175436
259.60751798292
258.3340565034
257.05305465409
255.82070674818
254.57286239018
253.36350586744
252.16984367437
250.96002972608
249.78404281337
248.60069969166
247.40266388576
246.23733064371
245.06484355016
243.87936008942
242.71429535387
241.56189880057
240.39736356034
239.23595304136
238.10572839927
236.95675950474
235.82114829876
234.71202743789
233.59475478315
232.50928294099
231.41424696717
230.35871938305
229.29134513809
228.24362728533
227.23505469652
226.21777776897
225.2177740284
224.24578081317
223.27374644618
222.32636124209
221.37454435746
220.45967428144
219.54127505507
218.62998765527
217.74613262067
216.8572732638
215.99387553465
215.12947289327
214.28626489154
213.43603927611
212.61064904751
211.77314284253
210.95669044342
210.1475115136
209.32847577192
208.53310405718
207.71804020164
206.95047528911
206.14363460549
205.32323458942
204.21646665577
204.63306908215
210.88081404227
246.59528635863
313.1609094637
354.31625918944
358.33323277576
358.54352212842
359.2132141182
360.88718637688
361.70005181696
361.3024130071
358.56836989136
352.7760028942
345.77744553732
341.83474469668
339.75978373471
338.45615254877
337.55955454881
336.79347221391
336.18040120034
336.02805105094
336.11592284904
336.43793388753
337.01999630903
337.84007462506
338.87047046031
340.07880175005
341.44284343675
342.90421374157
344.3853666853
345.58723360665
346.5564724768
347.34676460412
347.99061322826
348.50667032645
348.9075512942
349.1893087137
349.3641402561
349.42232927769
349.39557703609
349.31032469472
349.17402803203
349.02036442862
348.90141514602
348.82415453659
348.80937404234
348.85172663616
348.9681035772
349.1725957679
349.4913863446
349.91655213209
350.35686060017
350.81606639662
351.09851232255
351.10307095094
351.01290915622
350.79641724737
350.45141027333
349.98677698872
349.41698071252
348.75796985928
348.02521311638
347.2311752393
346.38276362462
345.48229969833
344.52358872358
343.50740908945
342.43756490915
341.35077086761
340.24678024895
339.11814710054
337.96585824054
336.83837575082
335.77040116331
334.75503280647
333.87024669583
333.0265383896
332.24442360361
331.50464702187
330.76720200571
330.00109778851
329.17528140421
328.38382373332
327.4372939295
326.16633692018
324.44955884434
322.00720597945
318.66065207983
314.35605451245
309.29696717733
304.84794125913
301.75701082858
299.68145363713
298.33531434625
297.41597580606
296.7421382378
296.23592407991
295.8602552958
295.5675970613
295.33856106623
295.14160233516
294.95241755922
294.75635336831
294.52333126407
294.24758543302
293.91638909889
293.52328743633
293.08219375746
292.60403474021
292.07957982808
291.49175045535
290.81939962127
290.0305496127
289.14846737966
288.19040969101
287.16854248155
286.09655347299
284.959761999
283.82094344157
282.83236689174
281.91311374813
280.98517577281
280.04868365204
279.42980181072
279.04291061086
278.76843634009
278.63375479231
278.64095368175
278.75909460005
279.06581000239
279.52994809606
279.67820156648
279.63287514085
279.39145126991
315.13845864908
314.98045788522
314.78877331548
314.55134877929
314.25507585275
313.88807170928
313.44234701289
312.91457426556
312.30555849629
311.61981133039
310.86398772059
310.04626639432
309.17442923522
308.25551113006
307.29493435966
306.2964576769
305.26269886653
304.19511616077
303.09489373804
301.96298057214
300.80027840632
299.60788550655
298.38820809799
297.14427568804
295.87795883824
294.58960126703
293.28150397664
291.95726103324
290.61679752738
289.28600213103
287.94642009962
286.61201842939
285.27533613073
283.92473203463
282.58356966707
281.24349949612
279.89673983978
278.53901444984
277.18589653719
275.82744512958
274.45632099923
273.06506366622
271.68382297985
270.29566735637
268.89335383977
267.49119139452
266.12204580086
264.72881464495
263.37571564697
262.05570161956
260.71608584125
259.42683499219
258.1506626649
256.8692669511
255.63571799457
254.385873255
253.18251508321
251.98251312489
250.76501038617
249.58865839735
248.40947426753
247.21582567288
246.03633278339
244.87029154065
243.68779391928
242.53630694225
241.38120558963
240.21411614827
239.075455161
237.93987330312
236.78482261642
235.66676764125
234.56359704775
233.44950992598
232.36687834246
231.27787295794
230.22607068089
229.16098195777
228.12436835137
227.11422489109
226.09087354928
225.10785464388
224.12423362656
223.15621654655
222.21535970904
221.26988040942
220.34904845991
219.44074651083
218.52740310656
217.64849017464
216.76593923649
215.90508625338
215.0395991023
214.19925423969
213.35241888951
212.52812392397
211.69385674624
210.87537503754
210.06892373648
209.2539908978
208.45645718166
207.65378729856
206.86165287606
206.10099799973
205.22453956807
204.15270053626
204.59582422911
211.0525766156
247.30187463126
313.55491713288
353.95419074395
357.87236622813
358.37763310968
359.35079980707
360.72541780542
361.02658447385
360.63306217609
358.11416223839
352.75603398449
345.84897665338
341.70032925363
339.47190017734
338.06325886307
337.04501421481
336.19889388462
335.7018386388
335.64064199903
335.78523876881
336.19991316255
336.88813738051
337.81164561095
338.9267631759
340.2129155907
341.65729374515
343.20515264134
344.84692017916
346.37768809306
347.66915070515
348.74925323851
349.66694169722
350.42441215747
351.05624408819
351.56387605537
351.9240592703
352.15821203925
352.21190410301
352.17421298902
352.07636201581
351.958015221
351.9051417343
351.92854414724
352.08361792732
352.40101627208
352.86361448519
353.46181063212
354.11458201353
354.67435828787
354.82005884717
354.76147172683
354.57664150239
354.25081819646
353.79984593922
353.24386355792
352.60627253473
351.90494559721
351.15591205552
350.36988112581
349.55385592688
348.7130342985
347.84338360706
346.94040091938
345.9989206647
345.02201536532
344.00425228379
342.94966808891
341.86430617582
340.76012782824
339.62977973124
338.47293450724
337.28018087336
336.04928090527
334.88125689729
333.77163252416
332.78286247637
331.88811809053
331.02414592968
330.14626711342
329.18437826904
328.2887686305
327.33094806152
325.99569360158
324.00961293294
321.07743562927
316.98091422748
311.73662610409
306.28344502849
302.56451236106
300.45714860396
299.33032387195
298.88102842773
298.75987952185
298.8550969733
299.13960238953
299.57182857457
300.04143310059
300.38556743101
300.55372810644
300.58973132357
300.54774505854
300.42081923867
300.19972489062
299.90830701197
299.57009957034
299.21044078412
298.85608211468
298.50321676428
298.13042619779
297.70624361063
297.22000734562
296.63172741953
295.92446041533
295.088667066
294.10676733715
292.96162872981
291.64170954795
290.15560880298
288.53916434078
286.83075108512
285.0053376694
283.16432997773
281.57698527171
280.31157739563
279.30234633197
278.46690505378
277.74060366546
277.13234435482
276.62012529694
276.12035904953
275.69155017567
275.12677201158
315.13972607141
314.98351496103
314.78898114823
314.54309207212
314.23349023486
313.85024631409
313.38761065798
312.84409624732
312.22168684218
311.52524348137
310.76107310281
309.93653575107
309.05831782103
308.1323256091
307.16323593554
306.15439810439
305.10871527751
304.02813182607
302.91460414788
301.76980296443
300.59531585909
299.39316346117
298.16561374222
296.9152741096
295.64205784557
294.34688610538
293.03171360902
291.70632660849
290.36868731453
289.03597343122
287.69523385993
286.36388829634
285.02127637704
283.66664621351
282.32519482737
280.97392088517
279.62465580661
278.26694863178
276.90100815044
275.54074564953
274.16525102022
272.76764629621
271.39119092881
270.00079946354
268.59216839608
267.21558893005
265.83852904173
264.46174080327
263.12874611338
261.80847614384
260.47739563282
259.2027216256
257.92170473294
256.64532990557
255.40754335938
254.16300363535
252.95959660754
251.74464321036
250.54007233571
249.35742274234
248.1652142781
246.98998922698
245.80295554857
244.64119604327
243.46319982528
242.3028014523
241.15978584872
240.00197575862
238.87267779056
237.73438020788
236.58948704294
235.48525376293
234.37166939362
233.2746983353
232.19702529362
231.11336818537
230.06445186059
229.00372626789
227.98462121202
226.96145792796
225.94900289219
224.9716558495
223.98335524831
223.02293582876
222.08623956782
221.13714764197
220.21936184378
219.31773093904
218.40820965137
217.52989282373
216.6534427845
215.79548396852
214.93390118969
214.09708169526
213.25180555781
212.42904297054
211.59895664365
210.77307639392
209.98008435527
209.14227523007
208.37554409465
207.51601387704
206.80458994399
205.95519095287
205.18333014142
204.07751455979
204.57306204339
211.36982061369
248.77219800798
314.79157099157
354.05340952483
358.02516006078
358.70261240546
359.81966979599
360.37819173507
360.3033015236
359.88580422952
357.45683678188
352.34102620057
345.59535284164
341.39811226966
339.09268501059
337.62963167671
336.47925288371
335.57153129912
335.3174082786
335.40950085108
335.85245343396
336.77542076924
338.01195737023
339.37913703187
340.78478071519
342.25858222772
343.8402909355
345.51642601053
347.18128543475
348.54028432794
349.64235339038
350.56580502783
351.39340263648
352.1401541835
352.88977101844
353.61501698504
354.34276053341
355.04839285168
355.69710722858
356.20637586396
356.57467749805
356.85652709597
357.06902553983
357.25843783786
357.44945118742
357.67569794851
357.80143722983
357.74178314022
357.55843887361
357.25493541002
356.84354425257
356.3273167598
355.72637223871
355.06172529227
354.35513707404
353.61723273019
352.85610935095
352.07658750606
351.28422431043
350.48210964784
349.66869340305
348.84489030624
347.99856632463
347.12414353606
346.22031154497
345.29930579529
344.34517651146
343.37864629869
342.3825968423
341.36211532986
340.30922789883
339.24619201948
338.17783064279
337.08817312515
335.9722046546
334.81747739898
333.67368141339
332.61342046213
331.57305879243
330.52694850558
329.41660367662
328.22991064263
327.17134887398
325.70136134188
323.40867047989
320.10616397005
315.45086465523
309.73054183676
304.87573391425
302.02878499507
300.75280075052
300.47064235599
300.717186108
301.39697860224
302.42960832251
303.48023710969
304.08118035726
304.29368426292
304.29721479153
304.19088131979
303.94184599466
303.57124256264
303.13592734879
302.68146736413
302.23657169974
301.81273845053
301.42407397617
301.09308846538
300.80909491686
300.56417891108
300.33702279532
300.11368363013
299.8880365126
299.65692939613
299.40205871708
299.1027806521
298.71605923515
298.21088912302
297.53770672948
296.6560451174
295.48669378161
293.98227241564
292.14038233897
289.9836161975
287.58782796997
285.04940844121
282.72494752881
280.83394543433
279.21698326819
278.00656230468
276.9535895332
276.17879807341
275.25537458959
315.14209911093
314.98763608653
314.78829089412
314.5310561027
314.20529448224
313.80372953603
313.32259381057
312.7617923268
312.1241390439
311.41510660231
310.64060036823
309.80734797445
308.92057093877
307.98538930339
307.00549698252
305.98417091928
304.92452287157
303.82904887422
302.70068886845
301.54133151783
300.35426407522
299.14206935358
297.90455989326
296.64538095749
295.36238142381
294.05787359449
292.73734960232
291.41043664822
290.07535044915
288.74134664333
287.40018191882
286.06810806692
284.72181255521
283.36399033033
282.01918274607
280.65881806225
279.30483925434
277.94532996367
276.56767406671
275.20335792747
273.82153013112
272.41898871671
271.04443050935
269.65527739299
268.24253624088
266.88584765208
265.52248639811
264.14658911289
262.8324102929
261.5232697066
260.19866737463
258.92736467951
257.64469820938
256.38211146947
255.14127929275
253.90303744029
252.6943470349
251.46978530909
250.28283498614
249.08906106098
247.88355049278
246.71303423479
245.52998231922
244.36235204128
243.2024603764
242.05174896415
240.90475871183
239.7378325129
238.61740818789
237.49229075581
236.36179741909
235.26202026354
234.1536633206
233.08014381644
231.99161130611
230.92077312762
229.87430916179
228.81982778035
227.80443346601
226.7735790869
225.78570077463
224.79461860041
223.81477061991
222.86952542205
221.92059744187
220.97909523947
220.07578717166
219.17240302314
218.26730840454
217.3903961506
216.51894185202
215.65782942242
214.8049715371
213.9704628906
213.13019540062
212.30289989877
211.48293980362
210.65238609946
209.85045080447
209.03754583956
208.23933538314
207.44429688708
206.63361681369
205.90915114849
204.99457239156
203.97077033362
204.48947399721
211.61445190862
250.6065323206
317.40838251357
355.17972593209
359.35985760515
360.13460603267
360.98776695351
360.80055508715
360.422351246
359.55583451229
356.55954380007
350.83145165768
344.3956546572
340.72968064443
338.57091012751
336.91118244932
335.62417658041
335.20537722186
335.37899421917
336.10365963603
337.34399032777
338.80679216247
340.42506252101
342.09951627204
343.65737053376
345.10833151952
346.48988635743
347.69312387392
348.64719476855
349.46571235996
350.19580777766
350.86453277866
351.53003750506
352.19388153074
352.92920003109
353.69578680389
354.54839464215
355.4529307463
356.42259176232
357.32718402575
358.03849879953
358.63161340154
358.94351967236
359.16231710048