/*--------------------------------*- C++ -*----------------------------------*\
| =========                 |                                                 |
| \\      /  F ield         | OpenFOAM: The Open Source CFD Toolbox           |
|  \\    /   O peration     | Version:  2312                                  |
|   \\  /    A nd           | Website:  www.openfoam.com                      |
|    \\/     M anipulation  |                                                 |
\*---------------------------------------------------------------------------*/
FoamFile
{
    version     2.0;
    format      ascii;
    arch        "LSB;label=32;scalar=64";
    class       volScalarField;
    location    "0.0006";
    object      minKappa;
}
// * * * * * * * * * * * * * * * * * * * * * * * * * * * * * * * * * * * * * //

dimensions      [0 0 0 0 0 0 0];

internalField   nonuniform List<scalar> 
28800
(
3.0610268465295e-06
1.1332123397308e-05
9.301900609074e-06
3.5007148294072e-06
4.2726016980602e-05
0.0002527921774558
0.00073466116402229
0.001572582073936
0.0027148511799349
0.0040414468250372
0.0054319302817817
0.0068255285733042
0.0082154865680106
0.0096286644365857
0.011132707369594
0.012746953900995
0.014512873980885
0.016463782073412
0.01854305536123
0.020864760129057
0.023248002771682
0.025871135280941
0.028521597712631
0.031334163200759
0.034215831229732
0.036913222278661
0.039833806590906
0.042464256906652
0.045530989953802
0.048268396349625
0.051004069605492
0.053776243717388
0.056423605056273
0.059150620300155
0.062065399263336
0.06502205524515
0.06767149825464
0.071031609778782
0.073737895183283
0.077167674477765
0.079782492041631
0.083275261224566
0.085972019385422
0.089613386295008
0.092517112414925
0.096071799686216
0.099333811804644
0.10162928175718
0.10534309492426
0.10722476595783
0.10959717263914
0.11211465843954
0.11336640031282
0.11569757950294
0.11678915212491
0.11966463406451
0.12179072156501
0.12396331970407
0.12591690333416
0.1282823362303
0.13059665871365
0.13316710611248
0.13539212833063
0.13771960469935
0.1397013769724
0.14269100034409
0.14502455079895
0.14727290363133
0.14956221053363
0.15118311154184
0.15301365009007
0.15574106507691
0.15759675787018
0.15943776601345
0.16102306643723
0.16202163830553
0.16384824330089
0.16516767301487
0.16670881936105
0.16860369925261
0.16915215025455
0.17119702117403
0.17184619908594
0.17393939379866
0.17487253575329
0.17634671790691
0.17685626650812
0.17851068311962
0.17990492428374
0.18007149290491
0.1822504771151
0.18233339943378
0.18385994416851
0.18448432047733
0.18566382119173
0.18628103955293
0.18692533768716
0.18824195731975
0.18843658214597
0.18965514992473
0.18954449499474
0.19147937570389
0.19087498659363
0.1931853746145
0.19432419204046
0.19980070309912
0.19922812212742
0.18634901059645
0.13647684785383
0.087319341400326
0.052940684457068
0.028726442706292
0.036589913152206
0.060326049133848
0.086635470662309
0.053354216188631
0.024382317226357
0.020497756643294
0.022140746885945
0.028292228305014
0.03517432837982
0.036595193409482
0.03399920769551
0.029395128046441
0.022797364818887
0.015153995089847
0.0080943429172198
0.00046776244831503
0.0076192831558779
0.01483926709809
0.020091297420521
0.024187770800034
0.027572656403932
0.03006265637905
0.031830245538741
0.033287617136892
0.034990886280569
0.036257922217628
0.03768962795439
0.038060346276053
0.0375902615206
0.036467156759511
0.035018124491627
0.033285752174386
0.031166918631918
0.029176868885127
0.026874837251735
0.02447878543922
0.022385694694273
0.020422954054318
0.018690448171008
0.017381088543626
0.016338638060576
0.015730777714849
0.015535769159591
0.016080266183586
0.016913150533563
0.018111232600732
0.019543464633572
0.021140044312343
0.022935281019029
0.024958159039946
0.027039608599935
0.029093532519772
0.031130572091002
0.032928918222697
0.03418469501775
0.034889607815331
0.035327199867128
0.035445401183301
0.03557640895283
0.035306466705024
0.034534759704582
0.032615581214171
0.029293686029673
0.025500345776116
0.020911826618361
0.016262662294009
0.011329497686879
0.0050324572762755
0.0032504286035408
0.011439527827919
0.018273599207837
0.022118917202448
0.023250739678102
0.02271806174467
0.021629955439967
0.02077570928902
0.018400117968523
0.017983845458688
0.01415204264089
0.0086419129005615
0.0082174191797536
0.011602309681379
0.018871865239911
0.030601900972645
0.045087430631927
0.060862858509825
0.073650900872125
0.081272871775367
0.080283956535242
0.074276554531022
0.064441338793439
0.053304280265288
0.041619250076017
0.030771332619965
0.020607917915322
0.012086567241251
0.0044031635517542
0.0015053734350041
0.0065480219699484
0.011096728682728
0.014968107130978
0.01839816625541
0.021603739006585
0.024282320407583
0.026130014150278
0.027293877731626
0.027187261217943
0.026513774878716
0.025994233057222
0.024569802221117
0.022133296254702
0.02106302300416
0.019213773234812
0.016873925234997
0.013881254968013
0.010528439659255
0.0068038414097987
0.0037207729546411
0.0003144490044591
0.0028471456386747
0.0058440608680557
0.0091787586105372
0.013441156490904
0.017449379907426
0.020352933919648
0.022659349588538
0.023143146460733
0.022799313413678
3.0610268465295e-06
1.1332123397308e-05
1.3126879439326e-06
3.5007148294072e-06
4.2726016980602e-05
0.0002527921774558
0.00073466116402229
0.001572582073936
0.0027148511799349
0.0040414468250372
0.0054319302817817
0.0068255285733042
0.0082154865680106
0.0096286644365857
0.011132707369594
0.012746953900995
0.014512873980885
0.016463782073412
0.01854305536123
0.020864760129057
0.023248002771682
0.025871135280941
0.028521597712631
0.031334163200759
0.034215831229732
0.036913222278661
0.039833806590906
0.042464256906652
0.045530989953802
0.048268396349625
0.051004069605492
0.053776243717388
0.056423605056273
0.059150620300155
0.062065399263336
0.06502205524515
0.06767149825464
0.071031609778782
0.073737895183283
0.077167674477765
0.079782492041631
0.083275261224566
0.085972019385422
0.089613386295008
0.092517112414925
0.096071799686216
0.099333811804644
0.10162928175718
0.10534309492426
0.10722476595783
0.10959717263914
0.11211465843954
0.11336640031282
0.11569757950294
0.11678915212491
0.11966463406451
0.12179072156501
0.12396331970407
0.12591690333416
0.1282823362303
0.13059665871365
0.13316710611248
0.13539212833063
0.13771960469935
0.1397013769724
0.14269100034409
0.14502455079895
0.14727290363133
0.14956221053363
0.15118311154184
0.15301365009007
0.15574106507691
0.15759675787018
0.15943776601345
0.16102306643723
0.16202163830553
0.16384824330089
0.16516767301487
0.16670881936105
0.16860369925261
0.16915215025455
0.17119702117403
0.17184619908594
0.17393939379866
0.17487253575329
0.17634671790691
0.17685626650812
0.17851068311962
0.17990492428374
0.18007149290491
0.1822504771151
0.18233339943378
0.18385994416851
0.18448432047733
0.18566382119173
0.18628103955293
0.18692533768716
0.18824195731975
0.18843658214597
0.18965514992473
0.18954449499474
0.19147937570389
0.19087498659363
0.1931853746145
0.19432419204046
0.19980070309912
0.19922812212742
0.18634901059645
0.13647684785383
0.087319341400326
0.052940684457068
0.028726442706292
0.036589913152206
0.060326049133848
0.086635470662309
0.053354216188631
0.024382317226357
0.020497756643294
0.022140746885945
0.028292228305014
0.03517432837982
0.036595193409482
0.03399920769551
0.029395128046441
0.022797364818887
0.015153995089847
0.0080943429172198
0.00046776244831503
0.0076192831558779
0.01483926709809
0.020091297420521
0.024187770800034
0.027572656403932
0.03006265637905
0.031830245538741
0.033287617136892
0.034990886280569
0.036257922217628
0.03768962795439
0.038060346276053
0.0375902615206
0.036467156759511
0.035018124491627
0.033285752174386
0.031166918631918
0.029176868885127
0.026874837251735
0.02447878543922
0.022385694694273
0.020422954054318
0.018690448171008
0.017381088543626
0.016338638060576
0.015730777714849
0.015535769159591
0.016080266183586
0.016913150533563
0.018111232600732
0.019543464633572
0.021140044312343
0.022935281019029
0.024958159039946
0.027039608599935
0.029093532519772
0.031130572091002
0.032928918222697
0.03418469501775
0.034889607815331
0.035327199867128
0.035445401183301
0.03557640895283
0.035306466705024
0.034534759704582
0.032615581214171
0.029293686029673
0.025500345776116
0.020911826618361
0.016262662294009
0.011329497686879
0.0050324572762755
0.0032504286035408
0.0037450467640368
0.010357116006724
0.022118917202448
0.023250739678102
0.02271806174467
0.021629955439967
0.02077570928902
0.018400117968523
0.017983845458688
0.01415204264089
0.0086419129005615
0.0082174191797536
0.011602309681379
0.018871865239911
0.030601900972645
0.045087430631927
0.060862858509825
0.073650900872125
0.081272871775367
0.080283956535242
0.074276554531022
0.064441338793439
0.053304280265288
0.041619250076017
0.030771332619965
0.020607917915322
0.012086567241251
0.0044031635517542
0.0015053734350041
0.0065480219699484
0.011096728682728
0.014968107130978
0.01839816625541
0.021603739006585
0.024282320407583
0.026130014150278
0.027293877731626
0.027187261217943
0.026513774878716
0.025994233057222
0.024569802221117
0.022133296254702
0.02106302300416
0.019213773234812
0.016873925234997
0.013881254968013
0.010528439659255
0.0068038414097987
0.0037207729546411
0.0003144490044591
0.0028471456386747
0.0058440608680557
0.0091787586105372
0.013441156490904
0.017449379907426
0.020352933919648
0.022659349588538
0.023143146460733
0.022799313413678
5.4730026294898e-06
2.513808510932e-05
1.3126879439326e-06
3.4185038408467e-05
8.0788586649946e-05
0.00057471263254366
0.0016825534110837
0.0035558565682438
0.0060456628503004
0.0089212484338184
0.01194439202329
0.015006341797829
0.018075297248753
0.021205754498862
0.024528434559659
0.028090336268265
0.031977207490263
0.036245488849271
0.040819014980442
0.045877429321155
0.051103637881311
0.056815474820814
0.062588495293435
0.068723020214729
0.074925006889732
0.080811700905049
0.087123142293816
0.092912052802308
0.099542233039215
0.10541063355374
0.11143164768589
0.11737211541129
0.1231164497645
0.12899081673343
0.13532475289066
0.14150720315145
0.14746863109783
0.15431947445577
0.16043237684469
0.16751123549081
0.17332390834679
0.1806192782586
0.18654586478101
0.19444809533593
0.20029780483525
0.20847636295848
0.21451094318879
0.22012503293213
0.22759418714341
0.23173050162862
0.23696391351362
0.24181594412243
0.24478544260564
0.24977905682058
0.25270900855009
0.25838676985718
0.26262991546842
0.26721573571746
0.2716766779211
0.27668213109424
0.28146794528253
0.28685098048941
0.29148161249377
0.29624808979303
0.30101576046074
0.30715157292076
0.31183938089939
0.31652570222481
0.32141083587911
0.32490853988272
0.32904094916057
0.33465018408515
0.33824867358651
0.3424369141185
0.34529119099242
0.348082782179
0.35199187608703
0.35459495104666
0.3581053093378
0.36145933630117
0.36314615404899
0.3674993578736
0.36866696479387
0.37312366734054
0.37512053827904
0.37824524831893
0.3795477820767
0.38311338210943
0.38586564432515
0.38641202222608
0.3908972020915
0.39112677122875
0.394105740918
0.39559687548134
0.39809771859424
0.39934461746181
0.40098094843756
0.40338067737102
0.40393944470423
0.40668448727136
0.40708984543883
0.41012528742247
0.41035651997657
0.4137821870833
0.41497995572377
0.41948868966361
0.41631714213622
0.38953841362695
0.27791383257417
0.14004813399293
0.092984562073918
0.063433434749999
0.08011199023445
0.12300239210433
0.16140366760627
0.11587307483279
0.05822466704961
0.04495754920933
0.052353279957148
0.063361100118903
0.075188618261256
0.082195225231823
0.079918091087285
0.070218263871701
0.056005545763078
0.039146299794565
0.02186794688609
0.0045681640748769
0.012649466518063
0.028837931295073
0.042095219548009
0.052581841002469
0.060607061085161
0.066107565687229
0.069728539909474
0.07274424127553
0.075202406056422
0.077191620723058
0.079737238011034
0.081065200767678
0.081322992225047
0.079876746527119
0.077085856190991
0.07341808615765
0.068976527393362
0.064723702779754
0.059678127968971
0.05454079478748
0.049855221976534
0.045295916928589
0.041230030180795
0.03814422856628
0.035591853301054
0.033856600804644
0.03326945733009
0.034266538770664
0.03584970676875
0.038224318565313
0.041045054516861
0.044461686270692
0.048270820750741
0.052735225622546
0.057538935804612
0.062313603334881
0.066981903633463
0.071020008160386
0.073931997210097
0.075657081814778
0.076667865650313
0.07690049977729
0.076741421982505
0.075932279774409
0.074133608280272
0.071130261538172
0.065752970043916
0.060869904684215
0.053155017436083
0.046513952461672
0.037165499657871
0.027231500811204
0.016414139525565
0.0037450467640368
0.0026517732363445
0.015985078372653
0.037181735282626
0.048541621662852
0.052766625985023
0.054709184824098
0.058049109267112
0.057290145385093
0.059448602586515
0.051119385025401
0.049358032805922
0.056139917615775
0.069776596222448
0.091568935721584
0.11925188948297
0.1506616144931
0.17781737367106
0.19462840707244
0.19013928043269
0.17140890137963
0.14566540051394
0.11727700521342
0.090845545049818
0.065779093585866
0.043563290536812
0.023758459051817
0.0059083773987744
0.0056000494694222
0.016949485760982
0.026943371036517
0.035427070564504
0.04279135538147
0.049643832563458
0.055296380963544
0.059243108314537
0.061300080178068
0.061291585738891
0.060466248507359
0.059162559261967
0.056560731367198
0.051725921452003
0.047155224165823
0.042965989166564
0.037093439653818
0.02956397211652
0.021618188115449
0.013131448087635
0.0063978830431491
0.00031457614180585
0.0075431264913335
0.014373181045754
0.021952861375654
0.030366068281509
0.038229813273087
0.043634291599683
0.047931993006159
0.04959460585971
0.049183560958728
5.4730026294898e-06
7.0443967350743e-06
5.0224458774303e-05
0.00013154252564674
9.9128187593247e-05
0.00094360394044724
0.0027442435142715
0.0056430836756244
0.0093610196254238
0.013640538389452
0.018161078714033
0.022802172397154
0.027503229966541
0.032323135992066
0.037426404513089
0.042867171943615
0.048797930729303
0.055266449579838
0.062230013376117
0.06985604872663
0.077791935228651
0.086380707593933
0.095098978598155
0.10430553947064
0.113532763207
0.122436424032
0.13190722012328
0.14076347452481
0.15069364864248
0.15939625043797
0.16858896117212
0.17745332735587
0.18599543778705
0.19497895705615
0.20424698776435
0.21338860037133
0.22251740746556
0.23233974306723
0.24170181559341
0.25191139439195
0.26085221437087
0.27148876884484
0.2808879931532
0.29203447652488
0.30092749919671
0.31302278441908
0.32107928566686
0.33091544880521
0.34039747372744
0.34710841380997
0.35453260114241
0.36153310400296
0.36689540177592
0.37377194897141
0.37902832122217
0.38633317091249
0.39282723325358
0.39943486334801
0.40649719724433
0.41335384923699
0.42066204252896
0.42806402489173
0.43502446530334
0.44224275050499
0.4497839171996
0.45814159575614
0.46434333302676
0.47185925833352
0.47881441954001
0.48396390835697
0.49060154965109
0.49830841577748
0.50296362869033
0.5096281571246
0.51302444650448
0.51938203008245
0.52308299038941
0.52783572550093
0.53279066029424
0.53719848136919
0.54069050705665
0.54597767818833
0.54793677153175
0.55461100885026
0.55762356984169
0.56170803214308
0.56448435083826
0.56917469325009
0.57305159402284
0.57417916861511
0.58018542038831
0.58126410761027
0.58516010270791
0.5872541588074
0.59113754689208
0.59309641448313
0.59583287438185
0.59875037086466
0.60022397001974
0.60418141807483
0.60493027989536
0.60931008783373
0.61017540349483
0.61497779881202
0.61674938475848
0.62253375575766
0.6178301882801
0.5799499218411
0.41741073521306
0.22928604301337
0.1453457500497
0.10148889590966
0.12474942638935
0.18461684735491
0.2225170470966
0.16641057877786
0.087818991752075
0.069880928125924
0.080159105404551
0.097443447937028
0.11618852096331
0.12751534983966
0.12412397569653
0.10981684458816
0.088170360143071
0.062325128503292
0.034415902824791
0.0068476219472203
0.02063848268087
0.044990029055712
0.064561100875758
0.079977777792666
0.091808882037351
0.09967370673899
0.10502749316428
0.1091859720851
0.11356892182898
0.11748239366682
0.12195740969473
0.12436481231211
0.12503812334598
0.12257197996644
0.11867902161158
0.11288354456239
0.10598377591595
0.099318631573306
0.091433332409068
0.083774852659377
0.076523292585326
0.069317435526581
0.062991453352789
0.058223832486555
0.053989573593269
0.051214143603737
0.050172366217303
0.051245370451793
0.053414282761932
0.057034494258501
0.061429047715653
0.066915679578775
0.072872693148177
0.079694062039899
0.086768149872494
0.093705079740584
0.10038255134644
0.10614697663854
0.11049745092001
0.11334550894297
0.11492033974827
0.11546107696772
0.11485035629211
0.11325372483959
0.11017805022154
0.10570767247808
0.098938175244834
0.091913580807445
0.082487450326646
0.073589737436635
0.061562668827443
0.049980793141941
0.034663095086502
0.019483613427011
0.0026517732363445
0.01091535686908
0.035568037508694
0.059477388045256
0.077155936196527
0.085060428214966
0.091909385374147
0.099121597229103
0.10009190722056
0.10214846832611
0.10983455983554
0.1252599509728
0.1523966331061
0.18921360221833
0.23282206985846
0.27664105726098
0.31036864924495
0.31699794071625
0.29690966249099
0.25577726487297
0.20746151297299
0.16074102022481
0.12074847762899
0.085782814739673
0.055182425672921
0.028443438042398
0.0059083773987744
0.010813899995966
0.026923957681233
0.04056135292191
0.052234244112296
0.062204604064652
0.071002978847567
0.078508890367996
0.083746382825738
0.085786049154652
0.085689140677348
0.084327122186753
0.082739533287623
0.079271755280259
0.074787479068941
0.067998290244097
0.061057708179205
0.053085955204431
0.043428519967805
0.033114736022981
0.019886542948045
0.0066679132359601
0.00267162437866
0.01411829175301
0.025146125283561
0.036758267447543
0.047409633074606
0.057987646339175
0.064992888607956
0.070736374371893
0.073437181894108
0.07424332373454
1.8458646870277e-05
7.0443967350743e-06
0.0001929156659141
0.0002992274274171
0.00012171509748572
0.0014336400117532
0.0040308746353999
0.007949172830232
0.01282661271772
0.018424780716769
0.024383527719803
0.03059163625677
0.036950889237498
0.043507898872338
0.05043906688854
0.057789753626318
0.065799804141662
0.074459389406849
0.08384382943451
0.093968929977877
0.10463694612622
0.11597993512905
0.1276677757107
0.13969449097075
0.15181469321717
0.16378138812422
0.17627950501512
0.18834544387452
0.20128696293682
0.21277460433309
0.22515487665408
0.23667681081953
0.24815183099028
0.26003061847611
0.27198568017158
0.28397908420477
0.29620461668741
0.30875217083353
0.3212143690041
0.33419141520571
0.34660909232661
0.35995446840452
0.37305408906691
0.38664461999183
0.39915436148979
0.413554158282
0.42535536252997
0.43751736546774
0.44909678148204
0.45797054669458
0.46833955298293
0.47679270827856
0.48472277430908
0.49331134061092
0.50090812317877
0.50981447462949
0.51808412319994
0.52659670021731
0.53595596702857
0.54483491500751
0.55423087155944
0.56310968361563
0.57300646584741
0.58187174627957
0.59239487122737
0.60149255690866
0.61017253780382
0.61952377160414
0.62849529833715
0.63558537588559
0.64457962816821
0.65343517708583
0.65922675311453
0.66794288832675
0.673212489373
0.68128300596738
0.68536693801088
0.69272414000892
0.69805971360417
0.70371945628945
0.70903735860287
0.71491637009446
0.71810061510375
0.7264899328147
0.72999830875221
0.73505776068477
0.73974997951617
0.74470003024407
0.75013754838116
0.7518792070985
0.75865726939166
0.76088804206887
0.76591711306136
0.76835345773553
0.7733202003226
0.77602155270857
0.77986632084843
0.78334303632546
0.78574486885227
0.79079465368324
0.79211021531326
0.79800625183376
0.79928961987487
0.80574260555867
0.80758701897633
0.81477046929287
0.80875682043735
0.7571167811146
0.5354431053139
0.28041070813026
0.18939929562098
0.13857318055293
0.16774450731104
0.23977032877287
0.26885761551826
0.21364551962179
0.12373781829779
0.098037291205167
0.1110124750265
0.13665132965577
0.16279528100015
0.17808955964865
0.17540864297853
0.15508361778009
0.12392190960019
0.088246212995221
0.04870882425575
0.0057094706879101
0.029153928543206
0.061212316375571
0.086956513728885
0.10747908974828
0.1228019264065
0.13327120267367
0.13974620958349
0.14559573998428
0.15202838234763
0.15806532858101
0.1644722265459
0.16787527575181
0.16903390740406
0.16543399311541
0.16095743579824
0.15293801338536
0.14383146450869
0.13444688531564
0.12380941548026
0.11400862556735
0.10391634014637
0.093801986329935
0.08505633399903
0.078543387231812
0.072299923260026
0.068515673698096
0.066600865865438
0.06722154876106
0.070121080773983
0.07438084711213
0.080178838589755
0.087262161677601
0.094576304559359
0.10328369466918
0.11213211931592
0.12102353255043
0.129515453646
0.13696830250948
0.14290046155997
0.14747140820949
0.15026049461762
0.15171312566734
0.15098326162099
0.1487404967447
0.14418620326209
0.13806903671208
0.13002667121539
0.12059878560539
0.10998526596482
0.098059479479044
0.084405319086314
0.070150904420936
0.051291619955478
0.032931606528435
0.012090910284376
0.0079861087931155
0.035341242401016
0.063381191067312
0.092901161930439
0.11540739764788
0.12861971589275
0.14413498838029
0.150479377186
0.16315576883982
0.18502777379429
0.21610672545167
0.26427299237415
0.32151462196359
0.37783116041016
0.42219191572891
0.4332018014024
0.41323112044303
0.36397704660445
0.30295844004373
0.24442490230391
0.19031598656329
0.14389587531897
0.10365577156444
0.068483161603766
0.037169106473624
0.010601676033663
0.0021604223957152
0.023439687714029
0.041119701244396
0.055507729290554
0.067897150135916
0.078337294403982
0.086090444658279
0.090929565856091
0.093403869404927
0.094535833270617
0.092507702590814
0.088742558188407
0.083384299784729
0.076973459597012
0.069563446091389
0.062497891402689
0.054538011697461
0.04458457076085
0.035445344856147
0.019421736042636
0.0035797947695046
0.0078817689560004
0.022135059372485
0.036817255092345
0.052377423095346
0.065264241884518
0.078021851021666
0.085737239105262
0.092425266587425
0.096489227121325
0.10063718276191
7.2686995064597e-05
9.4782993045032e-05
0.00046793518516353
0.00052715390166588
0.000200232195323
0.0021269180184688
0.005592200859428
0.010489495915852
0.01647504511754
0.023342774403983
0.030716049170802
0.038500619512534
0.046543701073034
0.054891284847054
0.063704091347491
0.07304209759583
0.083186044078914
0.094100537150138
0.10592396785061
0.11856299261237
0.13194578397136
0.14599212129127
0.1605460013556
0.17531015505375
0.19028888561566
0.20525112942511
0.22087932451648
0.23613077790549
0.2518088682739
0.26623756551597
0.28162864394582
0.29567765952015
0.31014583300486
0.32483591382082
0.33931196937467
0.35402500284675
0.36935783499549
0.38426624765824
0.39992404965192
0.41524820934636
0.43153600185113
0.44677631554057
0.46412676385546
0.47930381656149
0.49595629359047
0.51196646580839
0.52653843529509
0.54172652921679
0.55475383500053
0.56619364137952
0.57884319821632
0.58882838563877
0.5991411879129
0.60953181721426
0.61932269538791
0.63001676115687
0.63979802197367
0.65007309569509
0.66162611430089
0.67183931978775
0.68360159601914
0.69406430494554
0.70604022535708
0.71718913652719
0.72884650161788
0.73976342198592
0.75092977988003
0.76121940145024
0.77207492339868
0.78143358842043
0.7919414837305
0.80183682990213
0.80949119439226
0.81973003014601
0.82603754359588
0.83585819338305
0.84140368605692
0.85011199181272
0.85582695136743
0.86278303951812
0.86994473877569
0.87623883720609
0.88148692128672
0.88972042300361
0.89472996838498
0.90034261022924
0.90697720421384
0.91167619133971
0.91889231093994
0.92150607805884
0.92867895113473
0.93191379358403
0.938131078199
0.94102633815811
0.94679935940458
0.95031686196412
0.95485318043618
0.95949536914485
0.96264357840144
0.96840528262635
0.97146467772944
0.97768296475615
0.98099564432351
0.98612375041343
0.99200207122842
0.99805003924858
0.99101771716886
0.929067717174
0.66679724345174
0.37345649595584
0.22969503816304
0.17731987222319
0.21333157472269
0.29230142572768
0.30864100099942
0.24714029759773
0.15881863112383
0.13150253239536
0.15098037633365
0.18614333829578
0.21867974211884
0.23193234775376
0.22379688928808
0.19754016500386
0.15770827218427
0.11054316277667
0.058815572453086
0.0034268518611953
0.043617751973762
0.08286613698569
0.11314025981303
0.13677385482816
0.1536537415339
0.16657411058083
0.17380770787856
0.18059121261982
0.18788981147914
0.19450162364297
0.20160498638829
0.20527250736697
0.20766814879348
0.20462584519817
0.20190496261431
0.19278889125405
0.18266926878221
0.17055169975942
0.1574760166478
0.14574792207699
0.13231881579676
0.11894087315359
0.10744767286141
0.098837865520575
0.090055665338611
0.084489186905289
0.080942652120959
0.080767992782977
0.083134851147753
0.088284926986203
0.093327092884233
0.10170717459657
0.11107362090865
0.12239436072768
0.13367774801642
0.14549261888087
0.15650049077916
0.16634389309119
0.17424223048659
0.18094451039787
0.18506761248928
0.1883177367529
0.18792025077887
0.18568089974687
0.18036732334133
0.1728219421103
0.16276974194366
0.15106367829161
0.13765519247305
0.12229739051538
0.106070675181
0.086847061483517
0.066869827984635
0.044115037653451
0.019021167006195
0.0054295005818287
0.034945945681995
0.066860521980597
0.10478499062058
0.14367465184845
0.17048782494963
0.19563348426297
0.20816686641621
0.2359905306638
0.27186115672261
0.32318280566437
0.39198009761614
0.4605459324042
0.51511323481829
0.53874240479345
0.52457479623713
0.47829278909006
0.41418809004195
0.34510413354613
0.27902130544498
0.219723561163
0.16893730310057
0.12471046388602
0.086360658966751
0.052574321392284
0.022105193277453
0.0021604223957152
0.0075897079406212
0.027965221904763
0.044582395234473
0.058448977900587
0.069493207060979
0.077378269835592
0.082269328303156
0.08406502789421
0.083747323520466
0.081860784344969
0.077399438444034
0.070690914436546
0.0629289274565
0.054387817748261
0.045824211885483
0.035939229057702
0.023748002582633
0.013431805512583
0.0023865569917303
0.0035797947695046
0.015763587596278
0.033317245494997
0.050479688124472
0.065798586188305
0.081189754037062
0.094159674818238
0.10280437492535
0.11093682406844
0.11792394026248
0.12562190934781
7.0970866090232e-05
0.00034532783273416
0.00084427516057032
0.00077851631510763
0.00040457036827728
0.0030948990374802
0.0074194393037676
0.013266585742884
0.020339357046187
0.028469358713719
0.037260682308916
0.046632707363056
0.056371135582119
0.066558211404251
0.077316095953893
0.088757156563688
0.10110471893459
0.11439457921732
0.12866495912207
0.14389342653928
0.15992239543498
0.1767261590175
0.19387380766636
0.21140922722645
0.22927790351079
0.24728700377528
0.26602702208036
0.28429253226384
0.30276131638085
0.32007132673414
0.33817238261178
0.35502468460409
0.37232694493404
0.38950674482618
0.4068291054175
0.42399598213196
0.44228721486369
0.45946750965436
0.47827129998541
0.4960856023122
0.51539606259806
0.53363114991334
0.55346734789879
0.57130530166898
0.59126477371019
0.60877757775567
0.62647052343532
0.64327286356936
0.65834091693716
0.6721706915643
0.68628408104761
0.69850156341898
0.71116536171789
0.72315799234562
0.73497608928676
0.74736552085151
0.75846032144688
0.77124417668428
0.7839934177075
0.79533583988984
0.80923759783413
0.82211386938587
0.83484692232547
0.84802538448218
0.86133570395885
0.87400357398556
0.88658241171941
0.89847608256838
0.91106290863095
0.92224518175733
0.93376816620881
0.94460227801537
0.95445568577057
0.96527277408887
0.97311420791144
0.98377694553144
0.99085125530557
1
1
1
1
1
1
1
1
1
1
1
1
1
1
1
1
1
1
1
1
1
1
1
1
1
1
1
1
1
1
1
0.77124360408172
0.42176627633604
0.24150403615479
0.22443062240898
0.27332751644625
0.34487017013052
0.3429582075874
0.27619366443325
0.19007188537322
0.16795631793446
0.19769089704124
0.24541135828624
0.28378761567755
0.29168291152542
0.27385229409285
0.23946517749525
0.19030238776877
0.13289893294604
0.069807525371461
0.0034268518611953
0.048404333179366
0.10357244528789
0.13802656434721
0.16373243112763
0.18057377910556
0.19205532006231
0.19766065383379
0.20368135935455
0.20968872005044
0.21548340552087
0.22364731514467
0.22875988589958
0.23555738899891
0.23424256654857
0.23723593038739
0.23033192490991
0.22199361010061
0.20851473377416
0.19349491129034
0.17974342792175
0.16207296678209
0.14498188720223
0.13026684355978
0.11895211255586
0.10754722563197
0.10038828990707
0.095595705312653
0.094436058081684
0.094591237006829
0.10161446650815
0.10854760902371
0.11996862717434
0.13100727293424
0.14554016535078
0.15849659281994
0.17293981574987
0.18554313627798
0.19738095786518
0.20657328102934
0.21474968464369
0.21948350575228
0.22354369247124
0.22275974987086
0.2204887139202
0.215580467879
0.20888322491427
0.19916467779694
0.18736261115404
0.17253494906082
0.15390182180076
0.13352537208694
0.10977398954175
0.084316635966416
0.055535366236898
0.026465119404249
0.0026888485563304
0.031544868339995
0.071461506457718
0.11548597603316
0.16860424998373
0.21280709853904
0.24943292293431
0.27097092828529
0.31628155509181
0.35981909176094
0.4331409188148
0.51532223389383
0.58472214266553
0.62727218416995
0.63004774112319
0.59651054367466
0.53309940365211
0.45875132889372
0.38293302042753
0.31136560047685
0.24874361819576
0.19501868798549
0.14886882436222
0.11005887844766
0.074980000183835
0.04377144176641
0.016238821724261
0.0075897079406212
0.006845146179647
0.025917731481043
0.041431655907499
0.054216437391438
0.063683442426862
0.06876629924091
0.069407821397343
0.067909120975707
0.064170030905156
0.057838657554366
0.049480902553365
0.040686308797737
0.030231315339165
0.019326312484751
0.0065869220837121
0.0049941508931266
0.013431805512583
0.0023865569917303
0.012206711943382
0.027261191731165
0.04087598347932
0.059445049844138
0.077263075882097
0.09282654747927
0.10755248876485
0.1163048972759
0.12538741756665
0.13358885498603
0.14538982891672
7.0970866090232e-05
0.00074135180437873
0.0013229892088132
0.0008991342971551
0.00085153831425217
0.0043281791191841
0.0094885245841455
0.01629162943257
0.024483572142729