/*--------------------------------*- C++ -*----------------------------------*\
| =========                 |                                                 |
| \\      /  F ield         | OpenFOAM: The Open Source CFD Toolbox           |
|  \\    /   O peration     | Version:  2312                                  |
|   \\  /    A nd           | Website:  www.openfoam.com                      |
|    \\/     M anipulation  |                                                 |
\*---------------------------------------------------------------------------*/
FoamFile
{
    version     2.0;
    format      ascii;
    arch        "LSB;label=32;scalar=64";
    class       volScalarField;
    location    "0.0006";
    object      p;
}
// * * * * * * * * * * * * * * * * * * * * * * * * * * * * * * * * * * * * * //

dimensions      [1 -1 -2 0 0 0 0];

internalField   nonuniform List<scalar> 
28800
(
271395.35027757
270438.19473437
269309.59360805
267986.69874373
266417.82214051
264527.02210578
262227.46616224
259445.07556943
256149.3002567
252366.61774363
248171.19090684
243660.09099142
238928.50778143
234052.74931911
229083.48897717
224049.74294973
218963.88486783
213829.06715693
208646.95244809
203417.01557351
198146.56907329
192841.55973123
187516.08654144
182180.81600074
176844.39981117
171557.79436163
166342.21035183
161199.78460085
156111.15221397
151161.35171344
146352.83076164
141664.43763613
137128.61837666
132737.38882088
128446.5921832
124273.74153369
120225.94048118
116247.31835985
112380.53338598
108594.85751852
104881.73507784
101283.80128024
97765.775339393
94309.161162881
90974.629674391
87708.420392281
84491.209003206
81470.242450289
78493.287450509
75684.30310308
73037.580692328
70445.552532948
68063.595509446
65729.260221095
63576.230306294
61493.302418024
59452.194542433
57528.807285859
55637.265624648
53837.117176257
52085.074855948
50373.152748516
48700.509094104
47105.254245481
45561.837605385
44038.15283184
42576.519159653
41161.986525341
39766.228490426
38443.318958983
37194.037523769
35947.293539322
34760.119277266
33615.678411151
32494.655561576
31458.282421541
30437.585906352
29482.645532103
28554.588888898
27653.945727449
26808.867005133
25980.311092404
25208.44561943
24462.440790547
23725.626764285
23017.036911945
22363.558914774
21716.979129464
21083.978690409
20489.975788402
19921.177098678
19359.973082298
18815.935006417
18308.064672413
17799.449136361
17320.066147043
16846.507947533
16393.888511259
15957.580109491
15525.105239432
15119.816885299
14713.610669639
14333.45757161
13953.789849771
13579.836969663
13174.067409309
12965.990977414
13657.046809477
21299.655807329
65943.88541227
140539.42444206
154784.32497629
154077.57930367
153372.39338288
153571.77193484
154352.20741656
155055.6983791
155349.25773414
155527.8024161
155330.44831028
155748.77668007
156684.68529421
158074.64573106
159844.18127766
161622.70881889
163085.60457443
164317.08690276
166172.39978465
168302.81321415
170664.68997756
173283.34523047
176079.50605151
178912.34560507
181663.9010998
184261.87057019
186642.56418119
188772.77404455
190666.34070199
192390.62550671
193921.05916441
195280.81418626
196492.39794026
197412.01245872
197970.96055832
198121.01310458
197874.17344602
197154.6281264
196025.83683109
194605.51090845
192932.81426111
191018.05788919
188925.42039478
186675.28954462
184272.68143215
181755.74982695
179208.3738534
176655.48901934
174099.08106232
171532.84504241
168952.46432286
166366.21600405
163789.32069691
161229.51414069
158692.00928056
156180.26430915
153685.98721476
151196.69250332
148705.15339237
146215.33096232
143715.92107298
141205.36704699
138748.56728131
136348.16798911
133920.25513509
131433.02758409
128921.34239726
126364.21060978
123943.44260351
121503.44643644
119130.97517429
116866.40719188
114674.25244953
112556.74055382
110529.05330347
108544.36238185
106684.69081777
104929.85659381
103291.30754857
101856.51821371
100539.14626291
99586.869310878
98965.973448521
98431.432657683
97998.857219236
97694.134903974
97392.569599774
97042.687772206
96532.69595158
95764.315243336
94688.667118431
93330.814834355
91593.981539913
89718.796120565
87832.085159269
86045.409978336
84354.253555195
82792.733237577
81323.819867502
79950.717740953
78659.641076245
77462.573589475
76352.028767539
75323.420920486
74404.852999312
73610.934136353
72917.382640095
72287.434481946
71701.410243695
71154.660373238
70655.974747655
70207.949229982
69796.842462387
69423.782230154
69084.859417335
68768.380144379
68467.697857585
68166.069492921
67854.790904803
67522.78961843
67168.591711167
66778.41562871
66347.524695354
65907.007693468
65471.842320696
65053.666067667
64673.808965873
64336.220393012
64043.784663016
63797.622500871
63620.884241171
271395.18837527
270437.6689368
269309.93092607
267985.78731981
266410.23269329
264506.03283388
262187.15282741
259383.8133954
256071.25115567
252279.17335519
248080.79755867
243569.83325668
238838.2422508
233960.35099365
228986.45681613
223945.7443468
218851.53446317
213708.20881441
208517.44901697
203280.52273345
198003.80600464
192694.88479467
187366.69683892
182029.59106777
176698.58289504
171417.34601742
166208.63583152
161069.15625934
155984.14762867
151044.37107322
146242.08203279
141558.38087276
137029.19843943
132636.57028724
128346.89030159
124182.25542095
120135.21100308
116158.66406021
112298.14286226
108519.41340572
104810.87344117
101219.01572775
97704.363790405
94250.352776862
90921.738559216
87657.211339218
84457.690587888
81440.443192432
78466.868340444
75676.414231398
73028.711156504
70448.018445819
68069.080854321
65737.644307649
63584.388439842
61489.277495968
59453.631986635
57533.736031255
55644.455919064
53841.48746011
52090.691617
50379.126456718
48709.541109745
47117.400188411
45576.124419757
44046.480820831
42590.928858632
41178.329967046
39784.443752467
38467.325469391
37214.693521139
35964.595930659
34784.365038323
33637.039972556
32523.231581563
31485.884211564
30463.986812961
29510.297677317
28577.242831679
27681.559129712
26836.096942139
26005.874411289
25234.764708924
24486.908387716
23750.652321659
23043.309883733
22389.731111128
21741.522742136
21108.71468139
20516.000036799
19943.575479823
19385.14487199
18839.982827063
18331.830589796
17823.190261213
17344.234461758
16870.543224344
16416.983799573
15981.638843795
15548.806933119
15142.902288161
14736.964397313
14355.392937384
13975.427381856
13602.061787921
13196.603087495
13003.424569816
13701.9286503
21359.37234147
65946.525883727
140745.47737523
154803.22206053
154126.8613026
153587.21380087
153725.61248231
154481.60162127
155203.17490342
155420.54424689
155630.57795459
155495.51903802
155887.50156357
156795.97738721
158065.70199798
159728.59546486
161476.90329386
162925.363393
164217.94899496
166019.60458001
168169.54690532
170551.01157009
173165.39820087
175952.16158258
178778.57981987
181529.06104149
184132.62523394
186523.42410257
188676.50419484
190594.30366148
192336.69077997
193889.98745419
195264.50907367
196449.18559832
197361.85871931
197912.79382544
198057.86682286
197817.2843982
197100.89100821
195983.10921104
194580.23612426
192923.63948031
191020.95847341
188936.73506417
186687.85808888
184286.42565534
181765.06771071
179212.22832473
176646.91626795
174077.4865434
171497.06829068
168904.84293197
166309.67057088
163730.93259047
161172.84636908
158637.37749684
156126.78572512
153632.76896844
151144.96668858
148655.33897172
146168.25416376
143678.63754473
141176.74973255
138725.37360957
136287.59449223
133849.70362311
131347.89311363
128833.07910136
126302.27469537
123892.31980543
121432.19911347
119104.29502216
116843.86818751
114632.09584739
112512.38328697
110465.76295716
108504.85128756
106664.48714773
104900.61468337
103232.337063
101797.6887824
100531.33819274
99503.767094396
99057.112436563
98496.160952346
98045.122286495
97737.915965867
97432.622871876
97067.048352373
96536.445808043
95762.952547666
94654.756370396
93252.61468066
91461.923893756
89558.700507266
87631.754870328
85829.342239505
84125.542766166
82552.991951293
81084.366777788
79689.620517018
78395.616273337
77201.125085476
76096.438010165
75080.543377485
74177.678488429
73401.486326163
72724.745451431
72113.862873037
71553.51271658
71033.243459011
70561.940245867
70136.182935968
69745.371505178
69390.310674104
69069.967516184
68763.077473371
68476.255357315
68194.48610918
67901.334090374
67586.567827624
67243.394759629
66863.583045566
66441.115547521
66001.564133294
65562.995406003
65142.921398818
64755.296937895
64417.378748105
64125.533255369
63874.060994268
63694.252185857
271394.8654671
270436.83271278
269310.85792
267983.58624263
266392.28330417
264457.55141717
262096.28897261
259248.95276574
255902.15791949
252091.00412033
247886.33744924
243375.89253092
238644.73143764
233762.8915066
228779.66645679
223725.03619116
218613.92866502
213452.8390296
208244.16087599
202991.86747233
197701.37145702
192382.92787126
187047.16312212
181704.43458125
176381.34483517
171107.19849496
165905.0888814
160766.8677148
155684.27556438
150757.05195214
145959.81872441
141281.78745762
136758.47920165
132359.7539594
128067.7485856
123912.90974533
119863.20064833
115886.46914625
112031.75548459
108261.00290814
104558.28734445
100970.56632099
97455.857366732
94008.44235827
90682.244186807
87422.655263858
84252.288782458
81238.027291942
78269.517571847
75523.042071234
72855.673216899
70305.930578762
67929.061988921
65603.528260876
63447.229026703
61337.783507836
59317.396685741
57401.517894008
55514.718100431
53708.140031417
51964.228047594
50253.328707108
48591.619643634
47008.881668711
45461.948933795
43934.485641883
42490.507971753
41082.682550157
39695.120522801
38387.487792593
37130.217571898
35880.701189533
34713.010524652
33565.353687773
32464.565115871
31425.039662169
30406.871317164
29454.015768943
28517.99403204
27633.999254076
26787.879096502
25957.649291755
25189.321039587
24440.31323686
23709.807898533
23005.664784998
22351.880293866
21704.833545956
21074.188866879
20485.167851987
19908.632775872
19357.051580586
18812.838649593
18305.268764728
17797.746720417
17320.973739212
16847.508643777
16394.760750667
15961.560392176
15528.381594613
15122.929113412
14717.236490714
14336.064363163
13956.345814627
13582.255623832
13175.295681231
12988.409956509
13703.650209296
21493.437102615
66516.795842009
140832.35903357
154627.8531291
153966.2748361
153491.88812973
153562.16612401
154372.85057045
155297.06315473
155501.07038924
155781.28043497
155628.55551901
155962.06993218
156732.77101377
157789.86564142
159314.30485366
161050.2594237
162541.59588175
163926.28719695
165745.51761397
167909.40943599
170320.97370508
172969.59126877
175795.70977227
178663.57261849
181447.59600028
184085.61875376
186522.75709362
188723.53364905
190695.06728592
192469.97688392
194036.52763554
195402.44568307
196563.57849586
197449.25727359
197972.68393319
198106.06489037
197865.20458009
197146.99755918
196040.35781444
194656.83576661
193013.85113887
191118.60924441
189036.97051337
186781.36078155
184370.07598972
181843.02027317
179272.85000609
176692.67506986
174104.88550971
171505.43683126
168897.78697674
166291.00143889
163703.62210705
161138.519602
158598.94025193
156084.40365834
153586.58116008
151097.64372875
148610.63056553
146127.82124813
143647.84773373
141160.37304095
138706.34967905
136229.88188461
133772.278766
131243.27757552
128740.45451235
126232.12247941
123809.76297372
121359.03750611
119036.30946097
116753.23789586
114551.46594908
112415.61220155
110357.32295367
108385.33200988
106531.4466304
104819.71576314
103176.48294565
101709.79572689
100479.79664674
99435.389292932
99027.445995929
98519.869581718
98077.205843951
97777.553112361
97466.833965457
97069.686690491
96490.235363336
95648.380685453
94488.896730808
92955.272017007
91128.904833301
89126.983724286
87188.655422797
85354.302914594
83641.231082658
82066.167051017
80585.177100798
79195.675762379
77908.841736028
76725.100082102
75635.97513877
74640.891791767
73759.511812769
73007.329158926
72365.249551739
71796.668039094
71281.008119649
70812.430748916
70388.221599846
70010.400046144
69668.534134479
69361.271811166
69067.677544374
68786.761958469
68515.844328168
68253.611682955
67990.474393445
67706.013151174
67392.910639339
67036.099299489
66635.397886674
66203.462815089
65761.25723743
65341.419955861
64941.957369701
64594.838621152
64298.809887688
64034.209299249
63850.043661122
271394.34523653
270437.37750418
269315.38999921
267980.12571381
266361.074398
264377.37031343
261952.46320769
259042.88172592
255648.5038969
251810.07596933
247594.44273498
243081.7970934
238348.81946295
233460.0203649
228462.90297418
223387.73459264
218251.76496522
213063.80127494
207828.5630643
202552.75657957
197242.05949645
191909.31549613
186562.837671
181215.18444761
175903.13036417
170639.26895728
165443.74935701
160309.50566339
155233.08877679
150324.75538134
145536.79924773
140868.80575501
136358.9582783
131949.97471565
127660.36627519
123516.50279782
119465.56014439
115492.47527683
111643.04680656
107883.98940917
104195.18532602
100603.73085451
97095.667582798
93661.805476722
90339.117338468
87081.102473649
83971.195523595
80936.403530479
78004.817917509
75288.204099657
72626.886408895
70101.951856772
67732.095734192
65413.38875959
63255.546354037
61139.872268883
59127.939793299
57216.023333567
55329.932801587
53530.636567251
51787.483895719
50074.406523688
48433.653898053
46849.710703601
45302.867151919
43783.824091437
42348.329301443
40946.570491622
39571.4311112
38272.985486731
37012.166354276
35769.682111339
34610.673884799
33468.249138739
32388.982158627
31335.731653888
30333.080610312
29378.988425787
28442.548344193
27571.900930708
26720.955925477
25897.474879836
25128.91879072
24380.748523306
23655.179578743
22957.916951596
22302.770988855
21657.546924972
21030.409763824
20444.988039649
19866.603327239
19320.55580733
18778.406308581
18272.289081819
17766.289652509
17292.357711283
16819.419136799
16368.894795473
15936.475676923
15504.441954547
15099.532808751
14693.737170011
14313.520051256
13933.372363363
13559.475245508
13151.40831708
12972.999428118
13709.02022651
21634.966113067
67000.075155029
140929.36257743
154458.84970782
153771.61290525
153403.37100785
153398.70822484
154223.61453483
155264.63359437
155513.79710951
155898.75865371
155817.26572462
156105.97031773
156729.65883382
157516.31787251
158811.7911639
160495.14028433
162044.71498582
163541.46204255
165365.0750383
167547.41195457
169994.55513469
172680.42116184
175543.86638227
178449.71415126
181284.00566818
183966.52941662
186467.18986256
188720.74270344
190742.8100759
192549.53187708
194131.2430936
195490.41302761
196616.34367665
197479.80114067
197972.5834997
198105.90047948
197873.23335146
197160.79263863
196085.4631618
194738.02060825
193118.6457079
191233.99961881
189163.35646937
186901.17685219
184477.94718872
181939.40191479
179339.00399155
176725.85395875
174104.898924
171467.30611995
168830.11399374
166202.94542642
163606.39968874
161035.13156476
158492.97539314
155974.18881107
153472.04543609
150982.16358392
148501.88730065
146022.8775537
143554.88343732
141081.43078412
138613.94134815
136116.95001251
133622.36880222
131084.42605863
128586.57877514
126093.31275629
123671.54657516
121247.53582862
118946.56025323
116622.01195648
114439.89760971
112292.57090881
110223.17845107
108244.1451724
106395.78767956
104700.89194888
103127.56890815
101657.60160488
100417.46501093
99388.438937981
99020.602033519
98530.111974019
98115.068415106
97810.844302498
97494.323503308
97022.254104543
96349.426048453
95324.018517682
93988.261595301
92322.206818706
90401.551411875
88425.811155909
86523.443756793
84713.726482324
83010.999280039
81438.278717994
79967.893968449
78589.330641619
77318.571039593
76153.105482307
75086.993706537
74123.889662282
73275.206920184
72548.323452449
71938.812939835
71428.223167991
70968.361738507
70542.967810017
70158.731100163
69833.572812992
69541.117885896
69287.863577099
69041.423283889
68808.187985941
68586.229123966
68373.831177168
68166.802705551
67937.111664211
67672.297317965
67332.712322682
66928.829127595
66489.371408672
66042.059802983
65627.176354468
65213.975246312
64857.602480932
64544.493316589
64265.079795947
64073.93045256
271393.35427829
270441.33953135
269324.79795203
267973.21799166
266311.17984237
264258.45622044
261751.38079473
258766.08275003
255314.21210058
251440.70667054
247207.34603441
242686.83449461
237947.12560675
233046.95778608
228031.18811615
222929.21949219
217761.22523595
212537.78943211
207268.28538568
201961.08431321
196625.07411995
191272.80297527
185912.70446796
180566.75590921
175263.56778433
170008.71413702
164817.14136369
159690.32174866
154625.29268397
149740.93187972
144963.0016895
140315.59228322
135814.9141007
131400.53702872
127120.36991832
122982.41510408
118933.03256949
114968.53375431
111125.72844526
107378.71064484
103706.18020736
100105.95039417
96616.729639049
93202.242448371
89885.68762369
86645.649168253
83570.557679437
80548.895181977
77672.586576976
74976.140957557
72331.502158707
69832.173104341
67471.520806651
65161.728662565
63007.231189052
60891.281698772
58888.78310741
56978.021136785
55091.13210428
53303.428851837
51565.226436215
49855.168063232
48226.822192833
46644.954976624
45091.332230753
43602.30690142
42173.299906782
40769.208380178
39416.286154487
38127.479321843
36859.323164517
35636.490428695
34487.015294933
33348.367923109
32280.891152177
31229.856516058
30246.574901332
29279.01175317
28354.542209453
27490.006219267
26638.913794554
25824.041180188
25056.826430981
24302.814682455
23591.215825809
22895.448377435
22241.410843584
21599.59017746
20978.434882105
20394.044422563
19817.182001813
19275.683435287
18735.971324174
18231.810726609
17727.675259768
17255.78081853
16785.042567139
16336.15657372
15904.537329684
15474.55776929
15069.545864299
14664.31120931
14284.14672328
13905.021785541
13531.681512823
13120.779528125
12957.514650378
13728.578836395
21948.916811622
68168.529194245
141468.17166866
154507.51044958
153735.41529058
153123.62045591
153017.8678818
153897.09928772
155093.66181565
155338.5126803
155819.11972801
155797.53535832
156093.91869202
156573.78519333
157149.20660948
158252.38115006
159833.91098583
161422.31424623
163021.00796614
164909.28596627
167104.67417624
169574.92908229
172309.85173151
175226.11935024
178187.47901423
181104.8228537
183824.19666583
186367.65219169
188664.96742286
190726.14684718
192568.77043941
194175.5119983
195551.58934508
196648.95816116
197488.8595748
197958.86295424
198114.96442034
197902.07516459
197209.08984492
196175.18291177
194858.43972551
193257.13008387
191378.45657961
189320.49029314
187047.88916604
184615.85770349
182049.29471446
179418.21171535
176764.65026304
174094.04586897
171416.5592898
168757.38892569
166094.59965818
163487.40184351
160898.97304973
158344.11961814
155812.90284859
153302.99902471
150810.72995947
148337.79800657
145872.51363169
143423.18446727
140964.19146201
138490.12219193
135975.48927753
133455.27816588
130925.4487643
128438.02964256
125964.89412452
123525.16880244
121142.43409539
118819.23983425
116493.47297283
114330.29268436
112151.35749098
110071.72568673
108090.55655757
106247.39064559
104578.77569747
103027.08830385
101613.43820144
100353.14899564
99385.291030362
99005.621192392
98491.397709162
98140.497647471
97821.904252489
97346.097567374
96783.097761026
95963.742580411
94814.962236063
93319.428429663
91542.637270319
89624.62417743
87680.900031351
85803.058974045
84011.850149512
82332.528628188
80770.975114694
79322.638508872
77986.775135445
76736.623490555
75600.496304445
74569.875800184
73644.688413097
72840.316186595
72156.4198838
71588.00172291
71126.622453394
70718.993926303
70350.378041578
70040.253659973
69763.827463285
69521.438839209
69303.778788921
69098.284913699
68902.907012655
68715.490608909
68536.057247105
68348.088948241
68111.456170949
67882.164970707
67597.620387085
67240.08087982
66838.778916313
66412.832378131
65991.883997467
65568.85388502
65197.966507828
64849.133474537
64566.884283802
64349.276257968
271393.46041948
270456.41128269
269339.17225664
267957.26510531
266234.36726397
264093.34590619
261490.41380236
258420.04834939
254902.6836455
250985.58375924
246725.43267226
242189.09688172
237436.04037782
232519.25515885
227479.38327966
222344.81798516
217137.63171389
211871.59200097
206560.43297112
201215.7153376
195849.53790094
190474.09629673
185100.79861995
179760.00516554
174462.06813436
169210.79884901
164019.48485018
158902.99093969
153866.65083857
148998.97919626
144236.82359547
139620.98399298
135121.24528033
130710.31705268
126448.59908485
122307.27419689
118264.55761712
114313.20034479
110477.48124584
106738.41648312
103079.61931861
99482.83296814
96007.032482876
92623.582248089
89313.212504015
86110.244738049
83065.655068753
80074.083311959
77248.816339325
74575.530955155
71950.161100655
69492.48960435
67137.434241422
64836.060857369
62688.704475058
60576.965680628
58593.322821857
56678.738205025
54792.174939082
53012.665392721
51286.512872357
49588.808436417
47951.809008017
46387.89779408
44845.228824489
43374.000355492
41952.667642064
40552.874695138
39226.379472399
37937.447953363
36673.696332599
35473.906752685
34331.04413748
33201.920358777
32141.074615005
31100.652451113
30126.539492294
29162.368858479
28250.524514605
27386.900755954
26535.644738696
25736.146222949
24961.655008367
24214.494634778
23511.044662092
22817.914309792
22162.314721544
21529.452107543
20911.701242667
20330.891330526
19757.056504306
19219.183339844
18682.525392713
18180.945828446
17679.698126804
17209.292557684
16741.493264273
16293.773104072
15864.206947955
15434.845949777
15032.259420896
14627.409739391
14247.175396325
13873.134945972
13499.511128176
13082.63139046
12934.291716521
13739.198308245
22199.950935388
68988.378972771
141895.11981901
154377.3666332
153498.81474061
152796.32211769
152495.32709062
153373.5783703
154725.74169046
154886.6085458
155459.8093102
155578.16596377
155864.79005215
156168.2659201
156559.28186836
157466.13728197
158969.70601146
160628.56486884
162331.66001234
164251.05656333
166493.14124238
169022.31044221
171832.47495612
174803.19088764
177832.07941202
180861.38473077
183660.17878743
186267.10574108
188633.55034343
190750.83670752
192639.48388817
194266.12032521
195639.29599987
196690.93206985
197516.23945165
197964.35987929
198181.75781318
198016.48417153
197361.04714026
196374.20789147
195074.30272313
193478.21724884
191596.44881184
189555.61948804
187252.91676243
184794.33111392
182166.79871455
179481.79249883
176809.13938655
174096.30332983
171364.21685111
168658.20305196
165964.45053125
163328.43828685
160716.05577966
158152.16035796
155608.11433937
153096.14474408
150603.48266025
148133.27202741
145672.13162311
143232.45504531
140752.61338784
138259.62835964
135747.20866246
133235.86744253
130724.20940884
128259.26009964
125806.81045951
123381.21653794
121009.1000918
118679.03430831
116383.41742968
114202.79521205
111994.44220199
109917.24712704
107942.04095592
106100.37986369
104460.02406643
102922.98513746
101550.03939008
100258.53420851
99487.846589378
98947.115878932
98423.410220036
98146.648731612
97730.071577626
97103.003526492
96456.056412302
95566.209402143
94210.997781231
92601.59407772
90745.739635398
88826.337291059
86926.404284798
85102.159558924
83353.624045203
81707.729044645
80175.172847373
78750.662478582
77427.652682375
76225.186215466
75122.194847998
74128.785585127
73242.763998055
72476.465390271
71834.535579925
71313.48147131
70872.216676486
70512.192995912
70211.117964612
69932.902923376
69705.779150862
69509.371012524
69331.014686144
69163.07694054
69002.137393987
68845.584288665
68728.159387703
68608.134822358
68423.161236594
68205.544010126
67927.124254315
67593.057699407
67207.184382516
66807.614637459
66393.564265522
65983.803437488
65601.870353294
65222.643412763
64924.974404642
64669.486437584
271395.79192402
270485.91856176
269356.68136252
267925.16180606
266118.82466901
263875.2717519
261168.59261084
258005.87730791
254414.76737646
250444.48551652
246147.87238767
241586.72041047
236812.88464883
231872.76995885
226802.21870055
221628.42616034
216374.96579653
211059.97684269
205701.0283509
200314.10695935
194913.63969066
189514.45829785
184132.42490487
178793.05553712
173492.41939216
168238.28568677
163047.15364449
157951.54230215
152949.32376478
148100.71712279
143360.29006715
138775.25665275
134282.58903009
129882.44529964
125640.00156183
121492.92558032
117463.87247308
113529.58077914
109691.20818708
105965.42636977
102319.38772126
98725.223559501
95284.351434628
91920.868249838
88618.459190728
85487.210261161
82451.216589907
79510.812568905
76741.92027785
74089.262421316
71490.595123244
69073.506543179
66721.958533477
64440.143789975
62298.200992907
60202.532791244
58235.33744897
56307.447793239
54446.556412427
52673.603373472
50932.204075853
49270.762971894
47633.119634798
46082.387296005
44553.841055322
43083.033868037
41687.031741041
40300.479361275
38992.078097564
37709.188578156
36456.427212803
35282.043711454
34135.56479296
33028.415787564
31975.749743388
30944.107703706
29978.101682678
29019.778007793
28128.519586241
27255.103645781
26416.399073799
25626.115301083
24849.197887921
24111.497434792
23413.766182191
22721.289307535
22070.357511083
21445.072857313
20829.801265921
20252.745117241
19684.087343495
19148.903576653
18616.992371045
18118.507968028
17620.669016043
17151.554083935
16687.915988064
16238.966656405
15813.250028247
15383.641650004
14981.874247467
14577.350956832
14202.185614787
13825.525831377
13457.776549602
13038.726040757
12911.103974046
13762.50845108
22609.719791525
70836.83000901
142641.44034564
154379.92208232
153498.3430059
152857.74373357
152145.12669824
152998.29055803
154119.31618352
154323.53067692
154947.39429158
155282.20489049
155589.02339855
155773.28102989
156058.20007429
156785.57593429
158133.77173559
159759.34503732
161462.23498635
163412.60348393
165691.55150138
168314.97229339
171256.26645957
174339.37613998
177450.53659018
180512.35792212
183406.00904803
186092.09410039
188506.3609386
190662.7773721
192578.72309221
194215.77170849
195574.75860035
196629.92138955
197491.83852317
197972.77780482
198250.5522559
198146.86452515
197553.73021179
196626.76550007
195338.4423617
193746.69655116
191868.25801041
189830.43183721
187491.45690093
184982.14638547
182313.1393562
179542.82796799
176755.22490473
173970.69181361
171176.75707717
168412.68707107
165669.34210409
162992.24829838
160343.12643453
157761.57682087
155198.1605568
152690.40325977
150205.09057595
147749.54628303
145307.14816616
142887.50598207
140410.26503029
137943.97819836
135483.53972489
133024.99509122
130539.20191777
128094.4420373
125630.51248076
123218.77533126
120860.40900947
118561.75997017
116260.23419389
114070.40803903
111854.88833569
109773.89650401
107834.03745955
105957.32537284
104342.81308873
102848.23100107
101444.60260255
100130.44386592
99565.767629487
98706.711076746
98532.294401689
98147.235061764
97518.053591519
96886.665677419
96163.629766976
95069.256556276
93553.407224572
91892.032406025
90035.838405219
88136.332323987
86316.792467438
84535.732558286
82820.142085985
81202.632576495
79688.07469784
78293.782226224
76997.846599364
75817.245859791
74737.98250517
73778.853802796
72934.857909219
72208.089248153
71606.028368671
71118.014176534
70718.376103717
70387.335890304
70110.526227958
69882.968416223
69699.212749938
69544.223605781
69399.344016833
69261.513628567
69128.628043777
68993.34584448
68894.543386232
68771.730712373
68635.109121024
68491.467895548
68270.428055293
67985.169983131
67618.053662273
67227.981485374
66821.030809964
66417.245773702
66035.644217051
65647.356190463
65313.238343408
65007.373794115
271412.05113457
270528.86446738
269372.96892261
267872.54767201
265961.35358605
263603.57289778
260786.41372209
257524.70116863
253850.41370365
249817.11337288
245474.30189839
240879.76796185
236075.57934188
231102.77609923
225992.32124303
220770.77877
215464.22394264
210094.27311896
204684.27367739
199252.53267999
193813.00633315
188402.77481887
183004.80715487
177659.07739734
172347.3319006
167086.17744911
161903.65378354
156833.94780092
151869.92921197
147047.23404003
142333.8771658
137773.79247697
133298.96655697
128916.0783342
124689.68066984
120543.68945835
116528.31123178
112612.1259744
108772.07287367
105061.10099988
101428.45514574
97848.348330514
94437.418097961
91102.022998784
87817.360262412
84750.664712295
81767.239019048
78851.340068618
76139.431546333
73525.090727287
70957.506734916
68563.183430534
66224.902826321
63979.475779559
61845.487654071
59773.593324878
57811.560141486
55879.239526282
54052.322683781
52280.581980948
50532.899949503
48888.284766972
47270.174709859
45716.140084729
44225.000628875
42771.506920718
41377.268938422
39995.761768355
38701.803952213
37445.39616997
36211.692594499
35053.379408224
33913.03210214
32838.60010746
31778.551679009
30764.992514406
29805.44282512
28859.524501867
27975.9442938
27101.24999962
26283.180909769
25487.550149062
24718.987779199
23998.305580599
23293.396843569
22608.521491682
21968.420888341
21346.189219027
20735.519377715
20162.240488117
19599.23083796
19064.424946856
18539.285928096
18043.106676078
17551.268462494
17081.474504598
16626.22860372
16173.475501384
15751.19427088
15323.265884125
14926.37943981
14524.01233053
14146.19339715
13776.841802511
13407.497659015
12982.42842734
12872.333773845
13748.850836887
22973.34256905
72921.959694308
142617.54053827
153485.56375113
153322.09119557
153061.50215146
152133.8772225
152631.13685581
153223.19195314
153806.85829054
154541.35028962
154966.45950489
155263.23870253
155330.28344336
155511.09845044
156099.16676249
157198.92028553
158597.61003822
160242.03701821
162194.64547155
164513.97974221
167274.1632017
170404.60725965
173667.00442137
176849.6111688
179903.22980982
182856.70734713
185555.4067801
188015.07156031
190205.27113679
192160.28420544
193887.93461338
195393.88555626
196610.51550302
197568.73128077
198037.17131262
198270.79944215
198158.73819132
197588.81454502
196732.19021474
195455.57942528