/*--------------------------------*- C++ -*----------------------------------*\
| =========                 |                                                 |
| \\      /  F ield         | OpenFOAM: The Open Source CFD Toolbox           |
|  \\    /   O peration     | Version:  2312                                  |
|   \\  /    A nd           | Website:  www.openfoam.com                      |
|    \\/     M anipulation  |                                                 |
\*---------------------------------------------------------------------------*/
FoamFile
{
    version     2.0;
    format      ascii;
    arch        "LSB;label=32;scalar=64";
    class       surfaceScalarField;
    location    "0.0006";
    object      phi;
}
// * * * * * * * * * * * * * * * * * * * * * * * * * * * * * * * * * * * * * //

dimensions      [1 0 -1 0 0 0 0];

oriented        oriented;

internalField   nonuniform List<scalar> 
57240
(
3.2985725613943e-08
-3.9055388061601e-14
3.2985569962149e-08
1.4407592515442e-13
3.2985428276582e-08
1.1777025497614e-13
3.298543029336e-08
-4.410431968805e-14
3.2984831264844e-08
5.351419166955e-13
3.298160569275e-08
3.1438500203432e-12
3.2972464140488e-08
9.0579458295585e-12
3.2953213376486e-08
1.9186190677331e-11
3.2920483796222e-08
3.2708502829023e-11
3.2872523930371e-08
4.7984183205275e-11
3.2809168712761e-08
6.3437902782755e-11
3.2731004148699e-08
7.8284924046771e-11
3.2638753625833e-08
9.2421247335846e-11
3.2532836125451e-08
1.0613635213425e-10
3.2412954007684e-08
1.201430949703e-10
3.2278689425819e-08
1.3458062757976e-10
3.2129192344877e-08
1.4979457893383e-10
3.1963457546873e-08
1.6600414114582e-10
3.1781078468098e-08
1.8250609924135e-10
3.1580721179415e-08
2.0029256395701e-10
3.1362936993901e-08
2.1748033226731e-10
3.1126655512034e-08
2.3564909609911e-10
3.0873019783847e-08
2.527344992136e-10
3.0601859146708e-08
2.6988989339817e-10
3.031416520637e-08
2.8622240455561e-10
3.0012791193587e-08
2.9969554641401e-10
2.9697106228016e-08
3.1373361550574e-10
2.9370365543757e-08
3.2425554230445e-10
2.9030098144489e-08
3.3687245879997e-10
2.8682283104086e-08
3.4596143820397e-10
2.8326895028795e-08
3.5410035139258e-10
2.7965015185798e-08
3.6155008401157e-10
2.7598931190771e-08
3.6736032214293e-10
2.7227696687663e-08
3.7294370732867e-10
2.6851220717447e-08
3.7884677059431e-10
2.647017050822e-08
3.8418155483329e-10
2.6086019722483e-08
3.8696969444716e-10
2.5695350844984e-08
3.9294902279963e-10
2.5302203178817e-08
3.9451421543488e-10
2.4903387724741e-08
3.9916939705802e-10
2.4503940207627e-08
3.9873757589187e-10
2.4099651652161e-08
4.0213069017985e-10
2.3695148476859e-08
4.0088865433967e-10
2.3286664679623e-08
4.0331259133304e-10
2.2878030377317e-08
4.0182624481835e-10
2.2466809063911e-08
4.0249128602815e-10
2.2056829417864e-08
4.0108568262779e-10
2.1652630936967e-08
3.9580033905209e-10
2.1248719222151e-08
3.954813888672e-10
2.0856055537548e-08
3.8823635591496e-10
2.0469657167215e-08
3.8306259089571e-10
2.0090787658388e-08
3.78087371637e-10
1.9723031839436e-08
3.6942757069293e-10
1.9363202063513e-08
3.6420223729056e-10
1.9014441077143e-08
3.5562641916497e-10
1.8668823342896e-08
3.5255756199472e-10
1.8329095895348e-08
3.4700440327872e-10
1.7994341150338e-08
3.4185957815932e-10
1.7665205566697e-08
3.3590516729156e-10
1.7340006832577e-08
3.3123169293733e-10
1.7018705280559e-08
3.2632290250138e-10
1.6699130481443e-08
3.2190708684825e-10
1.6385886860713e-08
3.1650102301639e-10
1.6076290432845e-08
3.1148216723176e-10
1.5771715446552e-08
3.0567631380222e-10
1.546830098799e-08
3.0187783646692e-10
1.5169566106679e-08
2.9671445651519e-10
1.4873877186374e-08
2.9137588580441e-10
1.4583706215195e-08
2.8594315351105e-10
1.4302185593534e-08
2.7947704197094e-10
1.4025133619813e-08
2.7370945536693e-10
1.3749853846205e-08
2.6932508160929e-10
1.34801227457e-08
2.6358646092718e-10
1.321616414517e-08
2.5792445816788e-10
1.2959189594242e-08
2.518483799394e-10
1.2709808322338e-08
2.4533640222096e-10
1.2465799385729e-08
2.4008953485992e-10
1.2228922635357e-08
2.3445126406239e-10
1.1996041213974e-08
2.2920901386004e-10
1.176914258125e-08
2.2455092372159e-10
1.1549131674159e-08
2.1839051575199e-10
1.1334467857982e-08
2.1423546314457e-10
1.1127535953443e-08
2.0865998873821e-10
1.092076589658e-08
2.0498879488831e-10
1.0720036086303e-08
1.9988828084547e-10
1.0526299303991e-08
1.9557633356592e-10
1.0338113459883e-08
1.9056829712168e-10
1.0150563305645e-08
1.8681136700767e-10
9.9691638587928e-09
1.8279964814911e-10
9.7941979014641e-09
1.7780455377275e-10
9.6209911043746e-09
1.7498916645736e-10
9.4517477372917e-09
1.7012916725667e-10
9.2871621331636e-09
1.6674911541229e-10
9.1262168386785e-09
1.6279688865993e-10
8.9683383558253e-09
1.5929745630223e-10
8.8139275489263e-09
1.5552244203812e-10
8.6626605966089e-09
1.5179252901312e-10
8.5151863431788e-09
1.4876573112018e-10
8.3702253277059e-09
1.4494906650154e-10
8.2283785896692e-09
1.4194312134087e-10
8.0898784947573e-09
1.3814099527641e-10
7.9535325048427e-09
1.3582601520126e-10
7.8204341319324e-09
1.3187367548267e-10
7.6882942095835e-09
1.2996291319645e-10
7.5603196499825e-09
1.2723232823312e-10
7.4490516373872e-09
1.2699127804811e-10
7.3018389249673e-09
1.2464952052322e-10
7.1469256641391e-09
1.2266549953453e-10
6.7618662928338e-09
1.3957624888292e-10
5.4911433243637e-09
2.7531485063762e-10
4.7638716757488e-09
3.5393776172987e-10
4.5833751982798e-09
2.1037180923058e-10
4.3473230490849e-09
2.6720605619082e-10
3.9354198938262e-09
4.409221648791e-10
3.3234911344911e-09
6.3784544539446e-10
3.0327335150139e-09
3.918730041769e-10
2.9385493810451e-09
1.787277205053e-10
2.9354299878383e-09
1.5076755214496e-10
2.9582055440192e-09
1.6362029442152e-10
2.8841297932304e-09
2.0865928247659e-10
2.7387549032395e-09
2.5984818484069e-10
2.5954834304727e-09
2.7176504242025e-10
2.4968060501647e-09
2.544666073592e-10
2.4193176599643e-09
2.2223423183228e-10
2.3424334894024e-09
1.7403827952856e-10
2.2586992440156e-09
1.1655269386921e-10
2.2163997136885e-09
6.2628452580387e-11
2.2387848988241e-09
3.6541608084776e-12
2.3273583357787e-09
-6.0364036832414e-11
2.4763188894238e-09
-1.194171093043e-10
2.6668017965108e-09
-1.6436468822949e-10
2.8805616259864e-09
-2.0127217754967e-10
3.1066035857448e-09
-2.3334076671133e-10
3.3415113011937e-09
-2.5852350969063e-10
3.5892726214736e-09
-2.7781793518654e-10
3.8582794497692e-09
-2.9445949851239e-10
4.1600234817277e-09
-3.1314059136698e-10
4.4932380624279e-09
-3.2776924028577e-10
4.8577199749485e-09
-3.4386035671946e-10
5.2401875548231e-09
-3.500183144847e-10
5.6278887121155e-09
-3.4807147304961e-10
6.0121099283819e-09
-3.3962482428218e-10
6.3781619841934e-09
-3.2753159394525e-10
6.7164452988395e-09
-3.1208310764382e-10
7.0202372502353e-09
-2.9230327976842e-10
7.2884655751867e-09
-2.7319636340692e-10
7.518602840919e-09
-2.5061766100574e-10
7.7150021443656e-09
-2.268768267986e-10
7.8823608847075e-09
-2.0591816084332e-10
8.0232704437387e-09
-1.8620804889927e-10
8.144365129519e-09
-1.6868956181033e-10
8.252393886454e-09
-1.5513620930387e-10
8.3487641962367e-09
-1.4408060254526e-10
8.4352057588916e-09
-1.3693130457152e-10
8.517490219603e-09
-1.3338671692369e-10
8.6025641117414e-09
-1.3614569711849e-10
8.6938122344209e-09
-1.4116634955248e-10
8.7972179682311e-09
-1.4899191997103e-10
8.9172482728281e-09
-1.5842102506009e-10
9.0566141196431e-09
-1.6881093577793e-10
9.2172452964335e-09
-1.8038266857361e-10
9.3999692573079e-09
-1.9331360787247e-10
9.603518443922e-09
-2.0623721712413e-10
9.8254723613488e-09
-2.1849222745083e-10
1.0063293295684e-08
-2.3017817266708e-10
1.0312948495554e-08
-2.3966957665667e-10
1.0568899118725e-08
-2.4484245563882e-10
1.0827094418601e-08
-2.4581207998605e-10
1.1082252328683e-08
-2.4475768462149e-10
1.1330235865052e-08
-2.4140707778676e-10
1.1568010407986e-08
-2.380983810597e-10
1.1793450010644e-08
-2.3218217131403e-10
1.2000766988578e-08
-2.2311286918113e-10
1.2185168557204e-08
-2.068976025805e-10
1.2340652218639e-08
-1.8226885235208e-10
1.2462434492071e-08
-1.5554654723697e-10
1.2550827478765e-08
-1.249648423167e-10
1.2605751471593e-08
-9.5258747316256e-11
1.262023313236e-08
-6.4996119500853e-11
1.2603065081452e-08
-2.8282640472951e-11
1.2538937170168e-08
1.7869963421829e-11
1.2434750440775e-08
6.1814349761567e-11
1.2304587856724e-08
9.7054827566611e-11
1.2166574699272e-08
1.1544896444932e-10
1.204032005358e-08
1.1923227613192e-10
1.1936306634135e-08
1.1467507431714e-10
1.1853118400968e-08
1.0756555721408e-10
1.179372578969e-08
1.0189122515863e-10
1.1755247343387e-08
8.9114956287984e-11
1.1707374306992e-08
8.6047691024662e-11
1.1666022398194e-08
6.6937058693726e-11
1.1614706045808e-08
4.0492568558765e-11
1.1534994884655e-08
3.8195673852796e-11
1.1412220577546e-08
5.367543452336e-11
1.1231851982269e-08
8.7114681650084e-11
1.0977322253045e-08
1.4096550362996e-10
1.0636745553983e-08
2.0753022863131e-10
1.0203651514029e-08
2.7952554000255e-10
9.6908035675286e-09
3.3640241060318e-10
9.1239166509446e-09
3.6757140547957e-10
8.5345578938661e-09
3.5778936493627e-10
7.9590250130959e-09
3.2444061822693e-10
7.4423454987891e-09
2.7517027498757e-10
6.9890897422295e-09
2.2232857099764e-10
6.5992149159388e-09
1.6967156210642e-10
6.2708859324006e-09
1.2272374124027e-10
5.9991567879739e-09
8.0511252518083e-11
5.7728667889887e-09
4.6307807929253e-11
5.5845423152286e-09
1.6560789613506e-11
5.427293721457e-09
-5.613742107279e-12
5.2958767657717e-09
-2.408854737951e-11
5.1854870434363e-09
-4.0286262349636e-11
5.094300399361e-09
-5.3652216840518e-11
5.0238997786652e-09
-6.5175349232529e-11
4.9734912676132e-09
-7.572091423935e-11
4.936775329589e-09
-8.4272542285648e-11
4.909534784715e-09
-8.9826915939698e-11
4.8886146019272e-09
-9.2963210591717e-11
4.8704132973307e-09
-9.1838875055146e-11
4.8533801680482e-09
-8.9007284911239e-11
4.83704450549e-09
-8.6680203426862e-11
4.8185583943991e-09
-8.1401605902462e-11
4.7935925090742e-09
-7.2874984978122e-11
4.7651743604126e-09
-6.8968263332491e-11
4.7299949241977e-09
-6.2569780298483e-11
4.6867220621174e-09
-5.4655963195121e-11
4.6342170971036e-09
-4.4715920575493e-11
4.5730237514422e-09
-3.3723680858864e-11
4.5047290656298e-09
-2.1663320528628e-11
4.4341543775121e-09
-1.1774112046206e-11
4.362058832578e-09
-9.883945509812e-13
4.290241591588e-09
8.8869100586362e-12
4.2224967135565e-09
1.8130211506567e-11
4.1578568925152e-09
2.8304701377215e-11
4.0955036539601e-09
4.1216128127308e-11
4.0378728370558e-09
5.3239781817865e-11
3.9879087759507e-09
6.1820106526406e-11
3.9459265808667e-09
6.8550154858668e-11
3.914497048682e-09
6.9756056815964e-11
6.8518333642604e-11
9.8957174086192e-08
-1.3849315775437e-13
9.8956702860294e-08
5.8109807712465e-13
9.8956718896189e-08
3.0217800449251e-14
9.8957331269807e-08
-7.8306481992786e-13
9.8955834493192e-08
1.8397067039166e-12
9.8945739843775e-08
1.2994490284597e-11
9.8916833167346e-08
3.7715476029867e-11
9.8856952646649e-08
7.8876778127437e-11
9.8757145848369e-08
1.3244613609992e-10
9.8612558257535e-08
1.9264105729763e-10
9.8422474793527e-08
2.5375933947457e-10
9.8187956798515e-08
3.1317760633551e-10
9.7910840225357e-08
3.7009069712841e-10
9.7592164004955e-08
4.2554186348374e-10
9.7231178048606e-08
4.8201825481522e-10
9.682659408665e-08
5.4017527045267e-10
9.637601372796e-08
6.0130754671702e-10
9.5876749576778e-08
6.6600702851314e-10
9.5327146406577e-08
7.323611777229e-10
9.4723983085758e-08
8.03094087302e-10
9.4068243566809e-08
8.7208312484359e-10
9.3357407329342e-08
9.4441981401133e-10
9.259472446785e-08
1.0125415201903e-09
9.1779433088254e-08
1.0811634622387e-09
9.0915883085021e-08
1.1453500010788e-09
9.0011024943882e-08
1.1995316463446e-09
8.9063627436173e-08
1.2551703711237e-09
8.8081996108275e-08
1.2983332276368e-09
8.7060566012496e-08
1.348444710646e-09
8.6017693662364e-08
1.3839765376053e-09
8.4950505346998e-08
1.4178069814672e-09
8.3864993802875e-08
1.4468463397092e-09
8.2765972555875e-08
1.4703545535242e-09
8.1651549656743e-08
1.4923788574642e-09
8.0521113407615e-08
1.516407907016e-09
7.9379035004315e-08
1.535628632982e-09
7.8224494889687e-08
1.5494603383293e-09
7.7054885642315e-08
1.5692965297332e-09
7.5875231876205e-08
1.5786006137881e-09
7.4681129505256e-08
1.5944046519821e-09
7.3482610487282e-08
1.5946138842338e-09
7.2271472361686e-08
1.6064260869802e-09
7.1058254108612e-08
1.6027796882555e-09
6.9832644148938e-08
1.6133597201284e-09
6.8609579270703e-08
1.6044272819689e-09
6.7374328316784e-08
1.6117503384478e-09
6.6150881779231e-08
1.5992291688981e-09
6.4938527210837e-08
1.5835583520122e-09
6.3729943436884e-08
1.579040244504e-09
6.2556400282978e-08
1.5514590850531e-09
6.1398904934471e-08
1.531874424289e-09
6.0266399343269e-08
1.5089574817475e-09
5.9164764962956e-08
1.4763198013262e-09
5.8085812753795e-08
1.4556868919333e-09
5.7036286691015e-08
1.4248764268351e-09
5.5999219795872e-08
1.409677753238e-09
5.4982376004369e-08
1.3860711637507e-09
5.398019223476e-08
1.3654339466919e-09
5.2992828334031e-08
1.3432846296906e-09
5.201733240235e-08
1.3243856534752e-09
5.1053617345844e-08
1.3041581164752e-09
5.0096672326565e-08
1.2861754870073e-09
4.9158488352064e-08
1.2642535957045e-09
4.8231830338733e-08
1.2435759075617e-09
4.7317763016459e-08
1.2228431324724e-09
4.6406541213039e-08
1.2066302382163e-09
4.5513586665711e-08
1.1851855073528e-09
4.4628055342633e-08
1.1636460519902e-09
4.3759732610001e-08
1.1421683887695e-09
4.2915140330164e-08
1.1167031567002e-09
4.2083681403956e-08
1.094469337286e-09
4.125966950385e-08
1.0762996465674e-09
4.0452753463221e-08
1.0524951728844e-09
3.9663105931212e-08
1.0307429271373e-09
3.8894315027107e-08
1.0050851353588e-09
3.8146065700414e-08
9.8105127171999e-10
3.7414202458976e-08
9.6016481824715e-10
3.6702514943132e-08
9.3711060215123e-10
3.6004173955957e-08
9.1669462793876e-10
3.5326028429341e-08
8.9648790864838e-10
3.4665872300898e-08
8.7317148591091e-10
3.4022147286347e-08
8.5660891581679e-10
3.340136025044e-08
8.3380302034955e-10
3.2781104195617e-08
8.1918418449694e-10
3.2179845616699e-08
7.9884377807071e-10
3.1599551425821e-08
7.8165925320036e-10
3.1034815450995e-08
7.6207970235903e-10
3.047225314079e-08
7.4715918039964e-10
2.9929044274743e-08
7.3073028880848e-10
2.9403577085392e-08
7.1112303005488e-10
2.8884907999383e-08
6.9956695000989e-10
2.8376418380248e-08
6.8026019037136e-10
2.7883442606236e-08
6.6628095266995e-10
2.7400803589582e-08
6.507586241187e-10
2.6927632533768e-08
6.3677534820509e-10
2.6465139697737e-08
6.215802303021e-10
2.6011072335007e-08
6.0708524008506e-10
2.556924677493e-08
5.9436179313134e-10
2.5134420228124e-08
5.7933036490171e-10
2.4709023442213e-08
5.6755205007178e-10
2.4293074960823e-08
5.5320905240482e-10
2.3884351031581e-08
5.4249012541152e-10
2.3484647999183e-08
5.2865785867687e-10
2.3088126314672e-08
5.1907721926044e-10
2.2704018032242e-08
5.0664513323398e-10
2.2372402523422e-08
4.9701542736216e-10
2.1946607928632e-08
4.8589504425569e-10
2.1491184436835e-08
4.7837393525871e-10
2.0363143603511e-08
5.2867447687662e-10
1.6842717408767e-08
8.1186731639668e-10
1.4967841097998e-08
1.1404487483532e-09
1.4378022389137e-08
8.509220213475e-10
1.3637450994772e-08
1.0739224355774e-09
1.2529694924242e-08
1.6579889242683e-09
1.1059871898003e-08
2.1952927380876e-09
1.0171978219101e-08
1.5672240768218e-09
9.8071925321361e-09
7.8185589436145e-10
9.7485068514029e-09
6.0269973986396e-10
9.7699990523496e-09
7.0372681410557e-10
9.6208759691552e-09
8.5260455673026e-10
9.2322095602266e-09
1.0164896740952e-09
8.7546627124203e-09
1.1191124447496e-09
8.3473737842724e-09
1.0962040850712e-09
8.0132010476772e-09
9.711391551977e-10
7.6966905577255e-09
7.8086856164803e-10
7.387644388541e-09
5.4905383512621e-10
7.2058113816952e-09
3.0811079163432e-10
7.239161098037e-09
6.4852584813401e-11
7.4592290192287e-09
-1.8213717519727e-10
7.8575981474932e-09
-4.2244753782203e-10
8.4048159802171e-09
-6.2790315188857e-10
9.0479186908029e-09
-7.9870141675199e-10
9.7418425697577e-09
-9.3697577421058e-10
1.0465438056889e-08
-1.0389105601883e-09
1.1222700404901e-08
-1.1124252448441e-09
1.2032393221734e-08
-1.1764316745883e-09
1.290741247112e-08
-1.2310096014895e-09
1.3862802614645e-08
-1.2771504428506e-09
1.4901945814917e-08
-1.3321476087265e-09
1.600151462999e-08
-1.3656973645495e-09
1.7136763189698e-08
-1.3798105672261e-09
1.8278686868707e-08
-1.3630011007868e-09
1.9373383086477e-08
-1.3206443335756e-09
2.0389302617177e-08
-1.2602984656092e-09
2.1306383704182e-08
-1.1838378792194e-09
2.2121607846351e-08
-1.1085744315656e-09
2.2825583182687e-08
-1.0174379181315e-09
2.3432601723916e-08
-9.2363347191382e-10
2.3954022340776e-08
-8.3746074825481e-10
2.4392022494707e-08
-7.5371950538232e-10
2.4766727823945e-08
-6.7875945010756e-10
2.5097432003823e-08
-6.2071763091657e-10
2.538775962152e-08
-5.7199203791492e-10
2.5641596370291e-08
-5.3691273682414e-10
2.5877577929053e-08
-5.203248403966e-10
2.6118043386957e-08
-5.284930894677e-10
2.637043918717e-08
-5.4515830565764e-10
2.665314602469e-08
-5.7305251954597e-10
2.6981384968858e-08
-6.0652209409773e-10
2.7367932675137e-08
-6.4748162583766e-10
2.7818122929818e-08
-6.926410228366e-10
2.833738283192e-08
-7.4559302706925e-10
2.8924462100972e-08
-8.0152584868748e-10
2.9572770160008e-08
-8.5515603069224e-10
3.0274150048817e-08
-9.0547133301703e-10
3.1015141996226e-08
-9.4543650995234e-10
3.1779247609677e-08
-9.6878724267933e-10
3.2552228232618e-08
-9.7537144403854e-10
3.3319297505731e-08
-9.7204187328488e-10
3.4066528774698e-08
-9.5842825434194e-10
3.4781376477936e-08
-9.3977651477818e-10
3.5458925391182e-08
-9.1354280055561e-10
3.6089932844535e-08
-8.757860684079e-10
3.6670745663636e-08
-8.2471523788971e-10
3.7187257828322e-08
-7.4725244883113e-10
3.763693435968e-08
-6.7788653879903e-10
3.8016149657039e-08
-5.7951624604627e-10
3.8315452337615e-08
-4.9677441430439e-10
3.8521055946782e-08
-3.8836679356657e-10
3.864465564498e-08
-2.7858304653657e-10
3.8673609471851e-08
-1.6438170671037e-10
3.8621301279732e-08
-3.6709340467601e-11
3.8467686368482e-08
9.9794190273954e-11
3.8207281470384e-08
2.3083137375205e-10
3.7845564604673e-08
3.5593236663161e-10
3.7408308159767e-08
4.4638630711031e-10
3.6942264020848e-08
4.7777937864681e-10
3.6514688043519e-08
4.8786976231783e-10
3.6124054445813e-08
5.1092532219637e-10
3.5745934051636e-08
4.9816562645508e-10
3.5582708020633e-08
5.1208877363233e-10
3.531587454081e-08
4.3797434797511e-10
3.4967426320063e-08
4.204035811793e-10
3.4503836537417e-08
4.7603061962947e-10
3.3875796549712e-08
5.9027543486499e-10
3.3048960326907e-08
7.7535120420623e-10
3.1987788194686e-08
1.010828083554e-09
3.0672820564904e-08
1.2769928097362e-09
2.9122564244933e-08
1.5020314463516e-09
2.7410732018061e-08
1.6292304267861e-09
2.5636890457187e-08
1.5658564100933e-09
2.3970302567787e-08
1.3790704807013e-09
2.2467911836873e-08
1.1417567331811e-09
2.1170008595103e-08
8.9462601199661e-10
2.0062539838195e-08
6.7543445638869e-10
1.9143229520414e-08
4.7718822074072e-10
1.838688567506e-08
3.0888512830232e-10
1.7754478513083e-08
1.6488789253608e-10
1.7227895482738e-08
4.7605680286425e-11
1.6790121955038e-08
-3.7824725408304e-11
1.6425099816432e-08
-1.1292875928705e-10
1.6117539187001e-08
-1.7724743624713e-10
1.5862862001718e-08
-2.3032953014638e-10
1.56647347704e-08
-2.7529893625771e-10
1.5520026487998e-08
-3.1658086881506e-10
1.5411527756161e-08
-3.4999611969131e-10
1.532759941802e-08
-3.7243559891192e-10
1.5260445445692e-08
-3.8306493060561e-10
1.5196832541907e-08
-3.8086436819874e-10
1.5128823725622e-08
-3.7406589412371e-10
1.5052190146458e-08
-3.6382228352993e-10
1.4964247245904e-08
-3.4584823326088e-10
1.4853826547218e-08
-3.1435785995592e-10
1.4716107043357e-08
-2.8478042198294e-10
1.4557151731428e-08
-2.5784609957931e-10
1.4370322575442e-08
-2.2111392369856e-10
1.4156627130312e-08
-1.7492371951202e-10
1.3922145517631e-08
-1.2682068734501e-10
1.3673293115657e-08
-7.6737415785675e-11
1.3424056503634e-08
-3.7143027021803e-11
1.3180757059001e-08
1.8128683138676e-12
1.2939649777435e-08
4.2929117252651e-11
1.2712090196434e-08
8.1351698476788e-11
1.2497244304847e-08
1.2357935682141e-10
1.2295517932551e-08
1.7008132797381e-10
1.2114679465462e-08
2.1311912107201e-10
1.1963307056081e-08
2.4219355142063e-10
1.1839884815516e-08
2.6503275927536e-10
1.1747280751144e-08
2.7321349836779e-10
2.7016126412386e-10
1.6492855439307e-07
-1.8800233479154e-13
1.6492789260808e-07
1.1869117443373e-12
1.6492951634929e-07
-1.7120336681723e-12
1.6493298333189e-07
-4.4618814057444e-12
1.6493115919727e-07
3.3423153236134e-12
1.6491216353744e-07
3.1587323565726e-11
1.6485840621129e-07
9.1064904430218e-11
1.6475167006083e-07
1.8530268855011e-10
1.6458037600772e-07
3.0359441809731e-10
1.6433700099517e-07
4.3610038011907e-10
1.640197481709e-07
5.7137236036887e-10
1.6362875049699e-07
7.0488583933759e-10
1.6316561889919e-07
8.3433955972429e-10
1.6263141374427e-07
9.612610285375e-10
1.620250171252e-07
1.0902004461812e-09
1.6134485074481e-07
1.2221554198046e-09
1.6058695381094e-07
1.3607309981853e-09
1.5974761386421e-07
1.5062507187803e-09
1.5882348211708e-07
1.6564527084656e-09
1.5781067243864e-07
1.8147121985038e-09
1.5670957346388e-07
1.9706400117105e-09
1.555178320653e-07
2.1322146252053e-09
1.5423968537742e-07
2.2854145217121e-09
1.5287546014065e-07
2.4385591804062e-09
1.514328350854e-07
2.5802849193599e-09
1.4992058968031e-07
2.7031886911629e-09
1.483375503198e-07
2.8278984521506e-09
1.4669517894101e-07
2.928221092265e-09
1.4498817715361e-07
3.0402624176258e-09
1.4324783035633e-07
3.118186330373e-09
1.4146409512036e-07
3.1974477759787e-09
1.3965084788564e-07
3.2619573785869e-09
1.378142864092e-07
3.3136368096056e-09
1.3594879279578e-07
3.3661875078071e-09
1.3406145970094e-07
3.4163087513401e-09
1.3215481999744e-07
3.4579691562367e-09
1.3022434712157e-07
3.4924317970933e-09
1.282737319534e-07
3.5304056321015e-09
1.2630443202104e-07
3.5551006599812e-09
1.2431446318309e-07
3.5856697481023e-09
1.2231370529809e-07
3.5902581816146e-09
1.2029452260812e-07
3.6136458615282e-09
1.1826475963174e-07
3.6130083814244e-09
1.1622262836468e-07
3.6289654642703e-09
1.1418200313371e-07
3.6111943913805e-09
1.1212525274304e-07
3.6271400811039e-09
1.1009460669597e-07
3.5895955406849e-09
1.0806795524808e-07
3.571528794192e-09
1.0606745543864e-07
3.5438319681469e-09
1.0411221979949e-07
3.4902953782016e-09
1.0219041739644e-07
3.4414927510229e-09
1.0031157382651e-07
3.3898267701091e-09
9.8473677225292e-08
3.3255417287337e-09
9.6677153497596e-08
3.2743881245002e-09
9.4918460039422e-08
3.2127844634029e-09
9.3193253002419e-08
3.167965553232e-09
9.1500290405835e-08
3.117485434219e-09
8.9831707487021e-08
3.0696774369804e-09
8.8182962375495e-08
3.0234951347953e-09
8.6558989488953e-08
2.9764191608217e-09
8.4951362059413e-08
2.9330214501892e-09
8.3359574302286e-08
2.8885124426215e-09
8.1800828159264e-08
2.8405625704969e-09
8.0256837075914e-08
2.7958271044895e-09
7.8728114144652e-08
2.7518217618825e-09
7.7216093670457e-08
2.7111334864698e-09
7.5734843175642e-08
2.6592533952946e-09
7.4263274207907e-08
2.6147577894073e-09
7.2822483415057e-08
2.5654692928705e-09
7.1414927939577e-08
2.5088444897848e-09
7.0026411815915e-08
2.4612189171922e-09
6.8658377446831e-08
2.4174927683922e-09
6.7321701486735e-08
2.3617108281844e-09
6.6010045279134e-08
2.3151781798187e-09
6.473395894024e-08
2.254852044934e-09
6.3483067001595e-08
2.2107154996316e-09
6.2268516243657e-08
2.1548026730858e-09
6.1080189588289e-08
2.1068764417944e-09
5.9920642871429e-08
2.0596180965078e-09
5.879625803559e-08
2.0131745503527e-09
5.7692833135617e-08
1.9644166844968e-09
5.6624162544067e-08
1.9228508471523e-09
5.5590426591126e-08
1.8725620937305e-09
5.456062285712e-08
1.8399885556324e-09
5.3561121859858e-08
1.7949806945135e-09
5.2596823770539e-08
1.7548962876634e-09
5.1657139515272e-08
1.7135030879799e-09
5.0721136926875e-08
1.6782387862421e-09
4.9819629569941e-08
1.6409351818422e-09
4.8943626482146e-08
1.5980568397092e-09
4.8083807536633e-08
1.5698948416445e-09
4.7239950477114e-08
1.5292013432525e-09
4.6417687208123e-08
1.4964731871988e-09
4.5614313482368e-08
1.4612669228315e-09
4.4827502211985e-08
1.430442457016e-09
4.405898559276e-08
1.3967338375793e-09
4.3302152343826e-08
1.3648736950974e-09
4.2569078061224e-08
1.3348128114176e-09
4.1843967658491e-08
1.3026584493165e-09
4.1135645082663e-08
1.2758887700892e-09
4.0443087880893e-08
1.2438717238712e-09
3.9762362566592e-08
1.2195592929649e-09
3.9095932018819e-08
1.1894515912867e-09
3.8434475905319e-08
1.1673954785635e-09
3.7793068748723e-08
1.1392366308966e-09
3.7235012759824e-08
1.115714536849e-09
3.6531012748175e-08
1.0914052920143e-09
3.5767815667087e-08
1.0788693116889e-09
3.3840863738026e-08
1.206846679077e-09
2.7754088924091e-08
2.0146527702827e-09
2.4420516956921e-08
2.666653631968e-09
2.3240602915726e-08
2.0269718947293e-09
2.1867535421538e-08
2.4919312073979e-09
1.9974665749704e-08
3.7227423202252e-09
1.7813153641753e-08
4.5255957743709e-09
1.6550764382714e-08
3.3635456713192e-09
1.6062896982732e-08
1.7574408991328e-09
1.5965597141023e-08
1.3949238566216e-09
1.5998711497132e-08
1.6079665047359e-09
1.563115767447e-08
1.9585950198108e-09
1.4820509202448e-08
2.3462901904242e-09
1.3848551463364e-08
2.5916520064684e-09
1.3019649963975e-08
2.536007796837e-09
1.2383869284782e-08
2.2579763226382e-09
1.1828014803581e-08
1.8249962285716e-09
1.1329462730369e-08
1.2957863788151e-09
1.1065456807771e-08
7.1805325968534e-10
1.1160622778548e-08
1.4372140790905e-10
1.1599386712487e-08
-4.3990372204853e-10
1.2331314416095e-08
-9.7729438275162e-10
1.3289573779074e-08
-1.4295537866759e-09
1.4392715495477e-08
-1.8056666572307e-09
1.5573707031287e-08
-2.1116536012703e-09
1.6790695650232e-08
-2.3320218550495e-09
1.8055122585459e-08
-2.4961363160794e-09
1.9393583197588e-08
-2.6322730904384e-09
2.0870773222219e-08
-2.7732522062451e-09
2.2497926319685e-08
-2.9010773215624e-09
2.4273892054418e-08
-3.042661075069e-09
2.6149804440322e-08
-3.129690413677e-09
2.8076247150596e-08
-3.1692475844553e-09
2.9994620363136e-08
-3.1234923077337e-09
3.1836795469913e-08
-3.0354768239248e-09
3.3543298757351e-08
-2.8914149245203e-09
3.508415862927e-08
-2.7128336881345e-09
3.6451330581839e-08
-2.5358615592299e-09
3.7630212984731e-08
-2.3224827500056e-09
3.8650611101921e-08
-2.1129802085343e-09
3.9524953088007e-08
-1.9138990722451e-09
4.0254794406833e-08
-1.7167190961368e-09
4.0876872367503e-08
-1.5428664284575e-09
4.14221660192e-08
-1.4092903284027e-09
4.1893786396442e-08
-1.2901281782382e-09
4.230463572709e-08
-1.2073244352753e-09
4.2684323992234e-08
-1.1662880197127e-09
4.3071362336279e-08
-1.1745500991417e-09
4.3482891172954e-08
-1.2070482842586e-09
4.3956046258143e-08
-1.2707628302603e-09
4.4513501885595e-08
-1.3492491129322e-09
4.5176126684513e-08
-1.4488297187243e-09
4.5949164800084e-08
-1.5551530876971e-09
4.6836518234432e-08
-1.6764213479951e-09
4.7831413993965e-08
-1.7990432220397e-09
4.8922808477142e-08
-1.9147824052665e-09
5.0097616387009e-08
-2.0212568437492e-09
5.1336214459586e-08
-2.1053888646396e-09
5.2616304073837e-08
-2.1578983201935e-09
5.3915786122367e-08
-2.1782391510901e-09
5.5210839283789e-08
-2.1721900078945e-09
5.6479075354203e-08
-2.1455668068143e-09
5.769796440005e-08
-2.0969936103417e-09
5.8851155166095e-08
-2.031057985741e-09
5.9931577666276e-08
-1.9392232438742e-09
6.0920432133535e-08
-1.8250649810743e-09
6.1798436322335e-08
-1.6735752319757e-09
6.257192236254e-08
-1.5230061298002e-09
6.3230071791226e-08
-1.3377983522216e-09
6.3767665166162e-08
-1.1685764135832e-09
6.4173543258119e-08
-9.5613771735659e-10
6.4462870664762e-08
-7.5979480122899e-10
6.4613068351262e-08
-5.1526232488574e-10
6.4634752393593e-08
-2.8337884744136e-10
6.4547143456802e-08
-3.772962118669e-11
6.4330606354972e-08
2.2383245293569e-10
6.3963890889306e-08
5.1331544249071e-10
6.3420408223239e-08
8.103838347227e-10
6.2689409093698e-08
1.0377830192763e-09
6.1897235039881e-08
1.1280199478836e-09
6.1161131553387e-08
1.203155303422e-09
6.0437952242327e-08
1.2836580329089e-09
5.9896269395053e-08
1.283098638275e-09
5.9285348881028e-08
1.3046250660705e-09
5.8593053488572e-08
1.3969509394359e-09
5.7809197522013e-08
1.5902058844612e-09
5.6716378557069e-08
1.9382895494815e-09
5.5215806356648e-08
2.4141065488369e-09
5.3269825584692e-08
2.9799318544738e-09
5.0911190533582e-08
3.5445186791198e-09
4.8255285521719e-08
3.9612494412828e-09
4.5495697006836e-08
3.9966262101879e-09
4.2812395144379e-08
3.66377670145e-09
4.0221700194316e-08
3.0691142175965e-09
3.7926884127185e-08
2.4140253589137e-09
3.5952234260739e-08
1.8151906629084e-09
3.4256492393234e-08
1.3259292274205e-09
3.2821085084019e-08
9.1809007243203e-10
3.1610447609649e-08
5.7721923861763e-10
3.058653671743e-08
2.9115083599161e-10
2.9729620244833e-08
5.9259668148027e-11
2.9018796463669e-08
-1.1003061559291e-10
2.843066665806e-08
-2.6167217229722e-10
2.7947447626798e-08
-3.8950017728236e-10
2.7558189253002e-08
-4.9599015727661e-10
2.7270434693474e-08
-5.8471082005018e-10
2.7083200187593e-08
-6.6161250420892e-10
2.6966767882196e-08
-7.2609200719939e-10
2.6890025425537e-08
-7.690425123031e-10
2.6829876795127e-08
-7.8217437050702e-10
2.6771362583384e-08
-7.7693499145313e-10
2.6707627295053e-08
-7.6103932700183e-10
2.6644785689229e-08
-7.4389045069201e-10
2.6546599214249e-08
-7.1020602230894e-10
2.6407159617427e-08
-6.6812938423298e-10
2.619879882778e-08
-6.0568632676393e-10
2.5922422514587e-08
-5.4230621178246e-10
2.5585633799708e-08
-4.7010129722856e-10
2.5188529427595e-08
-3.8340401007192e-10
2.4736441473284e-08
-2.9135952745064e-10
2.422892774701e-08
-1.8084631225324e-10
2.36907098959e-08
-8.1561258248301e-11
2.3137544075378e-08
2.2686298901053e-11
2.259225312008e-08
1.19445985749e-10
2.2081798435432e-08
2.118043616324e-10
2.1615398136645e-08
3.0816315832063e-10
2.1199477539449e-08
3.9564642613942e-10
2.0845662542064e-08
4.8179182896434e-10
2.0569858612407e-08
5.3770706505347e-10
2.0365431071641e-08
5.8307697226087e-10
2.0221025690214e-08
6.030541663694e-10
6.0795873598069e-10
2.3089898447712e-07
8.4182992629598e-13
2.3089977716698e-07
3.2013611595523e-13
2.3090662767298e-07
-8.7311832000608e-12
2.3091534259996e-07
-1.3475487413119e-11
2.3091279232025e-07
5.4478055860417e-12
2.3088012996833e-07