/*--------------------------------*- C++ -*----------------------------------*\
| =========                 |                                                 |
| \\      /  F ield         | OpenFOAM: The Open Source CFD Toolbox           |
|  \\    /   O peration     | Version:  2312                                  |
|   \\  /    A nd           | Website:  www.openfoam.com                      |
|    \\/     M anipulation  |                                                 |
\*---------------------------------------------------------------------------*/
FoamFile
{
    version     2.0;
    format      ascii;
    arch        "LSB;label=32;scalar=64";
    class       volScalarField;
    location    "0.0006";
    object      rho;
}
// * * * * * * * * * * * * * * * * * * * * * * * * * * * * * * * * * * * * * //

dimensions      [1 -3 0 0 0 0 0];

internalField   nonuniform List<scalar> 
28800
(
3.8285309941842
3.8189106095842
3.8075607176317
3.7942750539495
3.7785256982841
3.7595121995255
3.7362928909912
3.7080254340387
3.6743144295525
3.6353735988631
3.5919374370992
3.54499471561
3.4955218756493
3.4442977817551
3.3918255758383
3.3383807696637
3.2840604980833
3.228861884456
3.1727768163332
3.1157600129316
3.0578755693158
2.9991535534168
2.9397399045515
2.8797350241612
2.8191494812684
2.7586602589841
2.6984645928666
2.6386269081727
2.5788560596661
2.5201763591721
2.4626560768563
2.4060336220115
2.3507566871726
2.29672850289
2.2434512310685
2.191154038162
2.1399304765463
2.0891146115007
2.0392137594417
1.9898875541285
1.9410989506012
1.8932469277932
1.8460595463153
1.7992266889329
1.7535352350422
1.7083484558931
1.6633390686757
1.6206689807593
1.5781398281381
1.537555811175
1.4989755632216
1.4607437361616
1.4253129894433
1.3902140185434
1.3575077488667
1.3256120980222
1.2940185882683
1.2639920687854
1.2341810453841
1.205486345581
1.1773308015118
1.149561409984
1.1222209932872
1.0957772732998
1.0700564552393
1.0443775496558
1.0194520357397
0.99514247079346
0.97097201962102
0.94772549153158
0.92569177565575
0.90342314758559
0.88193443402639
0.8611367576274
0.8404959967779
0.82129374474167
0.8021536004054
0.78408920701164
0.76642075409062
0.74899222844475
0.73259080748871
0.71635752179579
0.70114859232497
0.68616984104944
0.6713460824887
0.65702708260812
0.64362953739648
0.63025144344144
0.61705372243283
0.60462899831272
0.59255465117292
0.58060012512881
0.56890619064103
0.55789069897979
0.54675729433957
0.53621301981939
0.52571042225701
0.51555495030079
0.50573434556872
0.49589087008364
0.48663650020579
0.47725013322449
0.46839745654736
0.45953377435649
0.45075950571017
0.44221203879804
0.43375553284547
0.4322400386705
0.498323103183
0.95141115071584
1.5638884279327
1.6868956003451
1.6816137437491
1.668697971823
1.6487254494492
1.6402753139776
1.6555272296155
1.6957387747207
1.7684712801203
1.8332018562502
1.8716896647836
1.8995625775068
1.9258522419664
1.9545001758528
1.9833283368013
2.00985048652
2.0302994647898
2.0529598127263
2.0765471969212
2.1001987753011
2.1240845228516
2.1473732536868
2.1687658669546
2.1872023918001
2.2021329860903
2.2132123310973
2.2226999638125
2.2327526804037
2.2431949618481
2.2534208980276
2.263313203911
2.2726800443722
2.2799434859977
2.2846435456729
2.2860513040205
2.2836239466881
2.2767466834911
2.2660810569534
2.2524081283811
2.2356352713241
2.2157275857605
2.1934086505917
2.1688961201174
2.1422909867482
2.1139596888728
2.0847041521868
2.0554461310328
2.026561486606
1.9982531633523
1.970575061998
1.9435977207213
1.9173866225759
1.8918856150196
1.8670025776992
1.8426528534816
1.8186614888826
1.7948445621745
1.7711210691691
1.7474611172871
1.7237146788035
1.6997688813214
1.6764818599758
1.6532397204392
1.6295708956143
1.6049623009482
1.5798955329499
1.5541855955042
1.5298075456049
1.5050349658236
1.4811312804503
1.4586529704039
1.4374635093877
1.4179356064681
1.4005314416102
1.3850171405626
1.3725153316704
1.3628034735002
1.3559685607619
1.3528853765211
1.350843539963
1.3505432449722
1.3517262059664
1.3524184651266
1.3526043083268
1.3526925461706
1.3522893477148
1.3513309577685
1.3487087143686
1.3435411989196
1.3354198734703
1.3243707577534
1.3089769442974
1.2926777066492
1.2762389031149
1.2601457386503
1.244395465603
1.2295052396747
1.2152414463645
1.2015550133368
1.1883871504441
1.17583184587
1.1638654806324
1.1524219325201
1.1419149178472
1.1325953028833
1.1241307541433
1.1161719342584
1.1085972199786
1.1013415993417
1.0946211631352
1.0885068166433
1.0828716739382
1.0776633571922
1.0728030012904
1.068277434536
1.0640308488517
1.0598881999327
1.0557875864112
1.0516124385909
1.0473671174725
1.0428321989963
1.0379053651205
1.0329719738439
1.0281173144361
1.0234790277802
1.0192186827116
1.0155449538565
1.0123609774061
1.0096334047363
1.0076949980515
3.8285294043749
3.8189036713777
3.8075664199491
3.7942739202032
3.7784607256977
3.7593115159495
3.7358895208878
3.707397015973
3.6735036750018
3.634461054401
3.5909940332158
3.5440535278274
3.4945799733456
3.4433300019779
3.3908032173563
3.3372764779499
3.282857104958
3.2275571435643
3.1713658244418
3.1142612073618
3.056293768291
2.9975149429033
2.9380580206021
2.8780071240036
2.8174748636584
2.7570343622209
2.6969055257553
2.6370850756002
2.5773394182601
2.5187696809818
2.4613066116076
2.4047245124515
2.3495217892218
2.2954648670746
2.2421848657698
2.1899777303722
2.1387433688421
2.0879541060896
2.0381208192493
1.9888825199884
1.9401405257416
1.8923587109959
1.8452046737372
1.7983829164196
1.7527774724458
1.7075979420284
1.6628344807555
1.6202069158059
1.5777208713766
1.5374009053717
1.4988108934306
1.4607513379398
1.4253687260944
1.3903091360293
1.3576059851649
1.3255272284457
1.2940183154448
1.2640495518614
1.2342763956085
1.205534221303
1.1773984991214
1.1496385098275
1.1223476497587
1.0959625853396
1.0702932514569
1.0444827678295
1.0196825125925
0.99541254596827
0.97127572036315
0.94812576926863
0.92603766888748
0.90370623549558
0.8823836731612
0.86152612791385
0.84101637370838
0.82180388768174
0.80264056693047
0.78462017388336
0.76684829626661
0.74951882977512
0.73312307330531
0.71687185127563
0.70167544819471
0.68666250434199
0.67185675865654
0.65757025322283
0.64417615040452
0.63076977264941
0.61759000107485
0.6051945174596
0.59304674014268
0.58115342010444
0.56944187136176
0.55843281241603
0.54729890910755
0.53676876819074
0.52626792969298
0.51609552731863
0.50630360325614
0.49644960451663
0.48719162259785
0.47780998752089
0.46893425297521
0.46005746654299
0.45131846938464
0.44272018416295
0.43470332801308
0.4333087557738
0.49979179692705
0.95377128767994
1.5734507301865
1.6935381885908
1.687366916983
1.6766884076147
1.6590368809564
1.6482567144029
1.6586292646568
1.6868313270586
1.7465016935337
1.8194837721626
1.8675697360842
1.8993495137507
1.9257911213699
1.953315880956
1.981201826594
2.007302761706
2.0299020064595
2.0526632413134
2.0770849410576
2.1015577205472
2.1261151763568
2.1502085944279
2.1725857951827
2.1921513081146
2.2082627178044
2.2203834445051
2.2288681800907
2.2376060705236
2.2471197988264
2.2567231217066
2.2661594828225
2.2749752643355
2.2819631772079
2.286601270773
2.2880505078743
2.2858244872973
2.2792343008647
2.2690371589039
2.2560287717723
2.2400450754376
2.220887734371
2.1992536901139
2.1752818738364
2.1490971678754
2.1209471125001
2.0917888920979
2.0620730156085
2.0325177581971
2.0034279734238
1.9750197075176
1.94741073962
1.9207130296539
1.8948291642129
1.8696454703258
1.8450769679709
1.8209499889346
1.7970965653807
1.7734076706779
1.7498575833789
1.7263584464677
1.7027178831615
1.6796140851066
1.656478622086
1.6333358283465
1.609411860706
1.5852269833157
1.5606981924372
1.5372025840583
1.5130049671272
1.4897932099773
1.4669879569795
1.4446544211766
1.423333125642
1.4029279459395
1.3838226548805
1.3665924313292
1.3508828072644
1.3373989617131
1.3284570285141
1.3231339420752
1.3228552305771
1.330922868976
1.3379311209706
1.3438439787572
1.3492808702789
1.3540784583524
1.3581958838745
1.3607711270563
1.3613801896615
1.3592232943791
1.3541058484245
1.3443630314186
1.3329657598592
1.3198381884315
1.3068681934174
1.2936571059946
1.2812209498832
1.2689885042007
1.2564493991302
1.2442432341235
1.2324469084238
1.2209016243332
1.2096271740513
1.1990386188519
1.1893703302333
1.1803048026697
1.1713856623166
1.1624933898688
1.1537098856922
1.1449131665456
1.1359614400525
1.1268284118325
1.1176658769209
1.1085460540845
1.0992548279673
1.090018639733
1.0808779522432
1.0722845340177
1.0642871458448
1.0569112147559
1.0498830517933
1.04319688828
1.0367034506081
1.030600495466
1.0250691770272
1.0202032588406
1.0160545142006
1.0126019551712
1.0095946876462
1.0078180170634
3.8285260201394
3.8188921470689
3.8075813231773
3.7942705403903
3.778305494688
3.7588450677709
3.7349764600326
3.7060112494566
3.6717474222577
3.6324989702684
3.5889652111037
3.5420317380411
3.4925617281569
3.4412637650205
3.388626525021
3.3349362988787
3.2803171303288
3.2248058728471
3.1683963507714
3.1111006109797
3.0529544036745
2.9940439279761
2.934475903083
2.8743139503419
2.8138549372442
2.7534690270164
2.6933890532874
2.6335486056657
2.5737972907486
2.5153473965346
2.4579104831237
2.4013644217912
2.3462063451003
2.2920305928775
2.2387016745367
2.1865704459645
2.135272810426
2.0844603696844
2.0346615346297
1.9854943263709
1.9367898373881
1.8890365919878
1.8418356399919
1.7950727105005
1.7494666225269
1.7043213556322
1.6599312808638
1.6172987857445
1.5748524249818
1.535165827445
1.4962443471778
1.458630245603
1.4232492289838
1.3882645576758
1.3555021440967
1.3231745907824
1.291878577794
1.2619591132847
1.2321989666618
1.2033815256281
1.1753313832871
1.1475552278419
1.120359827786
1.0941459025412
1.0683261560403
1.0425356307337
1.0179374923598
0.99373838960766
0.96968330754308
0.94670075969016
0.92449323958228
0.90213656164245
0.88107709446011
0.86016595934116
0.83989510721122
0.82062208660563
0.80152281264676
0.78351184788141
0.76565391588226
0.74856736566949
0.73213480978514
0.71587843676648
0.70073008788142
0.68568629619695
0.67098376305264
0.65674892580501
0.64335535120419
0.62996747369816
0.6168290785282
0.60450504411517
0.59226898716745
0.58051630037167
0.56880032428603
0.55781938952816
0.54669394507898
0.53621033834243
0.52570241485667
0.51555258832624
0.50580640736667
0.49593780384176
0.48668541989832
0.47731452886536
0.46843749068172
0.45956281190675
0.4508228087312
0.44212602700035
0.43427365374317
0.43294223689693
0.50086168645273
0.9581098161249
1.5721643032828
1.6885559583241
1.6814936032269
1.6708173535297
1.6525215793457
1.6463204184775
1.6598463815653
1.6900680533604
1.7531766486046
1.8246744339559
1.8696106404085
1.8995014061881
1.924184776789
1.9508023188752
1.9791799431296
2.0061652119425
2.0282663669829
2.0507064374588
2.0746750775724
2.0986903975375
2.1227211675386
2.1461585085037
2.1676836714885
2.1861077638023
2.2009883902771
2.2120193197883
2.2220759698524
2.2328520120063
2.2438197105184
2.2543929951209
2.2643482875153
2.2732685547725
2.2801872328041
2.2844306416207
2.2856962050459
2.2833696056068
2.2765322092643
2.2661218308457
2.252941598463
2.2366602071295
2.2170982137008
2.1949774369005
2.1704101122501
2.1435805417242
2.1148651045689
2.0850309327897
2.0549597090897
2.0252570587458
1.9961373228903
1.9677622130788
1.9401966476153
1.9135149670258
1.8876074293516
1.862395085619
1.8378001600433
1.8136909229086
1.789956073571
1.7664979928971
1.7432858239306
1.7202501460015
1.6972083117435
1.6745625898598
1.6515811002157
1.6288331081603
1.6050310553629
1.5814677975079
1.5575618014494
1.5343639769995
1.5106652137515
1.488017666579
1.4655137771594
1.4435892471807
1.4222564884871
1.401726689644
1.3821978212407
1.3642284132211
1.34820104053
1.3333979334751
1.3217105080499
1.3143696814061
1.3109803711043
1.317682683683
1.3257655945403
1.3371004980254
1.3515101840414
1.3658704900554
1.3795208898089
1.3918760728484
1.4025414248615
1.4102533756148
1.4134762623658
1.4098684384053
1.3999117809661
1.3868273816552
1.3720121825942
1.3564748217031
1.3411854329856
1.3260203591955
1.3111636973628
1.2973890797144
1.2842461065272
1.2722459083187
1.2612229701509
1.2512896456707
1.2430409383022
1.2360586264665
1.2294233861692
1.2228823235415
1.216365310808
1.2097234839078
1.2031329727084
1.1963744683631
1.1891048133778
1.1808922371718
1.1716138012293
1.1613491391116
1.1501594579735
1.138073884815
1.1250904672975
1.1115188919972
1.097326562086
1.0831256965538
1.0701703803323
1.0590711575641
1.0498337415449
1.0417824413751
1.036103516005
1.031943170179
1.0288867030003
1.0281592596811
3.8285186598952
3.8188931069579
3.8076416604072
3.7942671358733
3.7780292498749
3.7580654279529
3.7335230644183
3.7038909149684
3.6691145302498
3.6295734496649
3.5859226001111
3.5389655612036
3.4894725813546
3.4380908084189
3.3852893285592
3.3313573757942
3.2764436376199
3.2206117821097
3.1638776149756
3.1062891376977
3.0478786857821
2.9887706188696
2.9290376463301
2.8687577622113
2.8083973277091
2.7480874551573
2.6880440870168
2.6281933472493
2.5684708099974
2.5101987418419
2.452811934544
2.3963663622762
2.3412860698342
2.2869543438081
2.2336278197826
2.1815750127808
2.1302185297692
2.0794030530604
2.0296231412929
1.9805553755112
1.931952006045
1.884140559548
1.8369714589403
1.7903615483472
1.7447565617572
1.6995815869575
1.655969622436
1.613019301007
1.5710580291949
1.5317699910542
1.4928967595324
1.4556249120231
1.4203169089648
1.3853993547871
1.3525919565692
1.3201466170167
1.2889424493718
1.2590557688689
1.2292756658745
1.2005336276684
1.1725038994933
1.1446916459296
1.1177589181553
1.0915000746426
1.0656544454057
1.0400143692804
1.0155283470304
0.9914124077341
0.96753250648428
0.94470321613507
0.92239672187222
0.90015670241956
0.87925721778701
0.85841957921623
0.83853910915032
0.81897916594163
0.80015949600414
0.78210019636934
0.7642054659225
0.74741881581223
0.7308591031627
0.71470660616656
0.69954275716141
0.68451987285811
0.66990061096003
0.6557850435902
0.64235724189408
0.62900968083111
0.61593825910379
0.60366220308903
0.59140517573554
0.57975084511147
0.56804986576266
0.55711510016235
0.54602051694434
0.53559717530545
0.5250844034419
0.51498573703415
0.50525244037066
0.49541028630743
0.48616311440017
0.4767943300571
0.46792852214981
0.45904510990766
0.45030923891471
0.44154454245189
0.43390648050985
0.43273179937527
0.50241839646098
0.96463996033143
1.5757759659824
1.6886716619555
1.6805682600669
1.6707405594415
1.6527904874677
1.6486900065998
1.6624496705304
1.689707028295
1.749355573264
1.8217325403561
1.8693301654082
1.8996252832247
1.9228874922206
1.9478466014408
1.976376748507
2.0039243299447
2.0259882601174
2.0481828825334
2.0719347121735
2.0956792244511
2.1192474844864
2.1420750739386
2.1628789466262
2.18061664525
2.1948565924904
2.2060375406229
2.2175994193562
2.2296608766269
2.2415010063848
2.2525532231891
2.2626355400343
2.2712431056018
2.2780244837281
2.2817380550116
2.2829079561634
2.2806085923952
2.2736237952136
2.2632253029681
2.2500635458833
2.2335982237801
2.213688395859
2.1911701952429
2.1659445539994
2.1383379327214
2.1089375147878
2.0782738643712
2.0471003721521
2.0159319719823
1.9855947549139
1.9558210180327
1.9267545247853
1.8985825102686
1.8712658680778
1.8448971091649
1.8194700213485
1.794942085151
1.7712503963551
1.7483022012343
1.7259058488797
1.7040670781158
1.6825002078064
1.6612868075507
1.6397855919794
1.6183969449122
1.5961967464658
1.5741640173125
1.5517637844241
1.5296296790538
1.5071431636965
1.4854316527216
1.4631750839628
1.4418897413347
1.4207509136808
1.4002834129535
1.3807319125408
1.3627747241039
1.3469414774288
1.3327747179321
1.3202325538379
1.3119351162877
1.3082837729921
1.3158472191001
1.3260238810954
1.3420688501369
1.3645652614251
1.391675685997
1.4208273157814
1.4464507964862
1.4608116598176
1.4636837595575
1.4552879803135
1.4384273689621
1.417611118809
1.3961746490793
1.3751823174083
1.3551822785065
1.3364569784658
1.3187544158407
1.3021346611717
1.2869370492072
1.2732596108031
1.2610968767015
1.2504532298623
1.2414848837727
1.2342817963941
1.2288900924732
1.2250517021129
1.2220996724866
1.2199945140669
1.2188525342462
1.2183152091888
1.2180059670201
1.2185388852316
1.2186547777864
1.2172163637095
1.2141923262761
1.210297462951
1.2056907615458
1.199310092192
1.1904801661806
1.1785645717249
1.1637851566728
1.1468456546638
1.1284848120665
1.111155708242
1.0970310753121
1.0877724538962
1.0824918302022
1.0786902171273
1.0783785597986
3.8285017224349
3.8189302092827
3.8077648985725
3.7942429500013
3.7775753827554
3.7568943679241
3.7314800257225
3.701040323904
3.6656486236167
3.6257329098518
3.5818914598066
3.5348474387209
3.4852749752497
3.4337576896455
3.3807361740792
3.3264875666099
3.2711939614193
3.2149358491464
3.1577823107919
3.099799488881
3.0410563655341
2.981678330081
2.9217175322385
2.8614050454201
2.801096276267
2.7408348181109
2.6807752121702
2.6209328336962
2.5612964581884
2.5032254224342
2.445897188185
2.3896473903913
2.334611809402
2.2801582199384
2.2268816988463
2.1748344208454
2.1234268657412
2.0726545339515
2.0228979857535
1.9739262391998
1.9254543277241
1.877527003696
1.8304895283477
1.7840730478607
1.7384929477296
1.6935047765918
1.6503539189353
1.607479798563
1.5662757663536
1.5272353654521
1.4885637563428
1.4516162202876
1.4164066516502
1.3815857472245
1.3488069399518
1.3163206351545
1.285213402187
1.255312487202
1.2254719306704
1.1968963739018
1.1689152411998
1.1411223904768
1.1143244053816
1.0881115945116
1.0621204201327
1.0369302415558
1.0125383945665
0.98833383476179
0.96483620811918
0.9421698270568
0.91968676668809
0.89775992055198
0.87703253649266
0.8562078321336
0.83655732684219
0.816997239156
0.79854184152155
0.78021065182139
0.76252854175851
0.74585596120628
0.72927921197829
0.71326295338424
0.69808497220105
0.68298637696382
0.66865052370346
0.65452249590424
0.64111331260505
0.62783270061472
0.61487156443755
0.60260571460965
0.59037056758447
0.57883888289916
0.567162061245
0.55625242725429
0.54518897746816
0.53480489619701
0.52433816356171
0.51427340474587
0.50454896772446
0.49475752666643
0.48549072160346
0.47615025508327
0.4672531432792
0.4584189911135
0.44968288461212
0.44076683375534
0.43351173512492
0.43249613291178
0.505678322015
0.97382208124709
1.5787281831674
1.6858006035182
1.6754094083551
1.6625256929879
1.6460006678361
1.6480260704939
1.6644973620726
1.6926453572426
1.7540964176848
1.8255681295618
1.8714764341915
1.9002287875666
1.9219325926303
1.9457194872151
1.9741146938818
2.0010114441549
2.0226618973273
2.0450207690308
2.0682806499191
2.0916118349086
2.1150399036368
2.1377759019261
2.1584840580381
2.1763301184746
2.1902203927712
2.201465787125
2.2131286931583
2.2248103266305
2.2360943637489
2.246416010197
2.2556408226126
2.2630893330162
2.2690888975448
2.2722132323637
2.2732476842287
2.2711526622824
2.264304706704
2.2541924237933
2.2410341307585
2.2241334890884
2.2034882177156
2.1799779974579
2.1532866272068
2.123871910013
2.0918930795888
2.0579004216344
2.0225405187567
1.98697979679
1.9513025395482
1.9179425936729
1.8876307410999
1.8589550988085
1.831781882458
1.8062468435372
1.7820953268342
1.7591117235654
1.7370597033894
1.7157784036683
1.694988795022
1.6747022376576
1.6545808231051
1.6346006191774
1.6144299214867
1.5944236957151
1.5741752528413
1.5543054561823
1.5345401296391
1.5150975031366
1.4958358999224
1.4764975677437
1.4563915424307
1.4369334827884
1.4166991514454
1.3969831242398
1.3779685228357
1.3605176469003
1.3453756695952
1.3320722485405
1.3201352291794
1.3113103990539
1.3088040396672
1.3176384590307
1.3307543819072
1.3540108992434
1.3868300377343
1.4256010562141
1.4590284860088
1.4764652316387
1.4790672761821
1.4689043830146
1.4498585005214
1.4259348700223
1.3997817833101
1.3732838138386
1.3472794725145
1.3223972275427
1.2990481533763
1.2773914846946
1.2575503938468
1.2393502627344
1.2232905378858
1.2093349331816
1.1975318937819
1.1880199686548
1.1807151663375
1.1756245182237
1.1727634840781
1.1714401688601
1.1716819235832
1.1736448740794
1.1767983097805
1.1810704653814
1.1862123698758
1.19215019603
1.1983383328597
1.2034476996046
1.208145791079
1.2128032313262
1.2167010403543
1.217982433911
1.2162425884855
1.2121931191447
1.206123662196
1.1983754186822
1.189770569918
1.1795466304888
1.1689828727641
1.1614960205274
1.1568156598337
1.1549102212477
3.82848853524
3.8190983845462
3.8079552505711
3.794138834164
3.7768548922362
3.7552479710251
3.7288182589454
3.6974763626417
3.6613880962162
3.6210076455015
3.5768759377678
3.5296558391013
3.4799282616226
3.4282146683678
3.3749086749071
3.3202734230418
3.2645130048316
3.2077391222261
3.1500734548724
3.091614071924
3.0324724838268
2.9727625966204
2.9125659308527
2.8522600616103
2.7919431694118
2.7316436006426
2.6715104633331
2.61170605398
2.5523125780172
2.4943606067382
2.4371573426008
2.3811825136433
2.3260871008556
2.2716122622526
2.2184568898788
2.1662974394947
2.1148994151454
2.0642158087505
2.0144768980293
1.9655160178997
1.9171545141129
1.869160740885
1.8222429221551
1.7761277113025
1.7305588001398
1.6860352058392
1.6432005550038
1.6007382804342
1.5601672657602
1.5213877431144
1.4829513418014
1.4465680263651
1.4113965028737
1.3766486524017
1.3439311231449
1.3114517617108
1.2805940904827
1.2505761811052
1.2207182796325
1.192231885591
1.1643877964253
1.1367420363323
1.1097810145646
1.0838352719342
1.0579849189252
1.0330152749825
1.0087498027092
0.98458991035281
0.96147728447883
0.93878133440859
0.91638452525097
0.8948353146854
0.87417135569961
0.85350890330812
0.83395521948109
0.81457694944947
0.79628957807556
0.7779868120242
0.76052578390026
0.74384937215096
0.72726781078226
0.71152965096647
0.69618798991222
0.68122129523487
0.66704412432782
0.6529232414326
0.63947496152965
0.62636750515655
0.61349120563106
0.60127879330654
0.58907547699773
0.57761700209065
0.56601701044042
0.55515128488626
0.54413979500232
0.53377838825814
0.52336956929962
0.51333480806803
0.50364616482984
0.4938392284758
0.48464567626724
0.47524603204388
0.46644406913395
0.4575570029303
0.44904539465394
0.4397599071029
0.43289234485305
0.43212646048208
0.50854335406909
0.98305879813624
1.5867339979483
1.6887217004917
1.6743799623327
1.6577019734721
1.6418513372836
1.6485532135653
1.6667185905143
1.692005082579
1.7502497071204
1.8222436393847
1.8701998152486
1.8985232092159
1.9191709387097
1.9419683398199
1.9703918205242
1.9968531367185
2.0187611062972
2.0408719481168
2.0636305037721
2.0864279019526
2.109535296719
2.1319077748115
2.1524808608771
2.1706771967753
2.1844302867991
2.1943921881008
2.2026723790831
2.2108787409001
2.218960231191
2.2259669008475
2.2320204525059
2.23594810523
2.2388505588505
2.239339179729
2.2388181605399
2.2362691376745
2.2293441692814
2.2194302223022
2.2062215824531
2.1888280098679
2.1672512137308
2.1422779253256
2.1124433554768
2.079245034191
2.0427490449977
2.00522708429
1.9691369081686
1.9373318031347
1.907559223018
1.8793947530454
1.8527811937757
1.8280047333588
1.8044331566823
1.782074462538
1.7604037485135
1.739382397457
1.7187482489108
1.6984595443043
1.6783050408542
1.658458953834
1.6382399056177
1.6179931645462
1.59760009663
1.5773363696519
1.5571341722106
1.5374889321373
1.5178798384494
1.498539885027
1.4797928455413
1.461581862594
1.4438296299394
1.4266775823669
1.408407764354
1.3905119395205
1.3728971445579
1.3565267953276
1.3426664115188
1.3306527162642
1.3200756850155
1.3109254643275
1.3115265597832
1.3204383663782
1.3375487585096
1.3684849736283
1.4089102890707
1.4501616042848
1.4761289927603
1.4830987294835
1.4730956859285
1.452287336327
1.4243360909364
1.3933210735577
1.3609265185444
1.3285240649376
1.2971577954729
1.2686324056556
1.2434446312271
1.2210592020298
1.2008808818965
1.1832301494766
1.1678268977538
1.1546242653359
1.1434010402737
1.1341599380121
1.1267819368389
1.1212550011547
1.1171055255496
1.1146002122054
1.113475312741
1.11346646062
1.1151616931798
1.1183277014963
1.122918679871
1.1289731374828
1.1365644250564
1.1456314711963
1.1565274876619
1.1683016173318
1.1801247898586
1.1917176548122
1.2002720818602
1.2051769249477
1.2069723424445
1.2070064058274
1.2058076063515
1.2036319285942
1.2011008092764
1.1984842274202
1.1967285769121
1.1969182585332
3.8284906303953
3.8194409146959
3.808197768214
3.7938834376013
3.7757344605308
3.7530515641258
3.7255301949919
3.6932138637829
3.6563433371539
3.6153951464158
3.570866769072
3.5233703444227
3.4734035239557
3.4214170244757
3.3677482239541
3.3126476332349
3.2563312062891
3.1989623580408
3.1407026726288
3.0817028642866
3.0220983881081
2.9620294729431
2.9016561380239
2.8412951696056
2.7808582740504
2.7204248180615
2.6602028686762
2.600536535527
2.5414336978742
2.4836142900058
2.4265783704564
2.3708622583217
2.3157727022648
2.2613339023862
2.2083069817846
2.1560049403112
2.1046707946881
2.0540762829713
2.0042575652267
1.9553446465967
1.9070579895105
1.8589734999679
1.8124284636584
1.7665047237829
1.7209501455071
1.6772907389043
1.6345266397399
1.5926900707433
1.5528405204506
1.5143234614483
1.4761810158098
1.440333873584
1.4051535669032
1.3706310131634
1.3379468189318
1.3056322829488
1.2750143178588
1.2447328521876
1.2151973269668
1.1868045794896
1.1586211302265
1.1315177486063
1.1044997196478
1.0787146387046
1.0530507101416
1.02806409792
1.0042040748525
0.98019247363713
0.95735764777433
0.93474680281224
0.91246035679879
0.89136809677762
0.87061801901447
0.85032168696634
0.83087983389236
0.81163097979921
0.79347979978597
0.77524642670242
0.75816993066219
0.74126654208995
0.72490908731116
0.70934571822324
0.6939236160739
0.67913468481416
0.66505683519804
0.65093908626426
0.63757187959399
0.62461271883159
0.61175565716944
0.5996209398315
0.58750948101387
0.57608954562873
0.56458646598928
0.55377292898977
0.542834879377
0.5324838954959
0.52216270109542
0.51210487085779
0.50245330988547
0.49272691211686
0.48339643052328
0.47424871415156
0.46522776178849
0.45663264718279
0.4478369776302
0.43860707515355
0.43221244982081
0.43156123418821
0.5118259235441
1.0014833041027
1.5941858095519
1.6873085518691
1.6713422729887
1.6540492204056
1.641238998732
1.6511285258697
1.6670876204864
1.6920598497741
1.7485925867742
1.8214476198391
1.8701976608172
1.8979593673285
1.9179455303413
1.9400829947912
1.9673661540239
1.9906039214034
2.0107173461503
2.0296412658856
2.0466820240547
2.063903594477
2.0830849209959
2.1031288972818
2.122264005773
2.1390660423211
2.1523205314185
2.1629480811476
2.1739564145378
2.1849858609649
2.1953308714702
2.2035762016718
2.2095940317392
2.2120872426243
2.2126796332415
2.2089665207713
2.2032820126858
2.194104577178
2.1812861522865
2.1665684990274
2.1489742739276
2.1289268293867
2.1060512153037
2.0814565614915
2.0532101504572
2.0243072863004
1.9957650831723
1.9674548826087
1.9402003181629
1.9140407841936
1.8887624709177
1.8645475525504
1.8410484380076
1.8185291612708
1.7964465098765
1.7751568856588
1.7540544171798
1.7335055409702
1.7131039967136
1.6929473029982
1.67283471553
1.6529896406778
1.6325256067889
1.6122353759752
1.5919371207471
1.571723074875
1.5510477579131
1.5308678715882
1.5104114689021
1.4905969288406
1.471244600867
1.4523963711704
1.4334249124598
1.415784267446
1.3978787856212
1.381293472933
1.365548453604
1.3502161586478
1.3380722938607
1.3278121585968
1.3191780656589
1.3105282819508
1.3149271247076
1.3221299665086
1.3471666008503
1.3818007070454
1.4241238027261
1.4603235129188
1.4768791590953
1.472487180092
1.4517315112397
1.4236136538246
1.3885720195418
1.3500104970143
1.3130015826998
1.2808315626512
1.2530860051156
1.2285842400844
1.206512254361
1.1873453760199
1.1705449840841
1.1559098552145
1.1428796353718
1.1315367424669
1.1217363536864
1.1134244853276
1.1065697623344
1.101104356406
1.0967019715908
1.0932200055052
1.0905420529985
1.0886388985594
1.0874517794894
1.0868817184164
1.0867890393318
1.0874407944302
1.0890347252125
1.0918273506484
1.0967539476892
1.1034810563318
1.1125891714793
1.1243048207347
1.1374085500553
1.1516061396988
1.1658781497163
1.1782910880573
1.1869836957167
1.1935152880959
1.1970136680844
1.1990409880041
1.1996410887556
1.2020479484069
3.8286623329182
3.8199473812665
3.8084447456642
3.7934287140774
3.774177510253
3.7502988450147
3.7216225213126
3.6882664730819
3.6505133929037
3.6088897842484
3.5638579488946
3.5159904062549
3.4656778599641
3.4133098920205
3.359171407717
3.3035010904279
3.2465436698422
3.1884999281066
3.1295971888525
3.0700181239874
3.0098586440605
2.949599785579
2.8889430568343
2.8284141882299
2.7677380734788
2.7071086343545
2.6468611670671
2.5873826208353
2.5286046062107
2.4709826158187
2.4141540956082
2.3586229023805
2.3036478366465
2.249306052401
2.196362391659
2.1439659378947
2.0926920150761
2.0421948659779
1.9922569741512
1.9434137707825
1.8952015820031
1.8471813361523
1.800917901294
1.7552579870573
1.7098415653076
1.6669509044359
1.6248284188071
1.583251287147
1.544125446408
1.5060718101788
1.4683141923401
1.4327349561146
1.3976862576255
1.3636283539475
1.3309978261637
1.2989856612397
1.2683947099193
1.2379686602384
1.2088795054483
1.180488845357
1.152151504666
1.1252561539221
1.0985224270845
1.0725850687024
1.0475209194636
1.022748584075
0.99885362418419
0.97492590265587
0.9522648319127
0.93010115157784
0.90808194841233
0.88727252755193
0.86655372412801
0.84684682913787
0.82721866092374
0.80827955456726
0.79021540140874
0.77220506851555
0.75525080362715
0.73830396197956
0.72229705050773
0.70662184271597
0.69132773356667
0.67687735961725
0.66262586672848
0.64863527790891
0.63545543435438
0.62255740278018
0.6097731784449
0.59770772388703
0.58570377270007
0.57428045498368
0.56290503161086
0.55212123380068
0.54131408600441
0.53093858714239
0.52080345332196
0.51062417804383
0.50110006653308
0.49128502533614
0.48223610727134
0.47284020307321
0.46416075908613
0.45522820312464
0.44698586562753
0.4371705018992
0.43126693479913
0.43013673862807
0.51247206844961
1.0140335701802
1.583825724678
1.6650956802709
1.6561734122992
1.645552667206
1.6372776182872
1.6460783141497
1.6604377935202
1.6948932722094
1.7590510644582
1.8304301889949
1.8736112872468
1.8983996196947
1.9193815797483
1.941444121277
1.9600104670802
1.9754029953924
1.9872877706852
1.9967391935127
2.0078412740221
2.0221650481027