/*--------------------------------*- C++ -*----------------------------------*\
| =========                 |                                                 |
| \\      /  F ield         | OpenFOAM: The Open Source CFD Toolbox           |
|  \\    /   O peration     | Version:  2312                                  |
|   \\  /    A nd           | Website:  www.openfoam.com                      |
|    \\/     M anipulation  |                                                 |
\*---------------------------------------------------------------------------*/
FoamFile
{
    version     2.0;
    format      ascii;
    arch        "LSB;label=32;scalar=64";
    class       volScalarField;
    location    "0.0006";
    object      T;
}
// * * * * * * * * * * * * * * * * * * * * * * * * * * * * * * * * * * * * * //

dimensions      [0 0 0 1 0 0 0];

internalField   nonuniform List<scalar> 
28800
(
246.99510063159
246.74402147014
246.44674712419
246.09485350701
245.67388677224
245.16397133954
244.54307457827
243.79277500311
242.90416342516
241.8805578892
240.73581385987
239.48974037766
238.16286696215
236.77244467939
235.33058884601
233.84424339917
232.31617256699
230.74663492756
229.13457446181
227.47903759103
225.77967885492
224.03714879644
222.25304836835
220.42873981325
218.57038154005
216.6857436487
214.78495016743
212.86515407245
210.92348092635
208.99116974747
207.0691809799
205.15270767844
203.25372959158
201.37321935715
199.491344178
197.61712085994
195.75669422606
193.88257536694
192.01998854981
190.15109356536
188.26530482843
186.40211467448
184.52671340643
182.63587963698
180.76897803369
178.8887104289
176.99004490501
175.15510197545
173.3026251619
171.51141523763
169.77351073607
168.03418751558
166.38828580588
164.73852914893
163.18136409089
161.63278690865
160.08309734514
158.58391110531
157.07425511322
155.61003641471
154.14622366629
152.68102264301
151.20745914745
149.7839111402
148.35857176341
146.92296026135
145.51958873353
144.12163086866
142.7005975694
141.33717805829
139.99902880024
138.64144858361
137.32925431394
136.01532892952
134.70831130171
133.46106779276
132.21196818204
131.01441391886
129.81556220297
128.64647713899
127.50731441641
126.36669438796
125.27202686513
124.21849552956
123.13721824027
122.06305798913
121.06624003089
120.06147326568
119.05501533166
118.07843166844
117.13985664774
116.18384027762
115.23999954616
114.34348380896
113.43056083551
112.54605968646
111.6558308118
110.79626473119
109.94176074949
109.08537867181
108.25798882056
107.42152293341
106.62389425601
105.80174851468
104.97062074427
103.80240670245
104.15468043596
110.09051613831
148.92913477807
241.50403893201
313.11978333951
319.7104820132
319.250290985
320.24883606217
324.54965875712
327.87945097551
326.33939675154
319.20400735263
306.42777483104
295.23266759009
289.94051449936
287.4028349891
285.99428644458
284.95692847819
283.9395356007
282.72875443262
281.99455980335
282.0308050202
282.40193761796
283.14009831827
284.2517402494
285.70600925333
287.43903308296
289.39949385989
291.54797991078
293.83648109215
295.92156746603
297.54421811261
298.83742738499
299.84772643603
300.63048904458
301.24896077183
301.6946417883
301.92643791901
301.96921548402
301.91356651977
301.72435465329
301.40883574054
301.04134935207
300.69295272234
300.38356259709
300.11586119013
299.89290077237
299.70956143203
299.57775396463
299.52423725783
299.46022067457
299.33313703781
299.09894763462
298.73743763004
298.24753358932
297.64184775373
296.93936363533
296.16125700654
295.32535364901
294.44250506438
293.51719642828
292.54715106123
291.54358769558
290.50767182707
289.45391849241
288.3684558971
287.36348324278
286.34599408194
285.33679555837
284.3246747938
283.29526282605
282.29608768133
281.29376781148
280.25233908203
279.16168774953
277.96312923103
276.58785293697
274.98036901089
273.06763372852
270.83388637528
268.27731476601
265.41915256459
262.32877262605
259.32730460115
256.92814894145
255.10282648718
253.59507663951
252.44591542224
251.64453190483
250.94254641349
250.21837175793
249.38732388306
248.35380749377
247.05763030532
245.54640373244
243.81085871096
241.83061571208
239.79455506397
237.91675968083
236.19280839453
234.62805453916
233.17033682957
231.8445067591
230.62804435779
229.54339818403
228.57877294922
227.73858824424
227.03123921996
226.45696164772
226.01244063015
225.65752307785
225.35749974011
225.11239568903
224.90709444874
224.73630579154
224.58300359379
224.46222188862
224.37837663548
224.29667883653
224.20722803926
224.09197241053
223.93504708418
223.72409771217
223.45259939203
223.1206579503
222.73325873776
222.31110582269
221.88604639925
221.4679733217
221.09512505357
220.7366738965
220.42441427628
220.17037724391
219.98278772439
246.99505585085
246.74399002491
246.44668671987
246.09409007136
245.67111262691
245.15760502247
244.53187959626
243.77652282726
242.883743565
241.85745748574
240.71135035511
239.46460473503
238.13705902768
236.74549350099
235.30183491262
233.81304064732
232.28208727601
230.70944127557
229.09423712837
227.43580487834
225.73377562107
223.98912472582
222.20311137739
220.37799730908
218.51996367461
216.63603139063
214.73654198479
212.81701433332
210.87590108416
208.94606251518
207.02593102139
205.11072017031
203.21311991629
201.3310398063
199.44907986629
197.57771023786
195.71753744499
193.84239334346
191.98210628514
190.11501142795
188.23104622285
186.37031935856
184.49623944536
182.60762973941
180.74198679805
178.86284350917
176.97351778508
175.14096974796
173.29029957118
171.51081731666
169.77154401866
168.03919498817
166.39518842266
164.74827038565
163.19049429466
161.63255574592
160.08700161044
158.59028541072
157.08241878322
155.61648793379
154.15398252205
152.68888827318
151.21843527819
149.79719954687
148.3722587528
146.93594124879
145.53593609003
144.13973604057
142.72132241012
141.36573149794
140.02445692325
138.66472977731
137.35507791991
136.04025005409
134.7433509481
133.49524780008
132.24636267947
131.04855097703
129.84611840387
128.68445955922
127.54415685862
126.40028014149
125.30865896046
124.25352738094
123.17340723589
122.10144535435
121.10507403637
120.09839077006
119.09119056102
118.11792510246
117.17425513123
116.22414400535
115.27873654625
114.38076839383
113.46945370033
112.58641759793
111.69668006736
110.83613617434
109.98371808479
109.12895719653
108.29973935384
107.46595790305
106.66482647672
105.84518775934
105.01219588141
103.86062590245
104.22763440411
110.17989144545
148.90780641475
240.91607579291
311.67315937139
318.49535642313
318.26355364276
319.16907398168
322.85557839816
326.56528293179
326.03887102873
321.03683912499
310.48742990009
297.77469954459
290.83895281616
287.63923826918
285.98718147277
284.92351607003
283.98787349903
282.80945148727
281.87960491264
281.81218893683
282.10527063368
282.76853398053
283.78695731401
285.12291101708
286.71911704785
288.53183483624
290.53476573899
292.70052551626
294.95213227681
296.78666818822
298.23184593651
299.36099057977
300.22782962584
300.87884761358
301.35104215038
301.57930240431
301.60920598947
301.536200389
301.3128953786
300.95054797383
300.51918011519
300.08673059223
299.69018344329
299.33615799243
299.03266771855
298.78266603101
298.60610777402
298.51619045526
298.48335976028
298.41892525339
298.26415949136
297.98113621226
297.56239517956
297.02045308922
296.37387502764
295.64079627483
294.83635562115
293.97062987668
293.04909081655
292.07207238592
291.05057329978
289.98753503003
288.89404181247
287.78257779541
286.67418998883
285.5354458368
284.36360842913
283.17442910216
281.97483300198
280.82216442395
279.64793038043
278.5605014521
277.52204099943
276.47786367072
275.43039854588
274.35345477621
273.2038549849
271.95618591392
270.56926497932
268.95082508942
266.99830865162
264.73767862663
262.0868959966
259.3288771828
256.50961627326
254.21153091038
252.39387687741
250.71404743847
249.0161515321
247.18625784172
245.09598915999
242.64410038408
239.95317851236
237.05104514399
234.10295348669
231.34436301361
228.83481525328
226.58272946671
224.50545080809
222.63710437075
220.99113834457
219.53541711706
218.25967947033
217.1709644956
216.26885239492
215.55503384177
215.03336787163
214.68719354661
214.50477240067
214.466058467
214.5275805633
214.74154211795
215.12785153735
215.66303189867
216.32411883109
217.09689627704
217.95911042746
218.88912312541
219.83189625124
220.64107682847
221.26854450088
221.68138576387
221.90486507545
221.91606145086
221.82872701091
221.65959914521
221.42780730488
221.16005842166
220.90428603461
220.65325139927
220.44262567553
220.20958995344
246.99498030581
246.74397166393
246.44657039741
246.09228801049
245.66465320995
245.14308687192
244.50689247489
243.74088334518
242.83945680474
241.80760275623
240.65863297404
239.41051019838
238.08161699234
236.68771244281
235.24035153637
233.74651656418
232.20956253249
230.63035246493
229.00841005611
227.34357556333
225.63551947675
223.88575672814
222.09494888069
220.26699509406
218.40825468033
216.52407323308
214.62421519695
212.70285307705
210.76015728858
208.83234499827
206.91184664417
204.99638954028
203.09824048029
201.21189182132
199.32494544669
197.456386352
195.5917820273
193.71229727073
191.85232633684
189.98595614067
188.10228297236
186.23981209573
184.3635989541
182.47480805127
180.60705105831
178.72718306304
176.85188851171
175.0198114525
173.16929813513
171.41241900299
169.65980215619
167.94413797986
166.30019698524
164.65429510497
163.09120968666
161.52101280975
159.98471392096
158.48793096689
156.98038933168
155.50876628127
154.05019436647
152.58412148566
151.1200018486
149.70033923497
148.27307405892
146.83606678948
145.44169119954
144.04720282862
142.63473795391
141.28467892004
139.93999615221
138.58197315967
137.27658674133
135.96498513305
134.67985543913
133.42915515202
132.18249705149
130.98363850132
129.77904351178
128.62664885285
127.48684611093
126.34096294328
125.25174906195
124.19365286288
123.12156511684
122.05442232108
121.05458649054
120.04841659069
119.04307377423
118.07493116094
117.12255741141
116.18308170068
115.24248080172
114.34063688839
113.4328545856
112.55252008357
111.66416408041
110.80266729755
109.95351619534
109.09807398337
108.26938848991
107.43349835999
106.63417161891
105.81444226873
104.97457442406
103.83228036721
104.21029097785
110.28702230382
149.52236670004
241.89903419229
312.12073872688
319.07323222691
319.04246054953
320.0918042231
323.78385793342
326.71920406513
325.9968848188
320.58802318155
309.60480697931
297.1816589505
290.66043737046
287.50029576012
285.72644334899
284.55067032323
283.52688781393
282.30328220568
281.60587864167
281.61540032518
281.99606454934
282.77294771485
283.91929750127
285.40697392632
287.18265821599
289.19964482974
291.42057658991
293.80623901759
295.92745563035
297.57580868939
298.87744278777
299.89689624124
300.68022760963
301.28007356162
301.71930457382
301.95720538959
301.99334143243
301.9335101237
301.74110150857
301.42573957548
301.04944352775
300.68140312954
300.35588635376
300.07843880879
299.85399139734
299.68757107698
299.59328016019
299.58504061161
299.5941562167
299.53591773521
299.3681408689
299.06765531241
298.63527264181
298.08802422379
297.44439851342
296.71982716411
295.9234133257
295.05847734666
294.12600342882
293.12633086664
292.06694886571
290.95486494299
289.79824473312
288.61112064002
287.40252472809
286.15915196694
284.91264923564
283.64346902608
282.38569985569
281.1542168704
279.91230973658
278.73369346232
277.58572679045
276.48725458203
275.40182220823
274.31901802114
273.22372720392
272.08765476241
270.89838939773
269.611892708
268.12946556075
266.36632449878
264.27914459441
261.85618898402
258.92571682249
255.57721730569
252.07974190165
248.63681859446
245.17345648297
241.54658394668
237.61837847035
233.45422250119
229.14142517961
225.2141461167
221.83325109487
219.05626358999
216.76320085827
214.84575773348
213.20305596657
211.74983268865
210.45665135352
209.23513471452
208.16480745622
207.14547505221
206.20683245915
205.3895228886
204.64405475126
203.99010310855
203.47962241672
203.09875870208
202.84466022833
202.73651854169
202.7528807309
202.90261294792
203.24272725705
203.78991507506
204.56837272118
205.56364737063
206.76912289097
208.15925117302
209.68043045913
211.25912088449
212.85847527397
214.3602422617
215.54893566769
216.35307395761
216.86334111614
217.20331243853
217.22648426417
217.10271610696
216.85158452672
216.3808939426
246.99498168841
246.7444067065
246.44681236172
246.08933097928
245.65383321771
245.11960315187
244.46784897049
243.68656064406
242.77283531927
241.73281969659
240.57920455823
239.32838229609
237.99690989007
236.59920392965
235.14622007091
233.64484446733
232.09894491867
230.50980157354
228.87779580703
227.20316829547
225.48619336831
223.72863575933
221.93116274058
220.0993757011
218.23938059182
216.35480036391
214.45297708373
212.52991402967
210.58516231625
208.66062385592
206.74102826584
204.82347087163
202.93048664524
201.03418798324
199.14223607441
197.27540303062
195.4054484581
193.52323506997
191.66127700006
189.79646152309
187.91844988236
186.04538063805
184.1685829987
182.28036374863
180.40937663592
178.52539580704
176.68353261794
174.83261018303
173.00047840539
171.25824295624
169.50626473351
167.80261862607
166.16033511888
164.51661710585
162.9483300313
161.36913209706
159.83700144589
158.34006026449
156.82993461685
155.36249310159
153.89645598329
152.42120851941
150.97922567231
149.55510669161
148.1246683775
146.6872794007
145.29890257806
143.90679016092
142.50637574041
141.16110525543
139.81213185985
138.4570468458
137.15518062957
135.84744723998
134.58358130234
133.31686387912
132.08638636466
130.88580440904
129.68103516962
128.53481768127
127.39032139582
126.25475031624
125.16348348073
124.10208476794
123.03650295115
121.98012561203
120.97630162361
119.96927595106
118.9675880488
118.00787221675
117.04600707042
116.11713954241
115.18352715403
114.27892092972
113.37201871645
112.49521139942
111.60919554888
110.74962380074
109.90108187172
109.04587031755
108.21802604042
107.37898347431
106.58228725943
105.75940079312
104.91803024203
103.78052031785
104.1747257303
110.38389382812
150.04059906919
242.00712060064
311.61985319186
318.70265691566
318.81453716318
319.92191496793
323.38658566419
325.9342316768
325.41842575699
320.68276403451
310.51505935466
298.02250887512
290.97226995556
287.47583908561
285.4235345146
284.08355581752
282.95036211724
281.75501600575
281.26070096971
281.31517715564
281.76027381449
282.63653912613
283.90923935732
285.54139386562
287.47610145523
289.66649826779
292.04566828184
294.51514354206
296.52044354228
298.07631344663
299.31027929213
300.28834577535
301.04329789421
301.6296963199
302.05247385122
302.31337948394
302.36193261204
302.31131156955
302.14822890588
301.88095256086
301.56023360848
301.25707484498
301.00015765975
300.80081095537
300.66495078229
300.59809254536
300.59458559783
300.66998824375
300.80084707391
300.92150276495
300.89073219641
300.77304185212
300.55948073063
300.25407833972
299.84943826597
299.33394639566
298.69361195061
297.91813749144
297.00501830376
295.96037709191
294.79621640697
293.52790034649
292.16812412896
290.72367468344
289.22993925023
287.68168898361
286.14277124314
284.61891830599
283.1291245542
281.7095653996
280.30866065615
279.0084245033
277.71691725054
276.54353617191
275.39191388408
274.26796821013
273.15751655092
272.03104349189
270.84433608917
269.61008755351
268.29187787218
266.69507761847
264.69882766838
262.20332746267
258.90219593888
254.72936790355
249.753049695
244.0952867391
237.92943080116
232.09381660174
227.36636520638
223.74042883306
221.04227306412
218.98080557295
217.34019121001
215.92958587634
214.64046981082
213.43027862502
212.32039136011
211.28556882665
210.29347310951
209.33633600421
208.39570241409
207.45999820109
206.54222515779
205.65237093387
204.80056949344
203.97095423182
203.15781443351
202.33744211209
201.47165425156
200.56200581392
199.7205251319
198.9346137881
198.12344962669
197.39999781027
196.96562671282
196.81923771531
196.84115092184
196.99495059653
197.37570485673
198.06459898793
199.06313100367
200.38191231516
202.00650602964
203.91209892247
205.79124780248
207.12849407826
207.74995434428
207.7555679047
207.58521316543
207.02758882448
246.9951725337
246.74562437253
246.44744492976
246.08455615767
245.63732674944
245.0857227611
244.41393515921
243.61366070077
242.6846239736
241.63391099818
240.47340557803
239.21788453989
237.88196547911
236.47862757568
235.01797111355
233.50661825372
231.94892221705
230.34667679565
228.70137223113
227.01376666778
225.28513303438
223.51698799033
221.71187013421
219.87535830377
218.01266075154
216.12570509761
214.22003279997
212.29550934984
210.34819467478
208.42925394192
206.50809416776
204.59273811477
202.69866506681
200.79378195384
198.90060545729
197.03116386695
195.15662019374
193.27254931437
191.40740799333
189.54196033605
187.66769506422
185.7769396653
183.90908664897
182.02533229037
180.1506009101
178.27007091277
176.43888912708
174.59514677364
172.78961724201
171.05477987831
169.30826029582
167.61846066555
165.9780450183
164.33605456394
162.76413206361
161.1801402552
159.65239487671
158.15160957617
156.63774854591
155.17319375592
153.70642129619
152.22853256548
150.79783515234
149.36517205412
147.9235808654
146.51363052419
145.12565314163
143.72976607235
142.34434300073
141.00256258622
139.64504230047
138.30975671224
137.01181125982
135.71051274282
134.45219956442
133.18873779649
131.97650673082
130.75630577004
129.56408699248
128.42157035313
127.27431886042
126.15156462943
125.06502634441
123.98314177131
122.93321453306
121.88287179384
120.87754770684
119.87253294552
118.87944759744
117.92020306007
116.95944620509
116.02997317125
115.1031327908
114.20259904048
113.29815146115
112.42356281537
111.53959970752
110.6812167515
109.83375236131
108.97928146119
108.15269192708
107.30890189088
106.51730606851
105.68836413614
104.84881165362
103.72151064691
104.14512690711
110.60161195603
151.23658407317
243.90595799726
312.22629964512
319.3460091441
319.72093820179
320.91641100185
323.91439028089
325.37520879495
324.66019262895
319.76525430218
309.517627791
297.35869424155
290.61613593492
287.09872310268
284.89979996305
283.39235359272
282.10751055051
281.081394916
280.82669185094
280.97358418801
281.51220749849
282.48712384168
283.86356097301
285.597741705
287.63811986693
289.95015598656
292.43743210548
294.96921804582
297.03163060607
298.70008528646
300.06395814528
301.17739775089
302.07132978556
302.76666392881
303.25585482197
303.55959815072
303.66072648641
303.61423092237
303.46608556541
303.22931417668
302.96248415747
302.75601466214
302.62194513233
302.59630007823
302.66978730184
302.87176227648
303.22682657139
303.7807645579
304.52032927769
305.28718205292
306.0879742237
306.58104231174
306.58900359934
306.43156227889
306.05368731136
305.45197801586
304.64257009314
303.65143036181
302.50711916391
301.23729144874
299.86428200149
298.40071794444
296.85127696542
295.20604244336
293.46717766994
291.64203371334
289.79380269436
287.92234194844
286.01537466701
284.0749748019
282.18274044968
280.39620858477
278.70293864474
277.23161434799
275.83222595828
274.53816009232
273.31694595545
272.10229007295
270.84329401437
269.48943809084
268.19509381833
266.65123704258
264.58522601855
261.80726500775
257.88049728774
252.54815427749
245.77119234938
237.92421271509
231.1286862321
226.46550279794
223.36084868948
221.35872603464
219.99656712241
219.00083029316
218.25427800334
217.70107480057
217.27059791276
216.93400142898
216.64475509187
216.36710698521
216.07955048677
215.73803853537
215.33426056362
214.84978568888
214.27546366004
213.63194037092
212.935434662
212.17280024897
211.31963619596
210.34590659658
209.20632426242
207.93572320655
206.56006741286
205.09782069236
203.56943434282
201.95490082873
200.34393358859
198.95072849895
197.65958294008
196.36050204714
195.05378812531
194.19263883384
193.65526300597
193.27448110104
193.08777260178
193.0977501114
193.26152777153
193.68704858073
194.33185917661
194.53804826489
194.47499723123
194.13933827956
246.99611990585
246.74850942588
246.4482781647
246.07665880031
245.61332257573
245.03997641104
244.34455130998
243.52239165861
242.57539420734
241.51129043119
240.34115582225
239.07839390938
237.73572740032
236.32464683091
234.85408581865
233.3303681501
231.75803339301
230.13983227074
228.47808893229
226.77476461504
225.03174380737
223.25119743862
221.43722516548
219.59480127469
217.72712896268
215.83513487646
213.92259949437
211.99512752757
210.05292974173
208.13358134998
206.21045708302
204.30364409134
202.40245195931
200.49048526055
198.6008631799
196.72171606977
194.84218794379
192.95648849578
191.08631100277
189.2179231506
187.34141354088
185.44690804079
183.57556661446
181.70441780835
179.82391719842
177.95339914154
176.13636308495
174.2969341187
172.5197321595
170.79476074978
169.05303523533
167.38522192289
165.7424698363
164.10114470237
162.52882157666
160.94344679221
159.42438026007
157.91672325464
156.39439886768
154.93053160853
153.47004809892
151.99869375288
150.55175003249
149.12811022866
147.69128548382
146.2988251571
144.9086204669
143.51072815179
142.15341599643
140.80619730891
139.44246168482
138.12872662091
136.83857526151
135.54180068408
134.28755454113
133.03180597001
131.82455700697
130.60766551346
129.42872603391
128.285033076
127.13156157685
126.02845606423
124.92948593615
123.85264822957
122.81049072544
121.76764872734
120.75626636131
119.76277816501
118.76791364432
117.81447043146
116.86094706288
115.93459916663
115.00698051642
114.10987424386
113.20939251135
112.33630502407
111.45609635247
110.5959067909
109.75161980183
108.90173956108
108.07320294113
107.24252496884
106.42589198694
105.64464969289
104.74803817159
103.65674715588
104.10721986724
110.78185551392
152.10452521018
244.52009130944
311.58851050798
318.5250903182
319.42515306152
321.1622926096
323.62406451627
324.16467220727
323.45837240514
318.9556578717
309.48258824987
297.48173638702
290.38763010228
286.61240312038
284.2387372991
282.52906496468
281.11231933896
280.28170945638
280.17953107396
280.42099040136
281.11402387769
282.26612115247
283.8157891292
285.69263582649
287.86503115491
290.31448886546
292.95095403538
295.76039745191
298.39197310303
300.6212187956
302.49199803629
304.08602949824
305.40491693979
306.50722907211
307.39429697044
308.02448107102
308.4345057759
308.52856433842
308.46253497973
308.29114726912
308.08392439925
307.99136649735
308.03233197328
308.30385449161
308.85996807156
309.67138370904
310.72222170795
311.87096174719
312.85773810916
313.11483541119
313.01144225972
312.685370187
312.11097605126
311.31682799321
310.3391527684
309.21986433838
307.99102317464
306.68129399513
305.30987362195
303.88937240478
302.42917140357
300.92260436146
299.36227451555
297.73974076071
296.06081694812
294.31672334269
292.51496649025
290.66640241277
288.79180344359
286.8790570654
284.92805352034
282.92346092044
280.86217756754
278.91315599154
277.06786852895
275.42872010122
273.94963549247
272.52519890505
271.08163738078
269.50433315135
268.03985095503
266.47805791603
264.30844766821
261.09773749385
256.39342819189
249.8926860101
241.69239171902
233.31054303314
227.67916753905
224.51863884838
222.83774193799
222.16928415659
221.98921176567
222.13073421735
222.55386555497
223.19746541588
223.89777621174
224.41167255937
224.66300142117
224.7168292365
224.65405688984
224.46434740243
224.13408043281
223.69913682784
223.19488901709
222.65928272538
222.13219867648
221.60795649595
221.05478477457
220.42619489845
219.7067495698
218.83789042489
217.79557238802
216.56704920497
215.12820480501
213.45621326349
211.5371205823
209.38677983332
207.0603087154
204.61559842622
202.01950620305
199.41802336293
197.18852002603
195.42017077365
194.01552622228
192.85659459171
191.8518838635
191.01248256785
190.307044768
189.6200150637
189.03152091212
188.25781913714
246.99810664545
246.75329913611
246.44860358952
246.06374036106
245.57958225677
244.98092239585
244.25921911149
243.41270649751
242.445121357
241.36472890402
240.18204749935
238.90919604167
237.55719615354
236.13580376507
234.65282454373
233.11398219581
231.52428106675
229.88723650597
228.2063590503
226.48470393512
224.72517916095
222.93131416175
221.10696887527
219.25645938121
217.38008337136
215.47962416885
213.55835525681
211.63086863509
209.69442307065
207.77395883357
205.85084408996
203.95005147561
202.04210241061
200.1261617036
198.23785546851
196.34477188543
194.46356487364
192.57972815883
190.69372035479
188.82477527742
186.9442607556
185.04315741845
183.18031920595
181.30818819408
179.42130394514
177.5868889076
175.76126443561
173.94542972657
172.19633756586
170.47265443346
168.74363481673
167.0961457204
165.44860094305
163.81514468792
162.23881199375
160.66156249125
159.14376850814
157.61871918223
156.11395086422
154.64358854283
153.16838358123
151.72111309585
150.26627441235
148.84919851145
147.4191725139
146.01725796009
144.64289213071
143.25736270367
141.91237685362
140.56309213777
139.2124905414
137.91603116439
136.6147352249
135.33888394703
134.09130614008
132.8426258839
131.63954015678
130.42847487409
129.2702006271
128.11251086796
126.97206306123
125.87599820276
124.77248076369
123.70474968
122.6678120113
121.62160346108
120.6141657879
119.6285409516
118.63838757964
117.68611045749
116.73968234187
115.81692271942
114.89395007624
114.00103991944
113.10264248276
112.23158670728
111.35618958787
110.48862952339
109.65881022205
108.78549056698
107.98932125686
107.10026637294
106.36718477133
105.49522503394
104.70597523687
103.58041117189
104.08405638321
111.11514964718
153.91856458388
246.45265878801
311.76322105524
318.79713735786
320.00472956379
322.0009249374
323.00133806615
322.86710616399
322.11930260036
317.78583394318
308.75482107346
297.04558770694
289.87419036269
285.97242635616
283.51002991581
281.58135853602
280.06416119593
279.64014547527
279.79376897431
280.5332662685
282.07727058409
284.15247672652
286.45578670839
288.83359125056
291.33724687274
294.03623223656
296.90992506229
299.77811983198
302.12960307942
304.04326481666
305.6514225376
307.09625809152
308.40287497573
309.71729510213
310.99164224463
312.2730077811
313.51795674907
314.66467033919
315.5663564198
316.2192570844
316.71935706576
317.09666505246
317.43317107287
317.77270221478
318.1750964403
318.39884180712
318.29268119565
317.96651194842
317.42694711167
316.69631226929
315.78067800071
314.71645059492
313.54150304923
312.29482240523
310.99553959258
309.65821091086
308.29154216454
306.90545743043
305.50549525169
304.08907622952
302.65792478211
301.19116433049
299.6794481467
298.12088618136
296.5368898764
294.90037555971
293.24720820497
291.54841248835
289.81306504714
288.02804007489
286.23140397617
284.43143056293
282.60142578754
280.7333552652
278.80692581708
276.90527158772
275.14831313819
273.42976504082
271.70714941159
269.88471468535
267.9437473197
266.21826388472
263.83138993423
260.13011676551
254.84457434136
247.48607164767
238.59172791371
231.17083165488
226.87361387461
224.96071238037
224.53880589639
224.90743659404
225.92542428573
227.47618278341
229.05941501807
229.96746753002
230.28900048878
230.29434431722
230.13342454913
229.75676702345
229.19681296883
228.53995678807
227.85521835242
227.18588567684
226.54915652475
225.96604718143
225.47006540187
225.04493544288
224.67862558244
224.33914508938
224.0056191881
223.6688986526
223.32429299955
222.94456136169
222.49907965849
221.9240964796
221.1741225764
220.17669104301
218.87377230361
217.15167081521
214.94611650594
212.26114590994
209.13862123703
205.69717129045
202.08198814801
198.7996347442
196.14919072948
193.89695057067
192.21948655012
190.76614978787
189.70028716866
188.43385507172
247.00182650954
246.75975603253
246.44752278947
246.0449094977
245.53551317622
244.90830891965
244.15787932351
243.2846479213
242.29365017936
241.1940945211
239.99586086355
238.71007324141
237.34548548926
235.91064952476
234.41188173171
232.85482338437
231.24482564676
229.58626669134
227.88415873763
226.14188832454
224.36490285296
222.55753631366
220.7199654493
218.85803648435
216.96899620824
215.05668282773
213.12951212928
211.20175424957
209.2709611927
207.3505888742
205.42883121604
203.52895620853
201.61776556218
199.69934347152
197.80834861992
195.90463068084
194.01898962179
192.13482126131
190.23488160013
188.36264284531
186.47581066567
184.5704073184
182.71251401227
180.84444218703
178.95449489316
177.14887854962
175.34360462044
173.53110489612
171.80870064005
170.10144096787
168.38269405458
166.74131422179
165.09340996715
163.47929556532
161.90071823201
160.33307081946
158.81019203749
157.27472695546
155.79354125737
154.31090879875
152.8208932685
151.38104780882
149.93270727744
148.51007286451
147.10358140166
145.71483467125
144.33713337401
142.94220162001
141.60923159562
140.27696174453
138.94466809869
137.65467394624
136.36070289728
135.11322885881
133.85416230677
132.62131308815
131.4220362898
130.21908117566
129.06594385597
127.90049541953
126.78859410515
125.67796461418
124.58472747084
123.53462306188
122.48489766414
121.44781341822
120.45694533187
119.47005302291
118.48536306941
117.53522032636
116.59478067711
115.66921211164
114.75615148726
113.86623745604
112.97368218387
112.09833718993
111.23411288457
110.36213246196
109.52345383383
108.67656772447
107.84818877484
107.02625202258
106.19138197072
105.44806490527
104.51341599412
103.47208253765
103.99901678525
111.37249927928
156.19678557272
250.5671318261
313.74994143207
321.1784832504
322.56484152143
324.09496768787
323.75889707191
323.08050187435
321.52888815841
316.19241577747
306.11482217683
294.98684179321
288.74019820239
285.09303003847
282.30473969642
280.15204238795
279.45331862551
279.74287490406
280.9530818802
283.03052264794
285.49041651197
288.22415169706
291.06650965104
293.72346540567
296.20896997366
298.5853139843
300.66267827897
302.31498057739
303.7361341234
305.00657637801
306.17255416668
307.33512549409
308.49699052719
309.78650951623
311.13372674958
312.63555287188
314.23280098404
315.94956781457
317.55534828528
318.82089228582
319.87806325168
320.43470888215