/*--------------------------------*- C++ -*----------------------------------*\
| =========                 |                                                 |
| \\      /  F ield         | OpenFOAM: The Open Source CFD Toolbox           |
|  \\    /   O peration     | Version:  2312                                  |
|   \\  /    A nd           | Website:  www.openfoam.com                      |
|    \\/     M anipulation  |                                                 |
\*---------------------------------------------------------------------------*/
FoamFile
{
    version     2.0;
    format      ascii;
    arch        "LSB;label=32;scalar=64";
    class       volScalarField;
    location    "0.0006";
    object      thermo:psiLiqEff;
}
// * * * * * * * * * * * * * * * * * * * * * * * * * * * * * * * * * * * * * //

dimensions      [-2 4 2 0 0 0 0];

internalField   nonuniform List<scalar> 
28800
(
6.1568396771597e-13
6.1631100422246e-13
6.1705505683515e-13
6.1793813247362e-13
6.189978627629e-13
6.2028638097498e-13
6.2186259981618e-13
6.2377804740744e-13
6.2606191253813e-13
6.2871353755421e-13
6.317056743322e-13
6.3499516432643e-13
6.3853577264854e-13
6.4228850178772e-13
6.46226852279e-13
6.5033752845865e-13
6.5461840499572e-13
6.590744474204e-13
6.6371473431979e-13
6.6854859055093e-13
6.7358409395844e-13
6.7882681547959e-13
6.8427974677833e-13
6.8994680760449e-13
6.9581688048508e-13
7.0187274546475e-13
7.0808812549133e-13
7.144782614689e-13
7.21059497667e-13
7.2773036462747e-13
7.3448905599442e-13
7.4135440753376e-13
7.4828474031921e-13
7.552764442939e-13
7.6240513865447e-13
7.696397493187e-13
7.769580733711e-13
7.8447221703238e-13
7.9208541815409e-13
7.9987426820339e-13
8.0789020968283e-13
8.1596936432991e-13
8.2426617132977e-13
8.3280371192249e-13
8.414083940337e-13
8.5025616551298e-13
8.5938123626752e-13
8.6838798754489e-13
8.7767424710198e-13
8.8684411361646e-13
8.9592598593959e-13
9.0520334652302e-13
9.1416097502635e-13
9.2331918514914e-13
9.3213325592703e-13
9.4106710552667e-13
9.5018039062127e-13
9.5916614809063e-13
9.6838796643247e-13
9.7750315834978e-13
9.8678888887316e-13
9.9626171068026e-13
1.005973720491e-12
1.0155375774822e-12
1.0252973017163e-12
1.0353187743841e-12
1.045306312899e-12
1.0554486744186e-12
1.0659620862496e-12
1.0762479932711e-12
1.0865380104401e-12
1.097180440056e-12
1.1076670711605e-12
1.1183702248478e-12
1.1292242731101e-12
1.1397801326292e-12
1.1505513164243e-12
1.1610708544551e-12
1.1717961685799e-12
1.1824477332769e-12
1.1930145228676e-12
1.2037857085351e-12
1.2143073848242e-12
1.2246088439028e-12
1.2353648627182e-12
1.2462387444996e-12
1.2565023248516e-12
1.2670202258882e-12
1.2777338063229e-12
1.2883039427729e-12
1.2986288103411e-12
1.3093170175498e-12
1.3200430710781e-12
1.3303952964684e-12
1.3411051511965e-12
1.3516472836577e-12
1.3624263388949e-12
1.3729985121716e-12
1.3836722676601e-12
1.3945372762828e-12
1.4051977108912e-12
1.4161420407255e-12
1.4267381710676e-12
1.4378271979149e-12
1.4492139231801e-12
1.4655266965606e-12
1.4605704205642e-12
1.3818110597586e-12
1.0214185853915e-12
6.2983748848604e-13
4.8575211942972e-13
4.7573317192373e-13
4.7641916849292e-13
4.749341488618e-13
4.6864103670345e-13
4.6388188802259e-13
4.6607050925863e-13
4.7648768184292e-13
4.9635214170843e-13
5.1517157300063e-13
5.2457345067659e-13
5.2920421958482e-13
5.3180952348142e-13
5.3374430869816e-13
5.356555553625e-13
5.3794837862735e-13
5.3934809237186e-13
5.3927773622626e-13
5.3856790650027e-13
5.3716269128847e-13
5.35060796148e-13
5.3233611747321e-13
5.2912546309841e-13
5.2554006517511e-13
5.2166640994278e-13
5.1760283144784e-13
5.1395519493836e-13
5.1115179880159e-13
5.0893926285585e-13
5.0722394474037e-13
5.0590278749549e-13
5.0486371169113e-13
5.0411755569645e-13
5.037303154925e-13
5.0365889274105e-13
5.0375183543818e-13
5.0406804674566e-13
5.0459619117263e-13
5.052127729367e-13
5.0579888088605e-13
5.0632072367672e-13
5.0677333855778e-13
5.0715118004524e-13
5.0746257683254e-13
5.0768708083171e-13
5.0777905705199e-13
5.0788887442587e-13
5.081057581231e-13
5.0850483649168e-13
5.0912141485445e-13
5.0995890636428e-13
5.1099782814365e-13
5.122078816151e-13
5.1355475155698e-13
5.150094689394e-13
5.1655477794472e-13
5.1818432693595e-13
5.1990367462538e-13
5.2169443360588e-13
5.2355586998815e-13
5.2546301951744e-13
5.2744207082782e-13
5.292877757082e-13
5.3116967313666e-13
5.3304954664307e-13
5.3494828459879e-13
5.3689338807032e-13
5.3879489936915e-13
5.4071598308648e-13
5.4272649637939e-13
5.4484799880893e-13
5.4719843728578e-13
5.4992030332966e-13
5.5313599786337e-13
5.5701141548737e-13
5.6160626582075e-13
5.6695885516729e-13
5.7306476016334e-13
5.7981625387887e-13
5.865274993787e-13
5.9200468155196e-13
5.9624076315562e-13
5.9978585118473e-13
6.0251626491123e-13
6.0443511954133e-13
6.0612606710742e-13
6.0788043567995e-13
6.099063470597e-13
6.1244484804044e-13
6.1565859894329e-13
6.1944847059683e-13
6.2385899673331e-13
6.2896863239452e-13
6.3431027455202e-13
6.3931780260435e-13
6.4398523528112e-13
6.4828107261036e-13
6.5233495567766e-13
6.5606637187602e-13
6.5952775954142e-13
6.6264505719176e-13
6.6544231348598e-13
6.6789807975206e-13
6.6997972552374e-13
6.7167936777418e-13
6.7300098244557e-13
6.7406000256032e-13
6.7495787712789e-13
6.7569323336814e-13
6.7631044456078e-13
6.7682478765312e-13
6.7728714366286e-13
6.7765190771037e-13
6.7790542531579e-13
6.7815262003329e-13
6.7842343891502e-13
6.7877262588037e-13
6.7924854742481e-13
6.7988928731799e-13
6.8071565449425e-13
6.8172868883642e-13
6.8291476906027e-13
6.8421193438287e-13
6.8552301139484e-13
6.868174408765e-13
6.8797598331854e-13
6.890934554833e-13
6.9006988676416e-13
6.9086630815544e-13
6.9145558891056e-13
6.156840794296e-13
6.1631108313298e-13
6.1705520778441e-13
6.1794004960344e-13
6.190048563251e-13
6.2030250012759e-13
6.2189109224192e-13
6.2381966908353e-13
6.2611459299722e-13
6.2877363937818e-13
6.3176992856358e-13
6.3506187147723e-13
6.3860502822729e-13
6.4236167676336e-13
6.4630588164717e-13
6.5042438275735e-13
6.5471453639591e-13
6.5918077841405e-13
6.6383168255762e-13
6.6867576539902e-13
6.7372116617614e-13
6.7897246098269e-13
6.844336353165e-13
6.9010577961115e-13
6.9597753047469e-13
7.0203391298749e-13
7.0824785323778e-13
7.146399812845e-13
7.2122229253025e-13
7.2788756322989e-13
7.3464259214414e-13
7.4150625928849e-13
7.4843436359574e-13
7.5543476819216e-13
7.6256678840087e-13
7.6979335515702e-13
7.7711360589155e-13
7.8463491981599e-13
7.9224179756789e-13
8.0002615542915e-13
8.0803732358921e-13
8.1610864187761e-13
8.2440238762908e-13
8.3293261737558e-13
8.415341091428e-13
8.5037919125446e-13
8.5946153422964e-13
8.6845809730609e-13
8.7773670902638e-13
8.8684721723097e-13
8.9593637811398e-13
9.0517636938862e-13
9.14123045506e-13
9.2326457956057e-13
9.3208109307361e-13
9.4106845831683e-13
9.501572154751e-13
9.5912758811546e-13
9.6833762691111e-13
9.7746262600597e-13
9.8673921231372e-13
9.9621037846956e-13
1.0059006854925e-12
1.0154474664024e-12
1.0252026921658e-12
1.0352272925189e-12
1.0451888681371e-12
1.0553160657556e-12
1.0658072547497e-12
1.0760305541335e-12
1.0863406482401e-12
1.0969961854964e-12
1.1074587618897e-12
1.1181652957111e-12
1.1289305445284e-12
1.1394882278945e-12
1.150252006675e-12
1.160768324251e-12
1.1715203453675e-12
1.1820986363872e-12
1.1926698209742e-12
1.2034657674026e-12
1.2139523110498e-12
1.2242634939386e-12
1.2350018160095e-12
1.2458468434441e-12
1.2560993107835e-12
1.2666306557297e-12
1.2773455824593e-12
1.2878730837057e-12
1.2982474814078e-12
1.3088628682136e-12
1.3195993906507e-12
1.3299615210256e-12
1.3406453611286e-12
1.3511626529576e-12
1.361927958223e-12
1.3725044808558e-12
1.383144288784e-12
1.3939802656616e-12
1.4046558668201e-12
1.4155563600147e-12
1.4261905373972e-12
1.4372369750402e-12
1.4486400353043e-12
1.4647050271278e-12
1.4595478598735e-12
1.3806899165932e-12
1.0215647703582e-12
6.3137457816993e-13
4.8800641949925e-13
4.7754799323082e-13
4.7789607201234e-13
4.7654060850932e-13
4.7109976010158e-13
4.6574840206398e-13
4.6650000212533e-13
4.7376761955763e-13
4.8986294334825e-13
5.1077408863165e-13
5.2295309142479e-13
5.2876927127916e-13
5.3182273882335e-13
5.338069561776e-13
5.3556447369764e-13
5.3779498983379e-13
5.3956807488076e-13
5.3969611340399e-13
5.3913427423425e-13
5.3786850408644e-13
5.3593705803834e-13
5.3342470426668e-13
5.3045391626721e-13
5.2712028978245e-13
5.2348547971208e-13
5.196113891881e-13
5.156442397148e-13
5.1245635998935e-13
5.0997257366515e-13
5.0804853967637e-13
5.0658119933112e-13
5.05484674881e-13
5.0469228605923e-13
5.0431007851677e-13
5.0426001351837e-13
5.0438220158772e-13
5.0475630075266e-13
5.0536449523427e-13
5.0609048927742e-13
5.0682052577751e-13
5.0749199988112e-13
5.0809317081962e-13
5.086098957835e-13
5.0903661782167e-13
5.0933882958986e-13
5.094935189577e-13
5.0955084853123e-13
5.096621556819e-13
5.0992788534224e-13
5.1041346890952e-13
5.1113297148411e-13
5.1206678319468e-13
5.1318509908416e-13
5.1445876100013e-13
5.1586356245042e-13
5.173838744674e-13
5.1901199065408e-13
5.2074927418518e-13
5.2257806970138e-13
5.2449486926745e-13
5.2648127841984e-13
5.2851576167876e-13
5.3056032942375e-13
5.3267739703534e-13
5.3487369678622e-13
5.3712107923129e-13
5.3940736015608e-13
5.4162260231039e-13
5.4389807999675e-13
5.4602249057508e-13
5.4806680702201e-13
5.5013783459808e-13
5.5223111016203e-13
5.5439989076203e-13
5.5673373012912e-13
5.5928882430389e-13
5.6215658564451e-13
5.6554022513918e-13
5.696765558679e-13
5.7454158621814e-13
5.8035286555267e-13
5.8652493457081e-13
5.9297130740083e-13
5.9833175505679e-13
6.0264066900153e-13
6.0667842048438e-13
6.1081499938212e-13
6.1533688799877e-13
6.2058494050826e-13
6.2685630805403e-13
6.3388673968002e-13
6.4164813019328e-13
6.497295511869e-13
6.5747818713349e-13
6.6468963188925e-13
6.7129733090424e-13
6.7750969283088e-13
6.8319630651845e-13
6.8828584487304e-13
6.9285078714375e-13
6.9690145915345e-13
7.003960307522e-13
7.033184007155e-13
7.0564823450155e-13
7.0736080048837e-13
7.0850200248277e-13
7.091051057448e-13
7.0923365205074e-13
7.0903077616466e-13
7.0832480983495e-13
7.0705332178506e-13
7.0529917500576e-13
7.0314420402957e-13
7.0064169494479e-13
6.978704537944e-13
6.9490573106661e-13
6.9192592218536e-13
6.8938870999665e-13
6.8743411742284e-13
6.8615425538055e-13
6.8546360390179e-13
6.8542940775335e-13
6.8569965630843e-13
6.8622323525049e-13
6.8694194058329e-13
6.8777392231037e-13
6.8857054361278e-13
6.8935416851029e-13
6.9001303714137e-13
6.9074338535534e-13
6.1568426792717e-13
6.1631112960064e-13
6.1705549826652e-13
6.1794457499978e-13
6.1902114119963e-13
6.2033926285438e-13
6.2195469722136e-13
6.2391096131754e-13
6.2622887714202e-13
6.2890338841796e-13
6.3190843675243e-13
6.3520547956521e-13
6.3875385739438e-13
6.4251861344785e-13
6.4647493126779e-13
6.5060963225141e-13
6.5491917208893e-13
6.594069940059e-13
6.6408065241648e-13
6.6894722992401e-13
6.7401475487803e-13
6.7928616011181e-13
6.8476718850231e-13
6.904537904896e-13
6.9633373562434e-13
7.0239714742611e-13
7.0861875847842e-13
7.1502377800092e-13
7.2161860885302e-13
7.2828416227198e-13
7.3504788625408e-13
7.4192004914633e-13
7.4885794092549e-13
7.5588234840136e-13
7.6304195058377e-13
7.7026659500484e-13
7.776135107025e-13
7.8516214300712e-13
7.9277798305441e-13
8.0056987000669e-13
8.0859072282723e-13
8.1668079733675e-13
8.2499578037785e-13
8.3353917674327e-13
8.4216311891494e-13
8.510249417157e-13
8.6005287944778e-13
8.6905954884024e-13
8.7835028234829e-13
8.8735651206712e-13
8.9652670101366e-13
9.0568890360181e-13
9.1464540038446e-13
9.2379172640225e-13
9.3264872340661e-13
9.4171857797415e-13
9.5076492701547e-13
9.5974722932511e-13
9.6896721887359e-13
9.7813995172382e-13
9.8740423438575e-13
9.9689462496557e-13
1.0065561119772e-12
1.0161047004504e-12
1.025888712338e-12
1.0359316606316e-12
1.0458663536617e-12
1.0559941893724e-12
1.0664544387488e-12
1.0766480386405e-12
1.0869965095714e-12
1.0976514805664e-12
1.1080921580473e-12
1.1187844540519e-12
1.129462941085e-12
1.1400528274668e-12
1.1508079266302e-12
1.1613437379358e-12
1.1721260096064e-12
1.182630072326e-12
1.1932061289221e-12
1.2040309525519e-12
1.2145040393778e-12
1.224853879167e-12
1.2355219753103e-12
1.246326957514e-12
1.2566233259741e-12
1.2671580739602e-12
1.2778620172295e-12
1.2883421540335e-12
1.2988206721432e-12
1.3093255769291e-12
1.3200146579722e-12
1.3304284340051e-12
1.3410780359449e-12
1.3515696923757e-12
1.3623246533153e-12
1.3729191669275e-12
1.3835243101979e-12
1.3943749755241e-12
1.4050497352594e-12
1.4159841597859e-12
1.426600641953e-12
1.4376546881286e-12
1.4491593324511e-12
1.4651050006586e-12
1.4597908512489e-12
1.3793486314479e-12
1.0173655412653e-12
6.2880862036488e-13
4.873066463168e-13
4.7668327115236e-13
4.7672953450453e-13
4.751670667259e-13
4.6974933863037e-13
4.6552905071645e-13
4.6656003831664e-13
4.7443077846978e-13
4.9125922409675e-13
5.1179317981443e-13
5.2327419730054e-13
5.2902481788548e-13
5.3230814455351e-13
5.3450654603047e-13
5.3643537680485e-13
5.387593495322e-13
5.4009264344449e-13
5.4007335132701e-13
5.3934317960144e-13
5.3786023932302e-13
5.3568739127138e-13
5.3289395212299e-13
5.2959789516619e-13
5.2590329975644e-13
5.2189453263771e-13
5.1765616409092e-13
5.1394499544602e-13
5.1109752849234e-13
5.0887109334823e-13
5.0714073714025e-13
5.0581905306069e-13
5.0481154768917e-13
5.0407633657909e-13
5.0367899566587e-13
5.0361866950666e-13
5.0371857066914e-13
5.0404007862869e-13
5.0456789070994e-13
5.0519916605652e-13
5.058182660544e-13
5.0636732142981e-13
5.0683647259422e-13
5.0721692595719e-13
5.0749975911229e-13
5.0766073015272e-13
5.0767598064458e-13
5.0766183095605e-13
5.0776182132459e-13
5.0804765910316e-13
5.0855936321431e-13
5.0929691093776e-13
5.1023310574063e-13
5.1133834677584e-13
5.1258815379415e-13
5.1396880609438e-13
5.1547657650657e-13
5.1711191486617e-13
5.1887657268867e-13
5.2075974323593e-13
5.2275129255885e-13
5.248387738209e-13
5.2699866363682e-13
5.2921594737528e-13
5.3151653853444e-13
5.3384312287407e-13
5.3623301498635e-13
5.3862264011235e-13
5.4098303046636e-13
5.4338444950762e-13
5.4568328521896e-13
5.4794112852474e-13
5.5011919809786e-13
5.5228846407202e-13
5.5446954741027e-13
5.5669331239201e-13
5.5901868448636e-13
5.6147369720959e-13
5.641536929718e-13
5.6727347773529e-13
5.7102892431386e-13
5.75539078197e-13
5.8086446182596e-13
5.8743848585734e-13
5.9513473496225e-13
6.0339158518613e-13
6.1174653576039e-13
6.2038788854488e-13
6.2970295501622e-13
6.4011289781051e-13
6.5153085746313e-13
6.6379415842823e-13
6.7537022801439e-13
6.85664499075e-13
6.94357965396e-13
7.0170463988544e-13
7.0796846822709e-13
7.1342451626978e-13
7.1832190701131e-13
7.2273691161144e-13
7.2695735664159e-13
7.3069621329959e-13
7.342928252859e-13
7.3763617876811e-13
7.405722671646e-13
7.4327067445528e-13
7.4565403899327e-13
7.4752523813935e-13
7.4892754672388e-13
7.4986618224142e-13
7.5026661635178e-13
7.5020648636534e-13
7.496532676601e-13
7.4839915496924e-13
7.4639005891214e-13
7.4355018622523e-13
7.3995057911441e-13
7.3563706816277e-13
7.3072479902225e-13
7.2542406121847e-13
7.2000364926164e-13
7.1459430742684e-13
7.095885642297e-13
7.0567593055268e-13
7.0305359713047e-13
7.0139980848684e-13
7.0030237925677e-13
7.0022801095229e-13
7.0062747467428e-13
7.0143908609742e-13
7.0296504809509e-13
6.156842648658e-13
6.1631004285907e-13
6.1705488923914e-13
6.1795200082791e-13
6.1904842231888e-13
6.2039873865891e-13
6.2205411031511e-13
6.2405016331173e-13
6.2640087519537e-13
6.2909811390103e-13
6.3211723864792e-13
6.3542363347437e-13
6.3898138021874e-13
6.4275915674715e-13
6.4673391892619e-13
6.5089296231251e-13
6.5523153682193e-13
6.5975210114679e-13
6.6445990062115e-13
6.6936092291402e-13
6.7446143026506e-13
6.7976354272717e-13
6.8527289451797e-13
6.909799699417e-13
6.9687291391533e-13
7.0294704574708e-13
7.0918493680974e-13
7.156059640613e-13
7.2221863162592e-13
7.2888387179284e-13
7.356555697001e-13
7.4254675557304e-13
7.4947734045687e-13
7.5655087687719e-13
7.6374240049123e-13
7.7097362040223e-13
7.7835540408297e-13
7.8592959267927e-13
7.9356862063434e-13
8.0136955518459e-13
8.0938211954047e-13
8.1753468734384e-13
8.2586976774362e-13
8.344287341139e-13
8.4308627719343e-13
8.5198726499387e-13
8.6087274261118e-13
8.6999047287231e-13
8.7920775111127e-13
8.8815567297949e-13
8.973390822716e-13
9.0645302041148e-13
9.1541556877353e-13
9.2456509747354e-13
9.3346680023821e-13
9.4260523448805e-13
9.5164387655432e-13
9.6064382557857e-13
9.6989711129594e-13
9.7906117690933e-13
9.8839094109434e-13
9.9796046912969e-13
1.0074949454057e-12
1.0170917471121e-12
1.0269168662455e-12
1.0369827343522e-12
1.0468944526508e-12
1.0570248410925e-12
1.0674153229063e-12
1.0775908110978e-12
1.0879908971541e-12
1.0986421370828e-12
1.1090732716498e-12
1.1197527026121e-12
1.1302711049055e-12
1.14101332929e-12
1.1516455065513e-12
1.1622120368735e-12
1.1730120896897e-12
1.1834751942452e-12
1.1941104481256e-12
1.2048533216086e-12
1.2153607176148e-12
1.225757843e-12
1.2363763617421e-12
1.2470862601081e-12
1.2574366883529e-12
1.2679941745894e-12
1.2786730101278e-12
1.2890744340253e-12
1.2996703110371e-12
1.3100692981593e-12
1.3206904295801e-12
1.3311470850122e-12
1.3417978188566e-12
1.352258371561e-12
1.3629957562966e-12
1.373576865623e-12
1.384184535521e-12
1.395042644584e-12
1.4057167384354e-12
1.4167031815537e-12
1.4272952547848e-12
1.4384030522989e-12
1.4499404920444e-12
1.4658358757935e-12
1.4602893279029e-12
1.3781380216173e-12
1.0138511911309e-12
6.2852741536783e-13
4.8808980496652e-13
4.772375572695e-13
4.7707040364859e-13
4.7541940893805e-13
4.7032642522784e-13
4.6665016840557e-13
4.6738931666524e-13
4.7429062432822e-13
4.8981923514875e-13
5.1034925852543e-13
5.2271339729804e-13
5.2906982041374e-13
5.3287314567802e-13
5.3538560016096e-13
5.3752856683881e-13
5.3980786841668e-13
5.4075560687815e-13
5.4064986579862e-13
5.397946738458e-13
5.3811997533145e-13
5.3570652825368e-13
5.3264326386774e-13
5.2905749729489e-13
5.2505591412765e-13
5.2077769891133e-13
5.1641036450879e-13
5.1291734968948e-13
5.1023943924025e-13
5.081352780047e-13
5.0647969125275e-13
5.0520906354441e-13
5.0422647717796e-13
5.0352040121257e-13
5.03085671191e-13
5.030048325777e-13
5.0308916093622e-13
5.0336101023921e-13
5.0380713453261e-13
5.0434353574801e-13
5.0485179045692e-13
5.0528357704081e-13
5.0561942016955e-13
5.0584898641362e-13
5.059626880648e-13
5.0596985578878e-13
5.0584428097181e-13
5.0562555209623e-13
5.0542415028021e-13
5.0547714328103e-13
5.0567622085553e-13
5.0603679189116e-13
5.0655273977006e-13
5.0723752736906e-13
5.0811223120145e-13
5.0920265954876e-13
5.1052922251196e-13
5.1209990215852e-13
5.1390852164808e-13
5.1593903186955e-13
5.1816942859917e-13
5.2058209118325e-13
5.2316963669934e-13
5.2587263625048e-13
5.2870386946501e-13
5.3154844220078e-13
5.3439548304545e-13
5.3720855786256e-13
5.3991673341024e-13
5.4261624323006e-13
5.4514606373085e-13
5.4768238442664e-13
5.5000731339647e-13
5.5230840643917e-13
5.5457282415157e-13
5.5682832481653e-13
5.5913509385134e-13
5.6158581777586e-13
5.6415750013777e-13
5.6693013009585e-13
5.7032510711034e-13
5.7462664321749e-13
5.8009549306939e-13
5.8749184330265e-13
5.9711544428697e-13
6.0901236560527e-13
6.2312763800852e-13
6.3927501965192e-13
6.5534796126122e-13
6.6897401678709e-13
6.79815846425e-13
6.8811497826172e-13
6.945941992531e-13
6.9983894957533e-13
7.0441233958107e-13
7.0864450027209e-13
7.126640965844e-13
7.1639084620532e-13
7.1990083330853e-13
7.2329831098943e-13
7.2660654220977e-13
7.2988726187396e-13
7.3318021721901e-13
7.3643897410336e-13
7.3962628793879e-13
7.4270316350027e-13
7.4572450001938e-13
7.4870969039342e-13
7.5174568989755e-13
7.5497651361372e-13
7.5840099198471e-13
7.6159658834575e-13
7.6460555966007e-13
7.6773619559503e-13
7.7055004256477e-13
7.7224954846897e-13
7.7282416220774e-13
7.7273837854729e-13
7.7213534385445e-13
7.7064615498993e-13
7.6796615808082e-13
7.6411445388807e-13
7.5908620152502e-13
7.5298212586257e-13
7.4594611943681e-13
7.3913531557365e-13
7.3436396711682e-13
7.3216764692609e-13
7.3214819126647e-13
7.3274930097058e-13
7.3472308258998e-13
6.1568379000891e-13
6.1630699933204e-13
6.1705329887236e-13
6.1796399293048e-13
6.1909004744121e-13
6.2048456801038e-13
6.221914405049e-13
6.2423706734776e-13
6.2662875645983e-13
6.2935584304809e-13
6.3239557671915e-13
6.3571738135051e-13
6.392903797412e-13
6.4308714248986e-13
6.4708710965406e-13
6.5127855387712e-13
6.5565565046836e-13
6.602196618805e-13
6.6497284690532e-13
6.6991978259693e-13
6.7506379168218e-13
6.8040765517244e-13
6.8595115447563e-13
6.9168443854377e-13
6.9759809315232e-13
7.0369265261347e-13
7.099565923208e-13
7.1639658383165e-13
7.230327352384e-13
7.2969346050229e-13
7.3648584659147e-13
7.4338464981732e-13
7.5033497755296e-13
7.5745717210863e-13
7.6467071454479e-13
7.7192981891853e-13
7.7934833422393e-13
7.8694950575568e-13
7.9462167508791e-13
8.0244608996611e-13
8.104641055563e-13
8.1871653437123e-13
8.2703560667113e-13
8.3559835890435e-13
8.4429785348383e-13
8.5320803752389e-13
8.6206689131008e-13
8.7117422364615e-13
8.8028111338177e-13
8.8921251902627e-13
8.9838891945438e-13
9.0744929893254e-13
9.1642132934551e-13
9.255813302267e-13
9.34523572855e-13
9.4371087827224e-13
9.5274465253309e-13
9.6178890733315e-13
9.7108753060945e-13
9.802559543113e-13
9.8961333675607e-13
9.9922399528303e-13
1.0087072267978e-12
1.0183854939958e-12
1.0283132839668e-12
1.0382121486442e-12
1.0481445965005e-12
1.058327109736e-12
1.0686307284519e-12
1.0788027879394e-12
1.0892930774992e-12
1.0998124421257e-12
1.1102341221337e-12
1.1208828680777e-12
1.1313758562838e-12
1.1421112655786e-12
1.1526045799118e-12
1.163363365719e-12
1.1740711516834e-12
1.184519088215e-12
1.1951990708288e-12
1.2058390759383e-12
1.216317752593e-12
1.2269340485679e-12
1.237415400392e-12
1.2480815805046e-12
1.2584642205785e-12
1.2690177403921e-12
1.2796212675203e-12
1.2900330277532e-12
1.3006324038159e-12
1.3110536812364e-12
1.3216130711649e-12
1.3320368878842e-12
1.3426728240993e-12
1.3531203642375e-12
1.3638463868099e-12
1.3744259892738e-12
1.3850332366886e-12
1.3958952219352e-12
1.406566096898e-12
1.4176285903507e-12
1.4281661619766e-12
1.4393700420479e-12
1.4508978945291e-12
1.4666700220322e-12
1.460704451368e-12
1.3754248953181e-12
1.005832685671e-12
6.2363351906173e-13
4.8714161234458e-13
4.7627619642993e-13
4.7571807704226e-13
4.7394639385074e-13
4.6956029052279e-13
4.6745197082413e-13
4.6848084876759e-13
4.756514509709e-13
4.9139756000178e-13
5.1148842734168e-13
5.2335388534727e-13
5.2976477818056e-13
5.3385281825837e-13
5.3669157518074e-13
5.3913471294775e-13
5.4110172708379e-13
5.4159151808712e-13
5.413073339762e-13
5.4027052532653e-13
5.3840480052788e-13
5.3579292776241e-13
5.325383645592e-13
5.2875967894283e-13
5.2454242212576e-13
5.2008021454035e-13
5.1561557147447e-13
5.12034784397e-13
5.0917407822168e-13
5.0685916114071e-13
5.0498480525649e-13
5.0348992708705e-13
5.0233324660815e-13
5.0152262934179e-13
5.0102064963423e-13
5.0085374357548e-13
5.0093053678764e-13
5.0117538161031e-13
5.0156716286729e-13
5.0200949072583e-13
5.0235258020585e-13
5.0257602677227e-13
5.0261962638267e-13
5.0249872720604e-13
5.0216486983985e-13
5.0157819804513e-13
5.0066499012116e-13
4.9945051619898e-13
4.9819739872143e-13
4.9689546133319e-13
4.9609768908392e-13
4.9608608468279e-13
4.9634218866654e-13
4.9695617965798e-13
4.9793625320465e-13
4.9926030374757e-13
5.008909696073e-13
5.027867387822e-13
5.0490717303824e-13
5.0722001826158e-13
5.0970875896407e-13
5.1237021511293e-13
5.1522673786704e-13
5.182805994185e-13
5.2152510917577e-13
5.2485230861824e-13
5.2826482438979e-13
5.3178800142225e-13
5.3542147040961e-13
5.3901288881952e-13
5.424482283164e-13
5.4574497121861e-13
5.4864238686141e-13
5.5142690478983e-13
5.5402716179282e-13
5.5650363556289e-13
5.5898879179821e-13
5.615880536241e-13
5.6441011649896e-13
5.6713473325892e-13
5.7041891004668e-13
5.7487334944321e-13
5.8097301564328e-13
5.8981930559388e-13
6.022722650599e-13
6.1887859352227e-13
6.3928877802457e-13
6.5808396259915e-13
6.7163439248353e-13
6.8097030223201e-13
6.8713040225535e-13
6.913862878486e-13
6.9453142172225e-13
6.9690879315866e-13
6.9868139211316e-13
7.0006731154139e-13
7.0115508643995e-13
7.0209265831844e-13
7.0299494822192e-13
7.0393172772802e-13
7.0504720184543e-13
7.0637029146071e-13
7.0796405050195e-13
7.0986242653852e-13
7.1200144379801e-13
7.1433095878012e-13
7.1689901130172e-13
7.1979370303757e-13
7.2312603645034e-13
7.2706524413566e-13
7.3150815236161e-13
7.3637996915829e-13
7.4163004332644e-13
7.471981655457e-13
7.5317164500074e-13
7.5922787831048e-13
7.6454457017191e-13
7.6953870818477e-13
7.7462983222124e-13
7.798193404697e-13
7.8327759206461e-13
7.854513712617e-13
7.8699920698559e-13
7.8776066025059e-13
7.8772047232428e-13
7.8705345922338e-13
7.8532491419279e-13
7.827196729059e-13
7.8189052054329e-13
7.8214434572702e-13
7.8349685415656e-13
6.1568142907968e-13
6.1629978412531e-13
6.1705120254306e-13
6.179838317613e-13
6.1915059303994e-13
6.206004985516e-13
6.2236826714778e-13
6.2447122437286e-13
6.2691116380127e-13
6.296756500393e-13
6.3274384538355e-13
6.3608859143427e-13
6.3968393678692e-13
6.4350648033254e-13
6.4753900288385e-13
6.5177087865111e-13
6.5619608641635e-13
6.608134886229e-13
6.6562317190266e-13
6.7062632833291e-13
6.7582445880094e-13
6.8121827207954e-13
6.8680251020621e-13
6.9256873121037e-13
6.9851353287149e-13
7.0464061067859e-13
7.1094431735305e-13
7.1741228796667e-13
7.2404969287808e-13
7.3073066817548e-13
7.375494766359e-13
7.4443715423736e-13
7.514336936394e-13
7.5860365495743e-13
7.6582542914432e-13
7.7314471964699e-13
7.8060667586809e-13
7.8823916917583e-13
7.959575950214e-13
8.0382094951695e-13
8.1187630919183e-13
8.2017424806688e-13
8.2853884673451e-13
8.3707480376785e-13
8.4583235402853e-13
8.5472698704928e-13
8.6354817799565e-13
8.7266536157017e-13
8.816587571486e-13
8.9056680282889e-13
8.9974577589056e-13
9.0871424471868e-13
9.1772435679891e-13
9.2690678341593e-13
9.3587707403741e-13
9.4509925598218e-13
9.5410778322169e-13
9.6321997786307e-13
9.7259905513278e-13
9.8179180583083e-13
9.9113803442998e-13
1.0007354277844e-12
1.0103565397588e-12
1.0200048776875e-12
1.0299311577641e-12
1.0397369933452e-12
1.0497148966314e-12
1.0599428922039e-12
1.0700664422603e-12
1.0803077061093e-12
1.0908760379991e-12
1.1012542476767e-12
1.1116400623867e-12
1.1222784419384e-12
1.1327633726314e-12
1.1434589248948e-12
1.153933493719e-12
1.1646876964266e-12
1.1752993524119e-12
1.1857801279823e-12
1.1965415066158e-12
1.207017270821e-12
1.2176377054265e-12
1.2282270831718e-12
1.2386522359139e-12
1.2492628716806e-12
1.2597284616106e-12
1.2701809905524e-12
1.2808232244033e-12
1.2911910352451e-12
1.3017289331958e-12
1.3121324753137e-12
1.3227182610983e-12
1.3331195325626e-12
1.3437257473628e-12
1.3541716410306e-12
1.3648684116151e-12
1.3754864032749e-12
1.3860699487587e-12
1.3968893701361e-12
1.4076008622611e-12
1.4185062278215e-12
1.4293931257329e-12
1.4399657927667e-12
1.452294004228e-12
1.467586607629e-12
1.4612364552382e-12
1.3731868538246e-12
1.0000924783413e-12
6.2206664121145e-13
4.881384476335e-13
4.7750360786827e-13
4.7615864724612e-13
4.735837209339e-13
4.6998171885974e-13
4.6919763447674e-13
4.7022148242918e-13
4.7685885663618e-13
4.914533588759e-13
5.1127700521163e-13
5.2376578655853e-13
5.3066379138303e-13
5.3509459564536e-13
5.3833171963058e-13
5.4104360762082e-13
5.4264583074492e-13
5.4284272537895e-13
5.4237426510458e-13
5.4103603834691e-13
5.3882660509503e-13
5.3588336705965e-13
5.3236173743272e-13
5.2834313278646e-13
5.2388436646473e-13
5.1916876853681e-13
5.1423651601659e-13
5.0970081978058e-13
5.059206437608e-13
5.0279127518031e-13
5.0015521772138e-13
4.9799495987115e-13
4.9620374998329e-13
4.9477164267806e-13
4.9375933343056e-13
4.9310293822284e-13
4.9295271087562e-13
4.9305852665585e-13
4.9333305845807e-13
4.9366545088753e-13
4.9381454394816e-13
4.9374977405859e-13
4.9331595967584e-13
4.9242893982803e-13
4.9113998879951e-13
4.8948044478252e-13
4.8767898541207e-13
4.8614224059329e-13
4.8574436888252e-13
4.8590605492102e-13
4.8641394820022e-13
4.8731025914526e-13
4.8855443280774e-13
4.9009459086226e-13
4.9186960038271e-13
4.9383307982526e-13
4.9594304040123e-13
4.9817172919717e-13
5.0050134219825e-13
5.0291884376965e-13
5.0543765972458e-13
5.0807307338272e-13
5.1084281345037e-13
5.137407505291e-13
5.1678614852495e-13
5.1997033946712e-13
5.2327823240602e-13
5.2667594770207e-13
5.3018854619689e-13
5.3381994349318e-13
5.3760320587239e-13
5.415497351113e-13
5.4533500166248e-13
5.4896797762178e-13
5.5223601643604e-13
5.5521856604619e-13
5.5812149442418e-13
5.6109439471808e-13
5.6437898906789e-13
5.6746322386566e-13
5.7078964980457e-13
5.7547524020533e-13
5.8255173332405e-13
5.9324005046253e-13
6.0867183871775e-13
6.2932213876176e-13
6.5192990583498e-13
6.6805400050492e-13
6.7745828119821e-13
6.8256928810619e-13
6.8462432124125e-13
6.8518132934639e-13
6.8474657234552e-13
6.834465054744e-13
6.8147752514548e-13
6.7934768366102e-13
6.7779355485006e-13
6.7703672021511e-13
6.7687582466497e-13
6.7706612767295e-13
6.7763940882934e-13
6.7863887051335e-13
6.7995920039048e-13
6.8149611747005e-13
6.8313608208757e-13
6.8475757396447e-13
6.8637786899369e-13
6.8809581284936e-13
6.9005831398799e-13
6.9231815212411e-13
6.95067040871e-13
6.9839355506188e-13
7.0235537958498e-13
7.070529446471e-13
7.1259120757372e-13
7.1905584235354e-13
7.2644021018192e-13
7.3460209331878e-13
7.4337877232751e-13
7.5293153738176e-13
7.6275366805352e-13
7.7137768761591e-13
7.7835796993802e-13
7.839934086992e-13
7.887049535378e-13
7.9283567569938e-13
7.9632015189565e-13
7.9927234690622e-13
8.0216863108349e-13
8.046662307636e-13
8.079734510484e-13
6.1567647646319e-13
6.162878026325e-13
6.1705037499202e-13
6.180162911906e-13
6.1923572174705e-13
6.2075022119309e-13
6.2258587711752e-13
6.2475286045965e-13
6.2724830763162e-13
6.3005832193576e-13
6.3316335079498e-13
6.3653943908229e-13
6.4016505819849e-13
6.4402150585815e-13
6.4809481954287e-13
6.5237633403834e-13
6.5685908950511e-13
6.6154011059272e-13
6.6641631648564e-13
6.7148581711732e-13
6.7674704962205e-13
6.8219642610377e-13