/*--------------------------------*- C++ -*----------------------------------*\
| =========                 |                                                 |
| \\      /  F ield         | OpenFOAM: The Open Source CFD Toolbox           |
|  \\    /   O peration     | Version:  2312                                  |
|   \\  /    A nd           | Website:  www.openfoam.com                      |
|    \\/     M anipulation  |                                                 |
\*---------------------------------------------------------------------------*/
FoamFile
{
    version     2.0;
    format      ascii;
    arch        "LSB;label=32;scalar=64";
    class       volScalarField;
    location    "0.0006";
    object      thermo:psiGasEff;
}
// * * * * * * * * * * * * * * * * * * * * * * * * * * * * * * * * * * * * * //

dimensions      [-2 4 2 0 0 0 0];

internalField   nonuniform List<scalar> 
28800
(
9.6242175096825e-07
9.6826108849436e-07
9.7521716770898e-07
9.83462830525e-07
9.9337756148417e-07
1.0055379329306e-06
1.0206595605399e-06
1.0394697702845e-06
1.0625038405408e-06
1.0899812879244e-06
1.1218114659526e-06
1.1577105751177e-06
1.1973469474216e-06
1.2404679702169e-06
1.2869826848045e-06
1.3369639091669e-06
1.3906452249768e-06
1.4483843151263e-06
1.510596239899e-06
1.5777883907096e-06
1.6504166801578e-06
1.7290226215567e-06
1.8140639068006e-06
1.9060959483838e-06
2.0058141859876e-06
2.1129596226253e-06
2.2278243881336e-06
2.3510256286442e-06
2.4839293394703e-06
2.624992211959e-06
2.7745672953568e-06
2.9338468414794e-06
3.1021602178789e-06
3.2801748124294e-06
3.470251786738e-06
3.6723783293257e-06
3.8868920488824e-06
4.1176979400911e-06
4.3636153195018e-06
4.6276649779761e-06
4.9119361442774e-06
5.2149788712011e-06
5.5407377611363e-06
5.8933222689875e-06
6.268523205329e-06
6.6739398607923e-06
7.1155356185449e-06
7.5736743541787e-06
8.0727593877413e-06
8.5933660065005e-06
9.1339611909228e-06
9.7178974352639e-06
1.0308007550032e-05
1.0943587032578e-05
1.1586785547114e-05
1.2267488228735e-05
1.2998451863328e-05
1.3752141884897e-05
1.4563149529913e-05
1.5408344117302e-05
1.6307527469495e-05
1.7269058722546e-05
1.8297345807503e-05
1.9373526836928e-05
2.0511155613585e-05
2.1742767395824e-05
2.3039009253375e-05
2.4412645965407e-05
2.5898906532366e-05
2.7447143236551e-05
2.9044264483776e-05
3.0792330906986e-05
3.261987709368e-05
3.4545077871888e-05
3.6614430707882e-05
3.8704955274507e-05
4.0957379890443e-05
4.3258165985343e-05
4.5693767815376e-05
4.8279754531357e-05
5.0916923084051e-05
5.3730951948373e-05
5.6577552164932e-05
5.9575449364888e-05
6.2782108484811e-05
6.6125431096301e-05
6.9473527446156e-05
7.3061607378019e-05
7.686436231838e-05
8.0717919501315e-05
8.4714142962888e-05
8.8964754156706e-05
9.3419152066815e-05
9.7902748373152e-05
0.00010275644310227
0.00010767429519071
0.00011291352668275
0.00011831599670382
0.00012391114765683
0.00012989146006702
0.00013590642060158
0.00014241077736894
0.00014894451217866
0.00015595782217195
0.00016334134432168
0.00017169497232104
0.00017779197538513
0.00016939667130338
9.4139255369142e-05
1.594473647658e-05
4.5506314992357e-06
3.8295992463284e-06
3.8591436635416e-06
3.9074515298335e-06
3.9495133740847e-06
3.9496836205604e-06
3.8956344056116e-06
3.7960582697489e-06
3.6357460693734e-06
3.5118322728085e-06
3.4303690023805e-06
3.3598499094598e-06
3.284827710915e-06
3.2008784723122e-06
3.1196316485357e-06
3.0508521309836e-06
2.997479644208e-06
2.9313036318951e-06
2.8613194895293e-06
2.7899495978365e-06
2.7168856716056e-06
2.6447430457169e-06
2.5771937997963e-06
2.5167634830139e-06
2.4644553428022e-06
2.420840581598e-06
2.3833046602783e-06
2.349010749008e-06
2.3171236560114e-06
2.2884050556121e-06
2.262537484067e-06
2.2393179466587e-06
2.2217893578404e-06
2.2109569465512e-06
2.2079168796284e-06
2.2130263247063e-06
2.2278138624166e-06
2.251185713547e-06
2.281379629841e-06
2.3184258420737e-06
2.362703978369e-06
2.4131809883791e-06
2.4698714608249e-06
2.5331504525375e-06
2.6026456293383e-06
2.6766822745051e-06
2.7540199668882e-06
2.8342853618499e-06
2.9174428152523e-06
3.0036013392975e-06
3.092633642903e-06
3.1842314722931e-06
3.2783894280881e-06
3.3752034729023e-06
3.4748034014667e-06
3.5777820555416e-06
3.6849432423047e-06
3.7968709450441e-06
3.9138084097868e-06
4.0367289581397e-06
4.16638146269e-06
4.2990495274002e-06
4.4362472136148e-06
4.5822560140905e-06
4.7405775060043e-06
4.9096090798929e-06
5.0918182525738e-06
5.273987811527e-06
5.4684613654646e-06
5.6673763072949e-06
5.8662154144209e-06
6.066498780469e-06
6.265709535175e-06
6.4600058545931e-06
6.6517603278686e-06
6.8293699047493e-06
6.99306787443e-06
7.1398090631892e-06
7.2568836672349e-06
7.3630836857459e-06
7.4351461407373e-06
7.4752011242428e-06
7.5120632528141e-06
7.5440530448814e-06
7.5671958423967e-06
7.5928149168832e-06
7.6256469699766e-06
7.6807987869097e-06
7.7722239966661e-06
7.9082758762764e-06
8.0903285433522e-06
8.340644934094e-06
8.6224261622301e-06
8.9210010074563e-06
9.2225668079305e-06
9.526535374831e-06
9.8237629903907e-06
1.0118584159191e-05
1.04096100733e-05
1.0697693180928e-05
1.0979005514339e-05
1.1253219962539e-05
1.1520159882406e-05
1.1769693929762e-05
1.199452205121e-05
1.2199771678043e-05
1.2393847035022e-05
1.2580527316922e-05
1.2760706244471e-05
1.2929663140166e-05
1.3085266467342e-05
1.3230833670138e-05
1.3366223412053e-05
1.3492640599829e-05
1.3612162098024e-05
1.3726513060733e-05
1.384113461323e-05
1.3958630232207e-05
1.4082957812648e-05
1.4214597592909e-05
1.4359839927995e-05
1.4521717173635e-05
1.4688573451278e-05
1.4856028037698e-05
1.5019285445877e-05
1.5170648431005e-05
1.5305422048632e-05
1.5423679971878e-05
1.5524995538556e-05
1.5598079984563e-05
9.6242272475418e-07
9.6826473019076e-07
9.7521448568827e-07
9.8346646915744e-07
9.9342294277106e-07
1.0056714081009e-06
1.0209267141381e-06
1.0398915120974e-06
1.0630622540496e-06
1.0906328657355e-06
1.1225150390699e-06
1.1584471506257e-06
1.1981223056186e-06
1.2413066600799e-06
1.2879162396193e-06
1.3380273749061e-06
1.3918691885869e-06
1.4497892111804e-06
1.5122069907446e-06
1.5796075954526e-06
1.6524614705862e-06
1.7312846730358e-06
1.8165493675735e-06
1.9088251546127e-06
2.0086621361754e-06
2.1159384485327e-06
2.230903346779e-06
2.3543082576748e-06
2.4874145239569e-06
2.6284923028384e-06
2.7781910468782e-06
2.9376430753036e-06
3.1060425773854e-06
3.2844756564825e-06
3.4749081846243e-06
3.6770587940317e-06
3.8919855941085e-06
4.123131959525e-06
4.3691579686466e-06
4.6332219089712e-06
4.9176869286582e-06
5.2207633766693e-06
5.546791289076e-06
5.899765546366e-06
6.2748795013171e-06
6.6807756751224e-06
7.1205199309671e-06
7.5786026556145e-06
8.0776248328222e-06
8.5951273491753e-06
9.1360786666154e-06
9.7175029494671e-06
1.0306776253092e-05
1.0941440915085e-05
1.1584459241856e-05
1.2269078425349e-05
1.2998139185662e-05
1.3750338194362e-05
1.4560143618621e-05
1.5406479133349e-05
1.6304835532649e-05
1.7265849998132e-05
1.8291889433961e-05
1.9365251445505e-05
2.0500280159098e-05
2.173638942836e-05
2.3025980407104e-05
2.4396455378641e-05
2.58788585967e-05
2.7418433565636e-05
2.9017285276239e-05
3.0767860641629e-05
3.2580560776707e-05
3.4507523416452e-05
3.6559634588469e-05
3.8647013262086e-05
4.0897066501166e-05
4.3188382686052e-05
4.5632087368846e-05
4.8197725595076e-05
5.0828275945126e-05
5.3639652033007e-05
5.647613476123e-05
5.9473199760183e-05
6.2668280966936e-05
6.5995465103832e-05
6.9333667585559e-05
7.2918948803673e-05
7.6707614022943e-05
8.0540207452891e-05
8.4548778083654e-05
8.8764664042062e-05
9.3212004123998e-05
9.7681826677864e-05
0.00010251726820007
0.00010741284733546
0.00011263314821253
0.00011802579961765
0.00012358556442354
0.00012954715219041
0.00013554679696017
0.00014201670285122
0.00014854739279912
0.00015553574698846
0.00016289235880327
0.00017116948032584
0.00017690674847913
0.00016842648012018
9.3602847356465e-05
1.5904446124164e-05
4.5163374079688e-06
3.814144276027e-06
3.8448031998729e-06
3.8833302344576e-06
3.9210218219593e-06
3.9272973847639e-06
3.8846531755656e-06
3.8143453379009e-06
3.6790588952034e-06
3.534535540771e-06
3.4348876918735e-06
3.3578497183679e-06
3.285110794098e-06
3.2051297628552e-06
3.1258014638494e-06
3.0577295097815e-06
2.9998826635859e-06
2.9344258152151e-06
2.8628384172773e-06
2.7900052065789e-06
2.7161403462068e-06
2.6431676418476e-06
2.5745874505194e-06
2.5129469228065e-06
2.459339765723e-06
2.4145632822195e-06
2.3779219090192e-06
2.3448022589608e-06
2.313725163841e-06
2.2854209038483e-06
2.2598865405295e-06
2.2375498498405e-06
2.2203870924874e-06
2.2097130920338e-06
2.2066914023296e-06
2.2115316971628e-06
2.2259889454865e-06
2.2487429952633e-06
2.2780142994407e-06
2.3139718017937e-06
2.3571784105782e-06
2.4066233279358e-06
2.4624553289643e-06
2.5249391926209e-06
2.5939376695435e-06
2.6675618106209e-06
2.74529945005e-06
2.8263319180841e-06
2.9105136312283e-06
2.9976871533084e-06
3.0876275123366e-06
3.179850413001e-06
3.2744472782141e-06
3.3715929699083e-06
3.4714270734414e-06
3.5745225082273e-06
3.6815873786056e-06
3.7932431968937e-06
3.9097078129868e-06
4.0315939738817e-06
4.1600074694784e-06
4.2917515271219e-06
4.4295322716001e-06
4.5741181345439e-06
4.7305213896711e-06
4.8964630345419e-06
5.0730501239437e-06
5.25079921908e-06
5.4428331119824e-06
5.6356824612628e-06
5.8340138343028e-06
6.0385116183225e-06
6.2444352138464e-06
6.4526194258603e-06
6.6599768876658e-06
6.8602096600147e-06
7.0568148531917e-06
7.2430434134436e-06
7.3945898663377e-06
7.5178787894049e-06
7.5970752982138e-06
7.5848264097855e-06
7.5887963963534e-06
7.5894588305841e-06
7.583044976939e-06
7.5795614440254e-06
7.5853192680623e-06
7.612301998904e-06
7.670596169813e-06
7.7725127700007e-06
7.919282466293e-06
8.1329153013184e-06
8.3766488701986e-06
8.6460821133815e-06
8.9152352519207e-06
9.188686984967e-06
9.454603354922e-06
9.7186441550692e-06
9.9874213236408e-06
1.025186978086e-05
1.0510134933715e-05
1.0763540028225e-05
1.1010858112102e-05
1.1243294070821e-05
1.1454552052039e-05
1.1649931165014e-05
1.1838083420994e-05
1.2022056361506e-05
1.2202302659341e-05
1.237818275312e-05
1.2551461017933e-05
1.27240944149e-05
1.2894045406914e-05
1.3060414028384e-05
1.3229587622378e-05
1.339756872592e-05
1.3566704563134e-05
1.3734459563887e-05
1.3902100984572e-05
1.4070571885701e-05
1.4245236126455e-05
1.4427694266128e-05
1.4614744547056e-05
1.4799628056252e-05
1.4975442018329e-05
1.5136933971922e-05
1.527847073818e-05
1.5400352389187e-05
1.5507011899594e-05
1.5578210767764e-05
9.6242472060136e-07
9.6827064614156e-07
9.7520731181353e-07
9.8347542285278e-07
9.9353069653474e-07
1.0059805919507e-06
1.0215303150748e-06
1.0408215036326e-06
1.0642735104381e-06
1.0920364958388e-06
1.124030663857e-06
1.1600320713848e-06
1.1997867369213e-06
1.243101155376e-06
1.289908398891e-06
1.340287198148e-06
1.3944609042932e-06
1.4527620309915e-06
1.5156107368708e-06
1.5834607169093e-06
1.6567996964292e-06
1.7361022645494e-06
1.8218739257646e-06
1.9146979478985e-06
2.0148636044234e-06
2.1225185890249e-06
2.2379030627014e-06
2.3619025432947e-06
2.495635329999e-06
2.6370850071231e-06
2.787409712543e-06
2.9475126740965e-06
3.1165888606665e-06
3.2962772429095e-06
3.4878984163348e-06
3.6907975438851e-06
3.9071535656156e-06
4.139747728612e-06
4.3869889543101e-06
4.6522097282959e-06
4.9380925022027e-06
5.2428151078268e-06
5.5711068348257e-06
5.9258546910947e-06
6.303357426691e-06
6.7115802979981e-06
7.1503621689355e-06
7.6111501306455e-06
8.1127378931264e-06
8.625123155953e-06
9.1734795392395e-06
9.7513067055176e-06
1.0343404413765e-05
1.0979954146576e-05
1.1627521647349e-05
1.2321248956162e-05
1.3049570622292e-05
1.380484364595e-05
1.4618774036388e-05
1.5472357996944e-05
1.6373255410659e-05
1.7340501873754e-05
1.8368816569599e-05
1.9442172507395e-05
2.0589603323914e-05
2.1832507489468e-05
2.3119968605185e-05
2.4494466985121e-05
2.5979672383499e-05
2.7516812835798e-05
2.9131863549487e-05
3.0893470004179e-05
3.2695965725768e-05
3.4635898206382e-05
3.6674591713537e-05
3.8777580189705e-05
4.1031053730525e-05
4.3332084054879e-05
4.5798243673939e-05
4.8342060445302e-05
5.0988591551891e-05
5.3813812015855e-05
5.6654333620161e-05
5.967139653803e-05
6.2857983811882e-05
6.618611174465e-05
6.9539462137117e-05
7.3135396098828e-05
7.6928090984096e-05
8.0753411621886e-05
8.4808302073456e-05
8.899216004645e-05
9.3450626033642e-05
9.7933097367704e-05
0.00010277571568483
0.00010766941389463
0.00011290791797074
0.00011831019011213
0.00012386259262791
0.00012985159326999
0.00013586555788313
0.00014235580876704
0.00014890560843412
0.00015591433624782
0.00016332192651423
0.00017165833041468
0.00017729182787283
0.00016854615470539
9.2824628599172e-05
1.569669378941e-05
4.5171927903318e-06
3.8297429867402e-06
3.8622618310047e-06
3.8994002513102e-06
3.9406800577424e-06
3.9346481336388e-06
3.8794722665038e-06
3.8050707703328e-06
3.6615170888769e-06
3.5214589260141e-06
3.4294956612329e-06
3.3589364726482e-06
3.2936082915827e-06
3.2175981784025e-06
3.1372834756628e-06
3.066684741644e-06
3.0076460685554e-06
2.9420837180335e-06
2.8706068645086e-06
2.797587900289e-06
2.7235626821704e-06
2.6505123807209e-06
2.5820712568405e-06
2.5210259626683e-06
2.4680977132555e-06
2.4237015530073e-06
2.3845961574052e-06
2.3485529307717e-06
2.3155235011533e-06
2.2860565621818e-06
2.2600964075258e-06
2.2379270372537e-06
2.2211327898825e-06
2.211143345866e-06
2.2084272925844e-06
2.2133733060441e-06
2.2281094752798e-06
2.2509783667063e-06
2.2802383947935e-06
2.3163905293807e-06
2.3600008786263e-06
2.4100334172021e-06
2.4667471222695e-06
2.5302888688707e-06
2.6002816884112e-06
2.6753036997434e-06
2.754089862707e-06
2.8360155887467e-06
2.9210031121567e-06
3.008868368479e-06
3.099455768929e-06
3.1923447147396e-06
3.2876750873548e-06
3.3855389634904e-06
3.486118664962e-06
3.5899080624646e-06
3.6974306775721e-06
3.809226909768e-06
3.9255317129597e-06
4.0467764213632e-06
4.1739968694313e-06
4.3052896414588e-06
4.4445490565606e-06
4.5894118724996e-06
4.7472246673945e-06
4.911616852671e-06
5.086101333972e-06
5.2640118948938e-06
5.4545584765328e-06
5.6456304185371e-06
5.8444166303719e-06
6.0472195684296e-06
6.2545414189035e-06
6.464507829696e-06
6.6751136548068e-06
6.8807703233791e-06
7.0761773835307e-06
7.2688381687719e-06
7.4387154529511e-06
7.571878380758e-06
7.6711959529733e-06
7.6635612272314e-06
7.6561689942366e-06
7.6255165407327e-06
7.5672947705391e-06
7.5115267167865e-06
7.4679397059995e-06
7.4456325016523e-06
7.4544709803966e-06
7.5044305526168e-06
7.6108421252672e-06
7.7833757962708e-06
8.0147501653062e-06
8.270218014135e-06
8.5392129718113e-06
8.8138930683585e-06
9.0854667444031e-06
9.3582587264971e-06
9.6303394922188e-06
9.8933469433349e-06
1.014879329282e-05
1.0392035516808e-05
1.0622615682282e-05
1.0834877551138e-05
1.1019156344379e-05
1.1179709852499e-05
1.1329070941581e-05
1.1472066326161e-05
1.1609849499273e-05
1.1743941960951e-05
1.187199820451e-05
1.1997648631889e-05
1.2124474430593e-05
1.2260688233781e-05
1.2408253548269e-05
1.2567418327423e-05
1.2738438618045e-05
1.2923540532526e-05
1.3127608776884e-05
1.3349608306101e-05
1.3594261732481e-05
1.385529885666e-05
1.4114536423163e-05
1.4358354216249e-05
1.4577765634088e-05
1.4780782463303e-05
1.4941671188381e-05
1.5070978017119e-05
1.5178199090692e-05
1.5232751749286e-05
9.624284157915e-07
9.6826845205774e-07
9.7517544758136e-07
9.8348900547208e-07
9.9371976051747e-07
1.0064944502227e-06
1.0224890720296e-06
1.0422457898487e-06
1.0660939424402e-06
1.0941360012525e-06
1.1263106527107e-06
1.1624418385311e-06
1.2023397238931e-06
1.2458625972047e-06
1.292970177488e-06
1.3437530273895e-06
1.3984261500966e-06
1.4573099753886e-06
1.5208105515184e-06
1.5893513738541e-06
1.6634235532022e-06
1.7434572509727e-06
1.829995241338e-06
1.9235855834519e-06
2.024267425052e-06
2.1325068790705e-06
2.2486057453062e-06
2.3734676351204e-06
2.5080786441839e-06
2.6500942462433e-06
2.8013215128303e-06
2.9623201484895e-06
3.132288504904e-06
3.3138538286211e-06
3.5069767649291e-06
3.7111208383201e-06
3.9294602402153e-06
4.163972635827e-06
4.4131905115781e-06
4.6801115139603e-06
4.9677064183477e-06
5.2756093561181e-06
5.6065769365889e-06
5.9634377147462e-06
6.3443824684306e-06
6.756690167654e-06
7.1914636274957e-06
7.6597836471058e-06
8.1599287341075e-06
8.6712074505308e-06
9.2230117055248e-06
9.799871960878e-06
1.0394900752e-05
1.1034644036275e-05
1.1687843725055e-05
1.2389490788719e-05
1.3121206864886e-05
1.3881530111125e-05
1.4702478189839e-05
1.5560492256499e-05
1.646873603374e-05
1.7446014775117e-05
1.8471609667762e-05
1.9555515104615e-05
2.071371131885e-05
2.1960739785695e-05
2.3252602404375e-05
2.4633616066668e-05
2.611877313769e-05
2.7657440451126e-05
2.9291308817899e-05
3.105745878062e-05
3.2860553755062e-05
3.4806999561553e-05
3.6819613271148e-05
3.8966138371506e-05
4.1200902953434e-05
4.3521325361529e-05
4.6006622822259e-05
4.852539389521e-05
5.1205197949564e-05
5.402754327824e-05
5.6886861107978e-05
5.9919320144515e-05
6.3104844847401e-05
6.6421175823192e-05
6.9801433596644e-05
7.3406288183503e-05
7.7199628772655e-05
8.1025058114322e-05
8.511216939459e-05
8.9276710830096e-05
9.374643277431e-05
9.8234291701418e-05
0.00010308462830886
0.00010797099098695
0.00011322960973765
0.00011862753933123
0.00012419360155246
0.00013019070935888
0.00013622146766613
0.00014273938557875
0.00014930265118072
0.00015634628875299
0.0001637778839092
0.00017220569825477
0.00017764903220054
0.00016856222028336
9.193402737981e-05
1.5477856874142e-05
4.50371890978e-06
3.8336915299896e-06
3.8693001312375e-06
3.9017994069063e-06
3.944248669194e-06
3.9327870585657e-06
3.8742039889572e-06
3.8055798256596e-06
3.6667483328994e-06
3.522874347592e-06
3.4268464786885e-06
3.3587835327341e-06
3.3015619475485e-06
3.2326758207402e-06
3.1525991985843e-06
3.0795271522427e-06
3.01811320713e-06
2.9524840010633e-06
2.8806167160434e-06
2.8069856167314e-06
2.7325948772518e-06
2.6593748009837e-06
2.5909086594984e-06
2.5296557152092e-06
2.4765943802374e-06
2.430997376393e-06
2.3894460340067e-06
2.3513255742769e-06
2.3169604092364e-06
2.2868081614707e-06
2.2607893374266e-06
2.2393219610554e-06
2.2228973922826e-06
2.2137532552198e-06
2.2111278275677e-06
2.2159625499114e-06
2.2308029761611e-06
2.2533408297394e-06
2.2822034052602e-06
2.3183076464589e-06
2.3622096407978e-06
2.4126074197951e-06
2.4702491057498e-06
2.5350086240293e-06
2.6062106748079e-06
2.683009094541e-06
2.7641466786745e-06
2.8491319529163e-06
2.9371656632849e-06
3.0284526288172e-06
3.1227333205612e-06
3.2193644034887e-06
3.3185151425313e-06
3.419934271467e-06
3.5237273442736e-06
3.6301140573113e-06
3.7393340690769e-06
3.85169288846e-06
3.9679099503969e-06
4.087854437258e-06
4.2128406732379e-06
4.3425869635036e-06
4.4802337765228e-06
4.6241909912316e-06
4.77927971383e-06
4.9403130600544e-06
5.1107227920195e-06
5.2862061616484e-06
5.4723320750348e-06
5.6597330998065e-06
5.860339227705e-06
6.0602489127915e-06
6.2680299945645e-06
6.4790461484497e-06
6.6909235817918e-06
6.8968688576745e-06
7.090864159063e-06
7.2756530672175e-06
7.4508161961212e-06
7.5907874408392e-06
7.6905822080753e-06
7.6747812335239e-06
7.6538538021009e-06
7.5943483823839e-06
7.4923133847659e-06
7.3703214573844e-06
7.2539505451466e-06
7.1758666134021e-06
7.1806408265318e-06
7.2696886257715e-06
7.4427066315929e-06
7.6902315677312e-06
7.9774269971309e-06
8.278013931997e-06
8.5839288958726e-06
8.8892863971019e-06
9.1879082940482e-06
9.4824486754165e-06
9.7719396224849e-06
1.0049835588063e-05
1.0313248680169e-05
1.0560558578802e-05
1.0788829951102e-05
1.0992627046029e-05
1.1167563768262e-05
1.1311586669768e-05
1.1428132703623e-05
1.1529987640455e-05
1.1619527892968e-05
1.1694109428876e-05
1.1753737983023e-05
1.1806165164599e-05
1.18441398586e-05
1.1885284568884e-05
1.1939658209664e-05
1.2008136661079e-05
1.2084198782926e-05
1.2167210958159e-05
1.2273299925583e-05
1.2412736576644e-05
1.2601432368109e-05
1.2838491963143e-05
1.3114230786788e-05
1.3417874769609e-05
1.3713284611298e-05
1.3977845255806e-05
1.4174282415496e-05
1.4312531112612e-05
1.4425405594273e-05
1.4472631482264e-05
9.6243618825933e-07
9.6824485935843e-07
9.7510982267257e-07
9.8352062675053e-07
9.9402535387798e-07
1.0072612395115e-06
1.0238348252418e-06
1.044164275803e-06
1.0684991409029e-06
1.0969039598596e-06
1.1293438783468e-06
1.1656901288429e-06
1.205819974525e-06
1.2496458080404e-06
1.2971626863723e-06
1.3484881002614e-06
1.4038255468714e-06
1.4634959591109e-06
1.5278649761964e-06
1.5973447818933e-06
1.6723866356135e-06
1.7534198100323e-06
1.8409955800278e-06
1.9354540509261e-06
2.0369497596332e-06
2.1460804148544e-06
2.2632739018306e-06
2.389273043378e-06
2.5249867320065e-06
2.6678418241397e-06
2.8203579835692e-06
2.9823628332676e-06
3.1538257459371e-06
3.3376289393458e-06
3.532543207597e-06
3.7387897747113e-06
3.9596785122561e-06
4.1965694304819e-06
4.4484731801256e-06
4.7179290254195e-06
5.0079684890042e-06
5.3205255568268e-06
5.6543119232592e-06
6.0139745194016e-06
6.3993540513184e-06
6.8150165331413e-06
7.2505302153293e-06
7.7231543593303e-06
8.2198528448277e-06
8.7331522207563e-06
9.2876319619167e-06
9.8648979063419e-06
1.0463853420679e-05
1.110783682231e-05
1.1766836085126e-05
1.2476227692513e-05
1.321272238147e-05
1.398106863614e-05
1.4812049495077e-05
1.5674312484255e-05
1.6590506208215e-05
1.7577528126053e-05
1.8608004761346e-05
1.9702480090577e-05
2.0880170385071e-05
2.2117769973595e-05
2.3417951921455e-05
2.4817930067819e-05
2.6294869278999e-05
2.7837614496671e-05
2.9499388331726e-05
3.1256850617388e-05
3.3061983899413e-05
3.5022408451973e-05
3.7030447224318e-05
3.9193058497946e-05
4.1402486616157e-05
4.3775526813806e-05
4.6251039578102e-05
4.8771947025865e-05
5.1474199898676e-05
5.4290775633482e-05
5.7169690937746e-05
6.0246413277154e-05
6.3394370398932e-05
6.6730757069115e-05
7.0129899485618e-05
7.3741242861915e-05
7.7525096657476e-05
8.1369888944906e-05
8.5473827292879e-05
8.9625728069233e-05
9.4105800788432e-05
9.8605037714177e-05
0.00010346667961707
0.00010836021382026
0.00011362292436884
0.00011903003043955
0.00012461616749579
0.00013061444360797
0.00013668007352564
0.00014322137749532
0.00014981877428592
0.00015688881326153
0.0001643292117102
0.00017291584019853
0.00017802393391907
0.00016841001988337
9.0051834686604e-05
1.5069184477191e-05
4.4779705745947e-06
3.8389565817889e-06
3.8821172534778e-06
3.9282330038005e-06
3.9704029588584e-06
3.942727566311e-06
3.8736885373473e-06
3.803261733158e-06
3.6587100482266e-06
3.515909903455e-06
3.4231751927669e-06
3.3610663440743e-06
3.3109196371087e-06
3.2476473860372e-06
3.1692712750039e-06
3.095901061342e-06
3.0327252852943e-06
2.9652218091913e-06
2.8933529410544e-06
2.8194033239199e-06
2.743918916481e-06
2.6695556398e-06
2.6000048996956e-06
2.5371453091749e-06
2.483757538549e-06
2.4373478222676e-06
2.3949809755417e-06
2.3566591656425e-06
2.3223289876139e-06
2.2925338171298e-06
2.2670882882406e-06
2.2470211849196e-06
2.2315475378091e-06
2.2231859169897e-06
2.2204239247682e-06
2.2248630768275e-06
2.239434908235e-06
2.2613358645268e-06
2.2899825417546e-06
2.3265053565687e-06
2.3713529679312e-06
2.422981600225e-06
2.482819479838e-06
2.5503700168687e-06
2.6258592690356e-06
2.7083768596553e-06
2.7970936563603e-06
2.8908317113343e-06
2.9896662470791e-06
3.0895911380441e-06
3.1895388639545e-06
3.2903833884529e-06
3.3929145853005e-06
3.4963981827204e-06
3.6013522646583e-06
3.7081379895667e-06
3.8172708291441e-06
3.9290445705849e-06
4.0444515943834e-06
4.1633512280173e-06
4.2874898583954e-06
4.4174307041081e-06
4.5553363162745e-06
4.6995934032637e-06
4.8520249654964e-06
5.0092189287236e-06
5.1733561581729e-06
5.3432303670533e-06
5.5184822413069e-06
5.7000799227504e-06
5.8941333275069e-06
6.0869878852913e-06
6.2938656998639e-06
6.5032877028478e-06
6.7138761403593e-06
6.9179297424522e-06
7.1074687611549e-06
7.2865387658752e-06
7.4545898297523e-06
7.5993176745643e-06
7.6877405019609e-06
7.6655679689569e-06
7.6295910057373e-06
7.5253919859694e-06
7.3714538473791e-06
7.2049944105051e-06
7.0828958358391e-06
7.056663065831e-06
7.1315608496803e-06
7.2947319732501e-06
7.5344906805592e-06
7.8248274665424e-06
8.1476818565322e-06
8.4866630357023e-06
8.8349021774741e-06
9.1847368456374e-06
9.5305883976651e-06
9.8691250497189e-06
1.0196568033698e-05
1.0514854618124e-05
1.0812989626647e-05
1.1088940989878e-05
1.1338915257519e-05
1.1555920359832e-05
1.1737617289195e-05
1.1882033443867e-05
1.1988292161197e-05
1.2071023071186e-05
1.2131760754497e-05
1.2165092416499e-05
1.2180574691769e-05
1.2178826351822e-05
1.2164115292421e-05
1.2139524153062e-05
1.2111083984013e-05
1.209255761654e-05
1.2077070453393e-05
1.2063788186629e-05
1.206689732442e-05
1.2094923652918e-05
1.2163214715964e-05
1.2268748042926e-05
1.2404506456974e-05
1.2564779428538e-05
1.2736404412882e-05
1.2929648365489e-05
1.3120728120229e-05
1.3276337631926e-05
1.3388310762677e-05
1.3455755510796e-05
9.6243912701598e-07
9.6814826691092e-07
9.7500904175089e-07
9.8360617107191e-07
9.9450182481567e-07
1.0083328605401e-06
1.0255881904509e-06
1.0465702592459e-06
1.0714695387667e-06
1.1003270289492e-06
1.1331364286472e-06
1.1698038874217e-06
1.2102721770444e-06
1.2545070125322e-06
1.3025544990706e-06
1.3545628645143e-06
1.4107383748826e-06
1.4713914883819e-06
1.5368524762253e-06
1.607506827025e-06
1.6837615352731e-06
1.7660534555927e-06
1.8548805406544e-06
1.9503736199078e-06
2.05301624426e-06
2.1634553673288e-06
2.2821679505838e-06
2.4095929909735e-06
2.5463706115747e-06
2.6906515534524e-06
2.8447248078377e-06
3.0078540798562e-06
3.1816334562501e-06
3.3678771404487e-06
3.5647956789082e-06
3.7742436420638e-06
3.9981167396989e-06
4.2378796225343e-06
4.4932847801837e-06
4.7665334304587e-06
5.0602281133347e-06
5.377806644661e-06
5.7159802772939e-06
6.0786078957118e-06
6.4699063699596e-06
6.8877688727924e-06
7.3263469785501e-06
7.8016792900431e-06
8.2973061546323e-06
8.8137982272198e-06
9.3722050200945e-06
9.9477196177527e-06
1.0553249344831e-05
1.1203668670416e-05
1.1869529937193e-05
1.2587523525152e-05
1.3327248030845e-05
1.4108122104491e-05
1.495086613331e-05
1.5821945325018e-05
1.6745502424882e-05
1.7740059770462e-05
1.8791346695294e-05
1.9889873582441e-05
2.107677356624e-05
2.2318443009535e-05
2.3629605770258e-05
2.5045149744097e-05
2.6514470335539e-05
2.8078033192735e-05
2.975554897072e-05
3.1502724042522e-05
3.3320823008574e-05
3.5288166354924e-05
3.7307534884742e-05
3.9472888569378e-05
4.1684975294881e-05
4.4076293791254e-05
4.6543550133614e-05
4.9087623111602e-05
5.1817446457687e-05
5.4608931414059e-05
5.7543991163088e-05
6.0622840990743e-05
6.3763792374447e-05
6.7121452575853e-05
7.0560463170491e-05
7.4154496372692e-05
7.7947536785844e-05
8.1802770197019e-05
8.5922427678231e-05
9.0079330068809e-05
9.4565982885512e-05
9.9076818783356e-05
0.00010394766247455
0.00010886194816414
0.00011412938725428
0.00011955753188156
0.0001251580572591
0.00013119199432327
0.00013726635648081
0.00014384216731666
0.00015049815404177
0.00015744525623349
0.00016508188324035
0.00017377267729818
0.0001785913258341
0.00016842008211012
8.8531537964203e-05
1.4749655159047e-05
4.4419690181859e-06
3.8354974038781e-06
3.8905334333621e-06
3.9480825200151e-06
3.9940948958098e-06
3.9549337738799e-06
3.8777257424904e-06
3.8157899166374e-06
3.6752294076149e-06
3.5273021593845e-06
3.4305504324642e-06
3.3728174098675e-06
3.3281866315063e-06
3.2701666685879e-06
3.1925159905924e-06
3.1176793338058e-06
3.0514897107767e-06
2.9831573139523e-06
2.910523835162e-06
2.8356493538951e-06
2.7587216851526e-06
2.6833809710907e-06
2.6124660926138e-06
2.5471758767439e-06
2.4925673167212e-06
2.4465252170266e-06
2.4067506508053e-06
2.3712023738272e-06
2.3394038697432e-06
2.3125128501559e-06
2.2900537942571e-06
2.2738084991456e-06
2.2613728365392e-06
2.2557626730433e-06
2.2538065211978e-06
2.2582627103535e-06
2.2728029413763e-06
2.294426020789e-06
2.3235431390398e-06
2.3613307440837e-06
2.4082567295039e-06
2.4625640974806e-06
2.5280553815158e-06
2.602588993719e-06
2.6872955082748e-06
2.7785420304638e-06
2.872225431964e-06
2.9648749330447e-06
3.0591589548951e-06
3.1548180995289e-06
3.2520766107027e-06
3.3493521369761e-06
3.4482591703286e-06
3.5481254154752e-06
3.6505254620615e-06
3.7552651726296e-06
3.8632486597475e-06
3.97458807637e-06
4.0902757601057e-06
4.209726721538e-06
4.3367667789252e-06
4.4702099907246e-06
4.6110626023261e-06
4.75832875014e-06
4.9126729574842e-06
5.0710651767731e-06
5.2367090375779e-06
5.4085734363622e-06
5.584458462158e-06
5.7650482219887e-06
5.9510401197197e-06
6.1375907960382e-06
6.3397877793191e-06
6.5427365042917e-06
6.7479438687375e-06
6.9479060678089e-06
7.1298953849847e-06
7.30166854572e-06
7.4596920242409e-06
7.6085500126517e-06
7.6639528035943e-06
7.6538251136462e-06
7.5961327009679e-06
7.4452508248873e-06
7.2624187373586e-06
7.1027137724486e-06
7.020900043994e-06
7.057750342241e-06
7.20432382378e-06
7.4361678641774e-06
7.7367981552023e-06
8.0799097904655e-06
8.4530513642945e-06
8.8448332139821e-06
9.2487536888094e-06
9.6471977712381e-06
1.003075676786e-05
1.0399424380957e-05
1.0754839087759e-05
1.1087467248703e-05
1.1398647592156e-05
1.1683485789166e-05
1.1940891614878e-05
1.2165461150839e-05
1.2354547977688e-05
1.2506152448721e-05
1.2630790288531e-05
1.2723766872133e-05
1.2791263614702e-05
1.2842259901186e-05
1.286451630997e-05
1.2864340103085e-05
1.2844705050035e-05
1.2806843590084e-05
1.2750978321664e-05
1.2678818514083e-05
1.2580820772457e-05
1.2475849602541e-05
1.2384197469632e-05
1.2302926835014e-05
1.226522388489e-05
1.2275755038157e-05
1.2327831264639e-05
1.2401219338898e-05
1.2490963743377e-05
1.2591255897986e-05
1.2691242320993e-05
1.2792924646596e-05
1.287039976611e-05
1.2919212674672e-05
9.6243033236905e-07
9.6795583669863e-07
9.7488357562008e-07
9.8379025039087e-07
9.9522885689926e-07
1.0097567717107e-06
1.0277582306693e-06
1.0494601284242e-06
1.0750055777246e-06
1.1044161610757e-06
1.1377065714457e-06
1.1748127594117e-06
1.2157363802133e-06
1.2605041081185e-06
1.3092212710748e-06
1.3620696708452e-06
1.4192679726855e-06
1.4811020312061e-06
1.5478780524341e-06
1.6199352402672e-06
1.6976540582244e-06
1.7814280091328e-06
1.8716463444455e-06