/*--------------------------------*- C++ -*----------------------------------*\
| =========                 |                                                 |
| \\      /  F ield         | OpenFOAM: The Open Source CFD Toolbox           |
|  \\    /   O peration     | Version:  2312                                  |
|   \\  /    A nd           | Website:  www.openfoam.com                      |
|    \\/     M anipulation  |                                                 |
\*---------------------------------------------------------------------------*/
FoamFile
{
    version     2.0;
    format      ascii;
    arch        "LSB;label=32;scalar=64";
    class       volVectorField;
    location    "0.0006";
    object      U;
}
// * * * * * * * * * * * * * * * * * * * * * * * * * * * * * * * * * * * * * //

dimensions      [0 1 -1 0 0 0 0];

internalField   nonuniform List<vector> 
28800
(
(315.93371423703 -0.00015015370778901 -8.1494645506641e-12)
(316.73108772927 0.00044888328441709 1.1367092074048e-11)
(317.67265824139 0.00039611616695717 -1.5405791072676e-11)
(318.78375192353 -3.1807595360162e-05 2.0917656119097e-11)
(320.10801166216 0.0019033318631697 -2.8798172367111e-11)
(321.70486460294 0.010541931816552 -2.1541055258422e-11)
(323.63856850887 0.029828793721121 -9.6364199508318e-11)
(325.95972209545 0.062669214577957 -5.512688671039e-11)
(328.68715586558 0.10707435731807 -1.1071444486005e-10)
(331.80067347613 0.15964184706989 -9.9491086931832e-11)
(335.24793524553 0.21529214912776 -1.0790749635677e-10)
(338.96008944875 0.27152923073226 -1.5177835539082e-10)
(342.86838499734 0.3282107160704 -1.0778579413111e-10)
(346.91633635839 0.3851157413814 -2.070542609934e-10)
(351.06449409006 0.44564932163324 -9.6994874521231e-11)
(355.28994560253 0.50962801832881 -2.0725897256472e-10)
(359.58251791368 0.57956269172747 -9.1962343369397e-11)
(363.93955277213 0.65668261843622 -2.1306019119942e-10)
(368.36216348074 0.738286265829 -1.3345426928143e-10)
(372.85093851328 0.82994146295165 -2.1235933415225e-10)
(377.4049686371 0.92306269111102 -1.2735464314516e-10)
(382.0201477174 1.0257841372819 -2.2201234774354e-10)
(386.69058068113 1.1289279875298 -1.7385633440361e-10)
(391.41045395568 1.2372619912331 -2.1829489530238e-10)
(396.16195692373 1.3492985707667 -1.6136053159209e-10)
(400.92396555529 1.4515039513412 -2.077358353796e-10)
(405.6715973696 1.5631825291352 -2.0052519876157e-10)
(410.41428848919 1.65883502473 -2.1229810408495e-10)
(415.16514811101 1.7707871336396 -1.9837060596479e-10)
(419.82999809467 1.8699445466957 -2.0740449760134e-10)
(424.40440391016 1.9646268101958 -1.9255679203912e-10)
(428.9242157724 2.0598275905562 -2.0367657663118e-10)
(433.33545723871 2.1485864758941 -1.9127656251914e-10)
(437.65424320607 2.2375663206242 -2.0096036263992e-10)
(441.936683385 2.3314096255716 -1.9337518022536e-10)
(446.14246570314 2.4301545496617 -1.9848282539402e-10)
(450.28683645618 2.507612679026 -1.4733338046216e-10)
(454.42163934159 2.6180168412681 -1.981406220179e-10)
(458.51115922309 2.6963324341643 -1.4194062519453e-10)
(462.58488277542 2.8055753006692 -1.9732933604318e-10)
(466.66025782374 2.8750376374279 -1.3442087063769e-10)
(470.67861188308 2.9818880634993 -1.9471652347153e-10)
(474.6983765893 3.0529576676955 -1.2329926018552e-10)
(478.71912704202 3.1553839722236 -1.5250152039853e-10)
(482.68797388292 3.233977076425 -1.2279334642837e-10)
(486.66690462749 3.3248727434755 -1.4713210301718e-10)
(490.65187086534 3.418393523025 -1.1871357397906e-10)
(494.47619921973 3.460306365165 -1.4286526718112e-10)
(498.32405239562 3.5588885049813 -1.1274202109479e-10)
(501.95270595172 3.5946060189238 -1.4151381229732e-10)
(505.45384270985 3.6391330488941 -1.068195444992e-10)
(508.9188066156 3.6941987036883 -1.0570565270915e-10)
(512.1321262453 3.7037815144156 -1.0437788217509e-10)
(515.32899498211 3.7462700137206 -1.0288291415402e-10)
(518.28013087625 3.7446391828694 -1.0099590875301e-10)
(521.19916038898 3.7983781215623 -9.8697023742945e-11)
(524.09101441248 3.8338486452168 -9.5888787621424e-11)
(526.87418155645 3.8724289963689 -9.3034867051222e-11)
(529.66025156668 3.9004707521791 -9.0410986172769e-11)
(532.36252322663 3.9364616569314 -8.8359323209359e-11)
(535.06432431061 3.9738836480028 -8.6869971335439e-11)
(537.76800931002 4.0182106185463 -8.5893500860498e-11)
(540.47100639409 4.0501951245815 -8.5243890077467e-11)
(543.08578391778 4.0901673970464 -8.4779043252227e-11)
(545.70744406647 4.1111235991322 -8.4297640277182e-11)
(548.34490234759 4.1548151996331 -8.3724801879944e-11)
(550.93906239462 4.1952479300394 -8.299532462151e-11)
(553.54415445058 4.2254123882257 -8.2056150466912e-11)
(556.17043451563 4.2534847815599 -8.1051341747361e-11)
(558.63825825813 4.2688538741664 -7.9939236349416e-11)
(561.09762565418 4.2750136493609 -7.8825243911359e-11)
(563.58120511186 4.3082773037592 -7.7637496281216e-11)
(565.99094627382 4.3343497488398 -7.6527032460526e-11)
(568.39664667183 4.3415738457208 -7.5292064103018e-11)
(570.77898457201 4.3542949950819 -7.4124974383712e-11)
(573.01987351289 4.3401388213124 -7.2874768813286e-11)
(575.25373125314 4.3477333625051 -7.1706218699077e-11)
(577.39074444219 4.3475981786068 -7.0460520234484e-11)
(579.49670250144 4.3418372946343 -6.9345920904511e-11)
(581.53032894399 4.3651162711774 -6.8174345436695e-11)
(583.57404243725 4.3386901705843 -6.7010458395257e-11)
(585.49514783888 4.3510729317405 -6.5979875595042e-11)
(587.29775667615 4.3324869672607 -6.4781052931888e-11)
(589.13305658573 4.343482517854 -6.3699858731018e-11)
(590.98704158695 4.333341665726 -6.2545615720041e-11)
(592.69121587638 4.3419036128482 -6.1490413579472e-11)
(594.34159758353 4.3131078409787 -6.0345503349837e-11)
(596.01423264781 4.3175678991898 -5.9208491140377e-11)
(597.66802288981 4.3212306738371 -5.8300648721853e-11)
(599.19594854895 4.2936781062694 -5.7124335547503e-11)
(600.7283198101 4.3038633201093 -5.6355365819006e-11)
(602.27210433012 4.2764897687754 -5.5203748739282e-11)
(603.72583970957 4.281992805686 -5.4577512723467e-11)
(605.16652393277 4.2600847232868 -5.3518229067744e-11)
(606.61236311105 4.2559529475697 -5.2842639268756e-11)
(608.01655990956 4.2390952838371 -5.2058798222704e-11)
(609.42403295619 4.2188396915399 -5.1190666171053e-11)
(610.78604139465 4.2150977061101 -5.0721947220076e-11)
(612.16177459665 4.1888531591596 -4.9609405825683e-11)
(613.50646490075 4.185526638545 -4.9437288537233e-11)
(614.83710207995 4.141781147548 -4.8173238433917e-11)
(616.15136496472 4.1639919983096 -4.8103189324645e-11)
(617.46789915512 4.1024573477282 -4.6796094978556e-11)
(618.78096144254 4.1314002355008 -4.6709724851642e-11)
(620.12795272569 4.0793774815634 -4.5562238605483e-11)
(621.90978172167 4.0877080596132 -4.483484709045e-11)
(621.51031919067 4.0380666317225 -4.416402722032e-11)
(612.20060775354 3.9703758895638 -4.3429898910466e-11)
(549.07698018574 3.8651448244263 -4.2408646463065e-11)
(289.07925883106 3.8394045065875 -4.31987618548e-11)
(129.69095709231 3.5921027074161 -3.7067168785291e-11)
(100.97340090059 2.0293321822574 -4.0063889215139e-11)
(97.387732139082 2.2442146823884 -3.7892296463686e-11)
(90.943358206428 3.5355289106831 -3.2816247315213e-11)
(80.472779884506 4.9435184806203 -2.7390752451895e-11)
(70.665636240985 2.778447427829 -2.9231868661001e-11)
(65.861503595271 1.240540215835 -3.2830210478655e-11)
(63.463376786218 1.1277379573341 -3.3808675977046e-11)
(61.451008253598 1.1150919162081 -3.2998895311954e-11)
(58.65280346138 1.3379621877739 -3.1351770848674e-11)
(55.270077890058 1.5563188975935 -3.0908974742239e-11)
(51.624421858294 1.4438742454938 -3.1885456299192e-11)
(48.60143302274 1.2146920622484 -3.2720572858315e-11)
(46.221662870614 1.0371119488037 -3.3175354836893e-11)
(44.175475071517 0.77868718007742 -3.4088255307047e-11)
(42.067513122491 0.49368629757927 -3.5321693703167e-11)
(40.375308724808 0.21909001202718 -3.7018948440292e-11)
(39.857659411851 -0.079191432862173 -3.877026072453e-11)
(40.413809142208 -0.40550820117683 -3.9696798806746e-11)
(42.082179699924 -0.69590406423884 -4.0449447256765e-11)
(44.52917339727 -0.89979734961589 -3.9697879747485e-11)
(47.451104282177 -1.0766814196124 -4.023582989077e-11)
(50.679005964725 -1.2405787034057 -4.0800159853358e-11)
(54.117483451963 -1.3718470358824 -4.1749496845995e-11)
(57.767783659388 -1.481030875868 -4.3540839432959e-11)
(61.756441491132 -1.574537301925 -4.5645790434852e-11)
(66.206413032662 -1.6999566659688 -4.760186302035e-11)
(71.12790115938 -1.8119913275947 -4.9881972662308e-11)
(76.518565331382 -1.9340140883038 -5.2149420163584e-11)
(82.242560288336 -1.9904035523139 -5.3629610070185e-11)
(88.103441525302 -1.9771396106519 -5.4310125880921e-11)
(94.008639977571 -1.9156979308642 -5.5051366997628e-11)
(99.754177094217 -1.8265343994548 -5.4859448631774e-11)
(105.21564669521 -1.7174909945602 -5.4445153395825e-11)
(110.20858300991 -1.5821042421101 -5.3732222078157e-11)
(114.81580962829 -1.4447848555212 -5.2787644951494e-11)
(119.1600555876 -1.2995254996596 -5.1645423792392e-11)
(123.20058415837 -1.1643626524621 -5.0413039520117e-11)
(126.93047950099 -1.0526487279845 -4.9328097455233e-11)
(130.41925713484 -0.95409367864483 -4.8510280760129e-11)
(133.75273986378 -0.87287793213069 -4.7998142414381e-11)
(137.03843757801 -0.81471997575019 -4.7884300596763e-11)
(140.31914741281 -0.7717283769892 -4.8020671332194e-11)
(143.62913250866 -0.74733110045624 -4.8407964773481e-11)
(147.02288903806 -0.75024424276217 -4.9134996699925e-11)
(150.56211956324 -0.77802578051149 -5.025700510593e-11)
(154.29041771236 -0.82661973175944 -5.1929655282346e-11)
(158.26961652749 -0.89539289264277 -5.4048904144687e-11)
(162.57824997644 -0.97671349481833 -5.6082200645997e-11)
(167.28902810009 -1.0705736621111 -5.802755475096e-11)
(172.45133056161 -1.1793320687805 -6.0051993816078e-11)
(178.09633365476 -1.3017321616534 -6.1675991698126e-11)
(184.23783766237 -1.4249015557374 -6.2670499214468e-11)
(190.86669636298 -1.542795506703 -6.3643674669249e-11)
(197.96008220605 -1.6568771871039 -6.4640659303103e-11)
(205.47922576032 -1.7549825429129 -6.5356637624757e-11)
(213.35580132089 -1.8193300414941 -6.5706697550472e-11)
(221.51692795169 -1.853008131561 -6.5818489546967e-11)
(229.89735284505 -1.8691791463641 -6.5594601709598e-11)
(238.43271476164 -1.8589944247773 -6.4801200576089e-11)
(247.01911763422 -1.8588529502661 -6.324074852536e-11)
(255.56145571744 -1.8241129275793 -6.0809988230311e-11)
(263.96228858484 -1.7481429173944 -5.7557245978427e-11)
(272.24791963324 -1.5840685654771 -5.347847172928e-11)
(280.31377499152 -1.3233264856258 -4.8644892363917e-11)
(288.03775782927 -1.0638243402924 -4.3249912893767e-11)
(295.18767083833 -0.78421854007409 -3.7320787222491e-11)
(301.74567815716 -0.51080664031193 -3.1039916206441e-11)
(307.5100472933 -0.23035749495063 -2.4826675023037e-11)
(312.2333731024 0.14916356616092 -1.9475535231828e-11)
(315.88590357827 0.6586398253785 -1.5764212862294e-11)
(318.39378295524 1.1104749121565 -1.4031182739467e-11)
(319.82010443632 1.3944861054267 -1.4153046181204e-11)
(320.41107699356 1.3920241888398 -1.7263203617586e-11)
(320.47135282479 1.2270637893045 -1.9989014081887e-11)
(320.35696026904 1.0184160023131 -2.4128215228361e-11)
(320.11729086477 0.81101193710445 -2.7042400801174e-11)
(319.72623903291 0.66542777616577 -3.0848799534617e-11)
(319.21201205893 0.43389585099911 -3.4841424609569e-11)
(318.4270059172 0.39170172201304 -3.7709666430522e-11)
(317.23661682824 0.22904098157731 -3.9724520428194e-11)
(315.69026536222 -0.016578144474242 -4.1331841045753e-11)
(313.68278560971 -0.000682497626725 -4.2585939660897e-11)
(310.80799948488 0.20347242020686 -4.3486257523066e-11)
(306.6152530223 0.60379661078815 -4.4243875102186e-11)
(300.69961915717 1.2336711348945 -4.471599827735e-11)
(292.75208684427 1.9991607409761 -4.4637183369699e-11)
(282.74496062782 2.7973985735216 -4.3804998453525e-11)
(270.95363912524 3.3986917521203 -4.130316902291e-11)
(257.88807878804 3.736474375527 -3.7354630385353e-11)
(244.21719559688 3.6522574078152 -3.2900298744864e-11)
(230.66620871568 3.3071667382534 -2.7592270298908e-11)
(218.15628676188 2.7661303782641 -2.1406052264588e-11)
(206.98618361979 2.2362213543662 -1.5296243579129e-11)
(197.3723529655 1.7122165669689 -8.9284783515469e-12)
(189.28704378781 1.2404538358897 -2.7152730082492e-12)
(182.69695963898 0.7959354200562 4.1053924919991e-12)
(177.37797867571 0.4458715885457 1.1373350176898e-11)
(173.10832271186 0.15606888726585 1.8448319671462e-11)
(169.71922975477 -0.10485808635645 2.4821196569581e-11)
(167.0608339916 -0.33777812960438 3.0009420038047e-11)
(164.99096132099 -0.54127494355065 3.3661991421246e-11)
(163.40448827383 -0.71097892754585 3.5476252419925e-11)
(162.30191245625 -0.86246073338123 3.5936439213691e-11)
(161.70989554749 -0.9931154257815 3.4837674824798e-11)
(161.55942184699 -1.0958408427718 3.4145279045335e-11)
(161.67921771561 -1.1738275142911 3.1802653444765e-11)
(162.00277792608 -1.2288228445865 2.7724209358224e-11)
(162.42532845355 -1.2233782659412 2.4555885199561e-11)
(162.84065561966 -1.1902627015141 1.8238227352892e-11)
(163.20201972369 -1.1622590712882 8.4360096515965e-12)
(163.46492308038 -1.0570785927778 -4.251476727378e-12)
(163.49406195347 -0.90820588579004 -1.5703161681592e-11)
(163.33511640256 -0.83815637179671 -2.0409775515358e-11)
(162.93601667564 -0.71889752124892 -2.5761971907799e-11)
(162.23474697712 -0.5891430384652 -3.2517766187131e-11)
(161.20141918345 -0.44913644493204 -3.9442902963337e-11)
(159.84322883388 -0.33014358231727 -4.651343745921e-11)
(158.21725446057 -0.21308338678145 -5.1009678130099e-11)
(156.44058395477 -0.1424989623481 -5.5612419090199e-11)
(154.62708857795 -0.023169619650196 -5.6406840627375e-11)
(152.80610679164 0.10637266470397 -5.8004856841366e-11)
(151.072912238 0.21416354683864 -5.7747918381595e-11)
(149.41933612633 0.33426021005697 -5.7429335432206e-11)
(147.81809496746 0.49129012669639 -5.727679442681e-11)
(146.25869346919 0.63603200142077 -5.667535980914e-11)
(144.83111977257 0.74627415677645 -5.623201138836e-11)
(143.62729651484 0.85116633043088 -5.5786242354471e-11)
(142.63689647102 0.86470829477255 -5.5722781924205e-11)
(141.98227472842 0.8428374245497 -5.5820624945021e-11)
(315.93385653287 -0.00026908640197598 -2.5934084033969e-12)
(316.73118631855 0.00089349109385387 3.5372037120505e-12)
(317.67284747806 0.00071483022958697 -4.7198617250269e-12)
(318.78615634869 -0.00042322959506792 6.5617679895755e-12)
(320.11671619808 0.0045279769696289 -9.3472822583906e-12)
(321.72473936117 0.025629036919076 -7.8913288402393e-12)
(323.67330031113 0.072080987825841 -3.0746011932854e-11)
(326.00976507688 0.14915219951736 -2.0151029382776e-11)
(328.74947384473 0.25191049503704 -3.6708363236998e-11)
(331.8704373058 0.37206056324112 -3.5333635590221e-11)
(335.32093985042 0.49875890135608 -3.5749023369603e-11)
(339.03408773214 0.6265573986241 -5.1472376390146e-11)
(342.94323583952 0.7535043581991 -3.4371397665011e-11)
(346.99324660501 0.88097464180674 -7.0759825445784e-11)
(351.14521033934 1.0139537050137 -3.2425303127267e-11)
(355.37614259899 1.1544527962982 -7.2462667317744e-11)
(359.6752687127 1.3061390909289 -3.013764521297e-11)
(364.03935527094 1.4716549129827 -7.3940230863143e-11)
(368.46892515643 1.6468618522093 -4.5209518574007e-11)
(372.9638056735 1.8401571058024 -7.5720616608552e-11)
(377.52309209737 2.0365525848995 -4.4593426148199e-11)
(382.14180609275 2.2505812957173 -7.7606595576418e-11)
(386.81499388365 2.4630427598853 -5.7859179806549e-11)
(391.53455224889 2.6859700816639 -7.8435522664936e-11)
(396.28248976712 2.9106811687287 -5.945988448034e-11)
(401.04019183892 3.1178381120836 -7.6048117029219e-11)
(405.78213374214 3.3379326762014 -7.1930428131129e-11)
(410.52196141578 3.5310557534491 -7.8700912779033e-11)
(415.26952720025 3.7529464424446 -7.3235917311173e-11)
(419.92248761267 3.9447587679829 -7.9027058769023e-11)
(424.4892972856 4.1347983674454 -7.2625818796715e-11)
(429.00555448526 4.3192104336336 -7.9032365418013e-11)
(433.40607437627 4.4928085921062 -7.3152354185771e-11)
(437.72897647491 4.666975231705 -7.9951091129317e-11)
(442.0093270354 4.8539997927608 -7.4033211585861e-11)
(446.20598251672 5.0372492044219 -8.0267352015323e-11)
(450.35000199635 5.2013971286908 -6.2228702478006e-11)
(454.48651567298 5.4013952452943 -8.1308197193914e-11)
(458.56765842423 5.5649739877971 -6.1495988063888e-11)
(462.63479917401 5.7642958154814 -8.1350331465693e-11)
(466.7049924407 5.9091816444095 -6.0801841489616e-11)
(470.71823350347 6.1084483792849 -8.1830484463702e-11)
(474.73560359596 6.2491616535142 -5.9569373777486e-11)
(478.75125925737 6.4509254103806 -6.9998406487267e-11)
(482.71639982593 6.592678608129 -6.005023578702e-11)
(486.68857947232 6.7850300964093 -7.1235299056222e-11)
(490.65320775858 6.9361144046777 -6.0748025725604e-11)
(494.47043307186 7.0381069248713 -7.2067798500924e-11)
(498.310091666 7.2089798615431 -6.1617988179509e-11)
(501.90302270988 7.2745194612153 -7.2603532588765e-11)
(505.41443045044 7.3655712585479 -6.0238329065105e-11)
(508.85857365039 7.4560072584245 -6.1431305110666e-11)
(512.06750391044 7.470844101515 -6.09380964862e-11)
(515.25712062257 7.5549551347712 -6.0236900153922e-11)
(518.21358524883 7.5643138195628 -5.9569110338139e-11)
(521.15406295706 7.66687553568 -5.8999844846836e-11)
(524.03444232794 7.7314202739525 -5.8445266666075e-11)
(526.81332714898 7.8007819908489 -5.792934003828e-11)
(529.59740497951 7.8556601680629 -5.7383751313545e-11)
(532.30511395184 7.9304771744735 -5.6900435878383e-11)
(535.00571002487 7.9987891058384 -5.6464802580731e-11)
(537.7106212776 8.0823482946336 -5.6150055036085e-11)
(540.40638367484 8.144529122398 -5.5956363609421e-11)
(543.01647737603 8.2043953556616 -5.5862470950775e-11)
(545.64012673729 8.2605568366973 -5.5859183326049e-11)
(548.28132420339 8.3439025202634 -5.585120225673e-11)
(550.8671133272 8.414584733869 -5.5879490793906e-11)
(553.46529267715 8.4564294839091 -5.5833854989819e-11)
(556.07997095161 8.5129717711812 -5.5831175229363e-11)
(558.54343780064 8.529907292637 -5.5758408980654e-11)
(561.01049021413 8.5551167361056 -5.5767991984752e-11)
(563.49527288628 8.6217388315645 -5.5688805570878e-11)
(565.89694901563 8.6502477026756 -5.5692325565656e-11)
(568.29995093916 8.6683448761999 -5.5571260236241e-11)
(570.66836810104 8.6809217033254 -5.5493279108726e-11)
(572.91135849192 8.6600380736234 -5.527893997989e-11)
(575.14605128378 8.6769085178332 -5.5082285521533e-11)
(577.27988943251 8.6707028044366 -5.4774825059513e-11)
(579.39787866187 8.6699207840292 -5.4474661148867e-11)
(581.4222836434 8.6907627815686 -5.4139038728783e-11)
(583.46178991631 8.6505639013349 -5.3757793952411e-11)
(585.38658323695 8.6784443512268 -5.3461139452778e-11)
(587.19390235081 8.6353146017767 -5.3053952505334e-11)
(589.0315022467 8.6679932312066 -5.2769096364632e-11)
(590.88168223294 8.6413724901843 -5.2387389940198e-11)
(592.57971505762 8.6436975995789 -5.211804350073e-11)
(594.2351310873 8.6003686135065 -5.1774108768991e-11)
(595.91412060481 8.6088300818023 -5.1448447849714e-11)
(597.55989932253 8.6083633237026 -5.1188351955295e-11)
(599.09053006027 8.5484835389408 -5.0817079201099e-11)
(600.62515103516 8.5789938726554 -5.0574512704697e-11)
(602.16687141965 8.5175351554661 -5.0168611095595e-11)
(603.62518721122 8.5180599581088 -4.9930007476976e-11)
(605.06399981222 8.4828941974837 -4.9512246368187e-11)
(606.50771764372 8.4721466960277 -4.9203911276875e-11)
(607.91223913335 8.4337810676578 -4.8849466509427e-11)
(609.32284073718 8.399910816215 -4.8432088310607e-11)
(610.68369972323 8.388126783111 -4.8176655654075e-11)
(612.05443709299 8.3365250568771 -4.7642706560475e-11)
(613.40507273638 8.3267728687403 -4.75076855465e-11)
(614.73409607006 8.2695230315216 -4.6909760281652e-11)
(616.04905223386 8.2752119768792 -4.6837863601995e-11)
(617.36592544895 8.2075740311798 -4.6239631354438e-11)
(618.68221756559 8.2229253935559 -4.6177817567056e-11)
(620.02868609659 8.1644340269373 -4.5676722930382e-11)
(621.79715430946 8.1675723300614 -4.5362158228574e-11)
(621.37276417955 8.1129455489886 -4.5079835571529e-11)
(612.04064882175 8.0260795686538 -4.4772727388376e-11)
(549.08857381835 7.7000337695059 -4.4303657094829e-11)
(292.25346323999 6.5159140036145 -4.4927411927934e-11)
(133.53597067894 5.376640613924 -4.1347535294314e-11)
(105.30501353214 3.0510625308279 -4.3480468638242e-11)
(101.31060569734 4.2943923416347 -4.346715147558e-11)
(95.483856709457 7.2174881839663 -4.0123108749212e-11)
(86.646173232646 10.038622069887 -3.5865512975097e-11)
(78.30952471402 6.9906342167752 -3.6696393425163e-11)
(73.481093997101 3.3041024652711 -4.0171273699718e-11)
(70.795507556095 2.3943153401521 -4.1810760919406e-11)
(68.65082074743 2.6940422565397 -4.1706792491788e-11)
(65.538298059001 3.2715688945524 -4.0085826171785e-11)
(61.930640100095 3.997743510144 -3.8281113092078e-11)
(58.043436673472 4.4138937250446 -3.7874236045679e-11)
(54.395017874668 4.3162329564677 -3.7770804238213e-11)
(51.292723270392 3.7844151733257 -3.7717966362029e-11)
(48.597785042221 2.9906683253837 -3.8131570018771e-11)
(45.972575391834 2.053293295937 -3.9034494042911e-11)
(43.859588260008 1.1317641679587 -4.0115595356334e-11)
(42.992400596676 0.2107172142607 -4.1533079430243e-11)
(43.288158401492 -0.69762564863682 -4.2033023018994e-11)
(44.634228441534 -1.554465865208 -4.3490469717655e-11)
(46.859636829302 -2.2618244521508 -4.2078597057041e-11)
(49.693023241367 -2.8315488331598 -4.3189316637486e-11)
(52.923735513607 -3.2779006341643 -4.2268543487783e-11)
(56.403737789197 -3.59449707466 -4.2738811820974e-11)
(60.092384035257 -3.8222525094609 -4.3428287802351e-11)
(64.074431345384 -4.0097052930636 -4.4700553974538e-11)
(68.439401787893 -4.147128712088 -4.5689402194289e-11)
(73.175186758435 -4.225112489672 -4.7135084142325e-11)
(78.307494872216 -4.3435580641788 -4.8730293141478e-11)
(83.772193260636 -4.4153015512822 -4.9762022855871e-11)
(89.447894244357 -4.426274404112 -5.036644152474e-11)
(95.241923119059 -4.3481081809198 -5.1295578042054e-11)
(100.94988192415 -4.1983465412006 -5.1550723020466e-11)
(106.40378986106 -4.0001132987673 -5.1558915254905e-11)
(111.40786573343 -3.7577206522174 -5.1503652691856e-11)
(116.04939028001 -3.5320989089715 -5.1204624138316e-11)
(120.44003777984 -3.2736085620941 -5.0578040887882e-11)
(124.54298208667 -3.0134839939509 -4.9705777224077e-11)
(128.33833889712 -2.7751381925276 -4.8872838452714e-11)
(131.87922299614 -2.5377678194761 -4.8207903121945e-11)
(135.24750525226 -2.3158380733948 -4.7712390907626e-11)
(138.54942058124 -2.1431671981492 -4.7357209725762e-11)
(141.82480637716 -2.0052825822482 -4.7291665858595e-11)
(145.10966744171 -1.9172618865642 -4.7501071786141e-11)
(148.4483956203 -1.8877179696327 -4.7925941813339e-11)
(151.91821482718 -1.9463913955007 -4.8623405129207e-11)
(155.5656634121 -2.039718290292 -4.9497401114312e-11)
(159.45191230836 -2.1746638659547 -5.0430835287565e-11)
(163.6507890279 -2.3213160147566 -5.1267417532805e-11)
(168.23621492683 -2.4820329677772 -5.2179968738385e-11)
(173.25743962812 -2.6609582549327 -5.3162338089444e-11)
(178.75660984215 -2.8811854115929 -5.4096948228409e-11)
(184.76770866216 -3.1213945675665 -5.4844997866493e-11)
(191.2922270948 -3.3594837511398 -5.5178870778831e-11)
(198.30712618949 -3.5905387082939 -5.5126557270834e-11)
(205.76801383806 -3.7874429766146 -5.4653809194481e-11)
(213.60332519744 -3.9203359772905 -5.4126775259307e-11)
(221.73404360708 -3.9901331190615 -5.3608650184671e-11)
(230.08741257331 -4.0213698942711 -5.3293217163131e-11)
(238.5958507718 -4.0109046684524 -5.2921690071819e-11)
(247.14733608265 -3.9772142172084 -5.2613483169458e-11)
(255.65308901092 -3.9061598892576 -5.2181216573772e-11)
(264.04265683606 -3.784876176797 -5.1845650390339e-11)
(272.36115747092 -3.5982477442127 -5.1346456386413e-11)
(280.56089631528 -3.2921226264848 -5.056245118266e-11)
(288.6124299416 -3.0135023318637 -4.9493579254867e-11)
(296.33591400075 -2.6164355504913 -4.780818593096e-11)
(303.67639409736 -2.233095312691 -4.5540707235825e-11)
(310.4979159631 -1.7241269386773 -4.250998743331e-11)
(316.73280047538 -1.153707118744 -3.8927311548945e-11)
(322.30400701235 -0.5075627549488 -3.4692285762478e-11)
(327.03930262187 0.23111157485249 -2.9791538848929e-11)
(330.92986183432 0.98944228901324 -2.5150961965661e-11)
(333.88406813027 1.65843518923 -2.2290566375885e-11)
(335.73612076216 2.1441332926575 -2.1921051161196e-11)
(336.42822300533 2.3547025862192 -2.2953734955509e-11)
(336.37174232212 2.3612026968934 -2.3505454727602e-11)
(335.75517520253 2.3897528015385 -2.4245472104951e-11)
(334.36851770269 2.421197748149 -2.577914392017e-11)
(332.10566038475 2.2735137734354 -2.7953231977074e-11)
(328.85946403314 2.1929637712815 -3.0014635029407e-11)
(325.05147811519 1.69625597415 -3.1073993177569e-11)
(320.76817243171 1.5402283028968 -2.9874139249436e-11)
(315.66518360699 1.8234296536682 -2.5918837061079e-11)
(309.38430020823 2.4576079585477 -1.8635950112184e-11)
(301.61550003321 3.4926794454172 -7.8899294808942e-12)
(292.08469118558 4.7944222133507 7.2705012521726e-12)
(280.76500186335 6.2754452162571 2.7627367967134e-11)
(267.85521009048 7.5236650392294 5.4346081637381e-11)
(253.7580218474 8.2275867901962 8.5399273849847e-11)
(239.17742507006 8.0262473956669 1.1913295960479e-10)
(225.20891642635 7.3192356679408 1.5311870945208e-10)
(212.67870226136 6.3260911836174 1.8645408731873e-10)
(201.73216699063 5.1810679842024 2.1737508675754e-10)
(192.51233491862 4.0096639238707 2.4533918183913e-10)
(184.89282117571 2.885594011064 2.7139657511806e-10)
(178.77206770816 1.8964963290886 2.94942364865e-10)
(173.88070451448 1.0489771632294 3.137831638561e-10)
(169.98163137826 0.35838462386535 3.2805196168014e-10)
(166.93145599451 -0.21836242888396 3.3877849989375e-10)
(164.58205564089 -0.68382052032697 3.4663707618387e-10)
(162.78978418644 -1.0877955988754 3.519138726578e-10)
(161.45002653328 -1.4160218989575 3.5447782066215e-10)
(160.55932109117 -1.6890706939558 3.558895241263e-10)
(160.13327125091 -1.9382772727306 3.5432633742203e-10)
(160.09858333687 -2.1232306927498 3.5388396470751e-10)
(160.3276276385 -2.2520845652469 3.5269417031565e-10)
(160.76744530059 -2.3452675686586 3.4319521533855e-10)
(161.2850482021 -2.3392043884912 3.3427859638004e-10)
(161.81187160567 -2.2795235780488 3.2792226661175e-10)
(162.30801596309 -2.2293049207183 3.1204874913078e-10)
(162.72858869949 -2.1721553479874 2.9024368308271e-10)
(162.97788151422 -2.0047408932099 2.6219160581771e-10)
(162.94722934418 -1.8993726866968 2.4446014483083e-10)
(162.68934554224 -1.8078028701205 2.3180653227697e-10)
(162.13372039881 -1.6287734561206 2.1456154345331e-10)
(161.22927125057 -1.3495916322967 1.9410457151036e-10)
(159.95892095272 -1.005257506748 1.6849363576291e-10)
(158.38617579678 -0.61616880807193 1.4812183524685e-10)
(156.62259018743 -0.28531255991527 1.2207500806981e-10)
(154.79726725085 0.020168975430373 1.1119988361141e-10)
(152.97299433578 0.32994491392047 9.0846740588814e-11)
(151.21034026966 0.60701963986494 8.0163544574143e-11)
(149.47943281622 0.9148817570258 7.0610123018196e-11)
(147.78783234036 1.2836578566869 6.0194062051441e-11)
(146.16900194202 1.6299239531373 5.222865225955e-11)
(144.7468326476 1.8627431982121 5.3004333658919e-11)
(143.60254561883 2.0529362872433 4.2426968035382e-11)
(142.67109603169 2.104521455823 4.9502954303391e-11)
(142.03521307629 2.0591878512517 6.1160268295083e-11)
(315.93409644733 -0.00038163254672741 -1.5855365444275e-12)
(316.73124280505 0.0013894980366195 2.1913211511468e-12)
(317.67321249449 -0.00093879296972501 -3.0425371176689e-12)
(318.79183315131 -0.0035919038292103 4.3613878523497e-12)
(320.13698475938 0.0059028570414792 -6.00089454112e-12)
(321.77005877448 0.043589357081666 -5.0493549939881e-12)
(323.75080270091 0.12322277147 -1.9126352954311e-11)
(326.11946794651 0.25052858029776 -1.1408050006661e-11)
(328.88458567295 0.41631046217744 -2.1930188620887e-11)
(332.02097656913 0.6088712711021 -2.0879074081549e-11)
(335.47826238965 0.81170033133937 -2.0256302747183e-11)
(339.19334382207 1.0179848165108 -3.172848378521e-11)
(343.10401071347 1.2239233086296 -2.1093537811053e-11)
(347.15810803557 1.4314438317044 -4.2718645527989e-11)
(351.31782312482 1.6479234911704 -1.8221369683221e-11)
(355.56004735659 1.8761572050885 -4.3893175775765e-11)
(359.87290270331 2.122149204204 -1.7938172670839e-11)
(364.25195391272 2.3898176259098 -4.384390949413e-11)
(368.69654953883 2.6738377534959 -2.6848732472801e-11)
(373.20507130633 2.9852927898748 -4.507324126185e-11)
(377.77639788776 3.3035284801997 -2.6453164669671e-11)
(382.40419378025 3.648121823139 -4.7200940431896e-11)
(387.08493220839 3.9913972963244 -3.4524642732834e-11)
(391.80643515071 4.349953356181 -4.6353383610048e-11)
(396.55073351482 4.7092069867021 -3.4873153612456e-11)
(401.30370963218 5.0445988924695 -4.6883590697361e-11)
(406.04113808243 5.3988836747096 -4.358858359482e-11)
(410.78006460088 5.7163776144593 -4.774952663991e-11)
(415.52530697199 6.0755916412638 -4.3850889660477e-11)
(420.16357521542 6.381969015538 -4.7732116385867e-11)
(424.72470577062 6.696602772085 -4.356641397189e-11)
(429.23360862234 6.9952768480232 -4.8081302573477e-11)
(433.62481073265 7.2763078432116 -4.3978708290954e-11)
(437.95925519055 7.563455434494 -4.7860202346224e-11)
(442.23981050982 7.8634850134862 -4.4767039252998e-11)
(446.42882550208 8.1530149999549 -4.7569584805765e-11)
(450.57795358765 8.429695449238 -3.5786007382006e-11)
(454.7188099674 8.7362073967011 -4.8355362863076e-11)
(458.79496387809 9.0101448256269 -3.5661640139647e-11)
(462.85656309301 9.3202195852887 -4.9214410594659e-11)
(466.92275817428 9.5645627286841 -3.5720503858028e-11)
(470.93606034599 9.874237032853 -4.9389994781493e-11)
(474.95450027703 10.118283742558 -3.5762467294043e-11)
(478.96770580385 10.437740120768 -4.2538308102202e-11)
(482.93334408547 10.653975537126 -3.6189483871989e-11)
(486.89956663985 10.990120098064 -4.2766518990528e-11)
(490.82695193521 11.18155095243 -3.6327053465416e-11)