/*--------------------------------*- C++ -*----------------------------------*\
| =========                 |                                                 |
| \\      /  F ield         | OpenFOAM: The Open Source CFD Toolbox           |
|  \\    /   O peration     | Version:  2312                                  |
|   \\  /    A nd           | Website:  www.openfoam.com                      |
|    \\/     M anipulation  |                                                 |
\*---------------------------------------------------------------------------*/
FoamFile
{
    version     2.0;
    format      ascii;
    arch        "LSB;label=32;scalar=64";
    class       volScalarField;
    location    "0.003";
    object      alphat;
}
// * * * * * * * * * * * * * * * * * * * * * * * * * * * * * * * * * * * * * //

dimensions      [1 -1 -1 0 0 0 0];

internalField   nonuniform List<scalar> 
48128
(
6.30262e-09
9.2134e-09
3.35897e-08
3.26262e-07
1.44143e-06
3.50511e-06
5.65346e-06
7.44239e-06
8.85696e-06
9.97588e-06
1.0926e-05
1.17853e-05
1.25731e-05
1.33725e-05
1.41995e-05
1.50686e-05
1.60031e-05
1.70237e-05
1.81525e-05
1.94251e-05
2.09489e-05
2.27164e-05
2.47546e-05
2.70821e-05
2.98624e-05
3.3073e-05
3.6804e-05
4.10405e-05
4.59514e-05
5.15983e-05
5.80115e-05
6.51863e-05
7.32669e-05
8.17343e-05
9.0724e-05
9.9831e-05
0.000109387
0.000117948
0.000126554
0.000134651
0.000141698
0.000148497
0.000157619
0.000167379
0.000176749
0.000184995
0.000192368
0.000199042
0.000204962
0.000210607
0.000215692
0.000220646
0.000224574
0.000221579
0.000211495
0.000202535
0.000194053
0.000186505
0.000179131
0.000172114
0.00016582
0.000159525
0.000153893
0.000148682
0.000143636
0.000139174
0.000134667
0.000130622
0.000126561
0.000122936
0.000119545
0.00011632
0.000113427
0.000110685
0.000108171
0.000105822
0.000103624
0.000101767
9.98058e-05
9.79959e-05
9.68643e-05
9.55166e-05
9.38715e-05
9.23869e-05
9.15696e-05
9.04413e-05
8.92266e-05
8.79351e-05
8.67125e-05
8.65614e-05
8.58503e-05
8.48894e-05
8.38517e-05
8.28979e-05
8.28301e-05
8.23e-05
8.14883e-05
8.07655e-05
8.03275e-05
7.97876e-05
7.91313e-05
7.85338e-05
7.84425e-05
7.80846e-05
7.75701e-05
7.71102e-05
7.67969e-05
7.64061e-05
7.60168e-05
7.56067e-05
7.51684e-05
7.46731e-05
7.41955e-05
7.37828e-05
7.33839e-05
7.32543e-05
7.30864e-05
7.29102e-05
7.27398e-05
7.25465e-05
7.22893e-05
7.19641e-05
7.1609e-05
7.13317e-05
7.11226e-05
7.09513e-05
7.1027e-05
7.10001e-05
7.10245e-05
7.10327e-05
7.10233e-05
7.09895e-05
7.09162e-05
7.08075e-05
7.06493e-05
7.04549e-05
7.02079e-05
6.99555e-05
6.97435e-05
6.95689e-05
6.94125e-05
6.93042e-05
6.91837e-05
6.91089e-05
6.9009e-05
6.89013e-05
6.87805e-05
6.86698e-05
6.85554e-05
6.84163e-05
6.82954e-05
6.81552e-05
6.80319e-05
6.79023e-05
6.77757e-05
6.76617e-05
6.75529e-05
6.74605e-05
6.7366e-05
6.72828e-05
6.72003e-05
6.71319e-05
6.70611e-05
6.69976e-05
6.69341e-05
6.6874e-05
6.6809e-05
6.67416e-05
6.66744e-05
6.66076e-05
6.65164e-05
6.64399e-05
6.63474e-05
6.62646e-05
6.61842e-05
6.61042e-05
6.60248e-05
6.59467e-05
6.58748e-05
6.58059e-05
6.57378e-05
6.56794e-05
6.56232e-05
6.55738e-05
6.5525e-05
6.5482e-05
6.54414e-05
6.54045e-05
6.53715e-05
6.53432e-05
6.53148e-05
6.52835e-05
6.5247e-05
6.51994e-05
6.51207e-05
6.50525e-05
6.49834e-05
6.49101e-05
6.48424e-05
6.47818e-05
6.47251e-05
6.46798e-05
6.46433e-05
6.46143e-05
6.45894e-05
6.45673e-05
6.45476e-05
6.45298e-05
6.45138e-05
6.44905e-05
6.44583e-05
6.44257e-05
6.4398e-05
6.43226e-05
6.42832e-05
6.42422e-05
6.41962e-05
6.41559e-05
6.41143e-05
6.40751e-05
6.40361e-05
6.39985e-05
6.39622e-05
6.39272e-05
6.38928e-05
6.38592e-05
6.38257e-05
6.37922e-05
6.37582e-05
6.37243e-05
6.36904e-05
6.36567e-05
6.36233e-05
6.35908e-05
6.35593e-05
6.35294e-05
6.34999e-05
6.34736e-05
6.34422e-05
6.33658e-05
4.8353e-08
1.6288e-07
5.24314e-07
1.75153e-06
4.50656e-06
8.96349e-06
1.49039e-05
2.12929e-05
2.81171e-05
3.51943e-05
4.24091e-05
4.95278e-05
5.65857e-05
6.39636e-05
7.17676e-05
8.01534e-05
8.94789e-05
9.99378e-05
0.000111865
0.000125421
0.000141447
0.000159481
0.000181823
0.000206461
0.000234948
0.000267064
0.000303368
0.000343837
0.000382119
0.000424987
0.000471996
0.000521985
0.000575295
0.000630655
0.000689953
0.000748806
0.00081243
0.000870254
0.000925357
0.000979398
0.00102579
0.00107013
0.00111136
0.00115066
0.00118603
0.00121659
0.00124216
0.00126349
0.00128154
0.00129826
0.00131178
0.00132439
0.00133115
0.00133687
0.00133874
0.00134214
0.00134141
0.0013406
0.00133631
0.00132827
0.00132174
0.00130947
0.00129729
0.00128519
0.00127032
0.00125768
0.00124167
0.00122691
0.00120973
0.00119308
0.00117648
0.00115923
0.00114294
0.00112646
0.00111085
0.00109538
0.00108029
0.00106672
0.00105227
0.00103917
0.00102871
0.00101756
0.00100407
0.000992242
0.000983332
0.000972695
0.000961532
0.000949983
0.00093978
0.000934072
0.000925568
0.000915537
0.000905276
0.00089654
0.000891617
0.00088451
0.00087574
0.000867527
0.000860804
0.000853879
0.000846272
0.000839417
0.000834875
0.000829114
0.000822499
0.00081612
0.000810829
0.000805104
0.00079937
0.000793658
0.000787508
0.000781121
0.000774258
0.000768266
0.000761875
0.000757168
0.000752736
0.000748454
0.000744669
0.00074093
0.000736711
0.000732034
0.000727072
0.000722348
0.000718021
0.000713873
0.000711807
0.000709518
0.000707853
0.000706181
0.000703081
0.000700358
0.000697842
0.000695114
0.000692128
0.000689004
0.000685442
0.000681739
0.00067774
0.000673825
0.00066989
0.000665976
0.000662218
0.000658522
0.000654981
0.000651605
0.000648221
0.000644959
0.000641919
0.000638745
0.0006357
0.000632587
0.000629638
0.000626729
0.000623831
0.000621008
0.000618257
0.000615543
0.000612909
0.0006104
0.000607917
0.000605662
0.000603439
0.000601382
0.000599386
0.000597529
0.000595738
0.000594055
0.000592397
0.000590827
0.000589374
0.000587883
0.000586406
0.000584924
0.00058346
0.000582001
0.000580541
0.000579071
0.00057761
0.000576168
0.000574715
0.000573298
0.000571907
0.000570632
0.000569349
0.000568152
0.000567041
0.000565958
0.000564975
0.000564016
0.000563152
0.000562426
0.000561683
0.000560992
0.000560347
0.000559589
0.000558826
0.000558001
0.00055712
0.000556152
0.00055523
0.000554135
0.000553201
0.000552342
0.000551488
0.000550677
0.000549961
0.000549305
0.000548739
0.000548245
0.000547858
0.000547438
0.000547119
0.000546674
0.000546201
0.00054574
0.000545252
0.000544722
0.000544173
0.000543588
0.000542988
0.000542384
0.000541764
0.00054116
0.000540552
0.000539974
0.000539404
0.000538858
0.000538319
0.000537807
0.000537305
0.000536827
0.000536371
0.00053593
0.000535508
0.000535101
0.000534716
0.000534345
0.000534027
0.000533443
1.34583e-07
1.2053e-06
2.87595e-06
7.0993e-06
1.53616e-05
2.97441e-05
5.05721e-05
7.43652e-05
9.96953e-05
0.000124663
0.000148153
0.00017018
0.000190916
0.000211434
0.000231445
0.000252004
0.00027385
0.000297418
0.000323317
0.000352162
0.0003849
0.00042115
0.000462035
0.000506209
0.000554952
0.000608112
0.000664359
0.00072463
0.000787215
0.000855063
0.000928003
0.00100366
0.00108299
0.00116204
0.00124759
0.00132874
0.00141546
0.00149421
0.00157146
0.00164324
0.001705
0.00176695
0.00182187
0.00187445
0.00192135
0.00196264
0.00199928
0.00203102
0.00205942
0.00208508
0.00210702
0.00212649
0.00213972
0.00215102
0.00215502
0.00215977
0.00215848
0.0021569
0.00215123
0.00214243
0.00213295
0.00211842
0.00210419
0.00208911
0.00207099
0.00205461
0.00203376
0.00201443
0.00199177
0.0019698
0.00194744
0.00192436
0.00190237
0.00188001
0.00185847
0.00183709
0.0018162
0.00179761
0.00177678
0.00175825
0.00174416
0.00172849
0.00170892
0.00169094
0.00167817
0.001663
0.00164585
0.00162862
0.00161189
0.00160388
0.00159143
0.00157577
0.00156024
0.00154504
0.00153735
0.0015264
0.00151245
0.0014986
0.00148751
0.00147606
0.00146363
0.00145155
0.00144377
0.00143397
0.00142272
0.00141144
0.00140201
0.00139193
0.00138173
0.00137142
0.00136032
0.0013487
0.00133656
0.0013253
0.00131417
0.00130541
0.00129688
0.00128863
0.00128107
0.00127358
0.00126532
0.00125616
0.0012466
0.00123758
0.00122954
0.00122174
0.0012168
0.00121161
0.00120742
0.00120373
0.00120044
0.00119723
0.00119382
0.0011901
0.00118576
0.00118084
0.00117502
0.00116888
0.00116276
0.00115694
0.00115119
0.00114598
0.00114081
0.0011362
0.00113156
0.00112714
0.00112254
0.00111831
0.00111402
0.00110939
0.00110512
0.00110054
0.00109616
0.00109179
0.00108737
0.00108309
0.0010789
0.0010749
0.00107099
0.00106733
0.00106376
0.0010605
0.00105741
0.00105452
0.00105182
0.00104926
0.00104685
0.00104442
0.00104213
0.0010399
0.0010374
0.00103507
0.00103251
0.00103
0.00102748
0.00102492
0.00102234
0.00101974
0.00101718
0.00101465
0.00101216
0.00100973
0.00100747
0.00100528
0.00100325
0.00100129
0.000999539
0.000997827
0.000996371
0.000994995
0.000993881
0.000992781
0.000991748
0.000990655
0.000989265
0.000987786
0.000986159
0.000984392
0.000982534
0.000980634
0.000978742
0.000976893
0.000975174
0.000973641
0.00097225
0.00097103
0.000969996
0.00096913
0.000968479
0.000967886
0.000967244
0.000966624
0.000966036
0.000965039
0.000964157
0.000963224
0.000962181
0.00096111
0.000959995
0.000958852
0.000957686
0.000956559
0.000955417
0.000954353
0.000953285
0.000952308
0.000951344
0.00095045
0.000949553
0.000948715
0.000947878
0.000947099
0.000946316
0.000945597
0.000944866
0.000944226
0.000943551
0.000942981
0.000942377
0.000941313
4.03867e-07
3.87346e-06
8.92253e-06
2.01465e-05
4.10548e-05
7.66667e-05
0.000121311
0.000169107
0.000214345
0.000254749
0.000290407
0.000322716
0.000351733
0.000379613
0.000406742
0.000434271
0.000462943
0.000493503
0.000526663
0.000562939
0.00060296
0.000646862
0.000695041
0.000747073
0.000803197
0.000863021
0.000925797
0.000992409
0.00106246
0.00113635
0.00121478
0.00129376
0.00137765
0.00145451
0.00154134
0.00162294
0.00170821
0.00178353
0.00185748
0.00190522
0.00195629
0.00202331
0.00206902
0.00213389
0.00217631
0.00223281
0.00226619
0.00231028
0.00233558
0.0023728
0.00240051
0.00242612
0.00244966
0.00246766
0.00247861
0.00248942
0.00249489
0.00249906
0.00249876
0.00249751
0.00249213
0.00248415
0.00247712
0.00246806
0.00245727
0.00244607
0.00243068
0.00241599
0.00239795
0.00238071
0.00236228
0.00234359
0.00232567
0.00230746
0.00228959
0.00227178
0.0022544
0.00223933
0.00222168
0.00220519
0.00219481
0.00218237
0.00216556
0.00214858
0.00213827
0.00212568
0.00211031
0.00209438
0.00207685
0.00207114
0.00206112
0.00204733
0.00203268
0.00201661
0.00201033
0.00200103
0.00198818
0.00197417
0.00196334
0.00195233
0.00194018
0.00192698
0.00191998
0.00191075
0.00189971
0.00188786
0.00187816
0.00186786
0.00185719
0.00184601
0.00183378
0.00182069
0.00180696
0.00179417
0.0017817
0.00177233
0.00176312
0.00175425
0.00174586
0.00173759
0.00172809
0.00171736
0.00170609
0.00169538
0.00168617
0.00167709
0.00167163
0.00166595
0.00166159
0.00165774
0.00165417
0.00165061
0.00164659
0.00164217
0.0016369
0.00163083
0.00162348
0.0016156
0.0016078
0.00160049
0.00159322
0.00158665
0.00158021
0.00157452
0.00156867
0.00156315
0.0015573
0.00155194
0.00154652
0.00154061
0.00153507
0.00152917
0.00152349
0.00151773
0.00151187
0.00150622
0.00150063
0.00149536
0.00149013
0.00148528
0.00148049
0.00147616
0.001472
0.00146814
0.0014645
0.00146101
0.0014577
0.00145435
0.00145117
0.00144802
0.00144447
0.00144116
0.00143751
0.00143395
0.00143036
0.00142674
0.00142309
0.00141943
0.00141581
0.00141227
0.00140875
0.00140536
0.00140217
0.0013991
0.00139622
0.00139346
0.00139095
0.00138855
0.00138645
0.0013845
0.00138283
0.00138121
0.00137964
0.00137801
0.00137592
0.00137372
0.00137133
0.00136878
0.0013661
0.00136339
0.00136072
0.00135813
0.00135571
0.00135358
0.00135164
0.00134994
0.00134848
0.00134724
0.00134628
0.00134539
0.00134442
0.00134349
0.00134259
0.00134113
0.0013398
0.00133844
0.00133694
0.00133542
0.00133385
0.00133226
0.00133065
0.00132911
0.00132755
0.0013261
0.00132465
0.00132333
0.00132202
0.00132081
0.00131959
0.00131847
0.00131732
0.00131627
0.00131519
0.00131422
0.00131322
0.00131236
0.00131145
0.0013107
0.0013099
0.00130847
9.38228e-07
8.80399e-06
2.04245e-05
4.36214e-05
8.50957e-05
0.000145507
0.000210777
0.000273192
0.000328592
0.000376757
0.000419642
0.000456686
0.000490212
0.000522241
0.000553016
0.000583879
0.000615389
0.00064864
0.000684131
0.000722464
0.000764161
0.000809443
0.000858379
0.000910651
0.000966221
0.00102542
0.0010868
0.00115112
0.00121808
0.00128515
0.00135699
0.00142227
0.00146417
0.00149742
0.00152971
0.00156944
0.0016121
0.00164667
0.00169756
0.00173428
0.00175566
0.00182392
0.00184434
0.00189958
0.0019181
0.00196762
0.00198525
0.00202403
0.00204472
0.00208031
0.0021049
0.0021332
0.00215979
0.00220586
0.00224992
0.00228408
0.00231693
0.00234598
0.00237234
0.00240913
0.00242584
0.00244946
0.00249017
0.00251222
0.00252898
0.00252801
0.00252302
0.00251766
0.00250905
0.00250123
0.00249137
0.00248137
0.00247173
0.00246165
0.00245143
0.00244112
0.00243099
0.00242284
0.00241264
0.00240141
0.00239732
0.00239128
0.00238143
0.00236927
0.00236386
0.00235694
0.00234761
0.00233635
0.00232257
0.00232022
0.00231558
0.00230806
0.00229759
0.00228471
0.00228126
0.00227645
0.00226853
0.00225807
0.00225008
0.00224269
0.00223372
0.00222287
0.00221839
0.00221284
0.00220528
0.00219605
0.00218867
0.00218103
0.00217277
0.00216357
0.00215324
0.00214183
0.00212973
0.00211868
0.00210745
0.00210003
0.00209289
0.002086
0.0020792
0.00207247
0.0020643
0.00205479
0.00204474
0.00203493
0.0020269
0.00201888
0.00201482
0.00201101
0.00200853
0.00200635
0.00200431
0.0020022
0.00199951
0.00199619
0.00199197
0.00198669
0.00197988
0.00197226
0.00196475
0.0019578
0.00195085
0.00194465
0.00193859
0.0019334
0.001928
0.00192293
0.00191747
0.00191246
0.00190738
0.00190172
0.00189638
0.00189057
0.00188501
0.00187935
0.00187352
0.00186787
0.00186226
0.00185699
0.00185176
0.00184691
0.00184217
0.00183791
0.00183388
0.00183012
0.00182663
0.00182327
0.00182008
0.00181681
0.00181368
0.00181051
0.00180686
0.00180344
0.0017996
0.00179585
0.00179204
0.00178819
0.00178428
0.00178034
0.00177644
0.00177263
0.00176882
0.0017652
0.00176176
0.0017585
0.00175542
0.00175252
0.00174987
0.00174741
0.00174525
0.0017433
0.00174163
0.00174001
0.00173843
0.00173675
0.0017345
0.00173209
0.00172942
0.00172655
0.00172354
0.00172047
0.00171747
0.00171457
0.00171189
0.0017096
0.00170751
0.00170573
0.00170421
0.001703
0.00170207
0.00170127
0.00170029
0.00169943
0.00169856
0.00169696
0.00169551
0.00169403
0.00169238
0.00169071
0.00168896
0.00168723
0.00168545
0.00168378
0.00168209
0.00168055
0.00167898
0.0016776
0.00167621
0.00167497
0.0016737
0.00167255
0.00167136
0.00167029
0.00166916
0.00166819
0.00166716
0.00166633
0.0016654
0.00166472
0.00166394
0.00166247
1.78132e-06
1.63125e-05
3.83271e-05
7.75484e-05
0.00014339
0.000219035
0.000295899
0.000365829
0.000426696
0.000480079
0.000526107
0.000565646
0.000601822
0.000635787
0.000667885
0.000699632
0.00073123
0.000764051
0.00079852
0.000835187
0.00087458
0.000917009
0.000962029
0.00101014
0.00106075
0.00111334
0.00116642
0.00122065
0.00125349
0.00127203
0.00129176
0.00130883
0.00131809
0.00133008
0.00134234
0.00135753
0.00139148
0.00140507
0.00144178
0.00146336
0.00145865
0.00150692
0.00150537
0.00153408
0.00153111
0.00156038
0.00156767
0.001596
0.00161741
0.00163969
0.00166263
0.00168684
0.00170883
0.00175824
0.00179284
0.001835
0.0018604
0.00189934
0.00192335
0.00196763
0.00199468
0.00202401
0.00207664
0.00210103
0.00214906
0.00218474
0.00220494
0.00224865
0.0022717
0.00231077
0.00233036
0.00236295
0.00238835
0.00239134
0.00239329
0.00239459
0.00239552
0.00239744
0.00239771
0.00239567
0.00239937
0.0024016
0.00240131
0.00239761
0.00239858
0.00239909
0.00239823
0.00239413
0.00238733
0.00238898
0.00239066
0.0023909
0.00238707
0.00238026
0.00238027
0.00238075
0.00237929
0.0023745
0.00237096
0.00236848
0.00236433
0.00235817
0.00235698
0.00235613
0.00235364
0.00234899
0.0023454
0.00234185
0.0023376
0.00233193
0.00232528
0.00231744
0.00230904
0.00230139
0.00229335
0.0022892
0.00228567
0.00228227
0.00227839
0.00227446
0.00226911
0.0022627
0.00225566
0.00224861
0.00224325
0.00223793
0.00223653
0.00223594
0.00223644
0.00223694
0.00223757
0.00223806
0.00223782
0.00223684
0.00223491
0.00223182
0.00222711
0.00222137
0.00221575
0.00221064
0.00220551
0.00220113
0.0021968
0.00219341
0.00218984
0.00218649
0.00218279
0.0021793
0.00217583
0.00217178
0.00216791
0.00216346
0.00215928
0.00215494
0.00215041
0.00214606
0.00214169
0.00213762
0.00213361
0.00212991
0.00212636
0.00212321
0.00212033
0.0021177
0.00211535
0.00211311
0.00211101
0.00210883
0.00210669
0.00210451
0.00210182
0.00209926
0.00209621
0.00209321
0.00209013
0.00208698
0.00208372
0.00208043
0.00207713
0.00207393
0.00207068
0.00206768
0.0020648
0.00206217
0.00205967
0.0020574
0.00205535
0.00205355
0.00205203
0.00205076
0.00204974
0.00204878
0.00204781
0.00204678
0.00204498
0.00204298
0.00204072
0.00203818
0.00203547
0.00203271
0.00202997
0.00202738
0.00202506
0.00202317
0.00202148
0.00202015
0.00201908
0.00201839
0.00201796
0.00201772
0.00201723
0.0020169
0.00201653
0.00201528
0.00201417
0.00201303
0.00201168
0.00201032
0.00200883
0.00200739
0.00200587
0.0020045
0.00200307
0.00200184
0.00200056
0.0019995
0.00199842
0.00199754
0.00199658
0.00199579
0.00199491
0.00199419
0.00199336
0.00199274
0.00199201
0.00199154
0.00199093
0.00199062
0.0019902
0.00198917
2.8824e-06
2.62546e-05
6.19999e-05
0.000120135
0.000201406
0.000286848
0.000369668
0.000443143
0.000506966
0.00056375
0.000610476
0.000651863
0.000689342
0.000723856
0.00075578
0.000786522
0.000816362
0.00084653
0.000877578
0.000909971
0.000944355
0.000980641
0.00101894
0.00105909
0.00110051
0.00112298
0.00112393
0.00113251
0.00113578
0.00114033
0.00113651
0.00113726
0.00112767
0.00112364
0.0011391
0.00113187
0.0011621
0.00114755
0.00116084
0.00115649
0.00113207
0.00114124
0.00112361
0.00113073
0.00112836
0.00113782
0.00114882
0.00116265
0.00118819
0.00119606
0.00122343
0.00124475
0.00126604
0.00131349
0.0013323
0.00137632
0.00139252
0.00143737
0.001456
0.00150131
0.00152968
0.00156515
0.00161066
0.00163503
0.00167759
0.00171545
0.0017407
0.00178478
0.0018165
0.00185699
0.0018877
0.00192733
0.00196031
0.0019908
0.00202486
0.00205603
0.0020878
0.00211223
0.00214538
0.00217485
0.00218148
0.00220113
0.0022379
0.00226357
0.00227123
0.00228305
0.00229217
0.00229773
0.00230075
0.00230772
0.00231688
0.00232567
0.00232974
0.00233127
0.00233585
0.00234254
0.00234806
0.00235044
0.00235273
0.00235614
0.00235784
0.00235828
0.00236119
0.00236581
0.00236902
0.00237024
0.00237147
0.00237285
0.00237343
0.00237228
0.00237045
0.00236744
0.00236406
0.00236088
0.00235751
0.0023573
0.00235817
0.00235889
0.00235865
0.00235824
0.00235675
0.00235464
0.0023516
0.00234869
0.00234673
0.00234544
0.00234737
0.00235035
0.00235426
0.00235796
0.00236176
0.00236541
0.00236818
0.00237022
0.00237117
0.00237115
0.00236948
0.00236675
0.00236405
0.00236176
0.00235943
0.00235778
0.00235609
0.00235532
0.00235445
0.00235367
0.00235261
0.00235149
0.00235049
0.002349
0.0023475
0.00234533
0.00234346
0.00234137
0.00233908
0.00233695
0.00233474
0.00233278
0.00233083
0.00232914
0.00232759
0.00232638
0.00232543
0.00232471
0.00232425
0.00232389
0.00232363
0.00232329
0.0023229
0.00232252
0.00232159
0.0023207
0.00231922
0.0023178
0.00231623
0.00231459
0.00231279
0.00231094
0.00230902
0.00230724
0.00230531
0.00230368
0.00230213
0.00230083
0.00229964
0.00229868
0.00229792
0.00229743
0.00229719
0.00229724
0.00229746
0.00229778
0.00229802
0.00229825
0.00229752
0.00229657
0.00229534
0.0022938
0.00229204
0.00229024
0.00228843
0.00228678
0.00228544
0.00228453
0.00228382
0.00228347
0.00228339
0.00228374
0.00228429
0.00228508
0.00228561
0.00228626
0.00228687
0.00228649
0.00228623
0.00228592
0.00228537
0.00228481
0.00228406
0.0022834
0.00228262
0.00228202
0.00228133
0.00228086
0.00228031
0.00228003
0.00227968
0.00227957
0.00227935
0.00227933
0.00227918
0.00227921
0.00227908
0.00227918
0.00227915
0.00227941
0.0022795
0.00227992
0.00228022
0.00228018
4.13718e-06
3.80386e-05
8.92565e-05
0.000163731
0.000253898
0.000345026
0.000430378
0.000505505
0.000571339
0.000628977
0.000676501
0.000718994
0.000756932
0.000791033
0.000821689
0.000850145
0.000876754
0.000902534
0.000928288
0.000954393
0.000981156
0.00100907
0.00103772
0.00103493
0.00102709
0.00101387
0.00100524
0.00100567
0.000993994
0.00098782
0.000967058
0.000953136
0.000952631
0.000937815
0.00096284
0.000929159
0.000929648
0.000892704
0.000875455
0.000866454
0.000850617
0.000834189
0.000827171
0.00081773
0.000824545
0.000819441
0.0008362
0.000835013
0.000864897
0.000862449
0.000895156
0.000907957
0.00093315
0.000969023
0.00097898
0.00101431
0.00103067
0.00107345
0.00109293
0.00113595
0.00115808
0.00119968
0.00123364
0.00125498
0.00128935
0.00131712
0.00134091
0.00137299
0.00140217
0.0014337
0.00146248
0.00149803
0.00152472
0.00155711
0.00158916
0.00162219
0.00165408
0.00168353
0.0017177
0.00174799
0.00176971
0.00179548
0.00182988
0.00186316
0.00188482
0.0019102
0.0019412
0.00197533
0.00200409
0.00201417
0.00203104
0.00205581
0.00209014
0.00211864
0.00212524
0.00213848
0.00216152
0.00219033
0.00221023
0.00222489
0.0022342
0.00224252
0.00225119
0.0022617
0.0022714
0.00227942
0.00228655
0.00229354
0.00229969
0.00230414
0.00230786
0.00231065
0.00231333
0.00231552
0.00231813
0.00232268
0.0023283
0.0023336
0.00233775
0.00234139
0.00234459
0.00234724
0.0023491
0.00235119
0.00235343
0.0023567
0.00236246
0.00236904
0.00237645
0.00238367
0.00239084
0.00239783
0.00240388
0.00240932
0.0024136
0.00241694
0.00241896
0.00241981
0.00242068
0.00242177
0.00242287
0.0024244
0.00242595
0.00242819
0.00243045
0.00243275
0.00243482
0.00243668
0.00243862
0.00244023
0.00244172
0.00244249
0.00244345
0.0024443
0.00244486
0.00244556
0.00244612
0.00244684
0.00244752
0.00244836
0.00244934
0.00245059
0.00245206
0.00245375
0.00245567
0.00245768
0.00245975
0.00246176
0.00246365
0.00246554
0.00246698
0.00246835
0.00246902
0.00246974
0.00247028
0.00247073
0.00247097
0.00247116
0.00247122
0.00247143
0.00247145
0.00247174
0.00247212
0.0024727
0.00247338
0.00247427
0.00247534
0.00247668
0.00247822
0.00248008
0.00248203
0.00248409
0.00248603
0.00248797
0.00248887
0.0024895
0.00248985
0.00248985
0.00248961
0.00248933
0.00248901
0.00248886
0.00248905
0.00248965
0.00249044
0.00249156
0.00249295
0.00249477
0.00249675
0.00249898
0.00250098
0.00250303
0.00250506
0.00250603
0.00250707
0.00250807
0.00250877
0.00250946
0.00250993
0.00251051
0.00251094
0.00251156
0.00251206
0.0025128
0.00251342
0.00251433
0.00251514
0.00251622
0.00251716
0.00251832
0.00251929
0.00252047
0.00252143
0.00252265
0.00252369
0.00252505
0.0025262
0.00252772
0.0025291
0.0025306
5.44007e-06
5.08765e-05
0.000117092
0.000202599
0.000298457
0.00039261
0.000478685
0.000554302
0.000621159
0.00067887
0.000727252
0.000770376
0.000808269
0.000841297
0.000869818
0.000894914
0.000916915
0.000936884
0.000955575
0.000973005
0.000990375
0.000978145
0.000953627
0.000926424
0.000912278
0.000897071
0.000881005
0.000875419
0.000849505
0.000834203
0.000817444
0.000803043
0.000824664
0.000787488
0.000787417
0.000738851
0.000722264
0.000684307
0.000660154
0.000637153
0.000637645
0.00060506
0.000613917
0.000595268
0.000617684
0.00060781
0.000637614
0.000632218
0.000665264
0.000662374
0.000697397
0.000694057
0.00073508
0.000749029
0.000757519
0.000767971
0.00077934
0.000792079
0.000803941
0.000820025
0.000835196
0.000852289
0.000872962
0.000892192
0.000915207
0.000938345
0.000961226
0.000987849
0.00101447
0.00104456
0.00107419
0.0011066
0.00113966
0.00117437
0.00120887
0.00124505
0.00128039
0.00131696
0.00134782
0.00137407
0.00139402
0.00141441
0.00144096
0.00147036
0.00149408
0.00151826
0.00154546
0.00157686
0.00160928
0.00162843
0.00164794
0.00167192
0.00170482
0.00173831
0.00175939
0.00177677
0.0018018
0.00183284
0.00186138
0.00188439
0.00191126
0.00193703
0.00195355
0.00196979
0.00199093
0.00201593
0.00203637
0.00205345
0.00206777
0.00208643
0.0021093
0.00213477
0.00216028
0.00217722
0.0021872
0.00219767
0.00220878
0.00221929
0.00222872
0.00223734
0.00224562
0.00225383
0.00226127
0.00226891
0.00227595
0.00228443
0.0022943
0.00230479
0.00231581
0.0023269
0.00233759
0.00234816
0.00235763
0.0023667
0.00237445
0.00238155
0.00238747
0.00239239
0.00239722
0.00240211
0.00240697
0.00241211
0.00241717
0.00242276
0.00242841
0.00243412
0.00243956
0.00244481
0.00244999
0.00245504
0.00245984
0.00246401
0.00246822
0.0024724
0.00247623
0.00248011
0.0024838
0.00248755
0.00249119
0.00249492
0.0024987
0.00250271
0.00250689
0.00251128
0.00251586
0.00252053
0.00252524
0.00252991
0.00253441
0.00253891
0.00254304
0.00254703
0.00255024
0.00255347
0.00255648
0.0025594
0.00256208
0.0025647
0.00256715
0.00256974
0.00257211
0.00257473
0.00257741
0.00258027
0.0025832
0.00258632
0.0025896
0.0025931
0.00259681
0.00260079
0.00260484
0.00260895
0.00261294
0.00261691
0.00261986
0.00262245
0.00262478
0.00262678
0.0026285
0.00263017
0.00263181
0.00263359
0.00263573
0.00263825
0.00264093
0.00264393
0.00264715
0.00265078
0.00265454
0.00265855
0.00266237
0.00266617
0.00266996
0.00267268
0.0026754
0.0026781
0.00268044
0.00268277
0.00268487
0.00268706
0.0026891
0.00269133
0.00269342
0.00269575
0.00269793
0.00270041
0.00270276
0.0027054
0.00270785
0.00271056
0.00271302
0.0027157
0.00271812
0.00272081
0.00272326
0.00272607
0.00272861
0.00273156
0.00273432
0.0027379
6.7092e-06
6.32009e-05
0.000142715
0.000235489
0.000334772
0.000429716
0.000515424
0.00059081
0.000658448
0.000716753
0.000766063
0.000809469
0.000846806
0.000878101
0.000903512
0.000923954
0.000939797
0.000952162
0.000961561
0.000946152
0.00091403
0.000872917
0.000841728
0.000817714
0.000801119
0.00078223
0.000761351
0.000751816
0.000726916
0.00071185
0.000723286
0.000695834
0.000703993
0.00065764
0.000632824
0.000587
0.000553669
0.000515454
0.000489512
0.000457802
0.000465746
0.000445285
0.00046482
0.000460508
0.000498853
0.000508759
0.000522034
0.000523707
0.000524952
0.000525551
0.000524762
0.000525475
0.000529299
0.000534203
0.000536081
0.00053913
0.000542159
0.000546129
0.000551564
0.000557309
0.000565283
0.000573242
0.000585813
0.000594962
0.000607472
0.000619213
0.000632147
0.000647361
0.000663326
0.000681366
0.000700017
0.000721017
0.000742432
0.000765594
0.000790532
0.000816246
0.000844016
0.000872017
0.000902128
0.000932266
0.000962891
0.000994177
0.00102782
0.00106205
0.00109626
0.00113078
0.00116653
0.00120242
0.001238
0.0012714
0.00130593
0.0013406
0.00136567
0.00139579
0.00141948
0.00143518
0.00145545
0.00148266
0.00151016
0.00153316
0.0015587
0.00158519
0.00160572
0.00162338
0.00164581
0.00167181
0.00169683
0.00171776
0.00173623
0.00176137
0.00178756
0.00181698
0.00184785
0.00187753
0.00190646
0.00192107
0.00193574
0.00194757
0.00195927
0.00197547
0.00199531
0.00201941
0.00204561
0.00207348
0.00209789
0.00211699
0.00212976
0.00214091
0.00214853
0.0021617
0.00217194
0.00218381
0.00219395
0.00220917
0.00222031
0.00223836
0.00225701
0.00228212
0.00229919
0.00231141
0.00232066
0.00232981
0.00233875
0.00234801
0.00235733
0.00236674
0.00237577
0.00238467
0.00239343
0.00240219
0.00241057
0.00241851
0.00242629
0.00243396
0.00244127
0.00244857
0.0024556
0.00246263
0.0024695
0.0024764
0.00248323
0.00249021
0.00249731
0.00250459
0.002512
0.00251953
0.00252705
0.00253458
0.00254189
0.00254924
0.00255619
0.00256302
0.00256901
0.00257499
0.00258071
0.00258631
0.00259167
0.00259696
0.00260206
0.00260728
0.00261226
0.00261747
0.00262271
0.00262808
0.00263351
0.00263909
0.00264482
0.00265072
0.00265682
0.00266314
0.00266951
0.00267588
0.00268217
0.00268837
0.00269361
0.00269847
0.00270308
0.00270734
0.00271135
0.00271529
0.00271919
0.00272321
0.00272761
0.00273233
0.0027372
0.00274234
0.00274766
0.00275336
0.00275912
0.00276515
0.00277104
0.00277684
0.00278264
0.00278742
0.00279215
0.00279681
0.00280112
0.00280538
0.00280941
0.00281352
0.00281749
0.00282163
0.00282564
0.00282985
0.00283391
0.00283825
0.00284245
0.00284694
0.00285123
0.00285578
0.00286004
0.00286453
0.0028687
0.00287314
0.00287731
0.00288183
0.00288608
0.00289071
0.00289513
0.00290123
7.86447e-06
7.41473e-05
0.000164561
0.000262102
0.00036259
0.000456943
0.000542992
0.000619077
0.000687157
0.000745623
0.000795298
0.000838424
0.00087456
0.000903245
0.000924343
0.000938474
0.000946141
0.000943309
0.000897761
0.00084571
0.000804206
0.000767346
0.000738078
0.000714358
0.000701016
0.00068437
0.000664731
0.000656051
0.000654117
0.000638424
0.000653777
0.000613203
0.000591507
0.000546562
0.000503242
0.000457234
0.000409598
0.000373183
0.000339071
0.000317346
0.000310619
0.000305388
0.000324987
0.000334512
0.000366833
0.000383853
0.000393685
0.000398089
0.000403403
0.000408023
0.000411627
0.000412953
0.000414258
0.0004164
0.000415062
0.000414319
0.000414356
0.00041596
0.000417481
0.000421433
0.000425079
0.000430513
0.000436874
0.000442189
0.000447855
0.000453542
0.00045953
0.000467506
0.000474222
0.000482464
0.000490313
0.000499707
0.000508921
0.000519355
0.000530978
0.000543218
0.000556701
0.000571019
0.000586599
0.000603144
0.000620757
0.000639489
0.000660006
0.000682001
0.000705442
0.000729795
0.000755759
0.000783166
0.000811172
0.000839875
0.000869116
0.000900398
0.000932912
0.000966221
0.000999679
0.00103211
0.00106659
0.00110112
0.00113694
0.00117018
0.00120492
0.00123849
0.00127164
0.00130401
0.00133822
0.00137155
0.00139326
0.00141603
0.00143325
0.00145612
0.0014808
0.00150796
0.00153484
0.00156363
0.00159233
0.00160838
0.00162294
0.00163662
0.00165327
0.0016727
0.0016958
0.00172174
0.00175019
0.00178062
0.0018117
0.00183307
0.00185041
0.00186528
0.00187741
0.00189207
0.00190372
0.00191811
0.00192993
0.00194645
0.00195919
0.00198123
0.00200429
0.00203217
0.00205332
0.00207569
0.00209592
0.00211414
0.00213106
0.0021468
0.00216175
0.00217794
0.0021949
0.0022102
0.0022257
0.00224251
0.00225708
0.00227539
0.0022901
0.00230588
0.00232195
0.00233792
0.00235306
0.00236821
0.00238235
0.00239675
0.00240902
0.00241935
0.00242958
0.00243995
0.00245035
0.00246089
0.00247137
0.00248195
0.00249224
0.00250254
0.00251238
0.00252218
0.00253114
0.00254003
0.00254862
0.0025571
0.00256531
0.00257344
0.00258137
0.00258939
0.00259716
0.00260513
0.00261309
0.00262117
0.00262925
0.00263748
0.0026458