/*--------------------------------*- C++ -*----------------------------------*\
| =========                 |                                                 |
| \\      /  F ield         | OpenFOAM: The Open Source CFD Toolbox           |
|  \\    /   O peration     | Version:  2312                                  |
|   \\  /    A nd           | Website:  www.openfoam.com                      |
|    \\/     M anipulation  |                                                 |
\*---------------------------------------------------------------------------*/
FoamFile
{
    version     2.0;
    format      ascii;
    arch        "LSB;label=32;scalar=64";
    class       volScalarField;
    location    "0.003";
    object      cSound;
}
// * * * * * * * * * * * * * * * * * * * * * * * * * * * * * * * * * * * * * //

dimensions      [0 1 -1 0 0 0 0];

internalField   nonuniform List<scalar> 
48128
(
300.943
300.987
301.117
301.227
301.24
301.247
301.258
301.141
300.813
300.241
299.562
298.913
298.268
297.715
297.305
296.956
296.665
296.445
296.304
296.244
296.326
296.556
296.943
297.456
298.117
298.927
299.872
300.925
302.054
303.311
304.686
306.174
307.751
309.379
311.005
312.615
314.164
315.652
317.13
318.191
319.068
321.616
322.18
322.644
323.074
323.434
323.717
323.931
324.113
324.239
324.333
324.37
324.436
324.453
324.462
324.416
324.362
324.273
324.184
324.111
324.002
323.957
323.928
323.897
323.877
323.813
323.774
323.726
323.71
323.711
323.729
323.774
323.834
323.902
323.995
324.099
324.228
324.358
324.47
324.652
324.936
325.07
325.181
325.327
325.625
325.776
325.885
325.962
326.128
326.581
326.763
326.893
326.981
327.135
327.56
327.737
327.881
328.012
328.262
328.426
328.566
328.72
329.07
329.266
329.433
329.589
329.809
329.99
330.147
330.296
330.421
330.534
330.666
330.825
331.034
331.31
331.549
331.769
331.974
332.162
332.318
332.452
332.588
332.765
332.957
333.154
333.481
333.734
334.017
334.257
334.493
334.693
334.876
335.048
335.208
335.345
335.453
335.571
335.709
335.85
335.999
336.159
336.315
336.488
336.654
336.815
336.973
337.133
337.281
337.42
337.566
337.698
337.833
337.962
338.089
338.219
338.351
338.485
338.618
338.759
338.896
339.042
339.19
339.342
339.488
339.638
339.783
339.924
340.062
340.19
340.314
340.435
340.546
340.656
340.76
340.861
340.958
341.054
341.151
341.247
341.343
341.441
341.541
341.645
341.749
341.858
341.967
342.079
342.193
342.312
342.43
342.543
342.652
342.745
342.835
342.916
342.984
343.048
343.111
343.174
343.24
343.309
343.384
343.464
343.551
343.642
343.737
343.835
343.936
344.03
344.119
344.207
344.28
344.346
344.417
344.482
344.539
344.598
344.653
344.708
344.763
344.819
344.875
344.933
344.991
345.05
345.11
345.169
345.229
345.288
345.346
345.405
345.462
345.52
345.576
345.634
345.689
345.748
345.798
345.835
300.876
300.929
300.969
300.956
300.887
300.781
300.52
299.991
299.139
298.051
296.981
295.985
295.04
294.266
293.706
293.271
292.947
292.745
292.674
292.754
292.964
293.331
293.848
294.537
295.404
296.447
297.653
299.015
300.55
302.204
303.917
305.687
307.469
309.273
310.99
312.716
314.271
315.445
317.356
318.256
319.083
320.022
320.613
321.019
321.34
321.566
321.705
321.769
321.745
321.639
321.499
321.292
321.116
320.922
320.727
320.504
320.269
320.018
319.763
319.51
319.238
319.009
318.805
318.608
318.417
318.197
317.989
317.778
317.584
317.414
317.257
317.123
317.009
316.909
316.824
316.752
316.708
316.685
316.638
316.617
316.757
316.758
316.718
316.685
316.843
316.853
316.825
316.779
316.725
317.046
317.09
317.084
317.062
317.024
317.324
317.377
317.386
317.392
317.507
317.545
317.562
317.568
317.789
317.858
317.904
317.948
318.05
318.108
318.157
318.193
318.21
318.198
318.194
318.213
318.242
318.387
318.494
318.606
318.717
318.809
318.882
318.922
318.955
319.018
319.105
319.205
319.433
319.592
319.794
319.977
320.148
320.309
320.451
320.57
320.667
320.747
320.794
320.838
320.897
320.97
321.044
321.146
321.241
321.362
321.463
321.564
321.662
321.762
321.852
321.936
322.025
322.103
322.184
322.259
322.333
322.411
322.492
322.579
322.667
322.761
322.856
322.959
323.063
323.171
323.278
323.386
323.491
323.593
323.693
323.787
323.868
323.952
324.024
324.098
324.168
324.234
324.298
324.362
324.427
324.492
324.559
324.63
324.703
324.779
324.858
324.942
325.027
325.117
325.211
325.309
325.406
325.5
325.588
325.665
325.727
325.787
325.837
325.882
325.925
325.971
326.02
326.077
326.14
326.207
326.283
326.365
326.45
326.54
326.631
326.717
326.797
326.875
326.946
326.996
327.057
327.114
327.164
327.216
327.265
327.315
327.365
327.416
327.469
327.523
327.578
327.634
327.69
327.747
327.804
327.862
327.918
327.975
328.031
328.088
328.143
328.201
328.257
328.316
328.368
328.396
300.808
300.792
300.756
300.677
300.573
300.358
299.927
299.223
298.286
297.237
296.16
295.201
294.34
293.654
293.19
292.843
292.617
292.515
292.54
292.692
292.984
293.434
294.049
294.839
295.808
296.944
298.215
299.599
301.091
302.68
304.317
306.029
307.692
309.493
310.958
312.595
314.08
315.105
316.238
317.054
317.733
318.281
318.654
318.891
319.046
319.109
319.086
318.993
318.826
318.588
318.329
318.027
317.778
317.538
317.299
317.036
316.771
316.496
316.227
315.954
315.667
315.43
315.222
315.02
314.822
314.591
314.373
314.156
313.955
313.778
313.611
313.465
313.334
313.215
313.108
313.013
312.943
312.888
312.808
312.75
312.849
312.81
312.733
312.666
312.776
312.748
312.683
312.594
312.508
312.776
312.774
312.729
312.663
312.594
312.835
312.844
312.811
312.784
312.85
312.849
312.82
312.791
312.961
312.986
312.987
312.991
313.045
313.061
313.065
313.058
313.036
312.985
312.944
312.921
312.908
313.002
313.058
313.117
313.174
313.218
313.245
313.242
313.236
313.254
313.294
313.339
313.521
313.636
313.791
313.929
314.059
314.179
314.284
314.372
314.439
314.488
314.509
314.524
314.552
314.587
314.627
314.685
314.74
314.819
314.888
314.954
315.018
315.085
315.152
315.207
315.269
315.322
315.379
315.43
315.479
315.533
315.589
315.651
315.713
315.782
315.852
315.931
316.009
316.092
316.174
316.258
316.338
316.417
316.494
316.565
316.627
316.69
316.744
316.798
316.849
316.897
316.943
316.988
317.036
317.083
317.133
317.186
317.242
317.302
317.364
317.432
317.501
317.575
317.653
317.736
317.817
317.897
317.971
318.035
318.087
318.135
318.174
318.209
318.242
318.279
318.318
318.364
318.417
318.475
318.541
318.612
318.688
318.768
318.85
318.927
319
319.071
319.135
319.18
319.234
319.286
319.331
319.378
319.422
319.468
319.514
319.561
319.61
319.66
319.711
319.763
319.816
319.869
319.923
319.977
320.031
320.084
320.138
320.192
320.245
320.3
320.354
320.411
320.463
320.489
300.621
300.616
300.535
300.447
300.293
299.97
299.435
298.726
297.844
296.855
295.855
294.952
294.165
293.551
293.154
292.868
292.711
292.677
292.759
292.968
293.318
293.823
294.487
295.308
296.274
297.369
298.587
299.907
301.315
302.821
304.33
306.03
307.348
309.224
310.405
311.596
312.695
313.602
314.425
315.025
315.486
315.781
315.924
315.971
315.933
315.825
315.641
315.398
315.076
314.716
314.347
313.974
313.673
313.422
313.178
312.904
312.65
312.39
312.161
311.933
311.69
311.51
311.375
311.234
311.095
310.909
310.741
310.573
310.425
310.299
310.177
310.074
309.98
309.896
309.819
309.753
309.708
309.673
309.607
309.555
309.659
309.628
309.554
309.494
309.595
309.571
309.511
309.422
309.342
309.577
309.578
309.537
309.467
309.399
309.603
309.607
309.568
309.539
309.583
309.573
309.534
309.497
309.647
309.657
309.647
309.639
309.671
309.674
309.663
309.642
309.605
309.544
309.493
309.458
309.434
309.51
309.548
309.585
309.617
309.637
309.643
309.622
309.599
309.598
309.618
309.646
309.798
309.889
310.016
310.125
310.228
310.321
310.401
310.465
310.512
310.542
310.548
310.546
310.559
310.577
310.6
310.638
310.673
310.731
310.778
310.823
310.868
310.914
310.958
310.995
311.036
311.068
311.105
311.141
311.175
311.213
311.253
311.298
311.343
311.395
311.447
311.508
311.568
311.634
311.697
311.764
311.828
311.891
311.952
312.01
312.059
312.107
312.148
312.19
312.228
312.264
312.298
312.331
312.366
312.402
312.439
312.481
312.524
312.572
312.622
312.678
312.736
312.798
312.864
312.936
313.006
313.075
313.139
313.194
313.237
313.277
313.309
313.336
313.362
313.391
313.423
313.461
313.506
313.557
313.615
313.678
313.746
313.818
313.893
313.963
314.03
314.095
314.153
314.194
314.243
314.291
314.331
314.375
314.415
314.457
314.499
314.543
314.587
314.634
314.681
314.73
314.779
314.83
314.88
314.931
314.982
315.033
315.084
315.135
315.187
315.239
315.291
315.346
315.397
315.422
300.462
300.422
300.336
300.247
300.018
299.606
299.077
298.416
297.545
296.586
295.658
294.846
294.155
293.621
293.286
293.065
292.965
292.969
293.084
293.316
293.676
294.174
294.81
295.576
296.472
297.494
298.632
299.871
301.161
302.608
303.753
305.527
306.536
307.756
308.739
309.647
310.478
311.12
311.676
311.989
312.153
312.259
312.121
311.976
311.714
311.464
311.111
310.752
310.27
309.818
309.377
308.965
308.646
308.43
308.226
307.972
307.776
307.563
307.41
307.264
307.088
306.994
306.972
306.912
306.873
306.749
306.662
306.582
306.513
306.476
306.427
306.403
306.374
306.352
306.332
306.319
306.323
306.333
306.301
306.28
306.404
306.405
306.36
306.33
306.437
306.441
306.409
306.347
306.294
306.497
306.532
306.513
306.464
306.416
306.587
306.61
306.586
306.57
306.608
306.608
306.576
306.551
306.682
306.698
306.693
306.69
306.715
306.72
306.707
306.687
306.65
306.593
306.546
306.51
306.487
306.558
306.591
306.62
306.639
306.65
306.65
306.624
306.598
306.591
306.599
306.629
306.759
306.838
306.946
307.038
307.125
307.201
307.265
307.314
307.348
307.369
307.367
307.356
307.361
307.371
307.385
307.413
307.438
307.484
307.52
307.555
307.588
307.621
307.654
307.681
307.709
307.729
307.754
307.776
307.797
307.824
307.852
307.885
307.919
307.958
307.998
308.044
308.09
308.142
308.193
308.247
308.299
308.352
308.402
308.453
308.494
308.534
308.566
308.599
308.629
308.656
308.681
308.706
308.732
308.76
308.789
308.821
308.856
308.896
308.938
308.985
309.034
309.088
309.146
309.209
309.271
309.332
309.389
309.436
309.474
309.507
309.533
309.556
309.576
309.599
309.626
309.659
309.699
309.743
309.795
309.853
309.915
309.982
310.05
310.115
310.178
310.238
310.291
310.33
310.375
310.419
310.457
310.497
310.534
310.573
310.613
310.653
310.695
310.739
310.784
310.83
310.877
310.924
310.972
311.021
311.07
311.119
311.168
311.217
311.267
311.318
311.368
311.421
311.471
311.496
300.259
300.23
300.163
300.028
299.732
299.298
298.808
298.107
297.273
296.399
295.571
294.849
294.243
293.787
293.497
293.309
293.227
293.238
293.35
293.566
293.893
294.334
294.895
295.579
296.392
297.331
298.364
299.527
300.503
301.896
302.741
303.799
304.641
305.443
306.106
306.611
307.107
307.335
307.587
307.58
307.39
307.371
306.956
306.705
306.185
305.846
305.389
304.967
304.464
303.975
303.557
303.168
302.848
302.74
302.552
302.382
302.219
302.106
302.011
301.982
301.884
301.873
302.01
301.999
302.121
302.066
302.071
302.127
302.126
302.225
302.241
302.34
302.382
302.438
302.496
302.547
302.615
302.682
302.704
302.73
302.87
302.93
302.937
302.957
303.075
303.13
303.142
303.129
303.115
303.285
303.373
303.39
303.377
303.362
303.497
303.563
303.568
303.579
303.622
303.644
303.637
303.636
303.743
303.787
303.802
303.817
303.845
303.864
303.859
303.851
303.825
303.783
303.753
303.726
303.717
303.784
303.824
303.851
303.866
303.878
303.884
303.861
303.843
303.841
303.849
303.886
304.001
304.074
304.174
304.255
304.332
304.399
304.455
304.497
304.525
304.543
304.542
304.528
304.532
304.539
304.551
304.574
304.596
304.636
304.666
304.695
304.723
304.75
304.779
304.8
304.822
304.837
304.856
304.871
304.885
304.903
304.923
304.947
304.972
305.002
305.034
305.073
305.111
305.156
305.199
305.245
305.29
305.335
305.378
305.422
305.458
305.491
305.517
305.545
305.569
305.59
305.61
305.63
305.651
305.673
305.696
305.723
305.753
305.787
305.823
305.865
305.909
305.958
306.01
306.068
306.124
306.18
306.231
306.274
306.308
306.336
306.359
306.378
306.395
306.416
306.439
306.469
306.505
306.547
306.595
306.648
306.707
306.769
306.834
306.895
306.955
307.011
307.062
307.099
307.142
307.184
307.219
307.257
307.293
307.331
307.368
307.407
307.448
307.489
307.533
307.577
307.623
307.669
307.716
307.763
307.81
307.858
307.906
307.955
308.003
308.053
308.103
308.155
308.203
308.229
300.025
300.038
299.966
299.788
299.451
299.045
298.53
297.853
297.075
296.286
295.549
294.901
294.361
293.96
293.691
293.509
293.421
293.414
293.492
293.656
293.903
294.259
294.732
295.33
296.042
296.906
297.663
298.713
299.341
300.116
300.722
301.288
301.643
301.831
301.956
301.786
301.92
301.571
301.607
301.369
301.021
301.011
300.506
300.274
299.798
299.501
299.024
298.657
298.262
297.85
297.424
297.014
296.579
296.629
296.364
296.339
296.152
296.197
296.089
296.238
296.252
296.226
296.598
296.602
296.961
297.038
297.043
297.335
297.373
297.637
297.706
297.928
298.043
298.147
298.283
298.388
298.525
298.64
298.735
298.82
298.972
299.086
299.187
299.267
299.399
299.505
299.593
299.639
299.67
299.833
299.95
300.034
300.073
300.095
300.217
300.317
300.379
300.423
300.485
300.54
300.574
300.599
300.694
300.773
300.823
300.862
300.904
300.939
300.955
300.968
300.96
300.947
300.941
300.936
300.94
301.011
301.062
301.096
301.119
301.135
301.153
301.141
301.144
301.156
301.175
301.209
301.321
301.397
301.489
301.566
301.64
301.704
301.757
301.799
301.832
301.85
301.861
301.85
301.858
301.869
301.883
301.905
301.929
301.966
301.995
302.025
302.052
302.079
302.108
302.128
302.15
302.162
302.18
302.194
302.205
302.219
302.235
302.254
302.276
302.301
302.33
302.364
302.398
302.439
302.479
302.522
302.563
302.605
302.645
302.683
302.717
302.747
302.769
302.793
302.814
302.833
302.851
302.868
302.886
302.906
302.927
302.952
302.979
303.011
303.044
303.083
303.125
303.172
303.221
303.276
303.329
303.382
303.431
303.471
303.502
303.53
303.551
303.57
303.585
303.605
303.627
303.656
303.691
303.731
303.777
303.829
303.886
303.946
304.009
304.068
304.126
304.181
304.23
304.267
304.309
304.35
304.385
304.423
304.459
304.495
304.533
304.571
304.611
304.653
304.695
304.74
304.784
304.83
304.877
304.924
304.971
305.019
305.066
305.115
305.163
305.213
305.263
305.315
305.364
305.39
299.799
299.814
299.743
299.533
299.183
298.785
298.284
297.64
296.931
296.218
295.549
294.959
294.471
294.099
293.829
293.635
293.516
293.463
293.472
293.541
293.697
293.956
294.335
294.85
295.327
296.068
296.482
296.979
297.326
297.553
297.564
297.391
297.043
296.36
296.18
295.365
295.398
294.704
294.765
294.409
293.796
293.631
292.95
292.625
292.219
291.83
291.485
291.111
290.881
290.521
290.387
290.264
289.849
290.252
289.757
290.013
289.646
290.002
289.769
290.19
290.272
290.323
290.828
290.836
291.367
291.549
291.592
292.032
292.162
292.523
292.685
292.998
293.203
293.393
293.617
293.806
294.015
294.202
294.386
294.55
294.731
294.901
295.089
295.237
295.392
295.546
295.704
295.812
295.903
296.055
296.209
296.36
296.458
296.538
296.652
296.798
296.912
297.009
297.105
297.199
297.277
297.347
297.438
297.555
297.643
297.715
297.783
297.842
297.89
297.926
297.953
297.982
298.008
298.035
298.05
298.139
298.205
298.25
298.286
298.313
298.343
298.361
298.395
298.414
298.453
298.487
298.601
298.68
298.77
298.85
298.927
298.995
299.053
299.102
299.141
299.168
299.198
299.2
299.217
299.236
299.253
299.282
299.308
299.347
299.382
299.415
299.447
299.479
299.508
299.535
299.558
299.574
299.593
299.608
299.619
299.633
299.648
299.667
299.689
299.715
299.744
299.779
299.814
299.855
299.895
299.938
299.98
300.022
300.063
300.101
300.134
300.162
300.184
300.208
300.23
300.249
300.267
300.285
300.304
300.324
300.346
300.371
300.398
300.43
300.464
300.503
300.545
300.592
300.641
300.695
300.748
300.8
300.849
300.889
300.921
300.949
300.971
300.992
301.009
301.03
301.053
301.083
301.118
301.159
301.206
301.257
301.314
301.374
301.436
301.496
301.553
301.609
301.658
301.697
301.739
301.781
301.817
301.856
301.892
301.93
301.968
302.008
302.049
302.091
302.134
302.179
302.225
302.272
302.319
302.367
302.415
302.463
302.512
302.561
302.611
302.662
302.712
302.765
302.815
302.842
299.575
299.563
299.489
299.257
298.937
298.566
298.07
297.472
296.825
296.173
295.557
295.01
294.551
294.186
293.899
293.669
293.494
293.357
293.258
293.232
293.293
293.45
293.655
294.021
294.213
294.469
294.595
294.556
294.278
293.747
292.931
291.804
291.146
289.82
289.572
288.432
288.244
287.151
286.767
286.22
285.329
284.738
284.067
283.455
283.185
282.574
282.645
282.132
282.508
282.003
282.408
282.546
282.493
283.41
283.065
283.646
283.177
283.779
283.493
284.119
284.186
284.473
284.941
284.931
285.596
285.823
285.889
286.414
286.582
287.011
287.219
287.62
287.898
288.167
288.474
288.744
289.031
289.293
289.557
289.8
290.036
290.265
290.528
290.75
290.961
291.174
291.401
291.585
291.748
291.923
292.12
292.329
292.499
292.647
292.79
292.972
293.139
293.292
293.434
293.569
293.692
293.803
293.918
294.067
294.194
294.303
294.407
294.499
294.584
294.659
294.73
294.804
294.87
294.933
294.978
295.076
295.16
295.221
295.276
295.326
295.376
295.428
295.486
295.532
295.587
295.633
295.751
295.837
295.933
296.021
296.107
296.185
296.255
296.318
296.374
296.42
296.467
296.49
296.52
296.551
296.58
296.616
296.651
296.697
296.741
296.783
296.823
296.863
296.899
296.935
296.963
296.984
297.007
297.022
297.036
297.054
297.073
297.096
297.122
297.154
297.188
297.229
297.269
297.315
297.36
297.408
297.454
297.501
297.545
297.586
297.621
297.652
297.677
297.703
297.729
297.751
297.774
297.795
297.817
297.841
297.866
297.895
297.925
297.96
297.997
298.039
298.083
298.133
298.185
298.241
298.296
298.35
298.401
298.443
298.478
298.51
298.535
298.559
298.579
298.604
298.63
298.663
298.7
298.744
298.793
298.846
298.904
298.967
299.03
299.092
299.15
299.207
299.259
299.301
299.346
299.39
299.428
299.469
299.508
299.548
299.589
299.63
299.673
299.717
299.763
299.81
299.858
299.906
299.956
300.005
300.055
300.106
300.156
300.207
300.259
300.311
300.364
300.418
300.47
300.5
299.34
299.298
299.218
298.982
298.707
298.366
297.889
297.338
296.741
296.137
295.562
295.042
294.593
294.215
293.891
293.6
293.333
293.082
292.886
292.751
292.681
292.648
292.628
292.615
292.542
292.319
291.865
291.118
289.995
288.499
287.171
285.381
284.762
282.962
282.406
280.472
279.972
278.123
277.502
276.407
275.899
274.595
274.525
273.222
273.883
272.594
273.747
272.837
274.085
273.429
274.667
274.695
275.588
276.51
276.252
277.387
277.129
277.969
277.661
278.498
278.467
279.132
279.513
279.448
280.22
280.442
280.509
281.068
281.206
281.66
281.835
282.269
282.54
282.848
283.177
283.457
283.785
284.078
284.386
284.672
284.951
285.214
285.539
285.821
286.093
286.359
286.649
286.908
287.147
287.371
287.614
287.881
288.117
288.332
288.533
288.751
288.969
289.179
289.38
289.568
289.747
289.909
290.064
290.25
290.42
290.577
290.729
290.863
290.989
291.114
291.233
291.349
291.457
291.554
291.638
291.744
291.848
291.929
292.007
292.086
292.167
292.255
292.34
292.42
292.494
292.565
292.691
292.79
292.897
293.002
293.104
293.199
293.289
293.374
293.454
293.53
293.596
293.643
293.687
293.733
293.78
293.831
293.881
293.94
293.998
294.055
294.109
294.161
294.21
294.255
294.29
294.317
294.343
294.369
294.394
294.422
294.45
294.483
294.518
294.558
294.602
294.653
294.705
294.76
294.815
294.872
294.926
294.981
295.032
295.077
295.119
295.158
295.189
295.223
295.255
295.284
295.314
295.341
295.371
295.401
295.432
295.467
295.503
295.544
295.586
295.634
295.683
295.738
295.795
295.856
295.915
295.974
296.029
296.076
296.116
296.154
296.185
296.214
296.24
296.27
296.301
296.338
296.381
296.428
296.481
296.539
296.6
296.665
296.732
296.797
296.859
296.919
296.975
297.021
297.07
297.118
297.16
297.205
297.247
297.291
297.335
297.38
297.426
297.474
297.523
297.573
297.624
297.676
297.728
297.781
297.834
297.887
297.941
297.995
298.049
298.105
298.161
298.217
298.272
298.305
299.107
299.029
298.935
298.737
298.51
298.182
297.736
297.227
296.672
296.106
295.56
295.054
294.596
294.182
293.797
293.414
293.031
292.678
292.365
292.022
291.747
291.466
291.185
290.816
290.239
289.387
288.158
286.528
284.649
282.331
281.081
278.808
277.77
275.257
273.894
271.435
270.063
268.045
266.712
265.487
265.149
263.081
263.866
261.836
263.735
262.462
264.697
263.809
266.023
265.498
267.638
267.49
269.352
270.153
269.979
271.491
271.492
272.787
272.54
273.549
273.465
274.479
274.804
274.716
275.557
275.767
275.902
276.438
276.521
276.995
277.107
277.541
277.734
278.074
278.347
278.581
278.884
279.131
279.427
279.667
279.942
280.189
280.519
280.773
281.075
281.359
281.668
281.95
282.234
282.502
282.77
283.079
283.357
283.628
283.885
284.137
284.394
284.669
284.925
285.167
285.401
285.619
285.826
286.05
286.267
286.476
286.677
286.858
287.028
287.194
287.338
287.468
287.608
287.756
287.897
288.034
288.173
288.29
288.405
288.521
288.635
288.746
288.855
288.983
289.099
289.208
289.355
289.479
289.603
289.734
289.86
289.978
290.096
290.21
290.318
290.429
290.509
290.575
290.637
290.7
290.772
290.848
290.924
291.005
291.084
291.161
291.233
291.301
291.361
291.417
291.464
291.507
291.55
291.594
291.637
291.682
291.727
291.776
291.827
291.881
291.938
292.001
292.066
292.137
292.206
292.277
292.343
292.409
292.468
292.526
292.581
292.632
292.675
292.721
292.764
292.804
292.844
292.883
292.922
292.962
293.003
293.047
293.092
293.141
293.193
293.248
293.307
293.369
293.434
293.502
293.568
293.633
293.695
293.75
293.798
293.843
293.881
293.918
293.952
293.988
294.027
294.07
294.119
294.172
294.23
294.294
294.36
294.43
294.501
294.572
294.639
294.704
294.766
294.819
294.873
294.925
294.973
295.022
295.07
295.118
295.167
295.217
295.268
295.32
295.374
295.428
295.483
295.539
295.596
295.653
295.71
295.767
295.825
295.883
295.941
296
296.06
296.12
296.178
296.216
298.886
298.779
298.672
298.524
298.339
298.021
297.61
297.138
296.617
296.078
295.546
295.04
294.559
294.086
293.616
293.116
292.619
292.056
291.546
291.057
290.541
290.021
289.331
288.432
287.204
285.585
283.44
280.957
278.855
276.067
274.586
271.505
269.734
266.405
264.467
261.115
259.112
256.413
255.378
253.808
254.347
252.084
254.327
252.861
255.604
254.289
257.669
256.48
259.607
258.417
261.181
260.557
263.352
264.283
264.329
266.348
266.539
268.14
268.159
269.324
269.307
270.516
270.833
270.794
271.691
271.792
272.252
272.657
272.7
273.223
273.292
273.738
273.866
274.234
274.458
274.636
274.9
275.079
275.324
275.498
275.725
275.898
276.166
276.34
276.613
276.825
277.088
277.312
277.565
277.8
278.038
278.316
278.559
278.837
279.099
279.356
279.623
279.923
280.199
280.475
280.744
281.004
281.256
281.513
281.768
282.028
282.267
282.493
282.668
282.825
282.974
283.142
283.31
283.49
283.688
283.889
284.084
284.252
284.411
284.541
284.659
284.804
284.96
285.123
285.317
285.488
285.683
285.851
286.015
286.183
286.344
286.498
286.645
286.802
286.936
287.081
287.186
287.279
287.366
287.455
287.544
287.633
287.726
287.83
287.932
288.032
288.121
288.207
288.29
288.37
288.445
288.516
288.584
288.653
288.721
288.789
288.859
288.93
289.003
289.078
289.155
289.235
289.317
289.402
289.487
289.572
289.655
289.738
289.815
289.891
289.964
290.033
290.093
290.154
290.213
290.268
290.324
290.377
290.43
290.484
290.539
290.596
290.654
290.716
290.78
290.848
290.918
290.991
291.066
291.145
291.221
291.294
291.365
291.43
291.488
291.544
291.591
291.638
291.681
291.727
291.775
291.827
291.883
291.945
292.011
292.081
292.155
292.232
292.31
292.387
292.461
292.532
292.601
292.662
292.723
292.781
292.836
292.892
292.946
293.001
293.056
293.112
293.168
293.226
293.285
293.345
293.406
293.467
293.529
293.591
293.653
293.716
293.778
293.841
293.904
293.968
294.033
294.097
294.16
294.202
298.69
298.555
298.456
298.352
298.187
297.89
297.511
297.07
296.575
296.051
295.52
295.001
294.487
293.914
293.311
292.602
291.936
291.296
290.603
289.88
289.112
288.165
286.926
285.389
283.391
280.975
277.981
274.965
272.834
269.399
267.268
263.408
260.758
257.037
253.69
250.46
248.043
246.033
244.397
242.729
242.961
241.635
243.582
242.619
245.883
245.17
249.704
248.66
253.013
252.048
255.959
255.452
259.117
260.225
260.159
262.511
262.278
264.12
264.198
265.714
265.858
267.151
267.53
267.601
268.495
268.484
269.318
269.634
269.642
270.237
270.287
270.764
270.869
271.269
271.477
271.626
271.876
272.006
272.229
272.346
272.55
272.669
272.878
272.999
273.228
273.377
273.575
273.727
273.923
274.081
274.248
274.432
274.574
274.809
274.976
275.165
275.353
275.585
275.787
276.017
276.239
276.462
276.686
276.917
277.155
277.409
277.635
277.845
277.987
278.191
278.389
278.618
278.838
279.069
279.265
279.462
279.682
279.862
280.017
280.187
280.374
280.582
280.804
281.023
281.237
281.49
281.73
281.954
282.172
282.388
282.595
282.795
282.979
283.178
283.328
283.488
283.631
283.76
283.878
283.997
284.111
284.223
284.336
284.453
284.572
284.694
284.811
284.924
285.035
285.145
285.249
285.35
285.446
285.544
285.641
285.737
285.833
285.93
286.028
286.127
286.227
286.329
286.432
286.536
286.641
286.745
286.848
286.95
287.047
287.144
287.237
287.326
287.406
287.488
287.565
287.64
287.714
287.785
287.857
287.929
288.001
288.076
288.151
288.229
288.309
288.392
288.477
288.565
288.654
288.745
288.833
288.918
289.001
289.078
289.148
289.217
289.277
289.337
289.393
289.451
289.51
289.574
289.641
289.714
289.79
289.87
289.953
290.039
290.125
290.211
290.294
290.373
290.452
290.522
290.591
290.658
290.722
290.785
290.848
290.911
290.974
291.037
291.101
291.166
291.232
291.299
291.366
291.434
291.502
291.571
291.639
291.708
291.777
291.846
291.915
291.984
292.055
292.124
292.192
292.241
298.534
298.373
298.298
298.224
298.069
297.795
297.442
297.026
296.544
296.025
295.476
294.908
294.318
293.517
292.79
292.03
291.238
290.388
289.483
288.486
287.278
285.815
283.926
281.66
278.766
275.786
272.077
268.93
266.386
262.173
259.12
254.799
251.183
246.935
243.715
240.546
237.64
234.942
232.604
230.957
229.787
228.844
228.695
229.242
231.339
232.707
237.085
238.335
244.776
244.096
249.82
249.372
254.625
255.857
256.517
258.713
258.957
260.968
261.069
262.862
262.954
264.29
264.709
264.966
265.777
265.78
266.835
267.16
267.17
267.849
267.896
268.422
268.535
268.964
269.173
269.317
269.567
269.669
269.893
269.983
270.185
270.275
270.463
270.561
270.767
270.875
271.051
271.163
271.329
271.446
271.567
271.686
271.774
271.95
272.051
272.191
272.301
272.451
272.561
272.725
272.852
272.987
273.114
273.247
273.378
273.528
273.63
273.777
273.872
274.071
274.255
274.478
274.696
274.918
275.1
275.252
275.407
275.543
275.713
275.909
276.137
276.387
276.656
276.92
277.17
277.422
277.7
277.959
278.217
278.471
278.711
278.952
279.168
279.4
279.558
279.748
279.921
280.092
280.246
280.396
280.54
280.681
280.821
280.962
281.104
281.25
281.394
281.534
281.672
281.809
281.942
282.071
282.196
282.323
282.447
282.571
282.694
282.817
282.939
283.063
283.186
283.311
283.436
283.562
283.688
283.813
283.936
284.058
284.175
284.292
284.404
284.514
284.615
284.717
284.814
284.909
285.003
285.096
285.188
285.28
285.372
285.465
285.559
285.655
285.753
285.853
285.955
286.059
286.164
286.27
286.372
286.471
286.566
286.659
286.744
286.828
286.903
286.978
287.049
287.123
287.198
287.276
287.357
287.443
287.532
287.625
287.72
287.816
287.913
288.009
288.103
288.192
288.282
288.364
288.444
288.521
288.595
288.67
288.743
288.815
288.888
288.961
289.034
289.108
289.183
289.259
289.334
289.411
289.487
289.564
289.64
289.717
289.793
289.87
289.946
290.023
290.101
290.177
290.252
290.307
298.424
298.245
298.193
298.134
297.997
297.743
297.408
296.994
296.503
295.971
295.366
294.682
293.971
293.143
292.317
291.388
290.386
289.318
288.155
286.719
284.989
282.937
280.301
277.247
273.322
270.325
266.091
262.742
259.089
254.552
250.547
245.967
241.773
237.938
234.45
231.072
228.02
225.149
222.621
220.156
217.855
215.702
213.752
212.003
210.508
209.337
208.52
208.641
216.745
222.941
233.171
236.85
246.409
249.54
252.161
254.554
255.948
257.801
258.463
260.263
260.819
261.934
262.167
263.1
263.619
263.618
264.814
265.143
265.162
265.931
265.973
266.564
266.7
267.139
267.358
267.515
267.759
267.842
268.079
268.157
268.363
268.44
268.626
268.718
268.906
268.998
269.171
269.261
269.419
269.498
269.635
269.722
269.784
269.928
269.993
270.132
270.21
270.32
270.398
270.523
270.605
270.703
270.772
270.847
270.909
270.974
271.009
271.105
271.13
271.298
271.419
271.575
271.737
271.88
271.999
272.076
272.148
272.201
272.311
272.452
272.633
272.842
273.074
273.306
273.523
273.711
273.918
274.136
274.372
274.617
274.843
275.088
275.284
275.505
275.691
275.927
276.136
276.361
276.558
276.747
276.928
277.102
277.274
277.441
277.611
277.782
277.954
278.12
278.285
278.449
278.609
278.765
278.917
279.07
279.222
279.372
279.52
279.668
279.815
279.961
280.107
280.254
280.4
280.546
280.691
280.834
280.976
281.115
281.25
281.385
281.516
281.645
281.765
281.886
282.003
282.117
282.231
282.343
282.454
282.564
282.675
282.786
282.897
283.01
283.124
283.24
283.358
283.477
283.599
283.718
283.834
283.948
284.056
284.164
284.264
284.364
284.455
284.546
284.635
284.724
284.816
284.91
285.007
285.107
285.211
285.318
285.427
285.535
285.644
285.752
285.858
285.959
286.061
286.157
286.249
286.338
286.425
286.512
286.597
286.681
286.766
286.851
286.935
287.02
287.106
287.193
287.279
287.366
287.452
287.539
287.625
287.711
287.797
287.883
287.969
288.054
288.141
288.225
288.308
288.372
298.374
298.164
298.136
298.087
297.968
297.719
297.382
296.957
296.43
295.853
295.203
294.468
293.67
292.748
291.726
290.595
289.381
288.054
286.49
284.534
282.202
279.488
275.948
272.283
267.668
264.823
260.038
255.99
251.54
246.806
242.282
238.064
234.103
230.213
226.698
223.718
220.907
218.228
215.669
213.288
211.136
209.194
207.426
205.836
204.411
203.133
202.009
201.057
200.441
200.143
200.433
200.622
211.591
226.167
237.107
245.394
250.371
253.421
255.768
257.619
258.696
259.615
260.378
261.09
261.749
262.058
263.07
263.491
263.539
264.376
264.387
265.054
265.2
265.65
265.882
266.069
266.289
266.368
266.622
266.69
266.907
266.977
267.17
267.262