/*--------------------------------*- C++ -*----------------------------------*\
| =========                 |                                                 |
| \\      /  F ield         | OpenFOAM: The Open Source CFD Toolbox           |
|  \\    /   O peration     | Version:  2312                                  |
|   \\  /    A nd           | Website:  www.openfoam.com                      |
|    \\/     M anipulation  |                                                 |
\*---------------------------------------------------------------------------*/
FoamFile
{
    version     2.0;
    format      ascii;
    arch        "LSB;label=32;scalar=64";
    class       volScalarField;
    location    "0.003";
    object      k;
}
// * * * * * * * * * * * * * * * * * * * * * * * * * * * * * * * * * * * * * //

dimensions      [0 2 -2 0 0 0 0];

internalField   nonuniform List<scalar> 
48128
(
0.347995
0.511067
1.86971
18.4376
82.9676
208.847
354.015
492.11
617.424
727.462
823.56
909.051
986.366
1057.21
1124.27
1189.23
1252.64
1315.18
1377.55
1440.29
1506.26
1576.69
1652.86
1730.07
1816.83
1908.93
2009.81
2116.74
2232.06
2363.25
2503.79
2656.43
2822.93
2977.77
3123.51
3249.41
3359.35
3417.44
3455.25
3461.33
3426.25
3458.06
3505.58
3579.48
3638.33
3655.82
3646.96
3623.5
3587.38
3550.22
3508.01
3466.65
3414.49
3356.63
3289.62
3226.4
3159.75
3099.49
3037.03
2971.45
2913.84
2851.59
2789.56
2731.69
2672.34
2621.39
2569.03
2522.02
2474.37
2429.68
2387.58
2346.22
2308.03
2270.97
2236.62
2204.33
2172.94
2145.04
2116.85
2092.89
2069.34
2046.56
2022.56
2004.4
1986.18
1967.2
1949.88
1932.22
1920.94
1908.63
1894.7
1880.64
1866.27
1858.08
1849.03
1838.61
1826.9
1818.89
1810.69
1802.59
1793.72
1789.01
1783.52
1777.03
1769.83
1764.71
1759.59
1754.21
1749.58
1744.97
1740.93
1736.79
1733.88
1730.86
1729.25
1727.55
1725.48
1723.22
1720.92
1718.45
1715.85
1713.21
1710.81
1709.55
1708.05
1707.76
1706.88
1705.45
1703.55
1701.36
1698.78
1696.01
1693.18
1690.28
1687.41
1684.67
1682.32
1680.51
1679.51
1678.65
1678.25
1677.74
1677.23
1676.48
1675.46
1674.28
1673.02
1671.74
1670.41
1669.14
1667.92
1666.73
1665.75
1664.76
1664.01
1663.27
1662.66
1662.01
1661.33
1660.58
1659.78
1658.89
1657.91
1656.83
1655.68
1654.44
1653.15
1651.81
1650.55
1649.22
1648.03
1646.99
1646.06
1645.35
1644.76
1644.29
1643.9
1643.6
1643.38
1643.15
1642.95
1642.71
1642.43
1642.06
1641.62
1641.08
1640.44
1639.7
1638.86
1637.91
1636.84
1635.72
1634.56
1633.37
1632.34
1631.62
1631.17
1630.87
1630.88
1630.94
1631.07
1631.16
1631.11
1630.93
1630.56
1629.98
1629.21
1628.27
1627.15
1625.92
1624.62
1623.52
1622.27
1621.28
1620.71
1620.11
1619.72
1619.36
1619.09
1618.82
1618.54
1618.24
1617.9
1617.51
1617.06
1616.54
1615.97
1615.34
1614.66
1613.96
1613.24
1612.5
1611.77
1611.03
1610.31
1609.57
1608.85
1608.11
1607.1
1606.46
0.955109
2.30207
10.5217
42.9203
122.898
253.142
406.642
559.967
711.548
859.565
1005.5
1150.48
1295.79
1446.24
1605.32
1774.7
1958.61
2158.69
2378.96
2621.16
2890.81
3182.13
3513.26
3860.3
4241.54
4646.2
5076.39
5524.79
5970.08
6442.42
6931.21
7421.85
7908.71
8376.88
8831.78
9232.61
9602.67
9855.97
10058.1
10179.1
10212
10255.7
10270.5
10246.8
10164
10018.4
9828.32
9607.86
9371.75
9134.96
8894.02
8657.19
8409.56
8158.23
7900.74
7657.33
7409.4
7174.8
6940.17
6703.79
6483.74
6262.16
6048.4
5845.14
5645.49
5460.24
5280.63
5110.11
4945.59
4788.5
4639.45
4496.97
4362.19
4234.78
4114.52
4000.96
3893.5
3794.08
3696.79
3608.35
3528.23
3450.41
3371.76
3299.33
3236.07
3172.15
3110.36
3048.43
2994.25
2948.53
2900.91
2852.55
2803.71
2760.62
2725.35
2688.35
2650.21
2612.73
2580.01
2548.12
2515.87
2485.81
2461.29
2435.9
2410.06
2384.33
2361.77
2339.18
2317.18
2295.87
2274.4
2253.39
2232.07
2212.71
2193.84
2177.87
2163.43
2149.4
2136.69
2124.25
2111.49
2098.38
2084.92
2072.39
2060.66
2050.12
2042.71
2035.52
2029.3
2023.55
2017.79
2011.79
2005.46
1998.77
1991.68
1984.03
1975.84
1967.5
1959.11
1951.35
1943.58
1936.68
1929.86
1923.8
1917.91
1912.41
1906.85
1901.8
1896.8
1891.68
1886.85
1881.96
1877.31
1872.73
1868.26
1863.93
1859.86
1855.93
1852.39
1848.92
1845.88
1842.95
1840.41
1837.93
1835.81
1833.72
1831.86
1829.96
1828.26
1826.51
1824.67
1822.8
1820.82
1818.81
1816.79
1814.73
1812.66
1810.56
1808.54
1806.5
1804.61
1802.7
1801.09
1799.45
1798.06
1796.7
1795.56
1794.44
1793.57
1792.72
1792.16
1791.58
1791.03
1790.33
1789.39
1788.27
1786.96
1785.49
1783.9
1782.29
1780.61
1779.1
1777.78
1776.56
1775.52
1774.63
1774
1773.47
1773.19
1772.92
1772.57
1772.2
1771.64
1770.82
1769.97
1769.02
1767.98
1766.88
1765.73
1764.58
1763.4
1762.26
1761.13
1760.08
1759.05
1758.12
1757.21
1756.37
1755.53
1754.75
1753.96
1753.24
1752.49
1751.8
1751.09
1750.44
1749.77
1749.19
1748.41
1747.26
2.65361
11.5187
38.7658
112.267
255.433
476.448
748.743
1030.61
1310.46
1581.21
1842.66
2097.01
2346.69
2595.97
2850.67
3113.04
3390.72
3685.96
4004.45
4348.91
4725.07
5130.1
5567.02
6031.09
6527.74
7055.47
7607.72
8192.34
8809.41
9453.67
10122.6
10789.7
11449.4
12069.8
12669.4
13177.4
13632.7
13928.7
14124.8
14215.6
14198.5
14133.9
14001.3
13802.9
13553.2
13255.7
12926.9
12574.6
12217.7
11857.9
11501.7
11147.1
10793.7
10436.7
10072.6
9723.36
9372.92
9040.23
8714.39
8396.05
8090.78
7797.91
7515.13
7244.28
6983.77
6736.81
6500.72
6275.65
6060.23
5853.87
5658.08
5471.04
5293.9
5126.03
4967.03
4816.85
4674.29
4541.23
4412.31
4291.79
4183.87
4078.45
3973.99
3874.41
3787.07
3701.03
3615.92
3534.12
3454.99
3390.29
3324.37
3257.47
3192.61
3128.94
3077.51
3025.12
2972.09
2919.14
2872.26
2826.45
2781.18
2736.81
2699.36
2661.37
2623.49
2585.68
2551.64
2518.08
2485.29
2453.57
2421.78
2390.84
2359.6
2330.29
2301.46
2275.63
2251.19
2227.53
2205.51
2184.43
2163.51
2142.37
2121.56
2101.2
2082.55
2063.99
2049.03
2034.33
2021.05
2008.7
1997.23
1986.1
1975.28
1964.42
1953.38
1941.89
1929.88
1917.74
1905.42
1893.72
1881.86
1871.06
1860.26
1850.39
1840.64
1831.46
1822.17
1813.5
1805.03
1796.44
1788.21
1780.04
1772.09
1764.38
1756.64
1749.27
1741.99
1735.14
1728.49
1722.19
1716.24
1710.55
1705.36
1700.29
1695.67
1691.14
1686.96
1682.77
1678.87
1675
1671.05
1667.16
1663.21
1659.3
1655.43
1651.56
1647.73
1643.88
1640.13
1636.45
1632.84
1629.37
1626.08
1622.91
1619.96
1617.1
1614.56
1612.01
1609.82
1607.64
1605.86
1604.06
1602.43
1600.69
1598.74
1596.67
1594.48
1592.15
1589.71
1587.24
1584.74
1582.3
1580.08
1577.98
1576.05
1574.34
1572.85
1571.58
1570.5
1569.58
1568.63
1567.69
1566.66
1565.37
1564.06
1562.69
1561.23
1559.73
1558.19
1556.65
1555.08
1553.56
1552.03
1550.59
1549.17
1547.86
1546.58
1545.38
1544.2
1543.09
1542
1540.97
1539.94
1538.98
1538.03
1537.15
1536.27
1535.5
1534.6
1533.16
7.92091
34.0253
97.9825
240.747
491.552
850.621
1252.93
1643.79
2006.92
2343.78
2662.31
2969.15
3268.84
3566.72
3868.47
4177.32
4501.68
4845.49
5215.45
5613.08
6044.88
6512.68
7021.03
7570.48
8161.04
8792.96
9458.15
10162.6
10908.6
11677.1
12472.2
13254.7
14016.4
14712.4
15358.5
15880.5
16293.9
16534.2
16630.8
16607.6
16490.3
16269.8
15976.5
15610.7
15204.2
14766.3
14323
13868.5
13432.1
12985
12557.2
12122.9
11716.8
11306.5
10895.5
10498.2
10110.8
9739.33
9382.24
9040.54
8706.08
8397.31
8096.79
7809.22
7536.25
7272.23
7023.91
6784.11
6556.47
6337.3
6129.06
5930.25
5741.57
5563.06
5393.16
5232.17
5079.39
4935.63
4797.31
4664.7
4547.58
4432.8
4319.96
4209.25
4112.52
4018.45
3924.38
3834.33
3743.02
3670.14
3596.93
3522.79
3450.38
3376.61
3317.47
3258.29
3198.56
3138.16
3084.11
3031.57
2979.89
2927.63
2883.75
2839.61
2795.85
2751.72
2711.56
2672.29
2633.72
2596.31
2558.93
2522.48
2485.76
2451.15
2416.98
2386.17
2356.53
2327.81
2300.66
2274.63
2248.97
2223.05
2197.82
2172.78
2150
2126.8
2107.45
2088.32
2070.95
2054.54
2039.17
2024.28
2009.83
1995.55
1981.36
1966.86
1951.92
1937.01
1921.96
1907.63
1893.13
1879.63
1866.2
1853.68
1841.27
1829.5
1817.64
1806.46
1795.58
1784.56
1773.95
1763.49
1753.24
1743.31
1733.33
1723.81
1714.32
1705.36
1696.55
1688.19
1680.14
1672.45
1665.23
1658.24
1651.7
1645.32
1639.31
1633.35
1627.71
1622.16
1616.53
1611.07
1605.56
1600.18
1594.87
1589.63
1584.43
1579.3
1574.22
1569.3
1564.41
1559.73
1555.19
1550.81
1546.65
1542.6
1538.87
1535.2
1531.91
1528.65
1525.79
1522.93
1520.32
1517.62
1514.8
1511.92
1508.98
1505.95
1502.84
1499.7
1496.57
1493.48
1490.49
1487.72
1485.1
1482.69
1480.47
1478.5
1476.7
1475.12
1473.51
1472.03
1470.49
1468.76
1467.01
1465.24
1463.4
1461.55
1459.66
1457.79
1455.89
1454.05
1452.2
1450.44
1448.69
1447.06
1445.46
1443.95
1442.46
1441.05
1439.66
1438.34
1437.04
1435.81
1434.6
1433.49
1432.38
1431.4
1430.34
1428.69
18.3938
74.5717
193.734
429.132
807.087
1279.04
1734.35
2152.01
2540.86
2907.54
3258.43
3598.18
3931.09
4261.6
4594.74
4936.55
5294.01
5672.45
6080.07
6520.89
7003.57
7533
8111.79
8741.65
9420.7
10151.4
10917
11718.7
12560.5
13413.6
14281.6
15116.6
15900.5
16578.5
17143.8
17558.6
17772.8
17820.4
17736.4
17537.6
17251.2
16838
16364.2
15831.7
15279.2
14713.9
14149.1
13597
13078.5
12553.7
12081.3
11595.6
11185.1
10769.3
10386.8
10001.3
9651.92
9307.13
8988.83
8689.88
8387.6
8123.5
7860.33
7612.72
7375.92
7138.57
6920.25
6701.34
6497.3
6296.37
6106.43
5923.95
5749.26
5584.17
5425.76
5275.36
5131.69
4996.4
4866.53
4737.98
4626.27
4517.38
4410.06
4301.65
4206.91
4115.74
4024.72
3935.49
3843.44
3769.69
3698.09
3625.67
3552.93
3477.7
3416.74
3357.67
3297.82
3236.67
3180.77
3127.04
3073.83
3019.09
2972.87
2927.88
2882.78
2836.96
2794.58
2753.41
2712.89
2673.33
2633.99
2595.56
2556.77
2520.27
2483.5
2450.7
2419.01
2388.25
2358.88
2330.66
2302.87
2274.86
2247.67
2220.26
2195.28
2169.6
2148
2126.74
2107.26
2088.59
2070.94
2053.8
2037.2
2020.81
2004.67
1988.32
1971.57
1954.9
1938.12
1922.18
1906.1
1891.02
1876.03
1861.99
1848.1
1834.82
1821.53
1808.87
1796.53
1784.07
1772.01
1760.12
1748.47
1737.17
1725.8
1714.95
1704.09
1693.81
1683.62
1673.95
1664.54
1655.55
1646.98
1638.72
1630.88
1623.26
1616
1608.86
1601.98
1595.25
1588.47
1581.9
1575.27
1568.86
1562.52
1556.3
1550.11
1544.06
1538.04
1532.24
1526.43
1520.89
1515.46
1510.22
1505.2
1500.28
1495.71
1491.21
1487.11
1483.03
1479.37
1475.69
1472.32
1468.87
1465.35
1461.82
1458.27
1454.67
1451.03
1447.36
1443.76
1440.15
1436.65
1433.39
1430.24
1427.31
1424.53
1422.02
1419.65
1417.54
1415.4
1413.46
1411.49
1409.37
1407.24
1405.12
1402.95
1400.79
1398.61
1396.46
1394.3
1392.21
1390.11
1388.11
1386.11
1384.23
1382.39
1380.64
1378.91
1377.27
1375.65
1374.11
1372.57
1371.13
1369.71
1368.4
1367.11
1365.94
1364.75
1362.9
35.0178
132.938
323.102
658.797
1144.23
1633.03
2091.42
2517.4
2918.65
3302.61
3673.61
4035.26
4391.22
4745.53
5102.3
5469.99
5852.45
6258.33
6697.63
7176.41
7704.21
8288.76
8929.1
9629.47
10383.3
11194.6
12036.7
12901.3
13794.9
14677.9
15539.2
16327.3
17017.8
17548.8
17913.7
18115.2
18033.3
17816.9
17365.5
16759.1
16077.2
15330.2
14535.2
13766.7
12981.7
12317.2
11639.8
11070.2
10509.5
9990.72
9556.2
9109.28
8784.12
8451.13
8187.02
7911.93
7688.49
7458.67
7264.16
7082.26
6892.94
6741.65
6586.84
6444.91
6308.02
6164.6
6030.6
5891.53
5760.81
5628.25
5500.23
5376.07
5253.35
5135.7
5018.41
4906.47
4796.34
4692.69
4590.93
4487.02
4396.38
4309.93
4222.03
4131.44
4050.68
3974.81
3898.36
3821.09
3740.62
3674.65
3613.3
3550.57
3486.31
3418.91
3362.72
3309.99
3256.15
3200.81
3148.89
3099.29
3049.75
2998.28
2954.36
2912.53
2870.24
2827.17
2786.5
2747.2
2708.46
2670.26
2632.5
2595.4
2557.94
2522.3
2486
2453.9
2422.83
2392.75
2363.59
2335.53
2307.87
2280.29
2253.14
2225.64
2200.31
2174.27
2152.32
2130.74
2110.77
2091.43
2073.06
2055.18
2037.76
2020.57
2003.64
1986.62
1969.21
1951.83
1934.34
1917.78
1901.07
1885.39
1869.76
1855.09
1840.73
1826.82
1813.06
1799.7
1786.72
1773.74
1761.05
1748.49
1736.2
1724.28
1712.26
1700.79
1689.25
1678.31
1667.42
1657.07
1646.89
1637.2
1627.85
1618.88
1610.3
1601.94
1593.95
1586.11
1578.45
1571.02
1563.56
1556.29
1548.97
1541.9
1534.89
1528.04
1521.23
1514.58
1507.96
1501.59
1495.2
1489.12
1483.1
1477.31
1471.74
1466.27
1461.15
1456.09
1451.43
1446.79
1442.57
1438.32
1434.41
1430.44
1426.43
1422.39
1418.42
1414.41
1410.36
1406.34
1402.36
1398.41
1394.6
1391.01
1387.49
1384.19
1381.02
1378.12
1375.35
1372.86
1370.34
1368.04
1365.75
1363.33
1360.9
1358.51
1356.08
1353.69
1351.28
1348.94
1346.58
1344.31
1342.04
1339.87
1337.71
1335.66
1333.65
1331.74
1329.86
1328.06
1326.28
1324.58
1322.89
1321.3
1319.73
1318.28
1316.84
1315.54
1314.26
1312.27
57.0889
205.379
474.984
902.515
1412.77
1893.58
2344.29
2766.9
3170.68
3561.48
3942.36
4317.29
4689.24
5061.3
5435.87
5821.54
6222.18
6648.87
7112.96
7622.03
8185.43
8812.96
9503.04
10259.6
11066.2
11928.2
12811.3
13682.9
14564.1
15408.3
16165.1
16826.1
17286.9
17543.2
17394.6
17039.3
16375.8
15536.2
14491.5
13401.2
12240.5
11269.9
10245.6
9482.42
8695.43
8119.73
7526.73
7080.01
6640.78
6265.09
5966.15
5665.59
5472.63
5276.1
5144.01
5005.86
4910.89
4811.88
4740.07
4679.23
4615.32
4577.17
4537.01
4504.73
4474.42
4438.65
4410.27
4378.88
4349.48
4317.53
4283.89
4248.4
4210
4169.63
4126.52
4082.02
4035.6
3987.56
3937.01
3882.92
3830.74
3781.79
3730.98
3676.99
3625.11
3576.7
3526.74
3474.32
3418.6
3369.76
3326.8
3282.24
3235.09
3184.88
3140.26
3099.92
3058.63
3015.72
2973.8
2933.76
2893.53
2851.77
2814.7
2780.28
2745.4
2709.82
2675.12
2641.78
2608.62
2575.68
2543.32
2511.08
2478.54
2446.9
2414.63
2385.86
2358.13
2331.13
2304.58
2279
2254.02
2229.24
2204.26
2179.05
2155.43
2131.42
2110.75
2090.43
2071.61
2053.22
2035.65
2018.54
2001.7
1985.15
1968.63
1952.28
1935.47
1918.65
1901.7
1885.59
1869.34
1854.08
1838.78
1824.45
1810.51
1796.84
1783.47
1770.21
1757.47
1744.8
1732.26
1719.82
1707.67
1695.84
1683.92
1672.51
1661.01
1650.05
1639.11
1628.66
1618.35
1608.52
1599
1589.81
1581.02
1572.42
1564.19
1556.08
1548.18
1540.47
1532.79
1525.24
1517.62
1510.31
1503
1495.9
1488.82
1481.92
1475.04
1468.43
1461.8
1455.44
1449.21
1443.15
1437.33
1431.6
1426.21
1420.86
1415.91
1410.97
1406.43
1401.87
1397.65
1393.4
1389.12
1384.78
1380.56
1376.3
1372.02
1367.82
1363.62
1359.53
1355.54
1351.77
1348.05
1344.55
1341.16
1338.04
1335.03
1332.31
1329.56
1327.04
1324.55
1321.95
1319.33
1316.77
1314.18
1311.65
1309.11
1306.65
1304.19
1301.82
1299.46
1297.21
1294.96
1292.84
1290.75
1288.76
1286.8
1284.93
1283.07
1281.29
1279.52
1277.85
1276.2
1274.67
1273.17
1271.78
1270.45
1268.4
82.8739
285.278
633.075
1114.52
1610.21
2074.88
2510.51
2922.48
3319.78
3708.04
4091.05
4472.32
4853.83
5236.94
5622.24
6018.07
6429.75
6869.06
7349.71
7879.97
8466.21
9125.31
9848.4
10639.4
11468.1
12331.3
13216.1
14043.3
14845.9
15574.3
16098.7
16387.4
16234.5
15816.7
14981.3
13836.7
12512.8
11156.7
9848.16
8784.35
7668.45
6861.76
6029.27
5459.47
4874.37
4474.72
4071.28
3783.92
3517.08
3300.21
3127.98
2971.59
2871.36
2776.25
2717.89
2660.72
2630.79
2602.94
2589.39
2585.64
2588.66
2599.39
2613.46
2631.91
2652.91
2672.65
2696.98
2723.05
2752.33
2780.65
2809.29
2838.15
2861.04
2884.33
2902.04
2918.05
2929.68
2937.55
2943.68
2943.41
2941.74
2939.68
2936
2928.8
2919.41
2909.23
2897.46
2882.63
2864.08
2844.2
2826.6
2808.33
2787.59
2763.96
2739.64
2717.9
2696.09
2672.73
2648.59
2624.43
2599.55
2573.4
2548.4
2525.7
2502.73
2478.86
2454.64
2431.07
2407.37
2383.65
2359.95
2335.96
2311.59
2287.26
2262.56
2239.67
2217.91
2196.38
2175.21
2154.49
2134.68
2114.72
2094.52
2074.06
2054.29
2034.37
2016.71
1999.3
1983.3
1967.46
1952.23
1937.33
1922.65
1908.15
1893.63
1879.22
1864.46
1849.54
1834.49
1820.06
1805.5
1791.65
1777.82
1764.77
1752.11
1739.66
1727.49
1715.35
1703.66
1692.07
1680.57
1669.07
1657.84
1646.88
1635.83
1625.16
1614.44
1604.1
1593.8
1583.85
1574.07
1564.64
1555.54
1546.66
1538.2
1529.86
1521.91
1514.01
1506.37
1498.84
1491.42
1484.04
1476.58
1469.42
1462.23
1455.26
1448.3
1441.51
1434.77
1428.23
1421.73
1415.43
1409.31
1403.29
1397.54
1391.83
1386.46
1381.1
1376.14
1371.17
1366.58
1361.95
1357.66
1353.37
1349.04
1344.66
1340.38
1336.08
1331.77
1327.56
1323.35
1319.28
1315.3
1311.52
1307.78
1304.26
1300.8
1297.64
1294.55
1291.76
1288.94
1286.34
1283.79
1281.13
1278.45
1275.86
1273.22
1270.66
1268.09
1265.61
1263.15
1260.79
1258.44
1256.19
1253.95
1251.83
1249.75
1247.78
1245.83
1243.97
1242.13
1240.35
1238.59
1236.91
1235.26
1233.73
1232.23
1230.84
1229.5
1227.49
110.595
367.112
779.395
1271.67
1747.14
2190.41
2605.4
3000.09
3383.73
3762.48
4141
4521.86
4905.88
5292.55
5681.35
6080.16
6495.36
6939.27
7428.4
7972.18
8571.66
9246.47
9980.03
10775.6
11604.1
12431.9
13271.9
13989.8
14561.7
14955.4
14895.3
14570.3
13751.4
12541.4
11095.6
9563.88
8199.64
6947.85
5845.41
5013.11
4202.27
3649.14
3122.97
2776.58
2440.59
2219.79
2008.52
1860.83
1728.02
1625.27
1539.03
1467.57
1419.19
1372.37
1342.06
1311.17
1294.67
1278.42
1271.46
1270.62
1275.6
1285.63
1299.58
1318.86
1341.88
1368.06
1398.82
1432.15
1469.47
1508.51
1550.4
1593.45
1636.88
1681.78
1723.51
1766.12
1804.04
1842.25
1878.3
1912.71
1942.12
1971.78
2000.51
2027.12
2049.71
2071.28
2091.31
2109.09
2122.79
2132.46
2142.28
2151.12
2159.75
2164.39
2166.24
2168.13
2170.78
2170.7
2169.52
2167.15
2163.34
2157.46
2150.65
2143.7
2136.63
2128.46
2119.31
2109.54
2099.31
2088.68
2077.62
2066.17
2053.99
2040.98
2027.01
2013.13
1999.79
1986.33
1973.24
1960.04
1947.37
1934.43
1921.15
1907.35
1893.4
1879.21
1866.41
1853.51
1841.9
1830.16
1818.9
1807.64
1796.71
1785.68
1774.74
1763.68
1752.4
1740.73
1728.87
1717.29
1705.62
1694.3
1683.06
1672.31
1661.87
1651.65
1641.54
1631.55
1621.78
1612.11
1602.52
1592.85
1583.35
1574.02
1564.63
1555.43
1546.2
1537.17
1528.2
1519.39
1510.76
1502.33
1494.21
1486.23
1478.64
1471.12
1463.96
1456.81
1449.91
1443.09
1436.4
1429.68
1422.88
1416.27
1409.68
1403.24
1396.83
1390.54
1384.32
1378.24
1372.23
1366.36
1360.67
1355.04
1349.66
1344.3
1339.24
1334.19
1329.49
1324.76
1320.39
1315.98
1311.86
1307.76
1303.63
1299.47
1295.35
1291.26
1287.15
1283.14
1279.13
1275.26
1271.48
1267.89
1264.32
1260.95
1257.62
1254.58
1251.57
1248.88
1246.15
1243.62
1241.15
1238.59
1236
1233.49
1230.95
1228.48
1226.01
1223.64
1221.28
1219.03
1216.79
1214.65
1212.53
1210.51
1208.54
1206.67
1204.83
1203.08
1201.34
1199.65
1197.98
1196.39
1194.83
1193.37
1191.94
1190.62
1189.34
1187.47
138.845
440.563
896.804
1379.73
1832.74
2250.3
2639.31
3011.98
3379.21
3745.86
4114.43
4487.87
4866.47
5248.73
5633.76
6028.98
6441.36
6883.76
7375.48
7926.17
8526.06
9195.71
9924.55
10697.9
11495.9
12229.4
12920.8
13382.1
13528.5
13374.7
12764.6
11753.5
10353
8764.71
7314.01
5909.67
4822.96
3870.89
3137.63
2582.01
2142.71
1833.57
1578.32
1410.93
1261.24
1168.19
1074.63
1011.33
947.189
900.619
853.771
817.987
788.761
759.213
735.742
711.21
693.281
674.759
663.515
652.231
646.837
643.49
643.752
646.359
651.176
658.86
669.762
683.079
699.612
718.491
740.533
764.917
791.858
821.304
852.355
885.417
919.558
955.051
991.165
1028.33
1064.29
1100.88
1137.88
1175.93
1212.24
1247.87
1282.82
1316.66
1349.16
1377.92
1406.39
1434.46
1462.97
1488.64
1511.79
1532.33
1553.55
1572.63
1591.13
1606.26
1621.42
1633.46
1644.23
1653.57
1663.33
1671.22
1678.59
1684.61
1689.85
1694.98
1699.19
1703.44
1706.33
1707.34
1706.43
1704.76
1702.45
1699.5
1696.21
1692.7
1689.25
1685.59
1681.55
1676.67
1671.09
1664.86
1658.53
1651.86
1645.7
1639.38
1633.28
1627.05
1621.02
1614.86
1608.81
1602.68
1596.38
1589.63
1582.58
1575.29
1567.78
1560.18
1552.54
1545.15
1537.95
1530.89
1523.79
1516.77
1509.89
1503
1496.13
1489.12
1482.12
1475.17
1468.15
1461.13
1454.08
1447.04
1440.03
1433.03
1426.14
1419.34
1412.79
1406.32
1400.16
1394.03
1388.22
1382.38
1376.75
1371.15
1365.65
1360.1
1354.46
1348.91
1343.36
1337.89
1332.48
1327.1
1321.81
1316.58
1311.44
1306.37
1301.46
1296.58
1291.89
1287.21
1282.77
1278.32
1274.17
1270
1266.11
1262.19
1258.54
1254.9
1251.22
1247.52
1243.84
1240.21
1236.54
1232.97
1229.39
1225.94
1222.56
1219.36
1216.16
1213.14
1210.12
1207.37
1204.62
1202.18
1199.7
1197.41
1195.18
1192.87
1190.52
1188.26
1185.96
1183.72
1181.49
1179.34
1177.22
1175.19
1173.19
1171.26
1169.36
1167.55
1165.79
1164.13
1162.5
1160.95
1159.4
1157.91
1156.43
1155.01
1153.62
1152.32
1151.05
1149.89
1148.73
1147.11
165.92
500.854
980.288
1446.13
1874.13
2263.06
2629.52
2983.16
3330.78
3677.7
4028.72
4387.02
4752.41
5122.89
5497.99
5884.88
6291.94
6730.32
7213.74
7755.16
8345.07
8993.39
9701.76
10442
11173
11749
12169.9
12210.1
11901.2
11234.9
10062.2
8577.12
7031.11
5532.57
4351.5
3329.84
2591.74
2010.44
1605.97
1314.02
1119.41
977.431
879.278
810.654
756.263
722.931
686.653
658.648
628.653
604.424
578.57
555.389
532.975
509.507
488.913
467.694
451.481
435.744
423.383
412.754
403.706
397.021
390.721
386.562
382.325
379.925
378.724
378.855
380.006
382.106
385.604
390.329
396.485
404.091
413.029
423.526
435.437
448.985
464.017
480.786
498.915
518.713
540.168
563.721
588.599
614.861
642.349
671.169
700.767
730.217
760.042
790.554
822.11
853.551
884.978
914.298
944.217
973.109
1002.59
1028.86
1055.42
1080.04
1103.76
1125.82
1148.51
1169.64
1190.77
1209.95
1227.94
1246.12
1263.08
1280
1295.01
1309.06
1320.57
1330.19
1338.74
1345.99
1352.85
1359.53
1366.43
1372.97
1379.59
1384.7
1389.15
1391.37
1393.48
1394.12
1394.83
1394.89
1394.89
1394.68
1394.47
1394.1
1393.91
1393.69
1393.45
1392.79
1391.7
1390.16
1388.15
1385.75
1383.08
1380.24
1377.41
1374.53
1371.59
1368.55
1365.52
1362.38
1359.14
1355.7
1352.12
1348.44
1344.61
1340.65
1336.56
1332.35
1328.04
1323.64
1319.2
1314.7
1310.31
1305.94
1301.77
1297.6
1293.66
1289.67
1285.82
1281.93
1278.1
1274.18
1270.17
1266.14
1262.09
1258.05
1254.04
1249.99
1246.01
1242.05
1238.12
1234.23
1230.44
1226.65
1222.98
1219.3
1215.8
1212.27
1208.98
1205.66
1202.57
1199.43
1196.53
1193.63
1190.69
1187.73
1184.77
1181.84
1178.88
1175.99
1173.07
1170.26
1167.51
1164.89
1162.27
1159.78
1157.27
1154.98
1152.67
1150.65
1148.6
1146.71
1144.89
1143
1141.07
1139.2
1137.31
1135.45
1133.59
1131.8
1130.05
1128.37
1126.72
1125.14
1123.57
1122.09
1120.65
1119.29
1117.98
1116.73
1115.49
1114.29
1113.09
1111.94
1110.81
1109.76
1108.74
1107.81
1106.87
1105.61
191.069
547.564
1032.6
1477.2
1877.54
2247.66
2591.29
2919.05
3241.31
3564
3892.64
4230.49
4577.38
4931.36
5293.21
5671.31
6068.83
6493.94
6962.52
7488.13
8066.26
8709.58
9409.46
10103.4
10710.2
11043.2
11027.6
10729.9
9949.37
8738.49
7228.06
5641.14
4308.84
3185.84
2381.94
1758.93
1349.15
1050.9
871.035
740.105
663.962
601.847
567.013
538.817
521.363
507.119
492.806
479.462
464.204
449.299
433.438
416.873
399.117
380.621
366.936
352.905
342.298
331.757
322.811
314.499
306.904
300.769
294.911
290.039
285.232
280.824
277.243
273.603
270.783
267.918
265.663
263.805
262.265
261.439
260.755
260.882
261.355
262.387
263.985
266.305
269.291
273.102
277.809
283.627
290.453
298.394
307.436
317.764
329.266
341.836
355.518
370.45
387.044
404.972
424.243
444.482
465.885
488.419
512.185
536.519
561.441
586.598
611.971
637.195
662.925
688.92
715.486
741.383
767.088
793
818.063
842.801
866.092
888.846
909.71
928.444
946.088
962.492
979.056
994.911
1010.9
1025.75
1040.79
1053.8
1066.63
1076.49
1085.93
1093.46
1100.85
1107.05
1113.3
1118.87
1124.59
1130.21
1136.1
1142.12
1148.36
1154.41
1159.68
1164.43
1168.57
1172.04
1175.09
1177.53
1179.93
1181.97
1184.01
1185.57
1187.14
1188.43
1189.6
1190.47
1191.04
1191.5
1191.55
1191.41
1191.04
1190.42
1189.56
1188.48
1187.21
1185.79
1184.28
1182.71
1181.17
1179.6
1178.1
1176.54
1175
1173.4
1171.79
1170.08
1168.23
1166.28
1164.27
1162.19
1160.08
1157.91
1155.71
1153.48
1151.23
1148.95
1146.7
1144.41
1142.16
1139.89
1137.68
1135.43
1133.31
1131.15
1129.16
1127.11
1125.26
1123.39
1121.47
1119.52
1117.54
1115.56
1113.54
1111.54
1109.53
1107.57
1105.65
1103.81
1101.96
1100.19
1098.39
1096.74
1095.07
1093.66
1092.22
1090.91
1089.67
1088.36
1087.02
1085.71
1084.38
1083.04
1081.7
1080.41
1079.15
1077.96
1076.79
1075.67
1074.57
1073.52
1072.51
1071.58
1070.69
1069.85
1069.01
1068.2
1067.39
1066.61
1065.84
1065.12
1064.44
1063.83
1063.19
1062.42
212.92
577.852
1056.49
1477
1862.19
2209.99
2526.96
2826.3
3120.39
3416.06
3719.18
4033.13
4358.29
4693.57
5041.44
5403.39
5787.27
6198.51
6657.04
7188.73
7788.04
8452.17
9148.03
9743.55
10135.7
10082.5
9737.47
8964.15
7701.24
6145.4
4634.24
3337.79
2403.93
1709.8
1252.32
939.521
747.745
615.418
533.475
473.448
434.463
402.599
384.808
366.85
357.126
347.432
343.222
337.862
331.898
326.918
318.565
310.257
301.512
297.153
292.367
286.912
281.331
275.378
269.514
263.42
257.78
252.605
247.678
243.375
239.403
235.392
231.955
228.467
225.298
222.087
219.107
216.281
213.559
211.152
208.689
206.53
204.326
202.467
200.569
199.071
197.589
196.438
195.476
194.864
194.655
194.82
195.265
196.112
197.374
199.059
201.212
203.894
207.291
211.405
216.32
221.972
228.464
235.89
244.409
253.902
264.434
275.936
288.433
301.893
316.478
332.267
349.47
367.81
387.39
408.114
429.827
452.298
475.153
498.31
521.166
543.086
564.599
585.878
607.423
628.721
650.242
670.775
691.561
710.329
729.181
745.331
760.747
774.321
787.725
799.8
812.039
823.505
835.226
846.716
858.445
869.871
881.436
892.721
903.277
913.202
922.602
931.126
939.324
946.676
953.929
960.605
967.342
973.519
979.678
985.618
991.416
996.875
1001.89
1006.67
1011.06
1015.08
1018.75
1022.03
1024.99
1027.56
1029.9
1031.91
1033.82
1035.49
1037.17
1038.64
1040.16
1041.47
1042.8
1043.94
1045.08
1046.05
1046.83
1047.42
1047.95
1048.31
1048.59
1048.76
1048.81
1048.76
1048.65
1048.45
1048.18
1047.83
1047.43
1046.96
1046.46
1045.9
1045.35
1044.73
1044.18
1043.57
1043.06
1042.53
1041.95
1041.34
1040.68
1039.99
1039.25
1038.47
1037.67
1036.86
1036.05
1035.26
1034.44
1033.62
1032.76
1031.96
1031.13
1030.51
1029.87
1029.33
1028.86
1028.35
1027.8
1027.23
1026.63
1026.02
1025.37
1024.76
1024.15
1023.58
1023.03
1022.5
1021.98
1021.5
1021.04
1020.63
1020.26
1019.94
1019.61
1019.3
1018.97
1018.65
1018.34
1018.05
1017.8
1017.59
1017.33
1017.18
232.302
595.335
1055.4
1464.05
1829.63
2153.29
2442.96
2713.36
2977.96
3245.07
3521.03
3809.38
4111.41
4428.37
4755.36
5098.68
5473.05
5889.7
6370.72
6944.78
7597.76
8280.99
8926.05
9322.35
9345.58
8987.65
8176.47
6852.77
5302.76
3788.17
2669.47
1836.48
1296.55
931.186
711.426
566.971
473.905
409.047
366.436
329.775
301.075
276.268
255.653
235.385
219.289
205.018
196.112
191.335
192.784
196.777
204.015
213.43
226.01
240.546
241.607
239.749
237.452
234.494
231.203
227.545
223.81
220.021
216.342
212.911
209.633
206.439
203.586
200.617
197.811
194.976
192.278
189.649
187.097
184.732
182.311
180.029
177.706
175.525
173.307
171.269
169.201
167.312
165.407
163.703
162.053
160.587
159.177
157.853
156.705
155.565
154.651
153.724
153.076
152.576
152.398
152.458
152.702
153.214
154.076
155.283
156.881
158.868
161.295
164.191
167.643
171.75
176.637
182.323
188.973
196.614
205.295
214.993
225.642
237.175
249.426
262.276
275.808
290.194
305.534
321.837
339.037
356.94
375.393
394.047
413.011
430.867
448.631
465.223
481.739
497.388
513.291
528.859
544.77
560.689
576.946
592.689
608.588
624.033
638.984
653.236
667.146
680.105
692.82
704.616
716.328
727.33
738.355
748.809
759.073
768.912
778.411
787.613
796.373
804.822
812.93
820.594
827.919
834.733
841.24
847.223
853.011
858.297
863.598
868.514
873.461
878.054
882.704
887.028
891.369
895.423
899.456
903.262
906.877
910.217
913.465
916.524
919.449
922.218
924.841
927.296
929.629
931.784
933.864
935.729
937.554
939.159
940.765
942.154
943.569
944.782
946.028
947.147
948.289
949.449
950.49
951.542
952.484
953.425
954.242
955.038
955.727
956.396
956.999
957.576
958.042
958.473
958.791
959.102
959.403
959.772
960.168
960.616
961.112
961.64
962.048
962.461
962.799
963.102
963.364
963.627
963.874
964.131
964.378
964.628
964.862
965.103
965.354
965.629
965.93
966.255
966.583
966.896
967.187
967.458
967.721
967.986
968.272
968.585
968.827
969.396
248.462
596.966
1045.16
1437.8
1783.06
2082.89
2345.93
2587.97
2823.24
3061.32
3310.05
3573.06
3852.46
4147.71
4454.12
4788.34
5176.55
5634.81
6178.76
6822.21
7532.06
8171.04
8659.93
8657.21
8370.4
7519.37
6135.13
4541.52
3195.23
2159.33
1481.08
1030.11
752.468
579.024
470.483
397.263
345.052
304.131
270.922
241.66
217.317
195.965
177.292
161.125
147.519
135.967
127.095
120.296
118.625
119.692
122.438
128.091
136.369
147.02
159.505
172.822
190.851
198.273
198.498
197.594
195.973
193.73
191.218
188.699
186.116
183.721
181.397
178.885
176.474
174.03
171.648
169.337
167.096
164.999
162.85
160.818
158.751
156.77
154.761
152.875
150.967
149.179
147.369
145.696
144.018
142.472
140.931
139.439
137.992
136.566
135.206
133.813
132.525
131.25
130.14
129.05
128.035
127.048
126.189
125.419
124.755
124.202
123.698
123.376
123.086
123.112
123.311
123.74
124.462
125.51
126.926
128.724
130.921
133.512
136.482
139.824
143.632
148.038
153.13
158.972
165.607
173.035
181.233
190.136
199.66
209.624
220.028
230.816
241.997
253.574
265.732
278.45
291.923
305.999
320.879
336.278
352.25
368.52
384.97
401.134
417.356
432.922
448.497
463.37
478.263
492.573
506.91
520.808
534.456
547.699
560.471
573.032
585.194
597.007
608.507
619.528
630.217
640.321
650.102
659.253
668.175
676.489
684.724
692.351
699.998
707.188
714.447
721.323
728.233
734.819
741.399
747.723
753.917
759.802
765.634
771.302
776.805
782.085
787.227
792.119
796.902
801.398
805.836
809.946
814.026
817.77
821.532
824.978
828.47
831.653
834.864
837.901
840.902
843.916
846.779
849.664
852.396
855.144
857.719
860.282
862.688
865.057
867.292
869.474
871.476
873.4
875.156
876.838
878.456
880.104
881.746
883.411
885.1
886.835
888.438
890.015
891.499
892.921
894.284
895.614
896.916
898.202
899.458
900.679
901.865
903.021
904.17
905.309
906.463
907.613
908.756
909.85
910.915
911.922
912.91
913.865
914.827
915.808
916.673
918.163
261.591
592.197
1025.73
1401
1726.43
2003.85
2241.65
2456.55
2663.93
2874.45
3097.27
3336.72
3595.44
3869.41
4168.61
4519.68
4961.14
5502.04
6118.18
6813.21
7535.56
7990.99
8076.12
7725.99
6894.7
5501.07
3984.08
2709.98
1830.09
1239.38
873.343
646.931
507.923
418.702
357.667
312.513
276.109
245.214
217.998
194.05
173.55
155.855
140.86
128.105
117.543
108.893
101.884
95.985
92.4944
90.7647
88.9893
88.8293
90.6179
95.0417
102.101
111.594
123.621
136.779
149.312
165.797
170.947
170.47
169.074
167.283
165.249
163.213
161.23
159.083
157.159
155.192
153.209
151.302
149.439
147.675
145.875
144.175
142.444
140.78
139.091
137.492
135.873
134.352
132.815
131.375
129.92
128.568
127.206