/*--------------------------------*- C++ -*----------------------------------*\
| =========                 |                                                 |
| \\      /  F ield         | OpenFOAM: The Open Source CFD Toolbox           |
|  \\    /   O peration     | Version:  2312                                  |
|   \\  /    A nd           | Website:  www.openfoam.com                      |
|    \\/     M anipulation  |                                                 |
\*---------------------------------------------------------------------------*/
FoamFile
{
    version     2.0;
    format      ascii;
    arch        "LSB;label=32;scalar=64";
    class       volScalarField;
    location    "0.003";
    object      nut;
}
// * * * * * * * * * * * * * * * * * * * * * * * * * * * * * * * * * * * * * //

dimensions      [0 2 -1 0 0 0 0];

internalField   nonuniform List<scalar> 
48128
(
1.72261e-07
2.52397e-07
9.21698e-07
9.01161e-06
4.00291e-05
9.83446e-05
0.000161432
0.000217059
0.000263963
0.000302932
0.000336238
0.000365824
0.000392546
0.000417988
0.000442931
0.000467907
0.000493329
0.000519574
0.000547014
0.000576134
0.000608728
0.000644703
0.000684383
0.000726691
0.000774775
0.000826919
0.000884114
0.00094491
0.00101045
0.0010819
0.00115696
0.0012352
0.00131686
0.00139266
0.00146369
0.00152593
0.00158173
0.00161894
0.00164875
0.00166754
0.0016725
0.00169205
0.00171791
0.00174951
0.00177543
0.00178885
0.0017941
0.00179447
0.00179054
0.00178571
0.00177883
0.00177176
0.00176096
0.00169743
0.00158688
0.00148923
0.00140129
0.00132407
0.00125226
0.00118724
0.00112902
0.00107452
0.00102603
0.000981602
0.000940529
0.000903813
0.000869012
0.000837646
0.000807752
0.000780991
0.000756288
0.000733281
0.000712511
0.00069315
0.000675418
0.000659035
0.000643737
0.000630364
0.000616974
0.000604634
0.000595316
0.000585339
0.000574611
0.000564962
0.000558106
0.000550181
0.000542364
0.000534247
0.000526875
0.000523663
0.000518391
0.000512447
0.000506114
0.000500547
0.000498348
0.000494416
0.000489603
0.000485307
0.000482177
0.000478711
0.000474834
0.000471427
0.000469938
0.000467447
0.000464462
0.000461774
0.000459676
0.000457338
0.000455107
0.000452821
0.000450603
0.000448245
0.000446159
0.00044432
0.000442652
0.000441994
0.000441089
0.000440095
0.000439074
0.000437938
0.000436655
0.000435216
0.000433767
0.000432696
0.000431854
0.00043118
0.000431345
0.000431004
0.000430767
0.000430358
0.000429839
0.000429187
0.000428398
0.000427509
0.000426529
0.000425468
0.000424358
0.000423332
0.000422548
0.000421927
0.000421385
0.000421029
0.000420596
0.000420317
0.000419927
0.000419478
0.00041899
0.000418543
0.000418048
0.000417526
0.000417062
0.000416563
0.000416142
0.0004157
0.000415303
0.000414955
0.000414635
0.000414373
0.000414093
0.000413853
0.000413596
0.00041338
0.000413142
0.000412915
0.000412669
0.000412422
0.000412153
0.000411863
0.00041159
0.000411284
0.000410954
0.000410664
0.000410363
0.000410114
0.000409887
0.000409677
0.000409483
0.000409306
0.000409162
0.00040903
0.000408905
0.000408811
0.000408711
0.000408628
0.000408532
0.000408445
0.00040835
0.000408251
0.000408149
0.000408043
0.00040792
0.000407762
0.000407602
0.000407357
0.000407081
0.000406864
0.000406678
0.000406504
0.00040639
0.000406314
0.000406261
0.000406245
0.000406246
0.000406242
0.000406231
0.000406201
0.000406152
0.000406082
0.000405991
0.000405854
0.000405675
0.00040552
0.000405343
0.000405075
0.00040496
0.000404843
0.000404731
0.000404647
0.000404569
0.000404505
0.000404444
0.000404386
0.000404329
0.000404271
0.000404209
0.000404142
0.000404067
0.000403987
0.0004039
0.000403809
0.000403715
0.00040362
0.000403526
0.000403434
0.000403344
0.000403258
0.000403172
0.000403093
0.000402971
0.000402763
1.32025e-06
4.4599e-06
1.43714e-05
4.8269e-05
0.000124814
0.00025093
0.000424013
0.000617163
0.000830092
0.0010534
0.00127924
0.00150358
0.00172493
0.00194951
0.00218119
0.00242386
0.00268602
0.00297075
0.0032839
0.00362694
0.0040199
0.00443593
0.00493378
0.00544596
0.00600384
0.00659124
0.00721227
0.00785329
0.00836146
0.00889702
0.00942671
0.00992986
0.0104005
0.010826
0.0112277
0.0115582
0.0118674
0.0120432
0.0121891
0.01225
0.0122223
0.0121889
0.0121095
0.0120145
0.0118864
0.0117244
0.0115323
0.0113245
0.0111114
0.0109061
0.0106991
0.0104998
0.0102868
0.0100776
0.00986899
0.00968249
0.00949016
0.00931273
0.00912973
0.00894077
0.00877173
0.00858536
0.00840626
0.00823621
0.00806307
0.00790826
0.00774866
0.00759984
0.00744843
0.00730244
0.00716215
0.00702313
0.00689134
0.00676307
0.00664159
0.00652453
0.00641087
0.0063049
0.00620099
0.00610491
0.00601287
0.00592492
0.00583473
0.00575446
0.00567806
0.00560061
0.00552684
0.005454
0.00539006
0.00532793
0.0052646
0.0052016
0.00513953
0.00508695
0.00503613
0.00498423
0.00493149
0.00488237
0.00483553
0.00479042
0.00474484
0.0047044
0.00466561
0.00462621
0.00458688
0.00454911
0.0045143
0.00447897
0.00444514
0.00441203
0.00437897
0.00434613
0.00431187
0.00428117
0.00424798
0.00421932
0.00419249
0.00416664
0.00414346
0.00412064
0.00409773
0.0040744
0.0040509
0.00402754
0.00400484
0.00398288
0.00396633
0.00394998
0.00393534
0.00392081
0.00389814
0.00387817
0.00386037
0.00384216
0.00382409
0.00380657
0.00378903
0.00377139
0.00375196
0.0037327
0.00371293
0.00369268
0.0036732
0.00365322
0.00363413
0.00361601
0.00359816
0.00358082
0.00356454
0.00354862
0.00353289
0.00351758
0.00350291
0.00348864
0.00347465
0.00346088
0.00344749
0.00343402
0.00342095
0.00340834
0.00339577
0.00338409
0.00337251
0.00336159
0.00335093
0.00334085
0.00333122
0.00332216
0.00331339
0.00330489
0.00329787
0.00329036
0.00328358
0.00327677
0.00327013
0.00326364
0.00325724
0.00325088
0.00324454
0.00323825
0.00323196
0.00322567
0.00321937
0.00321352
0.00320752
0.00320182
0.00319644
0.00319103
0.003186
0.00318085
0.00317612
0.00317205
0.00316809
0.00316439
0.00316193
0.00315899
0.0031563
0.00315353
0.00315065
0.00314726
0.00314412
0.00313984
0.00313614
0.00313248
0.00312864
0.00312477
0.00312119
0.00311772
0.0031145
0.0031117
0.0031096
0.00310752
0.00310569
0.00310451
0.00310273
0.00310111
0.00309961
0.00309783
0.00309606
0.00309408
0.00309204
0.00308995
0.00308771
0.00308549
0.00308321
0.00308102
0.00307881
0.00307671
0.00307462
0.00307266
0.00307074
0.00306892
0.00306724
0.00306561
0.00306409
0.00306259
0.00306122
0.00305983
0.00305868
0.00305731
3.67033e-06
3.29619e-05
7.87929e-05
0.000195398
0.000425946
0.000834188
0.00144056
0.00215461
0.002935
0.00371976
0.00446779
0.00516326
0.00581263
0.00643538
0.00702529
0.00761282
0.00821562
0.0088404
0.00949882
0.0101961
0.0109476
0.0117315
0.0125668
0.0133951
0.0142404
0.0150855
0.0158891
0.0166616
0.0173481
0.0180301
0.0186707
0.0192367
0.0197232
0.0201013
0.0204362
0.0206403
0.020803
0.0207865
0.0207126
0.0205559
0.020295
0.0200484
0.0197435
0.0194337
0.0190955
0.0187325
0.0183591
0.0179827
0.0176163
0.0172591
0.0169159
0.0165807
0.0162511
0.0159232
0.0155909
0.0152826
0.0149723
0.0146856
0.0144033
0.0141259
0.0138647
0.0136031
0.0133485
0.0131058
0.0128641
0.0126414
0.0124178
0.0122069
0.0119964
0.0117915
0.0115941
0.0113996
0.0112133
0.0110323
0.0108585
0.0106916
0.0105284
0.0103761
0.0102227
0.0100832
0.00994907
0.00981885
0.00968491
0.00956202
0.00944711
0.00933155
0.00921608
0.00910589
0.00900291
0.00890819
0.00881001
0.00870939
0.0086141
0.00852427
0.00844327
0.00835954
0.00827403
0.00819143
0.00811463
0.00803878
0.00796357
0.00789304
0.00782697
0.00775902
0.00769105
0.00762445
0.00756308
0.00750058
0.00744025
0.00738061
0.00732086
0.00726113
0.00720042
0.00714238
0.0070845
0.0070308
0.00697904
0.00692893
0.00688274
0.00683726
0.00679182
0.00674535
0.00669905
0.00665358
0.00661063
0.00656845
0.00653182
0.00649623
0.00646316
0.00643306
0.00640509
0.00637835
0.00635259
0.00632656
0.00629988
0.00627201
0.00624351
0.00621457
0.00618527
0.00615672
0.00612819
0.0061013
0.00607449
0.00604924
0.0060243
0.00600055
0.00597637
0.00595401
0.00593129
0.00590844
0.00588679
0.00586482
0.00584353
0.0058226
0.00580174
0.00578134
0.00576134
0.00574194
0.00572291
0.00570483
0.00568712
0.0056704
0.00565447
0.00563913
0.00562476
0.00561074
0.00559775
0.00558462
0.00557248
0.00556027
0.00554818
0.00553647
0.0055247
0.00551311
0.00550164
0.00549019
0.00547883
0.00546747
0.00545633
0.00544524
0.00543451
0.00542373
0.0054136
0.00540358
0.00539421
0.00538495
0.00537653
0.00536802
0.00536058
0.00535318
0.00534698
0.0053407
0.00533512
0.00532923
0.00532339
0.00531737
0.00531103
0.00530439
0.0052976
0.00529058
0.00528357
0.00527651
0.00526963
0.0052631
0.00525698
0.00525135
0.00524632
0.00524182
0.00523803
0.00523464
0.00523113
0.00522811
0.00522477
0.00522143
0.00521809
0.00521458
0.00521094
0.00520712
0.00520322
0.00519921
0.00519509
0.00519114
0.00518703
0.00518323
0.00517932
0.00517579
0.00517223
0.005169
0.00516572
0.00516272
0.0051597
0.00515696
0.0051542
0.00515175
0.00514923
0.00514711
0.00514481
0.00514292
0.00514079
0.00513822
1.09749e-05
0.000105796
0.00024418
0.000555003
0.00114148
0.0021588
0.00346917
0.00491658
0.00633182
0.0076166
0.00875927
0.00979255
0.0107086
0.0115545
0.0123496
0.013124
0.0138991
0.0146879
0.0155029
0.0163454
0.0172205
0.0181111
0.019017
0.0199019
0.0207619
0.0215716
0.0223148
0.0229979
0.0235976
0.0241497
0.0246271
0.024991
0.0252363
0.0253305
0.0253697
0.0252685
0.0251007
0.0247867
0.0244018
0.0237238
0.0231405
0.0227634
0.0221962
0.0218628
0.0213443
0.0210001
0.0204812
0.0201067
0.0196131
0.0192567
0.0188787
0.0185198
0.0182088
0.0178672
0.0175309
0.0172142
0.0169095
0.0166233
0.0163491
0.0160885
0.0158331
0.015597
0.0153635
0.0151429
0.0149284
0.0147225
0.0145231
0.0143288
0.0141396
0.0139532
0.0137737
0.0135984
0.013429
0.0132667
0.0131084
0.0129572
0.0128084
0.0126692
0.0125281
0.0123957
0.0122735
0.0121531
0.0120286
0.0119083
0.0118005
0.0116922
0.011581
0.0114747
0.0113664
0.0112784
0.011185
0.0110879
0.0109941
0.0108988
0.0108209
0.0107387
0.0106539
0.0105685
0.0104908
0.0104134
0.0103366
0.0102598
0.0101929
0.010123
0.0100526
0.00998131
0.00991662
0.00985011
0.00978562
0.00972067
0.00965544
0.00958944
0.00952234
0.00945732
0.00939366
0.00933466
0.00927701
0.00922126
0.00916869
0.0091174
0.00906505
0.00901116
0.00895721
0.00890397
0.00885452
0.00880509
0.00876215
0.00872024
0.00868174
0.008646
0.00861228
0.00857946
0.00854729
0.00851491
0.00848172
0.00844681
0.00841092
0.00837434
0.00833732
0.00830161
0.00826575
0.0082319
0.00819834
0.00816679
0.00813509
0.00810514
0.00807423
0.00804569
0.00801666
0.00798734
0.00795919
0.00793086
0.00790319
0.00787576
0.00784828
0.00782144
0.00779484
0.00776928
0.0077438
0.0077198
0.00769585
0.00767354
0.00765186
0.00763114
0.00761147
0.00759214
0.00757409
0.00755571
0.00753864
0.00752133
0.00750392
0.00748719
0.00747028
0.00745368
0.00743722
0.00742087
0.00740463
0.00738853
0.00737265
0.00735702
0.00734169
0.00732655
0.0073121
0.00729793
0.00728447
0.00727129
0.00725902
0.00724697
0.00723604
0.00722536
0.00721594
0.00720656
0.00719796
0.00718906
0.00718002
0.00717084
0.00716131
0.0071515
0.00714155
0.0071314
0.00712143
0.00711151
0.0071017
0.00709262
0.007084
0.00707611
0.00706889
0.00706235
0.00705669
0.00705156
0.00704616
0.00704152
0.00703644
0.00703128
0.00702617
0.00702092
0.00701559
0.00701014
0.00700462
0.0069991
0.00699345
0.00698812
0.0069826
0.00697754
0.0069723
0.00696763
0.00696288
0.00695863
0.00695426
0.00695031
0.00694625
0.00694264
0.0069389
0.00693568
0.00693231
0.00692958
0.00692655
0.00692418
0.0069215
0.00691822
2.54447e-05
0.000240133
0.000559573
0.00120512
0.00237731
0.00412046
0.00606187
0.00798297
0.00974336
0.0113043
0.012698
0.0138961
0.014958
0.0159285
0.0168267
0.0176859
0.0185266
0.0193652
0.0202107
0.021065
0.0219259
0.0227798
0.0236147
0.0243956
0.0251176
0.0257744
0.026344
0.0268273
0.0271992
0.0274553
0.0275957
0.0275941
0.0268755
0.0260396
0.0251017
0.0243112
0.0235114
0.0226829
0.0220599
0.0213323
0.0204761
0.0201769
0.0194313
0.0190806
0.0184214
0.0180899
0.0175224
0.0171807
0.0167296
0.0164311
0.0160995
0.0158349
0.0156093
0.0155216
0.0154593
0.0153406
0.0152555
0.015162
0.0150892
0.0150862
0.0149931
0.0149693
0.0150337
0.0150139
0.0149683
0.0148309
0.0147022
0.0145685
0.0144423
0.0143143
0.0141917
0.0140709
0.0139529
0.013841
0.0137297
0.0136239
0.0135178
0.0134197
0.0133193
0.0132192
0.0131332
0.0130481
0.012959
0.0128661
0.0127874
0.0127093
0.0126284
0.0125464
0.0124587
0.0123946
0.0123281
0.0122581
0.012185
0.0121069
0.0120486
0.0119882
0.0119242
0.0118571
0.0117956
0.0117356
0.0116741
0.0116096
0.0115571
0.0115042
0.0114485
0.0113906
0.0113383
0.0112846
0.0112321
0.0111783
0.0111241
0.0110685
0.0110113
0.0109565
0.0109007
0.0108514
0.0108028
0.0107559
0.0107109
0.0106673
0.0106222
0.0105754
0.0105284
0.0104807
0.0104372
0.0103928
0.0103557
0.0103198
0.0102874
0.0102567
0.0102279
0.0101993
0.0101715
0.0101426
0.0101136
0.0100819
0.0100489
0.0100147
0.00997996
0.00994656
0.00991278
0.009881
0.00984948
0.00982007
0.00979029
0.00976228
0.00973311
0.00970617
0.00967859
0.00965058
0.00962352
0.00959613
0.00956932
0.00954265
0.00951579
0.00948943
0.00946313
0.00943788
0.00941262
0.00938874
0.00936503
0.00934279
0.00932141
0.00930076
0.00928138
0.00926213
0.00924423
0.00922584
0.00920873
0.00919113
0.00917336
0.0091561
0.00913864
0.00912146
0.00910431
0.00908727
0.00907025
0.00905338
0.00903665
0.00902027
0.00900402
0.00898824
0.00897291
0.00895812
0.00894391
0.00893015
0.00891724
0.00890478
0.00889342
0.0088824
0.00887262
0.00886291
0.00885394
0.00884462
0.00883507
0.00882534
0.00881503
0.00880444
0.00879374
0.00878274
0.00877204
0.00876139
0.00875097
0.00874149
0.00873243
0.0087243
0.00871681
0.00871025
0.0087045
0.0086996
0.008694
0.00868971
0.00868458
0.00867928
0.00867406
0.00866865
0.00866315
0.0086576
0.0086519
0.00864637
0.00864059
0.00863534
0.00862981
0.00862491
0.00861975
0.00861535
0.0086108
0.00860692
0.00860281
0.0085993
0.00859552
0.00859236
0.0085889
0.00858617
0.00858314
0.00858102
0.00857842
0.00857681
0.0085747
0.00857229
4.82371e-05
0.000444956
0.00105247
0.00215171
0.0040292
0.00624117
0.00856395
0.0107557
0.0127189
0.0144671
0.0159792
0.0172683
0.0184149
0.0194443
0.0203793
0.0212531
0.0220834
0.0228888
0.0236781
0.0244513
0.0252032
0.0259229
0.026585
0.0271809
0.0276974
0.0281016
0.0283884
0.0285609
0.0280487
0.0272386
0.0262645
0.0253008
0.02408
0.0229591
0.021816
0.0207808
0.020001
0.0190461
0.0183893
0.0176421
0.016656
0.0162697
0.0154722
0.0150103
0.0143129
0.0139372
0.0134299
0.0131332
0.0128175
0.0125439
0.0123116
0.0121305
0.0119593
0.0119772
0.0119173
0.0119209
0.0118506
0.0118795
0.011844
0.011929
0.0119455
0.011994
0.0121536
0.0121827
0.0123444
0.0124448
0.0124885
0.0126515
0.0127242
0.0128708
0.0129295
0.0130565
0.0131428
0.0131141
0.0130789
0.0130447
0.0130054
0.012971
0.0129301
0.0128844
0.0128515
0.0128187
0.0127794
0.0127342
0.0126988
0.0126661
0.0126292
0.0125863
0.0125365
0.0125058
0.0124763
0.0124426
0.0124037
0.0123577
0.012327
0.012297
0.0122632
0.0122258
0.0121901
0.012157
0.0121204
0.0120798
0.0120501
0.0120222
0.0119906
0.0119565
0.0119254
0.0118937
0.0118623
0.0118287
0.0117953
0.0117595
0.0117224
0.0116859
0.0116476
0.0116163
0.0115853
0.0115556
0.0115263
0.0114984
0.0114689
0.0114386
0.0114067
0.0113739
0.0113443
0.0113132
0.01129
0.0112674
0.0112478
0.0112289
0.0112118
0.0111944
0.0111777
0.0111594
0.0111414
0.0111203
0.0110979
0.0110737
0.0110489
0.0110252
0.0110009
0.0109786
0.0109559
0.0109355
0.0109147
0.0108951
0.0108746
0.0108554
0.0108359
0.0108158
0.0107962
0.010776
0.0107565
0.0107367
0.0107166
0.0106969
0.010677
0.0106579
0.0106388
0.0106206
0.0106027
0.0105859
0.01057
0.0105546
0.0105406
0.0105265
0.0105137
0.0105003
0.0104879
0.010475
0.0104619
0.0104489
0.0104356
0.0104225
0.0104093
0.0103961
0.0103828
0.0103696
0.0103564
0.0103435
0.0103306
0.0103183
0.0103061
0.0102946
0.0102835
0.010273
0.0102632
0.0102539
0.0102455
0.0102376
0.0102308
0.0102241
0.0102179
0.0102116
0.0102046
0.0101974
0.0101897
0.0101814
0.010173
0.0101644
0.0101559
0.0101475
0.0101394
0.0101323
0.0101255
0.0101197
0.0101145
0.0101105
0.010107
0.0101047
0.0101013
0.0100997
0.0100969
0.0100938
0.0100908
0.0100874
0.010084
0.0100806
0.0100768
0.0100733
0.0100695
0.0100664
0.0100628
0.0100601
0.0100569
0.0100547
0.0100522
0.0100506
0.0100486
0.0100473
0.0100456
0.0100446
0.0100432
0.0100426
0.0100416
0.0100417
0.0100412
0.0100419
0.010042
0.0100427
7.80544e-05
0.000717444
0.00170854
0.00335019
0.00569221
0.00822388
0.0107736
0.0131139
0.0151969
0.0170708
0.0186201
0.0199726
0.0211592
0.0222044
0.0231299
0.0239655
0.0247293
0.0254407
0.0261092
0.0267337
0.0273078
0.0278147
0.0282515
0.0285889
0.028826
0.0284242
0.027389
0.0265287
0.025381
0.0243193
0.0229777
0.0217922
0.0203709
0.0191189
0.0181997
0.0169951
0.0163266
0.0151904
0.0144064
0.0135594
0.0125871
0.0119786
0.0112303
0.01075
0.0102491
0.00986681
0.00954789
0.00927457
0.00911955
0.00887045
0.0087805
0.00867715
0.00858535
0.00866133
0.00856334
0.00863901
0.00857099
0.00868407
0.00866455
0.00879418
0.00885617
0.00896837
0.00911431
0.00917424
0.00932772
0.00946375
0.00955806
0.00973895
0.00987598
0.0100426
0.0101759
0.0103495
0.010488
0.010619
0.0107666
0.0109006
0.0110342
0.0111297
0.011269
0.0113952
0.0113942
0.0114617
0.0116185
0.0117294
0.0117415
0.0117746
0.0117918
0.0118019
0.0118041
0.0118145
0.0118288
0.0118391
0.0118426
0.0118391
0.0118421
0.0118489
0.0118519
0.0118514
0.0118487
0.0118486
0.0118443
0.0118368
0.0118351
0.0118369
0.0118349
0.0118308
0.0118265
0.0118219
0.0118168
0.0118092
0.0118022
0.0117918
0.0117807
0.0117678
0.0117532
0.0117441
0.0117353
0.0117271
0.0117181
0.0117105
0.0117022
0.0116935
0.0116817
0.0116694
0.0116583
0.0116462
0.0116404
0.0116344
0.0116313
0.0116278
0.011626
0.0116235
0.0116216
0.011618
0.0116147
0.0116089
0.0116017
0.0115924
0.0115824
0.0115731
0.0115629
0.0115544
0.011545
0.0115379
0.0115304
0.0115236
0.0115162
0.0115089
0.011502
0.0114944
0.0114867
0.0114781
0.0114703
0.0114618
0.011453
0.0114443
0.0114351
0.0114264
0.0114175
0.0114091
0.011401
0.0113936
0.0113871
0.011381
0.0113759
0.0113708
0.0113668
0.0113622
0.0113583
0.011354
0.0113495
0.0113445
0.0113392
0.0113341
0.0113285
0.011323
0.0113171
0.0113114
0.0113054
0.0112998
0.0112937
0.0112884
0.011283
0.0112784
0.0112738
0.0112699
0.0112664
0.0112635
0.0112614
0.0112596
0.0112588
0.011258
0.0112578
0.0112574
0.0112559
0.0112542
0.0112521
0.0112493
0.0112463
0.011243
0.0112397
0.0112366
0.0112338
0.0112318
0.0112301
0.0112293
0.011229
0.0112299
0.0112311
0.0112338
0.0112353
0.0112385
0.0112405
0.011242
0.0112434
0.0112447
0.0112456
0.0112466
0.011247
0.011248
0.0112483
0.0112495
0.0112502
0.0112517
0.0112527
0.0112547
0.0112563
0.0112589
0.011261
0.0112639
0.0112662
0.0112694
0.0112718
0.0112753
0.0112781
0.0112823
0.0112856
0.0112902
0.0112942
0.0113006
0.000112191
0.00104293
0.00247049
0.00458975
0.00721648
0.00995876
0.0126318
0.0150544
0.0172217
0.0191366
0.0207184
0.022107
0.0233056
0.0243366
0.0252181
0.0259754
0.0266283
0.0271966
0.0276904
0.028109
0.0284402
0.0286837
0.0288357
0.0279924
0.0269258
0.0256756
0.0244549
0.0234569
0.0220802
0.02088
0.0193223
0.0179859
0.0168982
0.0156187
0.0149923
0.0136399
0.0127618
0.0115699
0.0106457
0.00992509
0.00922997
0.00853618
0.00804754
0.00754962
0.00726262
0.00688195
0.00672319
0.00643822
0.00640922
0.00617935
0.0062091
0.00611884
0.00612794
0.00617511
0.00608499
0.00615408
0.00612949
0.00626142
0.00627942
0.00642515
0.00647667
0.00663663
0.00673961
0.0068018
0.00692453
0.0070207
0.00711948
0.00724636
0.00737633
0.00750411
0.00763367
0.00778942
0.00790375
0.00805141
0.00819387
0.00834317
0.00848338
0.00861276
0.00876269
0.00889926
0.00898878
0.00909687
0.00924436
0.00939693
0.0094894
0.00959847
0.00973157
0.0098877
0.0100218
0.0100565
0.0101189
0.0102148
0.0103697
0.0105022
0.0105224
0.0105703
0.0106636
0.0107945
0.0108822
0.0109422
0.010978
0.0110112
0.011043
0.0110789
0.0111109
0.0111407
0.0111683
0.0111946
0.01122
0.0112432
0.0112659
0.0112852
0.0113038
0.0113194
0.0113331
0.0113496
0.0113661
0.0113824
0.0113974
0.0114134
0.0114294
0.0114447
0.011457
0.0114684
0.0114791
0.0114882
0.0115015
0.0115141
0.0115293
0.0115435
0.0115588
0.0115732
0.0115882
0.0116017
0.0116153
0.0116268
0.0116374
0.0116458
0.0116531
0.0116607
0.0116671
0.0116747
0.0116812
0.0116895
0.0116976
0.011706
0.0117139
0.0117215
0.0117295
0.0117369
0.0117439
0.0117499
0.0117562
0.011762
0.0117671
0.0117721
0.0117763
0.0117807
0.0117845
0.0117886
0.0117927
0.0117974
0.0118026
0.0118081
0.0118146
0.0118209
0.0118281
0.0118348
0.0118421
0.0118488
0.0118554
0.0118613
0.0118665
0.0118719
0.0118767
0.0118815
0.0118858
0.0118902
0.0118941
0.0118984
0.0119021
0.0119064
0.0119105
0.0119152
0.0119198
0.011925
0.0119304
0.0119363
0.0119428
0.0119496
0.0119571
0.0119646
0.0119726
0.0119805
0.0119872
0.0119933
0.0119993
0.0120044
0.0120092
0.0120139
0.0120184
0.0120231
0.012028
0.0120336
0.0120393
0.0120458
0.0120526
0.0120607
0.0120688
0.0120784
0.0120868
0.012097
0.0121058
0.0121141
0.0121221
0.0121301
0.0121374
0.012145
0.0121517
0.0121592
0.0121659
0.0121735
0.0121804
0.0121882
0.0121953
0.0122035
0.0122111
0.0122199
0.012228
0.0122371
0.0122452
0.0122543
0.0122624
0.0122717
0.0122801
0.01229
0.0122988
0.0123091
0.0123186
0.0123332
0.000147962
0.00140119
0.00325674
0.00570972
0.0085317
0.0114124
0.0141421
0.0166045
0.0188194
0.0207458
0.0223565
0.0237624
0.0249562
0.0259515
0.0267605
0.0274049
0.0279062
0.0282845
0.028549
0.0287
0.0287487
0.0278358
0.0265102
0.0250598
0.0238743
0.0226194
0.0213163
0.0202475
0.0186582
0.0173762
0.0160528
0.0148275
0.0142695
0.0128718
0.0120346
0.0106768
0.00976572
0.00872006
0.0079038
0.0071443
0.00675072
0.00603867
0.00579582
0.0053261
0.0052502
0.00492238
0.00493083
0.00469517
0.00474461
0.00457189
0.00466423
0.00451601
0.00465977
0.00460362
0.00455751
0.00450936
0.00448907
0.00447115
0.00446834
0.00448744
0.00451649
0.00455459
0.00460514
0.00466908
0.00474422
0.00482904
0.00492627
0.00503302
0.00515009
0.00527637
0.00541147
0.00555305
0.00570482
0.00586546
0.00602223
0.00618959
0.00634976
0.00651824
0.00665481
0.00677347
0.00686113
0.00694872
0.00706081
0.00719415
0.00730176
0.00740922
0.00752718
0.00766871
0.00782108
0.00790672
0.00798922
0.00808741
0.00823407
0.00839008
0.0084864
0.00856141
0.00866852
0.00880873
0.00893966
0.00904333
0.00916556
0.00928446
0.00935821
0.00942704
0.00951695
0.00962893
0.00972277
0.00980087
0.00986879
0.00996309
0.0100784
0.0102066
0.0103342
0.0104207
0.0104699
0.0105165
0.0105615
0.0106062
0.0106492
0.0106923
0.0107344
0.0107762
0.0108146
0.0108522
0.010886
0.0109193
0.0109534
0.0109869
0.0110217
0.0110558
0.0110896
0.0111228
0.0111558
0.011188
0.0112196
0.0112503
0.0112792
0.0113068
0.0113329
0.0113589
0.0113835
0.0114085
0.0114326
0.0114576
0.0114825
0.0115076
0.011532
0.0115563
0.0115803
0.0116042
0.0116273
0.0116495
0.0116714
0.011693
0.0117134
0.0117337
0.0117528
0.0117718
0.0117899
0.011808
0.0118257
0.0118438
0.0118622
0.0118808
0.0119002
0.0119194
0.0119394
0.0119589
0.0119787
0.0119981
0.0120174
0.0120356
0.0120531
0.0120707
0.0120874
0.0121042
0.0121203
0.0121365
0.012152
0.0121679
0.012183
0.0121987
0.012214
0.0122297
0.0122453
0.0122611
0.0122772
0.0122935
0.0123103
0.0123272
0.0123448
0.0123621
0.0123801
0.0123976
0.0124143
0.0124301
0.0124459
0.0124608
0.0124754
0.0124898
0.012504
0.0125183
0.0125328
0.0125478
0.0125628
0.0125784
0.012594
0.0126107
0.0126274
0.0126455
0.0126625
0.0126812
0.0126985
0.0127153
0.0127317
0.012748
0.0127635
0.0127792
0.0127941
0.0128097
0.0128245
0.0128402
0.0128551
0.0128709
0.0128858
0.0129019
0.0129172
0.0129338
0.0129494
0.0129662
0.0129818
0.0129984
0.0130138
0.0130305
0.013046
0.013063
0.0130788
0.0130962
0.0131128
0.0131378
0.000183321
0.00175006
0.00399029
0.0066726
0.00962677
0.0125727
0.0153152
0.0177898
0.0200392
0.021988
0.0236259
0.0250366
0.0262089
0.0271451
0.0278487
0.0283392
0.0286398
0.028773
0.0287466
0.0279231
0.0265377
0.0248282
0.0233542
0.0220284
0.0208653
0.0195691
0.0182412
0.0171623
0.0157166
0.0145315
0.0138968
0.0126536
0.01197
0.0106267
0.00955044
0.00840109
0.00739458
0.00649468
0.00576524
0.00506626
0.00480958
0.00433122
0.00425619
0.0039897
0.00407638
0.00396797
0.00387453
0.00374151
0.00360035
0.00349754
0.00339096
0.00330913
0.00324486
0.00317744
0.00312666
0.0030714
0.00303585
0.0029979
0.00298236
0.00296506
0.00296826
0.00297286
0.00299478
0.00301722
0.00305016
0.00308742
0.00313461
0.00318968
0.00325385
0.00332497
0.00340499
0.00349197
0.00358687
0.00368943
0.00379908
0.00391468
0.00403803
0.0041647
0.00429927
0.00443658
0.00457682
0.00471989
0.00486933
0.00502501
0.00518204
0.00534021
0.00550092
0.00566333
0.00582746
0.00598211
0.00613982
0.00629325
0.00640253
0.00653942
0.00664908
0.00672022
0.00680842
0.00692903
0.00705408
0.00715924
0.00727511
0.00739681
0.00749179
0.00757079
0.00766929
0.00778552
0.00790135
0.00799938
0.00808968
0.00821356
0.00834259
0.00848608
0.00863534
0.00877854
0.00891604
0.00898351
0.00904777
0.00910163
0.00915818
0.00923833
0.00933513
0.00945093
0.00957551
0.00970694
0.00982127
0.00990453
0.00995439
0.00999367
0.0100158
0.0100622
0.0100965
0.0101385
0.0101771
0.01024
0.010289
0.0103721
0.0104596
0.0105798
0.0106625
0.0107224
0.0107679
0.0108122
0.0108552
0.0108984
0.0109413
0.0109844
0.0110261
0.0110682
0.0111094
0.0111507
0.0111905
0.01123
0.0112686
0.0113066
0.0113435
0.0113799
0.0114149
0.0114495
0.0114829
0.011516
0.0115483
0.0115808
0.0116133
0.011646
0.0116791
0.0117122
0.0117458
0.0117789
0.0118122
0.011845
0.0118776
0.0119092
0.01194
0.0119705
0.0120001
0.0120298
0.0120586
0.0120875
0.0121156
0.012144
0.0121717
0.0121996
0.0122271
0.0122548
0.0122823
0.0123098
0.0123375
0.0123652
0.0123934
0.0124214
0.01245
0.0124781
0.0125071
0.0125353
0.0125631
0.0125897
0.0126163
0.0126422
0.0126678
0.0126931
0.0127182
0.0127433
0.0127686
0.0127942
0.0128196
0.0128454
0.012871
0.0128976
0.0129238
0.0129516
0.0129783
0.0130065
0.0130334
0.01306
0.013086
0.0131119
0.0131369
0.013162
0.0131863
0.0132111
0.0132353
0.0132603
0.0132845
0.0133095
0.0133336
0.0133587
0.0133831
0.0134086
0.0134332
0.0134589
0.0134833
0.0135087
0.0135327
0.0135579
0.0135818
0.0136071
0.0136312
0.0136568
0.0136814
0.0137187
0.00021612
0.00206537
0.00462645
0.00746613
0.0104904
0.0134453
0.0162143
0.0187227
0.0209914
0.0229454
0.0245914
0.0259888
0.0271179
0.0279647
0.0285221
0.0288056
0.0288432
0.0285128
0.0268344
0.024936
0.0233016
0.021744
0.0203873
0.0191079
0.0181011
0.0169264
0.0157127
0.0147174
0.0138717
0.0128318
0.0123543
0.0110515
0.00999711
0.00877199
0.0076024
0.00650517
0.00550233
0.00468365
0.00403673
0.00350805
0.00323246
0.00299692
0.00296589
0.00290528
0.0029968
0.00297516
0.00288045
0.00280466
0.00272088
0.00265531
0.00258488
0.00252475
0.00246683
0.00240337
0.0023523
0.00229837
0.00226352
0.0022304
0.00220902
0.0021934
0.00218343
0.00218122
0.00217998
0.00218661
0.00219126
0.00220398
0.00221709
0.0022389
0.00225914
0.0022854
0.00231341
0.00234633
0.00238201
0.00242314
0.00246878
0.00251942
0.00257475
0.0026354
0.00270115
0.0027728
0.00284943
0.00293211
0.00302109
0.00311738
0.00322019
0.00332856
0.0034433
0.00356424
0.00368886
0.00381826
0.00395051
0.00408992
0.00423311
0.00438108
0.00453281
0.0046811
0.00483562
0.00498863
0.00514948
0.00529989
0.00545662
0.00560857
0.0057607
0.00590805
0.00606125
0.00620988
0.00631014
0.00641645
0.00650146
0.00661208
0.00672991
0.00685746
0.00698345
0.00711853
0.0072526
0.00732812
0.00739479
0.00746027
0.00754123
0.00763565
0.00774579
0.00786684
0.00799779
0.00813802
0.00828076
0.00837536
0.00844862
0.00850845
0.00855526
0.00861147
0.00865566
0.00871238
0.00876106
0.0088319
0.00888981
0.00899125
0.00909631
0.0092253
0.00932521
0.00943032
0.00952576
0.00961201
0.00969223
0.00976603
0.00983551
0.00991022
0.00998857
0.0100602
0.0101322
0.01021
0.0102781
0.0103647
0.0104353
0.0105107
0.0105878
0.0106641
0.0107365
0.0108085
0.0108756
0.0109434
0.011001
0.0110491
0.0110964
0.011144
0.0111914
0.011239
0.0112866
0.011334
0.0113812
0.0114281
0.0114745
0.01152
0.0115647
0.0116089
0.0116519
0.011695
0.0117372
0.0117793
0.0118207
0.0118622
0.0119028
0.0119437
0.011984
0.0120243
0.0120642
0.0121042
0.012144
0.0121838
0.0122238
0.0122635
0.0123037
0.0123432
0.0123837
0.0124231
0.0124624
0.0125006
0.0125388
0.0125761
0.0126134
0.0126502
0.0126868
0.0127234
0.0127602
0.012797
0.0128336
0.0128702
0.0129065
0.0129434
0.0129799
0.0130179
0.013055
0.0130934
0.0131308
0.0131678
0.0132042
0.0132404
0.0132757
0.013311
0.0133454
0.0133804
0.0134148
0.0134499
0.0134843
0.0135193
0.0135535
0.0135885
0.0136227
0.0136581
0.0136926
0.013728
0.0137622
0.0137971
0.0138307
0.0138652
0.0138984
0.0139328
0.0139663
0.0140008
0.0140344
0.0140852
0.000245587
0.00233435
0.00514485
0.00808449
0.0111225
0.0141188
0.0169019
0.0194073
0.021662
0.023614
0.0252572
0.0266276
0.0276913
0.0284134
0.0287743
0.0287837
0.027429
0.0257462
0.0236401
0.0217364
0.0203188
0.0188469
0.017778
0.0167741
0.0161103
0.0151332
0.0140937
0.0134082
0.0129594
0.01183
0.0110267
0.00978864
0.00852935
0.00728552
0.00594142
0.00496066
0.00401609
0.00339387
0.00287633
0.00248089
0.00225929
0.00209449
0.00205078
0.0020656
0.0021718
0.00228297
0.00228164
0.0022324
0.00218124
0.00213637
0.00209171
0.00204704
0.00199968
0.00195016
0.00192399
0.00189717
0.00188321
0.00186977
0.00186058
0.00185429
0.00184913
0.00184862
0.00184785
0.00185006
0.00185111
0.00185356
0.00185746
0.0018614
0.00186717
0.00187262
0.00187986
0.00188798
0.00189724
0.00190835
0.00192025
0.00193478
0.00195077
0.0019681
0.00198705
0.00200945
0.0020322
0.00205869
0.00208886
0.00212321
0.00216138
0.00220377
0.00225046
0.00230218
0.00235854
0.00241939
0.00248502
0.00255628
0.00263463
0.00271905
0.00280872
0.00290561
0.00300717
0.00311634
0.00322985
0.00335073
0.00347433
0.00360392
0.0037357
0.0038724
0.00401173
0.0041575
0.00430765
0.00445931
0.00461462
0.00477401
0.00493228
0.00509321
0.0052501
0.00540856
0.00556104
0.00570545
0.00584717
0.00598446
0.00612513
0.00623992
0.00634939
0.0064597
0.00658036
0.00670024
0.00683389
0.00693596
0.00700238
0.00706231
0.0071261
0.00718206
0.00724092
0.00730387
0.00736487
0.00743908
0.00751925
0.00762671