/*--------------------------------*- C++ -*----------------------------------*\
| =========                 |                                                 |
| \\      /  F ield         | OpenFOAM: The Open Source CFD Toolbox           |
|  \\    /   O peration     | Version:  2312                                  |
|   \\  /    A nd           | Website:  www.openfoam.com                      |
|    \\/     M anipulation  |                                                 |
\*---------------------------------------------------------------------------*/
FoamFile
{
    version     2.0;
    format      ascii;
    arch        "LSB;label=32;scalar=64";
    class       volScalarField;
    location    "0.003";
    object      omega;
}
// * * * * * * * * * * * * * * * * * * * * * * * * * * * * * * * * * * * * * //

dimensions      [0 0 -1 0 0 0 0];

internalField   nonuniform List<scalar> 
48128
(
2.02017e+06
2.02486e+06
2.02855e+06
2.04598e+06
2.07268e+06
2.12362e+06
2.19296e+06
2.26717e+06
2.33905e+06
2.4014e+06
2.44934e+06
2.48494e+06
2.51274e+06
2.52928e+06
2.53824e+06
2.5416e+06
2.53916e+06
2.53127e+06
2.51831e+06
2.49992e+06
2.47443e+06
2.4456e+06
2.41511e+06
2.38075e+06
2.34498e+06
2.30848e+06
2.27325e+06
2.24015e+06
2.20898e+06
2.18435e+06
2.16412e+06
2.15061e+06
2.14368e+06
2.13819e+06
2.13399e+06
2.12946e+06
2.12385e+06
2.11091e+06
2.09568e+06
2.07571e+06
2.04857e+06
2.04371e+06
2.04061e+06
2.04599e+06
2.04926e+06
2.04367e+06
2.03276e+06
2.01926e+06
2.00352e+06
1.98813e+06
1.97209e+06
1.95662e+06
1.93899e+06
1.91999e+06
1.89899e+06
1.87898e+06
1.85829e+06
1.83937e+06
1.81997e+06
1.79986e+06
1.78186e+06
1.76273e+06
1.74356e+06
1.72547e+06
1.70701e+06
1.69084e+06
1.67438e+06
1.65939e+06
1.64428e+06
1.62997e+06
1.6164e+06
1.60304e+06
1.59056e+06
1.57842e+06
1.56707e+06
1.55635e+06
1.54587e+06
1.53639e+06
1.52689e+06
1.51874e+06
1.51041e+06
1.50243e+06
1.49425e+06
1.488e+06
1.4814e+06
1.4747e+06
1.46869e+06
1.46258e+06
1.45872e+06
1.45388e+06
1.44881e+06
1.4439e+06
1.43888e+06
1.43608e+06
1.43242e+06
1.42856e+06
1.42446e+06
1.42166e+06
1.41862e+06
1.41569e+06
1.41256e+06
1.41094e+06
1.40871e+06
1.40629e+06
1.40375e+06
1.40194e+06
1.40004e+06
1.39811e+06
1.39648e+06
1.39488e+06
1.39356e+06
1.39226e+06
1.39146e+06
1.39057e+06
1.39023e+06
1.38966e+06
1.38894e+06
1.38815e+06
1.38732e+06
1.38644e+06
1.38559e+06
1.38481e+06
1.38417e+06
1.38392e+06
1.38352e+06
1.38354e+06
1.38312e+06
1.38254e+06
1.38172e+06
1.38077e+06
1.37968e+06
1.37852e+06
1.37737e+06
1.37624e+06
1.37518e+06
1.37422e+06
1.3735e+06
1.37301e+06
1.37281e+06
1.37265e+06
1.37265e+06
1.37257e+06
1.37249e+06
1.37227e+06
1.37198e+06
1.37162e+06
1.37124e+06
1.37086e+06
1.37044e+06
1.37009e+06
1.36974e+06
1.36943e+06
1.3692e+06
1.36896e+06
1.36882e+06
1.36867e+06
1.36858e+06
1.36845e+06
1.36831e+06
1.36813e+06
1.36794e+06
1.36768e+06
1.3674e+06
1.36706e+06
1.36669e+06
1.36628e+06
1.36586e+06
1.36541e+06
1.365e+06
1.36455e+06
1.3642e+06
1.36389e+06
1.36365e+06
1.36348e+06
1.36337e+06
1.3633e+06
1.36327e+06
1.36328e+06
1.36331e+06
1.36334e+06
1.36338e+06
1.36339e+06
1.36338e+06
1.36334e+06
1.36325e+06
1.36312e+06
1.36295e+06
1.36273e+06
1.36246e+06
1.36213e+06
1.36176e+06
1.36136e+06
1.36096e+06
1.36054e+06
1.36025e+06
1.36006e+06
1.35999e+06
1.35999e+06
1.36011e+06
1.36026e+06
1.36042e+06
1.36056e+06
1.36063e+06
1.36063e+06
1.36055e+06
1.36038e+06
1.36013e+06
1.3598e+06
1.35939e+06
1.35894e+06
1.35847e+06
1.35808e+06
1.35762e+06
1.35734e+06
1.35718e+06
1.35701e+06
1.35694e+06
1.35687e+06
1.35684e+06
1.35682e+06
1.35679e+06
1.35675e+06
1.35669e+06
1.35661e+06
1.35651e+06
1.35637e+06
1.35622e+06
1.35604e+06
1.35584e+06
1.35563e+06
1.35541e+06
1.35518e+06
1.35496e+06
1.35473e+06
1.35451e+06
1.35428e+06
1.35405e+06
1.35382e+06
1.35347e+06
1.35335e+06
723429
516171
732131
889189
984645
1.00882e+06
959032
907324
857191
815995
786018
765160
751214
741847
735984
732181
729187
726648
724433
722693
719124
717354
712081
708839
706471
704905
703855
703501
714000
724110
735273
747428
760414
773775
786606
798795
809162
818387
825171
830946
835525
841400
848134
852866
855094
854495
852244
848414
843439
837604
831285
824512
817507
809543
800563
790843
780746
770429
760172
749800
739163
729400
719511
709689
700166
690448
681490
672396
663978
655740
647773
640309
632996
626162
619509
613219
607327
601768
596161
591057
586780
582355
577878
573353
569925
566393
562775
558935
555513
553411
551021
548399
545519
542686
541160
539371
537406
535135
533553
531921
530234
528401
527538
526544
525426
524132
523176
522257
521284
520367
519391
518483
517656
516847
516443
516167
516025
515858
515679
515515
515283
515015
514681
514555
514541
514734
515012
515324
515661
515851
516073
516134
516105
516051
515974
515845
515620
515392
515214
515223
515225
515338
515503
515767
515974
516200
516415
516640
516872
517106
517291
517506
517722
517944
518169
518422
518688
518994
519323
519659
520045
520379
520776
521116
521494
521832
522171
522491
522796
523145
523330
523536
523710
523889
524074
524255
524429
524604
524790
524980
525182
525403
525641
525871
526114
526358
526605
526845
527094
527328
527550
527769
527926
528132
528109
528134
528171
528186
528194
528234
528273
528382
528517
528658
528813
528976
529144
529326
529463
529613
529714
529760
529819
529724
529677
529641
529590
529557
529517
529497
529482
529473
529475
529483
529499
529518
529540
529558
529579
529590
529604
529604
529603
529593
529585
529565
529555
529537
529483
529310
722990
349456
491996
574556
599685
571152
519758
478330
446493
425084
412432
406141
403722
403391
405772
408920
412716
416945
421574
426528
431606
437292
442993
450244
458394
467699
478802
491689
507803
524327
542163
560892
580505
600447
619949
638432
655325
670086
681942
691559
699607
704989
709160
710256
709761
707634
704112
699262
693546
687052
679938
672292
664181
655442
646060
636236
626017
615583
605028
594374
583553
573246
562995
552754
542887
532916
523500
514105
505173
496448
488014
479934
472107
464637
457433
450528
443969
437665
431617
425639
420529
415369
410328
405188
400870
396615
392349
388113
383764
380582
377339
374018
370626
367063
364492
361876
359207
356365
353961
351602
349238
346737
344879
343003
341110
339129
337381
335719
334033
332435
330806
329265
327703
326262
324859
323666
322564
321483
320440
319489
318546
317607
316695
315801
315031
314228
313700
313155
312703
312246
311818
311382
310941
310504
310066
309612
309102
308587
308058
307586
307083
306665
306242
305888
305536
305215
304896
304584
304323
304046
303766
303511
303256
303023
302778
302572
302358
302186
302029
301882
301777
301663
301595
301516
301465
301412
301363
301322
301278
301244
301189
301123
301050
300973
300897
300821
300744
300666
300593
300528
300458
300414
300370
300339
300314
300300
300298
300299
300307
300315
300329
300347
300354
300361
300323
300274
300220
300157
300081
300012
299937
299876
299846
299819
299802
299797
299801
299816
299826
299845
299864
299858
299853
299797
299738
299676
299606
299539
299467
299401
299337
299271
299213
299155
299107
299058
299015
298971
298932
298892
298854
298813
298774
298730
298690
298644
298607
298565
298515
298384
721727
321612
401271
433776
430625
394026
361161
334335
316957
307720
303942
303205
305255
308687
313247
318297
323883
329897
336418
343405
351029
359596
369196
380391
393077
407617
423850
441894
462277
483530
506440
530379
555406
580818
605386
628472
649143
667059
681179
691652
701473
705415
708028
707148
704752
700295
694711
687864
680434
672094
663126
653522
643472
632806
621501
609859
597937
585886
573869
561925
549866
538393
527013
515700
504827
493955
483637
473461
463695
454182
444983
436098
427549
419325
411429
403803
396568
389577
382924
376316
370522
364746
359141
353473
348505
343686
338863
334157
329307
325414
321586
317715
313840
309815
306579
303417
300224
296935
293983
291122
288286
285350
282917
280511
278123
275687
273436
271296
269142
267091
265024
263047
261045
259180
257298
255624
254019
252440
250926
249482
248092
246700
245369
244024
242814
241542
240518
239479
238541
237629
236774
235945
235142
234360
233603
232852
232070
231303
230525
229790
229033
228335
227631
226978
226336
225721
225116
224526
223981
223423
222881
222358
221840
221351
220854
220395
219930
219501
219084
218683
218317
217950
217624
217300
217001
216714
216436
216175
215916
215675
215425
215176
214926
214684
214445
214211
213978
213750
213522
213306
213086
212887
212687
212500
212322
212149
211995
211841
211706
211568
211448
211326
211216
211102
210974
210844
210713
210578
210436
210295
210150
210010
209878
209757
209641
209535
209435
209350
209262
209190
209123
209049
208983
208890
208793
208696
208593
208490
208386
208282
208179
208074
207974
207873
207779
207684
207595
207505
207421
207336
207257
207175
207099
207018
206944
206866
206796
206725
206651
206511
722892
310544
346218
356091
339495
310413
286108
269575
260779
257206
256609
258935
262809
267547
273063
279124
285752
292920
300834
309561
319420
330688
343506
358330
375064
393857
414404
436818
461795
488560
517530
547820
579398
611798
641749
670075
692255
710878
723855
731488
739327
739101
737723
732981
727137
719399
710925
701273
691104
680003
668488
656241
644224
631579
618480
604990
591720
578276
565433
552711
539809
527910
515859
504117
492768
481330
470696
459989
449879
439866
430281
421008
412049
403450
395186
387214
379623
372317
365374
358417
352257
346209
340309
334341
328989
323836
318704
313674
308495
304140
299972
295777
291583
287249
283581
280081
276564
272973
269658
266457
263304
260052
257234
254506
251803
249061
246473
243996
241529
239154
236782
234501
232194
230025
227830
225843
223925
222041
220233
218485
216798
215109
213486
211842
210332
208759
207422
206083
204839
203632
202480
201366
200286
199239
198215
197217
196197
195203
194201
193251
192287
191379
190470
189610
188769
187950
187148
186363
185618
184867
184133
183420
182716
182043
181362
180722
180077
179469
178868
178293
177740
177201
176688
176193
175715
175258
174811
174386
173963
173565
173161
172770
172375
171997
171624
171261
170901
170551
170200
169866
169528
169209
168892
168587
168293
168002
167732
167462
167214
166963
166734
166502
166290
166075
165856
165639
165430
165220
165007
164796
164586
164375
164170
163976
163785
163601
163423
163258
163094
162943
162802
162658
162528
162383
162235
162092
161944
161799
161653
161508
161366
161222
161082
160941
160806
160671
160541
160410
160286
160161
160042
159922
159808
159691
159582
159469
159366
159260
159160
158989
725952
298766
306995
306173
283985
261654
244212
234052
229474
228284
229900
233681
238459
244058
250367
257374
265016
273423
282862
293498
305684
319747
335870
354273
374883
398360
424001
451713
482656
515875
551565
588712
624662
660910
688641
715584
731313
745105
752805
754776
755927
751397
744116
733880
722130
709171
695444
681357
666676
651788
637522
622445
609659
596093
583541
570374
558601
546348
535411
524394
513074
502978
492561
482688
472962
462973
453629
444013
434910
425711
416829
408230
399712
391616
383703
376129
368796
361784
355057
348251
342090
336221
330378
324436
318981
313815
308677
303592
298379
293836
289613
285356
281071
276662
272793
269171
265521
261807
258316
254939
251621
248206
245172
242263
239375
236456
233661
230980
228325
225744
223183
220708
218210
215840
213434
211247
209129
207063
205060
203118
201228
199351
197528
195679
193958
192188
190639
189107
187660
186255
184900
183590
182306
181065
179837
178648
177439
176259
175071
173945
172810
171734
170662
169640
168647
167674
166724
165789
164889
163995
163117
162257
161410
160597
159776
158998
158214
157471
156730
156025
155327
154660
154007
153381
152771
152182
151607
151054
150502
149978
149452
148943
148431
147939
147453
146982
146514
146060
145607
145172
144736
144318
143905
143503
143116
142730
142368
142004
141664
141321
141002
140680
140382
140081
139783
139486
139202
138920
138637
138360
138084
137809
137542
137284
137029
136781
136538
136306
136079
135864
135659
135453
135264
135066
134866
134673
134478
134287
134099
133911
133729
133545
133366
133186
133013
132840
132673
132504
132343
132181
132026
131870
131721
131569
131426
131280
131144
131005
130877
130669
731398
286265
278006
269393
248193
230254
217596
210990
208640
208630
211727
216160
221617
227942
235015
242914
251612
261348
272432
285110
299747
316846
336373
358867
383897
412629
444169
477708
514705
553201
592018
631646
663197
695087
713098
731984
737954
740234
735331
725509
712271
696718
678582
660707
641913
625885
608595
593554
577575
563037
549597
535637
525048
513753
504717
495066
487064
478515
471138
463571
455715
448577
441190
434193
427269
420030
413478
406757
400407
393993
387688
381484
375224
369180
363100
357231
351411
345770
340135
334402
328969
323882
318738
313484
308470
303764
299084
294388
289611
285222
281245
277237
273174
269014
265178
261622
258071
254461
250982
247603
244298
240924
237827
234882
231975
229048
226198
223465
220756
218108
215495
212951
210390
207931
205445
203153
200943
198781
196669
194611
192616
190640
188694
186731
184883
183015
181329
179677
178106
176579
175094
173661
172240
170869
169494
168172
166826
165509
164189
162929
161667
160465
159270
158127
157020
155927
154867
153812
152797
151796
150806
149834
148878
147956
147029
146143
145255
144406
143561
142751
141948
141177
140422
139691
138979
138285
137610
136952
136303
135676
135054
134447
133838
133254
132674
132111
131554
131011
130473
129952
129434
128932
128441
127958
127493
127028
126589
126147
125732
125312
124919
124522
124150
123777
123412
123045
122693
122345
121998
121660
121322
120991
120667
120352
120039
119736
119437
119150
118869
118599
118338
118080
117838
117590
117342
117102
116863
116627
116396
116168
115945
115722
115506
115289
115080
114871
114669
114465
114271
114074
113886
113697
113515
113331
113157
112980
112814
112645
112487
112242
738686
273536
256255
242829
223129
208347
198745
194128
192767
193767
197460
202303
208269
215188
222945
231684
241463
252570
265425
280337
297685
318136
341535
368724
398648
432645
469755
507552
546718
586199
620352
655105
675231
696726
697291
694845
685647
671580
653662
633135
607792
584620
558715
537942
514973
497354
478451
464216
449192
437031
425791
415220
407722
399960
394671
389148
385386
381313
378407
375525
372872
370676
368316
365981
363477
360632
357891
355027
352083
348941
345653
342191
338543
334764
330850
326857
322791
318797
314792
310737
306698
302939
299150
295275
291408
287725
284088
280395
276617
272923
269507
266156
262714
259173
255727
252497
249348
246148
242951
239846
236796
233708
230771
227974
225251
222505
219787
217165
214560
212009
209477
206993
204496
202065
199641
197335
195135
192962
190851
188769
186771
184778
182816
180850
178959
177084
175343
173639
172023
170439
168897
167397
165914
164472
163029
161628
160213
158816
157426
156085
154751
153464
152195
150971
149783
148613
147473
146342
145245
144167
143101
142050
141018
140017
139018
138052
137092
136163
135245
134354
133478
132626
131797
130983
130195
129420
128668
127928
127205
126497
125801
125116
124433
123772
123118
122480
121851
121235
120629
120036
119452
118879
118325
117774
117245
116716
116212
115706
115228
114746
114290
113832
113397
112964
112541
112117
111705
111299
110895
110502
110111
109729
109353
108988
108625
108274
107927
107593
107264
106948
106640
106336
106047
105756
105464
105181
104901
104624
104355
104087
103827
103568
103317
103066
102823
102579
102345
102110
101884
101656
101438
101218
101007
100794
100591
100385
100191
99994.4
99808.3
99527
747459
262001
239318
222720
204782
191933
184230
180679
179800
181361
185226
190294
196580
203940
212304
221864
232757
245339
260198
277776
298159
322563
350374
382281
416808
454390
494350
532938
568438
602905
627407
651863
652333
649188
637715
620031
597326
569814
538185
509033
476344
452005
425587
406539
386117
371306
355649
344334
332713
323979
315477
308659
303371
298107
294472
290766
288405
285927
284549
283151
282432
282271
282202
282467
282846
283299
283952
284551
285329
285900
286503
286950
286929
286727
286192
285338
284111
282629
280924
279004
276923
274802
272609
270279
267839
265364
262859
260274
257583
254848
252235
249714
247136
244464
241752
239139
236650
234122
231552
229037
226520
223962
221440
219005
216658
214286
211898
209548
207228
204938
202644
200384
198104
195858
193604
191425
189347
187281
185294
183313
181414
179509
177644
175757
173930
172101
170395
168703
167115
165538
164019
162517
161056
159607
158181
156767
155366
153955
152553
151185
149832
148511
147216
145957
144731
143527
142346
141182
140046
138925
137824
136732
135660
134613
133576
132560
131560
130581
129619
128675
127752
126846
125964
125095
124254
123422
122616
121818
121041
120276
119527
118787
118051
117332
116625
115930
115248
114575
113917
113269
112635
112009
111402
110800
110219
109639
109084
108528
107998
107467
106959
106452
105965
105485
105010
104542
104078
103626
103175
102735
102298
101872
101452
101044
100640
100248
99859.1
99485.1
99115.9
98760.6
98412
98068.3
97740.3
97409.6
97080.7
96759.8
96443.3
96131
95825.9
95524.3
95230.4
94938.6
94654.7
94372
94098
93824.5
93560.5
93295.9
93041.5
92785.7
92539.9
92292.2
92054.6
91814.7
91585.8
91354.6
91134.9
90913.4
90700.9
90386.1
757390
251742
224747
206776
190379
178982
172333
169309
168630
170359
174149
179252
185680
193358
202299
212743
224909
239244
256569
277338
301403
330009
362167
397722
435409
474807
514101
549484
576332
603774
611939
611363
601618
583862
559654
527156
491442
453397
417962
389607
361507
342162
322509
309639
296282
287041
277359
270300
263083
257500
251778
247191
243080
238939
235313
231559
228365
225077
222480
219972
217918
216455
214958
214223
213489
213401
213667
214153
215010
216090
217485
219050
220766
222610
224358
226178
227725
229321
230543
231784
232539
233244
233683
234015
233931
233674
233202
232488
231518
230340
229061
227729
226334
224803
223152
221447
219768
218038
216244
214410
212551
210643
208711
206797
204952
203079
201184
199271
197384
195513
193640
191795
189924
188029
186098
184190
182354
180523
178751
176989
175278
173575
171888
170177
168489
166785
165183
163569
162072
160567
159140
157707
156336
154954
153611
152268
150940
149594
148248
146915
145598
144298
143023
141777
140564
139370
138199
137039
135911
134790
133696
132602
131527
130470
129426
128396
127384
126385
125406
124438
123493
122560
121653
120755
119886
119024
118189
117361
116554
115758
114977
114206
113439
112686
111946
111215
110500
109791
109099
108414
107745
107083
106440
105802
105183
104567
103973
103380
102811
102243
101696
101152
100626
100109
99595.3
99090.9
98589.8
98100.7
97612.9
97136.9
96663.8
96202.3
95747.2
95305.3
94866.5
94441.4
94019.3
93612
93209.4
92821.3
92439.2
92062.5
91700.9
91337.5
90977.2
90624.6
90277.5
89935
89599.7
89268.5
88945.2
88624.8
88312.3
88001.9
87700.3
87400
87109.5
86819.2
86539.1
86258.4
85987.9
85716
85454.5
85191.3
84938.9
84685.1
84442
84198.7
83962.5
83617
767720
242501
211888
193692
178653
168316
162173
159334
158674
160280
163827
168804
175250
183191
192762
204296
218143
234800
255154
279617
307802
340255
376045
414688
454531
494059
528171
556684
572848
581777
575372
561866
539719
508597
469438
425086
386769
350050
321969
299285
282379
269867
260015
253343
247038
242989
238384
234840
231047
227629
223828
219978
216056
211997
207845
203489
199459
195366
191661
188180
184895
182018
179231
176786
174478
172381
170820
169215
168209
167194
166682
166357
166450
166763
167301
168104
169118
170367
171785
173393
175093
176908
178799
180832
182784
184723
186550
188306
189969
191243
192391
193294
194210
194826
195238
195317
195263
195065
194697
194129
193420
192569
191601
190558
189484
188351
187168
185919
184638
183338
182020
180682
179310
177893
176416
174914
173423
171926
170453
168995
167568
166160
164753
163327
161878
160403
158977
157534
156177
154809
153515
152208
150963
149703
148491
147272
146072
144854
143628
142403
141180
139965
138769
137587
136438
135304
134194
133084
132013
130937
129891
128837
127798
126771
125757
124749
123758
122773
121810
120851
119916
118987
118084
117188
116319
115455
114619
113788
112977
112173
111386
110607
109832
109067
108316
107571
106843
106118
105409
104706
104019
103337
102674
102014
101372
100734
100115
99499.1
98904.1
98312.7
97740.3
97173.1
96621.4
96081.3
95542.2
95014.3
94489
93975.4
93463
92962.2
92463.7
91977.1
91496.3
91028.9
90564.5
90113.8
89666.2
89233
88804.2
88390.1
87982.1
87579.6
87191.3
86802.5
86417.3
86040.1
85668.6
85302
84942.2
84586.8
84238.8
83894.6
83558
83224.3
82899.2
82576.4
82262.9
81950.8
81648.6
81346.7
81054.5
80762.1
80479.5
80196.6
79923.5
79650.4
79386.8
79124.5
78867.9
78494.5
778010
234568
200706
182720
168806
159196
153314
150410
149631
150927
154120
158876
165300
173557
183956
197032
213188
232821
256758
285351
317759
354498
394043
435587
477113
511351
535945
555598
554972
548975
532709
506103
469216
422001
377190
334149
303116
275074
257352
241845
233295
225913
222025
219597
218062
217023
215987
214774
212816
210309
207217
203646
199590
195174
190716
186017
181763
177433
173500
169606
165972
162699
159597
156773
154087
151505
149259
146988
145023
143071
141320
139728
138235
136997
135792
134838
133975
133320
132853
132527
132512
132658
132996
133584
134383
135402
136610
138027
139606
141291
143064
144917
146906
148939
151045
152974
154925
156729
158578
160120
161597
162767
163817
164548
165247
165705
166096
166255
166230
166108
165859
165475
164967
164341
163587
162729
161803
160832
159842
158839
157824
156796
155749
154670
153549
152386
151214
150028
148877
147716
146598
145465
144382
143286
142237
141182
140160
139124
138076
137020
135957
134895
133838
132781
131749
130726
129726
128719
127741
126758
125797
124828
123868
122913
121967
121023
120093
119164
118253
117344
116455
115570
114706
113846
113009
112175
111365
110557
109769
108985
108216
107454
106696
105944
105206
104471
103752
103034
102331
101632
100946
100264
99599.1
98935.7
98289.9
97645.8
97020.4
96396.7
95793
95193.2
94611.5
94036
93474
92925.4
92376.4
91838.6
91302.4
90776.6
90251.1
89736
89222.2
88719.7
88222
87737.5
87255.6
86787.5
86322.3
85871.4
85424.5
84992.7
84566.9
84147.3
83740.5
83334.5
82931
82536.2
82146.7
81762
81383.5
81009.2
80641.9
80279.2
79923.5
79571.8
79228
78887.4
78555.2
78225.8
77905.1
77586.2
77275.7
76966.7
76666.5
76367.4
76077
75787.5
75506.7
75228.2
74954.4
74556.9
787734
227737
190996
173436
160383
151285
145492
142391
141368
142258
145052
149576
156051
164837
176479
191713
210964
234232
262532
296180
333768
375644
419193
462707
500407
523674
537933
539067
530802
512350
481999
437369
387397
338195
299989
268402
246045
227440
214668
203789
197408
191942
190035
190065
191453
193316
196051
195974
194682
192941
189987
186196
182013
177717
173607
169358
165399
161340
157692
153987
150681
147581
144693
142045
139607
137199
135070
132923
130964
129020
127185
125444
123743
122190
120615
119184
117733
116432
115114
113963
112797
111817
110826
110062
109311
108784
108273
107992
107772
107787
107905
108162
108611
109247
110087
111091
112269
113617
115160
116836
118637
120510
122439
124382
126354
128338
130382
132345
134268
136091
137764
139285
140577
141662
142518
143085
143505
143732
143902
143889
143800
143612
143319
142913
142400
141779
141081
140327
139540
138728
137907
137067
136245
135410
134597
133773
132968
132149
131312
130464
129603
128735
127859
126977
126103
125230
124372
123506
122658
121811
120978
120138
119295
118454
117615
116775
115941
115107
114284
113462
112653
111845
111054
110264
109492
108718
107964
107209
106471
105735
105013
104295
103583
102872
102175
101479
100795
100112
99439.4
98769.4
98110
97452.5
96809.2
96166
95538.7
94911.5
94301.8
93691.8
93100.1
92510.6
91937.8
91371.3
90815.8
90275.1
89732.6
89200.7
88668.9
88146.1
87622.1
87106.4
86590.5
86084.6
85581.9
85091.6
84603
84128
83655.1
83196.2
82741.2
82301.8
81867.4
81440.6
81023.8
80610.8
80197.5
79793.8
79394.1
78999.6
78610
78224.8
77844.9
77470
77100.9
76736.6
76378.9
76025.6
75679.2
75337
75001.8
74669.9
74345
74023.3
73709.1
73397.3
73093
72790.5
72496
72203.8
71916.1
71498.8
796637
222295
182518
165493
153123
144371
138564
135217
133859
134332
136758
141143
147879
157632
171152
189324
212526
240834
274873
315012
358978
406131
452913
491058
518884
529174
528857
520032
499174
463739
413710
358618
312736
274660
247292
225575
208963
195354
184884
175307
168009
161215
155929
150440
146164
141982
139561
139178
140121
142026
145099
149113
153988
154598
153053
150385
147780
144981
142263
139480
136929
134381
131948
129656
127510
125436
123562
121650
119887
118135
116471
114873
113309
111856
110381
109000
107600
106287
104957
103720
102467
101307
100137
99057.3
97996.3
97010.4
96054.7
95134.9
94289.5
93450.1
92712.7
91958.1
91355
90747
90327.4
89900.3
89652.6
89399.4
89396
89474.3
89672.1
89994.7
90455.8
91056.2
91812.7
92741.5
93866.8
95172.3
96675.3
98354.6
100189
102140
104159
106204
108251
110161
112014
113778
115528
117166
118742
120142
121437
122499
123425
124065
124565
124837
125034
125046
125010
124908
124761
124559
124314
124011
123663
123259
122802
122302
121763
121190
120587
119961
119317
118661
117997
117322
116644
115960
115278
114590
113895
113197
112493
111785
111074
110361
109651
108939
108234
107528
106836
106141
105458
104771
104099
103425
102763
102101
101452
100804
100161
99516.1
98882.8
98250.4
97624
97000.4
96380.5
95764.1
95153.4
94545
93946.5
93347.8
92761.9
92175.1
91603.4
91030.1
90472.2
89914.3
89370
88831.4
88301.1
87785.2
87267.3
86759.6
86251
85750.2
85246.6
84749.2
84249.7
83758
83267.4
82787.5
82307.9
81840.6
81374.1
80920.7
80470.5
80035.8
79604.6
79182.2
78765.8
78357.3
77945.4
77543.8
77144.6
76751
76360.8
75975.3
75592.7
75214.9
74840.7
74471.8
74107.6
73748.5
73394.8
73045.7
72702.4
72363
72029.7
71700.2
71377.6
71057.7
70744.7
70433.4
70129.8
69828.2
69530.7
69099.3
804321
217584
175155
158625
146843
138351
132476
128859
127177
127279
129457
133936
141336
152664
168989
191254
220170
255280
296891
344688
395062
445823
488530
514810
527977
526250
515878
490944
450465
394438
339489
294087
259707
233436
213502
197578
184426
172897
162683
153065
144387
136000
128265
121027
114341
107904
102273
97609.2
94789.3
94314.2
95556.5
98743.8
104077
110432
117910
123770
130649
129972
128489
126750
124775
122710
120622
118689
116798
115006
113345
111622
110052
108480
106990
105563
104170
102874
101560
100329
99082.7
97903.4
96710.2
95587.6
94452.9
93385.6
92309.1
91293.4
90284.1
89325.1
88381.4
87457
86563.6
85676.1
84829.4
83967.3
83163.6
82351.9
81622.5
80887.2
80205.5
79525
78905.7
78316.7
77779.9
77283.7
76821.9
76428.6
76064.3
75805.9
75597.2
75542.7
75605.6
75774.2
76069.6
76496.8
77056.5
77741.4
78543
79449.3
80475.1
81643.2
82961.6
84424.9
86020.4
87719.2
89489.2
91286.4
93121.3
94801.8
96481.5
97965.9
99427.3
100699
101986
103136
104315
105332
106359
107231
108026
108700
109222
109621
109884
110052
110091
110052
109954
109797
109586
109322
109012
108658
108268
107848
107400
106930
106438
105926
105397
104854
104298
103733
103160
102580
102000
101414
100835
100252
99678.2
99100.4
98530.5
97958.5
97395.5
96832.4
96272.4
95709
95154.5
94604.5
94052.8
93504.8
92955.3
92410
91865.6
91323.8
90787.6
90251.1
89723.3
89193.9
88676.2
88155.7
87647.8
87138.1
86638.9
86144.9
85656.9
85182
84705.6
84238.9
83770.8
83308.7
82842.9
82381
81915.6
81455.6
80994.8
80542.5
80089.1
79646
79202.8
78771.2
78341.8
77926.4
77512.9
77108.2
76706.2
76313.6
75916.8
75529.6
75143.5
74762.9
74384.7
74010.5
73637.9
73268.8
72901.7
72539
72179.7
71824.9
71474.5
71127.9
70786.1
70447.8
70115
69785.5
69462.4
69141.7
68827.2
68514.1
68208
67903.7
67602.3
67165.4
810865
214760
168869
152684
141434
133163
127211
123334
121368
121300
123425
128346
137040
151006
171599
199997
236856
280720
330899
385987
441782
487410
518937
528941
528296
515623
487247
440100
381936
326302
283542
250828
226153
207051
191680
178865
167515
157224
147626
138591
130117
122051
114347
106945
99807.5
92977.5
86478.2
80291.4
74881.4
70931.1
67942.8
65537.3
65578.6
67930.1
73369.6
81191.3
90171.3
100538
106991
113513
112867
111702
110122
108435
106688
105051
103558
102017
100684
99340
98062.3
96839.9
95643.8
94522.5
93388.5
92324.7
91247.3
90226.5
89193.3
88216.3
87228.2
86296.1
85354.9
84465.3
83571.3
82721.1
81877.4
81056.4
80249.3
79452.1
78682.7
77900.6
77151.2
76394.9
75685.9
74975.4
74296.7
73612.3
72955.8
72304.9
71682.7
71069.1
70468.8
69884.7
69305.5
68755.1
68222.4
67734
67278.8
66876.4
66502.3
66189.2
65893.9
65672.6
65452.6
65316.5
65178.4
65186.6
65263.6
65432.4
65704.7
66086.2
66576.5
67169
67857.7
68628.5
69479.1
70403.6
71404.3
72478
73643.5
74899.4
76263
77709.4
79259.6
80867.4
82531.2
84212.5
85877.2
87452.4
88944.7
90303
91557.5
92666
93675.2
94554.4
95339.9
96012.8
96580.8
97051.5
97411.2
97693.6
97862.2
97975
97970.5
97921.7
97817.7
97658.9
97449.4
97194.6
96900
96570.5
96211.2
95828.9
95431.2
95019.6
94598.8
94169.1
93732.7
93290
92843.3
92391.4
91934
91470.8
91004.6
90539.9
90071.8
89605.6
89136
88668.3
88199
87730.3
87264.3
86796.4
86334.4
85869.1
85415.1
84957.6
84509.1
84057
83613.2
83173.6
82739.2
82315.5
81891.5
81475.4
81058
80644.7
80228.2
79813.7
79395.8
78980.4
78563.2
78152.2
77739.5
77334.9
76929.8
76533.9
76139.4
75756.3
75374.6
75000.1
74627.1
74262.3
73894.1
73533
73173.3
72817.9
72464.2
72112.9
71762.4
71413.8
71066.5
70722
70380.4
70041.9
69707.4
69374.8
69046.6
68720.1
68398.6
68079.2
67765.4
67453.1
67146.6
66840.7
66540.9
66242.7
65945.6
65514.8
815974
211927
163531
147597
136801
128759
122762
118670
116503
116547
118965
124940
135975
154306
181547
218656
265647
318937
377190
439004
492142
523321
536629
532431
517743
485801
433891
372875
318912
277506
246536
223155
205017
190325
177658
166490
156298
146913
138109
129803
121894
114307
106981
99918
93056.9
86497.7
80199.6
74230.2
68503.3
63093.8
58048.5
53400.6
49284.7
47561
47525.8
48736.5
52976.8
60673.9
70356.4
81254.9
89065.9
97247.2
97822.4
97337.8
96447.6
95389.6
94272.6
93098
92029.1