/*--------------------------------*- C++ -*----------------------------------*\
| =========                 |                                                 |
| \\      /  F ield         | OpenFOAM: The Open Source CFD Toolbox           |
|  \\    /   O peration     | Version:  2312                                  |
|   \\  /    A nd           | Website:  www.openfoam.com                      |
|    \\/     M anipulation  |                                                 |
\*---------------------------------------------------------------------------*/
FoamFile
{
    version     2.0;
    format      ascii;
    arch        "LSB;label=32;scalar=64";
    class       volScalarField;
    location    "0.003";
    object      p;
}
// * * * * * * * * * * * * * * * * * * * * * * * * * * * * * * * * * * * * * //

dimensions      [1 -1 -2 0 0 0 0];

internalField   nonuniform List<scalar> 
48128
(
2366.87
2362.13
2360.26
2346.51
2334.08
2310.3
2270.24
2221
2168.73
2120.4
2082.85
2056.05
2035.35
2025.45
2024.02
2028.47
2039.25
2056.69
2081.05
2113.54
2158.48
2213.43
2278.11
2355.32
2446.77
2552.78
2673.82
2809.38
2963.64
3133.99
3324.88
3533.69
3763.89
4012.49
4282.31
4566.88
4875.49
5185.01
5514.03
5839.58
6160.8
6484.12
6802.62
7113.83
7422.15
7727.31
8025.8
8313.52
8589.26
8856.55
9110.75
9359.35
9588.26
9815.55
10022
10223.9
10407
10579.7
10738.2
10877.7
11012.9
11129.1
11241.6
11350.3
11442.6
11532.9
11603.6
11673
11727.5
11782.1
11832.6
11877.8
11924.5
11966.2
12008.5
12047.4
12087.2
12132.1
12165
12201.8
12271.1
12316.8
12339.1
12362.4
12426.3
12461.5
12479.7
12491.8
12503.2
12592.9
12630.6
12644.1
12652.6
12659.8
12738.2
12771.1
12780.7
12789.7
12822.4
12841.3
12850.6
12857.8
12911
12936
12946.4
12956.9
12980.4
12994.7
13004.2
13011
13009.1
13000.3
12987.9
12981.6
12976.4
12994.5
13010
13025.2
13041.1
13055
13059.1
13053.9
13043.5
13039
13041.3
13045.6
13080.1
13105.4
13139.4
13172.3
13205.1
13234.7
13259.9
13280.7
13294.1
13301.5
13298.1
13291.8
13287
13284.4
13283.3
13286.4
13289.3
13297.5
13303.7
13309.8
13314.4
13319.9
13325.1
13325.7
13328.5
13327.4
13327.5
13326.4
13324.3
13323.2
13322.4
13323.2
13324
13326.3
13329.1
13333.9
13339.2
13345.8
13352.7
13360.4
13367.5
13374.5
13380.8
13387.4
13389.6
13393.1
13393.1
13393.1
13392.4
13391
13388.9
13386.4
13384.1
13381.9
13379.7
13378.6
13378.2
13379
13380.4
13382.9
13386.3
13390.8
13396.3
13403.3
13410.7
13418.3
13424.7
13430.2
13430.2
13429.6
13426.8
13422.4
13417
13411.9
13407.1
13403.6
13401.9
13402.3
13404.2
13407.8
13412.7
13418.9
13426.5
13433.5
13439.7
13444.9
13450.7
13449
13450.2
13450.5
13449.1
13448
13446.1
13444.4
13442.5
13440.9
13439.5
13438.6
13438
13437.8
13437.8
13438.1
13438.4
13438.9
13439.4
13440
13440.6
13441.3
13441.9
13443
13443.9
13445.5
13446.9
13440.5
2368.18
2362.34
2360.52
2347.61
2334.85
2308.34
2267.45
2217.8
2165.02
2119.99
2088.51
2061.27
2039.71
2029.36
2027.36
2031.53
2042.03
2059.28
2084.22
2116.95
2157.14
2209.59
2272.93
2349.17
2439.21
2543.39
2661.89
2796.14
2948.64
3116.05
3303.39
3508.67
3735.18
3979.98
4245.14
4525.36
4829.58
5136.01
5461.37
5784.24
6103.61
6422.5
6738.45
7049.76
7359.47
7664.16
7962.51
8251.12
8528.24
8796.38
9051.97
9300.5
9531.08
9758.98
9967.06
10170.7
10356
10530.3
10690
10833.1
10968.9
11087
11203.6
11314.2
11409.8
11501.5
11573.8
11644.6
11700.7
11757.8
11809.6
11856.8
11905.1
11948.5
11992
12031.7
12073
12119.9
12152.4
12188.4
12261.3
12308.4
12329.9
12352.1
12418.3
12454.6
12473.8
12485
12493.1
12587.5
12626.4
12640.4
12647.9
12652.3
12733.8
12768.1
12777.5
12785.5
12818.6
12838.3
12847.4
12853.4
12908.1
12933.8
12944.4
12954.3
12977.9
12992.5
13002.2
13009.1
13007.1
12998.2
12986
12979.5
12974.4
12993.7
13009
13024.4
13040.1
13054
13058.3
13052.9
13042.4
13037.9
13040.4
13044.7
13079.9
13104.9
13139.3
13172
13204.5
13234.4
13259.4
13280
13293.5
13301.1
13297.4
13291.1
13286.4
13283.9
13282.8
13286
13288.9
13297
13303.4
13309.5
13314.1
13319.6
13324.8
13325.4
13328.2
13327.1
13327.3
13326.2
13324.1
13323
13322.2
13323
13323.9
13326.2
13328.9
13333.8
13339.1
13345.7
13352.6
13360.4
13367.4
13374.5
13380.7
13387.3
13389.6
13393
13393
13393
13392.4
13391
13388.9
13386.4
13384
13381.9
13379.7
13378.6
13378.2
13379
13380.4
13382.9
13386.3
13390.8
13396.3
13403.3
13410.7
13418.4
13424.7
13430.2
13430.3
13429.5
13426.8
13422.4
13417
13411.9
13407.1
13403.6
13401.9
13402.3
13404.3
13407.8
13412.7
13419
13426.6
13433.6
13439.8
13444.9
13450.8
13449.1
13450.2
13450.5
13449.1
13448
13446.2
13444.4
13442.5
13440.9
13439.6
13438.6
13438
13437.8
13437.8
13438.1
13438.5
13438.9
13439.5
13440.1
13440.6
13441.3
13442
13443
13444
13445.6
13446.9
13440.6
2369.93
2363.13
2358.28
2346.21
2327.3
2297.66
2255.71
2207.32
2158.77
2114.96
2077.5
2051.61
2032.54
2023.69
2022.8
2027.7
2038.65
2056.18
2080.66
2113.51
2155.69
2207.88
2270.71
2346.51
2435.7
2538.89
2656.05
2788.38
2938.39
3103.41
3287.85
3490.23
3713.22
3955.23
4216.43
4493.23
4794.28
5098.13
5419.62
5739.87
6058.04
6377.3
6692.71
7006.07
7315.65
7620.7
7919.73
8209.06
8488.1
8758.59
9015.68
9265.28
9497.17
9729.21
9940.07
10146.1
10332.9
10508.6
10668.3
10814.6
10949.6
11067.6
11188.1
11299.1
11397.2
11489.5
11561.6
11633.4
11689.5
11748.2
11800
11848.1
11897.3
11941.2
11985.2
12025
12067.1
12114.7
12147.7
12182.9
12255.9
12303.8
12326.6
12348.4
12413
12450.8
12471.7
12483.3
12489.6
12581.1
12622.5
12639
12647.5
12650.7
12728.1
12764.8
12776.2
12784.6
12815.5
12836.7
12846.5
12851.9
12904.9
12931.7
12943.7
12953.5
12975.9
12991.3
13001.1
13007.7
13005.8
12996.6
12984.8
12978.1
12973.2
12993
13008.5
13024
13039.4
13053
13057.3
13051.9
13041.5
13037.1
13039.9
13044.2
13079.5
13104.6
13139.1
13171.8
13204.1
13234.2
13258.8
13279.3
13292.6
13300.4
13297
13290.4
13285.8
13283.6
13282.5
13285.5
13288.6
13296.8
13303.2
13309.2
13313.9
13319.3
13324.6
13325.3
13328
13326.9
13327.1
13326
13323.9
13322.9
13322.1
13322.8
13323.8
13326.1
13328.9
13333.7
13339
13345.7
13352.5
13360.3
13367.4
13374.4
13380.7
13387.3
13389.5
13393
13392.9
13393
13392.3
13390.9
13388.8
13386.3
13384
13381.9
13379.7
13378.6
13378.2
13379
13380.4
13382.9
13386.3
13390.8
13396.3
13403.4
13410.8
13418.4
13424.7
13430.1
13430.3
13429.5
13426.7
13422.4
13417
13411.9
13407.1
13403.6
13401.9
13402.3
13404.3
13407.8
13412.8
13419
13426.6
13433.6
13439.8
13444.9
13450.7
13449.2
13450.1
13450.5
13449.1
13448
13446.2
13444.4
13442.6
13440.9
13439.6
13438.7
13438
13437.8
13437.9
13438.1
13438.5
13439
13439.5
13440.1
13440.6
13441.4
13442
13443.1
13444
13445.6
13447
13440.7
2375.45
2363.33
2357.43
2340.51
2316.64
2282.56
2239.5
2192.38
2145.04
2105.29
2072.86
2047.85
2030.19
2022.22
2021.77
2027.26
2038.41
2055.79
2079.76
2111.43
2151.75
2202.47
2263.97
2338.25
2425.57
2526.98
2642.02
2772.35
2919.83
3082.07
3263.2
3463.12
3683.39
3921.84
4181.29
4454.3
4753.01
5054.66
5375.38
5692.79
6010.25
6330.95
6645.41
6960.38
7269.4
7575.19
7874.05
8164.21
8444.08
8717.45
8974.73
9224.34
9454.77
9690.78
9905.09
10113.6
10301.7
10479.1
10638
10789.1
10922.5
11039.6
11165.9
11276.9
11378.9
11471.7
11543.5
11616.8
11673.1
11734.5
11786.2
11835.8
11886.2
11930.9
11975.6
12015.9
12059.1
12107.3
12141.9
12176.5
12248.1
12296.8
12322.5
12344.7
12405.8
12444.9
12468.8
12482.2
12489.2
12571.1
12614.8
12636.8
12647.7
12651.8
12720
12758.4
12774.1
12784.2
12811.9
12834
12845.6
12850.7
12900.4
12927.9
12942.4
12952.9
12973.1
12989.3
12999.3
13005.5
13003.6
12994.4
12983.1
12976.9
12972
12991.8
13007.8
13023.7
13038.4
13051.3
13055.4
13050.2
13040.7
13036.2
13039.4
13044.4
13078.5
13104.4
13138.9
13171.8
13203.7
13233.6
13257.9
13278.1
13291.2
13299.3
13296.4
13289.5
13285.1
13283.2
13282.2
13285
13288.2
13296.5
13302.8
13308.8
13313.6
13318.8
13324.1
13325.1
13327.6
13326.5
13326.7
13325.6
13323.6
13322.6
13321.9
13322.6
13323.6
13325.9
13328.8
13333.6
13338.9
13345.6
13352.4
13360.2
13367.2
13374.3
13380.5
13387.1
13389.5
13392.8
13392.7
13392.8
13392.2
13390.8
13388.7
13386.2
13383.9
13381.8
13379.6
13378.5
13378.2
13379
13380.3
13382.9
13386.3
13390.8
13396.3
13403.5
13410.8
13418.4
13424.7
13430
13430.4
13429.4
13426.7
13422.3
13417
13411.9
13407.1
13403.6
13402
13402.4
13404.4
13407.9
13412.8
13419.1
13426.7
13433.6
13439.9
13444.9
13450.7
13449.4
13450.1
13450.5
13449.2
13448
13446.2
13444.4
13442.6
13440.9
13439.6
13438.7
13438.1
13437.9
13437.9
13438.2
13438.5
13439
13439.5
13440.1
13440.7
13441.4
13442.1
13443.1
13444.1
13445.7
13447
13440.9
2377.72
2363.55
2351.69
2330.77
2301.38
2264.19
2221.54
2176.8
2132.69
2094.07
2063.45
2040.74
2025.51
2019.04
2019.27
2025.34
2036.37
2053.51
2076.89
2107.65
2147.03
2196.43
2256.59
2329.44
2415.12
2515.02
2627.92
2756.03
2901.28
3061.67
3240.77
3436.66
3656.55
3890.4
4149.17
4421.25
4721.14
5019.21
5339.5
5652.38
5967.62
6295.85
6604.73
6921.18
7226.58
7536.92
7832.91
8125.99
8404.29
8680.54
8938.57
9185.61
9415.01
9656.71
9876.13
10087
10276.1
10454.6
10612.5
10769
10898.5
11015.4
11148.9
11258
11364.8
11456.4
11527.4
11602.4
11658.5
11723.3
11774.2
11825.7
11877.2
11922.6
11967.9
12009
12053.3
12101.5
12138.9
12172.3
12240.9
12289.8
12319.8
12343
12399.2
12439.2
12466.8
12482.9
12492.4
12560.9
12606.3
12635.5
12649.6
12655.9
12712.1
12751.1
12772.9
12784.7
12809.1
12832.2
12845.7
12852.2
12895.5
12923.7
12941.7
12952.9
12971.1
12987.7
12997.8
13003.4
13001.3
12992.5
12982.2
12976.4
12971.8
12990.9
13007.8
13023.9
13037.6
13049.4
13053.2
13048.3
13040.2
13036.1
13039.5
13045.9
13077.5
13104.8
13139.3
13172.1
13203.3
13232.9
13256.8
13276.7
13289.5
13297.8
13295.5
13288.7
13284.6
13282.9
13282.1
13284.8
13288
13296.2
13302.4
13308.5
13313.4
13318.3
13323.6
13325
13327.3
13326.2
13326.4
13325.3
13323.4
13322.4
13321.7
13322.5
13323.5
13325.8
13328.7
13333.6
13338.8
13345.5
13352.3
13360.1
13367.1
13374.2
13380.3
13386.9
13389.4
13392.7
13392.6
13392.7
13392
13390.6
13388.6
13386.1
13383.8
13381.7
13379.5
13378.5
13378.2
13379
13380.4
13382.9
13386.2
13390.9
13396.4
13403.5
13410.8
13418.3
13424.6
13429.9
13430.3
13429.2
13426.5
13422.3
13416.9
13411.9
13407.1
13403.6
13402
13402.5
13404.5
13408
13412.9
13419.2
13426.7
13433.6
13439.9
13444.9
13450.6
13449.5
13450.1
13450.5
13449.2
13448
13446.2
13444.4
13442.6
13441
13439.7
13438.7
13438.1
13437.9
13438
13438.2
13438.6
13439.1
13439.6
13440.2
13440.7
13441.4
13442.1
13443.2
13444.1
13445.7
13447
13441.1
2378.06
2360.39
2343.6
2317.31
2283.69
2245.56
2203.56
2159.02
2117.64
2082.36
2054.54
2034.07
2021.07
2015.84
2016.47
2022.88
2033.61
2050.27
2072.92
2102.64
2140.9
2188.98
2247.81
2319.2
2403.12
2501.77
2612.65
2738.83
2882.56
3040.17
3219.79
3410.31
3628.59
3860.6
4118.18
4386.66
4686.82
4977.22
5298.31
5605.24
5910.56
6250.48
6548.06
6867.08
7163.38
7480.52
7776.11
8073.07
8355.29
8627.32
8888.63
9129.21
9360.84
9610.16
9836.36
10053.4
10241.9
10423.1
10579.8
10744.2
10869.8
10984.2
11131.9
11235
11350.4
11441.6
11507.3
11588.7
11640.4
11713.4
11760.4
11816.6
11868.4
11913.7
11960.1
12002.1
12048.4
12095.4
12136.8
12171.5
12232.8
12280.4
12317.3
12343.5
12392.6
12431.8
12464.6
12484.7
12497.5
12550.9
12596.7
12633.5
12651.8
12661.4
12704.3
12743.4
12771
12785.3
12807.2
12830.5
12846.2
12855.6
12889.9
12918.9
12940.6
12953.2
12969.4
12986
12996.2
13000.9
12998.3
12990.3
12981.6
12976.7
12973.1
12990.3
13008.3
13024.6
13036.9
13047
13050.3
13046
13040.1
13036.8
13040.3
13048.3
13076.8
13105.9
13140.3
13172.5
13202.9
13232.2
13255.4
13274.9
13287.3
13295.7
13294.3
13287.9
13284.3
13282.8
13282.3
13284.9
13288.1
13295.9
13302.2
13308.2
13313.2
13317.8
13323
13324.8
13327
13325.9
13326
13325
13323.1
13322.3
13321.6
13322.3
13323.4
13325.7
13328.8
13333.6
13338.8
13345.5
13352.3
13360.1
13367
13374.1
13380.1
13386.6
13389.3
13392.6
13392.4
13392.5
13391.9
13390.5
13388.5
13386.1
13383.7
13381.7
13379.5
13378.5
13378.2
13379
13380.4
13382.9
13386.3
13391
13396.5
13403.7
13410.8
13418.3
13424.5
13429.9
13430.2
13429
13426.3
13422.2
13416.9
13411.8
13407.1
13403.6
13402.1
13402.6
13404.6
13408.1
13413
13419.3
13426.7
13433.5
13439.9
13444.9
13450.5
13449.6
13450
13450.4
13449.2
13448
13446.2
13444.4
13442.6
13441
13439.7
13438.8
13438.2
13438
13438
13438.3
13438.6
13439.1
13439.6
13440.2
13440.8
13441.5
13442.2
13443.2
13444.2
13445.7
13447
13441.3
2374.35
2353.12
2332.29
2301.97
2266.29
2228.04
2184.23
2141.36
2102.94
2070.74
2045.59
2027.44
2016.35
2012.16
2013.14
2019.48
2030.14
2046.19
2068.04
2096.62
2133.68
2180.55
2237.86
2307.93
2389.95
2487.67
2597.06
2720.87
2864.11
3016.7
3194.98
3383.74
3597.74
3824.43
4076.3
4332.35
4634.82
4907.15
5235.84
5532.94
5821.41
6166.15
6453.58
6774.23
7067.97
7388.64
7684.68
7986.83
8279.03
8544.24
8804.09
9039.26
9264.87
9531.05
9760.74
9993.22
10178.2
10372.4
10522.8
10701.1
10828
10938.6
11104.2
11198.9
11328.8
11423.8
11478
11572.7
11618
11700.7
11743.8
11806.8
11859.4
11903.5
11952.1
11995.4
12044.3
12090
12135.7
12173.1
12223.6
12270.5
12315.4
12345.4
12385.4
12423.6
12462.4
12485.9
12502.5
12543
12587.2
12631.2
12652.8
12666.8
12698.8
12736.2
12768.2
12785.5
12806.2
12829.4
12846.4
12859.1
12884.9
12914.8
12939
12953.5
12968.5
12984.1
12994.4
12997.5
12994.4
12988.2
12981.4
12977.7
12975.7
12990.6
13009.6
13025.6
13036.4
13043.8
13046.5
13043.5
13040.1
13038.6
13041.7
13051.1
13078.1
13108.1
13141.3
13172.8
13202.4
13231.4
13253.7
13272.9
13284.9
13293
13292.8
13287.2
13284.2
13283
13282.8
13285.2
13288.5
13295.7
13302
13308.1
13313.1
13317.5
13322.3
13324.6
13326.8
13325.6
13325.6
13324.8
13322.9
13322.2
13321.7
13322.3
13323.5
13325.8
13329
13333.7
13339
13345.6
13352.4
13360
13366.9
13374.1
13380
13386.2
13389.2
13392.5
13392.3
13392.3
13391.7
13390.3
13388.4
13386
13383.7
13381.7
13379.5
13378.5
13378.3
13379.1
13380.5
13383.1
13386.4
13391.2
13396.7
13403.9
13410.8
13418.3
13424.3
13429.7
13429.9
13428.8
13426.1
13422.1
13416.8
13411.9
13407.2
13403.7
13402.2
13402.8
13404.8
13408.3
13413.2
13419.5
13426.8
13433.5
13439.9
13444.8
13450.4
13449.6
13450
13450.4
13449.2
13447.9
13446.2
13444.4
13442.7
13441.1
13439.8
13438.8
13438.2
13438
13438.1
13438.3
13438.7
13439.2
13439.7
13440.3
13440.8
13441.5
13442.2
13443.3
13444.2
13445.8
13447.1
13441.5
2367.44
2341.78
2318.6
2286.13
2249.47
2209.21
2165.28
2124.79
2089.3
2060
2037.24
2021.12
2011.66
2008.13
2009.36
2015.66
2026.14
2041.39
2062.33
2089.73
2125.57
2171.32
2226.94
2295.87
2376.39
2472.4
2580.91
2700.89
2842.62
2991.9
3165.38
3347.73
3552.96
3767.03
4023.7
4245.21
4539.85
4787.06
5103.27
5405.35
5681.48
6017.67
6301.15
6624.79
6924.07
7243.33
7548.98
7850.9
8155.64
8414.28
8683.51
8930.06
9137.97
9443.03
9648.34
9901.77
10076.4
10298.7
10438.7
10634.4
10761.4
10883.1
11058.6
11147.7
11291.1
11390.4
11438.7
11542
11589.9
11677.5
11722.8
11792.9
11845.9
11891
11943
11988.5
12039.3
12084.9
12134.3
12172.4
12215.9
12260.7
12311.9
12344.7
12379.4
12416.5
12458.8
12486.8
12506.7
12539.1
12579.2
12625.9
12653.4
12671
12695.8
12729.4
12763.8
12785.5
12805.9
12828.4
12846.7
12861.8
12882.2
12910.5
12936.3
12953.5
12967.8
12982.1
12991.5
12993
12990.1
12986
12981.9
12978.7
12978.9
12993.2
13011.7
13026.4
13035.5
13039.9
13042
13041
13040.2
13040.5
13044.2
13055
13081.7
13110.8
13142.3
13173.1
13202
13230.1
13251.5
13270.4
13281.8
13289.5
13291.2
13286.4
13284.4
13283.3
13283.6
13285.9
13289.3
13295.6
13301.9
13307.9
13313
13317.4
13321.5
13324.4
13326.5
13325.4
13325.2
13324.5
13322.9
13322.2
13321.8
13322.5
13323.8
13326
13329.3
13334
13339.2
13345.8
13352.5
13360.1
13366.9
13374
13379.8
13385.7
13389
13392.5
13392.1
13392
13391.6
13390.2
13388.4
13386
13383.7
13381.7
13379.6
13378.6
13378.4
13379.2
13380.6
13383.2
13386.6
13391.4
13396.9
13404.1
13410.9
13418.3
13424.1
13429.4
13429.6
13428.6
13425.8
13422
13416.7
13411.9
13407.3
13403.8
13402.5
13403.1
13405.1
13408.6
13413.5
13419.7
13426.8
13433.5
13440
13444.7
13450.2
13449.6
13450
13450.3
13449.2
13447.9
13446.2
13444.4
13442.7
13441.1
13439.9
13438.9
13438.3
13438.1
13438.1
13438.4
13438.7
13439.2
13439.7
13440.3
13440.9
13441.6
13442.3
13443.3
13444.3
13445.8
13447.1
13441.7
2356.88
2327.39
2303.45
2269.78
2232.94
2190.47
2148.05
2110.02
2077.16
2050.3
2029.71
2015.37
2007.1
2004.02
2005.41
2011.61
2021.61
2036.12
2056.11
2082.23
2116.69
2161.42
2215.7
2282.77
2362.61
2456.38
2562.06
2679.5
2816.33
2958.93
3121.11
3294.02
3499.22
3670.41
3919.55
4111.49
4391.38
4619.75
4909
5216.12
5494.46
5805.09
6103.71
6415.62
6740.85
7042.1
7377.98
7655.74
7993.91
8229.93
8517.75
8763.79
8992.14
9334.6
9512.76
9787.13
9943.97
10190.2
10328.4
10536.6
10667.6
10816.6
10993.5
11081
11239.1
11338.8
11391.3
11500.6
11555.7
11648.4
11696.7
11775.2
11827.3
11875.9
11931.8
11979.1
12032.2
12077.9
12129.3
12169.3
12208.2
12249.9
12303.9
12341.2
12373.4
12409.4
12453.2
12487.4
12509.8
12536.7
12572.8
12618.9
12652.8
12674.2
12694.7
12723.6
12758
12784.5
12805.8
12827.3
12847.5
12863.7
12881.2
12906.5
12932.9
12952.7
12966.8
12979.5
12987.5
12987.3
12985.8
12984
12982.7
12981.4
12983.7
12996.6
13014.1
13026.3
13033.6
13035.8
13037.1
13038.6
13040.3
13043.1
13047.8
13060.6
13086.6
13113.9
13143.5
13173.6
13201.4
13228.5
13248.8
13267.2
13278.1
13285.7
13288.8
13285.8
13284.5
13284
13284.7
13287.1
13290
13295.8
13301.9
13307.8
13312.9
13317.1
13320.9
13324.1
13326.2
13325.3
13324.9
13324.2
13322.8
13322.3
13322
13322.7
13324.1
13326.5
13329.7
13334.4
13339.6
13346.1
13352.7
13360.2
13366.9
13374
13379.6
13385.4
13388.8
13392.3
13391.9
13391.8
13391.4
13390
13388.3
13386
13383.7
13381.8
13379.8
13378.8
13378.7
13379.5
13380.9
13383.5
13386.9
13391.7
13397.2
13404.4
13411
13418.2
13423.9
13429.1
13429.2
13428.3
13425.5
13421.8
13416.7
13411.9
13407.4
13404
13402.8
13403.5
13405.5
13408.9
13413.8
13420
13426.9
13433.5
13440
13444.5
13449.9
13449.6
13450
13450.3
13449.1
13447.9
13446.2
13444.5
13442.8
13441.2
13440
13439
13438.4
13438.2
13438.2
13438.5
13438.8
13439.3
13439.8
13440.4
13441
13441.7
13442.4
13443.4
13444.4
13445.9
13447.2
13441.8
2342.39
2310.73
2287.24
2253.4
2216.32
2173.31
2133.17
2097.24
2066.65
2041.93
2023.23
2010.32
2002.87
2000.11
2001.57
2007.46
2016.77
2030.38
2049.55
2074.28
2107.46
2150.76
2204.51
2270.31
2347.05
2439.78
2539.61
2651.83
2778.28
2912.32
3065.85
3199.03
3405.44
3542.1
3769.22
3932.3
4181.74
4394.35
4654.57
4944.89
5257.38
5527.54
5883.88
6149.46
6550.08
6805.31
7215.03
7442.62
7821.87
8023.9
8339.51
8558.68
8848.84
9181.83
9346.32
9647.13
9796.72
10054.1
10184.4
10413
10548.3
10731.4
10916.2
10999.1
11170.5
11266.9
11334.5
11452.4
11514.6
11612.2
11664.2
11751
11802.4
11858.2
11918.7
11966.6
12023.5
12069.5
12121.7
12163.4
12201.8
12239
12292.8
12333
12368
12402.7
12446.2
12483.7
12511.9
12536.8
12567.7
12610.2
12647.5
12674.8
12694.9
12718.7
12750.5
12781.3
12805.3
12826.1
12847.9
12865.7
12880.8
12903.2
12928.6
12950.7
12965.4
12976.4
12980.9
12981.3
12981.1
12982
12984
12985.9
12990.2
13000.9
13016.4
13025.7
13030
13030.8
13032.4
13036.1
13041
13046.8
13053.4
13067.8
13092
13117.7
13144.9
13174
13200.5
13226.3
13245.5
13263.1
13273.7
13281.2
13285.9
13285.3
13284.9
13285
13286.1
13288.4
13291.1
13296.1
13301.9
13307.8
13312.8
13316.7
13320.4
13323.7
13325.7
13325.1
13324.6
13324.1
13322.9
13322.5
13322.4
13323.1
13324.6
13327
13330.3
13334.9
13340.2
13346.6
13353.1
13360.4
13366.9
13374
13379.4
13385
13388.5
13392.1
13391.7
13391.7
13391.2
13389.9
13388.2
13386
13383.8
13382
13380
13379.1
13379
13379.8
13381.2
13383.9
13387.3
13392.1
13397.6
13404.7
13411.2
13418.2
13423.6
13428.7
13428.7
13427.9
13425.2
13421.6
13416.7
13412
13407.6
13404.3
13403.2
13403.9
13405.9
13409.4
13414.2
13420.2
13427
13433.5
13440
13444.3
13449.6
13449.5
13450
13450.2
13449.1
13447.9
13446.2
13444.5
13442.9
13441.3
13440.1
13439.1
13438.5
13438.3
13438.3
13438.6
13438.9
13439.4
13439.9
13440.5
13441
13441.7
13442.5
13443.5
13444.5
13445.9
13447.2
13442
2325.42
2292.96
2270.42
2237.82
2199.97
2158.36
2120.47
2086.53
2057.98
2035.12
2017.94
2006.1
1999.22
1996.65
1998.11
2003.45
2011.92
2024.26
2042.63
2065.84
2098.28
2141.41
2192.57
2258.45
2330.27
2418.56
2509.14
2614.01
2729.15
2832.87
2986.46
3080.31
3264.87
3364.04
3560.93
3681.22
3898.82
4054.31
4312.22
4522.12
4856.52
5068.25
5436.26
5658.31
6116.47
6342.16
6815.41
7064.05
7528.44
7744.15
8145.16
8360.69
8702.86
9031.11
9186.46
9491.1
9637.84
9912.55
10026.9
10269.6
10399.3
10621.3
10809.9
10901.2
11085.1
11178
11269.7
11397.7
11464.9
11569.6
11624.8
11718
11771.7
11838
11902.6
11952.2
12011.8
12058.5
12111.6
12152.3
12194.7
12230
12279.5
12319.1
12362.2
12397.6
12438.1
12476.8
12511.5
12539.1
12565
12601.1
12639.3
12672.5
12695.5
12714.7
12742.6
12776.3
12802.9
12825
12847.5
12867.3
12881.5
12900
12923.5
12947.2
12961.4
12971.3
12972.8
12974.3
12976.1
12980.1
12985.7
12991.6
12998.3
13006.4
13018.3
13023.4
13025.1
13025.7
13028.1
13033.7
13042.1
13051.7
13061.2
13075.8
13098.4
13122
13146.4
13174.4
13199.3
13223.3
13241.6
13258.2
13268
13276
13282.7
13285.1
13285.3
13286.1
13287.8
13290
13292.4
13296.8
13302
13307.7
13312.7
13316.2
13319.9
13323.2
13325.3
13325
13324.4
13323.9
13323.1
13322.8
13322.9
13323.7
13325.2
13327.7
13331
13335.6
13340.8
13347
13353.5
13360.6
13367
13374
13379.2
13384.6
13388
13391.9
13391.4
13391.5
13391.1
13389.7
13388.1
13386
13383.9
13382.2
13380.2
13379.4
13379.4
13380.2
13381.7
13384.3
13387.8
13392.6
13398.1
13405.1
13411.4
13418.3
13423.2
13428.2
13428.2
13427.5
13424.9
13421.4
13416.6
13412.1
13407.9
13404.7
13403.7
13404.4
13406.4
13409.9
13414.7
13420.6
13427.1
13433.4
13440
13444
13449.2
13449.4
13450.1
13450.1
13449.1
13447.9
13446.3
13444.6
13443
13441.5
13440.2
13439.3
13438.7
13438.4
13438.5
13438.7
13439
13439.5
13440
13440.6
13441.1
13441.8
13442.6
13443.6
13444.6
13446.1
13447.2
13442.1
2307.08
2275.33
2254.25
2223.15
2185.14
2146.03
2110.02
2078.04
2051.29
2030
2014.01
2002.92
1996.43
1993.92
1995.17
1999.72
2006.88
2017.75
2035.7
2058.85
2089.38
2133.23
2180.86
2243.92
2310.17
2390.48
2464.85
2556.44
2663.23
2730.93
2871.88
2927.43
3070.76
3147.01
3276.3
3380.42
3512.55
3650.51
3807.74
4010
4291.5
4480.67
4893.85
5108.06
5558.93
5816.5
6336.36
6549.67
7043.58
7238.86
7712.35
7922.72
8377.74
8723.3
8929.02
9290.2
9474.87
9768.22
9894.18
10137.5
10255.1
10499.1
10674.1
10785
10982.3
11074.8
11201.1
11334
11405
11521.6
11579.5
11678.4
11736.1
11815.5
11881.9
11934.7
11996.8
12044.4
12098
12139.5
12185.4
12219.4
12265.8
12303
12353.6
12389
12430
12467.2
12508.3
12538
12563.5
12592.7
12628.5
12666.7
12693.1
12713.2
12736.9
12769
12798.1
12824
12846.5
12867.6
12882.5
12898.5
12918.7
12940.9
12954.3
12965.3
12963.4
12966.3
12970.8
12978.5
12987
12997.2
13007.6
13012.4
13020
13020.2
13019.7
13020.2
13023.7
13032.1
13043.7
13056.7
13070.7
13085.3
13105.5
13126.5
13148.6
13174.6
13197.6
13219.6
13236.3
13252.5
13260.8
13270.8
13279.3
13284.7
13285.7
13287.4
13289.4
13291.5
13293.8
13297.6
13302.2
13307.5
13312.4
13315.9
13319.4
13322.8
13324.7
13324.9
13324.2
13323.9
13323.3
13323.2
13323.4
13324.4
13326
13328.5
13331.8
13336.3
13341.5
13347.6
13354
13360.9
13367.1
13374.1
13378.9
13384.2
13387.6
13391.6
13391.1
13391.3
13390.9
13389.6
13388.1
13386.1
13384.1
13382.4
13380.6
13379.8
13379.8
13380.6
13382.2
13384.9
13388.4
13393.1
13398.6
13405.5
13411.7
13418.2
13422.7
13427.6
13427.5
13427
13424.5
13421.1
13416.5
13412.2
13408.3
13405.2
13404.3
13405
13407.1
13410.5
13415.2
13421
13427.3
13433.5
13439.9
13443.8
13448.8
13449.3
13450.1
13450
13449
13447.8
13446.3
13444.7
13443.1
13441.6
13440.4
13439.4
13438.8
13438.6
13438.6
13438.8
13439.1
13439.6
13440.1
13440.7
13441.2
13441.9
13442.7
13443.7
13444.8
13446.2
13447.2
13442.1
2288.37
2258.92
2239.53
2209.57
2172.53
2136.3
2102.03
2071.88
2046.72
2026.72
2011.61
2001.07
1994.76
1992.08
1992.68
1995.62
2001.8
2012.36
2029.92
2052.76
2081.73
2124.03
2167.49
2224.77
2283.52
2352.37
2407.07
2473.1
2577.69
2610.32
2721.69
2748.15
2852.75
2879.72
2978.11
3016.67
3112.59
3197.39
3320.66
3432.1
3600.44
3742.76
3998.35
4199.72
4606.51
4878.58
5449.18
5746.75
6326.23
6582.17
7187.56
7479.05
8037.23
8373.39
8601.4
9007.08
9176.79
9517.9
9698.93
9984.02
10124.4
10381.1
10540.1
10663.3
10868.4
10959.6
11124.9
11262
11334.2
11466.2
11528.1
11635.2
11696.2
11789
11858.4
11914.5
11979.9
12027.4
12083.2
12123.8
12173.1
12207.4
12252.7
12288.5
12340.4
12378.7
12421.6
12457.6
12502.3
12532.6
12561
12587.9
12616.2
12657.6
12684.6
12711
12733.7
12761.2
12791
12821.1
12844.5
12866.6
12882.4
12897.2
12914
12932.7
12945.9
12957.3
12954.7
12960.6
12966.8
12977.4
12988.7
13002.4
13015.7
13018.1
13021.5
13016.8
13013.8
13015.3
13020.4
13030.7
13045.2
13061.7
13079.9
13096.2
13113.6
13131.6
13151.4
13174.7
13195.5
13215.5
13229.7
13245.1
13253.5
13265.4
13275.4
13283.8
13286
13288.7
13291.2
13293.1
13295.3
13298.5
13302.4
13307.3
13312.2
13315.6
13318.9
13322.1
13324
13324.6
13323.9
13323.8
13323.5
13323.6
13324.1
13325.1
13326.8
13329.4
13332.7
13337.1
13342.3
13348.3
13354.5
13361.1
13367.2
13374
13378.6
13383.7
13387
13391.1
13390.8
13391
13390.6
13389.4
13388
13386.2
13384.2
13382.7
13381
13380.3
13380.4
13381.2
13382.8
13385.5
13389.1
13393.8
13399.2
13406
13411.9
13418.2
13422.2
13426.9
13426.8
13426.4
13424
13420.8
13416.5
13412.4
13408.7
13405.8
13405
13405.8
13407.8
13411.2
13415.9
13421.4
13427.4
13433.4
13439.8
13443.4
13448.4
13449.2
13450.1
13449.9
13448.9
13447.8
13446.3
13444.7
13443.2
13441.8
13440.6
13439.6
13439
13438.8
13438.8
13439
13439.3
13439.7
13440.2
13440.8
13441.3
13442
13442.8
13443.8
13444.9
13446.4
13447.2
13442.1
2271.12
2244.41
2226.82
2196.99
2162.85
2129.04
2096.62
2068.17
2044.45
2025.39
2010.83
2000.55
1994.17
1990.91
1990.08
1992.2
1998.1
2007.88
2025.52
2047.21
2073.25
2112.81
2150.19
2198.08
2246
2305.74
2342.18
2388.23
2473.44
2476.29
2550.37
2559.03
2603.18
2629.25
2648.85
2685.03
2714.41
2738.62
2761.58
2787.51
2826.91
2856.1
2915.04
2994.2
3148.15
3326.01
3653.55
4012.48
4677.38
5097.24
5921.39
6435.12
7214.78
7666.81
8073.3
8569.51
8848.41
9240.89
9437.71
9764.41
9924.92
10209.9
10380.6
10532.6
10737.8
10839.2
11044.9
11184.5
11257.1
11405
11470.2
11587.7
11653.7
11758.2
11830.7
11891
11960.8
12007.4
12066.2
12106.2
12158.5
12193.8
12240.2
12275.5
12326.8
12366.1
12412.8
12447.9
12493.2
12524.4
12557.2
12584.2
12607.8
12645.5
12674.5
12707.6
12729.7
12755.5
12782.3
12815.6
12839.6
12864.1
12880.7
12895.8
12909.3
12923.5
12935.3
12948.6
12945.1
12954
12962.4
12976.5
12990.9
13007.6
13022.6
13023
13021.5
13013.6
13009.3
13011.2
13018
13030.1
13047.6
13067.3
13089.6
13106.6
13122.5
13137.4
13155
13174.4
13192.6
13210.2
13222.1
13237
13246.3
13260.2
13270.7
13282.3
13286.2
13289.8
13292.9
13294.7
13296.8
13299.5
13302.8
13307.1
13311.8
13315.2
13318.1
13321.3
13323.1
13324.1
13323.5
13323.6
13323.7
13324
13324.7
13325.9
13327.7
13330.3
13333.7
13338.1
13343.2
13348.9
13355
13361.3
13367.3
13373.9
13378.1
13383.1
13386.4
13390.5
13390.3
13390.7
13390.3
13389.2
13387.9
13386.2
13384.4
13383
13381.4
13380.8
13380.9
13381.8
13383.5
13386.2
13389.8
13394.5
13399.9
13406.5
13412.1
13418
13421.5
13426
13425.9
13425.7
13423.4
13420.4
13416.4
13412.6
13409.1
13406.5
13405.8
13406.6
13408.6
13412
13416.6
13421.9
13427.6
13433.4
13439.7
13443.1
13447.9
13449
13450
13449.7
13448.9
13447.8
13446.3
13444.8
13443.4
13442
13440.8
13439.8
13439.2
13438.9
13439
13439.1
13439.4
13439.8
13440.3
13440.9
13441.5
13442.2
13443
13443.9
13445.1
13446.6
13447.2
13442.1
2256.21
2232.34
2216.94
2187.03
2156.35
2124.3
2093.85
2066.91
2044.38
2025.95
2011.65
2001.34
1994.59
1990.17
1988.34
1990.01
1995.62
2004.58
2021.73
2040.4
2062.77
2098.52
2128.75
2168.32
2197.25
2258.53
2272.05
2302.7
2349.55
2347.91
2376.63
2370.25
2372.06
2365.14
2370.65
2361.7
2342.11
2311.44
2277.9
2242.38
2213.68
2185.82
2165.52
2147.92
2144.05
2148.83
2166.1
2211.71
2517.66
2882.2
3430.22
4018.52
5041.32
5911.77
6838.39
7669.15
8201.69
8744.91
9075.87
9476.4
9723.68
10010
10160
10389.6
10577.2
10694.9
10942.1
11088.7
11172
11340.2
11407.4
11537.7
11610.7
11722.7
11798.4
11865
11938.6
11984.6
12047.1
12087.2
12142.1
12178.5
12227.2
12263.6
12313.9
12352.8
12402.3
12437.2
12482.7
12513.8
12552.4
12579.3
12600.8
12635.3
12663.1
12700.9
12724.5
12751
12775.5
12808
12833.6
12860.4
12877.5
12893.7
12904.8
12915.5
12923.2
12935.7
12934.1
12947.1
12958.4
12975.3
12992.9
13012.7
13028.1
13026.8
13020.6
13008.3
13004.4
13006.7
13015.5
13030.3
13050.6
13073.3
13098.4
13116.5
13131
13144.2
13159.2
13174
13188.9
13204.1
13214.3
13229.2
13239
13254.8
13265.6
13280.4
13286.1
13291
13294.5
13296.3
13298.5
13300.6
13303.3
13306.9
13311.2
13314.7
13317.2
13320.3
13321.9
13323.3
13323
13323.4
13323.8
13324.5
13325.4
13326.7
13328.7
13331.4
13334.8
13339.1
13344.1
13349.6
13355.5
13361.5
13367.3
13373.6
13377.5
13382.4
13385.5
13389.8
13389.7
13390.3
13389.8
13388.9
13387.7
13386.2
13384.6
13383.2
13381.9
13381.4
13381.6
13382.5
13384.2
13386.9
13390.6
13395.3
13400.7
13407.1
13412.2
13417.8
13420.8
13425
13424.9
13424.8
13422.7
13420
13416.3
13412.9
13409.6
13407.2
13406.7
13407.5
13409.5
13412.9
13417.3
13422.4
13427.8
13433.3
13439.4
13442.7
13447.3
13448.7
13449.9
13449.5
13448.7
13447.7
13446.4
13444.9
13443.5
13442.1
13441
13440
13439.5
13439.1
13439.1
13439.3
13439.6
13440
13440.5
13441
13441.6
13442.3
13443.1
13444
13445.3
13446.8
13447.2
13442.1
2243.7
2224.19
2209.71
2180.35
2153.05
2122.32
2093.72
2068.13
2046.31
2028.35
2014.25
2003.66
1996
1990.44
1987.7
1989.29
1994.32
2001.73
2017.49
2032.42
2051.59
2084.51
2105.18
2141.52
2148.33
2208.98
2195.6
2217.98
2227.8
2220.1
2212.86
2199.52
2180.82
2150.65
2113.87
2091.27
2067.63
2042.78
2018.57
1995.55
1974.76
1958.76
1943.52
1932.94
1924.66
1918.13
1912.36
1913.63
1927.93
1954.45
2001.43
2057.04
2450.9
3100.19
3946.73
5031.36
6232.86
7464.19
8231.35
8905.86
9350.58
9702.47
9935.26
10181.4
10389.7
10554.6
10802.7
10959.4
11065.2
11259.9
11332.5
11481.2
11562.9
11680.8
11761.2
11836
11910.9
11959
12026.2
12066.8
12124.3
12161.7
12213.7
12252
12301.7
12340.1
12390.3
12425.9
12471.2
12502
12544.8
12572.5
12594.3
12626.9
12653.1
12691.4
12717.7
12746.7
12770.2
12801.1
12826.2
12854.7
12872.5
12890.9
12899.5
12908.1
12910.2
12920.7
12923.5
12940
12955.9
12975.4
12996.3
13017
13031.3
13029.4
13019.4
13003.6
13000.2
13003.8
13013.7
13031.2
13054.9
13080.5