/*--------------------------------*- C++ -*----------------------------------*\
| =========                 |                                                 |
| \\      /  F ield         | OpenFOAM: The Open Source CFD Toolbox           |
|  \\    /   O peration     | Version:  2312                                  |
|   \\  /    A nd           | Website:  www.openfoam.com                      |
|    \\/     M anipulation  |                                                 |
\*---------------------------------------------------------------------------*/
FoamFile
{
    version     2.0;
    format      ascii;
    arch        "LSB;label=32;scalar=64";
    class       surfaceScalarField;
    location    "0.003";
    object      phi;
}
// * * * * * * * * * * * * * * * * * * * * * * * * * * * * * * * * * * * * * //

dimensions      [1 0 -1 0 0 0 0];

oriented        oriented;

internalField   nonuniform List<scalar> 
95760
(
3.63835e-09
-3.64095e-09
1.79824e-09
1.83753e-09
-5.85524e-09
7.65089e-09
-1.87462e-08
1.28884e-08
-3.77681e-08
1.90194e-08
-6.02555e-08
2.24847e-08
-8.01787e-08
1.99207e-08
-9.71917e-08
1.70103e-08
-1.112e-07
1.40057e-08
-1.22652e-07
1.14497e-08
-1.32243e-07
9.58839e-09
-1.40406e-07
8.1611e-09
-1.47648e-07
7.24008e-09
-1.54231e-07
6.58119e-09
-1.6037e-07
6.13765e-09
-1.66256e-07
5.88444e-09
-1.71956e-07
5.69905e-09
-1.77511e-07
5.55296e-09
-1.82872e-07
5.35967e-09
-1.88316e-07
5.44172e-09
-1.93367e-07
5.04939e-09
-1.98653e-07
5.2843e-09
-2.03371e-07
4.71715e-09
-2.07589e-07
4.21632e-09
-2.11176e-07
3.58611e-09
-2.14077e-07
2.90033e-09
-2.16068e-07
1.99157e-09
-2.16333e-07
2.65355e-10
-2.15191e-07
-1.13953e-09
-2.12402e-07
-2.78622e-09
-2.07594e-07
-4.80472e-09
-2.0035e-07
-7.2398e-09
-1.90249e-07
-1.00963e-08
-1.77543e-07
-1.2701e-08
-1.61387e-07
-1.61507e-08
-1.4228e-07
-1.91013e-08
-1.18202e-07
-2.40722e-08
-9.17429e-08
-2.64528e-08
-6.22613e-08
-2.94779e-08
-3.092e-08
-3.13401e-08
5.17776e-11
-3.09737e-08
3.17095e-08
-3.16595e-08
6.4051e-08
-3.23438e-08
1.01208e-07
-3.71591e-08
1.42567e-07
-4.13601e-08
1.85796e-07
-4.32285e-08
2.29879e-07
-4.40815e-08
2.74541e-07
-4.46605e-08
3.19121e-07
-4.4575e-08
3.64731e-07
-4.56053e-08
4.10238e-07
-4.55186e-08
4.56497e-07
-4.62682e-08
5.008e-07
-4.43115e-08
5.44748e-07
-4.3947e-08
5.87232e-07
-4.24755e-08
6.29921e-07
-4.2687e-08
6.71379e-07
-4.14674e-08
7.12889e-07
-4.15337e-08
7.52591e-07
-3.97411e-08
7.90798e-07
-3.8256e-08
8.28977e-07
-3.82328e-08
8.6337e-07
-3.44334e-08
8.96566e-07
-3.32302e-08
9.2823e-07
-3.16666e-08
9.5816e-07
-2.99078e-08
9.88046e-07
-2.9837e-08
1.01578e-06
-2.76719e-08
1.04273e-06
-2.68899e-08
1.06725e-06
-2.44732e-08
1.09062e-06
-2.33315e-08
1.11242e-06
-2.1789e-08
1.13252e-06
-2.00979e-08
1.15149e-06
-1.89847e-08
1.16917e-06
-1.76901e-08
1.1861e-06
-1.69498e-08
1.20172e-06
-1.56411e-08
1.21616e-06
-1.44598e-08
1.23032e-06
-1.41782e-08
1.24412e-06
-1.38134e-08
1.25603e-06
-1.19172e-08
1.26722e-06
-1.11994e-08
1.2788e-06
-1.15906e-08
1.28977e-06
-1.09763e-08
1.30011e-06
-1.03491e-08
1.30928e-06
-9.17941e-09
1.31821e-06
-8.94008e-09
1.32706e-06
-8.86045e-09
1.33715e-06
-1.00872e-08
1.3446e-06
-7.46113e-09
1.35099e-06
-6.38971e-09
1.35738e-06
-6.39731e-09
1.36374e-06
-6.36145e-09
1.37161e-06
-7.8634e-09
1.37765e-06
-6.03948e-09
1.38276e-06
-5.10436e-09
1.38803e-06
-5.26792e-09
1.3929e-06
-4.86281e-09
1.39866e-06
-5.75165e-09
1.40308e-06
-4.41563e-09
1.40755e-06
-4.46056e-09
1.41213e-06
-4.57983e-09
1.41663e-06
-4.49252e-09
1.41993e-06
-3.2873e-09
1.42307e-06
-3.1298e-09
1.42624e-06
-3.16715e-09
1.43001e-06
-3.75453e-09
1.43307e-06
-3.04788e-09
1.4357e-06
-2.62511e-09
1.43874e-06
-3.03001e-09
1.44139e-06
-2.64417e-09
1.44417e-06
-2.77336e-09
1.44627e-06
-2.10153e-09
1.44795e-06
-1.68562e-09
1.4493e-06
-1.35677e-09
1.44924e-06
4.92889e-11
1.44993e-06
-7.02841e-10
1.45042e-06
-4.96272e-10
1.45136e-06
-9.49965e-10
1.45262e-06
-1.26845e-09
1.45361e-06
-9.99561e-10
1.45483e-06
-1.23051e-09
1.45564e-06
-8.19606e-10
1.45623e-06
-5.86761e-10
1.4561e-06
1.10295e-10
1.45597e-06
1.24289e-10
1.45558e-06
3.82665e-10
1.45549e-06
8.71358e-11
1.45536e-06
1.19405e-10
1.4555e-06
-1.53183e-10
1.45626e-06
-7.71693e-10
1.45683e-06
-5.73574e-10
1.45807e-06
-1.23819e-09
1.45935e-06
-1.29247e-09
1.46035e-06
-9.98216e-10
1.46098e-06
-6.40847e-10
1.46159e-06
-6.12905e-10
1.46225e-06
-6.65805e-10
1.46248e-06
-2.4112e-10
1.46241e-06
6.46555e-11
1.46219e-06
2.16031e-10
1.46197e-06
2.14777e-10
1.46154e-06
4.32104e-10
1.46105e-06
4.81817e-10
1.46039e-06
6.65294e-10
1.45986e-06
5.2632e-10
1.45927e-06
5.8894e-10
1.45868e-06
5.92364e-10
1.45809e-06
5.9712e-10
1.45744e-06
6.54532e-10
1.45673e-06
7.03628e-10
1.45608e-06
6.39102e-10
1.45529e-06
7.69445e-10
1.45452e-06
7.55877e-10
1.45369e-06
8.05893e-10
1.45284e-06
8.28462e-10
1.45191e-06
9.07327e-10
1.45098e-06
9.16667e-10
1.44996e-06
1.00585e-09
1.44892e-06
1.02733e-09
1.44789e-06
1.02667e-09
1.44678e-06
1.10227e-09
1.44578e-06
9.9461e-10
1.44466e-06
1.11899e-09
1.44367e-06
9.95222e-10
1.44263e-06
1.04464e-09
1.44167e-06
9.73325e-10
1.44073e-06
9.45613e-10
1.43981e-06
9.25735e-10
1.43892e-06
8.95409e-10
1.43797e-06
9.43533e-10
1.43722e-06
7.57007e-10
1.43642e-06
7.94015e-10
1.43565e-06
7.65154e-10
1.43485e-06
7.84309e-10
1.43404e-06
8.05881e-10
1.43322e-06
8.1407e-10
1.43239e-06
8.27764e-10
1.43154e-06
8.47585e-10
1.43065e-06
8.82403e-10
1.42975e-06
8.98528e-10
1.42882e-06
9.32349e-10
1.42784e-06
9.76493e-10
1.42685e-06
9.86004e-10
1.42588e-06
9.7379e-10
1.42488e-06
9.93904e-10
1.4239e-06
9.81182e-10
1.42291e-06
9.81146e-10
1.42195e-06
9.61245e-10
1.42099e-06
9.55747e-10
1.42008e-06
9.0015e-10
1.41924e-06
8.40631e-10
1.41842e-06
8.0852e-10
1.4177e-06
7.23161e-10
1.41692e-06
7.75886e-10
1.41643e-06
4.91608e-10
1.41583e-06
6.04971e-10
1.41518e-06
6.50255e-10
1.41453e-06
6.54957e-10
1.41385e-06
6.75767e-10
1.41309e-06
7.63387e-10
1.41232e-06
7.64686e-10
1.41139e-06
9.22731e-10
1.41046e-06
9.25054e-10
1.40953e-06
9.2233e-10
1.40858e-06
9.44162e-10
1.40764e-06
9.35325e-10
1.40671e-06
9.13975e-10
1.4058e-06
8.99898e-10
1.405e-06
7.89453e-10
1.40422e-06
7.76744e-10
1.40349e-06
7.21473e-10
1.40284e-06
6.36036e-10
1.4021e-06
7.18045e-10
1.40163e-06
4.61938e-10
1.40108e-06
5.3455e-10
1.40051e-06
5.64571e-10
1.39993e-06
5.64406e-10
1.39932e-06
6.00332e-10
1.3987e-06
6.18369e-10
1.39804e-06
6.57765e-10
1.39735e-06
6.85218e-10
1.39664e-06
7.08303e-10
1.3959e-06
7.31411e-10
1.39515e-06
7.46754e-10
1.39438e-06
7.69001e-10
1.3936e-06
7.73409e-10
1.39281e-06
7.80909e-10
1.39203e-06
7.76789e-10
1.39123e-06
7.84825e-10
1.39045e-06
7.69534e-10
1.38966e-06
7.78243e-10
1.3889e-06
7.56598e-10
1.38812e-06
7.64406e-10
1.38737e-06
7.37155e-10
1.3866e-06
7.54986e-10
1.38588e-06
7.14989e-10
1.38513e-06
7.43632e-10
1.38442e-06
7.05266e-10
1.38371e-06
7.00468e-10
4.53258e-10
6.37634e-10
-4.28116e-09
-7.66065e-09
1.01333e-08
-2.12359e-08
2.12235e-08
-4.02712e-08
3.19211e-08
-6.24224e-08
4.1168e-08
-8.26332e-08
4.26929e-08
-1.0087e-07
3.81546e-08
-1.16595e-07
3.27331e-08
-1.29631e-07
2.70385e-08
-1.40331e-07
2.21472e-08
-1.48744e-07
1.79995e-08
-1.55837e-07
1.52518e-08
-1.6182e-07
1.32218e-08
-1.66993e-07
1.17522e-08
-1.71464e-07
1.06072e-08
-1.75502e-07
9.92193e-09
-1.79186e-07
9.38121e-09
-1.82587e-07
8.95222e-09
-1.85832e-07
8.60325e-09
-1.88675e-07
8.28282e-09
-1.91352e-07
7.72536e-09
-1.92988e-07
6.91808e-09
-1.93941e-07
5.6684e-09
-1.93961e-07
4.23505e-09
-1.9311e-07
2.73361e-09
-1.91023e-07
8.12351e-10
-1.87717e-07
-1.31412e-09
-1.83313e-07
-4.13821e-09
-1.77485e-07
-6.96668e-09
-1.69987e-07
-1.02817e-08
-1.6022e-07
-1.45691e-08
-1.48016e-07
-1.94396e-08
-1.32652e-07
-2.54557e-08
-1.144e-07
-3.09483e-08
-9.21417e-08
-3.84038e-08
-6.679e-08
-4.44479e-08
-3.70827e-08
-5.37741e-08
-4.37023e-09
-5.91592e-08
3.24137e-08
-6.62583e-08
7.22525e-08
-7.11773e-08
1.14609e-07
-7.3331e-08
1.60541e-07
-7.7594e-08
2.09766e-07
-8.15721e-08
2.59983e-07
-8.73781e-08
3.10023e-07
-9.14009e-08
3.60794e-07
-9.39986e-08
4.12561e-07
-9.58464e-08
4.64473e-07
-9.65698e-08
5.16601e-07
-9.66964e-08
5.6951e-07
-9.85074e-08
6.22134e-07
-9.81496e-08
6.75224e-07
-9.93677e-08
7.26181e-07
-9.52734e-08
7.76297e-07
-9.40565e-08
8.24904e-07
-9.10727e-08
8.73069e-07
-9.08523e-08
9.19735e-07
-8.81475e-08
9.6579e-07
-8.76194e-08
1.00977e-06
-8.37721e-08
1.05232e-06
-8.08601e-08
1.09394e-06
-7.99114e-08
1.13232e-06
-7.28622e-08
1.16934e-06
-7.02931e-08
1.20455e-06
-6.68806e-08
1.23809e-06
-6.34162e-08
1.2709e-06
-6.25952e-08
1.30156e-06
-5.82705e-08
1.33117e-06
-5.64238e-08
1.35866e-06
-5.19155e-08
1.38485e-06
-4.94731e-08
1.40955e-06
-4.64657e-08
1.43275e-06
-4.32854e-08
1.45483e-06
-4.10693e-08
1.47566e-06
-3.85294e-08
1.4955e-06
-3.68081e-08
1.51425e-06
-3.441e-08
1.53223e-06
-3.24583e-08
1.54919e-06
-3.1151e-08
1.56534e-06
-2.99813e-08
1.5823e-06
-2.88913e-08
1.59732e-06
-2.62292e-08
1.61106e-06
-2.53437e-08
1.62423e-06
-2.41617e-08
1.63887e-06
-2.49929e-08
1.65144e-06
-2.17651e-08
1.66295e-06
-2.04595e-08
1.67419e-06
-2.01193e-08
1.68527e-06
-2.11687e-08
1.69884e-06
-2.10401e-08
1.70913e-06
-1.66888e-08
1.71797e-06
-1.52423e-08
1.7265e-06
-1.48941e-08
1.73533e-06
-1.67067e-08
1.74685e-06
-1.7561e-08
1.75542e-06
-1.36695e-08
1.76273e-06
-1.25755e-08
1.76951e-06
-1.164e-08
1.77794e-06
-1.41816e-08
1.78516e-06
-1.16292e-08
1.79201e-06
-1.13131e-08
1.7986e-06
-1.11609e-08
1.80693e-06
-1.28176e-08
1.81321e-06
-9.55934e-09
1.81875e-06
-8.66446e-09
1.82392e-06
-8.32688e-09
1.83001e-06
-9.8352e-09
1.83539e-06
-8.41033e-09
1.84046e-06
-7.68016e-09
1.84539e-06
-7.94053e-09
1.84987e-06
-7.11714e-09
1.85414e-06
-7.04067e-09
1.85783e-06
-5.77906e-09
1.86145e-06
-5.31392e-09
1.86471e-06
-4.62066e-09
1.86846e-06
-3.70458e-09
1.87151e-06
-3.76e-09
1.87459e-06
-3.59179e-09
1.87774e-06
-4.11127e-09
1.88092e-06
-4.45706e-09
1.88381e-06
-3.90355e-09
1.88614e-06
-3.57571e-09
1.88812e-06
-2.81586e-09
1.88984e-06
-2.32803e-09
1.89169e-06
-1.76495e-09
1.89331e-06
-1.52047e-09
1.89549e-06
-1.81422e-09
1.89747e-06
-1.91018e-09
1.89976e-06
-2.18926e-09
1.90208e-06
-2.47968e-09
1.90449e-06
-3.19155e-09
1.90723e-06
-3.3231e-09
1.90973e-06
-3.74065e-09
1.91215e-06
-3.70897e-09
1.91441e-06
-3.26402e-09
1.91638e-06
-2.60897e-09
1.91764e-06
-1.87512e-09
1.91907e-06
-2.09899e-09
1.9202e-06
-1.37243e-09
1.92115e-06
-8.81964e-10
1.92181e-06
-4.44489e-10
1.92276e-06
-7.40516e-10
1.92344e-06
-2.56727e-10
1.92412e-06
-1.96393e-10
1.92491e-06
-1.40157e-10
1.92566e-06
-2.2266e-10
1.9263e-06
-5.76275e-11
1.92694e-06
-5.46292e-11
1.92755e-06
-2.32038e-11
1.92788e-06
3.20207e-10
1.92834e-06
2.3073e-10
1.92867e-06
2.70455e-10
1.92892e-06
5.00065e-10
1.92911e-06
5.46781e-10
1.92916e-06
7.36948e-10
1.9292e-06
7.7458e-10
1.92912e-06
9.72985e-10
1.92907e-06
9.56867e-10
1.92891e-06
1.15267e-09
1.92878e-06
1.14857e-09
1.92861e-06
1.1841e-09
1.92843e-06
1.27219e-09
1.92831e-06
1.10919e-09
1.92816e-06
1.27531e-09
1.92809e-06
1.05852e-09
1.92798e-06
1.16416e-09
1.92793e-06
1.01592e-09
1.92787e-06
1.01232e-09
1.92777e-06
1.02167e-09
1.92768e-06
9.79372e-10
1.92752e-06
1.09429e-09
1.92733e-06
9.44069e-10
1.92714e-06
9.78978e-10
1.92681e-06
1.08493e-09
1.92647e-06
1.11629e-09
1.92607e-06
1.19495e-09
1.92562e-06
1.25958e-09
1.92512e-06
1.32319e-09
1.92458e-06
1.37731e-09
1.92401e-06
1.45275e-09
1.9234e-06
1.51138e-09
1.9228e-06
1.53635e-09
1.92214e-06
1.63647e-09
1.92151e-06
1.61139e-09
1.92087e-06
1.62079e-09
1.92024e-06
1.61441e-09
1.91962e-06
1.60934e-09
1.91901e-06
1.58041e-09
1.91845e-06
1.52084e-09
1.9179e-06
1.5012e-09
1.91746e-06
1.33753e-09
1.91705e-06
1.24204e-09
1.91665e-06
1.21202e-09
1.91628e-06
1.09181e-09
1.9158e-06
1.24752e-09
1.91535e-06
9.48486e-10
1.9148e-06
1.15322e-09
1.91412e-06
1.32836e-09
1.91337e-06
1.40896e-09
1.91259e-06
1.45334e-09
1.91172e-06
1.63725e-09
1.91084e-06
1.63312e-09
1.90993e-06
1.83769e-09
1.90899e-06
1.8544e-09
1.9081e-06
1.79823e-09
1.90726e-06
1.76706e-09
1.90649e-06
1.69749e-09
1.90576e-06
1.62959e-09
1.90507e-06
1.57167e-09
1.90454e-06
1.31034e-09
1.90392e-06
1.3835e-09
1.9033e-06
1.32889e-09
1.90274e-06
1.17415e-09
1.90199e-06
1.44999e-09
1.90145e-06
9.90058e-10
1.90079e-06
1.17455e-09
1.90006e-06
1.28588e-09
1.89932e-06
1.2876e-09
1.89852e-06
1.38953e-09
1.8977e-06
1.42318e-09
1.89683e-06
1.51483e-09
1.89595e-06
1.55863e-09
1.89506e-06
1.59102e-09
1.89416e-06
1.62084e-09
1.89326e-06
1.63621e-09
1.89234e-06
1.67121e-09
1.89144e-06
1.66886e-09
1.89052e-06
1.68262e-09
1.88962e-06
1.66762e-09
1.8887e-06
1.68898e-09
1.88779e-06
1.66005e-09
1.88687e-06
1.68299e-09
1.88597e-06
1.64709e-09
1.88503e-06
1.67734e-09
1.88413e-06
1.62258e-09
1.8832e-06
1.66967e-09
1.88232e-06
1.58114e-09
1.8814e-06
1.65557e-09
1.88055e-06
1.5425e-09
1.87958e-06
1.66515e-09
1.05331e-09
-5.5213e-09
1.2376e-09
-1.69912e-08
2.16006e-08
-3.40012e-08
3.82309e-08
-5.51806e-08
5.3098e-08
-7.4865e-08
6.08499e-08
-9.24098e-08
6.02351e-08
-1.07754e-07
5.34962e-08
-1.20344e-07
4.53206e-08
-1.30388e-07
3.70796e-08
-1.38491e-07
3.02473e-08
-1.45588e-07
2.5095e-08
-1.51169e-07
2.08303e-08
-1.55649e-07
1.77007e-08
-1.59348e-07
1.54496e-08
-1.62361e-07
1.36182e-08
-1.64879e-07
1.24385e-08
-1.67022e-07
1.15233e-08
-1.68859e-07
1.0787e-08
-1.702e-07
9.94301e-09
-1.70969e-07
9.05038e-09
-1.71044e-07
7.79834e-09
-1.70414e-07
6.28647e-09
-1.68973e-07
4.22608e-09
-1.6662e-07
1.8795e-09
-1.63137e-07
-7.50285e-10
-1.58393e-07
-3.93251e-09
-1.52373e-07
-7.3348e-09
-1.44835e-07
-1.16765e-08
-1.35138e-07
-1.66628e-08
-1.23301e-07
-2.21166e-08
-1.08645e-07
-2.92222e-08
-9.12581e-08
-3.68227e-08
-6.98661e-08
-4.68433e-08
-4.55894e-08
-5.52199e-08
-1.65251e-08
-6.74631e-08
1.59299e-08
-7.68975e-08
5.34388e-08
-9.12779e-08
9.39839e-08
-9.96984e-08
1.38395e-07
-1.10666e-07
1.86463e-07
-1.19243e-07
2.36726e-07
-1.23596e-07
2.91472e-07
-1.32342e-07
3.48218e-07
-1.38323e-07
4.05744e-07
-1.44906e-07
4.63086e-07
-1.48743e-07
5.20752e-07
-1.51664e-07
5.78984e-07
-1.54076e-07
6.37303e-07
-1.54885e-07
6.95969e-07
-1.55355e-07
7.54757e-07
-1.57284e-07
8.12959e-07
-1.56357e-07
8.70756e-07
-1.57173e-07
9.25787e-07
-1.50304e-07
9.79154e-07
-1.47406e-07
1.03061e-06
-1.42513e-07
1.08109e-06
-1.41328e-07
1.1295e-06
-1.36584e-07
1.17662e-06
-1.34769e-07
1.22116e-06
-1.2838e-07
1.26407e-06
-1.23832e-07
1.30529e-06
-1.21205e-07
1.34328e-06
-1.10916e-07
1.37999e-06
-1.07044e-07
1.41459e-06
-1.01489e-07
1.44752e-06
-9.63241e-08
1.47937e-06
-9.43952e-08
1.50896e-06
-8.77972e-08
1.53723e-06
-8.46275e-08
1.56336e-06
-7.79878e-08
1.58835e-06
-7.44288e-08
1.6118e-06
-6.98859e-08
1.63391e-06
-6.53909e-08
1.65505e-06
-6.22169e-08
1.67503e-06
-5.85255e-08
1.69409e-06
-5.58887e-08
1.71209e-06
-5.24247e-08
1.72969e-06
-5.00815e-08
1.74626e-06
-4.77438e-08
1.76202e-06
-4.5757e-08
1.77869e-06
-4.55824e-08
1.79407e-06
-4.16362e-08
1.80804e-06
-3.93298e-08
1.8211e-06
-3.72413e-08
1.83525e-06
-3.91553e-08
1.84831e-06
-3.48447e-08
1.86015e-06
-3.23084e-08
1.87142e-06
-3.14021e-08
1.88256e-06
-3.23122e-08
1.89558e-06
-3.40694e-08
1.90705e-06
-2.81684e-08
1.91636e-06
-2.45588e-08
1.92547e-06
-2.4016e-08
1.93454e-06
-2.57816e-08
1.9456e-06
-2.86226e-08
1.95537e-06
-2.34478e-08
1.96328e-06
-2.04781e-08
1.97074e-06
-1.91046e-08
1.97893e-06
-2.23629e-08
1.98686e-06
-1.95641e-08
1.99413e-06
-1.85807e-08
2.00133e-06
-1.83521e-08
2.00969e-06
-2.11754e-08
2.01706e-06
-1.69252e-08
2.02337e-06
-1.49712e-08
2.02921e-06
-1.4157e-08
2.03556e-06
-1.61647e-08
2.04156e-06
-1.43945e-08
2.04723e-06
-1.3342e-08
2.05259e-06
-1.32834e-08
2.05762e-06
-1.21302e-08
2.06187e-06
-1.1282e-08
2.06572e-06
-9.62209e-09
2.06944e-06
-9.02608e-09
2.07301e-06
-8.19286e-09
2.07757e-06
-8.2645e-09
2.0814e-06
-7.60093e-09
2.08532e-06
-7.52145e-09
2.08944e-06
-8.2412e-09
2.09353e-06
-8.55828e-09
2.09727e-06
-7.65017e-09
2.10013e-06
-6.45928e-09
2.10234e-06
-5.04863e-09
2.10436e-06
-4.37073e-09
2.10687e-06
-4.30811e-09
2.10923e-06
-3.91107e-09
2.11282e-06
-5.42298e-09
2.11569e-06
-4.80869e-09
2.11893e-06
-5.44543e-09
2.1224e-06
-5.95993e-09
2.12601e-06
-6.81442e-09
2.12976e-06
-7.08015e-09
2.13324e-06
-7.21638e-09
2.13644e-06
-6.9017e-09
2.13933e-06
-6.14962e-09
2.14181e-06
-5.09093e-09
2.14358e-06
-3.63393e-09
2.14508e-06
-3.59275e-09
2.14632e-06
-2.61638e-09
2.14762e-06
-2.18157e-09
2.14882e-06
-1.64085e-09
2.15014e-06
-2.06489e-09
2.15152e-06
-1.64282e-09
2.15297e-06
-1.64753e-09
2.15442e-06
-1.59955e-09
2.1557e-06
-1.51955e-09
2.15693e-06
-1.28933e-09
2.1581e-06
-1.24554e-09
2.15927e-06
-1.20065e-09
2.15997e-06
-3.86762e-10
2.16087e-06
-6.94389e-10
2.16152e-06
-4.22397e-10
2.16213e-06
-1.40029e-10
2.16265e-06
6.04853e-12
2.16302e-06
3.47317e-10
2.16335e-06
4.28043e-10
2.16361e-06
7.03383e-10
2.16389e-06
6.7175e-10
2.16413e-06
9.0084e-10
2.16439e-06
8.82487e-10
2.16464e-06
9.29383e-10
2.16492e-06
9.85061e-10
2.16526e-06
7.67846e-10
2.16562e-06
9.15719e-10
2.16603e-06
6.48274e-10
2.16646e-06
7.30022e-10
2.16687e-06
6.02338e-10
2.16724e-06
6.36606e-10
2.16756e-06
6.93933e-10
2.16788e-06
6.44847e-10
2.16796e-06
1.00139e-09
2.16809e-06
8.0813e-10
2.16819e-06
8.71869e-10
2.16817e-06
1.0914e-09
2.16806e-06
1.21399e-09
2.16787e-06
1.37835e-09
2.1676e-06
1.52141e-09
2.16727e-06
1.64884e-09
2.1669e-06
1.74196e-09
2.1665e-06
1.85142e-09
2.16606e-06
1.9548e-09
2.16564e-06
1.95992e-09
2.16518e-06
2.09369e-09
2.16477e-06
2.02385e-09
2.16434e-06
2.05358e-09
2.16395e-06
2.00234e-09
2.16357e-06
1.99248e-09
2.16321e-06
1.93752e-09
2.1629e-06
1.82391e-09
2.16262e-06
1.77774e-09
2.16252e-06
1.43915e-09
2.16238e-06
1.38101e-09
2.16226e-06
1.32426e-09
2.16204e-06
1.31056e-09
2.16174e-06
1.55492e-09
2.16129e-06
1.39158e-09
2.16077e-06
1.67594e-09
2.16009e-06
2.01575e-09
2.15929e-06
2.20581e-09
2.15845e-06
2.28783e-09
2.15756e-06
2.52899e-09
2.15667e-06
2.52551e-09
2.15578e-06
2.71932e-09
2.15491e-06
2.71059e-09
2.1541e-06
2.59902e-09
2.15338e-06
2.46704e-09
2.15275e-06
2.31252e-09
2.15218e-06
2.18561e-09
2.15171e-06
2.02032e-09
2.15131e-06
1.69562e-09
2.15086e-06
1.82296e-09
2.15031e-06
1.86532e-09
2.14983e-06
1.63712e-09
2.14912e-06
2.13618e-09
2.14847e-06
1.62923e-09
2.14777e-06
1.85745e-09
2.14696e-06
2.07974e-09
2.14614e-06
2.08379e-09
2.14526e-06
2.25403e-09
2.14435e-06
2.31917e-09
2.1434e-06
2.45064e-09
2.14244e-06
2.51252e-09
2.14147e-06
2.54499e-09
2.14051e-06
2.57164e-09
2.13955e-06
2.58347e-09
2.13858e-06
2.62075e-09
2.13763e-06
2.60936e-09
2.13666e-06
2.62903e-09
2.13572e-06
2.60052e-09
2.13475e-06
2.63844e-09
2.13379e-06
2.59618e-09
2.13282e-06
2.64005e-09
2.13185e-06
2.59092e-09
2.13085e-06
2.65361e-09
2.12989e-06
2.5702e-09
2.12888e-06
2.65296e-09
2.12794e-06
2.51208e-09
2.12694e-06
2.63888e-09
2.12604e-06
2.43538e-09
2.12497e-06
2.72484e-09
1.81594e-09
-9.98003e-09
1.12151e-08
-2.53873e-08
3.70054e-08
-4.46093e-08
5.74504e-08
-6.35087e-08
7.19947e-08
-8.03994e-08
7.7738e-08
-9.47902e-08
7.46234e-08
-1.06649e-07
6.53527e-08
-1.16348e-07
5.50164e-08
-1.24586e-07
4.5315e-08
-1.31279e-07
3.69379e-08
-1.36405e-07
3.02186e-08
-1.40369e-07
2.47926e-08
-1.43388e-07
2.0718e-08
-1.45721e-07
1.77805e-08
-1.4752e-07
1.54157e-08
-1.48895e-07
1.38124e-08
-1.49846e-07
1.24727e-08
-1.50287e-07
1.1227e-08
-1.50316e-07
9.97026e-09
-1.49746e-07
8.4782e-09
-1.48454e-07
6.50466e-09
-1.46288e-07
4.11901e-09
-1.43207e-07
1.14261e-09
-1.38972e-07
-2.35716e-09
-1.33346e-07
-6.37779e-09
-1.2604e-07
-1.12404e-08
-1.17022e-07
-1.6353e-08
-1.05996e-07
-2.27036e-08
-9.22159e-08
-3.04423e-08
-7.58001e-08
-3.85309e-08
-5.55634e-08
-4.94562e-08
-3.26338e-08
-5.97486e-08
-5.01349e-09
-7.44592e-08
2.67759e-08
-8.70041e-08
6.39293e-08
-1.04611e-07
1.04812e-07
-1.17775e-07
1.51489e-07
-1.37949e-07
2.00662e-07
-1.48867e-07
2.54837e-07
-1.64837e-07
3.1236e-07
-1.76765e-07
3.72033e-07
-1.83268e-07
4.35717e-07
-1.9603e-07
5.00882e-07
-2.03493e-07
5.66275e-07
-2.10301e-07
6.31245e-07
-2.13715e-07
6.96475e-07
-2.16894e-07
7.62079e-07
-2.19677e-07
8.27294e-07
-2.20093e-07
8.93188e-07
-2.21243e-07
9.57963e-07
-2.22044e-07
1.02186e-06
-2.20253e-07
1.08359e-06
-2.18915e-07
1.14198e-06
-2.08676e-07
1.19826e-06
-2.03661e-07
1.25182e-06
-1.96047e-07
1.30406e-06
-1.93564e-07
1.35329e-06
-1.85837e-07
1.40043e-06
-1.81957e-07
1.44445e-06
-1.72474e-07
1.48648e-06
-1.65933e-07
1.52594e-06
-1.60757e-07
1.56215e-06
-1.47193e-07
1.59707e-06
-1.42024e-07
1.62958e-06
-1.34011e-07
1.66042e-06
-1.27157e-07
1.68991e-06
-1.2384e-07
1.71687e-06
-1.14696e-07
1.74237e-06
-1.10081e-07
1.76565e-06
-1.01221e-07
1.78797e-06
-9.67126e-08
1.80865e-06
-9.05533e-08
1.82828e-06
-8.50215e-08
1.84708e-06
-8.10263e-08
1.86477e-06
-7.62412e-08
1.88163e-06
-7.27706e-08
1.8975e-06
-6.83256e-08
1.91324e-06
-6.5845e-08
1.92804e-06
-6.25691e-08
1.94235e-06
-6.00996e-08
1.95733e-06
-6.05887e-08
1.97163e-06
-5.59703e-08
1.98442e-06
-5.21495e-08
1.99645e-06
-4.9301e-08
2.00897e-06
-5.16912e-08
2.02115e-06
-4.70444e-08
2.03214e-06
-4.33103e-08
2.04244e-06
-4.17217e-08
2.05257e-06
-4.24486e-08
2.06389e-06
-4.53945e-08
2.07496e-06
-3.92502e-08
2.08414e-06
-3.37437e-08
2.09277e-06
-3.26559e-08
2.10123e-06
-3.42491e-08
2.11082e-06
-3.82097e-08
2.12034e-06
-3.29736e-08
2.12822e-06
-2.83627e-08
2.1357e-06
-2.65876e-08
2.1428e-06
-2.94539e-08
2.15019e-06
-2.69597e-08
2.15734e-06
-2.572e-08
2.16431e-06
-2.53231e-08
2.17172e-06
-2.85835e-08
2.17901e-06
-2.42135e-08
2.18529e-06
-2.12474e-08
2.19123e-06
-2.00893e-08
2.19696e-06
-2.18822e-08
2.20284e-06
-2.02539e-08
2.20832e-06
-1.8806e-08
2.21347e-06
-1.84196e-08
2.21816e-06
-1.68032e-08
2.22204e-06
-1.5152e-08
2.22526e-06
-1.28327e-08
2.22854e-06
-1.22971e-08
2.23175e-06
-1.14002e-08
2.23604e-06
-1.25555e-08
2.23991e-06
-1.1471e-08
2.24401e-06
-1.16224e-08
2.24834e-06
-1.25867e-08
2.25258e-06
-1.2807e-08
2.25636e-06
-1.14396e-08
2.25919e-06
-9.31783e-09
2.26131e-06
-7.19852e-09
2.26312e-06
-6.20599e-09
2.26578e-06
-7.00174e-09
2.26827e-06
-6.43678e-09
2.27201e-06
-9.19339e-09
2.27537e-06
-8.19025e-09
2.27921e-06
-9.30904e-09
2.28339e-06
-1.01488e-08
2.28776e-06
-1.11975e-08
2.29201e-06
-1.134e-08
2.296e-06
-1.12014e-08
2.2996e-06
-1.04966e-08
2.30279e-06
-9.3289e-09
2.30549e-06
-7.77686e-09
2.30746e-06
-5.5948e-09
2.30883e-06
-4.95199e-09
2.31e-06
-3.77887e-09
2.31126e-06
-3.43735e-09
2.3125e-06
-2.88105e-09
2.31386e-06
-3.41841e-09
2.31536e-06
-3.15204e-09
2.31714e-06
-3.43339e-09
2.31869e-06
-3.16239e-09
2.32019e-06
-3.0274e-09
2.32167e-06
-2.78382e-09
2.32303e-06
-2.62167e-09
2.32439e-06
-2.57585e-09
2.32541e-06
-1.4168e-09
2.32637e-06
-1.68688e-09
2.32723e-06
-1.31253e-09
2.32803e-06
-9.75208e-10
2.32862e-06
-6.08359e-10
2.3291e-06
-1.53657e-10
2.32952e-06
-6.46732e-12
2.32988e-06
3.30499e-10
2.33029e-06
2.5938e-10
2.33069e-06
4.99847e-10
2.33112e-06
4.42986e-10
2.33156e-06
4.92615e-10
2.33207e-06
4.70768e-10
2.33266e-06
1.81213e-10
2.33336e-06
2.15741e-10
2.33398e-06
2.11398e-11
2.33468e-06
3.01659e-11
2.33534e-06
-6.9918e-11
2.33596e-06
9.48973e-12
2.33654e-06
9.81217e-11
2.33708e-06
9.07956e-11
2.33739e-06
6.77908e-10
2.33761e-06
5.81533e-10
2.33775e-06
7.1289e-10
2.3379e-06
9.25956e-10
2.3379e-06
1.20523e-09
2.3378e-06
1.46936e-09
2.33761e-06
1.7008e-09
2.33735e-06
1.89953e-09
2.33706e-06
2.03555e-09
2.33673e-06
2.17374e-09
2.33637e-06
2.31352e-09
2.33603e-06
2.30461e-09
2.33569e-06
2.43688e-09
2.33539e-06
2.33039e-09
2.33508e-06
2.35871e-09
2.33482e-06
2.26444e-09
2.3346e-06
2.21837e-09
2.33439e-06
2.14632e-09
2.33425e-06
1.96054e-09
2.33422e-06
1.80587e-09
2.33423e-06
1.41854e-09
2.33423e-06
1.38005e-09
2.3343e-06
1.26313e-09
2.33419e-06
1.42107e-09
2.33402e-06
1.72115e-09
2.33362e-06
1.79243e-09
2.3331e-06
2.19827e-09
2.3324e-06
2.71396e-09
2.33158e-06
3.0324e-09
2.33069e-06
3.17145e-09
2.32978e-06
3.44618e-09
2.32886e-06
3.43922e-09
2.32798e-06
3.59082e-09
2.32715e-06
3.53317e-09
2.32639e-06
3.34391e-09
2.32575e-06
3.08824e-09
2.32521e-06
2.83229e-09
2.32475e-06
2.62898e-09
2.32445e-06
2.30854e-09
2.32413e-06
1.99275e-09
2.32376e-06
2.17603e-09
2.32332e-06
2.28868e-09
2.32288e-06
2.05894e-09
2.32221e-06
2.79044e-09
2.32148e-06
2.34739e-09
2.32075e-06
2.56853e-09
2.3199e-06
2.91384e-09
2.31902e-06
2.93914e-09
2.31809e-06
3.17011e-09
2.31711e-06
3.28485e-09
2.3161e-06
3.4424e-09
2.31508e-06
3.52289e-09
2.31406e-06
3.55068e-09
2.31305e-06
3.57049e-09
2.31204e-06
3.57584e-09
2.31104e-06
3.60827e-09
2.31004e-06
3.58633e-09
2.30904e-06
3.61104e-09
2.30805e-06
3.56837e-09
2.30705e-06
3.623e-09
2.30606e-06
3.56829e-09
2.30504e-06
3.63762e-09
2.30403e-06
3.57583e-09
2.30298e-06
3.67543e-09
2.30197e-06
3.56442e-09
2.30091e-06
3.68515e-09
2.29992e-06
3.49104e-09
2.29887e-06
3.67173e-09
2.29792e-06
3.36947e-09
2.29678e-06
3.85375e-09
2.69213e-09
-1.40275e-08
2.524e-08
-3.23662e-08
5.53416e-08
-5.01801e-08
7.52617e-08
-6.67561e-08
8.85681e-08
-8.08824e-08
9.18617e-08
-9.21058e-08
8.58442e-08
-1.01403e-07
7.46476e-08
-1.09065e-07
6.26748e-08
-1.15296e-07
5.15441e-08
-1.20235e-07
4.18739e-08
-1.23929e-07
3.3911e-08
-1.26663e-07
2.75248e-08
-1.28674e-07
2.2727e-08
-1.30082e-07
1.91863e-08
-1.31017e-07
1.63493e-08
-1.31402e-07
1.41964e-08
-1.31403e-07
1.24723e-08
-1.30987e-07
1.08093e-08
-1.29997e-07
8.97838e-09
-1.28286e-07
6.76567e-09
-1.25723e-07
3.93902e-09
-1.22098e-07
4.92116e-10
-1.1728e-07
-3.67708e-09
-1.10958e-07
-8.681e-09
-1.02891e-07
-1.44471e-08
-9.26459e-08
-2.14869e-08
-8.01942e-08
-2.88062e-08
-6.52179e-08
-3.76804e-08
-4.66161e-08
-4.90445e-08
-2.5156e-08
-5.99901e-08
9.08447e-10
-7.55181e-08
3.14803e-08
-9.03164e-08
6.77785e-08
-1.10753e-07
1.08503e-07
-1.27723e-07
1.56563e-07
-1.52667e-07
2.0862e-07
-1.69824e-07
2.67167e-07
-1.96494e-07
3.27984e-07
-2.09676e-07
3.94289e-07
-2.31142e-07
4.63657e-07
-2.46127e-07
5.36345e-07
-2.55963e-07
6.10238e-07
-2.6992e-07
6.86176e-07
-2.79439e-07
7.60677e-07
-2.84804e-07
8.35971e-07
-2.89009e-07
9.09427e-07
-2.90349e-07
9.84496e-07
-2.94744e-07
1.05713e-06
-2.9272e-07
1.13217e-06
-2.96274e-07
1.20358e-06
-2.93439e-07
1.27298e-06
-2.89659e-07
1.33842e-06
-2.84357e-07
1.39961e-06
-2.69834e-07
1.458e-06
-2.62e-07
1.51228e-06
-2.50295e-07
1.56491e-06
-2.46188e-07
1.6132e-06
-2.34155e-07
1.65877e-06
-2.27581e-07
1.70051e-06
-2.14308e-07
1.73988e-06
-2.05399e-07
1.77591e-06
-1.96893e-07
1.80853e-06
-1.79887e-07
1.83976e-06
-1.73326e-07
1.8685e-06
-1.62768e-07
1.89562e-06
-1.5427e-07
1.92141e-06
-1.49603e-07
1.94429e-06
-1.37534e-07
1.96579e-06
-1.31541e-07
1.98496e-06
-1.20362e-07
2.00343e-06
-1.15157e-07
2.02017e-06
-1.07278e-07
2.0363e-06
-1.01165e-07
2.0517e-06
-9.64382e-08
2.06598e-06
-9.05546e-08
2.07956e-06
-8.63853e-08
2.09239e-06
-8.11881e-08
2.10528e-06
-7.87592e-08
2.11747e-06
-7.47933e-08
2.12958e-06
-7.22468e-08
2.14188e-06
-7.29271e-08
2.15419e-06
-6.83183e-08
2.16494e-06
-6.29362e-08
2.17545e-06
-5.98492e-08
2.18541e-06
-6.16784e-08
2.1959e-06
-5.75565e-08
2.2052e-06
-5.26336e-08
2.21392e-06
-5.04513e-08
2.22233e-06
-5.08684e-08
2.23115e-06
-5.42315e-08
2.24075e-06
-4.88573e-08
2.24939e-06
-4.23834e-08
2.257e-06
-4.02762e-08
2.26414e-06
-4.13974e-08
2.27156e-06
-4.56298e-08
2.27961e-06
-4.10291e-08
2.28728e-06
-3.60403e-08
2.29398e-06
-3.32786e-08
2.29969e-06
-3.51614e-08
2.30603e-06
-3.33019e-08
2.31226e-06
-3.19469e-08
2.3184e-06
-3.14658e-08
2.32437e-06
-3.45484e-08
2.3308e-06
-3.0641e-08
2.33673e-06
-2.71751e-08
2.34202e-06
-2.53747e-08
2.3468e-06
-2.66503e-08
2.35189e-06
-2.53335e-08
2.35675e-06
-2.36539e-08
2.36114e-06
-2.27891e-08
2.36492e-06
-2.05654e-08
2.36784e-06
-1.80544e-08
2.37011e-06
-1.50917e-08
2.37246e-06
-1.46451e-08
2.375e-06
-1.39275e-08
2.37848e-06
-1.60326e-08
2.38199e-06
-1.49745e-08
2.38587e-06
-1.55131e-08
2.38991e-06
-1.66286e-08
2.39376e-06
-1.66704e-08
2.39706e-06
-1.47522e-08
2.39941e-06
-1.16965e-08
2.40111e-06
-8.92639e-09
2.40253e-06
-7.65776e-09
2.40461e-06
-9.11828e-09
2.40702e-06
-8.8886e-09
2.4102e-06
-1.23997e-08
2.41366e-06
-1.16872e-08
2.418e-06
-1.36748e-08
2.42257e-06
-1.47323e-08
2.42716e-06
-1.57956e-08
2.43158e-06
-1.57666e-08
2.43572e-06
-1.53325e-08
2.43941e-06
-1.41809e-08
2.44262e-06
-1.25252e-08
2.44524e-06
-1.03932e-08
2.44712e-06
-7.45777e-09
2.44819e-06
-6.00548e-09
2.44908e-06
-4.66006e-09
2.45012e-06
-4.4684e-09
2.45121e-06
-3.95563e-09
2.4524e-06
-4.60729e-09
2.45376e-06
-4.51881e-09
2.45542e-06
-5.09612e-09
2.45693e-06
-4.68156e-09
2.45839e-06
-4.50157e-09
2.45983e-06
-4.23727e-09
2.46116e-06
-3.96821e-09
2.46248e-06
-3.91749e-09
2.46357e-06
-2.52142e-09
2.46442e-06
-2.56517e-09
2.46521e-06
-2.14169e-09
2.46596e-06
-1.75893e-09
2.46655e-06
-1.22167e-09
2.46699e-06
-6.19619e-10
2.4674e-06
-4.37655e-10
2.4677e-06
2.36412e-11
2.46809e-06
-1.42233e-10
2.46848e-06
1.12026e-10
2.46894e-06
-2.18093e-11
2.46941e-06
2.97979e-11
2.47009e-06
-2.07814e-10
2.47076e-06
-4.82721e-10
2.47155e-06
-5.72934e-10
2.4723e-06
-7.28928e-10
2.47312e-06
-7.97665e-10
2.47391e-06
-8.63575e-10
2.47463e-06
-7.23905e-10
2.47531e-06
-6.04467e-10
2.47591e-06
-5.22688e-10
2.47629e-06
2.77591e-10
2.47649e-06
3.68947e-10
2.47662e-06
5.63892e-10
2.47679e-06
7.41703e-10
2.47678e-06
1.19992e-09
2.47668e-06
1.55677e-09
2.47648e-06
1.88769e-09
2.47621e-06
2.1616e-09
2.4759e-06
2.34312e-09
2.47556e-06
2.50989e-09
2.47521e-06
2.66955e-09
2.47486e-06
2.65844e-09
2.47454e-06
2.75522e-09
2.47425e-06
2.62093e-09
2.47399e-06
2.62332e-09
2.47377e-06
2.48687e-09
2.4736e-06
2.38471e-09
2.47346e-06
2.2841e-09
2.47347e-06
1.95391e-09
2.47346e-06
1.81016e-09
2.4736e-06
1.28109e-09
2.4737e-06
1.28139e-09
2.47382e-06
1.14593e-09
2.47379e-06
1.44841e-09
2.47369e-06
1.82064e-09
2.47329e-06
2.19728e-09
2.47273e-06
2.75755e-09
2.47199e-06
3.45698e-09
2.47111e-06
3.91258e-09
2.47016e-06
4.12924e-09
2.46917e-06
4.43037e-09
2.4682e-06
4.40488e-09
2.46728e-06
4.5121e-09
2.46643e-06
4.36404e-09
2.46569e-06
4.06861e-09
2.46509e-06
3.68004e-09
2.46459e-06
3.31357e-09
2.46422e-06
2.98044e-09
2.46394e-06
2.56209e-09
2.4637e-06
2.2231e-09
2.46337e-06
2.4889e-09
2.46301e-06
2.62591e-09
2.46259e-06
2.46425e-09
2.46194e-06
3.41986e-09
2.46111e-06
3.16567e-09
2.46032e-06
3.33613e-09
2.45943e-06
3.78493e-09
2.45849e-06
3.8674e-09
2.45749e-06
4.15067e-09
2.45643e-06
4.32343e-09
2.45536e-06
4.50272e-09
2.45427e-06
4.60103e-09
2.45318e-06
4.62099e-09
2.45211e-06
4.63116e-09
2.45104e-06
4.62668e-09
2.44998e-06
4.65011e-09
2.44893e-06
4.61502e-09
2.44788e-06
4.64351e-09
2.44684e-06
4.58588e-09
2.44578e-06
4.65552e-09
2.44474e-06
4.58931e-09