/*--------------------------------*- C++ -*----------------------------------*\
| =========                 |                                                 |
| \\      /  F ield         | OpenFOAM: The Open Source CFD Toolbox           |
|  \\    /   O peration     | Version:  2312                                  |
|   \\  /    A nd           | Website:  www.openfoam.com                      |
|    \\/     M anipulation  |                                                 |
\*---------------------------------------------------------------------------*/
FoamFile
{
    version     2.0;
    format      ascii;
    arch        "LSB;label=32;scalar=64";
    class       volScalarField;
    location    "0.003";
    object      rho;
}
// * * * * * * * * * * * * * * * * * * * * * * * * * * * * * * * * * * * * * //

dimensions      [1 -3 0 0 0 0 0];

internalField   nonuniform List<scalar> 
48128
(
0.0365877
0.0365037
0.0364433
0.0362046
0.0360095
0.0356411
0.0350206
0.0342875
0.0335537
0.032931
0.0324948
0.0322159
0.0320297
0.0319925
0.0320581
0.0322042
0.0324389
0.0327647
0.0331847
0.0337163
0.0344142
0.0352354
0.0361706
0.0372677
0.0385433
0.0399955
0.0416281
0.0434333
0.0454762
0.0476923
0.0501415
0.0527739
0.0556374
0.0586894
0.061983
0.0654229
0.0691568
0.0728551
0.0767578
0.0807482
0.0847222
0.0877614
0.0917503
0.0956718
0.0995527
0.103416
0.107223
0.11092
0.114469
0.11794
0.121255
0.124535
0.127529
0.130538
0.133277
0.136
0.138482
0.140857
0.143046
0.14497
0.146871
0.148462
0.149989
0.151469
0.152719
0.153986
0.154966
0.15594
0.156682
0.157411
0.158068
0.158629
0.159193
0.159683
0.160154
0.16057
0.160973
0.161442
0.161767
0.162075
0.162711
0.163182
0.163365
0.163528
0.164072
0.164385
0.164514
0.164596
0.164579
0.1653
0.165609
0.165655
0.165678
0.165615
0.16621
0.166459
0.166437
0.166421
0.166593
0.166672
0.16665
0.166587
0.166921
0.167045
0.16701
0.166987
0.167067
0.167067
0.167031
0.166968
0.166817
0.16659
0.166299
0.166058
0.165783
0.165736
0.165695
0.165669
0.165666
0.165655
0.165552
0.165353
0.165087
0.164854
0.164691
0.164552
0.164664
0.164732
0.164879
0.165055
0.165232
0.165405
0.165538
0.165628
0.165638
0.165594
0.165445
0.16525
0.165055
0.164884
0.164725
0.164607
0.16449
0.164421
0.164336
0.164255
0.164158
0.164069
0.163989
0.163861
0.163753
0.163613
0.163483
0.163345
0.163196
0.163058
0.162921
0.162801
0.162683
0.162577
0.162478
0.162397
0.16232
0.162255
0.162198
0.162149
0.162097
0.162048
0.161992
0.161951
0.161858
0.161787
0.16168
0.161576
0.161469
0.161357
0.161239
0.161118
0.160999
0.160883
0.160766
0.16066
0.160562
0.160473
0.160392
0.16032
0.160258
0.160206
0.160166
0.160138
0.160117
0.160102
0.160076
0.160055
0.15997
0.159888
0.159791
0.159679
0.159557
0.159438
0.159319
0.159214
0.159124
0.159054
0.158997
0.158954
0.158925
0.158908
0.158904
0.158901
0.158892
0.158872
0.158873
0.158792
0.15874
0.158684
0.158615
0.158548
0.158475
0.158404
0.158331
0.158261
0.158193
0.158129
0.158069
0.158012
0.157958
0.157907
0.157857
0.157808
0.157761
0.157714
0.157668
0.157624
0.157581
0.15754
0.157501
0.157466
0.157436
0.157328
0.0366241
0.0365211
0.0364832
0.0362867
0.0361062
0.0357211
0.0351496
0.0345013
0.0338723
0.0334104
0.0331518
0.03294
0.0328047
0.0328101
0.032903
0.0330685
0.0333128
0.0336406
0.0340647
0.0345805
0.0351866
0.0359521
0.0368527
0.0379108
0.039133
0.040518
0.0420628
0.0437825
0.0457
0.0477673
0.0500701
0.0525673
0.0553141
0.0582539
0.0614509
0.0647859
0.0684589
0.0722613
0.0759167
0.0799506
0.083928
0.0877957
0.0917753
0.0957728
0.0997804
0.103765
0.107711
0.111571
0.115336
0.119041
0.122606
0.126135
0.129403
0.132658
0.135651
0.138615
0.141348
0.143954
0.146369
0.148563
0.150682
0.152523
0.154324
0.156041
0.157548
0.159034
0.160244
0.161438
0.162415
0.163381
0.164263
0.165059
0.165851
0.16656
0.167257
0.167887
0.168509
0.169189
0.169694
0.170218
0.171084
0.171741
0.172085
0.17243
0.173181
0.173677
0.173975
0.174181
0.174354
0.175316
0.17581
0.176011
0.17614
0.176243
0.177044
0.177462
0.177581
0.177686
0.178016
0.178247
0.178356
0.178432
0.178942
0.179221
0.179316
0.179402
0.179614
0.179752
0.17983
0.179885
0.179839
0.179728
0.179564
0.179452
0.17935
0.179453
0.179544
0.17963
0.179722
0.179809
0.179785
0.179667
0.179484
0.179352
0.179288
0.179236
0.179462
0.179626
0.179871
0.180111
0.180363
0.18059
0.180771
0.180918
0.180992
0.181004
0.180902
0.180766
0.180636
0.18052
0.180421
0.18035
0.180284
0.180258
0.180231
0.1802
0.180153
0.180115
0.180085
0.179998
0.179938
0.179836
0.179747
0.179649
0.179538
0.179436
0.179335
0.179249
0.179163
0.17909
0.179022
0.178973
0.178929
0.178898
0.178872
0.178855
0.178835
0.178816
0.178789
0.178774
0.178713
0.178668
0.178588
0.178507
0.178421
0.178329
0.178231
0.178128
0.178025
0.177925
0.177822
0.17773
0.177646
0.177572
0.177504
0.177447
0.177398
0.177359
0.177331
0.177316
0.177308
0.177307
0.177294
0.177283
0.177217
0.177142
0.177051
0.176945
0.176827
0.17671
0.176593
0.176485
0.176396
0.176327
0.176271
0.17623
0.176202
0.176188
0.176189
0.176188
0.176183
0.176166
0.176167
0.17609
0.176039
0.175982
0.17591
0.17584
0.175763
0.175686
0.175608
0.175532
0.175458
0.175388
0.175321
0.175258
0.175199
0.175141
0.175085
0.17503
0.174976
0.174924
0.174871
0.17482
0.174769
0.174722
0.174674
0.174632
0.174594
0.174481
0.0366677
0.0365664
0.0365001
0.0363325
0.0360646
0.0356563
0.0351058
0.0345145
0.0339677
0.0335138
0.0331601
0.0329599
0.032845
0.0328549
0.0329445
0.0331025
0.0333328
0.033643
0.0340376
0.0345391
0.0351582
0.035899
0.0367663
0.0377905
0.0389702
0.040311
0.0418123
0.043491
0.0453776
0.0474242
0.0497036
0.0521745
0.0549095
0.0578091
0.0610479
0.064376
0.0680412
0.0718835
0.0758699
0.0799401
0.084011
0.0881338
0.0922768
0.0964536
0.100618
0.104772
0.108898
0.112943
0.116905
0.12081
0.124559
0.128251
0.131666
0.135087
0.138223
0.141322
0.144165
0.146871
0.149357
0.151667
0.15384
0.155731
0.157635
0.159404
0.160989
0.162531
0.163778
0.165023
0.166032
0.167053
0.167968
0.16881
0.169652
0.170409
0.171153
0.171826
0.172505
0.173246
0.173807
0.174375
0.175309
0.176038
0.176452
0.176839
0.177639
0.178212
0.178585
0.178853
0.179041
0.180045
0.180639
0.180927
0.181126
0.181252
0.18208
0.182593
0.182795
0.182947
0.183313
0.183617
0.183791
0.183902
0.18446
0.184814
0.184984
0.18512
0.185375
0.185576
0.185711
0.185814
0.185814
0.185742
0.185622
0.185554
0.185499
0.18567
0.185825
0.185978
0.186128
0.186271
0.1863
0.186226
0.186086
0.186002
0.185994
0.186002
0.186289
0.18651
0.186815
0.187116
0.187419
0.187703
0.187926
0.188111
0.18822
0.188272
0.188199
0.188086
0.187988
0.187915
0.187851
0.187825
0.187803
0.187825
0.187833
0.18784
0.187829
0.187825
0.18782
0.187764
0.18773
0.18765
0.187584
0.187508
0.187421
0.187342
0.187265
0.187202
0.187141
0.187092
0.187048
0.187024
0.187005
0.187
0.186998
0.187009
0.187012
0.187018
0.187014
0.187023
0.18698
0.186955
0.18689
0.186827
0.186758
0.186682
0.186599
0.18651
0.186422
0.186336
0.186247
0.186169
0.186099
0.18604
0.185986
0.185942
0.185908
0.185884
0.18587
0.18587
0.185877
0.18589
0.18589
0.185891
0.185834
0.185766
0.185681
0.185581
0.185468
0.185355
0.185243
0.18514
0.185056
0.184994
0.184944
0.18491
0.184891
0.184884
0.184894
0.1849
0.184901
0.18489
0.184896
0.184823
0.184772
0.184718
0.184647
0.184576
0.1845
0.184423
0.184344
0.184268
0.184194
0.184123
0.184056
0.183993
0.183933
0.183875
0.183818
0.183763
0.183708
0.183655
0.183601
0.183549
0.183496
0.183448
0.183399
0.183355
0.183314
0.183198
0.036799
0.0366125
0.0365408
0.0362998
0.0359662
0.0355136
0.0349682
0.0343952
0.033852
0.0334466
0.0331542
0.0329552
0.0328459
0.0328541
0.0329357
0.0330899
0.0333074
0.0335994
0.033972
0.0344403
0.0350141
0.0357163
0.0365483
0.0375379
0.0386861
0.0400072
0.041488
0.0431522
0.0450242
0.0470544
0.0493269
0.0517688
0.05459
0.0574211
0.0607551
0.0642279
0.0680541
0.0719553
0.0761208
0.0803087
0.0845397
0.0888844
0.0932148
0.0976036
0.101962
0.106324
0.110647
0.114901
0.119083
0.12322
0.127154
0.131002
0.134532
0.138111
0.141385
0.144614
0.147544
0.150335
0.152838
0.155235
0.1574
0.159271
0.161233
0.162984
0.164604
0.166145
0.167366
0.168611
0.169591
0.170621
0.171507
0.172343
0.173182
0.173929
0.174667
0.175329
0.17601
0.176754
0.177336
0.177899
0.178825
0.179573
0.180034
0.180428
0.181203
0.181802
0.182222
0.182522
0.182719
0.183638
0.184276
0.184646
0.184889
0.18503
0.185782
0.186338
0.186615
0.186797
0.187149
0.187483
0.187701
0.187819
0.188364
0.188753
0.188978
0.18914
0.189396
0.189628
0.189788
0.189905
0.189922
0.189864
0.18976
0.189712
0.18967
0.189865
0.190053
0.19024
0.190416
0.190579
0.190633
0.190582
0.190471
0.190407
0.19043
0.190469
0.190779
0.191045
0.191389
0.191736
0.192071
0.192391
0.192645
0.192858
0.192991
0.19307
0.193021
0.192923
0.192844
0.192793
0.19275
0.192745
0.192747
0.192796
0.192828
0.192859
0.192873
0.192891
0.192914
0.192882
0.192868
0.192813
0.192769
0.192709
0.192638
0.192576
0.192516
0.192471
0.192429
0.192399
0.192375
0.19237
0.192371
0.192388
0.192407
0.192438
0.192459
0.192484
0.192497
0.192522
0.192495
0.192484
0.192431
0.192381
0.192325
0.19226
0.192189
0.192112
0.192036
0.191962
0.191884
0.191818
0.19176
0.191713
0.191671
0.191639
0.191616
0.191605
0.191603
0.191617
0.191636
0.19166
0.191672
0.191681
0.191632
0.19157
0.191492
0.191397
0.191289
0.191181
0.191074
0.190977
0.190899
0.190844
0.190801
0.190775
0.190762
0.190763
0.190781
0.190794
0.190801
0.190795
0.190806
0.190737
0.190687
0.190635
0.190567
0.190498
0.190424
0.190347
0.19027
0.190195
0.190122
0.190053
0.189987
0.189925
0.189866
0.189809
0.189753
0.189699
0.189645
0.189592
0.189538
0.189486
0.189434
0.189386
0.189336
0.189293
0.189251
0.189134
0.0368731
0.0366631
0.0365001
0.0361968
0.0357949
0.0353134
0.0347709
0.0342219
0.0337248
0.0333286
0.0330478
0.0328644
0.0327726
0.0327866
0.0328654
0.0330139
0.0332165
0.0334952
0.0338499
0.034297
0.034852
0.0355334
0.0363493
0.0373286
0.0384679
0.0397845
0.0412541
0.0429085
0.0447835
0.0468086
0.0491739
0.0515426
0.0544798
0.0575054
0.0609406
0.0645564
0.0685666
0.0725951
0.0769524
0.081298
0.0857421
0.0903967
0.0949156
0.0995556
0.104124
0.108769
0.113298
0.117809
0.122222
0.126608
0.130743
0.134715
0.138365
0.142116
0.145538
0.148891
0.151875
0.154727
0.15722
0.159691
0.161797
0.163633
0.165639
0.167326
0.168955
0.170455
0.171609
0.172816
0.173729
0.174737
0.175551
0.176348
0.177149
0.177852
0.17855
0.179179
0.179835
0.180543
0.181138
0.181661
0.182538
0.183266
0.183767
0.184149
0.184859
0.18545
0.185899
0.186216
0.186422
0.187196
0.18783
0.188288
0.188558
0.188711
0.189339
0.189891
0.190245
0.190441
0.190757
0.191101
0.19134
0.191469
0.191951
0.19235
0.192625
0.192795
0.193034
0.193274
0.193442
0.193551
0.193565
0.193508
0.193412
0.193372
0.193332
0.193527
0.193736
0.19394
0.19412
0.194282
0.194338
0.194299
0.194212
0.194159
0.194199
0.194257
0.194562
0.194868
0.195242
0.195614
0.195965
0.196307
0.19658
0.196812
0.196959
0.197055
0.197023
0.196937
0.19687
0.196832
0.196802
0.196807
0.196821
0.196883
0.19693
0.196976
0.197005
0.197035
0.197072
0.197058
0.197056
0.197014
0.196984
0.196942
0.196885
0.196837
0.196791
0.196759
0.196731
0.196715
0.196707
0.19672
0.196738
0.196771
0.196806
0.196853
0.196889
0.196926
0.196952
0.196984
0.196968
0.196966
0.196923
0.196882
0.196835
0.19678
0.196718
0.19665
0.196582
0.196516
0.196448
0.19639
0.196342
0.196303
0.19627
0.196248
0.196234
0.196232
0.196241
0.196264
0.196292
0.196326
0.196345
0.196363
0.19632
0.196263
0.19619
0.1961
0.195996
0.195892
0.195789
0.195696
0.195622
0.195573
0.195536
0.195515
0.195508
0.195516
0.195539
0.195557
0.19557
0.195568
0.195583
0.195518
0.195469
0.19542
0.195354
0.195286
0.195213
0.195138
0.195062
0.194988
0.194916
0.194848
0.194783
0.194722
0.194664
0.194608
0.194553
0.194499
0.194445
0.194393
0.19434
0.194288
0.194236
0.194188
0.194138
0.194095
0.194052
0.193935
0.0369283
0.0366608
0.0364164
0.0360403
0.0355877
0.0350951
0.0345517
0.0340125
0.0335482
0.0331841
0.0329245
0.0327564
0.0326811
0.0326979
0.0327727
0.0329191
0.0331122
0.033381
0.033724
0.0341571
0.0347012
0.0353745
0.036187
0.0371637
0.0382976
0.0396182
0.0410881
0.0427386
0.0446897
0.0466994
0.0491828
0.0517307
0.0547379
0.0579325
0.0615302
0.0653261
0.0695706
0.073772
0.0784025
0.0829483
0.0875743
0.092622
0.0972947
0.102202
0.106974
0.111958
0.116731
0.121524
0.126188
0.130716
0.135046
0.139057
0.142887
0.146798
0.150439
0.153931
0.156988
0.159884
0.162391
0.164945
0.166981
0.168752
0.170866
0.17246
0.174092
0.175554
0.176557
0.177738
0.178533
0.179535
0.180236
0.180979
0.181722
0.182348
0.182989
0.183569
0.184194
0.184831
0.185436
0.185936
0.186699
0.187351
0.187904
0.188281
0.188882
0.18941
0.189895
0.190217
0.19043
0.19103
0.191616
0.192154
0.192449
0.192614
0.193094
0.193605
0.194018
0.19422
0.194499
0.194825
0.19507
0.195216
0.195598
0.195982
0.19629
0.196462
0.196673
0.196899
0.197061
0.197142
0.197136
0.19707
0.196977
0.196937
0.196894
0.197068
0.19729
0.197502
0.197669
0.197806
0.197848
0.197813
0.197748
0.197699
0.197743
0.197816
0.198098
0.198444
0.198833
0.199214
0.199573
0.199928
0.200204
0.200445
0.200595
0.200698
0.200678
0.2006
0.20054
0.200508
0.200484
0.200494
0.200513
0.200578
0.200633
0.200686
0.200724
0.200757
0.200798
0.200797
0.200802
0.200766
0.200742
0.200708
0.200661
0.200624
0.200588
0.200567
0.20055
0.200546
0.200549
0.200571
0.200599
0.200642
0.200686
0.200742
0.200787
0.200836
0.200869
0.200908
0.200902
0.200907
0.20087
0.200835
0.200794
0.200745
0.200689
0.200627
0.200565
0.200505
0.200442
0.20039
0.200348
0.200315
0.200288
0.200272
0.200265
0.20027
0.200285
0.200316
0.200349
0.200389
0.200413
0.200438
0.200398
0.200344
0.200273
0.200186
0.200085
0.199984
0.199882
0.199791
0.199721
0.199675
0.199642
0.199625
0.199622
0.199634
0.19966
0.199681
0.199699
0.199699
0.199717
0.199655
0.199606
0.199558
0.199493
0.199425
0.199352
0.199278
0.199202
0.199128
0.199056
0.198988
0.198923
0.198862
0.198805
0.198749
0.198693
0.19864
0.198586
0.198533
0.19848
0.198428
0.198375
0.198326
0.198276
0.198232
0.198188
0.198072
0.0369281
0.0365947
0.0362883
0.0358591
0.0353827
0.0348799
0.0343125
0.033792
0.0333598
0.0330242
0.032786
0.0326378
0.0325788
0.0325997
0.0326755
0.032819
0.033012
0.0332746
0.0336119
0.0340384
0.0345819
0.0352562
0.0360666
0.0370455
0.0381779
0.0395078
0.0410357
0.0426902
0.0447492
0.0468901
0.0494613
0.0521867
0.0553569
0.0587715
0.0625904
0.0665969
0.0711833
0.0755402
0.080581
0.0852875
0.089942
0.0952747
0.100051
0.105185
0.110094
0.115318
0.120321
0.125359
0.13029
0.134837
0.139335
0.143452
0.147465
0.15165
0.155582
0.159315
0.162469
0.165518
0.168042
0.170716
0.172724
0.174519
0.176718
0.178219
0.17985
0.181265
0.182119
0.183262
0.183931
0.184912
0.185508
0.186225
0.18691
0.187476
0.188068
0.188617
0.189212
0.189783
0.19038
0.190857
0.191454
0.192042
0.192615
0.192982
0.193436
0.193896
0.194386
0.194693
0.194911
0.19533
0.195867
0.19644
0.196726
0.196913
0.19725
0.197701
0.198117
0.198326
0.198565
0.198853
0.19907
0.199233
0.199508
0.199866
0.200172
0.200345
0.200522
0.200716
0.200853
0.200885
0.200848
0.200769
0.200673
0.200622
0.200585
0.200722
0.200946
0.201148
0.201283
0.201378
0.201395
0.201364
0.201307
0.201269
0.201292
0.201391
0.201657
0.202018
0.202407
0.202787
0.203144
0.203502
0.203774
0.204013
0.204152
0.204253
0.204235
0.204164
0.204107
0.204074
0.204052
0.204059
0.204078
0.204138
0.204194
0.204248
0.204288
0.20432
0.204354
0.204361
0.204367
0.204331
0.204307
0.204276
0.204233
0.204202
0.204173
0.204157
0.204146
0.204147
0.204157
0.204183
0.204217
0.204263
0.204313
0.204373
0.204422
0.204475
0.204511
0.204554
0.204555
0.204565
0.204532
0.204499
0.204461
0.204415
0.204362
0.204302
0.204241
0.204185
0.204123
0.204074
0.204035
0.204004
0.20398
0.203967
0.203962
0.203971
0.203989
0.204025
0.20406
0.204101
0.204127
0.204155
0.204116
0.204063
0.203992
0.203906
0.203805
0.203704
0.203603
0.203511
0.203443
0.203398
0.203366
0.203349
0.203348
0.203362
0.203389
0.203411
0.203432
0.203431
0.20345
0.203389
0.203339
0.20329
0.203224
0.203156
0.203082
0.203006
0.20293
0.202854
0.202782
0.202712
0.202646
0.202584
0.202525
0.202468
0.202412
0.202357
0.202302
0.202248
0.202193
0.202139
0.202085
0.202035
0.201984
0.201938
0.201893
0.201774
0.0368762
0.0364729
0.0361291
0.0356731
0.035183
0.0346455
0.0340709
0.0335785
0.0331755
0.0328678
0.0326522
0.0325234
0.0324786
0.0325038
0.0325833
0.0327289
0.0329256
0.0331855
0.0335239
0.0339533
0.0344989
0.0351793
0.0359875
0.0369718
0.0381453
0.0394878
0.0411058
0.0428729
0.0450174
0.0473094
0.0500488
0.0529935
0.0563742
0.0600465
0.0642156
0.0681254
0.0728373
0.0771658
0.0822291
0.0873074
0.0921507
0.0977131
0.102792
0.108312
0.11352
0.119071
0.124389
0.129697
0.134944
0.139569
0.144169
0.148387
0.152277
0.156924
0.160884
0.164819
0.16815
0.171438
0.17405
0.176797
0.178808
0.180767
0.183043
0.184507
0.186201
0.187605
0.188345
0.189473
0.190091
0.191055
0.191584
0.192317
0.192911
0.193396
0.193946
0.194433
0.194979
0.195469
0.196024
0.19642
0.19688
0.197374
0.197946
0.198274
0.198624
0.199011
0.199475
0.199777
0.199974
0.200285
0.200717
0.201258
0.201563
0.201734
0.201973
0.202309
0.202701
0.202911
0.203104
0.203332
0.203516
0.203659
0.203858
0.204144
0.204431
0.204603
0.204736
0.20488
0.204963
0.204937
0.204854
0.204751
0.20465
0.204562
0.204545
0.204648
0.204847
0.205018
0.205111
0.205144
0.205136
0.205095
0.205036
0.205014
0.205018
0.205141
0.205405
0.205752
0.206123
0.206495
0.206842
0.207188
0.207442
0.20767
0.207795
0.207876
0.207861
0.207784
0.207729
0.207686
0.207667
0.207663
0.207679
0.207724
0.207773
0.207821
0.207857
0.207881
0.207905
0.207911
0.207913
0.207874
0.207844
0.207813
0.207772
0.207742
0.207715
0.207699
0.207689
0.207688
0.207699
0.207724
0.207757
0.207802
0.207851
0.20791
0.207957
0.20801
0.208042
0.208083
0.208088
0.208102
0.208067
0.208032
0.207994
0.207947
0.207892
0.207832
0.207769
0.207711
0.207649
0.207598
0.207558
0.207526
0.207501
0.207487
0.207482
0.207491
0.207508
0.207545
0.207578
0.207619
0.207643
0.207669
0.207628
0.207574
0.2075
0.207412
0.207308
0.207204
0.207101
0.207007
0.206938
0.206891
0.206858
0.20684
0.206838
0.206851
0.206876
0.206897
0.206918
0.206914
0.206931
0.20687
0.206817
0.206765
0.206697
0.206626
0.206549
0.206471
0.206392
0.206314
0.206238
0.206166
0.206097
0.206033
0.205971
0.205911
0.205852
0.205794
0.205737
0.20568
0.205622
0.205566
0.20551
0.205457
0.205403
0.205354
0.205307
0.205186
0.0367668
0.0363096
0.0359537
0.0354832
0.0349821
0.0344021
0.0338482
0.0333827
0.0330062
0.0327232
0.0325298
0.0324199
0.0323875
0.032418
0.0325038
0.0326553
0.0328571
0.0331236
0.0334714
0.0339026
0.0344494
0.0351398
0.0359721
0.0369686
0.0382116
0.0396593
0.0413302
0.0432359
0.0455298
0.0480083
0.0509222
0.054159
0.0577934
0.0611767
0.0654412
0.0691895
0.0739963
0.0784378
0.0835725
0.0891406
0.094485
0.100241
0.105896
0.111789
0.11768
0.123472
0.129295
0.134651
0.140226
0.144882
0.14952
0.153689
0.157752
0.162702
0.166212
0.170306
0.173608
0.177153
0.17992
0.182738
0.184921
0.187128
0.189562
0.191085
0.19291
0.194313
0.195122
0.196274
0.196981
0.19797
0.198503
0.199277
0.199772
0.200219
0.200734
0.201153
0.201643
0.202042
0.202533
0.20286
0.203177
0.20355
0.204079
0.204382
0.204619
0.204915
0.205318
0.205622
0.205762
0.205955
0.20627
0.206731
0.207045
0.207186
0.207319
0.207533
0.207856
0.20807
0.208217
0.208373
0.208526
0.208631
0.208752
0.208951
0.209199
0.209362
0.209444
0.209517
0.209526
0.209416
0.209289
0.209156
0.209041
0.208932
0.208904
0.208973
0.209134
0.209245
0.209285
0.209248
0.209198
0.209149
0.209094
0.209074
0.209071
0.209211
0.20946
0.209777
0.210113
0.210469
0.210791
0.211112
0.211336
0.211539
0.211633
0.211688
0.21167
0.211589
0.211527
0.211474
0.211444
0.21143
0.211428
0.211454
0.211489
0.211523
0.211547
0.211556
0.211564
0.211565
0.211557
0.211513
0.211475
0.211443
0.211401
0.211367
0.211336
0.211314
0.211298
0.211291
0.211293
0.21131
0.211335
0.211373
0.211414
0.211464
0.211504
0.21155
0.211576
0.211609
0.211613
0.211624
0.211583
0.211544
0.211501
0.211447
0.211388
0.211322
0.211254
0.21119
0.211122
0.211066
0.211021
0.210985
0.210955
0.210937
0.210928
0.210933
0.210946
0.210979
0.211007
0.211043
0.211061
0.211082
0.211035
0.210975
0.210896
0.210803
0.210695
0.210586
0.210478
0.210379
0.210306
0.210255
0.210218
0.210197
0.210191
0.2102
0.210221
0.210236
0.210256
0.210247
0.210258
0.210194
0.210138
0.21008
0.210008
0.209932
0.209851
0.209768
0.209685
0.209602
0.209522
0.209446
0.209372
0.209303
0.209238
0.209173
0.20911
0.209048
0.208986
0.208925
0.208864
0.208804
0.208743
0.208686
0.208628
0.208576
0.208524
0.2084
0.0365981
0.0361135
0.0357655
0.0352919
0.0347751
0.0341784
0.0336545
0.0332106
0.032858
0.0325975
0.0324247
0.0323314
0.0323099
0.0323484
0.0324436
0.0326034
0.0328143
0.0330922
0.0334495
0.0338842
0.0344427
0.0351583
0.0360419
0.0371209
0.0383948
0.0399728
0.041738
0.0438062
0.0462512
0.0489865
0.0520474
0.0549915
0.0587947
0.0619344
0.0661658
0.0699835
0.0746889
0.0795334
0.0846205
0.090612
0.0966938
0.10263
0.109302
0.115327
0.122249
0.128217
0.134793
0.139975
0.14577
0.150253
0.154759
0.158794
0.163115
0.168126
0.171458
0.175531
0.178585
0.182171
0.184942
0.187958
0.190442
0.192825
0.195611
0.197189
0.199161
0.20056
0.201667
0.202955
0.203859
0.204924
0.205586
0.206479
0.206986
0.20751
0.208085
0.208509
0.209017
0.209383
0.209833
0.210132
0.210384
0.210636
0.211081
0.211352
0.21155
0.211748
0.212061
0.212318
0.212443
0.212533
0.212698
0.213022
0.213302
0.213443
0.213485
0.213562
0.213773
0.213978
0.214083
0.214151
0.214251
0.214307
0.214331
0.214427
0.214597
0.214733
0.214752
0.214737
0.214623
0.214447
0.214269
0.214113
0.213987
0.213877
0.213823
0.213844
0.213947
0.213981
0.213937
0.213834
0.213742
0.213673
0.213629
0.213608
0.213607
0.213739
0.213952
0.214227
0.214514
0.214835
0.215118
0.215399
0.215578
0.21574
0.215794
0.215806
0.215784
0.215706
0.215633
0.215568
0.215516
0.215479
0.21545
0.215445
0.215453
0.215464
0.215468
0.215454
0.215442
0.21543
0.215411
0.215361
0.215315
0.215268
0.215213
0.215166
0.215122
0.215087
0.215059
0.21504
0.215029
0.215029
0.215038
0.21506
0.215085
0.21512
0.215145
0.21518
0.215193
0.215216
0.215211
0.215214
0.215161
0.215111
0.215057
0.214993
0.214923
0.214847
0.214769
0.214696
0.214619
0.214554
0.2145
0.214454
0.214415
0.214389
0.214372
0.214369
0.214374
0.2144
0.214418
0.214446
0.214452
0.214464
0.214407
0.214339
0.214252
0.214151
0.214035
0.213918
0.213803
0.213696
0.213618
0.21356
0.213516
0.213488
0.213477
0.213479
0.213491
0.2135
0.213514
0.213497
0.2135
0.213432
0.21337
0.213304
0.213226
0.213143
0.213055
0.212966
0.212876
0.212788
0.212701
0.212619
0.212539
0.212464
0.212392
0.212322
0.212252
0.212184
0.212117
0.21205
0.211983
0.211917
0.211851
0.211788
0.211725
0.211668
0.21161
0.21148
0.0363894
0.0359003
0.0355696
0.0351055
0.0345642
0.0339852
0.0334885
0.0330657
0.0327352
0.0324955
0.0323405
0.032261
0.0322502
0.0322995
0.0324079
0.0325795
0.032803
0.0330836
0.0334556
0.0339153
0.0345128
0.03529
0.0362029
0.0373854
0.0387278
0.0404321
0.0423052
0.0445761
0.0471561
0.0497551
0.0529202
0.0554771
0.0592413
0.0621602
0.0664549
0.0699502
0.0748395
0.0790002
0.0848679
0.0898225
0.0967104
0.102519
0.10931
0.115546
0.12311
0.128894
0.136183
0.142103
0.148935
0.153808
0.159196
0.16359
0.167938
0.17324
0.176447
0.180275
0.18306
0.186495
0.188989
0.192137
0.194684
0.197373
0.200403
0.202226
0.204383
0.205783
0.207267
0.20881
0.209913
0.211107
0.211944
0.212974
0.213652
0.214331
0.215078
0.215612
0.216216
0.216673
0.217167
0.217521
0.217853
0.218099
0.218466
0.218774
0.219068
0.219253
0.219487
0.219729
0.219898
0.219963
0.220001
0.220151
0.220385
0.220544
0.220543
0.220484
0.220569
0.220727
0.220788
0.220793
0.220819
0.220821
0.220745
0.220717
0.220783
0.220865
0.220797
0.220688
0.22045
0.220221
0.220032
0.219901
0.219782
0.219657
0.219553
0.219481
0.219471
0.219378
0.219231
0.219065
0.218932
0.21886
0.218835
0.218802
0.218785
0.218865
0.21902
0.219227
0.219446
0.219715
0.219939
0.22016
0.220285
0.220389
0.220386
0.220351
0.220341
0.220282
0.22019
0.220108
0.220027
0.219948
0.219873
0.219824
0.21979
0.219767
0.219741
0.219698
0.219667
0.219639
0.219601
0.219531
0.219457
0.219383
0.219304
0.219233
0.219165
0.219105
0.219054
0.219014
0.218982
0.218964
0.218951
0.218948
0.21895
0.21896
0.218965
0.218982
0.218978
0.218981
0.218954
0.21894
0.218868
0.218801
0.21873
0.218648
0.218562
0.218471
0.218377
0.218289
0.218197
0.218118
0.218049
0.217989
0.217937
0.217898
0.217868
0.217853
0.217846
0.217859
0.217864
0.217878
0.217867
0.217867
0.217795
0.217717
0.217618
0.217506
0.21738
0.217252
0.217128
0.217012
0.216924
0.216857
0.216803
0.216766
0.216746
0.216738
0.216739
0.216737
0.216743
0.216714
0.216707
0.216632
0.216562
0.216486
0.216399
0.216308
0.216212
0.216114
0.216016
0.215919
0.215825
0.215734
0.215646
0.215563
0.215483
0.215404
0.215327
0.215252
0.215177
0.215102
0.215028
0.214955
0.214882
0.214812
0.214742
0.214678
0.214613
0.214476
0.0361557
0.0356839
0.0353786
0.0349252
0.0343707
0.0338274
0.0333519
0.0329508
0.0326409
0.03242
0.0322803
0.0322129
0.0322134
0.0322766
0.0324002
0.0325851
0.032813
0.0331179
0.0335296
0.034025
0.0346523
0.0355065
0.0364726
0.0377615
0.0392095
0.0410339
0.0429532
0.0453402
0.047949
0.0501661
0.0533258
0.0555978
0.0590883
0.0620783
0.0655797
0.0694124
0.0732445
0.0777321
0.0817388
0.0871488
0.0928715
0.0987145
0.105924
0.111846
0.11912
0.125931
0.133611
0.139393
0.146314
0.15176
0.158282
0.16338
0.169114
0.174851
0.178913
0.183339
0.186715
0.190204
0.192629
0.195662
0.197957
0.20086
0.20373
0.205905
0.208292
0.209889
0.211566
0.213441
0.21471
0.216076
0.217052
0.218193
0.219065
0.219957
0.220833
0.221525
0.222251
0.222842
0.223436
0.22392
0.224397
0.224741
0.225156
0.225556
0.226036
0.226335
0.226655
0.226965
0.227298
0.227455
0.227526
0.227598
0.227847
0.228082
0.22813
0.22807
0.228058
0.228144
0.228212
0.228224
0.228188
0.22814
0.227995
0.227861
0.227806
0.227775
0.227626
0.227454
0.227141
0.22694
0.226779
0.226645
0.226525
0.226412
0.226279
0.226042
0.225864
0.2256
0.22534
0.225141
0.225016
0.224932
0.224885
0.224852
0.224788
0.224768
0.224808
0.224904
0.225024
0.225206
0.225345
0.225478
0.225531
0.225558
0.22549
0.225433
0.225412
0.225357
0.225238
0.225128
0.225023
0.224919
0.224812
0.224714
0.224631
0.224565
0.22451
0.224435
0.224364
0.224296
0.224212
0.224105
0.223988
0.223876
0.223761
0.223653
0.223549
0.223455
0.223369
0.223295
0.223232
0.223183
0.223144
0.223115
0.223092
0.223075
0.22305
0.223039
0.223001
0.222972
0.222917
0.222877
0.222778
0.222686
0.222589
0.222482
0.222373
0.222259
0.222143
0.222033
0.221919
0.221819
0.22173
0.221649
0.221577
0.221519
0.221471
0.221438
0.221414
0.221408
0.221395
0.221391
0.221357
0.221338
0.22125
0.221156
0.221042
0.220916
0.220776
0.220636
0.220498
0.220369
0.220269
0.220188
0.220122
0.220072
0.220039
0.220018
0.220004
0.219988
0.219983
0.219939
0.219917
0.219834
0.219755
0.219666
0.219568
0.219465
0.219359
0.21925
0.219142
0.219035
0.21893
0.218828
0.218731
0.218637
0.218547
0.218459
0.218373
0.218288
0.218203
0.218119
0.218036
0.217954
0.217872
0.217793
0.217716
0.217644
0.217568
0.217422
0.0359099
0.0354797
0.0351985
0.0347518
0.0342071
0.0337039
0.0332477
0.032868
0.0325775
0.0323735
0.0322476
0.0321915
0.0322023
0.0322844
0.0324271
0.0326325
0.0328831
0.033202
0.0336517
0.0342002
0.0348674
0.03581
0.0368593
0.0382419
0.0398071
0.0417155
0.0436101
0.0457946
0.0484798
0.0503535
0.0533423
0.0554512
0.0587376
0.0610222
0.064783
0.0673254
0.0708265
0.0739496
0.0778321
0.081554
0.0853903
0.089743
0.0943447
0.0998848
0.10667
0.113629
0.122351
0.130118
0.138353
0.145054
0.153592
0.160457
0.167587
0.173113
0.177918
0.182986
0.186765
0.191014
0.194533
0.197973
0.200538
0.203638
0.206171
0.20847
0.211069
0.212855
0.214729
0.216868
0.218245
0.219815
0.22092
0.222187
0.223179
0.224289
0.225261
0.226079
0.226903
0.227585
0.228266
0.228838
0.229422
0.22987
0.230369
0.230836
0.231424
0.231887
0.232355
0.232771
0.233271
0.233567
0.233811
0.233999
0.234281
0.234648
0.234864
0.235029
0.235128
0.235238
0.235442
0.235603
0.235654
0.235679
0.235587
0.235464
0.235365
0.235275
0.235132
0.234984
0.234697
0.234459
0.234237
0.234046
0.233879
0.233737
0.233648
0.233361
0.233056
0.232673
0.232361
0.232106
0.231887
0.231726
0.231618
0.23155
0.231519
0.231392
0.231305
0.231254
0.231245
0.2313
0.231327
0.231348
0.231297
0.231241
0.231144
0.231089
0.231029
0.230967
0.230811
0.230666
0.230523
0.230375
0.23023
0.230095
0.22997
0.229858
0.229754
0.229632
0.229508
0.229389
0.229253
0.229101
0.228933
0.228775
0.228616
0.228464
0.228318
0.22818
0.228054
0.22794
0.227838
0.227751
0.227675
0.227611
0.227552
0.227499
0.227439
0.227393
0.227316
0.227251
0.22716
0.227088
0.226956
0.226832
0.226702
0.226565
0.226424
0.226281
0.226135
0.225996
0.225854
0.225726
0.225609
0.225501
0.225402
0.225318
0.225245
0.225188
0.22514
0.225112
0.225074
0.225046
0.224985
0.224942
0.224832
0.224718
0.224585
0.224439
0.224281
0.224123
0.223968
0.223821
0.223704
0.223605
0.223521
0.223454
0.223404
0.223364
0.223332
0.223299
0.223278
0.223216
0.223177
0.223082
0.222991
0.222886
0.222773
0.222656
0.222535
0.222413
0.222292
0.222172
0.222054
0.221939
0.221829
0.221723
0.221621
0.22152
0.221422
0.221325
0.221229
0.221134
0.221039
0.220946
0.220855
0.220765
0.220677
0.220596
0.220507
0.220351
0.0356765
0.035295
0.0350358
0.0345837
0.0340816
0.0336108
0.0331774
0.032819
0.0325481
0.0323578
0.0322448
0.0322036
0.0322296
0.032353
0.0325002
0.0327044
0.0329798
0.0333356
0.033839
0.0344382
0.0351702
0.0362092
0.0373416
0.0387901
0.0404632
0.0424419
0.044296
0.0462304
0.0487983
0.0504374
0.0531775
0.0551834
0.0577634
0.0603664
0.0624341
0.0649651
0.0672923
0.0694607
0.0714579
0.0731616
0.0749534
0.0763522
0.0780294
0.0797665
0.0823542
0.0859867
0.0909989
0.0988929
0.109293
0.119768
0.13283
0.144874
0.155793
0.163964
0.17177
0.179246
0.18473
0.189962
0.193858
0.197842
0.200954
0.204638
0.207402
0.210031
0.212818
0.214824
0.217171
0.219383
0.22079
0.222557
0.223751
0.225159
0.226249
0.227552
0.2286
0.22952
0.230437
0.231162
0.231907
0.232521
0.233177
0.233698
0.234262