/*--------------------------------*- C++ -*----------------------------------*\
| =========                 |                                                 |
| \\      /  F ield         | OpenFOAM: The Open Source CFD Toolbox           |
|  \\    /   O peration     | Version:  2312                                  |
|   \\  /    A nd           | Website:  www.openfoam.com                      |
|    \\/     M anipulation  |                                                 |
\*---------------------------------------------------------------------------*/
FoamFile
{
    version     2.0;
    format      ascii;
    arch        "LSB;label=32;scalar=64";
    class       volScalarField;
    location    "0.003";
    object      T;
}
// * * * * * * * * * * * * * * * * * * * * * * * * * * * * * * * * * * * * * //

dimensions      [0 0 0 1 0 0 0];

internalField   nonuniform List<scalar> 
48128
(
225.402
225.468
225.663
225.827
225.848
225.858
225.874
225.7
225.207
224.352
223.339
222.373
221.414
220.593
219.986
219.47
219.039
218.716
218.506
218.418
218.539
218.879
219.451
220.209
221.189
222.393
223.802
225.375
227.07
228.964
231.045
233.307
235.716
238.217
240.726
243.225
245.642
247.975
250.302
251.98
253.371
257.434
258.337
259.082
259.774
260.352
260.807
261.153
261.447
261.65
261.802
261.862
261.968
261.996
262.01
261.936
261.848
261.706
261.561
261.443
261.267
261.194
261.148
261.097
261.066
260.962
260.901
260.822
260.796
260.798
260.828
260.899
260.996
261.106
261.257
261.424
261.633
261.842
262.023
262.316
262.776
262.993
263.172
263.409
263.891
264.136
264.314
264.438
264.708
265.443
265.74
265.951
266.093
266.345
267.037
267.325
267.56
267.774
268.182
268.451
268.68
268.932
269.504
269.826
270.1
270.356
270.717
271.014
271.271
271.517
271.722
271.908
272.125
272.387
272.731
273.187
273.581
273.943
274.283
274.593
274.851
275.073
275.297
275.591
275.91
276.235
276.779
277.198
277.668
278.069
278.461
278.794
279.099
279.386
279.652
279.881
280.061
280.259
280.489
280.725
280.973
281.241
281.502
281.793
282.071
282.34
282.605
282.874
283.122
283.355
283.601
283.822
284.05
284.266
284.481
284.699
284.921
285.147
285.371
285.608
285.84
286.086
286.337
286.592
286.84
287.093
287.338
287.576
287.81
288.026
288.236
288.441
288.63
288.816
288.993
289.164
289.33
289.493
289.656
289.819
289.983
290.15
290.319
290.496
290.674
290.858
291.044
291.235
291.429
291.632
291.832
292.026
292.211
292.369
292.523
292.661
292.778
292.887
292.994
293.101
293.216
293.332
293.46
293.598
293.746
293.902
294.064
294.232
294.406
294.566
294.719
294.869
294.995
295.108
295.23
295.341
295.439
295.54
295.634
295.728
295.823
295.918
296.016
296.114
296.214
296.316
296.418
296.521
296.622
296.724
296.824
296.925
297.023
297.123
297.219
297.319
297.414
297.515
297.602
297.665
225.303
225.381
225.441
225.422
225.318
225.161
224.769
223.978
222.708
221.091
219.506
218.037
216.646
215.511
214.691
214.056
213.584
213.289
213.185
213.303
213.609
214.144
214.899
215.908
217.182
218.717
220.501
222.523
224.814
227.296
229.879
232.565
235.285
238.054
240.703
243.383
245.809
247.65
250.658
252.083
253.395
254.888
255.83
256.478
256.992
257.353
257.577
257.678
257.639
257.47
257.247
256.915
256.634
256.324
256.013
255.656
255.282
254.881
254.476
254.074
253.64
253.277
252.954
252.64
252.338
251.99
251.66
251.326
251.019
250.75
250.503
250.291
250.111
249.954
249.819
249.706
249.637
249.6
249.525
249.493
249.714
249.716
249.652
249.601
249.85
249.865
249.821
249.749
249.663
250.17
250.239
250.23
250.196
250.136
250.608
250.692
250.707
250.716
250.898
250.958
250.984
250.994
251.343
251.452
251.526
251.596
251.757
251.848
251.926
251.982
252.009
251.991
251.984
252.015
252.061
252.29
252.46
252.637
252.813
252.959
253.076
253.139
253.192
253.291
253.429
253.588
253.951
254.204
254.525
254.817
255.089
255.346
255.572
255.762
255.916
256.045
256.12
256.189
256.284
256.401
256.519
256.681
256.833
257.027
257.189
257.351
257.507
257.668
257.812
257.947
258.089
258.213
258.343
258.463
258.582
258.708
258.839
258.978
259.119
259.27
259.423
259.588
259.756
259.929
260.101
260.276
260.444
260.609
260.77
260.921
261.052
261.186
261.304
261.422
261.535
261.642
261.746
261.848
261.953
262.058
262.167
262.281
262.399
262.523
262.65
262.785
262.924
263.069
263.22
263.38
263.537
263.689
263.832
263.957
264.057
264.154
264.236
264.308
264.378
264.453
264.533
264.625
264.726
264.836
264.96
265.092
265.231
265.376
265.525
265.664
265.795
265.922
266.036
266.119
266.218
266.311
266.392
266.477
266.556
266.637
266.719
266.803
266.889
266.976
267.066
267.157
267.249
267.343
267.436
267.529
267.622
267.714
267.806
267.898
267.989
268.083
268.175
268.271
268.357
268.403
225.201
225.176
225.123
225.004
224.848
224.526
223.884
222.834
221.441
219.886
218.295
216.884
215.619
214.616
213.939
213.433
213.102
212.954
212.991
213.212
213.637
214.295
215.194
216.351
217.776
219.452
221.335
223.394
225.624
228.012
230.484
233.085
235.625
238.393
240.654
243.194
245.51
247.115
248.896
250.182
251.255
252.123
252.713
253.09
253.335
253.435
253.4
253.252
252.986
252.609
252.198
251.72
251.326
250.947
250.568
250.154
249.736
249.302
248.879
248.449
247.998
247.625
247.299
246.982
246.672
246.31
245.97
245.629
245.315
245.039
244.778
244.55
244.346
244.16
243.993
243.845
243.736
243.651
243.526
243.436
243.59
243.53
243.409
243.305
243.477
243.432
243.332
243.193
243.06
243.476
243.474
243.403
243.3
243.193
243.569
243.582
243.531
243.489
243.592
243.589
243.545
243.5
243.765
243.803
243.805
243.811
243.896
243.92
243.927
243.916
243.881
243.801
243.738
243.702
243.682
243.828
243.916
244.007
244.097
244.164
244.206
244.203
244.193
244.221
244.283
244.353
244.638
244.817
245.06
245.275
245.478
245.665
245.83
245.967
246.073
246.149
246.182
246.206
246.249
246.304
246.367
246.458
246.544
246.668
246.775
246.878
246.979
247.085
247.189
247.275
247.373
247.456
247.546
247.626
247.703
247.788
247.876
247.973
248.071
248.179
248.289
248.412
248.536
248.666
248.796
248.927
249.054
249.179
249.3
249.411
249.509
249.608
249.693
249.778
249.859
249.934
250.007
250.079
250.153
250.228
250.307
250.391
250.479
250.574
250.673
250.779
250.889
251.006
251.128
251.26
251.389
251.515
251.632
251.733
251.815
251.89
251.954
252.009
252.061
252.119
252.181
252.255
252.339
252.43
252.535
252.648
252.768
252.895
253.025
253.147
253.263
253.375
253.477
253.548
253.635
253.717
253.788
253.864
253.934
254.007
254.08
254.155
254.232
254.311
254.393
254.476
254.56
254.645
254.73
254.816
254.902
254.987
255.073
255.159
255.244
255.332
255.418
255.509
255.592
255.633
224.92
224.912
224.791
224.659
224.43
223.947
223.149
222.094
220.785
219.32
217.846
216.517
215.364
214.465
213.886
213.468
213.24
213.19
213.31
213.614
214.124
214.863
215.835
217.04
218.463
220.081
221.887
223.853
225.959
228.224
230.504
233.087
235.1
237.977
239.798
241.643
243.35
244.764
246.05
246.991
247.714
248.177
248.402
248.476
248.416
248.246
247.957
247.576
247.071
246.506
245.928
245.345
244.875
244.483
244.102
243.676
243.281
242.875
242.52
242.166
241.789
241.509
241.3
241.081
240.867
240.578
240.319
240.059
239.829
239.635
239.447
239.288
239.143
239.013
238.894
238.792
238.724
238.67
238.567
238.487
238.647
238.599
238.486
238.394
238.549
238.512
238.42
238.283
238.16
238.521
238.524
238.46
238.351
238.247
238.562
238.567
238.508
238.463
238.531
238.516
238.455
238.399
238.63
238.645
238.629
238.617
238.667
238.671
238.654
238.621
238.565
238.47
238.393
238.338
238.301
238.419
238.477
238.534
238.583
238.614
238.623
238.591
238.556
238.554
238.584
238.627
238.862
239.002
239.199
239.366
239.525
239.669
239.792
239.891
239.964
240.011
240.02
240.017
240.037
240.065
240.1
240.159
240.213
240.303
240.375
240.446
240.515
240.586
240.654
240.711
240.775
240.824
240.882
240.937
240.99
241.049
241.11
241.18
241.251
241.33
241.412
241.506
241.6
241.701
241.8
241.903
242.003
242.101
242.195
242.285
242.361
242.436
242.5
242.565
242.625
242.68
242.733
242.784
242.839
242.894
242.952
243.017
243.084
243.159
243.237
243.323
243.414
243.511
243.614
243.725
243.834
243.942
244.042
244.127
244.195
244.256
244.307
244.349
244.389
244.435
244.484
244.545
244.615
244.693
244.784
244.882
244.988
245.102
245.218
245.328
245.432
245.534
245.624
245.689
245.766
245.841
245.904
245.972
246.035
246.1
246.167
246.235
246.305
246.377
246.452
246.528
246.605
246.684
246.763
246.843
246.923
247.003
247.083
247.164
247.244
247.327
247.408
247.494
247.574
247.614
224.682
224.623
224.493
224.362
224.02
223.404
222.616
221.632
220.341
218.923
217.555
216.362
215.349
214.568
214.079
213.757
213.61
213.615
213.783
214.122
214.648
215.377
216.308
217.434
218.755
220.265
221.954
223.799
225.73
227.904
229.632
232.321
233.859
235.724
237.232
238.63
239.913
240.905
241.767
242.253
242.508
242.672
242.457
242.233
241.825
241.439
240.89
240.335
239.591
238.893
238.214
237.58
237.089
236.758
236.444
236.055
235.754
235.428
235.193
234.97
234.701
234.557
234.524
234.432
234.372
234.184
234.05
233.928
233.823
233.767
233.693
233.655
233.611
233.577
233.548
233.527
233.534
233.548
233.501
233.468
233.657
233.658
233.59
233.544
233.707
233.714
233.665
233.57
233.49
233.799
233.852
233.824
233.748
233.675
233.936
233.971
233.934
233.91
233.968
233.968
233.92
233.882
234.081
234.105
234.098
234.094
234.132
234.14
234.12
234.088
234.032
233.945
233.874
233.819
233.784
233.891
233.943
233.986
234.015
234.032
234.033
233.992
233.953
233.942
233.955
234
234.199
234.319
234.485
234.625
234.758
234.875
234.972
235.047
235.099
235.131
235.128
235.111
235.119
235.134
235.156
235.198
235.237
235.308
235.363
235.415
235.466
235.517
235.567
235.608
235.651
235.682
235.721
235.754
235.786
235.828
235.87
235.922
235.973
236.033
236.094
236.165
236.236
236.316
236.393
236.476
236.557
236.637
236.714
236.793
236.856
236.916
236.966
237.017
237.063
237.104
237.143
237.181
237.222
237.264
237.308
237.358
237.412
237.473
237.537
237.609
237.685
237.769
237.858
237.955
238.05
238.144
238.231
238.305
238.363
238.413
238.454
238.488
238.519
238.556
238.597
238.648
238.709
238.778
238.858
238.947
239.043
239.145
239.251
239.352
239.448
239.541
239.623
239.683
239.753
239.821
239.879
239.941
239.999
240.059
240.12
240.183
240.248
240.315
240.384
240.456
240.528
240.602
240.677
240.752
240.827
240.903
240.979
241.056
241.133
241.212
241.29
241.372
241.448
241.488
224.379
224.336
224.236
224.034
223.592
222.944
222.215
221.175
219.939
218.647
217.427
216.366
215.478
214.81
214.387
214.111
213.992
214.008
214.172
214.488
214.966
215.611
216.434
217.44
218.636
220.024
221.555
223.287
224.745
226.832
228.103
229.702
230.976
232.194
233.204
233.973
234.731
235.079
235.464
235.453
235.164
235.135
234.499
234.116
233.323
232.807
232.111
231.471
230.708
229.967
229.335
228.748
228.265
228.102
227.82
227.564
227.317
227.148
227.005
226.962
226.815
226.797
227.004
226.988
227.17
227.088
227.095
227.18
227.178
227.328
227.352
227.5
227.562
227.647
227.734
227.811
227.914
228.015
228.049
228.086
228.298
228.389
228.4
228.429
228.607
228.69
228.709
228.688
228.668
228.924
229.057
229.083
229.064
229.041
229.245
229.345
229.352
229.369
229.433
229.466
229.456
229.454
229.616
229.683
229.706
229.729
229.77
229.8
229.792
229.78
229.74
229.677
229.631
229.591
229.577
229.678
229.739
229.779
229.803
229.821
229.83
229.795
229.767
229.765
229.776
229.832
230.006
230.117
230.269
230.392
230.508
230.61
230.695
230.757
230.8
230.828
230.825
230.805
230.81
230.822
230.84
230.874
230.907
230.968
231.014
231.058
231.101
231.141
231.186
231.218
231.251
231.273
231.301
231.325
231.346
231.374
231.403
231.441
231.479
231.524
231.573
231.632
231.69
231.757
231.822
231.893
231.961
232.029
232.095
232.162
232.216
232.267
232.307
232.348
232.385
232.418
232.448
232.477
232.509
232.543
232.579
232.62
232.665
232.717
232.772
232.835
232.902
232.977
233.057
233.145
233.23
233.315
233.394
233.459
233.51
233.554
233.589
233.618
233.644
233.675
233.711
233.756
233.811
233.875
233.948
234.03
234.119
234.215
234.313
234.407
234.497
234.585
234.662
234.718
234.784
234.848
234.902
234.961
235.016
235.072
235.13
235.19
235.252
235.315
235.382
235.45
235.519
235.59
235.662
235.734
235.807
235.88
235.953
236.028
236.102
236.179
236.255
236.335
236.41
236.448
224.03
224.049
223.942
223.675
223.173
222.569
221.802
220.798
219.645
218.48
217.394
216.443
215.65
215.064
214.669
214.404
214.275
214.265
214.38
214.619
214.981
215.5
216.195
217.072
218.12
219.396
220.515
222.074
223.009
224.165
225.071
225.92
226.452
226.735
226.922
226.667
226.868
226.344
226.398
226.042
225.519
225.504
224.748
224.401
223.69
223.247
222.537
221.992
221.404
220.792
220.163
219.556
218.912
218.986
218.595
218.558
218.283
218.349
218.19
218.41
218.431
218.392
218.941
218.946
219.477
219.591
219.599
220.029
220.087
220.478
220.579
220.908
221.079
221.233
221.436
221.591
221.795
221.966
222.107
222.234
222.46
222.629
222.78
222.898
223.096
223.253
223.385
223.453
223.5
223.743
223.917
224.043
224.1
224.135
224.317
224.466
224.558
224.624
224.717
224.799
224.849
224.888
225.03
225.147
225.223
225.282
225.344
225.397
225.421
225.44
225.428
225.408
225.399
225.391
225.398
225.504
225.58
225.632
225.666
225.689
225.717
225.7
225.704
225.721
225.75
225.801
225.969
226.082
226.221
226.337
226.448
226.544
226.624
226.687
226.737
226.763
226.779
226.763
226.775
226.792
226.813
226.846
226.881
226.937
226.982
227.026
227.067
227.107
227.15
227.181
227.214
227.233
227.259
227.28
227.297
227.318
227.342
227.371
227.403
227.441
227.485
227.536
227.587
227.65
227.709
227.773
227.836
227.899
227.959
228.016
228.067
228.113
228.145
228.182
228.214
228.243
228.27
228.295
228.323
228.353
228.385
228.422
228.462
228.51
228.561
228.62
228.683
228.753
228.828
228.91
228.99
229.07
229.144
229.205
229.253
229.294
229.326
229.355
229.378
229.408
229.441
229.485
229.537
229.598
229.668
229.746
229.832
229.924
230.018
230.109
230.195
230.279
230.353
230.409
230.473
230.535
230.589
230.645
230.699
230.755
230.812
230.87
230.931
230.993
231.058
231.125
231.194
231.263
231.334
231.405
231.477
231.549
231.621
231.695
231.769
231.844
231.92
231.999
232.073
232.113
223.692
223.714
223.608
223.295
222.774
222.182
221.436
220.482
219.433
218.381
217.395
216.528
215.812
215.266
214.872
214.588
214.415
214.336
214.35
214.45
214.678
215.058
215.613
216.368
217.068
218.159
218.77
219.504
220.017
220.352
220.369
220.113
219.598
218.59
218.325
217.124
217.173
216.153
216.242
215.72
214.823
214.582
213.588
213.114
212.524
211.959
211.458
210.915
210.582
210.061
209.866
209.689
209.09
209.672
208.957
209.326
208.797
209.311
208.974
209.582
209.701
209.774
210.506
210.517
211.287
211.55
211.613
212.252
212.44
212.966
213.202
213.659
213.958
214.235
214.562
214.839
215.145
215.418
215.687
215.927
216.194
216.443
216.719
216.936
217.164
217.391
217.623
217.783
217.916
218.14
218.367
218.589
218.734
218.852
219.021
219.236
219.404
219.548
219.69
219.829
219.944
220.047
220.182
220.356
220.486
220.593
220.693
220.781
220.852
220.906
220.946
220.988
221.027
221.067
221.089
221.221
221.32
221.387
221.439
221.479
221.524
221.551
221.601
221.63
221.688
221.739
221.908
222.026
222.159
222.278
222.392
222.493
222.58
222.654
222.711
222.752
222.796
222.799
222.824
222.852
222.878
222.921
222.96
223.018
223.07
223.12
223.167
223.214
223.257
223.299
223.333
223.357
223.385
223.407
223.424
223.444
223.466
223.496
223.528
223.567
223.61
223.662
223.714
223.776
223.835
223.9
223.962
224.025
224.087
224.142
224.192
224.234
224.267
224.302
224.335
224.364
224.392
224.417
224.446
224.476
224.508
224.546
224.587
224.635
224.686
224.744
224.806
224.876
224.95
225.032
225.11
225.189
225.262
225.322
225.37
225.412
225.445
225.476
225.501
225.533
225.567
225.612
225.665
225.726
225.796
225.874
225.958
226.049
226.142
226.232
226.318
226.4
226.475
226.533
226.597
226.66
226.714
226.772
226.827
226.883
226.941
227
227.062
227.125
227.191
227.258
227.327
227.397
227.469
227.541
227.613
227.686
227.759
227.833
227.908
227.984
228.061
228.14
228.215
228.257
223.358
223.34
223.23
222.884
222.408
221.856
221.12
220.233
219.276
218.313
217.406
216.602
215.929
215.394
214.974
214.638
214.381
214.182
214.038
214
214.088
214.317
214.617
215.153
215.434
215.809
215.993
215.937
215.53
214.752
213.56
211.921
210.965
209.048
208.691
207.051
206.78
205.216
204.667
203.887
202.619
201.781
200.832
199.967
199.586
198.725
198.826
198.105
198.632
197.924
198.493
198.686
198.613
199.903
199.417
200.237
199.575
200.425
200.02
200.904
201
201.406
202.069
202.055
202.999
203.321
203.416
204.164
204.403
205.016
205.312
205.887
206.285
206.67
207.111
207.499
207.912
208.289
208.669
209.019
209.36
209.69
210.07
210.393
210.698
211.006
211.335
211.602
211.839
212.094
212.38
212.683
212.931
213.146
213.355
213.621
213.864
214.087
214.294
214.492
214.672
214.834
215.002
215.22
215.405
215.566
215.717
215.853
215.977
216.087
216.192
216.299
216.397
216.489
216.556
216.699
216.823
216.913
216.993
217.067
217.14
217.216
217.302
217.37
217.451
217.519
217.693
217.818
217.959
218.09
218.216
218.331
218.435
218.528
218.61
218.678
218.748
218.782
218.826
218.871
218.914
218.968
219.019
219.087
219.151
219.214
219.273
219.332
219.386
219.438
219.48
219.512
219.544
219.567
219.588
219.614
219.642
219.676
219.715
219.762
219.813
219.873
219.933
220.001
220.067
220.138
220.207
220.275
220.342
220.402
220.454
220.5
220.536
220.576
220.614
220.647
220.68
220.711
220.745
220.78
220.817
220.859
220.905
220.956
221.011
221.073
221.139
221.212
221.289
221.373
221.454
221.535
221.61
221.674
221.725
221.773
221.809
221.846
221.876
221.912
221.951
221.999
222.056
222.12
222.193
222.273
222.359
222.452
222.546
222.638
222.725
222.809
222.887
222.949
223.016
223.082
223.139
223.2
223.258
223.318
223.378
223.44
223.504
223.57
223.638
223.708
223.78
223.852
223.926
224
224.075
224.15
224.225
224.302
224.379
224.457
224.536
224.617
224.695
224.74
223.007
222.945
222.826
222.475
222.066
221.558
220.851
220.034
219.151
218.26
217.414
216.65
215.991
215.437
214.962
214.537
214.147
213.781
213.495
213.299
213.196
213.148
213.119
213.101
212.994
212.669
212.009
210.925
209.301
207.148
205.244
202.694
201.815
199.272
198.489
195.78
195.083
192.515
191.656
190.147
189.448
187.662
187.566
185.79
186.689
184.936
186.504
185.266
186.965
186.072
187.76
187.798
189.021
190.288
189.934
191.497
191.141
192.301
191.876
193.034
192.991
193.915
194.444
194.353
195.428
195.739
195.832
196.613
196.806
197.442
197.688
198.298
198.677
199.112
199.575
199.97
200.433
200.847
201.283
201.688
202.083
202.457
202.918
203.32
203.706
204.086
204.5
204.869
205.211
205.531
205.878
206.26
206.599
206.908
207.195
207.509
207.822
208.125
208.414
208.685
208.944
209.177
209.4
209.67
209.915
210.142
210.361
210.555
210.739
210.919
211.092
211.261
211.417
211.557
211.679
211.833
211.984
212.102
212.215
212.331
212.448
212.577
212.7
212.816
212.924
213.027
213.211
213.355
213.511
213.664
213.813
213.951
214.083
214.206
214.323
214.434
214.532
214.6
214.664
214.731
214.8
214.874
214.947
215.034
215.119
215.203
215.281
215.357
215.429
215.495
215.547
215.586
215.625
215.662
215.699
215.74
215.782
215.83
215.881
215.939
216.004
216.078
216.154
216.236
216.316
216.399
216.48
216.56
216.635
216.701
216.763
216.819
216.866
216.915
216.963
217.006
217.049
217.09
217.133
217.177
217.223
217.274
217.327
217.387
217.45
217.519
217.592
217.672
217.757
217.847
217.934
218.02
218.101
218.171
218.23
218.286
218.331
218.375
218.413
218.456
218.503
218.558
218.62
218.69
218.768
218.853
218.943
219.04
219.138
219.234
219.326
219.414
219.497
219.566
219.639
219.709
219.772
219.837
219.9
219.965
220.03
220.097
220.165
220.236
220.308
220.383
220.458
220.535
220.612
220.691
220.769
220.848
220.928
221.008
221.089
221.171
221.254
221.337
221.419
221.468
222.661
222.545
222.405
222.11
221.773
221.285
220.625
219.87
219.05
218.215
217.41
216.667
215.996
215.389
214.826
214.266
213.706
213.192
212.736
212.237
211.837
211.43
211.022
210.487
209.653
208.425
206.657
204.326
201.655
198.384
196.632
193.463
192.026
188.568
186.705
183.367
181.518
178.816
177.042
175.419
174.973
172.254
173.284
170.628
173.111
171.444
174.377
173.209
176.128
175.433
178.273
178.075
180.564
181.64
181.406
183.442
183.444
185.198
184.863
186.234
186.12
187.503
187.947
187.827
188.979
189.267
189.452
190.189
190.304
190.957
191.11
191.71
191.977
192.447
192.825
193.149
193.57
193.913
194.324
194.658
195.041
195.386
195.845
196.201
196.623
197.02
197.453
197.85
198.248
198.625
199.002
199.437
199.829
200.211
200.574
200.931
201.295
201.683
202.046
202.39
202.722
203.032
203.326
203.645
203.954
204.253
204.539
204.797
205.04
205.278
205.483
205.669
205.869
206.081
206.283
206.48
206.679
206.847
207.013
207.179
207.343
207.501
207.659
207.843
208.01
208.167
208.378
208.556
208.736
208.925
209.106
209.276
209.446
209.612
209.768
209.927
210.044
210.138
210.228
210.32
210.424
210.535
210.644
210.761
210.876
210.988
211.092
211.19
211.278
211.358
211.426
211.489
211.552
211.615
211.678
211.743
211.809
211.88
211.954
212.033
212.115
212.206
212.301
212.404
212.505
212.608
212.704
212.8
212.886
212.97
213.05
213.125
213.188
213.254
213.317
213.375
213.434
213.49
213.547
213.606
213.665
213.729
213.796
213.867
213.942
214.023
214.108
214.199
214.294
214.394
214.491
214.585
214.676
214.756
214.826
214.893
214.948
215.003
215.051
215.105
215.161
215.225
215.296
215.374
215.459
215.552
215.649
215.752
215.856
215.96
216.059
216.153
216.244
216.322
216.401
216.478
216.548
216.62
216.691
216.762
216.834
216.907
216.982
217.058
217.137
217.217
217.298
217.38
217.463
217.547
217.631
217.716
217.801
217.886
217.972
218.059
218.147
218.235
218.321
218.377
222.332
222.173
222.014
221.793
221.518
221.047
220.437
219.739
218.969
218.173
217.391
216.647
215.941
215.247
214.56
213.83
213.105
212.287
211.545
210.836
210.089
209.338
208.343
207.05
205.292
202.983
199.947
196.458
193.53
189.678
187.649
183.462
181.077
176.635
174.073
169.688
167.096
163.633
162.314
160.325
161.007
158.154
160.981
159.131
162.602
160.933
165.24
163.718
167.735
166.2
169.774
168.964
172.609
173.832
173.892
176.558
176.813
178.943
178.968
180.527
180.504
182.128
182.555
182.503
183.713
183.85
184.473
185.022
185.08
185.79
185.884
186.493
186.667
187.168
187.474
187.718
188.079
188.324
188.66
188.898
189.209
189.447
189.815
190.054
190.43
190.722
191.085
191.394
191.743
192.067
192.397
192.783
193.119
193.505
193.868
194.225
194.597
195.015
195.4
195.785
196.16
196.523
196.877
197.236
197.594
197.959
198.294
198.612
198.858
199.079
199.289
199.525
199.762
200.017
200.296
200.58
200.855
201.093
201.317
201.502
201.67
201.875
202.097
202.328
202.602
202.846
203.123
203.362
203.595
203.834
204.064
204.283
204.493
204.718
204.908
205.115
205.266
205.399
205.523
205.651
205.778
205.905
206.038
206.188
206.334
206.477
206.605
206.727
206.847
206.962
207.07
207.171
207.268
207.368
207.465
207.564
207.664
207.766
207.871
207.979
208.09
208.205
208.323
208.445
208.568
208.69
208.811
208.93
209.042
209.151
209.256
209.355
209.442
209.531
209.616
209.696
209.776
209.852
209.93
210.008
210.087
210.169
210.254
210.343
210.436
210.533
210.635
210.741
210.85
210.964
211.074
211.181
211.284
211.378
211.461
211.543
211.612
211.68
211.742
211.809
211.877
211.954
212.035
212.125
212.22
212.324
212.43
212.542
212.655
212.768
212.876
212.979
213.08
213.169
213.257
213.342
213.422
213.503
213.582
213.662
213.742
213.824
213.907
213.991
214.077
214.165
214.253
214.343
214.433
214.524
214.615
214.706
214.798
214.89
214.982
215.076
215.17
215.264
215.356
215.418
222.04
221.839
221.692
221.539
221.293
220.852
220.29
219.638
218.906
218.134
217.353
216.59
215.835
214.997
214.116
213.081
212.113
211.183
210.179
209.136
208.028
206.668
204.894
202.705
199.877
196.483
192.318
188.168
185.263
180.627
177.781
172.683
169.225
164.43
160.176
156.123
153.125
150.653
148.656
146.633
146.915
145.315
147.666
146.5
150.469
149.597
155.182
153.887
159.322
158.109
163.053
162.408
167.103
168.534
168.449
171.508
171.204
173.617
173.719
175.718
175.909
177.625
178.13
178.224
179.416
179.402
180.519
180.942
180.952
181.752
181.82
182.462
182.603
183.143
183.424
183.626
183.964
184.139
184.442
184.6
184.877
185.038
185.322
185.487
185.798
186.001
186.27
186.477
186.744
186.959
187.188
187.438
187.633
187.954
188.182
188.441
188.699
189.017
189.294
189.61
189.916
190.222
190.53
190.849
191.177
191.527
191.84
192.13
192.326
192.609
192.884
193.2
193.506
193.827
194.098
194.373
194.68
194.93
195.146
195.382
195.644
195.934
196.244
196.551
196.85
197.203
197.54
197.855
198.161
198.465
198.755
199.037
199.296
199.576
199.787
200.014
200.215
200.398
200.565
200.732
200.894
201.052
201.212
201.378
201.547
201.72
201.885
202.044
202.203
202.358
202.507
202.649
202.786
202.925
203.063
203.2
203.336
203.474
203.614
203.755
203.897
204.042
204.189
204.338
204.487
204.636
204.783
204.929
205.068
205.206
205.339
205.466
205.581
205.697
205.808
205.915
206.021
206.123
206.226
206.329
206.433
206.54
206.648
206.76
206.874
206.994
207.116
207.241
207.37
207.5
207.627
207.749
207.868
207.98
208.081
208.18
208.266
208.352
208.432
208.516
208.602
208.694
208.791
208.895
209.004
209.121
209.241
209.364
209.489
209.613
209.733
209.847
209.961
210.063
210.163
210.259
210.351
210.443
210.534
210.625
210.716
210.808
210.9
210.994
211.09
211.187
211.284
211.383
211.482
211.582
211.681
211.781
211.881
211.981
212.081
212.182
212.285
212.386
212.485
212.555
221.808
221.568
221.458
221.348
221.118
220.711
220.189
219.572
218.862
218.096
217.288
216.452
215.588
214.415
213.355
212.248
211.1
209.869
208.563
207.128
205.397
203.311
200.633
197.443
193.405
189.292
184.236
179.998
176.61
171.067
167.106
161.579
157.026
151.759
147.827
144.008
140.549
137.376
134.656
132.755
131.413
130.338
130.168
130.791
133.195
134.775
139.893
141.373
149.117
148.29
155.326
154.769
161.359
162.923
163.766
166.581
166.896
169.499
169.629
171.967
172.087
173.841
174.393
174.731
175.802
175.806
177.205
177.636
177.65
178.555
178.617
179.319
179.471
180.044
180.324
180.517
180.853
180.989
181.29
181.411
181.682
181.804
182.056
182.188
182.466
182.611
182.849
183
183.224
183.383
183.545
183.706
183.826
184.063
184.201
184.39
184.539
184.742
184.892
185.115
185.287
185.47
185.643
185.824
186.002
186.206
186.344
186.546
186.674
186.946
187.197
187.502
187.799
188.104
188.352
188.561
188.772
188.96
189.193
189.462
189.775
190.119
190.49
190.853
191.198
191.545
191.93
192.288
192.645
192.996
193.33
193.664
193.964
194.287
194.506
194.771
195.012
195.25
195.464
195.674
195.876
196.072
196.268
196.465
196.664
196.868
197.07
197.265
197.46
197.652
197.839
198.02
198.195
198.372
198.547
198.722
198.895
199.067
199.24
199.414
199.588
199.763
199.94
200.118
200.295
200.472
200.647
200.818
200.983
201.149
201.309
201.465
201.607
201.751
201.889
202.024
202.158
202.289
202.419
202.55
202.681
202.813
202.947
203.084
203.223
203.365
203.51
203.658
203.808
203.958
204.104
204.245
204.381
204.513
204.634
204.754
204.862
204.969
205.071
205.176
205.282
205.394
205.51
205.633
205.76
205.894
206.03
206.168
206.306
206.444
206.579
206.706
206.835
206.953
207.068
207.178
207.285
207.392
207.497
207.602
207.706
207.811
207.916
208.023
208.13
208.239
208.348
208.458
208.569
208.679
208.789
208.899
209.01
209.12
209.231
209.341
209.454
209.563
209.671
209.751
221.645
221.379
221.302
221.215
221.012
220.635
220.138
219.526
218.801
218.015
217.125
216.121
215.08
213.869
212.666
211.317
209.866
208.325
206.653
204.598
202.137
199.236
195.542
191.304
185.926
181.87
176.219
171.81
167.066
161.266
156.232
150.571
145.481
140.902
136.801
132.887
129.401
126.163
123.345
120.629
118.12
115.798
113.714
111.86
110.288
109.064
108.214
108.34
116.92
123.7
135.313
139.617
151.113
154.978
158.251
161.269
163.039
165.409
166.26
168.583
169.305
170.755
171.059
172.278
172.959
172.958
174.531
174.964
174.99
176.007
176.062
176.845
177.026
177.609
177.9
178.109
178.435
178.545
178.862
178.965
179.241
179.343
179.592
179.714
179.966
180.09
180.322
180.441
180.653
180.76
180.943
181.06
181.144
181.337
181.425
181.61
181.715
181.863
181.969
182.137
182.247
182.38
182.473
182.574
182.657
182.745
182.792
182.921
182.955
183.182
183.346
183.557
183.775
183.968
184.13
184.234
184.333
184.404
184.552
184.745
184.99
185.273
185.589
185.904
186.199
186.455
186.737
187.035
187.357
187.691
188.001
188.336
188.605
188.907
189.163
189.486
189.774
190.083
190.354
190.615
190.864
191.103
191.341
191.572
191.806
192.043
192.28
192.511
192.739
192.966
193.188
193.404
193.615
193.828
194.039
194.247
194.454
194.659
194.864
195.068
195.272
195.476
195.68
195.883
196.086
196.286
196.485
196.679
196.868
197.057
197.241
197.422
197.59
197.759
197.923
198.084
198.244
198.401
198.557
198.712
198.868
199.024
199.181
199.339
199.5
199.664
199.83
199.999
200.17
200.338
200.503
200.663
200.816
200.969
201.11
201.252
201.381
201.51
201.635
201.762
201.891
202.025
202.162
202.305
202.452
202.604
202.758
202.913
203.067
203.221
203.372
203.516
203.661
203.797
203.929
204.055
204.179
204.303
204.424
204.545
204.666
204.787
204.908
205.029
205.152
205.275
205.399
205.523
205.647
205.771
205.894
206.017
206.14
206.263
206.386
206.509
206.633
206.754
206.873
206.964
221.57
221.259
221.218
221.145
220.969
220.599
220.1
219.47
218.693
217.842
216.885
215.807
214.639
213.294
211.807
210.168
208.416
206.508
204.272
201.493
198.203
194.409
189.515
184.515
178.313
174.542
168.292
163.094
157.472
151.6
146.094
141.051
136.397
131.901
127.905
124.564
121.453
118.526
115.762
113.22
110.947
108.915
107.082
105.446
103.992
102.695
101.562
100.607
99.9911
99.6949
99.9834
100.172
111.426
127.305
139.919
149.871
156.012
159.836
162.81
165.176
166.56
167.744
168.733
169.657
170.514
170.916
172.239
172.791
172.854
173.954
173.968
174.847
175.039
175.635
175.942
176.189
176.48
176.585
176.923
177.012
177.3
177.394
177.651
177.772
178.005
178.12
178.347
178.454
178.656
178.744
178.938
179.039
179.113
179.278
179.356
179.534