/*--------------------------------*- C++ -*----------------------------------*\
| =========                 |                                                 |
| \\      /  F ield         | OpenFOAM: The Open Source CFD Toolbox           |
|  \\    /   O peration     | Version:  2312                                  |
|   \\  /    A nd           | Website:  www.openfoam.com                      |
|    \\/     M anipulation  |                                                 |
\*---------------------------------------------------------------------------*/
FoamFile
{
    version     2.0;
    format      ascii;
    arch        "LSB;label=32;scalar=64";
    class       volVectorField;
    location    "0.003";
    object      U;
}
// * * * * * * * * * * * * * * * * * * * * * * * * * * * * * * * * * * * * * //

dimensions      [0 1 -1 0 0 0 0];

internalField   nonuniform List<vector> 
48128
(
(3.24012 -1.49802 0)
(3.32718 0.237868 0)
(-2.40084 2.41639 0)
(-11.8692 2.84821 0)
(-28.1635 4.85039 0)
(-49.4092 6.61775 0)
(-71.4627 5.57687 0)
(-91.8736 4.41261 0)
(-110.307 3.09863 0)
(-126.353 1.69548 0)
(-139.574 0.615939 0)
(-150.526 0.934327 0)
(-160.073 0.907293 0)
(-167.928 1.04833 0)
(-174.355 1.18335 0)
(-180.098 1.30537 0)
(-185.126 1.45582 0)
(-189.386 1.61057 0)
(-192.858 1.80023 0)
(-195.453 2.11214 0)
(-196.977 2.48289 0)
(-197.51 2.4131 0)
(-197.348 1.94148 0)
(-195.734 1.58787 0)
(-192.829 1.13151 0)
(-188.684 0.679898 0)
(-183.351 0.109254 0)
(-176.856 -0.641074 0)
(-168.712 -1.12147 0)
(-159.25 -1.7063 0)
(-148.895 -2.34463 0)
(-137.323 -3.03079 0)
(-124.715 -3.72186 0)
(-111.294 -4.27453 0)
(-97.1757 -4.95947 0)
(-82.4323 -5.45246 0)
(-66.9444 -6.27159 0)
(-51.1657 -6.38013 0)
(-35.673 -6.69143 0)
(-20.4115 -6.64608 0)
(-6.50538 -6.21838 0)
(6.55492 -5.59857 0)
(18.4449 -4.82216 0)
(30.7431 -4.7217 0)
(43.6905 -5.03813 0)
(56.6047 -5.02867 0)
(69.0506 -4.85649 0)
(80.9706 -4.69744 0)
(92.2665 -4.44248 0)
(103.193 -4.29668 0)
(113.631 -4.07036 0)
(123.991 -3.94072 0)
(133.455 -3.65543 0)
(142.618 -3.54191 0)
(151.05 -3.31909 0)
(159.31 -3.1824 0)
(167.154 -2.95704 0)
(174.819 -2.81872 0)
(182.347 -2.64436 0)
(189.298 -2.39752 0)
(196.313 -2.31305 0)
(202.802 -2.0696 0)
(208.638 -1.86755 0)
(214.377 -1.72328 0)
(219.617 -1.53094 0)
(224.93 -1.45451 0)
(229.901 -1.31716 0)
(234.835 -1.23003 0)
(239.491 -1.10026 0)
(243.766 -0.994342 0)
(247.862 -0.902622 0)
(251.635 -0.79958 0)
(255.156 -0.719149 0)
(258.399 -0.638417 0)
(261.503 -0.583624 0)
(264.423 -0.525243 0)
(267.074 -0.452229 0)
(269.465 -0.412459 0)
(271.915 -0.419083 0)
(274.484 -0.299461 0)
(275.716 -0.258547 0)
(277.463 -0.289118 0)
(279.489 -0.297609 0)
(281.871 -0.20904 0)
(282.761 -0.184397 0)
(284.171 -0.205111 0)
(285.86 -0.17189 0)
(287.73 -0.243154 0)
(290.137 -0.0740125 0)
(289.938 -0.0889873 0)
(290.772 -0.125335 0)
(292.038 -0.119333 0)
(293.541 -0.171787 0)
(295.558 -0.0321265 0)
(295.292 -0.0405544 0)
(295.989 -0.0712637 0)
(297.04 -0.0901781 0)
(298.447 -0.0546822 0)
(298.99 -0.0494353 0)
(299.813 -0.0488348 0)
(300.807 -0.0618368 0)
(302.235 -0.00783499 0)
(302.134 -0.0124529 0)
(302.603 -0.026861 0)
(303.31 -0.0390585 0)
(304.219 -0.0189441 0)
(304.684 -0.0192343 0)
(305.285 -0.0159298 0)
(305.974 -0.0186214 0)
(306.72 -0.026769 0)
(307.544 -0.0261282 0)
(308.462 -0.0351142 0)
(309.419 -0.0170958 0)
(310.146 -0.0225069 0)
(311.004 0.0258662 0)
(311.042 0.0139213 0)
(311.199 0.0177287 0)
(311.412 0.0173518 0)
(311.652 0.0090738 0)
(311.965 0.00515943 0)
(312.387 -0.00940961 0)
(312.937 -0.0116454 0)
(313.56 -0.0177933 0)
(314.069 0.0012837 0)
(314.352 0.00694948 0)
(314.699 0.0272727 0)
(314.27 0.0211565 0)
(314.14 0.0304326 0)
(313.841 0.0283891 0)
(313.643 0.0132159 0)
(313.429 0.0293322 0)
(313.32 0.00751718 0)
(313.333 0.00133 0)
(313.408 -0.00067884 0)
(313.565 0.000588994 0)
(313.824 -0.0081387 0)
(314.212 -0.00588902 0)
(314.649 -0.006714 0)
(315.028 -0.00197625 0)
(315.303 -0.0020655 0)
(315.601 0.00945642 0)
(315.718 0.0144292 0)
(315.896 0.0209548 0)
(315.885 0.0302988 0)
(315.912 0.0294959 0)
(315.954 0.029805 0)
(316.015 0.0319605 0)
(316.036 0.0312492 0)
(316.09 0.0293851 0)
(316.188 0.0342174 0)
(316.244 0.0319784 0)
(316.341 0.0346133 0)
(316.419 0.0336075 0)
(316.513 0.0332879 0)
(316.622 0.0336949 0)
(316.69 0.0355468 0)
(316.763 0.0375631 0)
(316.776 0.0393345 0)
(316.792 0.0421186 0)
(316.768 0.0419359 0)
(316.736 0.0449464 0)
(316.661 0.0423578 0)
(316.578 0.0463014 0)
(316.47 0.0442339 0)
(316.359 0.043333 0)
(316.236 0.0430264 0)
(316.117 0.0401726 0)
(316.018 0.04037 0)
(315.916 0.0360245 0)
(315.831 0.0398017 0)
(315.816 0.0322569 0)
(315.791 0.0304328 0)
(315.809 0.0288698 0)
(315.829 0.0278324 0)
(315.86 0.0273511 0)
(315.902 0.0268025 0)
(315.95 0.0264357 0)
(316.004 0.0262627 0)
(316.046 0.0269878 0)
(316.077 0.0269209 0)
(316.104 0.0287657 0)
(316.098 0.0295575 0)
(316.081 0.0308168 0)
(316.041 0.0305465 0)
(315.986 0.031697 0)
(315.907 0.0314935 0)
(315.813 0.0317233 0)
(315.697 0.0312819 0)
(315.566 0.0316371 0)
(315.41 0.0306603 0)
(315.243 0.0297237 0)
(315.102 0.0271683 0)
(314.956 0.0255109 0)
(314.881 0.0240773 0)
(314.885 0.0175723 0)
(314.903 0.0172897 0)
(314.958 0.0171481 0)
(315.039 0.0159702 0)
(315.134 0.0154115 0)
(315.205 0.0172484 0)
(315.273 0.0167345 0)
(315.283 0.0216939 0)
(315.258 0.0226403 0)
(315.204 0.0233545 0)
(315.11 0.024544 0)
(314.985 0.0251497 0)
(314.833 0.0254362 0)
(314.66 0.0253105 0)
(314.466 0.0246034 0)
(314.292 0.0215545 0)
(314.151 0.0209825 0)
(314.028 0.0183867 0)
(313.903 0.0167309 0)
(313.918 0.0127035 0)
(313.891 0.0124481 0)
(313.86 0.0119574 0)
(313.875 0.0119329 0)
(313.871 0.0120336 0)
(313.88 0.0124814 0)
(313.877 0.0129112 0)
(313.869 0.0136597 0)
(313.852 0.0143363 0)
(313.824 0.0150152 0)
(313.784 0.0155707 0)
(313.733 0.0161446 0)
(313.672 0.0164375 0)
(313.604 0.01665 0)
(313.529 0.01653 0)
(313.451 0.016699 0)
(313.37 0.0162555 0)
(313.287 0.0164045 0)
(313.202 0.0156964 0)
(313.121 0.0157518 0)
(313.035 0.0149699 0)
(312.953 0.0152696 0)
(312.862 0.0143623 0)
(312.778 0.014699 0)
(312.681 0.0144159 0)
(312.57 0.0125524 0)
(312.615 0.00968278 0)
(1.36656 -3.32323 0)
(-3.06372 3.58453 0)
(-14.2692 7.83542 0)
(-29.9911 11.6335 0)
(-50.8696 15.6138 0)
(-72.3552 17.2162 0)
(-92.8505 15.3213 0)
(-111.85 13.1689 0)
(-129.132 10.9334 0)
(-143.722 9.30035 0)
(-154.997 8.66957 0)
(-164.357 7.35204 0)
(-172.288 6.49177 0)
(-178.289 5.81299 0)
(-182.712 5.28631 0)
(-186.27 4.94659 0)
(-189.017 4.64108 0)
(-190.926 4.36354 0)
(-192.011 4.11133 0)
(-192.337 3.97678 0)
(-191.696 4.05394 0)
(-189.804 3.6741 0)
(-186.443 3.1076 0)
(-181.825 2.51795 0)
(-175.816 1.99375 0)
(-168.493 1.38621 0)
(-159.969 0.752742 0)
(-150.468 -0.124388 0)
(-140.306 -0.840377 0)
(-129.138 -1.62993 0)
(-117.131 -2.57957 0)
(-104.063 -3.60159 0)
(-90.096 -4.71216 0)
(-75.2427 -5.62678 0)
(-59.6669 -6.71231 0)
(-43.5361 -7.45756 0)
(-27.0037 -8.74077 0)
(-10.0268 -9.11689 0)
(6.64499 -9.54226 0)
(23.4228 -9.60604 0)
(39.4635 -9.18507 0)
(55.7097 -9.14134 0)
(71.8272 -8.8533 0)
(87.333 -9.23695 0)
(101.584 -9.42859 0)
(114.986 -9.3385 0)
(127.74 -9.12733 0)
(139.849 -8.8205 0)
(151.322 -8.47675 0)
(162.386 -8.36544 0)
(172.845 -8.05896 0)
(183.195 -7.92384 0)
(192.561 -7.33857 0)
(201.593 -7.05862 0)
(209.886 -6.62813 0)
(217.969 -6.46339 0)
(225.59 -6.11114 0)
(232.973 -5.96077 0)
(240.156 -5.54447 0)
(246.801 -5.24595 0)
(253.415 -5.10105 0)
(259.648 -4.49461 0)
(265.198 -4.27162 0)
(270.66 -3.98473 0)
(275.65 -3.71792 0)
(280.662 -3.63477 0)
(285.447 -3.31243 0)
(290.042 -3.16972 0)
(294.532 -2.8427 0)
(298.606 -2.67085 0)
(302.53 -2.45729 0)
(306.205 -2.24113 0)
(309.614 -2.08995 0)
(312.837 -1.92388 0)
(315.876 -1.81341 0)
(318.763 -1.65986 0)
(321.481 -1.52508 0)
(323.885 -1.4521 0)
(326.32 -1.40188 0)
(329.039 -1.27179 0)
(330.409 -1.1189 0)
(332.223 -1.09275 0)
(334.257 -1.0492 0)
(336.743 -1.05374 0)
(337.797 -0.866141 0)
(339.309 -0.810407 0)
(341.053 -0.811313 0)
(342.898 -0.894563 0)
(345.569 -0.806308 0)
(345.633 -0.555212 0)
(346.569 -0.517383 0)
(347.918 -0.532553 0)
(349.428 -0.65558 0)
(351.697 -0.630255 0)
(351.706 -0.433668 0)
(352.482 -0.409079 0)
(353.616 -0.388265 0)
(355.084 -0.502553 0)
(355.828 -0.361917 0)
(356.801 -0.359688 0)
(357.896 -0.369347 0)
(359.481 -0.409096 0)
(359.665 -0.262853 0)
(360.302 -0.233013 0)
(361.144 -0.240263 0)
(362.164 -0.30518 0)
(362.803 -0.235648 0)
(363.562 -0.20474 0)
(364.381 -0.226879 0)
(365.244 -0.190782 0)
(366.167 -0.199766 0)
(367.178 -0.147592 0)
(368.243 -0.130278 0)
(369.124 -0.107425 0)
(370.194 -0.0408581 0)
(370.512 -0.062365 0)
(370.93 -0.0571016 0)
(371.366 -0.0824092 0)
(371.801 -0.0957536 0)
(372.281 -0.073631 0)
(372.83 -0.0775349 0)
(373.485 -0.0530379 0)
(374.188 -0.0395366 0)
(374.866 -0.0059419 0)
(375.321 -0.00632814 0)
(375.939 0.00893422 0)
(375.749 -0.00585243 0)
(375.844 -0.0136172 0)
(375.762 -0.0249648 0)
(375.723 -0.0568611 0)
(375.724 -0.0557909 0)
(375.762 -0.0745625 0)
(375.86 -0.0760595 0)
(376.033 -0.0605099 0)
(376.289 -0.0410734 0)
(376.627 -0.031797 0)
(377.077 -0.0408584 0)
(377.57 -0.0160091 0)
(378.061 0.000726875 0)
(378.45 0.013551 0)
(378.877 0.00407301 0)
(379.139 0.023225 0)
(379.466 0.0235526 0)
(379.628 0.0306332 0)
(379.825 0.0238111 0)
(380.034 0.027801 0)
(380.26 0.0262489 0)
(380.452 0.0279958 0)
(380.664 0.0334321 0)
(380.91 0.0325634 0)
(381.118 0.029956 0)
(381.359 0.0377668 0)
(381.578 0.0380052 0)
(381.808 0.041664 0)
(382.054 0.0424111 0)
(382.257 0.0471417 0)
(382.469 0.0462226 0)
(382.624 0.0520818 0)
(382.794 0.0515981 0)
(382.908 0.051737 0)
(383.038 0.0551348 0)
(383.103 0.048749 0)
(383.176 0.0546477 0)
(383.213 0.0472599 0)
(383.255 0.0507823 0)
(383.275 0.0453357 0)
(383.3 0.0446087 0)
(383.329 0.0427584 0)
(383.36 0.0422561 0)
(383.403 0.0432167 0)
(383.476 0.0349903 0)
(383.552 0.0372391 0)
(383.65 0.0361787 0)
(383.752 0.0373691 0)
(383.859 0.0387987 0)
(383.973 0.0393835 0)
(384.09 0.0401446 0)
(384.211 0.041118 0)
(384.323 0.0427445 0)
(384.42 0.043363 0)
(384.521 0.0441247 0)
(384.585 0.0463096 0)
(384.654 0.0457485 0)
(384.682 0.0450859 0)
(384.713 0.0451234 0)
(384.708 0.0443249 0)
(384.694 0.0437829 0)
(384.662 0.0423956 0)
(384.613 0.0414648 0)
(384.542 0.0383832 0)
(384.464 0.0350211 0)
(384.396 0.0343051 0)
(384.321 0.0292554 0)
(384.307 0.032703 0)
(384.337 0.0207332 0)
(384.381 0.0257263 0)
(384.452 0.0284094 0)
(384.543 0.0293377 0)
(384.648 0.0302292 0)
(384.735 0.0340991 0)
(384.812 0.0338413 0)
(384.868 0.0397265 0)
(384.871 0.0394948 0)
(384.856 0.0386598 0)
(384.81 0.0388022 0)
(384.739 0.0377213 0)
(384.645 0.036095 0)
(384.532 0.0351568 0)
(384.402 0.0293972 0)
(384.284 0.0303213 0)
(384.177 0.0270962 0)
(384.091 0.023926 0)
(383.986 0.0286843 0)
(384.004 0.017798 0)
(383.985 0.0209584 0)
(383.957 0.0225831 0)
(383.968 0.0222852 0)
(383.963 0.0239388 0)
(383.97 0.0242492 0)
(383.968 0.0258263 0)
(383.962 0.0264762 0)
(383.95 0.0270283 0)
(383.929 0.0275721 0)
(383.9 0.027776 0)
(383.863 0.028321 0)
(383.817 0.0281479 0)
(383.765 0.0281739 0)
(383.707 0.0277855 0)
(383.645 0.0278559 0)
(383.579 0.0271377 0)
(383.511 0.0272355 0)
(383.441 0.0263873 0)
(383.369 0.0264957 0)
(383.295 0.025434 0)
(383.22 0.0258467 0)
(383.141 0.0243239 0)
(383.061 0.0251458 0)
(382.975 0.0235552 0)
(382.859 0.024119 0)
(382.898 0.014834 0)
(-3.57603 -1.09943 0)
(-10.4814 8.79208 0)
(-24.8209 16.6728 0)
(-43.6794 23.7046 0)
(-63.9332 28.9378 0)
(-83.5367 29.1069 0)
(-101.322 26.0658 0)
(-117.289 22.5684 0)
(-131.173 19.1977 0)
(-142.663 16.2663 0)
(-152.399 14.2411 0)
(-160.052 11.8304 0)
(-166.187 10.0477 0)
(-170.54 8.72091 0)
(-173.369 7.63514 0)
(-175.471 6.91218 0)
(-176.741 6.36653 0)
(-177.225 5.97456 0)
(-176.911 5.46057 0)
(-175.49 4.9412 0)
(-172.931 4.01442 0)
(-169.097 3.21642 0)
(-164.016 2.23051 0)
(-157.805 1.19483 0)
(-150.344 0.158454 0)
(-141.686 -0.995498 0)
(-132.001 -2.1227 0)
(-121.334 -3.41384 0)
(-109.585 -4.69587 0)
(-96.6682 -6.03843 0)
(-82.8168 -7.64866 0)
(-67.8939 -9.26166 0)
(-52.0807 -11.1143 0)
(-35.3664 -12.5075 0)
(-17.8969 -14.3427 0)
(0.0766901 -15.4424 0)
(18.2361 -17.2699 0)
(36.6143 -17.8269 0)
(54.4912 -18.6361 0)
(72.358 -18.8807 0)
(89.5305 -18.4373 0)
(106.699 -18.7098 0)
(123.364 -18.5602 0)
(139.057 -18.6356 0)
(153.553 -18.3287 0)
(166.989 -17.8724 0)
(179.685 -17.3804 0)
(191.589 -16.7497 0)
(202.852 -16.1099 0)
(213.696 -15.7353 0)
(223.794 -15.0991 0)
(233.783 -14.7296 0)
(242.602 -13.7036 0)
(250.989 -13.0698 0)
(258.513 -12.2835 0)
(265.884 -11.8629 0)
(272.689 -11.1973 0)
(279.303 -10.8092 0)
(285.595 -10.1044 0)
(291.378 -9.52524 0)
(297.124 -9.18878 0)
(302.519 -8.2761 0)
(307.206 -7.81551 0)
(311.858 -7.30641 0)
(316.079 -6.80802 0)
(320.348 -6.58574 0)
(324.431 -6.05992 0)
(328.29 -5.7707 0)
(332.107 -5.26318 0)
(335.491 -4.94208 0)
(338.799 -4.58929 0)
(341.873 -4.23066 0)
(344.733 -3.96647 0)
(347.456 -3.68189 0)
(350.02 -3.47195 0)
(352.47 -3.21569 0)
(354.755 -3.01385 0)
(356.798 -2.84981 0)
(358.871 -2.68914 0)
(361.234 -2.61524 0)
(362.376 -2.36196 0)
(363.92 -2.23233 0)
(365.665 -2.08576 0)
(367.82 -2.14985 0)
(368.725 -1.88432 0)
(370.024 -1.74566 0)
(371.533 -1.67955 0)
(373.155 -1.71357 0)
(375.526 -1.78104 0)
(375.55 -1.43912 0)
(376.361 -1.27357 0)
(377.539 -1.2061 0)
(378.879 -1.29252 0)
(380.903 -1.40251 0)
(380.926 -1.12018 0)
(381.619 -0.997073 0)
(382.63 -0.899034 0)
(383.915 -1.06384 0)
(384.612 -0.895963 0)
(385.494 -0.853495 0)
(386.493 -0.820848 0)
(387.931 -0.945804 0)
(388.117 -0.730189 0)
(388.702 -0.654257 0)
(389.473 -0.607894 0)
(390.397 -0.693855 0)
(391.009 -0.604473 0)
(391.717 -0.553831 0)
(392.483 -0.55453 0)
(393.288 -0.501139 0)
(394.146 -0.481706 0)
(395.085 -0.403719 0)
(396.061 -0.371031 0)
(396.884 -0.324291 0)
(397.879 -0.290959 0)
(398.207 -0.277637 0)
(398.63 -0.263819 0)
(399.076 -0.286759 0)
(399.531 -0.302805 0)
(400.022 -0.271314 0)
(400.57 -0.23928 0)
(401.208 -0.191155 0)
(401.88 -0.159658 0)
(402.538 -0.13629 0)
(402.997 -0.116382 0)
(403.64 -0.157198 0)
(403.518 -0.147334 0)
(403.655 -0.161187 0)
(403.62 -0.174638 0)
(403.645 -0.204142 0)
(403.694 -0.211254 0)
(403.78 -0.226237 0)
(403.917 -0.220325 0)
(404.113 -0.196475 0)
(404.377 -0.162299 0)
(404.709 -0.114886 0)
(405.138 -0.120814 0)
(405.609 -0.0858406 0)
(406.071 -0.0629737 0)
(406.46 -0.0406232 0)
(406.878 -0.0539869 0)
(407.167 -0.0340154 0)
(407.509 -0.0299339 0)
(407.711 -0.0310673 0)
(407.939 -0.0318046 0)
(408.176 -0.0233501 0)
(408.425 -0.0220936 0)
(408.647 -0.0215246 0)
(408.879 -0.00128036 0)
(409.144 -0.00701999 0)
(409.374 -0.00245484 0)
(409.633 0.00741843 0)
(409.871 0.010043 0)
(410.118 0.0199979 0)
(410.379 0.021632 0)
(410.603 0.0311226 0)
(410.835 0.0302556 0)
(411.017 0.0384062 0)
(411.214 0.0379714 0)
(411.36 0.039597 0)
(411.524 0.0422225 0)
(411.624 0.0358734 0)
(411.736 0.0417177 0)
(411.81 0.0326227 0)
(411.891 0.036104 0)
(411.948 0.0304763 0)
(412.008 0.0302897 0)
(412.07 0.0316784 0)
(412.132 0.029172 0)
(412.204 0.0349824 0)
(412.296 0.0306411 0)
(412.391 0.0311943 0)
(412.504 0.0371725 0)
(412.618 0.0384461 0)
(412.737 0.0415023 0)
(412.862 0.0443053 0)
(412.99 0.0469561 0)
(413.12 0.0489202 0)
(413.244 0.0514552 0)
(413.354 0.0537721 0)
(413.468 0.0540582 0)
(413.55 0.0574192 0)
(413.636 0.0558364 0)
(413.685 0.0561775 0)
(413.737 0.0552066 0)
(413.758 0.0549826 0)
(413.766 0.0531728 0)
(413.756 0.0505352 0)
(413.731 0.0498311 0)
(413.688 0.0424693 0)
(413.637 0.0395387 0)
(413.591 0.0380361 0)
(413.537 0.0352552 0)
(413.54 0.0397439 0)
(413.568 0.0335347 0)
(413.613 0.0389957 0)
(413.682 0.0453345 0)
(413.767 0.0484774 0)
(413.865 0.0495728 0)
(413.952 0.055279 0)
(414.026 0.0548493 0)
(414.087 0.0599935 0)
(414.106 0.0603912 0)
(414.099 0.0577568 0)
(414.069 0.0555742 0)
(414.016 0.0524643 0)
(413.943 0.0498016 0)
(413.852 0.0472754 0)
(413.745 0.0388618 0)
(413.644 0.0413617 0)
(413.551 0.0407037 0)
(413.473 0.0355506 0)
(413.376 0.043782 0)
(413.384 0.0312341 0)
(413.363 0.0361502 0)
(413.332 0.0399157 0)
(413.336 0.039699 0)
(413.327 0.0425912 0)
(413.329 0.0433919 0)
(413.324 0.0457385 0)
(413.315 0.0466708 0)
(413.302 0.0471149 0)
(413.281 0.0474728 0)
(413.254 0.0475019 0)
(413.218 0.0480561 0)
(413.176 0.0476023 0)
(413.127 0.0476625 0)
(413.073 0.0468746 0)
(413.015 0.0472069 0)
(412.953 0.0461013 0)
(412.888 0.0464721 0)
(412.821 0.0452251 0)
(412.751 0.0458528 0)
(412.679 0.0440588 0)
(412.605 0.0451153 0)
(412.528 0.0424088 0)
(412.449 0.0441984 0)
(412.364 0.0406685 0)
(412.248 0.0446542 0)
(412.272 0.0287276 0)
(-5.48106 3.52105 0)
(-16.5608 16.7145 0)
(-34.1003 26.7607 0)
(-52.5081 35.5278 0)
(-71.0428 39.3986 0)
(-87.8509 38.7692 0)
(-102.515 34.8774 0)
(-115.247 30.2918 0)
(-126.583 25.3757 0)
(-136.005 20.6122 0)
(-143.579 16.6256 0)
(-149.353 13.7171 0)
(-153.718 11.4893 0)
(-156.558 9.85264 0)
(-158.016 8.50805 0)
(-158.985 7.60701 0)
(-159.237 6.84403 0)
(-158.706 6.1337 0)
(-157.305 5.47343 0)
(-154.874 4.76935 0)
(-151.343 3.92958 0)
(-146.64 2.8663 0)
(-140.708 1.57349 0)
(-133.548 0.171272 0)
(-125.024 -1.32163 0)
(-115.147 -3.00099 0)
(-103.995 -4.64509 0)
(-91.7043 -6.5781 0)
(-78.1428 -8.65491 0)
(-63.2395 -10.707 0)
(-47.2639 -13.1928 0)
(-30.071 -15.3549 0)
(-12.0719 -18.248 0)
(7.05693 -20.0711 0)
(26.8212 -22.8411 0)
(47.0723 -24.3934 0)
(67.1643 -27.0143 0)
(87.256 -27.5174 0)
(106.563 -28.7515 0)
(125.696 -29.0526 0)
(143.982 -28.3402 0)
(161.736 -28.831 0)
(178.756 -28.3478 0)
(194.412 -27.9575 0)
(208.959 -27.0408 0)
(222.085 -26.2602 0)
(234.588 -25.3546 0)
(246.005 -24.3789 0)
(256.977 -23.3908 0)
(267.308 -22.6284 0)
(276.821 -21.6367 0)
(286.154 -20.8185 0)
(294.16 -19.2229 0)
(301.612 -18.2065 0)
(308.089 -17.0783 0)
(314.539 -16.4065 0)
(320.258 -15.3931 0)
(325.885 -14.7453 0)
(331.065 -13.6907 0)
(335.78 -12.9155 0)
(340.47 -12.3017 0)
(344.844 -11.0579 0)
(348.472 -10.499 0)
(352.11 -9.73711 0)
(355.38 -9.10027 0)
(358.731 -8.72756 0)
(361.907 -7.98123 0)
(364.879 -7.56986 0)
(367.827 -6.88011 0)
(370.36 -6.494 0)
(372.896 -6.01346 0)
(375.201 -5.57512 0)
(377.372 -5.24685 0)
(379.439 -4.88585 0)
(381.376 -4.61257 0)
(383.236 -4.28919 0)
(384.936 -4.07247 0)
(386.458 -3.82604 0)
(388.023 -3.64408 0)
(389.886 -3.61523 0)
(390.661 -3.26655 0)
(391.796 -3.01721 0)
(393.13 -2.83432 0)
(394.823 -2.96842 0)
(395.467 -2.63136 0)
(396.44 -2.39468 0)
(397.599 -2.29947 0)
(398.877 -2.3366 0)
(400.772 -2.43961 0)
(400.727 -2.05134 0)
(401.329 -1.74513 0)
(402.228 -1.68827 0)
(403.289 -1.76165 0)
(404.92 -1.94588 0)
(404.907 -1.63816 0)
(405.438 -1.39522 0)
(406.234 -1.29486 0)
(407.244 -1.46495 0)
(407.818 -1.30783 0)
(408.526 -1.22956 0)
(409.342 -1.20239 0)
(410.551 -1.37322 0)
(410.644 -1.10601 0)
(411.102 -0.960659 0)
(411.726 -0.902233 0)
(412.475 -1.00645 0)
(412.994 -0.907035 0)
(413.582 -0.829368 0)
(414.226 -0.811964 0)
(414.907 -0.734474 0)
(415.637 -0.663665 0)
(416.439 -0.563391 0)
(417.267 -0.535663 0)
(417.971 -0.489322 0)
(418.833 -0.522728 0)
(419.089 -0.463899 0)
(419.438 -0.462279 0)
(419.819 -0.496294 0)
(420.221 -0.50436 0)
(420.657 -0.446547 0)
(421.142 -0.367282 0)
(421.706 -0.28056 0)
(422.296 -0.243596 0)
(422.881 -0.263446 0)
(423.286 -0.237085 0)
(423.844 -0.31803 0)
(423.737 -0.280799 0)
(423.85 -0.313092 0)
(423.821 -0.341078 0)
(423.849 -0.37587 0)
(423.899 -0.386325 0)
(423.98 -0.383012 0)
(424.105 -0.35893 0)
(424.282 -0.316803 0)
(424.517 -0.261621 0)
(424.811 -0.186339 0)
(425.187 -0.173764 0)
(425.612 -0.128957 0)
(426.015 -0.113208 0)
(426.359 -0.0895915 0)
(426.727 -0.10947 0)
(426.988 -0.0947572 0)
(427.295 -0.0975332 0)
(427.476 -0.0899304 0)
(427.682 -0.0847088 0)
(427.897 -0.0750097 0)
(428.12 -0.0705976 0)
(428.329 -0.0683664 0)
(428.543 -0.0287281 0)
(428.78 -0.042864 0)
(428.996 -0.0299202 0)
(429.239 -0.0177609 0)
(429.459 -0.00930636 0)
(429.686 0.00504597 0)
(429.926 0.00955581 0)
(430.133 0.0189085 0)
(430.347 0.0178088 0)
(430.519 0.025705 0)
(430.703 0.0245972 0)
(430.845 0.0260839 0)
(431 0.0278451 0)
(431.101 0.0180004 0)
(431.213 0.0218644 0)
(431.288 0.0139283 0)
(431.372 0.015643 0)
(431.431 0.011638 0)
(431.494 0.0131821 0)
(431.558 0.0152981 0)
(431.623 0.0140935 0)
(431.692 0.0299515 0)
(431.78 0.0233304 0)
(431.871 0.0258241 0)
(431.979 0.0331937 0)
(432.086 0.0388195 0)
(432.198 0.0453054 0)
(432.316 0.0507756 0)
(432.436 0.0553854 0)
(432.558 0.0583025 0)
(432.675 0.0617155 0)
(432.779 0.0649041 0)
(432.887 0.064163 0)
(432.966 0.0682826 0)
(433.05 0.0648846 0)
(433.099 0.0655225 0)
(433.151 0.0627918 0)
(433.176 0.0615748 0)
(433.188 0.0597101 0)
(433.181 0.0554682 0)
(433.163 0.0526837 0)
(433.126 0.0412833 0)
(433.085 0.0394666 0)
(433.044 0.0369439 0)
(432.997 0.0381442 0)
(432.999 0.0454569 0)
(433.023 0.0429778 0)
(433.064 0.0515213 0)
(433.124 0.0625158 0)
(433.201 0.0688626 0)
(433.288 0.0713337 0)
(433.367 0.0776759 0)
(433.434 0.0769628 0)
(433.488 0.0810092 0)
(433.506 0.0800388 0)
(433.499 0.0760153 0)
(433.472 0.0708801 0)
(433.424 0.0653042 0)
(433.357 0.0608444 0)
(433.273 0.054593 0)
(433.174 0.0460959 0)
(433.08 0.0489304 0)
(432.991 0.0509953 0)
(432.915 0.0442714 0)
(432.821 0.0584853 0)
(432.819 0.046865 0)
(432.796 0.0516047 0)
(432.759 0.0576418 0)
(432.756 0.0576231 0)
(432.741 0.0616811 0)
(432.735 0.0634124 0)
(432.724 0.066257 0)
(432.709 0.0673863 0)
(432.69 0.0676582 0)
(432.666 0.0677452 0)
(432.634 0.0674768 0)
(432.596 0.0678176 0)
(432.551 0.0669876 0)
(432.501 0.0669966 0)
(432.445 0.0657641 0)
(432.385 0.0662753 0)
(432.322 0.0647804 0)
(432.256 0.0654872 0)
(432.186 0.0638798 0)
(432.115 0.0650806 0)
(432.041 0.0626231 0)
(431.965 0.0642278 0)
(431.886 0.0603996 0)
(431.805 0.0630501 0)
(431.719 0.0576749 0)
(431.6 0.0644859 0)
(431.611 0.043957 0)
(-6.43044 10.727 0)
(-21.4971 26.3972 0)
(-39.8931 37.9262 0)
(-57.0716 45.9404 0)
(-73.279 48.9339 0)
(-87.4326 46.9687 0)
(-99.1122 41.7027 0)
(-109.22 35.1595 0)
(-118.322 29.0988 0)
(-125.795 23.9594 0)
(-131.493 19.5563 0)
(-135.652 15.8746 0)
(-138.681 13.0903 0)
(-140.448 11.0567 0)
(-140.965 9.40595 0)
(-141.189 8.21214 0)
(-140.575 7.20064 0)
(-139.262 6.28033 0)
(-137.044 5.3225 0)
(-133.827 4.21474 0)
(-129.497 2.85771 0)
(-123.909 1.31513 0)
(-116.954 -0.475145 0)
(-108.592 -2.4802 0)
(-98.6935 -4.6366 0)
(-87.2603 -7.05517 0)
(-74.3072 -9.36064 0)
(-60.0123 -11.9928 0)
(-44.3331 -14.9816 0)
(-27.0242 -17.6968 0)
(-8.54704 -21.2392 0)
(11.6745 -24.0042 0)
(32.5932 -27.9582 0)
(54.8605 -30.5295 0)
(77.7704 -34.2678 0)
(101.13 -35.9629 0)
(123.713 -39.195 0)
(146.116 -39.4182 0)
(167.148 -40.7698 0)
(187.738 -40.9935 0)
(207.694 -40.0499 0)
(225.612 -40.1216 0)
(243.289 -39.3392 0)
(258.417 -38.2464 0)
(273.047 -36.8202 0)
(285.335 -35.3495 0)
(297.617 -34.1427 0)
(308.164 -32.5503 0)
(318.866 -31.4123 0)
(328.184 -30.076 0)
(336.896 -28.6426 0)
(345.081 -27.3104 0)
(351.934 -25.1189 0)
(357.986 -23.6303 0)
(362.851 -21.9599 0)
(367.924 -20.9996 0)
(372.064 -19.55 0)
(376.295 -18.5903 0)
(379.955 -17.1698 0)
(383.229 -16.1082 0)
(386.547 -15.2364 0)
(389.577 -13.6826 0)
(391.808 -12.9235 0)
(394.104 -11.97 0)
(396.155 -11.1569 0)
(398.393 -10.6905 0)
(400.478 -9.73939 0)
(402.419 -9.21283 0)
(404.335 -8.34454 0)
(405.916 -7.89285 0)
(407.531 -7.27405 0)
(408.952 -6.77113 0)
(410.338 -6.37344 0)
(411.627 -5.92215 0)
(412.815 -5.58948 0)
(413.961 -5.1861 0)
(414.979 -4.97358 0)
(415.878 -4.66124 0)
(416.849 -4.4366 0)
(418.099 -4.48663 0)
(418.431 -4.08032 0)
(419.086 -3.7504 0)
(419.93 -3.50682 0)
(421.07 -3.64152 0)
(421.387 -3.29238 0)
(421.961 -3.00057 0)
(422.696 -2.85085 0)
(423.547 -2.84985 0)
(424.841 -3.02624 0)
(424.706 -2.65267 0)
(425.034 -2.26528 0)
(425.589 -2.14782 0)
(426.292 -2.20736 0)
(427.418 -2.43201 0)
(427.34 -2.12727 0)
(427.651 -1.82252 0)
(428.169 -1.68469 0)
(428.845 -1.80409 0)
(429.229 -1.67447 0)
(429.701 -1.57941 0)
(430.269 -1.53934 0)
(431.148 -1.67906 0)
(431.145 -1.47189 0)
(431.428 -1.28245 0)
(431.85 -1.19496 0)
(432.369 -1.26119 0)
(432.739 -1.17663 0)
(433.154 -1.08453 0)
(433.625 -1.04683 0)
(434.131 -0.947104 0)
(434.684 -0.841181 0)
(435.298 -0.702126 0)
(435.93 -0.672859 0)
(436.472 -0.625057 0)
(437.152 -0.691269 0)
(437.295 -0.635829 0)
(437.523 -0.639744 0)
(437.793 -0.68414 0)
(438.099 -0.691021 0)
(438.436 -0.613298 0)
(438.81 -0.491872 0)
(439.255 -0.376159 0)
(439.721 -0.321835 0)
(440.181 -0.366054 0)
(440.504 -0.3353 0)
(440.904 -0.477099 0)
(440.78 -0.439058 0)
(440.829 -0.488961 0)
(440.771 -0.524217 0)
(440.771 -0.572007 0)
(440.78 -0.568746 0)
(440.817 -0.55333 0)
(440.895 -0.51169 0)
(441.023 -0.45071 0)
(441.202 -0.374039 0)
(441.43 -0.268894 0)
(441.73 -0.225745 0)
(442.082 -0.172222 0)
(442.407 -0.160725 0)
(442.683 -0.138006 0)
(442.979 -0.157708 0)
(443.187 -0.151032 0)
(443.433 -0.167138 0)
(443.569 -0.1505 0)
(443.729 -0.14359 0)
(443.897 -0.132748 0)
(444.071 -0.124095 0)
(444.245 -0.120407 0)
(444.413 -0.0731927 0)
(444.599 -0.0788186 0)
(444.778 -0.0642859 0)
(444.981 -0.0510164 0)
(445.162 -0.033509 0)
(445.35 -0.0146911 0)
(445.55 -0.00907158 0)
(445.72 0.0056585 0)
(445.898 0.000611157 0)
(446.039 0.0100441 0)
(446.19 0.00685699 0)
(446.306 0.00823666 0)
(446.434 0.00493629 0)
(446.513 -0.00473988 0)
(446.606 -0.00633007 0)
(446.663 -0.0116278 0)
(446.729 -0.0128197 0)
(446.773 -0.0145941 0)
(446.821 -0.0108344 0)
(446.869 -0.00727546 0)
(446.921 -0.00687943 0)
(446.971 0.0146213 0)
(447.039 0.0142116 0)
(447.113 0.0197224 0)
(447.202 0.0253555 0)
(447.29 0.0362527 0)
(447.383 0.0455899 0)
(447.48 0.0536374 0)
(447.581 0.0604093 0)
(447.684 0.0647972 0)
(447.781 0.0687244 0)
(447.868 0.0729504 0)
(447.959 0.0720508 0)
(448.023 0.0746403 0)
(448.091 0.0712003 0)
(448.129 0.0711921 0)
(448.168 0.067843 0)
(448.184 0.0654709 0)
(448.186 0.0622116 0)
(448.175 0.0557452 0)
(448.151 0.049964 0)
(448.11 0.0379677 0)
(448.065 0.0370087 0)
(448.02 0.0328076 0)
(447.971 0.0384046 0)
(447.96 0.0473666 0)
(447.976 0.0519321 0)
(448.007 0.0642247 0)
(448.055 0.0794907 0)
(448.116 0.0889845 0)
(448.189 0.0928455 0)
(448.252 0.0995913 0)
(448.307 0.0987693 0)
(448.347 0.101626 0)
(448.352 0.0984837 0)
(448.341 0.0921941 0)
(448.309 0.0836838 0)
(448.258 0.0754718 0)
(448.189 0.0688927 0)
(448.103 0.0589892 0)
(448.004 0.050704 0)
(447.909 0.0556033 0)
(447.819 0.0584518 0)
(447.739 0.052884 0)
(447.645 0.0725058 0)
(447.63 0.0629418 0)
(447.6 0.0669899 0)
(447.555 0.075732 0)
(447.541 0.0763549 0)
(447.517 0.0815719 0)
(447.501 0.0841681 0)
(447.48 0.0873289 0)
(447.457 0.0887171 0)
(447.429 0.0886674 0)
(447.396 0.0884015 0)
(447.357 0.0878283 0)
(447.312 0.0878475 0)
(447.261 0.0866473 0)
(447.204 0.0866157 0)
(447.143 0.0849669 0)
(447.078 0.0856784 0)
(447.009 0.0838245 0)
(446.938 0.0849284 0)
(446.864 0.08294 0)
(446.788 0.0847557 0)
(446.709 0.0816631 0)
(446.628 0.0838948 0)
(446.543 0.0789307 0)
(446.458 0.0824845 0)
(446.368 0.0749694 0)
(446.246 0.0858511 0)
(446.242 0.0606855 0)
(-9.1892 19.4925 0)
(-24.2041 37.0017 0)
(-42.6735 47.9347 0)
(-57.9857 55.2982 0)
(-71.9305 56.9509 0)
(-83.5926 53.3294 0)
(-92.8783 46.4775 0)
(-101.109 39.4095 0)
(-108.149 32.5578 0)
(-113.718 26.434 0)
(-117.875 21.2949 0)
(-120.884 17.1562 0)
(-122.944 14.0025 0)
(-123.877 11.6259 0)
(-123.637 9.70914 0)
(-123.083 8.17058 0)
(-121.671 6.98454 0)
(-119.569 5.7951 0)
(-116.508 4.50257 0)
(-112.393 3.0014 0)
(-107.074 1.17777 0)
(-100.329 -0.943294 0)
(-92.0648 -3.35518 0)
(-82.2048 -6.08819 0)
(-70.5929 -9.02058 0)
(-57.244 -12.3529 0)
(-42.0944 -15.4745 0)
(-25.2634 -18.9669 0)
(-6.85948 -23.2219 0)
(13.9103 -26.7745 0)
(35.8446 -31.6428 0)
(59.9034 -35.2648 0)
(84.9251 -40.4689 0)
(111.519 -43.7295 0)
(138.506 -48.6966 0)
(165.991 -50.3527 0)
(191.485 -53.9976 0)
(216.842 -53.6926 0)
(239.755 -55.1669 0)
(261.565 -54.8413 0)
(283.98 -53.8713 0)
(301.168 -52.7676 0)
(319.563 -51.655 0)
(333.582 -49.3941 0)
(348.391 -47.661 0)
(359.41 -45.1589 0)
(371.096 -43.6841 0)
(380.188 -41.1646 0)
(389.702 -39.914 0)
(397.214 -37.735 0)
(404.626 -35.6739 0)
(410.799 -33.606 0)
(416.321 -30.6796 0)
(420.229 -28.7316 0)
(423.292 -26.4663 0)
(426.456 -25.1867 0)
(428.966 -23.2101 0)
(431.411 -21.9176 0)
(433.5 -20.0952 0)
(435.06 -18.7819 0)
(436.739 -17.5508 0)
(438.306 -15.7719 0)
(438.754 -14.8155 0)
(439.65 -13.6911 0)
(440.056 -12.7204 0)
(440.906 -12.0962 0)
(441.696 -10.9821 0)
(442.178 -10.2828 0)
(442.899 -9.32552 0)
(443.157 -8.75236 0)
(443.71 -8.07953 0)
(443.963 -7.52466 0)
(444.347 -7.09887 0)
(444.709 -6.60027 0)
(445.025 -6.22201 0)
(445.359 -5.8031 0)
(445.626 -5.58256 0)
(445.839 -5.26052 0)
(446.155 -5.0497 0)
(446.691 -4.98806 0)
(446.613 -4.69742 0)
(446.73 -4.27142 0)
(447.026 -4.02439 0)
(447.538 -4.03185 0)
(447.517 -3.79781 0)
(447.632 -3.44242 0)
(447.888 -3.2458 0)
(448.242 -3.22023 0)
(448.857 -3.39033 0)
(448.639 -3.1136 0)
(448.615 -2.67537 0)
(448.783 -2.49849 0)
(449.081 -2.49596 0)
(449.637 -2.71506 0)
(449.495 -2.50019 0)
(449.53 -2.18723 0)
(449.728 -1.9832 0)
(450.028 -2.02689 0)
(450.181 -1.93606 0)
(450.377 -1.8514 0)
(450.654 -1.79388 0)
(451.113 -1.93792 0)
(451.036 -1.74396 0)
(451.116 -1.54365 0)
(451.295 -1.41337 0)
(451.533 -1.44638 0)
(451.72 -1.38985 0)
(451.917 -1.28186 0)
(452.18 -1.21667 0)
(452.472 -1.08333 0)
(452.813 -0.932235 0)
(453.204 -0.766582 0)
(453.599 -0.744324 0)
(453.948 -0.704547 0)
(454.396 -0.816887 0)
(454.413 -0.783599 0)
(454.491 -0.802921 0)
(454.625 -0.850581 0)
(454.808 -0.842643 0)
(455.015 -0.737342 0)
(455.242 -0.574301 0)
(455.538 -0.432319 0)
(455.85 -0.361697 0)
(456.14 -0.433309 0)
(456.352 -0.436063 0)
(456.555 -0.594697 0)
(456.399 -0.581978 0)
(456.364 -0.672447 0)
(456.247 -0.718291 0)
(456.176 -0.75538 0)
(456.111 -0.745301 0)
(456.075 -0.712336 0)
(456.087 -0.65186 0)
(456.14 -0.569634 0)
(456.238 -0.46782 0)
(456.375 -0.333333 0)
(456.574 -0.255463 0)
(456.829 -0.195118 0)
(457.054 -0.191579 0)
(457.243 -0.170056 0)
(457.446 -0.194867 0)
(457.581 -0.19316 0)
(457.747 -0.218549 0)
(457.819 -0.203025 0)
(457.914 -0.19293 0)
(458.018 -0.181983 0)
(458.127 -0.168342 0)
(458.244 -0.168084 0)
(458.344 -0.110396 0)
(458.464 -0.106082 0)
(458.586 -0.0888679 0)
(458.729 -0.0735612 0)