/*--------------------------------*- C++ -*----------------------------------*\
| =========                 |                                                 |
| \\      /  F ield         | OpenFOAM: The Open Source CFD Toolbox           |
|  \\    /   O peration     | Version:  2312                                  |
|   \\  /    A nd           | Website:  www.openfoam.com                      |
|    \\/     M anipulation  |                                                 |
\*---------------------------------------------------------------------------*/
FoamFile
{
    version     2.0;
    format      ascii;
    arch        "LSB;label=32;scalar=64";
    class       volScalarField;
    location    "0.00019";
    object      alphat;
}
// * * * * * * * * * * * * * * * * * * * * * * * * * * * * * * * * * * * * * //

dimensions      [1 -1 -1 0 0 0 0];

internalField   nonuniform List<scalar> 
109340
(
0.47624463799976
0.32659972250806
0.17624926048532
0.14728834050161
0.14267490649986
0.14559047129427
0.15101274183668
0.16050034107315
0.13988405635654
0.12441979551283
0.11218074609102
0.10219712007142
0.09387892655838
0.086833980504107
0.080787446609886
0.07553957553985
0.070941121103618
0.066878075337721
0.063261722307554
0.060021917200318
0.057102407499514
0.054457493337771
0.052049595473587
0.049847455496785
0.047824781262187
0.04595920555444
0.044231458736432
0.042624684629909
0.041123833168336
0.039715055718408
0.038384998804468
0.037119799617012
0.035903342579702
0.034713729238489
0.033515127939475
0.032238846198884
0.47071140499393
0.22825548945306
0.16721170791654
0.15296013414679
0.15193051637925
0.15495366009909
0.13874029327833
0.12068700601398
0.10665985435852
0.095554733423666
0.086563856116661
0.079140510696165
0.072909415336758
0.067605750825516
0.063037533758384
0.059062217148681
0.055571745948157
0.05248270938453
0.049729677139613
0.047260551548586
0.04503324740683
0.043013324041906
0.041172282429818
0.0394863186615
0.037935368914238
0.03650235174714
0.035172554190163
0.033933102929343
0.032772471272053
0.03167997941503
0.030645186776472
0.029656995331446
0.028702070878804
0.027761668002203
0.026804113229212
0.025765366545234
0.27645734693361
0.19481093880002
0.16791246791276
0.15760997172815
0.12608372975849
0.10511382990985
0.089907662214114
0.078447947131121
0.069541566076488
0.062450380197531
0.056687809601799
0.051921355299684
0.047918173416392
0.044511391078067
0.041578758936801
0.039028895772778
0.036792227228288
0.034814878357508
0.033054350458412
0.031476359317783
0.030052816952296
0.028760623435811
0.027580813981289
0.026497810969737
0.025498679365461
0.024572593936275
0.023710407806021
0.022904146906747
0.02214675288136
0.021431680401419
0.020752471303008
0.020102218799035
0.019472417935825
0.018851149019606
0.018218770024698
0.017531751177128
0.15887542911546
0.16048529092226
0.10071727148062
0.073319946622634
0.057676312644746
0.047574694154911
0.040534326458295
0.035358369240374
0.031400769858123
0.028282368415933
0.025766104833674
0.023696005520257
0.021965261168125
0.020498370715965
0.019240597762447
0.01815136341983
0.017199878896311
0.016362010215842
0.015616167614789
0.014943854628297
0.014331305269062
0.013768756469356
0.013249127693527
0.012767144299176
0.012318698126859
0.011900416421363
0.011509144176943
0.011142460873418
0.010798054861215
0.010473653380784
0.010166665723313
0.0098731969102627
0.009586925583569
0.0093000255231248
0.0090031783747119
0.0086753508489145
0.095679276983745
0.031277356156158
0.019018528193026
0.013791980431831
0.010911885296252
0.0091038988815785
0.0078740279092155
0.0069902760144743
0.0063292858882386
0.0058200171944815
0.0054189600002663
0.0050985198880714
0.0048404200478076
0.0046323477566442
0.0044659276250271
0.0043352935593208
0.0042352559915109
0.0041571344928787
0.0040867182386514
0.0040163802298415
0.003945444649754
0.003876167304082
0.0038109408545038
0.0037513910671614
0.0036983909950199
0.0036523323916353
0.0036132356623876
0.0035808811178305
0.0035553208850277
0.0035361096306916
0.0035221868388252
0.0035123696780127
0.0035049523070976
0.0034966963684549
0.0034793282740651
0.0034288512593044
0.00024095117516361
0.00035963078677979
0.00046270843715272
0.00054312868751334
0.00060060601934952
0.00063850309090198
0.00066127879336481
0.00067310828454821
0.00067731384778189
0.00067665184004219
0.00067271689557136
0.00066676546808295
0.00065966129215625
0.00065198700855239
0.0006441332783761
0.00063637766602406
0.00062890013582433
0.00062182038445568
0.00061526047264495
0.00060937050667228
0.00060401240916693
0.00059909367870488
0.00059456233652548
0.00059038253737968
0.00058651936926691
0.00058293264665315
0.00057957360949265
0.00057638129839664
0.00057327567785139
0.00057014631064473
0.00056683344381711
0.00056308144734198
0.00055845720823673
0.00055206544558301
0.00054127858208363
0.00051442728774131
0.028484746233553
0.015321457137206
0.0082689217088184
0.0050882574456738
0.0033900555559574
0.0022953000509024
0.0015488647507269
0.0010340513212464
0.00069838315290658
0.00050957427417349
0.00041489510194466
0.00041405818687653
0.00038178544686105
0.00034045684571485
0.00029439107074035
0.00024762236263537
0.00020741931494501
0.00017261367108701
0.00014403175502179
0.00012167526001143
0.00010322443386664
8.7850235272114e-05
7.3664829989943e-05
5.9572591707433e-05
4.8733159502919e-05
4.0212858025965e-05
3.3450093623396e-05
2.8271424978397e-05
2.3863543166626e-05
2.0420906425885e-05
1.758224333803e-05
1.5182845687103e-05
1.3274375609173e-05
1.1580082504162e-05
1.0241482575989e-05
9.0214903800609e-06
8.0527396737551e-06
7.1586507875042e-06
6.4391842408234e-06
5.7748574991501e-06
5.2269326838873e-06
4.7288621178068e-06
4.2995349932269e-06
3.9225837746016e-06
3.578357922513e-06
3.2864373268559e-06
3.0108663914835e-06
2.7796296979658e-06
2.5603048777703e-06
2.3717060174343e-06
2.1975466121696e-06
2.0399947790566e-06
1.8977824410787e-06
1.7685208759168e-06
1.6508423865165e-06
1.5434218258872e-06
1.4451808874253e-06
1.3551807751704e-06
1.2726071627812e-06
1.1966996186513e-06
1.1267744599192e-06
1.0622336806675e-06
1.002569605313e-06
9.4733734872203e-07
8.9612135171257e-07
8.485421233212e-07
2.1264589101771e-06
0.00022144004063055
0.001030758082746
0.00099576714064796
0.00089274491405658
0.00081393280872868
0.00075416257561862
0.00070795575203071
0.00067101983637673
0.00064023652783823
0.00061360416847872
0.00058986221847783
0.00056823851080925
0.00054834907167442
0.00053018103611572
0.00051396502546434
0.00050000134248752
0.00048845979430914
0.00047816780786576
0.00047116328526405
0.00046551591021279
0.00046072837095109
0.00045640132627116
0.00045228383040942
0.00044829381529842
0.0004444783553832
0.0004409901309698
0.00043807121135427
0.00043600753045636
0.00043500245943118
0.00043494191477255
0.00043508905421359
0.0004339525717504
0.00042934441513038
0.00041857107561876
0.00039907130794327
0.00036914387164748
0.00032884744659045
0.0002676058951131
0.00021934754006921
0.00018087634285655
0.00015407890176866
0.00013690142463347
0.00012687114423822
0.0001214232529274
0.00011842930993443
0.00011683982396898
0.00011615204938092
0.0001159749275484
0.00011597100952043
0.00011599019896361
0.00011593947093288
0.00011574887294242
0.00011540394166321
0.00011489790562905
0.00011426088212027
0.00011357928234196
0.00011290972166952
0.00011227948970935
0.00011169997224063
0.00011116875925475
0.00011067254601716
0.00011018498850742
0.00010968152185591
0.00010914867379691
0.00010859137849858
0.00010801927808184
0.0001074532276618
0.00010692435886842
0.00010648490755758
0.0001061601914357
0.00010589448657115
0.00010546125405022
0.00010449681021667
0.021831745985596
0.011831043421556
0.0069334062142303
0.0045375777664629
0.0030652492696575
0.0020537160827691
0.001374594960545
0.00091486363718729
0.0006086941672449
0.00041335706607777
0.00029214628587238
0.00022361851908375
0.0001829721841967
0.00015425996969505
0.00013395688505877
0.00011854906032345
0.00010632001910377
9.6437626153559e-05
8.7432007632721e-05
7.9251281217699e-05
7.1932858115699e-05
6.5447031171344e-05
5.9628763719004e-05
5.4440585937814e-05
4.5468815896817e-05
3.7634254109836e-05
3.1440943437972e-05
2.6498801008187e-05
2.2524319070201e-05
1.9278228562656e-05
1.662616049478e-05
1.4423797936619e-05
1.2592521902776e-05
1.1049834878021e-05
9.7480473947731e-06
8.6387789169849e-06
7.6912894898426e-06
6.8753726243864e-06
6.1716331083339e-06
5.5590060906625e-06
5.0263857100053e-06
4.558131745213e-06
4.1478781098625e-06
3.7838651350278e-06
3.4628354416631e-06
3.1760256063967e-06
2.9212257265731e-06
2.6924418816584e-06
2.4875600896504e-06
2.3028197001477e-06
2.1361415614621e-06
1.9850959303402e-06
1.8479100572022e-06
1.7232833140824e-06
1.6096500154355e-06
1.5058963458872e-06
1.4109409404791e-06
1.3239027711273e-06
1.2439566960313e-06
1.1703936062631e-06
1.1025721760849e-06
1.0399354384876e-06
9.8198739298052e-07
9.2829779472457e-07
8.7849102506376e-07
8.3218619627239e-07
9.8131993001512e-06
0.00049667530192938
0.0010531045992676
0.00096705404338584
0.0008698064322221
0.00079663216714699
0.00074088533274249
0.00069744202373298
0.00066233681702056
0.00063278202135108
0.00060699948969581
0.00058387310674053
0.00056273134827579
0.00054329274211158
0.00052562071370939
0.00050997859276912
0.00049664676361469
0.00048573366340786
0.00047798952246332
0.00047098509208524
0.00046534899485463
0.0004605663456986
0.00045624117903175
0.00045212277871446
0.0004481295454342
0.00044430846178534
0.00044081162898832
0.00043788041268196
0.00043580037138521
0.00043477544140556
0.00043469405203075
0.000434824551056
0.00043368222035874
0.00042908767049078
0.00041835464732069
0.00039892518703168
0.00036909283369461
0.00032889959299889
0.00026775952930458
0.00021948284030938
0.00018089860222023
0.00015395890816141
0.00013665570626532
0.00012652394970376
0.00012099798174308
0.00011794655796789
0.00011629772780305
0.0001155494413923
0.00011531991431788
0.00011526698201923
0.00011524001136914
0.00011514962033227
0.00011492750011194
0.00011456197212676
0.00011404539036936
0.00011340805079464
0.00011273260519836
0.00011207272167361
0.00011145631117611
0.00011089337439762
0.00011038067165403
0.00010990461374946
0.00010943884440247
0.00010896067719004
0.00010845731006146
0.00010793244962841
0.00010739675552001
0.00010687228099861
0.00010638979772235
0.00010599871492429
0.00010571849079334
0.00010549214750616
0.00010509346433879
0.0001041518803698
0.01590684592898
0.0079176629629208
0.0047741254481815
0.0031816341080097
0.0021110623452775
0.0014518030543487
0.00099199144059894
0.00068584471863902
0.00048298881290032
0.00034931336438883
0.00026855808352152
0.00021188953225731
0.00017389620865236
0.00014653330305303
0.00012540857147936
0.00010860551835318
9.5195513817216e-05
8.3919390688838e-05
7.3837756284347e-05
6.5241159352893e-05
5.8190309260596e-05
5.2235271854256e-05
4.717774251613e-05
4.2974243084897e-05
3.9419088730149e-05
3.6342832759049e-05
3.0765487530429e-05
2.5933111618114e-05
2.2042018617897e-05
1.8875375734713e-05
1.627401782698e-05
1.412658963068e-05
1.2332588356421e-05
1.0829954791478e-05
9.5561754448802e-06
8.4761666964816e-06
7.5494402264966e-06
6.7543477268389e-06
6.0647180957729e-06
5.467384116817e-06
4.9447130461287e-06
4.48776683839e-06
4.0845795730005e-06
3.7289463409411e-06
3.4132337188814e-06
3.1324189791046e-06
2.8819224207911e-06
2.6573857241366e-06
2.4561445613697e-06
2.2744690187472e-06
2.1107082555548e-06
1.9621391231632e-06
1.8273220966501e-06
1.7045348421155e-06
1.5926038001237e-06
1.490382116891e-06
1.39682144288e-06
1.3110292611294e-06
1.2321971336505e-06
1.1596348386961e-06
1.092717960442e-06
1.0308987483328e-06
9.7368638931592e-07
9.2065629255153e-07
8.7145041695815e-07
8.252778881851e-07
1.0439639931003e-05
0.00050866296954509
0.0010530607218784
0.0009653709336919
0.00086844870159619
0.00079563759199462
0.00074011982726437
0.00069678965646045
0.00066175250965883
0.00063225785144514
0.00060653187040656
0.00058345863982652
0.00056236882673539
0.00054298407562364
0.00052536602413626
0.00050977402810329
0.0004964829854804
0.00048559632875125
0.00047787886565847
0.00047087626638519
0.00046523991580866
0.00046045444262095
0.00045612691881049
0.00045200810523726
0.00044801698548325
0.00044419966923964
0.00044070656833891
0.000437777353123
0.00043569640145189
0.00043466842915917
0.00043458605270284
0.00043472619457314
0.0004336137298698
0.00042908118527529
0.00041844968872185
0.00039916284418589
0.00036950269463864
0.0003294823768812
0.00026848912916993
0.0002201148512307
0.0001812264900201
0.0001539185408028
0.00013627282048774
0.00012585985372931
0.00012012335958071
0.00011691434076553
0.00011512679707474
0.00011423667757553
0.0001138876642545
0.00011372357515415
0.00011360161609575
0.00011342829744811
0.00011314214422984
0.00011273507257199
0.00011219631229905
0.00011155946021284
0.0001109023997152
0.00011026924091478
0.00010968792177295
0.00010916615271029
0.00010869891187208
0.00010827185307751
0.00010785837856021
0.00010743861239561
0.0001070005669145
0.00010654580439506
0.00010608803090068
0.00010565036288736
0.00010526213372363
0.00010496747061858
0.00010477903321624
0.00010463454234066
0.00010431258143934
0.00010342281872647
0.0082778818686743
0.0044171640118759
0.002701086507881
0.0017525208585949
0.0012088138692443
0.00086820335397076
0.00064733328539027
0.00049703805003374
0.00039128671592904
0.00031714584029751
0.0002587440311064
0.00021180378088671
0.00017463213903238
0.00014571036897176
0.00012331816603177
0.0001060771101898
9.2085205529336e-05
8.0496516939861e-05
7.0518764904854e-05
6.1758102776411e-05
5.413069261577e-05
4.7902502374092e-05
4.2774394872086e-05
3.842164028223e-05
3.4779211613895e-05
3.1799371776389e-05
2.9243696445848e-05
2.5371749089437e-05
2.1573503491029e-05
1.8484313584367e-05
1.5942402222548e-05
1.3838706985642e-05
1.2084121771306e-05
1.0610311031275e-05
9.3639002101718e-06
8.3037643366492e-06
7.3973761772213e-06
6.6177976093104e-06
5.9442459228918e-06
5.3591712908903e-06
4.8486764805414e-06
4.4018579393728e-06
4.0082628109255e-06
3.6610838133024e-06
3.3526465719195e-06
3.0785378230364e-06
2.8333842893176e-06
2.614085919576e-06
2.4168410591051e-06
2.2391894044879e-06
2.078656919012e-06
1.9331681494109e-06
1.8010587755929e-06
1.6806625321633e-06
1.5708715042464e-06
1.4705262315359e-06
1.3786729621206e-06
1.2944151061122e-06
1.2169796728106e-06
1.1456788764953e-06
1.0798979360264e-06
1.0191004738685e-06
9.6281244453235e-07
9.1062476925378e-07
8.6219859099957e-07
8.159609155101e-07
1.1273270308115e-05
0.00052632820663226
0.0010528915334849
0.00096302861355729
0.00086652007202242
0.00079419793859455
0.00073900506050462
0.00069584400987256
0.00066090931520339
0.00063150237968463
0.00060585795261092
0.0005828615023721
0.00056184712287444
0.00054254012234538
0.00052499989502641
0.00050948011433995
0.00049624826413766
0.00048540232525268
0.00047772046430602
0.00047072490731259
0.00046508751812716
0.00046029750306046
0.00045596653641177
0.00045184769687381
0.00044786072787657
0.00044405055644914
0.00044056520973358
0.00043764175936138
0.00043556288958791
0.00043453444514962
0.00043445537163684
0.00043461530188782
0.00043355312044314
0.00042911924938008
0.0004186471997752
0.00039958184215925
0.00037018628512604
0.00033043213708394
0.00026968638038442
0.00022117287866917
0.00018182529863038
0.00015394731701445
0.00013575805420551
0.00012489574876108
0.00011882631489644
0.00011536443512589
0.00011336035114485
0.00011226024254174
0.0001117282737174
0.00011140031714946
0.0001111354496581
0.00011084202270015
0.00011046363160607
0.00010999709639285
0.00010942973163237
0.00010880252846748
0.00010817750782969
0.00010759338781899
0.00010707200560699
0.00010661887724975
0.00010622668275031
0.00010588043798149
0.00010555398197694
0.0001052284307463
0.00010489295834522
0.0001045488951688
0.00010421197992369
0.00010390386789891
0.00010365317962507
0.00010349657767559
0.00010343889401667
0.00010341038152491
0.00010319772178364
0.00010237885360363
0.0032053897910834
0.0022644499926613
0.0015955287802316
0.0012085461043333
0.00093202336801624
0.00071744175560685
0.00057010454809978
0.00046540373222254
0.00038693754333197
0.00031482310705457
0.00026123207729829
0.00021712377583969
0.00018059454685666
0.00015102000519712
0.00012659654787509
0.00010697930814427
9.1821430493319e-05
7.9287373633305e-05
6.8691691950966e-05
5.9902833100401e-05
5.2610296004965e-05
4.629059784834e-05
4.0996047832797e-05
3.6669482051456e-05
3.2999470851327e-05
2.9839119089794e-05
2.7214925434424e-05
2.4767258068598e-05
2.1093516828017e-05
1.8089160344743e-05
1.5615310164184e-05
1.356241144136e-05
1.1848612614555e-05
1.0405840601495e-05
9.1865271132683e-06
8.1476801724663e-06
7.2593526052636e-06
6.4947019623742e-06
5.8343588142213e-06
5.260093105584e-06
4.7596049070448e-06
4.3206737815919e-06
3.9346556129257e-06
3.5933348558749e-06
3.2907638510828e-06
3.0216718931683e-06
2.7814740735765e-06
2.5665218937912e-06
2.3732704586209e-06
2.1994584000331e-06
2.0423073428106e-06
1.900061110677e-06
1.7708517262154e-06
1.6532059498564e-06
1.5457952121165e-06
1.4475492718181e-06
1.3575844539295e-06
1.275044921833e-06
1.1991803879369e-06
1.12929821555e-06
1.0648021441588e-06
1.0051696895205e-06
9.499449649326e-07
8.9873176966289e-07
8.5120136663529e-07
8.0553082025218e-07
1.237977048744e-05
0.00054946045259009
0.0010526605199151
0.00096010852584409
0.00086406862796495
0.00079232714577181
0.00073754247280376
0.00069460729063312
0.00065981186563143
0.00063052072015925
0.00060498233728171
0.00058208601874928
0.00056117006012632
0.00054196406441499
0.00052452491733777
0.00050909866924824
0.00049594346562601
0.00048515110041064
0.00047751052412965
0.00047052550779615
0.00046488653400778
0.00046009048494606
0.00045575512721532
0.00045163658180722
0.00044765571282413
0.00044385575524824
0.00044038172851347
0.00043746724252341
0.00043539267872533
0.00043436530390599
0.0004342922292198
0.0004344799497253
0.0004334859355076
0.00042918488147181
0.00041892639667763
0.0004001584408555
0.00037111925428689
0.00033172567211433
0.00027133492348774
0.00022265497626471
0.00018270868258031
0.00015406664502286
0.00013513602461773
0.00012365779870592
0.00011712832860165
0.00011331506215026
0.00011102653313926
0.0001096496321594
0.00010887258107465
0.0001083309333455
0.00010788189359903
0.00010743725994681
0.00010694589920191
0.00010640812939128
0.00010581605902911
0.00010521292878182
0.0001046426243917
0.00010413646220722
0.00010370801239206
0.00010336007290781
0.00010308044343671
0.00010285485349717
0.00010265874917443
0.00010247161213369
0.00010228362910105
0.00010209087317589
0.000101914155994
0.00010177178902987
0.00010169325035857
0.00010170540504782
0.00010180616435742
0.00010191929623753
0.00010183912081349
0.00010110294618255
0.0010984465980354
0.00095831274206958
0.00098934690093961
0.0010325711731243
0.0010755995677569
0.00093730455030008
0.00071203775623697
0.00054142822592646
0.00041970560778308
0.00033785323898077
0.0002754568187601
0.00022716661152779
0.00018856512183633
0.00015714196732334
0.00013153792645507
0.00011060811614296
9.3514361036487e-05
7.9569993399752e-05
6.8255426793779e-05
5.901765876597e-05
5.1446629758901e-05
4.5305546478149e-05
4.0133751621395e-05
3.5738272451411e-05
3.207942083568e-05
2.8968784892228e-05
2.6280723278678e-05
2.3982439243935e-05
2.0577144734159e-05
1.7676138552198e-05
1.5280612737527e-05
1.3284886769825e-05
1.161559309305e-05
1.0209519607528e-05
9.0170882688797e-06
8.0012512353518e-06
7.1311984234381e-06
6.3819795304002e-06
5.7334699293544e-06
5.1700804673669e-06
4.6784056221532e-06
4.2471300034219e-06
3.8676025815727e-06
3.5321168301477e-06
3.2348082349349e-06
2.9700999628096e-06
2.7340139373025e-06
2.5226444367024e-06
2.3329002710802e-06
2.1619654732361e-06
2.0075019417292e-06
1.8676755471959e-06
1.7406755297336e-06
1.6251429258701e-06
1.5197108344518e-06
1.4233512697791e-06
1.3351087721151e-06
1.2541762057119e-06
1.1798198878413e-06
1.111349793267e-06
1.0481876612495e-06
9.897988021406e-07
9.3571073209334e-07
8.855298391983e-07
8.3892523977622e-07
7.9467829368544e-07
1.3830185658872e-05
0.00057695031116057
0.0010521186806728
0.00095664762413099
0.00086115185579858
0.00079004875549607
0.00073573669428674
0.00069308225692482
0.00065846440594653
0.00062931704161651
0.00060390903341851
0.00058113571085865
0.00056034114046487
0.00054125923499349
0.00052394326617172
0.00050863068531177
0.00049556885635017
0.00048484205056811
0.00047724939149538
0.00047027748191783
0.00046463582609403
0.00045983197308336
0.00045549132315473
0.00045137339733538
0.00044740051391572
0.0004436137072105
0.00044015435103484
0.0004372517641261
0.00043518341310974
0.00043415818127659
0.00043409316787721
0.00043431559043039
0.0004334062096303
0.00042926978317311
0.00041927682658901
0.00040088184087669
0.0003722933685746
0.00033334850050945
0.00027343401349832
0.00022457758056079
0.0001839132159497
0.00015432291524009
0.00013445258442075
0.00012218365871816
0.00011506061904405
0.00011079678877305
0.00010814897550834
0.00010643688712786
0.00010535601633715
0.00010455614295398
0.00010388796151562
0.00010326853487325
0.00010265345387237
0.00010204358935588
0.00010144449835367
0.00010089150702564
0.00010041079037708
0.00010002284007889
9.9730779767872e-05
9.953393407003e-05
9.9421035491772e-05
9.9369419748931e-05
9.9355176817707e-05
9.9357599162509e-05
9.9363243509086e-05
9.9363224052137e-05
9.9373446139824e-05
9.9419265640767e-05
9.9534580656104e-05
9.9731209529669e-05
0.00010000203374908
0.0001002798980872
0.0001003427444587
9.968452092398e-05
1.5054122788721e-05
0.00019808224119284
0.00028268649443287
0.0003793493357221
0.00046465350288376
0.00054015143771566
0.0006116679092319
0.00066192453781967
0.00050963003200299
0.00039542200047974
0.00031348963741283
0.00025418583479821
0.00020841893179433
0.00017210782866535
0.00014292956614856
0.00011920214943898
9.9796636140324e-05
8.4110537326174e-05
7.143441700918e-05
6.1161382243932e-05
5.2872458635787e-05
4.6143139383698e-05
4.0666206931543e-05
3.6167965822879e-05
3.2274655248489e-05
2.9105988930927e-05
2.6381768666382e-05
2.4035753778707e-05
2.0820577811414e-05
1.7887404151925e-05
1.5465749431821e-05
1.3450445781445e-05
1.1758788648841e-05
1.0331957185527e-05
9.1230052525445e-06
8.0929005582445e-06
7.2088672402405e-06
6.4481685639435e-06
5.7899362821287e-06
5.2179116052409e-06
4.7182276848702e-06
4.2806205533433e-06
3.8956063956361e-06
3.5554208106295e-06
3.2538336409554e-06
2.985696281757e-06
2.746669820218e-06
2.5327551086372e-06
2.3408211443494e-06
2.168062388783e-06
2.0121718864335e-06
1.8710956784311e-06
1.7430406406235e-06
1.6266115336499e-06
1.520501910195e-06
1.4236202471762e-06
1.3349282942246e-06
1.2535993259151e-06
1.1789054153054e-06
1.1101785023793e-06
1.0468155055578e-06
9.8827308603354e-07
9.3408629554648e-07
8.8384475864759e-07
8.3720913246103e-07
7.9388231538969e-07
4.0856758579699e-06
0.00033457197573391
0.0010454785751064
0.00098043563504762
0.00087887498938497
0.00080318226344451
0.0007458048514557
0.00070099318553623
0.00066488104341053
0.00063473620322467
0.00060867539680081
0.00058546822506177
0.00056436217829452
0.00054500363983725
0.00052737441520876
0.00051167145257227
0.00049814657262363
0.00048692634623749
0.00047693528717954
0.0004699790291559
0.00046433444965646
0.00045952112175584
0.00045517396958086
0.00045105701038767
0.00044709398216591
0.00044332323189851
0.00043988182814064
0.00043699399407821
0.00043493364788346
0.0004339113895767
0.00043385602213021
0.00043411925343471
0.0004333094627569
0.00042936744474052
0.00041968976116922
0.00040173905652477
0.00037370014379471
0.00033531981403935
0.00027735510554194
0.00022823164573604
0.00018632214158531
0.00015502332742193
0.00013341425253334
0.00011964205394416
0.00011138468519462
0.0001062722909701
0.00010293413690447
0.00010063820110472
9.9007810157508e-05
9.7752291058674e-05
9.6707437082848e-05
9.5800345257546e-05
9.5004094915041e-05
9.4316399184872e-05
9.3762583382324e-05
9.3350989949725e-05
9.3087185491622e-05
9.2977026876854e-05
9.3011157662842e-05
9.3164018924587e-05
9.342501526617e-05
9.3752667747315e-05
9.4122107006569e-05
9.4492037498187e-05
9.482982682185e-05
9.5142592771121e-05
9.5451759464546e-05
9.5791961482337e-05
9.6199866771428e-05
9.6683407437925e-05
9.7221505311437e-05
9.774801453034e-05
9.8015780586788e-05
9.7480843179948e-05
3.3516222556447e-06
2.2995045905628e-05
4.895952440534e-05
7.8907968529769e-05
0.00011445222063096
0.00015588639172987
0.00019838269436965
0.00024202942429821
0.00028242701234358
0.00030936821944771
0.00031602069042378
0.00026260551416036
0.00021186046735592
0.000172643999414
0.00014206821334362
0.00011798238323427
9.8385488338838e-05
8.2538507993594e-05
6.9807935628982e-05
5.9528740288937e-05
5.1212557481095e-05
4.4463140521402e-05
3.8933681622186e-05
3.4398273074018e-05
3.0711791447357e-05
2.7648378568049e-05
2.4925399595856e-05
2.2004536551013e-05
1.889730303485e-05
1.6325815936517e-05
1.4187462929731e-05
1.2392124627535e-05
1.088133226972e-05
9.6002071952906e-06
8.507885203147e-06
7.5695725301623e-06
6.7621753298876e-06
6.0638305647946e-06
5.4571448967257e-06
4.9271123820203e-06
4.4630003818753e-06
4.0550959706276e-06
3.6952619201965e-06
3.3764241102662e-06
3.093130322882e-06
2.8408084051335e-06
2.6153426349649e-06
2.4132782420203e-06
2.231609403085e-06
2.0680011367938e-06
1.9201681758031e-06
1.7862550816858e-06
1.6646248475787e-06
1.5539380395568e-06
1.4530536888493e-06
1.3608874055341e-06
1.2765254528152e-06
1.1991197263858e-06
1.1279834950778e-06
1.0625033470451e-06
1.002121352058e-06
9.4634213949173e-07
8.9471921439018e-07
8.4686097849802e-07
8.0243440812286e-07
7.608134042173e-07
2.1943256644434e-05
0.00068310473564427
0.0010444091835181
0.00094244328914079
0.00084988162624078
0.00078101675192055
0.00072837691938831
0.00068683466363832
0.00065297318046079
0.00062442547200414
0.00059955145929591
0.00057728214171274
0.00055698618806757
0.00053840788232101
0.00052158503461192
0.00050672463128781
0.00049403279040325
0.00048356432151672
0.00047614543144918
0.00046922533566854
0.00046357286366846
0.00045873686703204
0.00045437452030968
0.00045026051104227
0.00044632298256978
0.00044259330104047
0.00043919764708601
0.00043634772249309
0.00043430838648566
0.00043329403183087
0.00043326112334608
0.00043362062263232
0.00043304918107873
0.0004295765492319
0.00042066583354063
0.00040380364525957
0.00037711844795023
0.00034016967528987
0.00028407214315269
0.0002348257603435
0.00019115435942332
0.00015713800762688
0.00013259098431925
0.00011607596497624
0.00010573569132997
9.9087191167945e-05
9.4528166799621e-05
9.1226868487147e-05
8.8746019970383e-05
8.6794407924406e-05
8.5234527790494e-05
8.4011573466814e-05
8.3112912576918e-05
8.2549441673037e-05
8.2315438532227e-05
8.2383131620952e-05
8.2716529298197e-05
8.3302740602469e-05
8.4093408832221e-05
8.5031394308021e-05
8.602588723215e-05
8.7029157245609e-05
8.7995638437256e-05
8.8898289090226e-05
8.9726108767864e-05
9.0483629775156e-05
9.1196274490744e-05
9.1899773518837e-05
9.2640132287916e-05
9.3429313233481e-05
9.4244573853577e-05
9.4990351064911e-05
9.5437114716033e-05
9.5069657320693e-05
3.0561506563832e-06
7.7332727325106e-06
1.4889906275862e-05
2.486771049121e-05
3.8104867522786e-05
5.4455149148964e-05
7.422153986399e-05
9.6468398511938e-05
0.0001206573926459
0.00014534407819935
0.0001665027810402
0.00017714076224387
0.0001763346036194
0.00016437953416681
0.00014228156870167
0.00011758937030089
9.8351392501565e-05
8.2766829946252e-05
7.0112542307943e-05
5.977007531789e-05
5.1416047398742e-05
4.4590108521991e-05
3.8988401296807e-05
3.4356031992722e-05
3.0511524042458e-05
2.7309722475118e-05
2.3811045676124e-05
2.0502973426369e-05
1.7734387757151e-05
1.5405143827692e-05
1.3440732528036e-05
1.1782661814079e-05
1.037526038854e-05
9.1775326815771e-06
8.1499724654131e-06
7.2670041628994e-06
6.5060176614962e-06
5.8465316992911e-06
5.2709392244162e-06
4.7666168652147e-06
4.3239583399032e-06
3.9337035154639e-06
3.5883487802076e-06
3.2815319980289e-06
3.008680784311e-06
2.7650641289689e-06
2.5470335729579e-06
2.3512074832483e-06
2.1750126051122e-06
2.0161144649903e-06
1.87241311263e-06
1.7421022865252e-06
1.6236316680272e-06
1.5158103661352e-06
1.4174493123029e-06
1.3275537656034e-06
1.2452127759638e-06
1.1696440626029e-06
1.1001980023672e-06
1.0362492884293e-06
9.7726253038136e-07
9.227577358129e-07
8.723086625117e-07
8.255530281224e-07
7.8215264094969e-07
7.4361349013081e-07
3.544166340011e-05
0.00077324961258188
0.0010343284245796
0.00092971248631007
0.00084019087563345
0.00077329005858197
0.00072197884531905
0.00068136020974682
0.00064816911323676
0.00062015434671115
0.0005957529209042
0.00057392933441422
0.00055407247884999
0.00053593101589332
0.00051953028947
0.00050505268323262
0.00049267136278756
0.00048241763420556
0.00047513479333509
0.00046825549306459
0.00046259146006371
0.00045772746431781
0.00045334746670758
0.00044923855487712
0.00044533448655096
0.00044165783465825
0.00043832112942981
0.00043552047373975
0.00043350908642036
0.00043250482274819
0.00043249609810514
0.00043296413886248
0.00043267356595434
0.00042976050587999
0.00042177760837548
0.00040624696698085
0.00038124629017227
0.00034613455309609
0.00029245823772091
0.00024354130440058
0.00019826633770445
0.00016127493806007
0.00013317193462147
0.00011312313124107
9.9889008497805e-05
9.1180877713886e-05
8.5091991716591e-05
8.062291422183e-05
7.7255585174695e-05
7.4692298286147e-05
7.2809375133181e-05
7.1551988439171e-05
7.0938444016276e-05
7.0934895612593e-05
7.1465017067969e-05
7.2456878163556e-05
7.3833653432822e-05
7.5479340965526e-05
7.7282002555138e-05
7.9144803644164e-05
8.0992731794608e-05
8.2746719783123e-05
8.4340700603669e-05
8.57434078972e-05
8.6955618410224e-05
8.8008313868455e-05
8.8954870150113e-05
8.9845677042381e-05
9.074010899476e-05
9.1638965815889e-05
9.2553443252127e-05
9.3355750471726e-05
9.3843799396444e-05
9.3583693855075e-05
2.7339077790938e-06
4.8851704165091e-06
6.8360159672517e-06
1.0920682608477e-05
1.6627530968762e-05
2.4091467084882e-05