/*--------------------------------*- C++ -*----------------------------------*\
| =========                 |                                                 |
| \\      /  F ield         | OpenFOAM: The Open Source CFD Toolbox           |
|  \\    /   O peration     | Version:  2312                                  |
|   \\  /    A nd           | Website:  www.openfoam.com                      |
|    \\/     M anipulation  |                                                 |
\*---------------------------------------------------------------------------*/
FoamFile
{
    version     2.0;
    format      ascii;
    arch        "LSB;label=32;scalar=64";
    class       volScalarField;
    location    "0.00019";
    object      cSound;
}
// * * * * * * * * * * * * * * * * * * * * * * * * * * * * * * * * * * * * * //

dimensions      [0 1 -1 0 0 0 0];

internalField   nonuniform List<scalar> 
109340
(
555.98266254704
554.91931831164
552.89059576914
550.42484860345
547.68764365604
544.81973435301
541.87609857384
538.88514716804
535.88024570567
532.79285940913
529.48982344644
525.84916609511
521.73102788273
516.9748420049
511.40409819559
504.83270068931
497.07065857776
487.93319619036
477.2505609971
464.88008351986
450.7171810797
434.71067944286
416.87443235212
397.29523836952
376.13264692226
353.61290681713
330.01361038639
305.64178355796
280.80713501599
255.79374162851
230.83320947643
206.0805775776
181.59706758422
157.35592594061
133.30090124231
109.48727386473
556.1411864458
554.77657333345
552.49914035775
549.86487589571
547.04546356872
544.16422984848
541.25758806876
538.32387324035
535.32132023021
532.18155822635
528.80070043313
525.05390902536
520.79483043909
515.85745409505
510.06124022402
503.21653371392
495.13408386533
485.63145321237
474.54376507505
461.73591767467
447.11501811949
430.64478229842
412.35658311953
392.35579941232
370.8199855973
347.99041719786
324.15506519451
299.62502443595
274.7068900586
249.67438698815
224.74135237219
200.03640204265
175.57918301705
151.28156487339
126.95161004567
102.64219107337
556.73269133682
555.15519368604
552.64984704221
549.95378023459
547.15839581473
544.31841749199
541.42746486146
538.48551454219
535.47295450767
532.32455778514
528.93950401351
525.19209098373
520.93478547107
516.00081487468
510.2093385194
503.37136111972
495.29687599144
485.80318290948
474.72466095333
461.9255346047
447.31161989741
430.84564113807
412.5581868639
392.55392914303
371.01019925335
348.16832927697
324.31685986218
299.76791820103
274.82945070609
249.7761337145
224.82175524205
200.09077990924
175.57974945
151.13162702248
126.38964716448
100.96043613938
557.55478995513
555.65665492436
553.02746584101
550.25742417653
547.40956170828
544.51148906995
541.57282614253
538.59765736339
535.56261074224
532.40144553709
529.01354215504
525.27193327194
521.0272223554
516.11094796142
510.34022125272
503.52383059055
495.46983431079
485.99347165249
474.92635799414
462.1308786672
447.5091478474
431.02197422152
412.69859557106
392.6430635957
371.0340977766
348.11524860284
324.17880125993
299.54163883385
274.51697613469
249.38431485554
224.3608980803
199.57154533062
174.98653360901
150.36478176269
125.08968038858
97.912887167507
558.84834262531
556.38691098122
553.37727950709
550.41968243928
547.49504088853
544.5688857467
541.62133121528
538.64974138171
535.62434567234
532.47619280071
529.10591143533
525.38561088118
521.16286257229
516.26473682259
510.50218543334
503.67602746815
495.58509927194
486.03459058228
474.83703942746
461.85073118424
446.9634619235
430.13133891775
411.38457278677
390.83423885797
368.6763799098
345.17811602438
320.66182498992
295.47784014512
269.9729594345
244.45718876581
219.16997422682
194.26546785313
169.69762361198
145.16751844071
119.78334168109
90.870263418085
561.2520736649
556.77497410495
553.46115663244
550.44210401746
547.51383295735
544.5936888675
541.65329608444
538.67708480221
535.61776288592
532.3782132822
528.82121925829
524.77102692718
520.01881182194
514.32888315764
507.44743039546
499.11493542823
489.08288356826
477.14059680771
463.14990198611
446.94118220342
428.49730158175
407.90568665048
385.37056840249
361.20915137659
335.83097255688
309.70224705329
283.30375850129
257.08743019055
231.43872307262
206.64835579111
182.88725047396
160.24707055584
138.57969563345
117.53731896803
96.196963935246
70.961724975322
86.945443698766
68.052729083132
54.113952576403
44.659008090916
38.470612603467
34.292609405472
31.486975304324
29.66930938062
28.594036930439
28.098125562219
28.01950792692
28.402037949426
29.013199154376
29.809385833714
30.724303183782
31.692684977929
32.673725423461
33.636535586011
34.562869706528
35.443794231996
36.27363396736
37.049906318619
37.774127548812
38.449211506779
39.078150605192
39.663509006159
40.208980917803
40.720227544958
41.195941022439
41.643114174333
42.062475106509
42.456194746924
42.828005187627
43.177612671931
43.509272649538
43.822002131605
44.119698235456
44.401336691972
44.670154052395
44.925395577845
45.169491089452
45.402175881304
45.624920557385
45.838181366268
46.042366670732
46.238661201146
46.426756039733
46.608097254586
46.78222468425
46.950289580057
47.112193661714
47.268455408516
47.4194054109
47.565322079396
47.706473908024
47.843114134368
47.97547506483
48.103777922034
48.228228142209
48.349015359669
48.466315045702
48.580292496672
48.69110303177
48.798892483649
48.903796726592
49.005938568549
49.105065303818
49.743686051357
50.593177397853
51.016604376602
51.389587823663
51.739039312763
52.066623557814
52.373904229691
52.663470823453
52.938624864695
53.202642388072
53.458189136093
53.706947646073
53.949325315782
54.184346643177
54.409848933122
54.623061651148
54.821436465604
55.0254246971
55.189038517976
55.338020025536
55.475048935922
55.60334837695
55.726369739248
55.847637149648
55.970518849325
56.098792036406
56.236634635824
56.388498312157
56.558715395343
56.750667115018
56.965652762747
57.201895949992
57.454151303586
57.714193066839
57.971794123962
58.215482540842
58.433936816216
58.658878391955
58.781993461515
58.853685046987
58.885335506972
58.896780503704
58.90421146475
58.91553420739
58.933567807759
58.95900796837
58.99176173314
59.031652518669
59.078143890239
59.130663017003
59.188695204588
59.251798563779
59.319835550814
59.393170229099
59.472851808081
59.560176766571
59.656416395638
59.762349891201
59.878104799326
60.003079834301
60.135896413043
60.274527574961
60.416496164162
60.558985923293
60.698610154076
60.83239074042
60.957741627927
61.073230879976
61.178512994755
61.276355505514
61.380017354619
61.52482920475
61.799907347073
79.516277611757
61.202543038256
48.765473377635
40.882670532743
35.720047360011
32.378550326158
30.206119391534
28.87683781181
28.178758752945
27.96311372709
28.126575706551
28.572262299285
29.271392949074
30.107391540109
31.027245278139
31.990272816359
32.956549841494
33.90208116617
34.810946313823
35.673330635389
36.484926685361
37.244810600383
37.95398097103
38.614855995146
39.230509996727
39.804543597406
40.340152977107
40.840686282222
41.309204314186
41.748271193696
42.160753202468
42.548691784308
42.914377553435
43.259524331567
43.585961696888
43.895116000979
44.188434900555
44.467107955775
44.732302689112
44.984973123371
45.226105337463
45.456449584896
45.676842336635
45.887873333764
46.090262462328
46.28448758478
46.471148292287
46.65065309171
46.823487869591
46.990015473693
47.150633247896
47.30566314855
47.455424552259
47.600220227012
47.740306805573
47.875937702334
48.007340073913
48.13473146943
48.258311321865
48.378267280299
48.494773001195
48.607991881826
48.718076528346
48.825171490584
48.929413550675
49.030940589679
49.13543610247
50.063353813
50.712955736138
51.114815737768
51.481393110333
51.825136971118
52.147307549583
52.449749265504
52.735293098559
53.007288698828
53.268888770948
53.522536042831
53.769606665625
54.010155975763
54.242875697223
54.46538815046
54.67490657195
54.869084177033
55.025681136832
55.189199971749
55.338110286132
55.475082815962
55.603336966219
55.726318272897
55.847544979541
55.970379455752
56.098592266513
56.236355095443
56.388114730568
56.558201744022
56.750000979647
56.964821981538
57.200904257471
57.453020677878
57.712961871489
57.970514213334
58.214215481474
58.432754194707
58.657914543531
58.78134340413
58.853423742002
58.885434921683
58.897190606242
58.904956921889
58.916747629038
58.935451713941
58.96182141859
58.995795204348
59.037240363983
59.085649307862
59.140454451617
59.201123433347
59.267186339647
59.338504497628
59.415475308814
59.499219333692
59.59110741079
59.692441500605
59.80397164165
59.92573148266
60.056949662315
60.196038875012
60.340740905859
60.488315103493
60.635610170809
60.779132990751
60.915757798088
61.042818533645
61.158887367063
61.263594845294
61.360158952718
61.462038706366
61.605156570954
61.87927030674
75.628508562067
56.195730988508
44.655234684956
37.691899335158
33.343630252838
30.674389252027
29.084505089339
28.207264989306
27.84586673444
27.843120724094
28.194756580931
28.746844690937
29.467549549636
30.305725706917
31.213314316583
32.153670041894
33.096524585837
34.02073218657
34.910352498654
35.755893325676
36.553667931529
37.302391582481
38.002369795854
38.655774086533
39.265507700976
39.834526550666
40.365881874705
40.86280299798
41.328240075409
41.764784816616
42.174934632554
42.561042862642
42.925012066506
43.268810706109
43.593968046405
43.902104184874
44.194460663856
44.472365916023
44.736818338887
44.988918240308
45.229483679522
45.459407573697
45.679368238495
45.890090918022
46.09215538366
46.286142228447
46.472563361268
46.651879041765
46.824547161535
46.990930594358
47.151432467878
47.306359090361
47.456041015852
47.600754306176
47.740774444341
47.876347984924
48.007703266968
48.135054484913
48.258600394195
48.378528240633
48.495011455341
48.6082122844
48.718282414287
48.82536555121
48.92959960613
49.031120792507
49.136404431827
50.074393188428
50.717378230054
51.11865969074
51.485085057928
51.82861231963
52.150542578926
52.452783674204
52.738175077274
53.010043711036
53.27151997668
53.525030369109
53.77193573813
54.012279405084
54.24474865753
54.466973194615
54.676184056646
54.870057323844
55.026325460573
55.18963726375
55.338384284522
55.47522969199
55.603383209038
55.7262776974
55.847418097706
55.970153762546
56.098240518967
56.235836211498
56.387376646699
56.557188148262
56.74866281642
56.963131622663
57.198867502951
57.450681668949
57.710398916696
57.967833623302
58.211544457123
58.430243404687
58.65584431257
58.779935179826
58.852851450245
58.885651358185
58.898084737945
58.906587341754
58.919413508998
58.939603366745
58.968050084955
59.004755052057
59.049692451486
59.102416776084
59.162388296121
59.22901482363
59.301778495311
59.380537055139
59.465759851507
59.558728904828
59.660980047111
59.773864681002
59.898045322451
60.033319618892
60.178524983427
60.331594111114
60.489741608338
60.649609830872
60.807372375197
60.959279636907
61.101900490874
61.232414165335
61.349420066557
61.452584437742
61.546058865851
61.643761846653
61.782930480772
62.054721740501
68.491376604966
48.234955198683
38.444051086762
33.023579989881
30.263296086216
28.645821696733
27.854119855633
27.551652335671
27.582945073165
27.851663168823
28.371806346434
29.003958549384
29.744689137818
30.572715541256
31.453942577908
32.365201550714
33.279234848947
34.175362064998
35.040428818528
35.865856346525
36.64640595833
37.380223994177
38.068405907906
38.712215163629
39.313853675312
39.876250411793
40.402327398276
40.894685484952
41.356153070957
41.789430952976
42.196748586329
42.580368051394
42.942246779001
43.284171091487
43.607737233065
43.914419068567
44.205543030371
44.482296957676
44.745773811726
44.996960638241
45.236737275664
45.46593060709
45.685254209636
45.89539997677
46.096941049542
46.290470914719
46.476460977529
46.655411862413
46.827725160784
46.9938149911
47.154035945854
47.308724316259
47.458189247694
47.602707949784
47.742552865885
47.877966527874
48.009179550384
48.13640292624
48.259835311682
48.3796616201
48.496053957278
48.609173339638
48.719171257319
48.826189862998
48.930368885041
49.031837746267
49.138298965479
50.090056627637
50.723800049341
51.124215048984
51.490391797938
51.833605782622
52.155197220866
52.457153727313
52.742327225099
53.014014425594
53.275313927001
53.528628052219
53.775295379499
54.015342032953
54.247449507424
54.469258520377
54.678026465441
54.871464360037
55.027302402611
55.190302387357
55.338801916599
55.475455142293
55.603456762746
55.7262205088
55.847231000329
55.969817707374
56.097714351597
56.235057836933
56.386267254857
56.555662261938
56.746645586412
56.960580192702
57.195789268364
57.447142029626
57.706515068438
57.963765378777
58.207482996049
58.426415266431
58.652671783769
58.777761585917
58.851949293683
58.885960467124
58.899431997508
58.909062185452
58.923475647137
58.945964275556
58.977618997305
59.018602023135
59.069037910144
59.128599227579
59.196776089697
59.272903311212
59.356385222652
59.447075621745
59.545559781583
59.65336859296
59.772250651184
59.903619380494
60.047943781139
60.204574886415
60.371699725502
60.546467963995
60.725249743947
60.903602108151
61.076937296333
61.241002429458
61.391962799614
61.526832920599
61.644293326706
61.744331691523
61.83236199775
61.923078774581
62.055717638007
62.323536656511
53.630247062765
36.702518193524
30.673221271674
28.19928708063
27.281005029775
26.947466299212
26.983377218646
27.21813848826
27.60890831815
28.113419901559
28.697254688377
29.362042606831
30.103872937831
30.909165248274
31.757930785677
32.628612626633
33.504025081726
34.366221753464
35.201530881539
36.001311648309
36.760704339528
37.47748410418
38.150795007641
38.78251930364
39.374397128014
39.928657233284
40.447763020111
40.934498843897
41.391215502895
41.82039408802
42.224284303729
42.604937374132
42.964278559901
43.303975303935
43.625635683504
43.930624270551
44.220262797419
44.495690885362
44.757999195747
45.008115673158
45.246952579582
45.475277112867
45.693835141628
45.903263863736
46.10417653556
46.297114523278
46.482576210056
46.661033345394
46.832898871712
46.998582457704
47.158425389718
47.31277392326
47.46192285729
47.606160634482
47.745743163111
47.880914835315
48.011905534609
48.138925984975
48.262173414065
48.381829992818
48.498067079489
48.611044954349
48.720914392745
48.82781650088
48.931890929323
49.033264526223
49.141355539828
50.110270292543
50.732173550925
51.131460025165
51.497277299481
51.840080232304
52.161241262307
52.462834589788
52.747727655659
53.019181327346
53.280253433571
53.533313774146
53.779671392368
54.019330498073
54.250965950535
54.472233332766
54.680425025018
54.873298253585
55.028604408945
55.19119046597
55.339360380548
55.475758059457
55.603558016427
55.726148440308
55.846986793178
55.969375887788
56.097020137871
56.234028530134
56.38479768846
56.553638015546
56.743965856391
56.957186283453
57.191689100982
57.442420838941
57.701327599268
57.958324179562
58.202043173589
58.421280792379
58.648382255203
58.774793949353
58.850679843711
58.886327971484
58.901209257162
58.912366823526
58.928933574638
58.954568539033
58.990653759052
59.037600792803
59.095770968328
59.165023734219
59.244907020731
59.334656546585
59.43356181921
59.541472019953
59.659144684521
59.788428354242
59.931308943203
60.089210874138
60.262207936678
60.448920859001
60.646535583232
60.851056712506
61.057585448087
61.260207755271
61.45354247783
61.632613378131
61.79315100458
61.932106202732
62.048299895564
62.142723632161
62.222092508579
62.30229827576
62.425286743801
62.687101884079
26.70389236687
24.533759373141
24.766899786162
25.316044557184
25.846810163233
26.370419667827
26.877546445607
27.410630516671
27.948509992644
28.529985266167
29.147747182161
29.818530000729
30.540431920881
31.308691205695
32.113450256081
32.938952480731
33.769915781348
34.59147254153
35.391898796309
36.162198210837
36.896707429768
37.592618273863
38.249373080237
38.866850461571
39.446819741915
39.991277644623
40.502391258065
40.982215697102
41.433149840071
41.857482609663
42.257271101518
42.634375623256
42.990664153439
43.327752738089
43.647110311179
43.950113017951
44.237999479304
44.511893958863
44.772821427976
45.02173269943
45.259480104685
45.486829184829
45.704500414358
45.913132067182
46.113322550847
46.305592261993
46.490450547146
46.668345643311
46.839705652227
47.004911845574
47.164321118178
47.318266853372
47.4670454354
47.610941743555
47.7502060754
47.885084401775
48.015801128143
48.142567349737
48.265577727418
48.385014506964
48.501048798289
48.613839580853
48.723535444829
48.830279769628
48.934206573199
49.03543817579
49.14569141916
50.134510428586
50.74249002461
51.140383960916
51.505708878912
51.847995464304
52.16863930697
52.46979685771
52.754350698248
53.025521533478
53.286318288517
53.539069248246
53.785046800531
54.024228821742
54.255283007977
54.475884277615
54.683368703571
54.875550275118
55.030225442072
55.192298070234
55.340058391784
55.476138859227
55.603688932988
55.72606481993
55.84669017125
55.968834516837
56.09616585328
56.232758373269
56.382980472585
56.551130481641
56.740640946054
56.952968613552
57.186585799152
57.436535419545
57.694851002748
57.951521245216
58.195233649515
58.414846575891
58.642944154696
58.770992649267
58.848993150509
58.886709955465
58.903386489556
58.916482327627
58.935793801114
58.965483545422
59.007340455841
59.062154375742
59.130634526818
59.212933568219
59.308712208108
59.417080223076
59.537149872902
59.668750198427
59.812873115218
59.971730431182
60.147512810824
60.341482386518
60.553005675253
60.779553124449
61.016840339492
61.259317683582
61.50019192494
61.732106207616
61.948668510354
62.14415860402
62.313936165325
62.45504377928
62.56692019387
62.651910093724
62.718451638808
62.783843999294
62.893562655831
63.146841343639
26.00585166833
22.921135302766
24.120994058857
25.124316721698
25.944668122033
26.645808146711
27.24769463009
27.817225388639
28.380694332134
28.953990759686
29.555680988757
30.19111725628
30.864528397112
31.576449459661
32.32232672808
33.092554921193
33.873901357595
34.654021688056
35.420634314509
36.164621291423
36.879366733141
37.560845060594
38.2069532343
38.817523178947
39.392712142646
39.93396230284
40.443304137145
40.922535496422
41.373540684603
41.798347488344
42.199060167397
42.577429824375
42.93507909953
43.273613409505
43.594512854684
43.899094001141
44.188524087859
44.463958629512
44.72640338651
44.97679066984
45.21595191005
45.444681580663
45.663677025643
45.873580324947
46.074980342868
46.268418439114
46.454393587751
46.633353225743
46.805726837714
46.971901215853
47.132239592831
47.287068645277
47.436690372209
47.581390931505
47.721429285822
47.85704977447
47.98847371825
48.115915093391
48.239572403738
48.359630345489
48.476260575103
48.589623394506
48.699869109041
48.80713614845
48.911556279139
49.013256154026
49.112750097436
49.889263079691
50.642776012644
51.055934996195
51.426693317672
51.773992983554
52.099260926403
52.404511944505
52.69250054688
52.966378059502
53.229198733342
53.483447244678
53.73064305845
53.971065359463
54.203680329865
54.426377116056
54.636548144862
54.831878532733
55.032157718185
55.193620935423
55.340894771439
55.47659847414
55.603852087771
55.725973753309
55.84634677841
55.968200930554
56.09516082289
56.231259073849
56.380830047926
56.548156916623
56.736690531176
56.947948245324
57.180500208873
57.429504596886
57.687100320024
57.943365415575
58.187058622309
58.407125726103
58.632732363632
58.763801907927
58.84566982227
58.887235307408
58.907290285558
58.924019057672
58.948502820981
58.985933939532
59.038964506505
59.109226292755
59.198210939942
59.30674038577
59.434800875661
59.581266313998
59.744794565506
59.925125071102
60.123625897648
60.343073098749
60.585749107204
60.85213534298
61.139778131576
61.443454026416
61.755733488341
62.067923152789
62.369656867396
62.65169982309
62.906048549777
63.125781797612
63.306125851312
63.444802600415
63.542913649345
63.605600123005
63.644914354786
63.680068666746
63.763871781146
63.999227735277
34.289575896948
28.756638503604
28.465671576117
28.488246466471
28.660036709491
28.919344613263
29.254648585414
29.662695070217
30.081642892528
30.545168672893
31.050683432104
31.588802724335
32.160714636747
32.767296508299
33.405200213229
34.067939889866
34.745786110223
35.428690475837
36.107568255434
36.772976459281
37.418162894938
38.038729114495
38.631903967135
39.196376904828
39.731997283362
40.23922907079
40.718868895324
41.172039003607
41.6004697091
42.005630035433
42.389043128013
42.752049728619
43.09617762233
43.422730712515
43.73293824975
44.02791925942
44.30878505752
44.576509558832
44.831998005921
45.076066436757
45.309500579554
45.533005213923
45.747223248614
45.952739486667
46.150107298522
46.339836578664
46.522385465054
46.698180543203
46.867615409548
47.031067189111
47.188868337809
47.341331011697
47.488740027488
47.631364821315
47.769457770705
47.903248367096
48.03295398272
48.158773956648
48.28089975177
48.399509656827
48.514769977783
48.626837772455
48.735857121297
48.841967422634
48.945291029097
49.045944022658
49.171373254684
50.227223108303
50.78501847181
51.177247291114
51.540030590032
51.880004518797
52.198580813148
52.498041806669
52.781266995936
53.05132557124
53.311033429674
53.562539784195
53.806965518387
54.044187246954
54.272854445967
54.490730325432
54.695333789339
54.88470887108
55.036923864785
55.196893953721
55.342976927003
55.477759463111
55.604289133467
55.725790557194
55.845547894211
55.966693165687
56.092743853608
56.227629482402
56.375598706855
56.540894135113
56.727007074367
56.935599831653
57.165481751309
57.412096962343
57.667849197387
57.923043191198
58.166606039342
58.387637929998
58.615055221022
58.750930295187
58.839166700983
58.887362649833
58.913442116059
58.936620132098
58.970463283007
59.022426129404
59.097212195676
59.198647517444
59.33040975194
59.495224517381
59.69389018508
59.924653540064
60.184839231456
60.47325285426
60.791076792343
61.141291340122
61.524632974237
61.937784249008
62.37258002859
62.817319219519
63.258456354608
63.681064470892
64.071657017166
64.418633148581
64.713044662939
64.948065853078
65.120358848003
65.230519732404
65.284094914779
65.290398376665
65.269630712637
65.246227128466
65.273450593747
65.466383799494
37.748277730372
32.598171950354
31.925997378251
31.616050461397
31.470047434093
31.423455631718
31.482827022513
31.628975697179
31.855136526853
32.157717451021
32.509176107623
32.903097787976
33.350431735969
33.839249870362
34.361420861008
34.913445535159
35.487342200009
36.074738573165
36.667117879445
37.256858903149
37.836851478716
38.401411610802
38.946726534686
39.470375198109
39.971088228932
40.448494590741
40.90271400914
41.334336633878
41.744278827554
42.133491127768
42.503097407291
42.854283189807
43.1881051767
43.505681228935
43.807975311007
44.09602009955
44.370774160851
44.633103069984
44.88379090404
45.123592703545
45.353240790962
45.573359248188
45.784538383997
45.987315895002
46.182224126909
46.369726413659
46.550262758138
46.724228679401
46.892002460868
47.053933639433
47.21034256939
47.361526366898
47.507759214671
47.649304398945
47.786398655315
47.919266916951
48.04811733348
48.173146306866
48.294539605399
48.41246751075
48.52709123258
48.638561984099
48.747025205434
48.852609737782
48.955435254167
49.055572116451
49.213101218004
50.300548466606
50.822135462437
51.209891019759
51.570141599939
51.90791264983
52.224669140069
52.522697026273
52.804807383376
53.073927454631
53.33270496557
53.583125362367
53.826176684542
54.061654898599
54.288206101135
54.503680744761
54.705762914706
54.89269642838
55.042835460782
55.200973491576
55.345599242996
55.479257242876
55.604904970029
55.725651570874
55.844658447217
55.964938420208
56.089876025079
56.223271919401
56.369265382307
56.532042474138
56.715135440159
56.920377435437
57.14686978468
57.390414492656
57.643753801286
57.897480465093
58.140748273302
58.362834281146
58.592510233802
58.73392259402
58.82970820992
58.886171437184
58.920072393108
58.951697718989
58.997895607578
59.069895418213
59.176187373021
59.324824048358
59.523931341759
59.780161052276
60.095828164135
60.467743172356
60.888746648433
61.353079593535
61.859108988835
62.40675603724
62.991187101484
63.600487754394
64.217042378646
64.820064139872
65.389652441934
65.908845530028
66.363763792425
66.744424969536
67.043569203554
67.256764674335
67.384303114787
67.432729698983
67.411480501669
67.341226396505
67.237703315322
67.138537673143
67.097516626007
67.236999542912
40.275546681246
35.186214113966
34.400232416454
33.998028917655
33.741985350051
33.582311716426
33.493339009509
33.495318728239
33.579543314001
33.721288530151
33.947567954447
34.222688463202
34.54164096511
34.911130573009
35.327475876568
35.777263624377
36.254768778015
36.752956032625
37.263523261602
37.778996766241
38.292993459539
38.800141733798
39.295692150291
39.776469965709
40.24029826878
40.685891882849
41.11275105291
41.52080191703
41.910292235896
42.28177268378
42.635991061607
42.973734953267
43.295793994419
43.603026159545
43.896308581323
44.17641438762
44.444143848229
44.700190332091
44.945297485672
45.180144269386
45.405331024462
45.621444318304
45.829001781181
46.028536703787
46.220506225164
46.405352968453
46.583470486665
46.755243200561
46.921030108824
47.081146909333
47.235895038923
47.385549497489
47.53038063343
47.670635117085
47.806539533634
47.938307536165
48.066138404138
48.19022567734
48.310746100156
48.42786394488
48.541733451295
48.652499418761
48.760297767699
48.865255271267
48.967489933999
49.067088412358
49.286742049376
50.378694394463
50.865477912619
51.248517130763
51.605741785063
51.940865272496
52.255461536348
52.551816633609
52.832632662209
53.100656657179
53.358333010267
53.607452152116
53.848847240379
54.082228657588
54.306251453944
54.518878223629
54.717992439451
54.902070565338
55.049824255438
55.20582817808
55.348762956546
55.481120320513
55.605750374877
55.725626477742
55.843766965856
55.963045227104
56.08668998167
56.218348727275
56.36202788573
56.521837833153
56.701346254259
56.902574838758
57.124961525474
57.364734647667
57.615050538566
57.866847788896
58.109580533184
58.332713126749
58.564909382398
58.71234367408
58.816536896195
58.882658547748
58.926067497526
58.968424311012
59.030138535498
59.128664291118
59.279226022578
59.497764274942
59.800736405058
60.201968462614
60.706047418065
61.304255318095
61.975106751956
62.69902172746
63.464851191366
64.263459155254
65.079668015524
65.89025802722
66.668942237866
67.39054438822
68.036272185305
68.594329350707
69.056162402357
69.416660063333
69.673494648898
69.826108340397
69.880499627321
69.845866481731
69.743027672147
69.5836308549
69.393327033056
69.21642723098
69.11455038193
69.193969513644
42.519514201985
37.09984946464
36.26668900994
35.829680143378
35.539710211234
35.330509420893
35.186582853753
35.106331346477
35.102202887107
35.159423629965
35.26903772344
35.453441766149
35.689255666336
35.955474379543
36.269046132801
36.629235450227
37.021980469438
37.438994382239
37.874228312053
38.320964836785
38.772409381465
39.223260916351
39.669331239834
40.106617194903
40.532547076815
40.945270864735
41.343585214185
41.726839058479
42.094745672889
42.447372862965
42.785066129141
43.108279688767
43.417573263152
43.713563769488
43.996862449422
44.268090198944
44.527929033569
44.776991438802
45.015863459338
45.245134027701
45.465295204829
45.676874252602
45.880376777359
46.076236509821
46.264881472764
46.446681423856
46.622031320206
46.791290513479
46.954772044548
47.112779405196
47.265581616438
47.413456340882
47.556653963897
47.695402418278
47.829917685324
47.96039887961
48.087046370324
48.210038653036
48.329542407326
48.445715765164
48.558703271622
48.66864635307
48.77567621301
48.87992090012
48.981493349999
49.080443536076
49.424009351207
50.459929524024
50.9151890585
51.29312128326
51.64675456599
51.978803062543
52.290911021724
52.585345977254
52.864669473559
53.131415513261
53.387791895905
53.635365320594
53.874799379365
54.10571840846
54.32680124065
54.536150744742
54.731881921255
54.912732661159
55.057825780695
55.211436606169
55.352483189165
55.483393595642
55.606894441379
55.725806020741
55.842984162851
55.961145196321
56.083343244819
56.213050415097
56.354116222312
56.510554522112
56.685956603389
56.882540341332
57.100114838185
57.335396395652
57.582032553235
57.831370838829
58.073238153115
58.297303684788
58.53207292249
58.685774925059
58.798922226165
58.87572839881
58.930346910636
58.985383935549
59.065719939392
59.197486349022
59.407274486824
59.724184886928
60.180208079935
60.799824473409
61.587534665693
62.514517077645
63.523168078508
64.566296088562
65.616734964916
66.654447470855
67.657020083051
68.597356277653
69.450077577154
70.198773614164
70.83556866892
71.359239586233
71.770185061365
72.070060671585
72.260119908716
72.342595828836
72.325190525468
72.222150721706
72.046443795093
71.816007402226
71.560857220923
71.326471554734
71.178274156966
71.195377110676
44.861898328242
38.593558086915
37.75155282994
37.290026267628
36.989179635175
36.762095035089
36.597559980404
36.478602685582
36.421429818822
36.419434168641
36.464947376425
36.569747445067
36.736080414779
36.936436029012
37.172642931813
37.451047530822
37.769483016596
38.116298982376
38.484478714814
38.867830233258
39.261802920014
39.660390899163
40.058831279672
40.453898269656
40.842304217923
41.221834840749
41.590953499428
41.948644837635
42.294205744246
42.627232110281
42.947654188854
43.255636570279
43.551454896409
43.835472525596
44.108131794584
44.369914419439
44.621305544745
44.862774851092
45.094814239558
45.317943196259
45.532603433955
45.739229550982
45.938252438275
46.130036233041
46.314964890367
46.493416388674
46.6657114436
46.832176088382
46.993089812086
47.148728247723
47.299368547112
47.445246637145
47.58659976267
47.72363975154
47.856569356643
47.985593078012
48.110888995105
48.232628027754
48.350967029053
48.46605342114
48.578035578204
48.687043377921
48.793204160602
48.896639938877
48.997467608586
49.095786494025
49.62745007712
50.541137335105
50.970873257312
51.343589897823
51.693184987193
52.0217557286
52.331056629166
52.62331313412
52.900917667491
53.166165678175