/*--------------------------------*- C++ -*----------------------------------*\
| =========                 |                                                 |
| \\      /  F ield         | OpenFOAM: The Open Source CFD Toolbox           |
|  \\    /   O peration     | Version:  2312                                  |
|   \\  /    A nd           | Website:  www.openfoam.com                      |
|    \\/     M anipulation  |                                                 |
\*---------------------------------------------------------------------------*/
FoamFile
{
    version     2.0;
    format      ascii;
    arch        "LSB;label=32;scalar=64";
    class       volScalarField;
    location    "0.00019";
    object      dydt;
}
// * * * * * * * * * * * * * * * * * * * * * * * * * * * * * * * * * * * * * //

dimensions      [0 0 -1 0 0 0 0];

internalField   nonuniform List<scalar> 
109340
(
0
0
0
0
0
0
5.7409898168281e-08
0.0014185805154432
0.0090457565585851
0.026750146429888
0.058102051889408
0.10645650159416
0.17507566534989
0.26734615464726
0.3869994934475
0.53835871021055
0.72674053769819
0.95889355895754
1.2435902100442
1.5922980743109
2.0202197492185
2.5472438963042
3.1994527258856
4.011243043909
5.0287213121733
6.3144522515419
7.9551426205818
10.074007864876
12.85187674158
16.564832911217
21.654940050317
28.872034864404
39.574021499825
56.386547613125
84.698459375808
136.19081054689
0
0
0
0
0
0
2.4018379230217e-05
0.0022416950785242
0.011432695353217
0.031544798085054
0.06611159161336
0.11846259916581
0.1918840791698
0.28983373074048
0.41617410281282
0.57549657472832
0.77339590132253
1.0170568007544
1.3158661845744
1.6821516587002
2.1321799888261
2.6872303061906
3.375226213957
4.2330974765596
5.3104780173805
6.6750559938264
8.4211406130995
10.683747797828
13.662905048232
17.667586729725
23.200083375558
31.130111254965
43.082836530843
62.336675254196
96.257686478627
161.53540428062
0
0
0
0
0
0
1.0945264377268e-05
0.0019766352264503
0.010749798474595
0.030405007371195
0.064535840395425
0.11651858684513
0.18968221912071
0.2875133081271
0.41387572420069
0.57329309150292
0.77132752840453
1.0150988553003
1.3139524615796
1.6801694638239
2.1300202290385
2.6847467524147
3.3722271221924
4.229352709463
5.3057034684406
6.6689368476106
8.4133028817021
10.673734329545
13.650160244536
17.651719730667
23.181899892439
31.117691846593
43.130705957421
62.727318669192
98.327842819729
172.6035872028
0
0
0
0
0
0
4.2614916529252e-06
0.0017997485300441
0.01035588740004
0.029850771146334
0.063895380280627
0.11584274598078
0.18898701912939
0.28677155855988
0.41302847924641
0.57226357718248
0.77001278493934
1.0133759542411
1.3117362353978
1.6773539050763
2.1266746881323
2.6809821659906
3.368234452061
4.2255018638746
5.302499605204
6.6672308087125
8.4143997734372
10.679627130483
13.663964722718
17.678776115862
23.232234757051
31.213776453421
43.363664000891
63.501065362407
101.73609509126
192.44420352829
0
0
0
0
0
0
2.4470786022038e-06
0.0016980561499886
0.010031096695226
0.029213173600104
0.06288117133705
0.11440644614724
0.18710315280181
0.28443710659946
0.41026621883856
0.56912506362754
0.76656496173612
1.0096919941563
1.3085684491273
1.675317739987
2.1273756367635
2.6867359664327
3.3824830506466
4.2534958206234
5.3517156639028
6.748626935554
8.5438246833734
10.88008476987
13.969257022506
18.139890436206
23.931855344288
32.277364547763
45.072165319238
66.622095046683
109.58103958349
231.70578628212
0
0
0
0
0
0
7.4565641733193e-05
0.0032234249585708
0.014894332290272
0.039496807284049
0.080888514325075
0.14270606373223
0.2286398598275
0.34273627154001
0.48974998036078
0.67555461771518
0.90760941829053
1.1950905127112
1.5487253135272
1.9911164819654
2.544611895335
3.2398965191642
4.1177966086302
5.2324780169008
6.656565038881
8.4888267504086
10.866222642213
13.983659533314
18.128311986986
23.743011171797
31.561221419501
42.796374525533
60.01673612604
89.05996116617
147.9773657621
346.99655872392
231.64795331469
388.20080801431
601.84896410433
855.1005361194
1131.4781612259
1450.2400828543
1816.201021322
2231.4666816153
2693.6111697335
3191.8290658553
3744.0153858493
4201.5199508369
4640.5933250075
5009.363356703
5283.7292986101
5473.30299929
5580.7309407261
5620.41036563
5605.7104293322
5545.5608406527
5451.6675736578
5336.9408335326
5208.1805882225
5069.7221174894
4926.1995725052
4783.0912381421
4643.3526079714
4499.3724330815
4366.6571186166
4235.8021344356
4107.5947283282
3988.9288499066
3870.0334831148
3761.6984417493
3653.0870317967
3554.1567548968
3455.414045032
3365.0774405034
3275.343455385
3192.7562577016
3111.148135925
3035.5071672033
2961.2117051431
2891.4964216225
2824.0181271636
2759.5622449719
2698.1982202495
2638.7505078944
2582.4095412073
2527.6738719294
2475.4915315521
2425.2797829295
2376.9678719933
2330.477729969
2285.7124712763
2242.5861863076
2201.0172757809
2160.924479524
2122.2310516053
2084.8673529839
2048.7695377761
2013.8772771892
1980.1323584003
1947.4800708548
1915.8743644627
1885.2662249055
1853.7976818084
1943.9469032636
1420.9454027888
1275.0288351119
1184.6127279235
1104.5606442043
1032.4058117207
967.32064870681
908.49201997154
855.07933117943
806.3015854023
761.50998214201
720.19012337032
681.96274593226
646.55984328983
613.81122543477
583.61241041221
555.89480597543
527.55040184276
504.7842179774
484.07388452566
465.12055196923
447.57803673756
431.06561520267
415.17640008449
399.51729170565
383.70385855087
367.39614743263
350.34985635039
332.47235091603
313.85775266534
294.76648836768
275.53954553644
256.48764003408
237.81125993829
219.5987799222
201.90186394248
184.84755129333
164.9638780702
151.17717912082
140.40983947598
133.04512065726
128.40436245441
125.31490704425
122.83620911889
120.4581848055
117.96350910372
115.26251092427
112.3088299282
109.13892291294
105.76357959411
102.19559535812
98.448971126301
94.52989702609
90.445849860969
86.218662743972
81.882417832104
77.487810992763
73.103399396971
68.801719393763
64.656242557294
60.731802150674
57.080863671317
53.741923700509
50.744357763193
48.104351703918
45.835935769822
43.963839073004
42.555038456975
41.702458813769
41.614407615285
43.041240970239
48.164694509718
64.710206302574
291.65322803087
497.71300683135
754.97801270221
1033.7243582831
1354.5584526414
1705.3986407191
2100.2542905936
2535.4565247644
3002.1246602309
3488.3179317638
3973.6856722922
4446.9543023914
4822.4499851736
5134.0326220988
5371.3593242216
5524.4951239565
5605.9305247812
5624.4070352507
5591.1740331717
5519.0684835231
5418.4584496253
5298.0286599959
5165.2748969887
5025.666005188
4882.9433321138
4739.7313472226
4598.4686998654
4460.3379381442
4325.8936526065
4196.559488015
4071.7796426773
3952.2741089802
3837.7903618995
3728.4020503544
3623.9407548782
3524.1723356595
3429.0043374982
3338.105367428
3251.361978163
3168.5043502134
3089.3318131614
3013.6825021631
2941.2927139073
2872.1055521806
2805.7854266902
2742.3511563178
2681.4639195203
2623.1531308865
2567.1268799309
2513.3756381267
2461.7096467726
2412.0658540911
2364.3100279223
2318.3376905414
2274.0640077389
2231.398560868
2190.2628199173
2150.5772121643
2112.2703620168
2075.2741860065
2039.52538963
2004.9637441725
1971.5329292613
1939.1795259728
1907.8515997871
1877.5021860872
1847.260674407
1796.7242149777
1367.4836895827
1250.2250435825
1163.3181925613
1085.3854668943
1015.1235936266
951.72862954736
894.37507596444
842.22838230745
794.5393451872
750.69229805776
710.20836878935
672.73735208297
638.03729295348
605.95767793013
576.40666931953
549.31849978212
527.56638772831
504.81545862967
484.10886857803
465.16034488145
447.62296600256
431.1165617157
415.23449762505
399.58383764261
383.78032604229
367.48393426761
350.44996347804
332.58504503729
313.98233542447
294.90133280124
275.68240303061
256.63603626068
237.96271280296
219.75076119959
202.05167816489
184.99184530926
165.09489849966
151.28730133809
140.48703417483
133.08702595754
128.41415343486
125.30167493834
122.80470948385
120.40843361115
117.89221271226
115.16640608161
112.18241764003
108.9777865803
105.56318747138
101.95128299464
98.158995241947
94.193463807983
90.063973075805
85.795904121084
81.426699517311
77.010365236033
72.616898883604
68.320603447907
64.194140911154
60.300624475251
56.689781538564
53.396893550061
50.447963776103
47.856080071428
45.632955297572
43.801499801056
42.42820756473
41.600024952631
41.539401987964
42.99555698484
48.159776471532
64.79331664233
344.01187963148
629.26333437526
935.20089417509
1270.4874751047
1648.2733577457
2048.2885192431
2464.321140366
2899.1567499069
3343.068192704
3809.2358681186
4207.9235718904
4593.601825129
4929.3228660965
5200.5155273741
5404.4865530183
5539.566571759
5608.6854963195
5618.0007286666
5579.9416822398
5506.7420020535
5406.1238975338
5285.8324010013
5153.7758754312
5014.923585349
4872.7774332766
4730.4240058901
4589.8870506543
4452.4088589523
4318.8229257435
4189.8732774197
4065.9440484886
3946.793855007
3832.8903663666
3723.824051956
3619.7847613836
3520.3219130114
3425.4657710367
3334.8103345615
3248.3458720455
3165.6709117081
3086.748221151
3011.2335482198
2939.0811633652
2869.9846187369
2803.8761764801
2740.5198313304
2679.8140756943
2621.5830669137
2565.698117523
2512.0433071901
2460.4752902029
2410.9078042811
2363.2179064583
2317.3243626043
2273.1179410937
2230.5150051209
2189.4340281093
2149.7993066799
2111.5399076193
2074.5879574855
2038.8799637626
2004.3560819437
1970.960716464
1938.6400017746
1907.3396320316
1877.0110252763
1847.1287482241
1789.4146541994
1365.5099752853
1249.185385389
1162.4083700507
1084.5743982451
1014.4079704686
951.09782455681
893.81518450658
841.72844903002
794.09267941713
750.2943440003
709.85648624732
672.42975438122
637.77310850915
605.73596608905
576.22618965186
549.17762569999
527.46930264362
504.74845404809
484.06485352603
465.13561994745
447.61480974756
431.12342571719
415.25572777207
399.62003989522
383.83297371512
367.55491715995
350.54088496566
332.69646891175
314.11334711545
295.04976930751
275.84572542161
256.81234745216
238.15134029472
219.95194672237
202.2652605069
185.21533749133
165.32188837906
151.49320518348
140.64052778552
133.1737771769
128.43877828773
125.2786365193
122.74167390767
120.30554454942
117.73804519962
114.95767029367
111.90684352455
108.62531024752
105.12148278786
101.41425649574
97.522763452478
93.457132412476
89.23185191485
84.878633996731
80.441372272755
75.982793902932
71.57620561405
67.298336361865
63.219674746723
59.398967407672
55.879701572958
52.689942900845
49.84797684759
47.360709993405
45.234493343479
43.488956084892
42.189605783614
41.414261422984
41.411369042949
42.929823928904
48.181405725652
65.007473609066
465.72180386657
923.07980883168
1349.7498895514
1826.0329069175
2233.138691383
2668.9475671508
3070.6802326401
3458.7542583062
3836.992762695
4213.2360523242
4501.7438500865
4797.7032319121
5067.4880113368
5288.2952250381
5458.5837524056
5566.0709443889
5615.5600155898
5614.9463480098
5571.3091165788
5493.0521264167
5390.4339136724
5271.3938381209
5139.761533334
5001.3240233171
4860.3903206029
4719.1033648943
4579.2168289239
4442.580919394
4310.0292640059
4181.7545907763
4058.4606553848
3940.0989938485
3826.6729606149
3718.2028274454
3614.5422255924
3515.555326515
3420.9960732553
3330.7435029729
3244.5211835481
3162.1653917655
3083.4599685195
3008.2154601034
2936.2484265342
2867.3654955498
2801.4323140388
2738.2440710664
2677.6943780133
2619.5952678899
2563.8542970369
2510.3083297029
2458.8618680334
2409.3897278482
2361.7954976634
2315.9858742711
2271.8611098635
2229.3358316798
2188.325186173
2148.755832267
2110.5558869711
2073.6588866689
2038.0022029987
2003.5268121049
1970.1768155062
1937.8953363526
1906.6323283131
1876.3376070577
1847.0700622739
1778.6344831313
1362.8167590166
1247.717402666
1161.1156744677
1083.4177230728
1013.3836499323
950.1925294844
893.01053137125
841.00941412388
793.44985909013
749.72141909374
709.34966173758
671.98668424644
637.39253288668
605.41650474332
575.96585817912
548.97322201528
527.32120018953
504.64240572347
483.99381677861
465.09394099042
447.59826673183
431.12957672956
415.28367456304
399.67061305458
383.90840173823
367.65804633119
350.67413092343
332.86070200468
314.30721688832
295.27004931238
276.08859281055
257.07491389158
238.43257717271
220.25227716822
202.58484838932
185.5513696705
165.66330838771
151.80377999422
140.87348649644
133.30567959487
128.47767221905
125.24582020581
122.6477747711
120.15050292415
117.51090038224
114.64402337437
111.49173659815
108.09260092382
104.4562308007
100.60718303319
96.569276212997
92.357455418534
87.995778982784
83.524381514235
78.999737945952
74.493499621633
70.086389118947
65.855339719903
61.865940680919
58.168952626518
54.797658888884
51.769541331757
49.090242764274
46.757182139314
44.770156715207
43.145172965227
41.94413062333
41.242440442315
41.316802048528
42.920412027086
48.298993515559
65.408238366296
886.07259426504
1720.0685838771
2405.8462863544
2958.0437330872
3332.6877148794
3657.4289090383
3918.7057971441
4160.8380858442
4380.506618928
4588.9345891012
4810.5156184526
5028.7679267505
5226.7753935023
5391.6234737128
5515.1991233142
5594.759408007
5625.5104669863
5611.3806966822
5559.9628774919
5478.6846938297
5374.2778864884
5253.3630113958
5123.2049376779
4986.0692226644
4845.8267218017
4705.4402039807
4567.0633001782
4431.4024035328
4299.6508057492
4172.3872033647
4049.8473048842
3932.2295223619
3819.462012982
3711.6177964943
3608.448950857
3509.9310159328
3415.80800049
3325.9339980903
3240.0508447163
3158.0297748276
3079.6055256822
3004.6407873918
2932.9080301344
2864.2720113383
2798.531858423
2735.5500971906
2675.1666733565
2617.2425365006
2561.647242449
2508.2421445651
2456.9252073676
2407.5720627663
2360.0901120273
2314.3747018569
2270.3432972354
2227.9059377292
2186.9788444867
2147.4857409989
2109.3553933883
2072.5231891599
2036.9271205514
2002.5084551717
1969.2100722936
1936.9746215046
1905.7559836789
1875.5161898272
1847.0368819204
1764.4243325729
1359.4357292976
1245.8428014831
1159.4575874814
1081.9288226371
1012.0604205842
949.01975875865
891.96639072148
840.07531050603
792.61408076721
748.97600502789
708.69001072229
671.40994366158
636.89695817572
605.00036123033
575.62655733288
548.70616422441
527.12393032706
504.50001803844
483.89798521676
465.03718146684
447.57492116772
431.13639589555
415.31945761715
399.73647092456
384.00730404994
367.79381529786
350.85004496829
333.07799767891
314.56418794974
295.56244829758
276.41133047329
257.42411035184
238.80682309119
220.6520751684
203.01044685595
185.99864782199
166.12017483995
152.22179324242
141.19027427089
133.48840782437
128.53574823034
125.20625662676
122.52744130302
119.94781888194
117.21126441212
114.22917932995
110.94184162336
107.38568694486
103.57506387671
99.541471727752
95.316053718681
90.922116668366
86.3951188815
81.789217516176
77.176775430401
72.641060362652
68.268533901379
64.134159491752
60.293346661763
56.784668532909
53.626737187205
50.821292747
48.357545800231
46.222133033466
44.407125768742
42.92550665299
41.829283544317
41.215434528797
41.372716092703
43.072611223815
48.608334436084
66.078147846024
4223.9628967148
5008.0449839634
5052.593389077
4919.6722312451
4835.8719616909
4790.0085954437
4799.2470628678
4826.3679583412
4907.65368613
5005.1083393545
5131.4883979003
5260.9216077039
5386.4519201567
5496.0850917993
5576.7431377027
5623.1008807673
5632.3714566917
5605.5857972192
5546.3600793678
5460.6552242952
5354.8349547899
5234.3200882798
5103.1843461797
4967.3750891307
4828.8980271226
4690.0154389744
4552.5131940571
4418.3742504345
4287.903730476
4161.6478320901
4039.9852014257
3923.2590803954
3811.2813023236
3704.0523535419
3601.5463570679
3503.5461521685
3409.9073765034
3320.4473819622
3234.9984714651
3153.314643267
3075.2291243371
3000.5627775985
2929.123875752
2860.7370691676
2795.2305724077
2732.4696143241
2672.2861347476
2614.5499714656
2559.1159089033
2505.8733433656
2454.6994103559
2405.4835573114
2358.123590907
2312.5212664074
2268.5942788504
2226.2538542296
2185.4187500646
2146.0105744598
2107.9602463359
2071.2027714403
2035.675780943
2001.320082548
1968.0778511897
1935.8982129375
1904.7382539576
1874.5564857212
1846.9500823369
1746.6359563505
1355.4195078413
1243.5767200185
1157.445995694
1080.1202853231
1010.4491599032
947.58781285658
890.68921678302
838.93160688851
791.58981799968
748.06187313865
707.88057956943
670.7019621275
636.28861703463
604.48952048145
575.20981979271
548.37764233441
526.87765416954
504.32154591284
483.77757494182
464.96546358314
447.54469613369
431.14362553794
415.36265338206
399.81704329804
384.12898154972
367.96140686059
351.06771227824
333.34739318119
314.88329434235
295.92603535817
276.81305124378
257.85906450403
239.27312211687
221.14993045029
203.54004921884
186.55665745079
166.69356419502
152.74936613349
141.59570960899
133.72856005725
128.61965782078
125.16700621149
122.38618835325
119.70335430692
116.84646889012
113.71936734215
110.26338475263
106.51253504624
102.48929811017
98.234769360184
93.790769806694
89.192469412619
84.48892606916
79.754114454833
75.080298863012
70.561810117164
66.288083674834
62.326500426484
58.714374061993
55.474002441796
52.603780804173
50.083762368027
47.884402724332
45.981530153999
44.357625391785
43.021158298464
42.026909395956
41.493249068675
41.722793289781
43.51685041562
49.22889193402
67.12327764449
17932.256429548
10797.588281778
8406.4525012767
7114.3907157699
6340.4143398705
5873.4090132234
5624.1730063886
5484.3691016721
5417.9450127937
5404.7639524828
5424.1708890738
5468.5026645889
5524.8754226376
5581.2290616308
5625.3384669523
5647.1907271981
5642.7560534411
5609.3190610049
5548.3614549006
5463.7012808657
5360.0582690579
5242.042298084
5114.3452305455
4979.9245497652
4843.2192271111
4706.2130658277
4569.9729170101
4436.1912966866
4306.0454736493
4180.1817032811
4058.5233409295
3941.4406374411
3829.2174049104
3721.6966252619
3618.7367357883
3520.2319935164
3426.1416576922
3336.1780621427
3250.1988249064
3168.0069514488
3089.4502383341
3014.2920175831
2942.3776589406
2873.5346093852
2807.6044876311
2744.4162591828
2683.8240860903
2625.6951488816
2569.8928553436
2516.2938459657
2464.7731146477
2415.2266980449
2367.5524886178
2321.652682653
2277.4340255638
2234.8111308834
2193.7079197729
2154.0469515898
2115.7551201386
2078.7643229931
2043.0127364424
2008.443570924
1975.0030806145
1942.6355461819
1911.2842884663
1880.9085723945
1849.0820185835
1888.5238034871
1395.3823523656
1264.3693270715
1175.6602985391
1096.5241039572
1025.2507333647
960.97962323945
902.85554184513
850.04612515691
801.80472754209
757.50365460068
716.64676222347
678.8638786333
643.89417696003
611.56813281689
581.77764385456
554.44676590514
526.58371212175
504.10794560418
483.63272120179
464.87860631862
447.50735440446
431.15082902376
415.41264233339
399.91153072114
384.27246642379
368.15970436939
351.32590056753
333.66760453515
315.26326527213
296.35960100284
277.29261894788
258.37864557341
239.83030439348
221.74541116014
204.17225889868
187.21540470213
167.75574317025
153.72827206772
142.35985656068
134.19409559611
128.79704788258
125.11407643244
122.14461142918
119.27148587683
116.19397559905
112.8002373477
109.03526606653
104.93280113931
100.535386795
95.903525255686
91.100053339612
86.183820905464
81.233634469414
76.361237353465
71.68924289918
67.323431947096
63.349256570739
59.809506774545
56.699655409148
54.0105995462
51.70073908451
49.713372290285
47.991177666368
46.477200235212
45.145702327711
44.005456367545
43.126979323617
42.6679892511
42.964387155375
44.877006600395
50.871280383841
69.47938023301
11155.044052535
12571.138623595
10530.46682749
9124.81888596
8126.7913213143
7415.9243777608
6890.1494978471
6488.8785356324
6249.9031374622
6068.8398742735
5934.6700398042
5847.9633117583
5792.5281165464
5754.3642854727
5721.4474870254
5682.8234896827
5632.3321542641
5566.6883627398
5484.117687598
5385.9416845477
5275.0739775344
5154.349324656
5026.8242788586
4895.3253664892
4761.8538275932
4628.0922931208
4496.1667074731
4367.2658467686
4241.4296839046
4119.4208499395
4001.5315350624
3888.2882975184
3779.3849642052
3674.9312168105
3574.8257300705
3479.0921864045
3387.4390565361
3299.7515417608
3215.8591662521
3135.6427678389
3058.8746317866
2985.3883881632
2915.0121813068
2847.6076207994
2783.0065086515
2721.0533681009
2661.6111617076
2604.5523780708
2549.7545503499
2497.0849147118
2446.439011
2397.7095089434
2350.8039626762
2305.6255354427
2262.0836656177
2220.0975800231
2179.5895448672
2140.4910393531
2102.7315189976
2066.2452390989
2030.9695947123
1996.8488843887
1963.8290141077
1931.8677295196
1900.9063953301
1870.9018787499
1849.8715564003
1675.3935700165
1340.5111238304
1234.5305587303
1149.3530363994
1072.8744586933
1003.9844436683
941.82183177491
885.52980199817
834.30112539765
787.43493013668
744.34854224884
704.58908004477
667.82145228208
633.81316298644
602.41013636947
573.51201591919
547.03689545861
525.85660419043
503.57820339737
483.27151549157
464.65938785282
447.40958463314
431.16257918433
415.52949490549
400.13785562852
384.61965512072
368.64251005034
351.9574558258
334.45384290985
316.19923879833
297.43042744576
278.47939288106
259.6661979879
241.21234432346
223.22319305904
205.746543571
188.87504687468
169.56909336263
155.43516107181
143.7423653847
135.0947953753
129.20658020837
125.11688606893
121.81487928281
118.61245134886
115.1534778389
111.29807144488
107.00572184907
102.3307972001
97.361994885105
92.208493929142
86.98209604779
81.792458889934
76.774868033501
72.094484911806
67.899253504582
64.285153031422
61.285289099248
58.873552674052
56.97654657351
55.491247959025
54.300148980929
53.264502310864
52.280095420748
51.263065397329
50.182608848749
49.076159730905
48.089417714742
47.403113601878
47.504237719032
49.357816866727
55.620195829576
75.037364613674
8617.6973362761
10987.058574567
10272.640353223
9349.7150775271
8576.3080276908
7965.6763735528
7463.8690461427
7060.6370761739
6725.9829190185
6461.7021561176
6245.0629312131
6084.7328402065
5954.759480261
5849.2420351121
5763.5253365843
5684.3417801657
5604.1758042411
5517.9126304511
5423.1865411536
5319.010562332
5205.964632554
5086.0562322038
4961.1529603401
4833.2758818037
4704.2272897658
4575.3633606718
4447.9453124928
4322.8790300055
4200.8471772035
4082.565676745
3968.1821120271
3857.808463826
3751.6058220169
3649.5101447476
3551.6926877449
3457.9149330023
3368.0364173998
3281.9174327412
3199.4904597031
3120.5699726034
3044.9548359794
2972.5058512308
2903.0834940812
2836.5509358333
2772.722508881
2711.4807690959
2652.6833809216
2596.2194436593
2541.957523835
2489.7810021879
2439.5840558514
2391.2697962543
2344.7467762092
2299.9168703967
2256.6983746926
2215.0104563822
2174.7805300114
2135.9391149417
2098.416392199
2062.1504700271
2027.0818197971
1993.1549497876
1960.3248746259
1928.5332614308
1897.7336775095
1867.8485984341
1860.9602903477
1615.8544856377
1328.436452022
1226.5987757442
1142.3191153559
1066.6078906879
998.39809443369
936.82927769305
881.05052578811
830.27302637153
783.8139419868
741.10813345026
701.7144918545
665.30536572095
631.65073287335
600.59326662074
572.02720664021
545.86187418992
524.95070531769
502.91507525953
482.81565191368
464.37806128624
447.27750385219
431.16526762204
415.6616845561
400.40524278926
385.03679890121
369.22843351123
352.72954007834
335.42082577716
317.3563357292
298.75995896811
279.95768893001
261.2733653019
242.93916614823
225.07074273278
207.71661318604
190.95609704526
171.83079047331
157.60871382304
145.57751001562
136.38131381578
129.89059980564
125.27628539847
121.54114359121
117.92110444362
113.99253824869
109.5826888277
104.67848306112
99.404815204027
93.934617370964
88.474337909863
83.203286999603
78.274729326248
73.867951430715
70.191242139504
67.376550235411
65.458389514381
64.362293660036
63.937949483524
63.984530353415
64.270816215801
64.554611422631
64.619407372476
64.296347965094
63.47166797031
62.147464498114
60.537793311627
58.81591819157
57.236034115683
56.434480012387
57.927373647699
64.113744716048
83.700815241931
7508.1505905108
9239.1463159033
9360.8999859807
8878.9323411706
8346.661109574
7882.6236412377
7478.093439905
7128.0059857844
6819.4787526302
6563.2693925316
6339.7949844464
6159.3799864335
5996.5418141481
5867.8901309198
5752.1375818584
5647.7879222243
5548.1766563516
5448.450167847
5345.4518220589
5237.5868372563
5124.5753108429
5006.6623009023
4885.3053848915
4761.8208240672
4637.6068796738
4513.8054064652
4391.3223186672
4271.0187496395
4153.5735806169
4039.362518806
3928.6996405034
3821.798292727
3718.7874961348
3619.6424150592
3524.351363029
3432.8200118573
3344.9909590533
3260.8442194297
3180.1316563872
3102.7253256585
3028.4862656285
2957.2936529247
2889.0365514944
2823.5122042943
2760.6178204025
2700.2113931892
2642.1977373854
2586.4392028362
2532.8138251481
2481.2242575765
2431.5644394928
2383.7499882252
2337.6799373059
2293.2672553236
2250.4316679612
2209.0982383629
2169.1993664305
2130.6617380406
2093.4203853147
2057.4148437685
2022.5890696247
1988.8945460308
1956.2781992438
1924.6821602319
1894.0532484369
1864.2883861076
1885.3350477828
1553.6577875491
1315.1146641955
1217.2084238902
1134.0535939866
1059.2585369686
991.85038236526
930.97429740954
875.79222396134
825.54008813531
779.55654460812
737.29662563841
698.33348364577
662.34754740645
629.1086895786
598.4573604712
570.28031583295
544.47682101798
523.8745978466
502.12273042568
482.26541932732
464.03158231381
447.10548512514
431.150609813
415.79859262153
400.7007911449
385.50874739839
369.90023803529
353.62311588015
336.54846733293
318.71445090867
300.32891795956
281.7095058802
263.18274735499
244.99314172211
227.26917464041
210.06294333474
193.43860151399
174.52219676093
160.24349016641
147.89438461947
138.12535791674
130.94758632254
125.69511229395
121.42086855694
117.30264309453
112.83988233661
107.84120519637
102.33432299023
96.611790849247
91.055976624772
85.987821290363
81.604190756095
78.042007780251
75.489069814495
74.146559769543
74.092059136342
75.218295377064
77.271469805936
79.895609460278
82.683712592774
85.251576565289
87.202024512988
88.210286146169
88.042293257633
86.587730969638
84.12694507412
80.965098648913
77.351563102708
73.844340567146
71.265645899924
71.430300132863
77.021528953853
95.286674500984
7050.3411986039
7911.7589189483
8357.8292459129
8232.072799385
7901.8174426831
7567.6029090569
7254.5835873629
6975.2448985704
6710.0645861684
6481.3599022321
6279.6797613727
6098.4772544336
5938.5575921634
5801.5120097182
5680.9174808524
5566.8553831426
5460.2651378921
5355.3686541108
5249.881667755
5142.002099901
5030.936164185
4916.8679308904
4800.3341146917
4682.2115750575
4563.4989844059
4445.2084860194
4328.1348639187
4212.9551787201
4100.2756789632
3990.5724575546
3884.0987349525
3781.0182485942
3681.4389883669
3585.4313007363
3493.0287200252
3404.1614262598
3318.7306288607
3236.6788621114
3157.8611826329
3082.1776814929
3009.5594088145
2939.8122546709
2872.8251731804
2808.4811585604
2746.6434975739
2687.2393163175
2630.1147056671
2575.1638441392
2522.2841936091
2471.3709983641
2422.348670121
2375.1069056241
2329.5632973763
2285.6337373873
2243.2446531378
2202.330418216
2162.8112179563
2124.6252183394
2087.7095515356
2052.0071784649
2017.465882531
1984.0289688115
1951.6429047538
1920.2678058201
1889.843741281
1860.2138280714
1923.1129627095
1495.163938599
1300.9716179718
1206.4689404762
1124.6044966975
1050.867758639
984.37851527845
924.29170776642
869.78903092994
820.13557913137
774.69524997187
732.94652118183
694.47746058246
658.97645046873
626.2130031409
596.02450018949
568.2888579209
542.89427824126
522.63658869299
501.2047490529
481.62015945295
463.61570736391
446.88626405785
431.10834446685
415.92743198222
401.00921026691
386.0176188354
370.63737110332
354.61563979937
337.81312521262
320.24980360433
302.11426270845
283.71283743593
265.37371225555
247.3536873374
229.79667278659
212.76138840405
196.29986416234
177.62070223194
163.32331867638
150.70917510034
140.38527510883
132.47803419701
126.49474780588
121.58261032051
116.90141661755
111.88910983983
106.30492664674
100.44244519789
94.857812626662
90.199424109291
86.917270505201
85.0818182064
84.663396778831
85.78329011253
88.572537641037
92.989936230639
98.708467776839
105.15635614683
111.66325177996
117.56943474414
122.33535732878
125.48916402037
126.672168371
125.64933945024
122.4654589182
117.72455255261
111.6300933572
104.84039432815
98.202585145236
92.818704029549
90.593328115368
94.353522177433
108.94895054512
6976.7806924396
6945.9645190885
7446.3675432601
7559.0057983356
7400.4631309936
7171.4358285318
6935.7874620502
6718.9803321602
6500.2701591431
6308.9623740549
6142.4511036925
5975.3253032815
5812.8886633791
5689.3750483921
5568.3083624686
5458.5250846868
5350.070212792
5244.3652567004
5139.6879234493
5034.5858877791
4927.386685825
4818.2958258392
4707.4867193211
4595.4153797829
4482.8218098158
4370.5442093228
4259.3350447672
4149.7379614928
4042.2310677797
3937.265023187
3835.1677466762
3736.1242792428
3640.2614715901
3547.6479160348
3458.3065824487
3372.215452149
3289.338165137
3209.611334894
3132.9395027121
3059.2112022856
2988.3117153905
2920.1155070106
2854.5595626403
2791.543082572
2730.9206846469
2672.5925770892
2616.4559373153
2562.4037583799
2510.3679926443
2460.2398997619
2411.9164500279
2365.3260345853
2320.3750265798
2277.0004333119
2235.1279727379
2194.6791756666
2155.5947176765
2117.806818438
2081.2620266154
2045.9088673601
2011.6857305166
1978.541310336
1946.4294067659
1915.315250913
1885.1698164681
1855.7469407886
1956.6967772227
1444.5243040029
1285.9241374104
1194.5092026861
1114.0126355894
1041.4678579432
976.01088328605
916.80761534249
863.06805787725
814.08627567959
769.2587822885
728.08719414937
690.17615937205
655.21937615296
622.98853417567
593.31585293
566.06948725893
541.1258760493
521.24380148847
500.16355571245
480.87783692845
463.12451101724
446.61067011612
431.02632827374
416.0331370233
401.31273940084
386.54288653831
371.41684182208
355.68183049046
339.18787991544
321.93506800739
304.08956136271
285.94284614913
267.82224598233