/*--------------------------------*- C++ -*----------------------------------*\
| =========                 |                                                 |
| \\      /  F ield         | OpenFOAM: The Open Source CFD Toolbox           |
|  \\    /   O peration     | Version:  2312                                  |
|   \\  /    A nd           | Website:  www.openfoam.com                      |
|    \\/     M anipulation  |                                                 |
\*---------------------------------------------------------------------------*/
FoamFile
{
    version     2.0;
    format      ascii;
    arch        "LSB;label=32;scalar=64";
    class       volScalarField;
    location    "0.00019";
    object      k;
}
// * * * * * * * * * * * * * * * * * * * * * * * * * * * * * * * * * * * * * //

dimensions      [0 2 -2 0 0 0 0];

internalField   nonuniform List<scalar> 
109340
(
6.9102348876068
6.906564889831
6.908174679261
6.9109610504359
6.9112611745734
6.9075498034502
6.8992984869597
6.887046872689
6.8716273114986
6.8527462188328
6.8305375724516
6.8052107664541
6.7769752675743
6.7460303921996
6.712564350986
6.6767588319317
6.6387907397271
6.598832488885
6.5570533506134
6.5136179481116
6.4686842642839
6.4224010739664
6.3749062937508
6.3263251303663
6.2767677502952
6.2263258454255
6.1750672764289
6.1230289345026
6.0702066792976
6.0165387379288
5.961877139606
5.9059334067103
5.8481592163901
5.7874376523293
5.7211771363541
5.6428303818659
6.9056712088684
6.9045036866737
6.9058030956631
6.9059095590781
6.902679593633
6.8954723587158
6.8841627381362
6.8684256945069
6.8485183437912
6.8248512722817
6.7976851745357
6.7672533453591
6.7337909838336
6.6975322089568
6.6587085277967
6.6175469997338
6.5742713351251
6.5291023698631
6.482258274174
6.4339522875375
6.3843890097356
6.3337587888915
6.2822342966753
6.229967973207
6.1770889824837
6.1236983786198
6.0698643704208
6.0156158783213
5.9609306916978
5.9057174997088
5.8497816220774
5.7927581476839
5.7339593542165
5.6719681228895
5.60350241952
5.5202542148679
6.9002795719522
6.9004588982072
6.9005488971309
6.8976416871912
6.8902823828914
6.8779273139824
6.8603691403769
6.8377271398567
6.8102597927698
6.7783503681583
6.7423856606032
6.7027330685244
6.6597577437502
6.6138249234037
6.5652979978731
6.5145368651874
6.4618957382565
6.4077290895209
6.352392581428
6.296225228639
6.2395410942228
6.1826095183925
6.1256610394318
6.0688896829932
6.0124354476494
5.9563927460399
5.9008208756797
5.8457144342824
5.7910200549963
5.7366085033491
5.6822339322275
5.6274816083675
5.5715729117086
5.5129057344935
5.4477581770872
5.3661748363487
6.8891904316034
6.8946705839751
6.8930710985697
6.8836784170453
6.8663169248279
6.8410363075279
6.8081431893542
6.7681011383751
6.7215358751007
6.6692112215459
6.6119706275479
6.5506853098875
6.4862276988916
6.4194500437783
6.351191670419
6.282266624271
6.2134667607939
6.1457363669742
6.0797859589825
6.0162274487405
5.9555309563649
5.8979684351432
5.8436384497641
5.7925481243517
5.7446453316058
5.6998294767107
5.6578333421521
5.6185670967325
5.5818741455889
5.5475567273092
5.5152991435011
5.4845673107219
5.4542953067911
5.4220842601809
5.3816857784195
5.3139250632221
6.8768195621562
6.9038343891184
6.9107693732163
6.8974142656302
6.8631488897917
6.809464040832
6.7395704043712
6.657552749155
6.5678420150107
6.4748425081439
6.3826111994224
6.2950143696181
6.2153935264111
6.1467437792493
6.0918109514166
6.0531869621647
6.0334222606755
6.0357654667431
6.060537860374
6.1051195794849
6.1658637691746
6.2397196962347
6.3243039923462
6.4177960257004
6.5187795810474
6.6261190866162
6.7388545067451
6.8561388753446
6.9780124406794
7.1037002209696
7.2314032033742
7.3587568424326
7.4824394948946
7.5953695496982
7.6776624031525
7.6561229945355
8.3369336350992
12.369321426927
15.807599237807
18.424942735639
20.23071167886
21.355827683288
21.963580442381
22.203060209963
22.190934609225
22.022239843542
21.751913077488
21.42257852195
21.063214978056
20.693146315619
20.325174311733
19.968265314643
19.628151054052
19.308580718198
19.013159938994
18.745485758342
18.501052490574
18.276956083117
18.071716470182
17.88452278303
17.714813824989
17.562164785684
17.426290720167
17.307086844107
17.204693719885
17.119601758761
17.052894295797
17.006773371528
16.984598001305
16.994148023831
17.043784526343
17.124619857865
5.5389097168208
5.3993400065889
5.2226080484085
5.0089284346562
4.7594290790796
4.4731051324558
4.154378619286
3.8106372087462
3.4514270984514
3.0928630324407
2.7480186549729
2.4649247808917
2.2188434172815
1.9913105923072
1.7837797435676
1.5957990329057
1.4291742677403
1.2830773633067
1.1557108765048
1.0453868439371
0.94988839349222
0.86665626082851
0.7942484100104
0.73142982766595
0.6766523948464
0.62802580378733
0.58450237604565
0.54773113242382
0.51256885960563
0.48247101888523
0.45524294304762
0.42987239461144
0.40821927634821
0.38691937042403
0.36904634281544
0.35105372236529
0.33600332589487
0.3207815343375
0.30796297183509
0.29509571028464
0.28400736889697
0.27315409211927
0.26330542283622
0.2541286824734
0.24521552197144
0.23729529830536
0.22934039957625
0.2224026756229
0.21542337540614
0.20919292760573
0.20311522455645
0.19737160634955
0.19193583740985
0.18676795166385
0.1818518190037
0.17717402899636
0.17272377922424
0.16849169280821
0.16446584439449
0.16063129936606
0.15697130215359
0.15347027078771
0.15011562670131
0.14689736473794
0.14380672703735
0.14083779606425
0.54395843005448
3313.0555670908
3506.5595285302
2256.1260896962
1550.0833866223
1126.575739964
855.99970386317
674.20393038325
546.56554273564
453.28897111716
382.66255846203
327.5198877326
283.32616953106
247.1529561734
217.10582069673
191.95468357817
170.87660239615
153.27471722034
136.95338940115
125.1512051885
115.36788431958
107.19592269791
100.2816756145
94.335948253246
89.135731330987
84.518836367429
80.377470947734
76.647379083202
73.2936842474
70.288414305909
67.575958074274
65.03049288125
62.436666882406
59.491187316348
55.818938518447
51.065368393537
45.010739819952
37.693241196395
27.462223985202
19.731987100632
13.77828376254
10.088326928573
8.2097749819581
7.3830226415957
7.0540916941332
6.9497486085586
6.9553433093212
7.0221578450203
7.1168855811935
7.2174489860928
7.3102720610441
7.3849455789392
7.4337932425534
7.4543569335674
7.4473954350271
7.4189128641958
7.3807022368057
7.3411793219909
7.3054374265382
7.2756106245401
7.2514960279228
7.2311443410297
7.21120478149
7.1876256956813
7.15805129952
7.1219225942752
7.0795224464362
7.0326429236082
6.9845889590964
6.9418156608096
6.9093551800022
6.8866246089375
6.8643343698351
6.8306889610278
5.4051211436334
5.244923190177
5.034260687772
4.7793865238827
4.4830243749959
4.1520046150233
3.7960519502089
3.4258510867525
3.0529184969516
2.6888320909311
2.3447054152131
2.0294892194206
1.759442244112
1.527606686187
1.3338738836044
1.1764878902423
1.0501737746346
0.94959656589794
0.86601099373728
0.79560987047112
0.73559604634255
0.6838003962425
0.63865050996554
0.59876878781058
0.56305364444457
0.53083247007205
0.50144633446329
0.47442889893208
0.44972883259142
0.42692411757996
0.40617700102726
0.38700027091467
0.36937618044242
0.35299606084353
0.33782603174938
0.32370840701577
0.31060787316703
0.29841803327922
0.28710604276691
0.27653681353033
0.26670861325102
0.25746787582733
0.24883928147693
0.24067238985638
0.23302946642008
0.22578032462901
0.21898717162581
0.21255009717154
0.20649082898052
0.20073881685298
0.19528411752765
0.19008328582105
0.18512050041644
0.18039161703476
0.17587734711899
0.17157360201224
0.16747021706525
0.16355952186724
0.15982885581965
0.15626550860854
0.15285531796255
0.14958545190589
0.14644422980147
0.14342280555216
0.14051537291881
0.13770519777026
13.513104845297
4470.2421763138
3116.6930057098
2036.6590985494
1421.1204941462
1045.6174856078
802.42760092813
637.10802094792
519.79234015032
433.24048916282
367.16290782949
315.20554153984
273.318526738
238.88311025411
210.20480634099
186.17839430382
166.05303881185
149.26765395881
136.90396962471
125.11370020782
115.3381473015
107.17183175707
100.26167458735
94.318900651644
89.120802290621
84.505320116799
80.364705177975
76.634679069016
73.280354244607
70.273863768192
67.55993760287
65.013393000439
62.419600458364
59.476197366661
55.808745359809
51.062796418712
45.017977312283
37.710708365894
27.489503928653
19.757673396882
13.791618595591
10.085467146292
8.194221462159
7.3599791443255
7.0262249706947
6.918624735228
6.920601050783
6.9834995636544
7.0747298102472
7.1719473098828
7.261377625553
7.3328717371018
7.3791954585314
7.3981558970838
7.3905975565374
7.3626480693331
7.3257620225635
7.2881295103437
7.2547093064701
7.2274900632845
7.206199096889
7.1888147849101
7.1718826565587
7.1514681314435
7.1252719189041
7.0926112139392
7.0538523088731
7.0108529514962
6.9668721100347
6.9281155233772
6.8991937701632
6.8794035770748
6.859484267467
6.8273816919021
5.2460224592924
5.0677649258253
4.8325724289743
4.5518078373962
4.2356922689385
3.8978713870742
3.5479344285964
3.1951894545698
2.8489237921028
2.5125294937719
2.2065746879572
1.9248171023212
1.6752470801019
1.4590514768733
1.2751032033881
1.1214830656818
0.99514558100193
0.89146400605371
0.80370540318991
0.72916699795888
0.66605987069259
0.61269178559094
0.56727658616344
0.52841158461125
0.49494147838571
0.46581270201317
0.44014539483607
0.41729094142415
0.39683631012399
0.3784237640219
0.36171643314191
0.34659052178861
0.33264266413939
0.31976075688407
0.30767804997075
0.29639121351747
0.28572581874501
0.27575372137607
0.26634920924097
0.2575577978966
0.24924877502322
0.24144632878585
0.23403470845398
0.22703635014048
0.2203797095102
0.21407590160309
0.20810137701247
0.20243400498228
0.19706760349747
0.19194860452002
0.18707890234347
0.1824123062153
0.17794631210749
0.17366068259012
0.16955769940982
0.16563342446508
0.16188197371296
0.15829657100514
0.15486721613617
0.1515834150079
0.1484332502504
0.14540539684154
0.1424892679798
0.1396768435665
0.13696378636678
0.13426698860722
15.599144817067
4479.502744257
3103.164579943
2028.4884372095
1415.8680307574
1042.1634823949
800.08801917108
635.44545226187
518.55809529964
432.2967874041
366.42668652015
314.62282778963
272.85360359927
238.51223971023
209.9110637472
185.94841286733
165.8752063031
149.13132927782
136.8082294467
125.04042314695
115.28109925761
107.12657369448
100.22515370973
94.289117399325
89.096344740309
84.485211748525
80.34805810023
76.620597604703
73.267924142018
70.262351875416
67.549220878964
65.004563341843
62.415130249898
59.480380407935
55.827158687542
51.101251346481
45.080743033363
37.79815027501
27.599023566232
19.859674823879
13.858324478143
10.106846539065
8.1788253229289
7.3211883815071
6.9723335424155
6.854171556928
6.8465537461768
6.8998879333772
6.9828483699481
7.0722574578641
7.1544640399485
7.2195405736789
7.2608842052014
7.2767523915105
7.2681606917797
7.2415905153843
7.2080013892489
7.1749755395735
7.1470957405169
7.1260801971917
7.1114851762212
7.1010870339135
7.0911699328469
7.0779250201882
7.0591029257364
7.0338566019818
7.0027184134578
6.9676321689034
6.9318350762828
6.9011644824054
6.8796460062001
6.8662117329227
6.8517077482083
6.8236227803781
5.1633589685645
4.9023770968097
4.5616138609882
4.1935745924589
3.8454599705761
3.5075417955228
3.1867641781755
2.8800388547927
2.586602613488
2.3052842318286
2.0523871779595
1.8129015857724
1.5937879321206
1.4000096738889
1.2304994964855
1.0861710893617
0.96560605333397
0.86453047677607
0.77783303277411
0.70365422252022
0.63992669626495
0.58505258199846
0.53812129709918
0.49778749924775
0.46289784267598
0.43268768435288
0.40644182444075
0.38340477714294
0.36303951818046
0.34503888667063
0.32898125642043
0.31460177878719
0.30163042312558
0.28982121174962
0.27900377092637
0.26903803083631
0.25985020513174
0.25133881611654
0.24344862445728
0.23609570650703
0.22922756941023
0.22277359152907
0.21665798429347
0.21084861142897
0.20528538656344
0.19998386796718
0.19491578909265
0.19009924176533
0.18549544619989
0.18109984647888
0.1768828000337
0.17283003650393
0.16892919003998
0.16516719162572
0.16154896503086
0.15807256312367
0.15473838243118
0.15154124745325
0.14847456356281
0.14552917503308
0.14269481735208
0.13996162103844
0.1373207696974
0.1347658270352
0.1322949102568
0.12970666382019
18.792842915546
4480.4266571545
3081.4610430992
2016.2701685628
1408.2395083603
1037.1871378247
796.72128055849
633.05492299922
516.78482298402
430.94111725781
365.36874283671
313.78528859106
272.18538865346
237.97927906969
209.48903921883
185.61808841749
165.61993242632
148.93604916079
136.66632525506
124.9318632261
115.19686265973
107.06003442913
100.17179789277
94.246012587111
89.061522890798
84.457314908705
80.325916562183
76.603022418754
73.253689985907
70.250484428897
67.539646036059
64.998978938787
62.41721107422
59.496504202794
55.865796619849
51.171061940893
45.187867711569
37.943330708642
27.780149360244
20.028751894619
13.972592350808
10.149318489172
8.1620141045014
7.2660798713064
6.892943783466
6.7574373859427
6.7350182419064
6.773946946952
6.8442874839296
6.9220638833702
6.9936490475217
7.0495360228685
7.0837492600111
7.0952777522026
7.0857069414996
7.0620153575224
7.0340144628891
7.008610005071
6.9897872477102
6.9788858942581
6.9751216864625
6.9759465977512
6.9773397001711
6.9755602284387
6.9683292458609
6.9546658929884
6.935217955866
6.9118726780818
6.8879031471008
6.8686842323273
6.8576315567281
6.8531342425484
6.8464080205007
6.8238834244395
7.0918591067762
5.8854635944833
4.7917698030765
4.0387442233306
3.4919801016538
3.0573832387255
2.7459554464311
2.5178398270755
2.3118180741312
2.102594784327
1.8952696207227
1.6959109256274
1.5111524467632
1.3426365804273
1.1914258353832
1.0585179076532
0.94452884546279
0.84612815774352
0.76111199119565
0.6878700339226
0.62489380624137
0.57070369824302
0.52363570077405
0.4829058178246
0.44751124299943
0.41661700580199
0.38951114842181
0.36574591022156
0.34479070872931
0.32623016654703
0.30976177600925
0.29507907570963
0.28194013998531
0.27008078825439
0.25935227486066
0.2495732516091
0.24065724134246
0.23249173194089
0.22501100793481
0.21810771808411
0.21173551983224
0.20580490344802
0.20026906972191
0.19505787399823
0.19014563842579
0.18550471262384
0.18111868588203
0.17697144302458
0.17303122652099
0.16928605991273
0.1656923588711
0.16223738585162
0.15889876912054
0.1556696469735
0.15254459004543
0.14952805956843
0.14662441919523
0.14383205360802
0.14114630896795
0.13855873401762
0.13606077911963
0.13364391555557
0.13130084860943
0.12902652908258
0.12682002825954
0.12443896937237
23.595786113546
4475.9642317414
3052.1197173289
2000.0396104861
1398.2880451444
1030.7329342054
792.35600876413
629.9563232085
514.48769533341
429.18485268099
363.99744565992
312.69912219497
271.31857498302
237.28776974548
208.94132906776
185.18925796792
165.28845763053
148.68246603395
136.47827378766
124.78791615475
115.08519294807
106.97189322915
100.1012129107
94.189108841125
89.015741302171
84.420895149612
80.297376547383
76.580852640713
73.236324492754
70.236676585576
67.529306244325
64.994349229315
62.423132246309
59.521454582856
55.920982963387
51.268130484844
45.335124485368
38.141657931647
28.029500838168
20.263402206451
14.134989636385
10.214485114254
8.1453162142444
7.195917916897
6.7891166789047
6.6292820824247
6.5872925635531
6.6073413119309
6.6608357658456
6.7233844358502
6.7813632245972
6.8257577712325
6.8513362871548
6.8579914248255
6.848285867131
6.8295591785601
6.8101710883805
6.7961508366152
6.790694472428
6.7946388352482
6.8065833361855
6.8236094770459
6.8414193734481
6.856157385976
6.8653699456049
6.8675392290103
6.8635913905955
6.8552441896723
6.8460069231492
6.8407331120158
6.8422691483184
6.8484953730431
6.8511603025355
6.8347823621816
11.402729217879
7.5787668796866
5.7978279151952
4.5697098906505
3.717829413526
3.1207040810469
2.6729879542102
2.3434818252218
2.0825335050381
1.8968950899194
1.7499732643758
1.5970462550191
1.439411284795
1.289100356633
1.1536953850846
1.0335269946104
0.92683354797987
0.83206986348211
0.74907895467839
0.67695902231556
0.61455587531007
0.56069370377044
0.51425611440314
0.47373938226177
0.43835478123722
0.40736079917275
0.38012138912181
0.35598277384392
0.33462844295491
0.31566887334523
0.29878200234618
0.28366486919074
0.27012948549771
0.25795166343035
0.24693250919655
0.23695096374165
0.22788700601169
0.21963933881265
0.21210773656485
0.20522023823787
0.19889555257067
0.1930594442043
0.18765309681626
0.1826160981158
0.17791113344319
0.17349817531264
0.16936728983665
0.16549062643418
0.1618467226282
0.15840154394015
0.15512802030989
0.15200607262284
0.14901407950711
0.14614345828588
0.14338290753328
0.14073206079712
0.13818793402869
0.13574726975355
0.13340444381069
0.13114898508953
0.12897083873787
0.1268601923412
0.12480799200847
0.12280858193138
0.12086281757496
0.11876526885636
30.774024028895
4465.9169389586
3015.9546003206
1980.0074130381
1386.1222106784
1022.8668731476
787.03110161476
626.17523477927
511.68519702036
427.0416720352
362.32294016468
311.37188241113
270.25890641839
236.44210965231
208.27121525032
184.66428134996
164.88240006943
148.37157624505
136.24463725534
124.60881659124
114.94612130747
106.86205978144
100.01322245431
94.118155375124
88.958673133535
84.375548028815
80.261949005127
76.553507381876
73.215146139707
70.220127990988
67.517261988421
64.989535380427
62.431514003772
59.553478431389
55.990604237021
51.390183719024
45.520626172778
38.391086330468
28.346269589653
20.564432276778
14.34877831825
10.306663880709
8.1324259954186
7.1133024426442
6.6627152676479
6.4715848896893
6.4049748365608
6.4020353360485
6.4346118450153
6.4787137145227
6.5205525658362
6.5517736379217
6.5681665490919
6.5705085649293
6.5627219652168
6.5520029269703
6.5452706110347
6.5474456299478
6.5607229539761
6.5852740489425
6.6193107396498
6.6588730605042
6.6992016255274
6.7362310244066
6.76693324774
6.7891422078235
6.8034054860085
6.8121298025199
6.8194547599192
6.8293106076129
6.8441740037613
6.8625034886439
6.8750774650055
6.8644921390173
6.3610333162688
6.8164647041497
5.1301738768282
4.3972237111544
3.7609877354016
3.2344355194268
2.8245452470176
2.4958453343973
2.1736425678366
1.9094581257394
1.7014182310101
1.535405345431
1.4080536735434
1.2833859876289
1.1569321544885
1.039304569491
0.9335330035817
0.84023221191066
0.7579672076348
0.68533743774668
0.62174183375871
0.56642557521075
0.51840571772769
0.47680781560309
0.44040562322592
0.40842199869771
0.38032790927602
0.35550098307803
0.33344417907789
0.31374542464343
0.29617238057613
0.28042905098626
0.26624606985091
0.25345284370824
0.24189088909277
0.23141561100519
0.2218850352981
0.21323009781656
0.2053437987334
0.19814123958758
0.19153546356006
0.18547488249812
0.17988881455143
0.17471708871453
0.16991150110953
0.16543967901039
0.16127708571706
0.15739411658507
0.15376794592517
0.15036808442329
0.14716816626507
0.14414007532357
0.14126117307625
0.13851912530666
0.13590372420646
0.13340981116429
0.13102953604841
0.12875877551467
0.12659144274203
0.12451898894437
0.12253094728164
0.12061614353396
0.11876484710013
0.11696879870565
0.11522371361095
0.11352764399344
1.8663595405431
4092.9253980019
3334.3357765082
2158.7438185848
1491.1301912891
1088.6683592852
830.60933125394
656.38343944342
533.47699482002
443.34505594084
374.93054111995
321.41140207138
278.45461634328
243.26157982979
214.01454251627
189.52480134183
168.99066709301
151.82667689338
135.96621179178
124.39502929744
114.77983837595
106.73055363098
99.907736030941
94.032978384165
88.890074619782
84.320967278969
80.219267979524
76.52056564291
73.189679040089
70.200298543439
67.502884144449
64.983781616609
62.441377522052
59.591281594648
56.073002165345
51.53526548018
45.74288993486
38.691462736056
28.936701711984
21.130138911442
14.762473460116
10.49861954734
8.1265310264703
6.9727168919588
6.4381060688076
6.1880066625113
6.0744703679499
6.0312380975196
6.0258602309322
6.0373538710922
6.0515805580227
6.061473597425
6.0649835776851
6.0640197253098
6.0644582172939
6.0725841899946
6.0934150524743
6.1304747597427
6.1846236155804
6.2538562255318
6.3348756552182
6.4214273694732
6.507534172816
6.5872890964598
6.6559052707947
6.7117476956585
6.7558995824749
6.7917844361918
6.8242314605643
6.8573132904445
6.8926294128789
6.9286517768339
6.9548759142608
6.9527256690956
4.1626076791808
3.4200239223881
3.1716998604852
2.9328146659636
2.7932796053839
2.6351316142659
2.4562420880521
2.2844513279666
2.1126148028348
1.93827262929
1.737684272547
1.5042735137486
1.3290289024335
1.185970201187
1.0720508338163
0.97611338166251
0.88288653648882
0.79731374756159
0.72080236461197
0.65375221414445
0.59523387938289
0.543960900526
0.49879889060244
0.45899293339753
0.42398780174025
0.39320384302558
0.36598656572192
0.34182230199481
0.32042705025942
0.30134723891446
0.28425043494682
0.26879102741117
0.25483342160754
0.24217444999106
0.23066814356004
0.220159214651
0.21058403684051
0.20183742538831
0.19383010669716
0.18646783467366
0.17970066854668
0.17346896027073
0.16771940037953
0.16239578390697
0.15746098649994
0.15288336021161
0.14863189320694
0.14467883923899
0.1409963426377
0.13756299875585
0.13434822836715
0.13132794123466
0.12848036976125
0.12579243699597
0.12325549196195
0.12085996657238
0.11859815598423
0.11645957920093
0.11443614056389
0.11251851804821
0.11069646468373
0.10895953156494
0.10729738309651
0.1057013526132
0.10416617251407
0.10260987801204
87.097433334909
4389.6491281813
2874.0998784298
1899.9119010189
1337.7240805942
991.6260798156
765.80405098681
611.06065868201
500.47021232336
418.45403223647
355.60120753866
306.035208407
265.99298007544
233.03385204882
205.56664251923
182.54172806681
163.23705280955
147.10830080696
135.27882105957
123.86563920178
114.36674113107
106.40281044567
99.644019125829
93.819304145075
88.717332148736
84.182931682084
80.110774154855
76.436339837973
73.124161715145
70.148922424599
67.464988727843
64.96680372232
62.46212419704
59.679682695365
56.26985677287
51.88550367111
46.283847378959
39.435507899601
29.937066787686
22.123305770126
15.536738639637
10.91334292505
8.1946635221245
6.7868967984223
6.094389646316
5.7365035810589
5.5396703494202
5.4266824885146
5.3613800491208
5.3226456968455
5.2993595610788
5.2872058584078
5.2866559003792
5.302067125085
5.338470354987
5.4007012255222
5.4916310990113
5.612966604795
5.7608382563068
5.927872250408
6.1032913585692
6.2782881794843
6.4439995666075
6.5932413342269
6.721204635847
6.8257987407651
6.9091900151279
6.9766644399437
7.0345238658031
7.088220689509
7.1397317857888
7.1871216745631
7.219133898125
7.2239130464479
3.6623420968251
2.0359152733953
2.0915771271493
2.0227537375185
1.9981530844813
1.9805032452814
1.9645524697486
1.9194428031602
1.8703571121165
1.7900149251776
1.6956663837462
1.5727141835697
1.3918001126001
1.2025028872088
1.0611974373532
0.94724306486023
0.85461061392297
0.77925435520282
0.70820840704675
0.64385963323525
0.58667735054034
0.53627242413875
0.49206893396265
0.45328487351162
0.41908058652133
0.38873284808231
0.3616995564309
0.33761612184239
0.31616263354697
0.29696938295974
0.27975877576741
0.2642913220603
0.25031218793472
0.23764651039906
0.22608498679278
0.21553892672552
0.20590618684062
0.19708361268141
0.18895980950627
0.1814654121199
0.17455333445789
0.16816140040101
0.16223689567301
0.15673319559294
0.15162635815668
0.14687537311241
0.14245224908115
0.13832481070969
0.13447357863414
0.13087556027542
0.12750614389202
0.12434167228206
0.12136297992375
0.11856033652145
0.11592162401358
0.11343823919019
0.11109954553061
0.10889560435279
0.1068177803924
0.10485522627644
0.10299830028488
0.10123712470884
0.099562254273292
0.0979661785287
0.096442619370698
0.095252809000484
233.98729731674
4289.8748044512
2756.354706356
1832.5434589662
1296.8878436695
965.2506750007
747.81130715767
598.19604012134
490.89910031256
411.10827900568
349.83825840456
301.45041949882
262.32193488182
230.09599224592
203.23070290243
180.703878002
161.80780465247
146.00638129862
134.42454439426
123.2046636889
113.84833267313
105.98934609874
99.309499642761
93.546634635644
88.495425860854
84.004215250074
79.968921605694
76.324876592278
73.036225349999
70.078740575064
67.411342769646
64.938051477242
62.47861010876
59.77720942091
56.498429267385
52.301428900693
46.935832730283
40.344480220024
31.173651784305
23.404798651074
16.611069006467
11.579323565184
8.4195959475695
6.6642132550448
5.7435331393016
5.2393910889208
4.9370564384181
4.7425443958507
4.6138475725046
4.5303332739476
4.4840931767568
4.473181673052
4.5020377474555
4.5740623046796
4.6916841857019
4.8581381712611
5.0724824315371
5.3267911632267
5.6101303414282
5.9089155252787
6.2085048345557
6.4933697364483
6.7496179755218
6.9680550687864
7.1443883245755
7.2796289553192
7.3803258132467
7.4556991852957
7.5149641128187
7.5658700590386
7.6121303784754
7.6517652049272
7.6749648003921
7.6796044282978
3.4050110661992
1.5536505842624
1.475076833413
1.482165328463
1.4886831720014
1.5095852785766
1.5316681809583
1.5473395372059
1.5523815571349
1.5517709534603
1.5226961605748
1.4635776367584
1.3929298261546
1.2702687802814
1.1005473450168
0.95992404696262
0.85242308202686
0.76555702349639
0.693721473759
0.63488046819225
0.58067563948226
0.53182135212891
0.4882035274876
0.44958317514762
0.41554506225546
0.38549176734997
0.35883188117428
0.33506192284568
0.31377151716238
0.29464462727778
0.27741392014619
0.26184876910092
0.24774177307159
0.23494022159788
0.2233113466406
0.21272317054892
0.20305884327775
0.19418107572336
0.18602372191912
0.17850772450131
0.17155746576233
0.16511029278177
0.1591083891939
0.15353457280116
0.14834422777298
0.14350765194228
0.13898404764133
0.13475273013088
0.13079411397849
0.12708224307006
0.12359679350762
0.12031421730062
0.11722306150944
0.11431113297151
0.11156780706093
0.10898277735793
0.10654484150443
0.10424634843584
0.10207688993971
0.10002686965888
0.098086909044169
0.096247568299979
0.094501241176165
0.092840814237799
0.091260503945499
0.091145128449428
544.9142142457
4120.3207135868
2622.9382022197
1756.2159015364
1250.3862439086
935.12064684579
727.19612983934
583.41218039327
479.87327181474
402.62955140874
343.17453767029
296.14094170592
258.06472847354
226.68422220512
200.51335288023
178.5611886834
160.13647416889
144.71266739686
133.41245629868
122.41720343089
113.22696221783
105.49060305214
98.90330300088
93.21307696109
88.221721405107
83.781600165055
79.790053083561
76.182227034437
72.921770332303
69.985490895509
67.337293293012
64.891868734639
62.483580941031
59.873754361498
56.744470627151
52.763735300172
47.675199154766
41.394197032836
32.621376689302
24.977997966011
18.027197408686
12.58368610492
8.9132744504808
6.7209112771527
5.4744532282899
4.7662895842312
4.3328772929208
4.0521098357672
3.8707908609894
3.7663406752466
3.7293650307951
3.7639721829524
3.8780843833368
4.0670895227081
4.3262991308271
4.652119587599
5.0403185228482
5.4750710903806
5.9326271779205
6.385511579699
6.8083651199688
7.183113210675
7.4972981962196
7.7452443730877
7.9280635844713
8.0533882593337
8.1340316016774
8.1839726154046
8.2160378060914
8.2403496877952
8.2617209173024
8.2789312883046
8.285932485214
8.2872324030317
3.5079028297004
1.360837121816
1.1437592565648
1.1386002789649
1.1576833244449
1.1866935682239
1.2198943653561
1.2526621799297
1.2821083714628
1.3011544730022
1.3183233457853
1.3127425382106
1.2739432748133
1.2287535305188
1.1420228747767
1.0155531230846
0.87659599498187
0.77455539537569
0.69425151902865
0.6286648254856
0.57372135521891
0.52775221152229
0.48575334529841
0.4479010974627
0.41406432027243
0.38395820810021
0.35719859219072
0.33339652580038
0.31216358160177
0.29314491419141
0.27602405781723
0.26051453122579
0.2464092910125
0.23356001620552
0.22183467630625
0.21112660965838
0.20135034738508
0.19239679322146
0.18417602944326
0.17661056794428
0.1696052987161
0.16311537065572
0.15709361721569
0.15149115304041
0.14627595711227
0.14139665923036
0.13683391318796
0.13256020114024
0.12854736795913
0.12477519649159
0.12121764197801
0.1178659874127
0.11470504677628
0.1117228164093
0.10890791663668
0.10624827979813
0.10373862063784
0.10136676006111
0.099122692128204
0.096997064485521
0.094980309771262
0.093066612121459
0.091248819395964
0.089519779607713
0.087874067280291
0.097533508402781
1347.4550004721
3898.3829940752
2476.9461206245
1672.4725289179
1199.12130403
901.75592330309
704.28615087886
566.93504747944
467.55683867773
393.1424725847
335.70799845667
290.18422493134
253.28303530246
222.84734313711
197.45257491232
176.14229994599
158.24362696763
143.24096324598
132.25153915823
121.50811314066
112.50455728315
104.90647303892
98.423908934364
92.816136705798
87.892930934687
83.511177277998
79.56980341091
76.00371965144
72.775947531091
69.864295120093
67.237738386198
64.822417458582
62.469287568202
59.958434624645
56.992741274516
53.251445031142
48.474911314496
42.552882522064
34.249287578032
26.824315056676
19.805658551896
14.003611303226
9.8022484219023
7.0855276278027
5.440934964846
4.4436983543275
3.8398175083107
3.4677614410176
3.2536107793215
3.162230586385
3.1773600260436
3.3214821719218
3.5844927632064
3.9487888922605
4.4056187846084
4.9450711741618
5.5438128551944
6.1655024721114
6.7733618637317
7.3323314094179
7.818548366804
8.2178142106434
8.5237827816786
8.7414323660492
8.8814192694447
8.9588221272088
8.9917494428258
8.9973650411199
8.9901343187053
8.980331438282
8.9735461594055
8.9694705586847
8.9661024249621
8.9680823337063
4.1912769580872
1.2282778765334
0.98101427709527
0.9171261746895
0.93238300482598
0.96089828160603
0.99732102456121
1.0303249340178
1.0709826164295
1.0961541707538
1.1208128392816
1.1447263835974
1.146370026165
1.1199006061145
1.0890492816968
1.0252156642563
0.92726184358886
0.80548506027565
0.70918713250743
0.63471030091129
0.57472900270667
0.52511409348828
0.48287949744956
0.44648100918286
0.41347829570333
0.38370280659722
0.3569571922559
0.33301996385951
0.3116120544817
0.29242119811649
0.27519920976409
0.25969319327393
0.24561270624966
0.23277236184257
0.22104938962165
0.21033374790625
0.200510446088