/*--------------------------------*- C++ -*----------------------------------*\
| =========                 |                                                 |
| \\      /  F ield         | OpenFOAM: The Open Source CFD Toolbox           |
|  \\    /   O peration     | Version:  2312                                  |
|   \\  /    A nd           | Website:  www.openfoam.com                      |
|    \\/     M anipulation  |                                                 |
\*---------------------------------------------------------------------------*/
FoamFile
{
    version     2.0;
    format      ascii;
    arch        "LSB;label=32;scalar=64";
    class       volScalarField;
    location    "0.00019";
    object      nut;
}
// * * * * * * * * * * * * * * * * * * * * * * * * * * * * * * * * * * * * * //

dimensions      [0 2 -1 0 0 0 0];

internalField   nonuniform List<scalar> 
109340
(
0.00071887813899254
0.00049299702947151
0.00026604928350991
0.00022233650660161
0.00021537655031219
0.00021978220994866
0.00022797232240474
0.00024230006653296
0.00021118099616091
0.00018783882366484
0.00016936516777257
0.00015429624688359
0.00014174157946601
0.00013110927281052
0.00012198457569383
0.00011406608415729
0.00010712863970737
0.00010100029247318
9.5547295271592e-05
9.0663967577931e-05
8.6265645977296e-05
8.228365633755e-05
7.8661661905415e-05
7.5352971855716e-05
7.2318533022094e-05
6.9525407968662e-05
6.6945600612826e-05
6.4555136706287e-05
6.2333327244515e-05
6.0262155928153e-05
5.8325739290071e-05
5.6509790994355e-05
5.4800932038509e-05
5.3185402980144e-05
5.1645542597188e-05
5.0151197456804e-05
0.00071052506640971
0.00034454834293506
0.0002524077494925
0.00023089917893675
0.0002293495013693
0.0002339178800126
0.00020944645423494
0.00018219639472623
0.00016102350689799
0.00014426132377888
0.00013069062455735
0.00011948625513531
0.00011008182423815
0.00010207768054433
9.5184118809673e-05
8.9186062941635e-05
8.3920510552495e-05
7.9261675006323e-05
7.5110932757704e-05
7.1389815492046e-05
6.8035008734943e-05
6.499478946637e-05
6.2226472127538e-05
5.9694549220202e-05
5.7369281530906e-05
5.5225598879982e-05
5.3242239793911e-05
5.1401055469133e-05
4.9686430020784e-05
4.80848036405e-05
4.6584250639342e-05
4.5174071070833e-05
4.3844356430996e-05
4.2585451858535e-05
4.1387062166126e-05
4.0232760556872e-05
0.00041730248477661
0.00029406348142538
0.00025346528103829
0.0002379181365857
0.0001903318582225
0.00015867955384229
0.00013572710771916
0.00011842962686661
0.00010498622143298
9.4282776813739e-05
8.558489003586e-05
7.8390728818727e-05
7.2348882348686e-05
6.7207519979478e-05
6.2782170213177e-05
5.8934960008749e-05
5.5560940152036e-05
5.2578870034107e-05
4.992469650296e-05
4.7546786127846e-05
4.5402885804193e-05
4.3458306908535e-05
4.1684649267679e-05
4.0058687530539e-05
3.8561268715942e-05
3.7176538531197e-05
3.5891335446286e-05
3.4694496825762e-05
3.3576583204062e-05
3.252945992124e-05
3.1545993074588e-05
3.0619894863073e-05
2.9745383476444e-05
2.8917659808587e-05
2.8135022603643e-05
2.7399281329292e-05
0.0002398153613728
0.00024224868355531
0.00015203315758792
0.00011067895817661
8.7066113239063e-05
7.181853244387e-05
6.1191684516984e-05
5.3379028498438e-05
4.7405405269653e-05
4.2698519865322e-05
3.8900569888323e-05
3.5776147829898e-05
3.316405683649e-05
3.0950358959524e-05
2.9052461163293e-05
2.7409143289343e-05
2.5973966979274e-05
2.4710544823177e-05
2.3586335797861e-05
2.2573476277524e-05
2.1651257168303e-05
2.0805029722487e-05
2.0024218345484e-05
1.9301005153766e-05
1.8629375538492e-05
1.8004483219848e-05
1.7421890689956e-05
1.687838718706e-05
1.6371100514622e-05
1.5897489040862e-05
1.5454975595443e-05
1.5039783418597e-05
1.4645966254868e-05
1.4268610847517e-05
1.3909356880192e-05
1.358172876937e-05
0.00014442224368472
4.7212168293519e-05
2.870847883618e-05
2.0819440395297e-05
1.6472184472811e-05
1.374319690121e-05
1.1886835361644e-05
1.0552918953379e-05
9.5552508280473e-06
8.7866046312596e-06
8.1813101548671e-06
7.6977216338778e-06
7.3082586430358e-06
6.9943444763398e-06
6.7433473516337e-06
6.5464254142635e-06
6.3957603779973e-06
6.2782647915523e-06
6.1725003449651e-06
6.0669707226753e-06
5.960682043621e-06
5.8570757774281e-06
5.7598117302495e-06
5.6714068333101e-06
5.5932613170419e-06
5.5260764722574e-06
5.4700316771495e-06
5.4249999709523e-06
5.39135163097e-06
5.3688368976328e-06
5.3564897560044e-06
5.3535307216452e-06
5.3591354958482e-06
5.3718180660685e-06
5.3871453001486e-06
5.3969712326433e-06
3.6369529322229e-07
5.4284968365235e-07
6.9845830558586e-07
8.1987032238902e-07
9.0665303935791e-07
9.6388092148799e-07
9.9828357451295e-07
1.0161627617665e-06
1.0225334239235e-06
1.0215568898111e-06
1.015641208096e-06
1.0066843246567e-06
9.9599167333493e-07
9.8444466813719e-07
9.7263525407376e-07
9.6098505806445e-07
9.4976887559764e-07
9.3917113039143e-07
9.2938055963025e-07
9.2063032810199e-07
9.1271958804633e-07
9.0551850803452e-07
8.9896138702892e-07
8.9301082106558e-07
8.8763612358915e-07
8.8280592617891e-07
8.7848606085283e-07
8.7463844728814e-07
8.7121761648972e-07
8.6816518774479e-07
8.654025075118e-07
8.6279525183491e-07
8.601277783e-07
8.5689321016156e-07
8.5114441302935e-07
8.3329505542115e-07
4.5048166448671e-05
2.492532695988e-05
1.4071240533881e-05
9.2368606806536e-06
6.6969634108382e-06
5.042000659598e-06
3.8714532393618e-06
3.0121659894482e-06
2.4288964091525e-06
2.1660033855089e-06
2.2119108204326e-06
2.7932593715175e-06
3.3017883389448e-06
3.7951107620388e-06
4.22314172653e-06
4.5531443236005e-06
4.8511829892014e-06
5.0891497349933e-06
5.3007568801921e-06
5.5271464481794e-06
5.7213738878152e-06
5.8811565838943e-06
5.8978000663747e-06
5.6472752387671e-06
5.4194240011431e-06
5.2090688092177e-06
5.0136411342057e-06
4.8432792217627e-06
4.6749957348028e-06
4.5265184468698e-06
4.3885305038187e-06
4.2559901212286e-06
4.1401892343053e-06
4.023164248424e-06
3.9230004530692e-06
3.8196688152697e-06
3.7316712210448e-06
3.6404974109067e-06
3.5623679864541e-06
3.4820997536087e-06
3.4117704815176e-06
3.3415161676856e-06
3.2767478657514e-06
3.2153912960887e-06
3.1547992100079e-06
3.1002400990919e-06
3.044475934262e-06
2.995290038193e-06
2.9448771202109e-06
2.8993714774094e-06
2.854279535647e-06
2.8111005488712e-06
2.7697778566632e-06
2.730044232538e-06
2.6918222276854e-06
2.6550399459237e-06
2.6196357402185e-06
2.5855611331881e-06
2.5527549524133e-06
2.5211366049082e-06
2.4906127968863e-06
2.4610996814888e-06
2.4325351551976e-06
2.4048732988984e-06
2.378066875334e-06
2.3520856111207e-06
6.1507298910981e-06
0.00037572236612838
0.00047561956803933
0.00042050989501198
0.00038061661340822
0.00035146021485458
0.00032959610404186
0.00031291097098773
0.00029975644412057
0.00028892197622662
0.00027963492663281
0.00027141672552422
0.00026397313418599
0.00025716754570213
0.00025101327139931
0.00024562804656649
0.00024115610451442
0.00023768477317258
0.00023490637415683
0.00023330947065469
0.00023225657491416
0.00023151652801538
0.00023091457186544
0.00023035193668233
0.00022980432373835
0.00022931325951767
0.00022898280171081
0.00022897219090797
0.00022947194245936
0.00023063599258466
0.00023244868778933
0.00023454372192262
0.0002361067174047
0.00023587890069239
0.0002322436701391
0.00022358364683495
0.00020872470378729
0.00018749344949684
0.00015396656981749
0.00012687138429629
0.0001049976876773
8.9642907315202e-05
7.9777423586453e-05
7.4034863933736e-05
7.0956710248601e-05
6.9312232875665e-05
6.8494037894147e-05
6.8212633706141e-05
6.8217495602981e-05
6.8338747695764e-05
6.8486293473139e-05
6.8598923220832e-05
6.8633691326516e-05
6.8576643053624e-05
6.8422546490099e-05
6.8197541869442e-05
6.7955306204276e-05
6.7733186952788e-05
6.7554222484668e-05
6.7425358289617e-05
6.734251380988e-05
6.7294807086424e-05
6.7261050792071e-05
6.7219826118978e-05
6.7157366627607e-05
6.7068798666521e-05
6.6953939619483e-05
6.6820760738953e-05
6.6685338556528e-05
6.6581189657635e-05
6.6529608703504e-05
6.6523264714307e-05
6.651071396655e-05
6.6432490916621e-05
3.4808041288695e-05
1.9566876616365e-05
1.213823378804e-05
8.5865318601709e-06
6.4067744097788e-06
4.8430925385327e-06
3.7396324851469e-06
2.9346199204252e-06
2.3507379604847e-06
1.9598756962671e-06
1.7305805547437e-06
1.6809373852875e-06
1.7506197613185e-06
1.8865928436079e-06
2.0950177504131e-06
2.3600461407869e-06
2.6769264963884e-06
3.0445473408199e-06
3.4265037789808e-06
3.815922032388e-06
4.2108834842216e-06
4.6099821585769e-06
5.0050196503102e-06
5.3959190909545e-06
5.2758780157111e-06
5.0709599659344e-06
4.8842213800659e-06
4.7132745712287e-06
4.5570704399927e-06
4.4125617435773e-06
4.2800189629998e-06
4.1565578357302e-06
4.0421847209101e-06
3.9350898901915e-06
3.8351294274008e-06
3.741280125485e-06
3.6533256100478e-06
3.5705397172836e-06
3.4927719796653e-06
3.4191868655337e-06
3.3499252707034e-06
3.2840382464691e-06
3.2218311236725e-06
3.1623224383227e-06
3.1060634698307e-06
3.0521493694353e-06
3.0010752055533e-06
2.9521192482608e-06
2.9054980360298e-06
2.8607430406297e-06
2.8178566474946e-06
2.7765711861696e-06
2.736819772167e-06
2.6986137009703e-06
2.6618158717663e-06
2.6264044911438e-06
2.5923042067157e-06
2.5594668018826e-06
2.5278113792759e-06
2.4972649076689e-06
2.4677448677345e-06
2.4391797289554e-06
2.4115036965383e-06
2.3846699513165e-06
2.3586525573846e-06
2.3332241142524e-06
2.8537129573323e-05
0.00048453995690632
0.00045992483642687
0.00040874258440693
0.00037211431429089
0.00034513446829419
0.00032480599696387
0.00030917383255275
0.00029671233915451
0.00028633926287433
0.0002773712767243
0.00026938244199722
0.00026211874482409
0.00025548380120912
0.00024952263484743
0.00024436646246539
0.00024015113188708
0.0002369374968393
0.00023488306180278
0.00023328762083149
0.0002322338452217
0.00023149240139252
0.00023088910385353
0.00023032545849969
0.00022977716274284
0.00022928543091459
0.00022895383898521
0.00022894107349504
0.00022943726084537
0.00023059644115663
0.00023240401354889
0.00023449594777421
0.00023606057542177
0.00023584261893578
0.00023222794448135
0.00022359970145072
0.00020878070213502
0.00018758951632859
0.0001540956876833
0.00012697356967291
0.00010502316010066
8.9580511313854e-05
7.9637488670331e-05
7.3834431608982e-05
7.0710756976545e-05
6.9033783623139e-05
6.8182033159296e-05
6.7867799582942e-05
6.7844765651441e-05
6.794135512968e-05
6.8066531307025e-05
6.8160414947843e-05
6.8182167967772e-05
6.8118906712501e-05
6.7965010326063e-05
6.7747491302403e-05
6.7517847029079e-05
6.7312102239198e-05
6.7152496521296e-05
6.7044990826569e-05
6.6985136871213e-05
6.6961599425777e-05
6.6952577688921e-05
6.6937031164393e-05
6.6901222331935e-05
6.6839496216592e-05
6.6751956815186e-05
6.6646752829649e-05
6.6539676581332e-05
6.6462337216121e-05
6.6434231080912e-05
6.644720400115e-05
6.645053494593e-05
6.6382697628447e-05
2.5474930978274e-05
1.328534974554e-05
8.5986712240218e-06
6.2983018772094e-06
4.698387526988e-06
3.7060290778591e-06
2.9566595935856e-06
2.4277148064968e-06
2.0625972993773e-06
1.830747738927e-06
1.7401458316105e-06
1.7182263953292e-06
1.7779337402587e-06
1.8957454017106e-06
2.0545074022378e-06
2.2477919213086e-06
2.4757443170067e-06
2.7207009403716e-06
2.9577728664576e-06
3.1999450171428e-06
3.4605935789859e-06
3.729134720436e-06
4.0061218233355e-06
4.3025523306567e-06
4.6142208010131e-06
4.9352987268401e-06
4.8119500086186e-06
4.6405691116638e-06
4.4840311105747e-06
4.3407008801809e-06
4.2085124948174e-06
4.0867557630067e-06
3.9737802674016e-06
3.8692419776634e-06
3.7715321236095e-06
3.6808380850893e-06
3.5954798546395e-06
3.5155760444576e-06
3.4400369415273e-06
3.3691067279292e-06
3.3018346531488e-06
3.2383989030259e-06
3.1779446628209e-06
3.1206404462131e-06
3.0659672090781e-06
3.0139719936295e-06
2.9644256461557e-06
2.9171016434868e-06
2.8719612884758e-06
2.8286027006387e-06
2.7870969087329e-06
2.747105680149e-06
2.7086408847403e-06
2.6715457522785e-06
2.6358334885311e-06
2.6014571779848e-06
2.5683528935472e-06
2.536459014307e-06
2.5056994566414e-06
2.4760053991729e-06
2.4473002585241e-06
2.4195129894924e-06
2.3925761732302e-06
2.3664404476703e-06
2.3410814708405e-06
2.3150922987617e-06
3.0357373813069e-05
0.00048631684443227
0.00045908981713762
0.00040800037971711
0.00037153671619844
0.0003447153324921
0.00032448684477428
0.00030890389448658
0.00029647167697418
0.00028612428610441
0.00027718051042893
0.00026921418111296
0.00026197255797407
0.00025536043116306
0.00024942225668811
0.00024428734359309
0.00024008920755165
0.00023688683402921
0.00023484217271119
0.00023324778317125
0.00023219198287255
0.00023144745373709
0.00023084153479022
0.00023027655147388
0.00022972818869249
0.00022923725271998
0.00022890637916135
0.00022889328181728
0.0002293873622211
0.00023054296656102
0.00023234770958417
0.00023444234914419
0.00023602089190989
0.00023583534145423
0.00023227658003038
0.00022372948174361
0.00020901054385331
0.0001879214874929
0.00015451879805871
0.00012734513472136
0.00010522103021837
8.9565799983692e-05
7.9422306426109e-05
7.3455242849024e-05
7.0208988425516e-05
6.844258657978e-05
6.7509400552175e-05
6.711787185819e-05
6.7030618538507e-05
6.7070882194649e-05
6.7148194199871e-05
6.7203912418984e-05
6.7200076257411e-05
6.7125454218756e-05
6.697381370631e-05
6.6774327672144e-05
6.6574777957369e-05
6.6407812083685e-05
6.6293418869192e-05
6.6235740371942e-05
6.6229334550325e-05
6.6261642254539e-05
6.6309428351651e-05
6.6351758194043e-05
6.6374499796259e-05
6.6370777693199e-05
6.6341287527976e-05
6.6294256724975e-05
6.6245230673784e-05
6.622269988556e-05
6.6243807628402e-05
6.6297968291151e-05
6.6337057705126e-05
6.6294401133999e-05
1.3390873230092e-05
7.6645809518357e-06
5.1885086528018e-06
3.8294017093646e-06
3.0454338045787e-06
2.5606214601778e-06
2.2529660357883e-06
2.0584071758363e-06
1.945975173369e-06
1.9143106762609e-06
1.8973268908028e-06
1.9099456412339e-06
1.953982481378e-06
2.0334462674277e-06
2.1533852787789e-06
2.3147218588424e-06
2.5016312302237e-06
2.7070025613069e-06
2.9135399802401e-06
3.1076535751122e-06
3.2888047232388e-06
3.484654767045e-06
3.6915633433095e-06
3.9006082480784e-06
4.1214467514846e-06
4.3657708869469e-06
4.6180747614754e-06
4.5789290442941e-06
4.4232090351387e-06
4.2803972894359e-06
4.1486170934997e-06
4.0268717453789e-06
3.9141108314283e-06
3.8093376044813e-06
3.7118242303926e-06
3.6208392919296e-06
3.5359639801912e-06
3.4565323221811e-06
3.3821647721586e-06
3.3121109238059e-06
3.2463060398935e-06
3.184388885131e-06
3.1257903156745e-06
3.0704265084131e-06
3.0177456957286e-06
2.9676678808482e-06
2.919837592442e-06
2.8742899826969e-06
2.8306630264749e-06
2.7889202666578e-06
2.7488315161877e-06
2.710286767054e-06
2.6731848541711e-06
2.6373967701432e-06
2.6029347022106e-06
2.5697388880166e-06
2.5377738695937e-06
2.5069682659205e-06
2.4772569858814e-06
2.4485665403871e-06
2.4208200675017e-06
2.3939467306529e-06
2.3678801452886e-06
2.3425745054528e-06
2.318028941097e-06
2.2906999914196e-06
3.2775609166388e-05
0.00048863524757962
0.00045801675265315
0.0004070040575904
0.00037073390111612
0.00034411697992691
0.00032402587618454
0.0003085145538849
0.00029612563798237
0.00028581533530683
0.00027690624479127
0.00026897235981225
0.00026176267330994
0.0002551834759178
0.00024927838535493
0.00024417400257325
0.00024000060626294
0.00023681478065081
0.00023478257680304
0.00023318947338116
0.00023213054520541
0.00023138135639949
0.00023077159407503
0.00023020483726131
0.00022965684910686
0.00022916779159152
0.00022883899615766
0.00022882667807819
0.00022931917486514
0.00023047128816728
0.00023227399564074
0.00023437520119395
0.00023597724337963
0.00023584308239114
0.00023237192018451
0.00022395076283889
0.00020938621996714
0.00018845656339175
0.00015520558138296
0.00012795974391455
0.00010557520814258
8.9591593418875e-05
7.9132279141198e-05
7.2904172923039e-05
6.9464231843516e-05
6.7553157402584e-05
6.6497344366874e-05
6.5988741759508e-05
6.5803629252895e-05
6.5760065809536e-05
6.5767209301763e-05
6.576872221429e-05
6.572925514534e-05
6.5640033624488e-05
6.5496062226046e-05
6.5329206573967e-05
6.5179695786392e-05
6.5076350816879e-05
6.5035321340605e-05
6.5058371909279e-05
6.513780094697e-05
6.5259208294548e-05
6.5397701938179e-05
6.5531477781939e-05
6.5645273867105e-05
6.5730621929749e-05
6.5788919155916e-05
6.5827543251654e-05
6.5862110781817e-05
6.5917284372839e-05
6.6007528565483e-05
6.6119058003653e-05
6.6209229530277e-05
6.6200351767263e-05
5.3664696511764e-06
4.3509951248131e-06
3.6360101190196e-06
3.2801552996425e-06
2.9807574701631e-06
2.6939197484928e-06
2.5031156378796e-06
2.3927572412947e-06
2.3374314551438e-06
2.2469202059631e-06
2.2262594930024e-06
2.2321720803803e-06
2.2600769898675e-06
2.316812926743e-06
2.3913197649615e-06
2.4930412596416e-06
2.6356361855826e-06
2.7915464067538e-06
2.9494451348664e-06
3.1149869719189e-06
3.2873764658815e-06
3.4472455722216e-06
3.6118415745543e-06
3.7910859308591e-06
3.9727159674213e-06
4.1533386045233e-06
4.3515328601572e-06
4.5198531230668e-06
4.3676442074587e-06
4.2268178013683e-06
4.096608059472e-06
3.9759005730145e-06
3.8638751164873e-06
3.7594651887773e-06
3.6623073130565e-06
3.5715257250774e-06
3.4867949387607e-06
3.4074595117376e-06
3.3332018150566e-06
3.263376056343e-06
3.1978306106202e-06
3.1360132219382e-06
3.077676596039e-06
3.0223566454858e-06
2.9699409315976e-06
2.9202649793001e-06
2.8731572092691e-06
2.8283650388943e-06
2.7856093943653e-06
2.7449419747654e-06
2.7060113959678e-06
2.6687604772907e-06
2.6330052827586e-06
2.5985932704789e-06
2.5654002320222e-06
2.5334023616068e-06
2.5025869555718e-06
2.4728995623477e-06
2.4442760927324e-06
2.4166328435573e-06
2.3898952537549e-06
2.3639905015713e-06
2.3388551783799e-06
2.3144478411696e-06
2.290774666188e-06
2.263694351523e-06
3.5976959753409e-05
0.00049123603337145
0.00045675580841262
0.00040580476273757
0.00036973543559045
0.00034334950370293
0.00032342549474309
0.00030800756777313
0.0002956765341339
0.00028541459054238
0.00027655030720542
0.00026865858760748
0.00026149056438278
0.0002549541821791
0.00024909192739885
0.00024402697453391
0.00023988553393433
0.00023672115303711
0.00023470358663782
0.00023311203040891
0.0002320488642272
0.00023129348269304
0.00023067867580143
0.00023010968716938
0.00022956241886388
0.00022907616170366
0.00022875055814005
0.0002287398430387
0.00022923093062726
0.00023037918685324
0.00023217994830281
0.00023429057751317
0.00023592446266543
0.00023585940140253
0.00023250548750706
0.00022425329325144
0.00020989659758956
0.00018918230287443
0.000156148289181
0.00012881808167991
0.00010609472362066
8.9671359036385e-05
7.8781772124122e-05
7.2195376851348e-05
6.8488835589773e-05
6.6376132664513e-05
6.5158838392036e-05
6.4496363960919e-05
6.4180906657537e-05
6.4028078053025e-05
6.39459590912e-05
6.3880894667307e-05
6.3800449006602e-05
6.3698215899191e-05
6.3573001582174e-05
6.3457969964953e-05
6.3384037764945e-05
6.3374817515359e-05
6.3441122004783e-05
6.3581754218514e-05
6.3784491802488e-05
6.4033196080899e-05
6.4301380332268e-05
6.456415077902e-05
6.4804379893596e-05
6.5009017795888e-05
6.5182283748576e-05
6.5329583886509e-05
6.5467453087015e-05
6.5616497382147e-05
6.5788798397125e-05
6.5968559051902e-05
6.6119459379348e-05
6.6145071206414e-05
2.4463486916766e-06
2.9477361339578e-06
3.6266670977876e-06
4.2885163260165e-06
5.0156999907366e-06
4.8942804424739e-06
4.1795241146331e-06
3.5849245584037e-06
3.169162160285e-06
2.9362306124414e-06
2.7907110393273e-06
2.7123205012517e-06
2.6826974366706e-06
2.6892185585375e-06
2.7253440238063e-06
2.7850234018882e-06
2.8640337533281e-06
2.9588986194288e-06
3.069266339261e-06
3.1916059690489e-06
3.3245721740894e-06
3.474201965133e-06
3.6243902317902e-06
3.7755933028365e-06
3.9370219218501e-06
4.101852529224e-06
4.2652481148077e-06
4.4360653735236e-06
4.3131489341923e-06
4.1760632647221e-06
4.0487081719664e-06
3.9300307692023e-06
3.8195518284207e-06
3.716462523819e-06
3.6200283828068e-06
3.529895212047e-06
3.4455352931402e-06
3.3664757835891e-06
3.292219711709e-06
3.2224963684458e-06
3.1569210127957e-06
3.095099421707e-06
3.0367205162429e-06
2.9814403110001e-06
2.9291111755122e-06
2.8794819663827e-06
2.8324866409365e-06
2.7878636667164e-06
2.7454379313944e-06
2.7049656586022e-06
2.6662828377656e-06
2.6292817025809e-06
2.5937978454263e-06
2.5597717162418e-06
2.5270985889978e-06
2.4957330326742e-06
2.4655802466103e-06
2.4366124623765e-06
2.4087918769716e-06
2.3820085527851e-06
2.3561921741037e-06
2.3312316078726e-06
2.307013767702e-06
2.2834749329135e-06
2.260638476656e-06
2.2359887195411e-06
4.0175011480004e-05
0.00049300089467751
0.00045524868502499
0.00040442613876143
0.00036856811737112
0.00034242519391322
0.00032268952211384
0.00030738518534539
0.00029512684528808
0.00028492444696935
0.00027611481939895
0.0002682747778483
0.00026115799560409
0.00025467407367835
0.00024886402488367
0.00024384696454195
0.00023974428065337
0.00023660584982605
0.00023460486848345
0.00023301498107287
0.00023194643349685
0.00023118334585406
0.00023056231902973
0.00022999064287859
0.00022944441067594
0.0002289618202501
0.00022864044259788
0.00022863205300805
0.00022912176989867
0.00023026559340907
0.00023206418039702
0.00023418650177073
0.000235859772998
0.00023588016899536
0.00023267175417679
0.00022463059206635
0.00021053572842719
0.00019009212955917
0.00015734650968339
0.0001299295921818
0.00010680088316127
8.983222944559e-05
7.8397686865034e-05
7.1351746302664e-05
6.7300949582797e-05
6.4929313026593e-05
6.3508777808016e-05
6.2659715174924e-05
6.2183025112542e-05
6.1898640401997e-05
6.1711989525091e-05
6.1572886708777e-05
6.145294900841e-05
6.134670398185e-05
6.1259991388486e-05
6.1223283672049e-05
6.1258451317228e-05
6.1381699108539e-05
6.1596844509849e-05
6.1898508764971e-05
6.2272859110996e-05
6.2695839904032e-05
6.313732063893e-05
6.3570170651707e-05
6.3972672490196e-05
6.4327153477149e-05
6.4633899144729e-05
6.49029816304e-05
6.5155100388931e-05
6.5403786533987e-05
6.5660380067559e-05
6.5917972023056e-05
6.6131503122716e-05
6.6184715373573e-05
9.844721073553e-07
1.9085307598144e-06
2.2157735282845e-06
2.7768966018802e-06
3.3666397279772e-06
4.0299168031432e-06
4.8422107168419e-06
5.6663357548483e-06
4.791240462823e-06
4.1421273860923e-06
3.7099902128628e-06
3.4472553823982e-06
3.2825559547717e-06
3.1862125024847e-06
3.1407499418044e-06
3.1298883689712e-06
3.1434301668171e-06
3.1811274752437e-06
3.238865122376e-06
3.3128874131622e-06
3.4049671944716e-06
3.5126280032865e-06
3.6369464695692e-06
3.774514581506e-06
3.9065449792716e-06
4.0615898831464e-06
4.2173766247245e-06
4.3760462988841e-06
4.2939963323154e-06
4.1583870856676e-06
4.0322808439791e-06
3.9147688481053e-06
3.8047609235293e-06
3.7017655151067e-06
3.6053464472853e-06
3.5150220057908e-06
3.4301032496168e-06
3.3504253914341e-06
3.2754827892093e-06
3.2049482031635e-06
3.1384242477699e-06
3.0757557290755e-06
3.0165518020538e-06
2.9604861000143e-06
2.9073322309729e-06
2.8569634958286e-06
2.809252119796e-06
2.7639656730341e-06
2.7209362470417e-06
2.6799530744679e-06
2.6408674095924e-06
2.6035101622994e-06
2.567739626316e-06
2.533485141129e-06
2.5006623609408e-06
2.4692107400349e-06
2.4390289453651e-06
2.4100579717273e-06
2.3822372412979e-06
2.3554976325518e-06
2.3297556301585e-06
2.3049170929813e-06
2.2809067510919e-06
2.2576576727977e-06
2.2351319176861e-06
2.2133221720938e-06
1.1865115276188e-05
0.00044442548644584
0.00046857358876615
0.0004138697030095
0.00037506083007419
0.00034713259683191
0.00032623393061953
0.00031011656600972
0.00029729909323851
0.00028672944029339
0.00027768468322547
0.00026969332324445
0.00026247055332621
0.00025589060087497
0.00024996444190987
0.0002447941673951
0.00024050262898658
0.00023715842367454
0.00023448612813896
0.00023289792691082
0.00023182279164158
0.00023105048360382
0.00023042208785967
0.00022984728265447
0.00022930239725966
0.00022882431920796
0.00022850816899641
0.00022850279325905
0.00022899112756197
0.00023012983468137
0.00023192577514273
0.00023406161625357
0.00023578096164024
0.00023590193592004
0.00023286580600816
0.00022507640510661
0.00021129818977781
0.00019118381887415
0.00015957737325939
0.00013203497284098
0.00010820623107676
9.025669118604e-05
7.7814957529451e-05
6.9895406149492e-05
6.5186983557378e-05
6.2327115148064e-05
6.0515645127129e-05
5.9341828017816e-05
5.8572647112745e-05
5.8056374690846e-05
5.7692890734223e-05
5.7437996647645e-05
5.7272833334588e-05
5.7190038018916e-05
5.720877721483e-05
5.7348644514731e-05
5.7619434339899e-05
5.8027046651204e-05
5.8565393961881e-05
5.9210978501235e-05
5.994529529175e-05
6.0725759652485e-05
6.1517028444136e-05
6.2273929434721e-05
6.2957972967494e-05
6.3558495258456e-05
6.4078674527895e-05
6.4535779090162e-05
6.4955330425314e-05
6.5353467144655e-05
6.5737511354553e-05
6.6105277686538e-05
6.640028721534e-05
6.6489535392983e-05
4.9071275204046e-07
1.260290896966e-06
1.5037286939408e-06
1.7753643461505e-06
2.1383831910189e-06
2.6183794128072e-06
3.163708759218e-06
3.8116420553206e-06
4.5726988173717e-06
5.2664627745453e-06
5.7712607892706e-06
5.2471657009502e-06
4.713930633234e-06
4.3460235677178e-06
4.1009956673839e-06
3.9453585160055e-06
3.8389588745587e-06
3.7744435863976e-06
3.7470751814328e-06
3.7479919325867e-06
3.7733646534711e-06
3.8202218290252e-06
3.884011796785e-06
3.9656014795389e-06
4.0706093807536e-06
4.1906067528166e-06
4.2989013301069e-06
4.2988136315118e-06
4.1607212396536e-06
4.0323499408462e-06
3.9134646522668e-06
3.8028372372005e-06
3.6999558885942e-06
3.6035012943965e-06
3.5127947031613e-06
3.4270991009201e-06
3.3463867154685e-06
3.2702136923786e-06
3.1982530546395e-06
3.1300907229369e-06
3.0656366340143e-06
3.0046299859083e-06
2.9468141618713e-06
2.8918725830314e-06
2.8396553878498e-06
2.7900402411561e-06
2.7428771512346e-06
2.6980147500978e-06
2.6552793096633e-06
2.6145661039105e-06
2.5756843570204e-06
2.5385088399133e-06
2.5029156744698e-06
2.4688384646794e-06
2.4362252184328e-06
2.404991290773e-06
2.3750666893857e-06
2.3463582309944e-06
2.3188114907419e-06
2.2923655727905e-06
2.2669476030168e-06
2.2424782461785e-06
2.218879675492e-06
2.1960918931234e-06
2.1740854024132e-06
2.1519590877531e-06
6.3340911747391e-05
0.00049315062431276
0.00044796110151671
0.00039890909173477
0.00036412461593462
0.00033881251059177
0.00031972253324771
0.00030485686942248
0.00029290146725558
0.00028294346905771
0.00027435491385154
0.00026672546717096
0.00025981819204245
0.00025354646048655
0.00024794484130488
0.00024311722304601
0.00023916669401542
0.00023612893751416
0.00023418725204726
0.00023260190131111
0.00023150982246177
0.00023071458254215
0.0002300681176137
0.00022948581417506
0.00022894457141637
0.00022847806796795
0.00022817534986632
0.00022817801709238
0.00022866347222914
0.00022978964912042
0.00023157803539867
0.00023374437117369
0.00023557257996628
0.00023593507893688
0.00023331729191469
0.00022614358112625
0.0002131501667979
0.00019388665566784
0.00016339783982682
0.00013583184444609
0.00011102077766186
9.151437060257e-05
7.7372135206593e-05
6.7857925794908e-05
6.1940683210859e-05
5.8195126351241e-05
5.5691779628567e-05
5.3959246253183e-05
5.2741483495144e-05
5.1879961518409e-05
5.1294919746035e-05
5.0953485697918e-05
5.0843679072445e-05
5.0970458051999e-05
5.1342131438327e-05
5.195624997614e-05
5.2797962337218e-05
5.3860937678808e-05
5.5108263219414e-05
5.6488361854683e-05
5.7919454778087e-05
5.9341851871991e-05
6.0697849297216e-05
6.1942498387276e-05
6.3045546329598e-05
6.3991518596537e-05
6.4786820445121e-05
6.5453974795373e-05
6.6033525409082e-05
6.6550910472503e-05
6.7025632956745e-05
6.7447258672847e-05
6.7757721725126e-05
6.7868464964104e-05
5.6179423735701e-07
9.6257756206582e-07
1.146733825099e-06
1.3101949149829e-06
1.5473496137794e-06
1.8507238399445e-06
2.2374817702023e-06
2.6999410756132e-06
3.2524123793076e-06
3.9013414823463e-06
4.5600784423363e-06
5.0787768287111e-06
5.4039389067215e-06
5.4852786976514e-06
5.2595630656679e-06
4.880947030386e-06
4.6328263175442e-06
4.4577702286602e-06
4.3387505233137e-06
4.2599786587774e-06
4.2218550575207e-06
4.2130044053304e-06
4.2287321561306e-06
4.2642739264354e-06
4.3183402584639e-06
4.3897893868807e-06
4.3289941595594e-06
4.1985875649704e-06
4.0735475716418e-06
3.9539576727516e-06
3.8402382397191e-06
3.7331953192821e-06
3.6323505645058e-06
3.5378372707007e-06
3.4489102398929e-06
3.3656114023486e-06
3.2878016632821e-06
3.2147012956932e-06
3.1454212924118e-06
3.0796051336554e-06
3.017141218362e-06
2.9577486070078e-06
2.9012012981491e-06
2.8472881292041e-06
2.7959804762715e-06
2.7470516923316e-06
2.7003991060152e-06
2.6558525024151e-06
2.6133418539873e-06
2.5727370677761e-06
2.5338906979248e-06
2.4966686258941e-06
2.4609705617064e-06
2.4267698550762e-06
2.3939820802471e-06
2.362547351098e-06
2.3323833127809e-06
2.3034243770911e-06
2.2756273464412e-06
2.2489225557232e-06
2.2232474509532e-06
2.1985296436703e-06
2.1747011853825e-06
2.1517142915916e-06
2.1295284392298e-06
2.1134244340939e-06
0.00010038045729514
0.00049241204934952
0.00044087366253441
0.00039384609680734
0.00036030282119673
0.00033574339837382
0.00031716416651235
0.00030265845524453
0.00029096766440425
0.00028122471555559
0.00027282974724982
0.00026538550124258
0.00025866201250137
0.00025257383195334
0.00024714960703505
0.00024248102959124
0.00023865653447368
0.00023570048775761
0.00023380377762388
0.00023221951951671
0.00023110524752057
0.00023028129279698
0.00022961260134671
0.00022902135061743
0.00022848513035131
0.00022803362794045
0.00022774830291007
0.00022776173983988
0.00022824422030399
0.0002293545195588
0.00023113096325094
0.00023332845592854
0.00023528239580042
0.00023593020015206
0.00023381578761878
0.00022739274358082
0.00021537374861512
0.00019719715458877
0.00016815877281488
0.00014084442490716
0.00011515588590888
9.3952242632668e-05
7.7754172004956e-05
6.6185279996958e-05
5.8585926371049e-05
5.3649604111735e-05
5.027673511706e-05
4.7897267597698e-05
4.62187421369e-05
4.5078679121157e-05
4.4410705372851e-05
4.4185723336768e-05
4.4413837128991e-05
4.5080259123319e-05
4.6152161501903e-05
4.7607045852687e-05
4.9402076870946e-05
5.1459079097222e-05
5.3686002485588e-05
5.5986602206505e-05