/*--------------------------------*- C++ -*----------------------------------*\
| =========                 |                                                 |
| \\      /  F ield         | OpenFOAM: The Open Source CFD Toolbox           |
|  \\    /   O peration     | Version:  2312                                  |
|   \\  /    A nd           | Website:  www.openfoam.com                      |
|    \\/     M anipulation  |                                                 |
\*---------------------------------------------------------------------------*/
FoamFile
{
    version     2.0;
    format      ascii;
    arch        "LSB;label=32;scalar=64";
    class       volScalarField;
    location    "0.00019";
    object      omega;
}
// * * * * * * * * * * * * * * * * * * * * * * * * * * * * * * * * * * * * * //

dimensions      [0 0 -1 0 0 0 0];

internalField   nonuniform List<scalar> 
109340
(
9612.5261192265
9900.379831339
10701.294180599
12429.913599741
15313.874018244
19240.974618923
23813.016676218
28423.627658195
32539.042037015
36482.05458878
40330.238279124
44104.836662608
47812.18957137
51453.495604
55027.976388045
58534.128538372
61970.270115084
65334.785942696
68626.258147601
71843.513163184
74985.635254924
78051.965114675
81042.100298061
83955.88089717
86793.350030727
89554.682631018
92240.07582129
94849.600619097
97383.004367567
99839.420698821
102216.91507339
104511.68377707
106716.41884267
108816.2790548
110777.75251539
112516.36387598
9719.1099024315
10817.529617588
13664.061184614
17963.340379949
22965.839184623
28030.300158689
32868.366109527
37697.923193417
42531.171229118
47308.946663643
52013.564075918
56636.249397017
61170.779376493
65612.11200374
69956.08732914
74199.339913282
78339.267621741
82374.014545394
86302.460057111
90124.231911683
93839.761741024
97450.254718784
100957.58415806
104364.10115479
107672.41313901
110885.14208652
114004.67737488
117032.92516889
119970.99991294
122818.79206292
125574.23467787
128231.92619945
130779.87273552
133190.27685162
135392.61127131
137207.940456
9961.6411640853
13962.453648967
21388.987713216
28991.659846438
36201.413926389
43344.760855694
50545.312986202
57736.626558473
64868.129358455
71893.834666636
78780.093749939
85504.155523594
92050.596050032
98409.001335316
104572.6513687
110537.73285365
116302.85089803
121868.90066988
127239.48318947
132421.67854857
137426.09051618
142265.31032156
146952.44285482
151499.96310704
155919.02569232
160219.13231759
164407.9497825
168491.11441621
172471.98798643
176351.17574158
180125.37816744
183785.13817675
187308.82780923
190641.48935235
193629.06701137
195850.93389336
11922.794389026
28461.127147471
45339.26156591
62195.005540807
78863.253100257
95254.470882909
111259.28699454
126793.26186263
141788.38545662
156193.03063857
169971.04789287
183102.03046548
195580.04410832
207411.16612488
218611.14054061
229203.31941617
239219.01362821
248709.05967276
257767.29421167
266517.54363287
275066.28876422
283487.62360904
291828.54226528
300116.39695466
308364.88961942
316578.34368872
324754.26707929
332885.30678097
340959.00520576
348958.04696264
356862.36509667
364670.63109034
372409.38643964
380000.8506872
386911.18682011
391255.42509773
46687.841989963
146229.97923326
240722.24142043
331296.81368325
416650.80312329
495478.89692481
566977.68576134
630873.10521066
687354.2236832
736899.26653906
780145.36530257
817776.30694173
850461.62567521
878816.27792887
903380.86320597
924655.30104046
943347.13999476
961374.78541277
981861.08086937
1006287.9579536
1034422.5248138
1065330.1977552
1098005.3322111
1131605.6517065
1165470.2349031
1199063.9506857
1231958.9546247
1263804.4077521
1294297.4078328
1323135.7846057
1350026.516016
1374561.4296524
1396202.7085696
1413929.0378568
1425181.9795803
1418596.2208262
4713519.2176746
5536058.3375946
6151135.5170965
6580931.1967956
6861784.0348195
7031106.816621
7120898.4492813
7155974.9906133
7154210.6406197
7129526.1068901
7089786.5529029
7041067.9187394
6987518.9754852
6931942.4911465
6876235.8208427
6821769.9952432
6769460.2552682
6719940.3480244
6673837.3309295
6631789.8777971
6593161.547045
6557550.2773325
6524768.9329725
6494730.6269463
6467383.8993813
6442695.478407
6420651.5140353
6401264.8101755
6384586.2599337
6370722.9660445
6359879.6156363
6352446.9518319
6349013.4276902
6350912.9042375
6359634.306217
6374223.4138734
113840.91981202
114013.50924234
113256.03609498
112679.82627631
113172.75748713
115153.09393971
119275.93144022
125753.4359864
133862.42704825
144402.3650015
157486.12705032
169433.014942
178791.15336891
182262.09163843
181167.53261334
177406.51685584
171999.64835924
165777.75903422
159258.41407544
152736.94522775
146402.37212931
140344.94221099
134668.58846889
129519.06835439
124856.88418246
120563.92932956
116582.41194366
113090.96736828
109640.4978062
106587.66213996
103734.71089047
101004.08656197
98599.183091859
96172.899372825
94072.470097911
91906.848301062
90040.977886791
88114.754147733
86448.949969828
84746.483778592
83243.398240152
81745.554536239
80355.716589698
79035.071962326
77727.774621457
76540.942224075
75330.009015771
74250.79801523
73151.906382673
72151.129731276
71161.644127616
70211.507172451
69296.473342839
68412.060668416
67557.142939586
66731.210303778
65934.273445909
65166.392952562
64426.804554432
63713.842024009
63025.172901155
62358.413168729
61711.595978606
61083.203345984
60472.112255949
59877.835822969
88438.029255967
8817828.9762999
7372614.0894192
5365215.2219437
4072558.4013322
3205414.7022875
2597117.1787712
2154619.0223215
1823365.4470354
1568897.5170294
1368436.2074145
1206704.8819487
1073314.4128653
961058.11290693
864917.69732508
781485.20196045
708572.57683862
644865.52998099
583012.65724579
536417.16659557
496726.02104899
463016.28491417
434280.41290066
409529.65107188
387876.65036484
368573.6993369
351019.68509078
334745.36265414
319401.50705082
304759.08603081
290713.44182213
277263.83954419
264442.56888882
252210.71974526
240346.43650358
228394.91669636
215646.44243463
201037.6431686
178364.84905623
155527.48328615
131224.63996433
112539.04219215
102908.49983468
99723.593038597
99414.01834187
100267.27346997
101546.69695588
102945.12121129
104326.39777064
105612.83648662
106740.65846345
107653.95770376
108311.13843474
108701.10582314
108844.17223648
108785.63450862
108611.12470922
108383.78721361
108141.83270626
107906.14702096
107680.80396278
107454.71536523
107212.19333582
106927.16882307
106586.24152451
106188.31313331
105737.20510953
105246.37621356
104739.49912057
104260.91357792
103853.83763182
103522.04809119
103206.44540498
102821.50897519
138181.84474291
136970.86318791
133956.46258409
130115.20979674
125922.41803137
121956.10419326
118610.84069626
116071.56617108
114344.38781358
113552.88863471
113505.97136962
114186.71387737
114891.87262728
115295.28119871
115664.1451632
116111.66778622
116606.04009878
116954.47933914
116610.28230549
115715.14746111
114381.25860519
112724.71405465
110856.30603007
108817.15659821
106722.26362472
104680.86390704
102666.58602123
100658.02273183
98688.145929152
96751.987255785
94900.747996355
93105.951176229
91380.33166363
89704.700704144
88087.257065099
86523.434802629
85020.582975897
83577.850103358
82200.053263832
80877.946835223
79616.28743886
78399.779936836
77235.358380076
76106.214514936
75024.051724475
73974.205486143
72969.571445791
71999.156977402
71068.996234009
70170.166981789
69302.360608472
68459.71994807
67640.734804345
66846.031712467
66074.197311885
65326.41967023
64602.841221873
63903.74813494
63228.157421079
62574.662435155
61941.297076985
61326.129489421
60727.350329875
60143.671233405
59574.426287955
59019.275914858
473527.12229085
9225745.1890146
6776526.8558297
4982742.6264002
3819042.8036995
3029594.4962429
2470482.7140781
2060678.9898341
1751839.3122156
1513032.0753566
1323723.6103378
1170104.2547646
1042727.8938842
935022.53028788
842427.80808047
761881.93922147
691452.24303972
629987.46905833
582860.12015486
536306.6405405
496646.589955
462960.47348588
434241.68968558
409502.71527093
387857.52781865
368559.48404448
351008.33222179
334735.38801536
319391.68892883
304748.25810715
290700.3909752
277247.40498731
264421.96180721
252185.96043006
240318.81901401
228367.01519463
215623.26810823
201027.80317338
178392.42837963
155604.61478541
131319.7830114
112585.50546733
102894.02138332
99682.207662991
99365.715643877
100220.85379236
101501.82870925
102898.57055288
104278.19659065
105560.85165204
106680.58862584
107582.55715892
108227.64482965
108606.49787449
108741.21141277
108677.79644369
108501.11999881
108273.68731472
108033.35218028
107800.59739259
107579.07550064
107357.27411766
107118.84297989
106838.7409337
106504.36076566
106114.07349564
105672.59216689
105194.21657971
104702.52438812
104241.22613757
103849.98302698
103531.87437286
103226.92320007
102848.81355855
196063.14666568
191816.39382379
183392.65964185
172976.68218586
162384.58231188
152654.20160911
144203.25909421
137233.60293127
131653.33362992
127035.84570021
123543.03698326
120545.7993665
118293.5287798
116471.8818732
114923.07985407
113504.3093153
111993.901964
110268.96980875
108112.99369794
105774.27357909
103413.25941993
101127.99658462
98962.478304041
96924.366627055
95002.298271759
93174.923888631
91469.236805812
89922.363266892
88499.901168868
87180.336647876
85948.760657679
84808.229776279
83709.375394552
82641.705721691
81579.061210881
80522.75233679
79468.062761169
78437.706335724
77426.264243173
76446.909728772
75487.963876547
74557.31551794
73643.418399312
72753.126819203
71879.34328119
71027.833720943
70199.560337208
69395.595259517
68617.778480592
67859.867515745
67123.214035826
66401.634102918
65695.793454934
65003.821267897
64327.925169624
63669.479500479
63029.490269691
62408.487624779
61805.982248067
61220.954953707
60651.834499426
60096.968883001
59554.746709453
59024.026446137
58504.493787483
57996.386873664
513850.27285699
9211078.7350712
6759384.469233
4971780.7581844
3810842.8293294
3023258.2776655
2465702.4839563
2057097.5750177
1749098.2632543
1510870.6544622
1321978.5400969
1168671.079989
1041535.0588983
934021.91805482
841589.14498833
761187.25650015
690889.890448
629546.71959285
582553.92490748
536084.07954361
496490.43791871
462854.83795459
434172.96545359
409460.35015649
387833.74929915
368549.22463988
351008.38340375
334743.75917188
319406.97792844
304769.01084215
290724.71168257
277273.12739842
264447.48066509
252211.47959064
240347.77281567
228406.42613673
215686.45390924
201137.99001532
178612.7248786
155951.57889097
131706.79330341
112842.69822751
102978.94497106
99668.697529932
99308.275176368
100144.83524725
101416.30188059
102802.54338153
104174.01065659
105444.5271398
106547.37815663
107427.38501099
108048.74948934
108405.261107
108522.42525193
108448.72225356
108269.25166562
108044.14894037
107810.03397365
107586.63158554
107376.66661617
107167.38662521
106940.59817921
106672.75763046
106352.63463235
105978.21581203
105555.96182098
105101.59572056
104639.00579376
104211.4636572
103853.42045542
103565.94492865
103286.27746296
102929.09602706
385587.92095511
363253.57225176
324907.23258588
283380.13984299
246881.15789995
216567.31829816
193045.90145015
174982.66362676
160874.87664962
149440.14227051
140900.41676397
133764.05354642
127848.37523607
123015.049861
118958.68443598
115569.53541677
112833.86520115
110237.16370568
107327.94278621
104174.54488201
100971.03494445
97874.332626072
94990.568170499
92332.408141181
89885.951696865
87645.450426672
85597.85990577
83732.412848963
82076.048248323
80609.079797848
79299.016758114
78125.601876498
77062.310219639
76081.78687252
75166.213055531
74302.671050869
73487.79755321
72714.151840462
71980.119496632
71282.548181004
70611.817429803
69958.035769209
69313.025639318
68670.789172525
68026.072194885
67387.550088664
66755.695452783
66137.808957939
65530.741195603
64935.469344167
64348.360018447
63768.173392141
63193.979936101
62625.082996804
62064.163535745
61513.083629162
60974.062458903
60448.011852916
59935.067055623
59434.437509742
58944.825874376
58464.801762847
57993.125188634
57528.939515693
57072.156396023
56623.156374049
573378.90564118
9169266.1946667
6727834.7904292
4953931.3698734
3798518.3014574
3014053.9360916
2458819.9249394
2051945.0866341
1745153.9370421
1507760.6553028
1319467.3276947
1166607.9325403
1039817.4239731
932581.07020356
840381.88437619
760187.76143789
690081.30856501
628913.65459324
582097.39034303
535752.58528882
496258.95875872
462699.48493296
434073.34552712
409400.66120387
387802.59869088
368539.20143912
351014.98394462
334764.3861376
319439.88124406
304812.30433315
290775.75322088
277328.73873887
264505.21321586
252271.56802556
240415.43649288
228492.46545191
215811.0868932
201337.27382988
178989.37082487
156523.85103235
132347.28679804
113284.27257366
103143.92802889
99666.172455956
99230.115996876
100031.40705432
101282.51445273
102653.07030159
104010.79031106
105262.42329834
106339.45277246
107186.7566455
107771.63447764
108093.75560033
108185.23588555
108098.89983168
107917.26438769
107698.26391761
107476.78497817
107271.14265924
107082.54784562
106895.97345811
106690.90034336
106445.94726904
106151.27084347
105805.56959314
105416.20146441
104999.70584742
104580.66201247
104201.56560875
103891.65759971
103648.39502356
103405.64403291
103079.26230407
1321512.9438441
1071665.6996606
803346.26917306
593742.41513644
446617.2919324
346671.13713194
280039.77386504
234395.06470225
202798.55265771
180218.35687644
163732.87363841
151151.31603878
141145.08835206
133047.66013181
126367.7578341
120811.26769253
116196.0874978
112004.95700593
108068.89171113
104347.01905453
100797.2744814
97371.160458088
94074.591269967
90996.075420576
88149.018517486
85528.392402063
83120.827711388
80919.866257379
78942.031986147
77181.033552339
75614.208514049
74216.915209703
72968.233052426
71840.21521482
70816.633529371
69878.609541217
69019.614164058
68230.225814871
67505.965860934
66834.993674778
66212.237486582
65626.286907306
65071.512055445
64538.33775361
64023.373799394
63523.246670684
63038.209429585
62570.227177522
62116.112499834
61671.999433504
61231.212521127
60791.287652881
60348.822754379
59905.352923821
59462.296814864
59022.625791505
58589.140676524
58163.322036207
57745.648860055
57335.451012766
56931.691422816
56533.186350257
56138.939179798
55748.298487202
55361.19729776
54971.630462679
655858.25693094
9111636.6220572
6682169.468049
4928575.9905669
3781861.0567078
3001993.3714457
2449887.2897869
2045262.4841754
1740035.5995123
1503724.2905676
1316206.9835979
1163927.5147677
1037584.570684
930707.50092184
838812.12550578
758888.47256183
689030.53435386
628091.17024977
581492.06726129
535313.06786635
495952.40783162
462494.19561519
433942.2036429
409322.65824947
387762.69104811
368527.63081835
351025.92623281
334794.54922838
319487.09666864
304874.22733339
290849.00198294
277409.14687728
264589.48572379
252359.89843489
240514.68016078
228617.06841184
215987.89597352
201613.24474924
179505.65443389
157302.46827307
133229.90205361
113910.22979935
103390.8732265
99672.835446425
99127.348573561
99874.485245039
101095.91770068
102445.175296
103782.20116751
105006.8132653
106048.34646276
106851.31770275
107386.96034014
107663.79133254
107723.17959974
107623.34789991
107442.99871894
107237.40285277
107039.31862863
106864.60162607
106712.19827638
106563.62472404
106396.15103278
106191.3972886
105939.90648282
105639.79370635
105298.41846398
104933.22904951
104571.15101224
104253.25009617
104003.55858479
103814.53637111
103617.91168358
103330.18375402
4661121.8002878
2571046.5710887
1598665.5953981
1065568.9621439
741238.39551657
536993.77990768
404424.77248295
317070.71498368
259022.51451361
219735.18203498
192169.16751371
172289.57508315
157205.54828164
145323.78511099
135770.65208232
127954.70593256
121308.00467188
115451.6942307
110230.75448227
105556.60307737
101355.7242449
97550.799628167
94068.334581831
90812.699122161
87742.901964811
84881.449659351
82240.656970377
79801.863962065
77583.326720335
75590.060143938
73796.872892685
72178.790917791
70722.822370865
69407.847321781
68212.865503859
67126.911567508
66139.797338716
65243.106718114
64426.968774434
63683.621259392
63003.018372808
62375.845780691
61794.655060463
61250.965663149
60738.948705858
60253.259905147
59794.559094779
59361.090145811
58951.149751909
58559.539725177
58181.382002178
57812.775433545
57450.151626067
57092.379511266
56738.153452943
56389.068443883
56046.820710324
55711.473141342
55382.303920091
55058.150373215
54736.97780485
54417.670004471
54099.370257679
53781.445183061
53464.018604933
53115.325591057
765999.13466638
9058638.6093273
6624850.7673451
4895844.3168434
3760830.4824767
2987125.0460818
2438973.2162952
2037102.8424017
1733780.5936322
1498789.15824
1312218.3769541
1160645.3834702
1034848.2947775
928410.60040894
836887.59493332
757295.79696361
687742.78835799
627083.29635185
580740.87778342
534767.4042995
495571.84206079
462239.43764918
433779.5650009
409226.01979423
387713.40243793
368513.61478804
351040.035145
334832.78645615
319546.87750573
304952.75890499
290942.19483986
277511.87574445
264697.59217609
252473.44312595
240642.03424743
228776.42464586
216213.30741741
201960.42003159
180151.8803734
158273.66138426
134350.74592579
114732.36214127
103732.98397718
99693.4596733
98998.830015781
99671.236118558
100851.8043903
102171.47202435
103478.59135784
104666.49465072
105661.03306692
106406.79669462
106881.22628896
107104.50828578
107129.00567678
107018.15606734
106846.81819885
106667.71570416
106510.69882203
106388.25038495
106295.2758898
106209.16907241
106105.25688663
105965.28144172
105778.49860465
105540.84614105
105260.63839618
104958.6572357
104664.94133555
104417.66401497
104235.97908997
104106.71442143
103960.70163788
103717.18153159
6461364.6935689
3571577.0726233
2315297.0334473
1583502.860055
1117134.0087706
802606.02821976
583317.29290373
440469.01602358
345094.52839781
279991.68355873
234954.88071708
203241.9575469
180266.81090974
162950.0976857
149431.95344036
138461.15385979
129325.55421102
121605.62266364
114942.47472015
109108.03285654
103970.00961463
99438.971915264
95417.338693754
91821.247864556
88545.962621194
85525.727485236
82708.478147916
80078.543398708
77653.577989454
75448.826234767
73450.3354394
71633.616662191
69977.082713503
68468.097904611
67092.273275127
65836.177020782
64687.567443603
63642.69395812
62691.1548459
61823.53879916
61029.181665342
60302.214751583
59633.921893519
59016.351643634
58442.409608162
57907.52288293
57409.260130335
56945.033044601
56512.880848404
56108.476620676
55727.207557074
55363.745996008
55013.822908097
54675.325723416
54347.090726527
54029.333746702
53722.009448639
53425.592672521
53139.729556516
52863.134831288
52593.905427456
52329.927137617
52069.137435486
51809.802750432
51551.191542303
51292.868894022
157298.05375669
9209474.9802355
7115927.6929973
5215998.6654913
3975702.2640678
3136174.3875996
2546054.3901015
2116570.0623128
1794411.7790902
1546213.9342482
1350202.455407
1191766.2558522
1060898.5000965
950646.79592765
856179.9465599
774221.06645187
702656.21546465
640190.95143651
579847.57081754
534118.23345715
495118.86887039
461936.0754682
433585.75976357
409110.6812236
387654.36245799
368496.52856319
351056.45602011
334878.03169286
319617.96869306
305046.49099773
291053.82574622
277635.36224671
264827.90250609
252610.39661347
240795.34529591
228967.87184676
216485.00625093
202378.33391918
181333.3627503
160034.40949612
136429.0513884
116319.57043163
104434.04821489
99759.301448876
98763.675161326
99282.738304365
100378.51129553
101635.52925449
102878.40020843
103991.23099301
104893.00295076
105530.72793623
105896.34255134
106032.797588
106005.73045847
105888.88789577
105752.77460256
105648.57447584
105602.01506722
105619.87631063
105677.61196916
105744.70218604
105784.27367839
105779.24271448
105719.81525249
105599.5373768
105431.32535511
105240.60500925
105060.37635219
104926.54162122
104850.78109671
104812.38441639
104741.65407908
104568.72089723
5625905.1674757
2713678.1917741
2109223.4744641
1651950.8642397
1306257.7451579
1006397.9274267
776380.59473567
599335.21952248
462006.11219112
368040.69681425
301092.66172438
250976.33274321
215059.10332576
188548.76538261
168516.89726348
152965.8961258
140408.55588427
129987.17610898
121225.92418836
113784.40838995
107377.82364128
101797.821966
96907.12028797
92595.199452015
88771.923697131
85363.927530316
82293.488438974
79515.496901084
77012.381220256
74732.412448118
72633.959982791
70681.707011222
68874.718856273
67205.317885591
65665.136465975
64240.691082407
62928.78102435
61719.949940488
60604.99384687
59572.661363215
58617.732627814
57733.884399843
56915.49964353
56155.926391729
55450.737851387
54796.112957949
54188.315776388
53624.183942562
53100.380861844
52614.083289042
52160.206665449
51734.285565516
51332.280616474
50952.072723924
50592.815076942
50253.806338538
49934.663525136
49634.185292999
49351.204710166
49084.020185855
48830.623405859
48588.891219181
48356.557717677
48131.570880151
47912.64059749
47682.076576641
1375058.0932946
8901234.0485194
6415958.592607
4762769.1130243
3673808.4217696
2926769.3748487
2395214.5105565
2004418.2039906
1708664.0671781
1478931.5817398
1296135.7336252
1147379.0322798
1023765.8032505
919097.24001524
829082.15164864
750838.32309265
682524.18457157
622999.88453613
577652.36953319
532522.04089298
494003.83929694
461188.05874019
433106.59538293
408823.98104794
387505.72507522
368450.82081968
351093.02648944
334985.55562882
319789.43117713
305274.50950516
291327.23494997
277939.54308335
265150.23185627
252949.59513558
241173.1094215
229436.1105131
217141.97119463
203394.64706204
183215.80517475
162872.74799472
139944.42271841
119252.77804121
105912.33523857
100016.27251229
98390.739823928
98573.608147799
99470.162138232
100570.02025291
101653.94853966
102595.40564533
103311.58694304
103765.34178159
103978.62618963
104022.35584534
103978.35472412
103947.0944882
104012.17880221
104212.19619805
104536.74131173
104939.70892018
105375.49743784
105798.65611588
106165.20422418
106441.32067462
106608.71428902
106667.24107301
106644.99303497
106588.85822831
106529.58209067
106508.24517927
106522.40748545
106559.13696099
106543.33874169
106439.9062255
5202154.4313893
2115066.2072633
1823942.9947648
1543857.1119358
1291339.1173446
1070123.5930158
878019.43055427
710920.25692606
575067.64025868
458820.36557873
371850.26643477
309663.96764648
257552.89551275
219223.6627327
191272.68921511
170202.8873266
153868.88271101
140759.19336058
129898.81618751
120772.8305867
113026.45101111
106368.98617781
100585.71602962
95522.204041849
91055.897849273
87089.245606599
83552.793812896
80411.832936195
77613.585698115
75106.869506036
72849.328167689
70794.935559686
68911.902496608
67172.821194231
65552.586488825
64041.536873542
62627.313910132
61306.975222068
60074.562972576
58924.895966941
57853.882806537
56854.527799484
55920.592540929
55046.48229498
54230.120504589
53466.548708353
52752.294564102
52083.01687835
51456.558746406
50870.165441565
50320.301501736
49803.033927874
49315.088043801
48855.204078562
48422.093452604
48015.223541434
47633.484994431
47275.528311599
46939.92650398
46624.649661499
46327.861633542
46047.650528756
45782.038903787
45529.361826301
45288.25142414
45070.364222093
2331004.4965103
8711961.4764061
6252028.5074658
4652943.0501443
3599438.492771
2874965.4637318
2357805.1561778
1976472.2569473
1687125.9606034
1461849.7460065
1282258.4851212
1135896.3398052
1014149.43905
911004.87515438
822298.30482234
745228.9290697
677994.44506856
619457.27260762
574945.99001094
530552.57346718
492625.47646391
460260.33991472
432508.92616649
408462.5052793
387313.72026174
368385.20708012
351128.50714532
335108.41920129
319991.56540623
305547.67662688
291658.64158346
278311.7524985
265547.32195841
253368.19695988
241636.50300424
230004.82810968
217927.36130604
204589.56572754
185382.25072933
166174.83202832
144248.54513829
123246.90971408
108284.81264044
100690.26308193
98036.055671894
97659.454821118
98197.634093047
99014.925771644
99826.333629731
100498.35891978
100968.74479049
101235.90461469
101365.65625664
101464.86274995
101656.86791308
102046.62113028
102677.51383789
103515.08920637
104498.93979225
105541.59910408
106547.0539851
107430.7089828
108135.22786
108635.45416039
108933.15899194
109055.63459681
109059.1936827
109011.74743963
108956.81726831
108939.66468034
108961.41022452
109003.62782509
108997.07073961
108941.20095959
5186676.034892
1812331.293165
1556177.7633803
1383989.5695655
1210786.8698703
1046009.5374558
893741.9534064
755349.02695692
631863.33567905
526421.79201788
433546.5630906
355881.86540263
302440.0068391
256515.27177826
217848.1932262
189409.87911104
168138.88436701
151771.02028068
138765.28621488
128095.9782113
119117.57292989
111442.44642055
104811.15437082
99049.23629459
94009.918114208
89570.704851167
85634.675970516
82129.45204906
78999.105968218
76198.584690783
73681.149542092
71406.263676921
69342.766390889
67461.853933584
65737.637108065
64152.154949431
62685.334246803
61321.018886507
60048.285452102
58852.288314393
57723.896217665
56654.543942676
55642.870654928
54691.561610289
53797.449241245
52958.141729979
52168.007368905
51423.935880668
50723.208574316
50062.200342492
49438.036318079
48846.905713521
48287.088173867
47757.118648342
47256.149855845
46783.389082745
46337.547793728
45917.608654124
45521.759771453
45148.257890918
44795.43714806
44461.609933092
44145.340065528
43845.214750826
43560.058638084
43407.070431076
3729852.3825421
8417713.9410396
6054206.2220947
4526243.8282196
3513995.2372311
2815226.1169861
2314595.6035279
1944150.6854283
1662163.6453158
1442006.3756826
1266099.867365
1122497.1984121
1002909.8199886
901539.30655267
814364.34553145
738673.4890972
672705.7051637
615323.6406923
571772.159555
528240.37487346
491003.07334265
459163.22219372
431796.34906365
408024.89457198
387073.51737307
368292.29826415
351153.48866496
335235.71304819
320212.39264405
305853.49888665
292035.86097826
278740.86627833
266009.43972049
253857.13539381
242175.27390388
230658.23278477
218815.0968457
205920.11609689
187735.67139061
169777.22018349
149154.26199546
128322.08309964
111889.41264364
102197.03212253
97957.316429478
96637.507965944
96550.800956418
96894.121062149
97293.58584061
97624.572515141
97890.393975276
98160.915767644
98553.417686924
99172.271604778
100098.63072633
101371.83980214
102972.78213654
104770.43979265
106585.56546549
108257.63426732
109672.19132932
110774.30926017
111541.94872422
111991.82188683
112170.53121226
112149.13550609
112023.99177509
111850.59099307
111695.72321015
111609.24353543
111590.26943623
111601.24493105
111600.07387925
111599.68567674
5828979.9401444
1657514.9759387
1368484.1894592
1234560.8019881
1114560.7929397
991982.6631973
872856.07676736
759370.58814195
654826.2767512
559607.7757388
476103.13903291
400597.21769907
334934.96588645
288522.99593469
249794.58050509
213831.15339905
185950.35013324
164972.71612375
148816.36232003
136037.42812041
125642.45158848
116939.5439022
109497.40976234
103062.24262329
97461.827774029
92551.891918385
88214.013296204
84360.854186726
80922.98253744
77840.955712658
75065.953582635
72557.419918404
70280.718097614
68207.683066138
66316.693352288
64589.969978642
63007.885747994
61552.270777588
60206.62073956
58954.011154458
57782.167394115
56682.81792082
55646.293293378
54667.215547731
53740.011692706
52857.941283731
52019.322696909
51223.255156652
50467.881329685
49751.633188522
49071.054574068
48425.198617466
47811.841461328
47229.508013523
46677.05776739
46153.139287716
45657.358462518
45187.646175091
44742.134516056
44319.097308361
43916.853216945
43534.514115278
43170.921890834
42824.979872299
42495.617864703
43206.55554726
5851072.6963192
8104100.4548422
5835948.8793298
4384219.7090052
3418315.1972789
2748281.7136433
2266086.7937808
1907798.0057463
1634035.306368
1419606.4266668
1247829.5837243
1107325.6835595
990172.51569962
890811.36822722
805378.46317492
731257.98421334
666730.89100861
610657.56426345
568176.12982154
525616.42392768
489155.2295292
457905.42583627
430970.23238794
407507.38293424
386777.65316647
368161.97149406
351155.70211184
335353.64718815
320437.13120813
306176.93437362
292444.42645312
279213.73170794
266525.17296045
254406.56558733
242779.06798752
231382.10306161
219780.92492081
207341.99509933
190187.66977395
173520.71906386
154397.45384881
134318.83282548
116951.99593905
105105.8988482
98738.697293299
95852.425864062
94744.464372649
94380.660527499
94297.808154419
94398.067848258
94790.972127483
95615.427393316
96890.770051561
98576.995095514
100682.85348441
103134.61666456
105739.45616917
108245.89338126
110455.36163241
112251.43699789
113609.05887148
114533.94731063
115052.69035997
115228.47968164
115145.46064658
114902.77226382
114575.41376487
114244.33194168
113983.19101002
113826.65055232
113771.88177646
113776.51790933
113811.48242121
113885.92183728
7380964.1600746
1542506.8403377
1256378.1765231
1114012.4970221
1022409.4265461
929131.36576744
836527.49061375
744167.73230732
656797.00557272
572782.89133021
497024.01174734
429984.23266582
366929.00329663
311936.56138417
272628.93599783
239173.78439409
207669.41827288
181474.67773066
161279.24303738
145611.80451235
133206.74187935
123134.72280434
114729.68583156
107558.00269541
101353.3919608
95934.051569439
91165.732624397
86945.519613081
83191.786287748
79834.999295456
76815.702799106
74084.984794407
71604.445102311
69344.871591558
67282.571271147
65397.372963393
63671.392880458
62088.180742562
60630.812891605
59283.19020491
58032.944192456
56868.568902915
55778.753200264
54756.731538272
53796.301682841
52890.379135179
52033.802960328
51220.093461708
50443.168056852
49700.148440397
48987.628575447
48304.543890828
47652.19455327
47029.645975683
46436.823481865
45873.904850985
45339.001149339
44830.553197348
44346.150005071
43883.921462076
43443.210257614
43022.536906496
42621.038834108
42237.596902158
41871.339117328
50058.960373774
8305136.2028585
7726341.4709638
5598185.1171218
4229429.8280492
3313570.5343226
2674781.6906788
2212685.6002546