/*--------------------------------*- C++ -*----------------------------------*\
| =========                 |                                                 |
| \\      /  F ield         | OpenFOAM: The Open Source CFD Toolbox           |
|  \\    /   O peration     | Version:  2312                                  |
|   \\  /    A nd           | Website:  www.openfoam.com                      |
|    \\/     M anipulation  |                                                 |
\*---------------------------------------------------------------------------*/
FoamFile
{
    version     2.0;
    format      ascii;
    arch        "LSB;label=32;scalar=64";
    class       volScalarField;
    location    "0.00019";
    object      p;
}
// * * * * * * * * * * * * * * * * * * * * * * * * * * * * * * * * * * * * * //

dimensions      [1 -1 -2 0 0 0 0];

internalField   nonuniform List<scalar> 
109340
(
389521.74375082
387961.77535528
385012.44850423
381474.30504862
377604.79587716
373614.21039865
369584.42359923
365565.55460071
361644.69896166
357812.69144384
354015.22994965
350248.69362206
346516.64809661
342821.53654723
339165.07871742
335548.7957781
331972.11849582
328432.68321673
324925.72738819
321444.59954639
317979.31516121
314519.00255635
311051.29009441
307561.40032754
304029.58815808
300430.21030051
296729.02017091
292879.90226292
288819.51871719
284458.90228547
279669.98240299
274262.73661914
267950.07445748
260306.88514825
250744.98390021
238535.80981751
389755.16606971
387753.12700338
384447.38403543
380677.77561595
376705.63613388
372711.04748602
368746.17785841
364821.79617214
360934.14142407
357086.58808215
353273.55210062
349495.97467504
345756.31093315
342056.09319161
338396.32377071
334776.60065553
331196.9614254
327654.49605428
324143.64266449
320656.64758313
317183.30741999
313712.51021002
310231.52039401
306724.73352935
303171.27137526
299543.63991065
295805.09852546
291905.83160639
287776.87611987
283320.5730667
278394.5219845
272783.1705282
266148.08108121
257966.51321911
247384.73837936
233490.61366928
390628.04295419
388307.02540882
384664.80369121
380804.07879868
376863.53015298
372923.18047422
368975.77397804
365033.49848109
361121.25147891
357246.74621067
353409.03046609
349608.6857351
345847.54914569
342127.13612431
338448.98952114
334814.19188502
331222.46696085
327671.00293438
324153.76438393
320662.62228522
317186.58994702
313714.36426927
310233.06511302
306726.88266786
303174.80089841
299549.07238051
295812.82800267
291916.14230614
287789.89429188
283335.78570503
278409.78841685
272790.14414477
266110.20729229
257759.00098255
246642.87017258
231017.84151291
391846.32877291
389042.54194905
385210.40602567
381235.92887527
377215.05645042
373189.08025292
369172.45036612
365179.40162008
361226.35489946
357319.01941048
353456.96763588
349639.67110392
345867.2942014
342140.13972918
338458.44042
334822.15519809
331230.53469665
327680.37073254
324164.71059491
320675.65945988
317200.77458376
313729.30293529
310248.70770936
306743.17228644
303192.22990246
299568.02760654
295833.78295535
291939.59309595
287816.16986804
283364.31314752
278438.04079539
272809.97858737
266076.56942668
257513.90118256
245629.88722519
227078.06670878
393775.46715414
390117.58210611
385716.95423223
381467.05309788
377334.8387
373268.19399426
369238.09199511
365246.47372796
361296.99718414
357390.1025438
353527.43158445
349709.4469626
345936.49708901
342209.02396913
338527.50693184
334892.3792443
331303.89036681
327760.04671447
324247.1423204
320763.98942294
317292.87302598
313824.57892638
310347.12563614
306844.18218242
303296.40192359
299675.65787837
295945.28317873
292055.35561771
287936.2595328
283487.67309208
278558.00011783
272927.21424156
266144.01197797
257375.50122295
244628.59705653
221614.71410205
397400.22880433
390689.57238165
385836.94011598
381497.38656694
377359.96426118
373301.95536934
369282.2552525
365293.48936307
361341.94901897
357429.18092917
353557.92596765
349729.0643114
345943.15126072
342200.69468857
338502.25584687
334848.53651366
331240.51817233
327684.49016098
324195.71429599
320707.18242202
317228.47653384
313753.15550132
310269.36461477
306761.4452125
303208.86719657
299583.86523737
295849.49458814
291955.81410349
287833.25628325
283381.03712163
278437.44548587
272809.1967802
266001.07003722
257133.29987524
243916.08085201
216053.31782403
223830.46312872
209149.92091226
196869.835022
186879.26600032
178090.97995799
168563.32480761
157991.3150929
146310.06886911
133627.0721523
120228.52408799
105914.04185534
93081.702191204
80537.938843686
69063.218504271
58983.158470736
50216.408515214
42754.035903163
36450.231842161
31157.16239184
26758.044547144
23108.69086079
20054.588081983
17495.307365036
15353.245773948
13550.953614975
12009.178658923
10681.799574574
9595.3617765466
8600.7047487586
7769.4765654435
7048.1840476329
6396.0632406638
5854.240014533
5343.3676842065
4923.731496582
4519.9148164911
4187.7155466216
3865.4430326073
3597.7281976344
3338.7945995612
3119.1843785374
2910.5496892328
2726.5471354654
2558.1521727637
2400.9295657845
2262.7946625474
2128.8599518848
2013.2413437546
1900.4434212701
1801.0956482206
1706.9443571397
1619.7379208301
1539.1651298946
1464.2585100571
1394.5399023132
1329.505543315
1268.7494514647
1211.9210838763
1158.7170605981
1108.8393726986
1062.0115971895
1017.9878361797
976.55838803408
937.53477393066
900.728128841
865.95180679988
833.23321047279
1455.4418956939
5529.0381804274
6142.2003907416
6173.497793437
6178.923933816
6182.8100233087
6186.1130488591
6188.7858799216
6190.7182115848
6191.7704037078
6191.6921831754
6190.3328648298
6187.429226376
6182.8311779397
6176.4292515991
6168.3063231962
6158.6096452222
6145.8364303724
6133.7352662397
6120.7537990128
6107.4452873656
6094.078541296
6080.7908317221
6067.948243579
6055.8602533698
6044.725710075
6034.6496539556
6025.6654804871
6017.7184354128
6010.6788737752
6004.3766654311
5998.64139118
5993.3394578287
5988.4065953667
5983.782337733
5979.173394576
5974.3480949435
5966.214400464
5959.718899172
5952.8016916683
5945.8801388494
5938.6438366405
5931.9415455625
5925.7992612824
5920.4550767419
5915.8892296608
5911.9148432643
5910.4861569356
5909.117454583
5907.8813888039
5907.2094473991
5907.1163504944
5907.98175435
5909.9308615544
5912.4120254421
5915.4615886865
5918.9921357539
5922.5634837916
5926.1908492073
5929.988901139
5933.940187858
5938.1024502987
5942.5458971824
5947.1859734326
5952.039635637
5957.0619333102
5962.1977116596
5967.4895513918
5972.8357560796
5978.3472083956
5984.1824199051
5989.0366429929
5994.6076608352
216281.30692412
200783.86485665
189189.52119545
180194.1765042
170758.86720087
160943.72221173
150061.9393185
138248.60399668
125740.56629664
112805.0117892
99819.698078854
87022.089922975
75594.985195906
65095.588421528
55706.187842855
47575.555817863
40601.084154749
34701.601917233
29756.402567812
25620.992364367
22167.996817292
19282.703657099
16861.887645287
14821.697074509
13096.435249013
11631.066843137
10377.128985299
9300.5834054525
8373.7560086172
7566.3145628245
6865.8975699342
6250.683050664
5711.1897598315
5233.5535507429
4810.8375051554
4434.1856468045
4098.2242660189
3796.934733411
3526.5962491066
3282.4068337493
3062.3388868102
2862.2170690859
2681.0559644418
2515.2230597007
2364.5038885205
2225.8470080537
2099.1593045934
1982.2274642118
1874.764466518
1775.3654973719
1683.5031932864
1598.2754900146
1519.0958917588
1445.5577263472
1377.0401342504
1313.1384636372
1253.4265283005
1197.5715738513
1145.2450632905
1096.1658507542
1050.0709391222
1006.7293610709
965.92855937894
927.48006758271
891.21382502468
857.00372006206
829.78056620324
2562.7626966802
5868.9071057562
6160.5515530216
6174.3952625243
6179.0230483618
6182.7256091139
6185.8517135649
6188.2820481751
6189.9128502943
6190.5595864997
6190.0426223358
6188.1817828168
6184.7596811757
6179.6552641262
6172.8025716545
6164.3015080095
6154.2888685457
6144.2172409715
6132.0311259252
6119.1829385413
6105.9458532095
6092.613987505
6079.3173508482
6066.4258882356
6054.2543169911
6043.0046428628
6032.7858009612
6023.6358590284
6015.5054731895
6008.2727860973
6001.7797972687
5995.8743613892
5990.4476221151
5985.4666999245
5980.9042654553
5976.4892138836
5971.9992251162
5964.4459924283
5958.467385252
5952.0397197009
5945.4091744766
5938.4845156391
5931.9176527524
5925.8288171591
5920.4839745533
5915.9531583803
5911.9354891471
5910.5141683565
5909.1029952879
5907.8299106273
5907.1962638634
5907.1132023491
5908.0120060364
5910.0165100104
5912.5189276839
5915.561175657
5919.0278658021
5922.5750618027
5926.2155437844
5930.0237281779
5933.9697210678
5938.1219015426
5942.569502206
5947.199393146
5952.0172433183
5956.9859326343
5962.0934933677
5967.397983094
5972.815571369
5978.3787304073
5984.269629421
5989.2007576221
5994.7054974602
209757.98949127
191484.66610916
180959.05938292
171692.52984796
161728.82605903
151437.0295344
140731.00705513
129456.95471566
117821.77137729
105656.24181545
94372.283476424
83145.250914617
72547.989147123
62825.729713972
54077.627337332
46373.248226325
39721.162886932
34072.630365507
29303.686812238
25283.035159913
21912.101886592
19089.692611624
16713.417622001
14706.460929341
13006.695090839
11559.08317
10320.421243706
9255.2375509047
8335.8803671303
7537.0318055493
6839.4918432026
6230.1143771275
5692.5874730835
5218.9374956578
4797.5685263533
4423.5447672942
4088.5727553308
3789.2836618337
3519.4026994064
3276.8434957176
3056.9440280509
2858.1064493201
2676.9038366439
2512.0757882575
2361.3063565848
2223.2787040623
2096.6416191537
1980.0363682101
1872.7781722338
1773.5118173685
1681.8698397453
1596.7883697289
1517.8396815236
1444.3502357153
1375.9159313738
1312.0959835503
1252.4749643366
1196.7003215469
1144.443681755
1095.4269383362
1049.3903900165
1006.102531476
965.34843767349
926.93868690594
890.71346841062
856.5525581239
829.8530862967
2616.1272983688
5880.3637777787
6161.9514369207
6175.2315130519
6179.6433237165
6183.1804138867
6186.1829914652
6188.519558271
6190.077499464
6190.6613910701
6190.0938957579
6188.1846691486
6184.7208804855
6179.5757218276
6172.6863788001
6164.148189173
6154.0849253781
6144.0100618776
6131.760291497
6118.9137794197
6105.6815846985
6092.3547979311
6079.0586572289
6066.1687471245
6053.9963271988
6042.7423567142
6032.5149909154
6023.3520899819
6015.2050614012
6007.9529767497
6001.4383573653
5995.5087538667
5990.0543657852
5985.0414074163
5980.4428733602
5975.998099799
5971.4995800124
5963.9007297788
5957.904653682
5951.5003910397
5944.8714749725
5938.0717375465
5931.5732178188
5925.5763586444
5920.2001970733
5915.9922925141
5911.8741113654
5910.5017404888
5909.0065938926
5907.8756845848
5907.2868932694
5907.2423206922
5908.2222949968
5910.2587255648
5912.7480329387
5915.8429048726
5919.2376117076
5922.7743216734
5926.4656346958
5930.3130289591
5934.2696496849
5938.4218559952
5942.8895336162
5947.5149188629
5952.2570530722
5957.149281013
5962.2190142291
5967.4882436983
5972.8798805929
5978.4329521981
5984.2964024024
5989.3677582447
5994.6016219465
197522.68520329
176228.76984228
166028.25144088
155242.18001784
146473.6212866
136446.04950278
126750.8952826
116912.06377658
106898.39321043
96657.604857246
87406.482925329
77853.301554923
68544.462836064
59838.968524019
51839.481714452
44743.120632014
38546.585379246
33204.824796103
28657.084515757
24815.403778596
21568.768388677
18820.148978108
16506.598514168
14548.781847945
12881.456287697
11458.765933219
10241.159609206
9191.7127177568
8282.5957672447
7493.9664277925
6804.1765618855
6199.6915924408
5667.6350639609
5197.278481905
4779.7637678212
4407.908385094
4075.7477385956
3777.8129818157
3509.9618054499
3268.4397583107
3049.8599342867
2851.7598934938
2671.4383438277
2507.2677064214
2356.9660413793
2219.537313253
2093.1701738903
1977.0828488793
1869.9532949638
1771.0679239306
1679.5733624408
1594.7477134087
1516.0036088494
1442.6825330552
1374.3969042719
1310.684591349
1251.1755623918
1195.5017595559
1143.3467349601
1094.4232071533
1048.4683297359
1005.2498780249
964.55882483028
926.21078335931
890.04910167679
855.925879674
830.06283968419
2695.735017978
5894.6790800746
6163.3976166056
6176.1402479713
6180.3815875286
6183.7561714423
6186.6163494736
6188.8333700785
6190.2942595819
6190.792518285
6190.1536932928
6188.1779031787
6184.654249222
6179.4519403942
6172.5121960865
6163.9268632802
6153.8163020757
6143.7529777826
6131.4720022788
6118.6226508656
6105.3954718363
6092.0760483146
6078.7833677126
6065.897410843
6053.726973812
6042.4706621817
6032.2358817582
6023.0606695891
6014.8971855205
6007.6257249691
6001.088903318
5995.1340391957
5989.6505741667
5984.6034672148
5979.9651071334
5975.4775836652
5970.9265664601
5963.3418286911
5957.3478887081
5950.952027356
5944.3345349805
5937.5954998163
5931.1290211107
5925.2584771585
5919.9122109602
5915.8017521794
5911.779789125
5910.4335409086
5908.916712401
5907.8621002312
5907.3295440333
5907.3419393693
5908.4356395186
5910.4532667278
5912.9835870858
5916.0595232183
5919.4465966846
5922.9743593398
5926.6806418344
5930.5369122585
5934.4916257644
5938.6546506068
5943.0813129504
5947.6443656118
5952.3516278295
5957.2306022781
5962.2925615868
5967.5467846988
5972.915262458
5978.4620990043
5984.2802736054
5989.4612552627
5994.2404853007
171063.18886258
151334.35406957
140116.34126767
130618.83266937
123369.36953417
116071.84036038
109187.43601939
102106.14251015
94924.614542582
87549.036393691
79707.780578229
71699.716127169
63801.208599095
56242.077388722
49198.729271473
42779.760090389
37091.361630963
32137.352517921
27868.158964442
24218.740584667
21117.652783532
18488.901980079
16245.381948657
14342.194306763
12721.442995746
11333.754948393
10138.420622308
9108.5076001338
8215.837774813
7438.1743810471
6758.2866743646
6161.1667714541
5635.3516300628
5169.6247993735
4756.6055149681
4388.1083437797
4058.8454272956
3763.2678637697
3497.6149157318
3257.5795978401
3040.6030850037
2843.538610611
2664.3895723214
2500.8802866087
2351.4514706304
2214.5417003056
2088.7697024674
1973.1028756966
1866.3640295753
1767.8729086933
1676.633382187
1592.1001252611
1513.5642530059
1440.5164205379
1372.4293333461
1308.8737321808
1249.5030490806
1193.9618830891
1141.9376117155
1093.1292306427
1047.2768346675
1004.1505850724
963.54750217589
925.28501286521
889.2062069065
855.1154110613
830.52334045953
2801.4488840096
5911.5923464318
6164.6273926241
6176.9588189517
6181.1540445805
6184.4101401101
6187.1288226224
6189.2118304947
6190.5599823897
6190.9536502213
6190.2259549977
6188.1641685588
6184.5616852548
6179.2882267155
6172.2853477218
6163.6404897701
6153.478833266
6143.4135602058
6131.1108692056
6118.2573181126
6105.0370048057
6091.7283822718
6078.4416894579
6065.5633460218
6053.3976624102
6042.1411896893
6031.8999589352
6022.7117843725
6014.5297998999
6007.2353455217
6000.6717038409
5994.6860790129
5989.1669466848
5984.0774535846
5979.3915603317
5974.8531653806
5970.2552430429
5962.6993746372
5956.7060409906
5950.3265078569
5943.7257335794
5937.0458327215
5930.6612025511
5924.8686881579
5919.5920925554
5915.6516919936
5911.7262354378
5910.3434982126
5908.8366081229
5907.8613410907
5907.4055607419
5907.4934611947
5908.6614671206
5910.6994870029
5913.2634170652
5916.3063561682
5919.6818273995
5923.1964168459
5926.9019869685
5930.7497289197
5934.6966311001
5938.869832781
5943.2492073136
5947.7965769109
5952.5086667085
5957.3839409661
5962.4241035408
5967.6452999731
5972.9690940096
5978.4921075189
5984.2460824987
5989.5078824588
5993.9698994288
103571.14782683
99977.779674794
98735.166548454
98529.634354648
97177.55604781
94951.336239005
91675.855589737
87837.069941951
82973.202545088
77569.703559784
71516.652078559
65180.694349428
58706.645405357
52308.108642384
46211.40917137
40555.937448349
35438.052779592
30900.300232501
26942.226335363
23523.162038862
20587.416009598
18076.148857984
15937.264153731
14100.804623334
12527.788392082
11178.288902203
10016.830114912
9008.4148301189
8133.1189173289
7370.2582877642
6702.4897868318
6114.2562438263
5595.7009489266
5136.577466071
4728.1722243347
4364.0319864189
4038.2444353175
3745.7577147474
3482.2658107224
3244.455609885
3029.1593813285
2833.5553016852
2655.5578535379
2493.1041802585
2344.6257147181
2208.3984964675
2083.3220325889
1968.1701623338
1862.0091939573
1763.8971051359
1673.041494155
1588.8322003217
1510.591924898
1437.8304150518
1369.9791573064
1306.6488433282
1247.4644600116
1192.0921758772
1140.213727586
1091.5373465363
1045.8118348219
1002.8061259504
962.3133026469
924.15307738576
888.15009311931
854.12390037849
831.02125962772
2933.7633823539
5930.5032884258
6165.5098724791
6177.6360032994
6181.9092572899
6185.0970398544
6187.6905900758
6189.6348297814
6190.8563350559
6191.1315046637
6190.2980564764
6188.1348106479
6184.4391755137
6179.0772699559
6171.9961569897
6163.2818158338
6153.0650880887
6143.0032401935
6130.6806489619
6117.8156062849
6104.6001107944
6091.3059026133
6078.0279349566
6065.1609784779
6053.0027117671
6041.747680918
6031.5003209408
6022.2981137919
6014.0949846102
6006.7736944938
6000.1786628097
5994.156956479
5988.595995633
5983.4586618271
5978.7345649866
5974.1609380543
5969.4311685287
5961.9626697628
5955.972759432
5949.6117969834
5943.0291018536
5936.4000981257
5930.0775551345
5924.387481303
5919.2084368368
5915.3993478318
5911.6428919372
5910.1850186007
5908.7176336862
5907.8271581817
5907.4505756118
5907.585183166
5908.7475471905
5910.8834172239
5913.5433289007
5916.5955409217
5919.9831577809
5923.4814665768
5927.1773707641
5931.0038503512
5934.922444262
5939.1082701513
5943.478340859
5948.0174485118
5952.7062941017
5957.5466733101
5962.5451658033
5967.7216804288
5972.993864302
5978.5034455012
5984.1615958638
5989.4885080536
5993.4900827441
10105.993895587
46047.366519041
60040.110928298
68590.253766903
73710.068238513
76083.637412078
76074.598679592
74619.396162602
72073.507738894
68637.934491989
64521.800951498
59836.03855775
54776.786857852
49539.835150178
44336.387074028
39356.143614702
34718.876628759
30513.033011344
26771.473491198
23489.377346947
20637.346214597
18175.534683243
16054.659091453
14235.721338998
12665.401469426
11308.332856723
10138.412350217
9124.4668322506
8241.3253080569
7468.1402518922
6791.9698210822
6197.4850489381
5671.6018986658
5205.4392533278
4791.3483019245
4422.174999862
4091.2372181508
3794.3851709
3527.0730920815
3285.7143863974
3066.9456268773
2868.4539552608
2687.7920183224
2522.9045072723
2372.080832138
2233.8597964713
2106.9644719649
1990.1251455375
1882.3915395823
1782.8498575765
1690.7473282814
1605.3594148581
1526.024801529
1452.2418096557
1383.5008521071
1319.3751850095
1259.4285896046
1203.329678333
1150.7804073965
1101.4949135348
1055.2081904364
1011.6767264423
970.6890941379
932.05358945469
895.61327389146
861.22217236298
830.15791912842
1869.4796738574
5703.3112345117
6154.1939581495
6176.5704904849
6181.6997635118
6185.0726025691
6187.7125124829
6189.6926653567
6190.9743769858
6191.3742134849
6190.7143977703
6188.787412291
6185.3797732687
6180.342993627
6173.5889624546
6165.1914992646
6155.2691436769
6142.5046516585
6130.1670588878
6117.2966567107
6104.0856300845
6090.8049747229
6077.5386464792
6064.6870582357
6052.539298769
6041.2875967885
6031.03465359
6021.8176058037
6013.5906871391
6006.2388512461
5999.6081573012
5993.5454372891
5987.9382891873
5982.7511771795
5977.96668051
5973.4156964128
5968.8639037951
5960.8369425816
5954.9054601799
5948.5851855714
5942.0341078685
5935.457332127
5929.2327391305
5923.6623470001
5918.6438005637
5914.9860057392
5911.5324645521
5909.9350308391
5908.5400958925
5907.7064792673
5907.3438761132
5907.5090275789
5908.8218623478
5911.2569291701
5913.9890065567
5916.972184292
5920.2896584353
5923.7523169991
5927.3681363879
5931.1229214577
5935.1101777542
5939.3044040908
5943.6793991487
5948.218117842
5952.9022303658
5957.7248240645
5962.6945185229
5967.851426663
5973.091152008
5978.6323506844
5984.1753201162
5989.6606471079
5993.0544407554
7949.7511177592
14679.029300139
25104.117751473
33684.838022911
40459.81806864
45377.312887531
48656.117639621
50590.523983182
50755.912454111
50022.047074814
48500.433078261
46230.467174239
43387.953647736
40142.560083515
36676.326736454
33173.656828888
29769.761658659
26563.368686177
23622.731182617
20975.970144905
18623.799892508
16553.292892066
14740.453252412
13157.410858576
11779.020097948
10580.015904499
9532.0437004873
8612.2285983097
7808.0971598521
7101.7482812318
6479.7043886226
5927.7619846957
5438.8200887542
5003.8958381118
4615.9203680077
4267.8465927205
3955.6447117592
3674.6510893127
3421.021513807
3191.0836813381
2982.4318820361
2792.6442797831
2619.603673325
2461.3228859017
2316.3044098318
2183.2462683786
2060.8647747193
1948.0649398943
1843.8607815406
1747.5376478234
1658.2877696355
1575.4565194185
1498.4291271934
1426.7056926815
1359.8558114419
1297.4356129778
1239.074258203
1184.4059100781
1133.1436220202
1085.0246239657
1039.8039205475
997.26181999435
957.19226945604
919.40719514593
883.74109008837
850.02228445622
837.11492623306
3484.6705105943
5992.7792109787
6166.881793408
6179.4394365121
6184.0489950501
6187.1638401982
6189.4452340471
6190.9846060775
6191.7874656277
6191.6494901698
6190.4170351134
6187.8687139563
6183.8096210863
6178.092250599
6170.7065837696
6161.731137462
6151.3145597245
6141.2328204551
6128.8620171733
6115.9883138918
6102.8029396976
6089.5644484888
6076.3289306296
6063.5233870794
6051.4103739136
6040.1735717749
6029.9125250059
6020.6628301388
6012.382116761
6004.960260153
5998.2476073329
5992.0926668496
5986.3785933123
5981.0628509945
5976.1339449786
5971.4750021601
5966.7943650603
5958.8506198903
5953.0790298797
5946.8283797817
5940.3423954045
5933.8353123152
5927.7682844042
5922.3716704129
5917.640467945
5914.1290552629
5911.1409590388
5909.4502227228
5908.2422448964
5907.5874279548
5907.3633173556
5907.882224715
5909.5955000523
5911.9818543675
5914.6260209859
5917.5640243046
5920.7860830564
5924.1854651544
5927.7309005539
5931.4947784895
5935.5182902376
5939.7059490088
5944.0473328188
5948.5395980454
5953.1691691762
5957.9417884111
5962.860467103
5967.943513044
5973.1357529664
5978.7559297266
5984.0816901193
5989.6685172641
5992.1981058982
7689.7303217583
8435.754998524
12980.400620305
18438.597454987
23498.378349974
27786.335678765
31261.588833378
33850.087700912
35574.537028658
36398.697061791
36501.817038536
35810.54144399
34541.753248677
32795.2564081
30664.368845708
28322.405643583
25898.526985469
23502.155097233
21209.863663293
19074.060414549
17123.526412473
15365.605380631
13796.326415635
12403.695955385
11171.998359068
10085.919229882
9128.4571837974
8283.8804686181
7538.3380017136
6877.3332366632
6290.5813299539
5769.73144385
5305.6091575745
4891.5096314182
4519.5011531027
4185.3306229854
3884.7019285486
3613.495265043
3367.7078300267
3144.4872824331
2941.7271298295
2756.9427393346
2588.0848317309
2433.3175731092
2291.48638546
2161.1108187149
2041.0823498718
1930.2668301565
1827.8589743914
1733.0929012569
1645.2298563732
1563.609935759
1487.6421108089
1416.901891512
1350.9089476319
1289.2637579
1231.5831387372
1177.534092755
1126.8460937238
1079.2379211441
1034.4708328121
992.32861947549
952.61455859508
915.1604596131
879.79535031938
846.29106194465
854.52316894484
3961.544463203
6039.0812449367
6169.657522721
6181.0134060797
6185.5093472698
6188.4861227417
6190.5422287044
6191.8196795516
6192.3137513917
6191.8681659682
6190.3163826918
6187.4511383504
6183.0817118681
6177.0677978811
6169.4328705559
6160.2517482374
6149.6878540823
6139.5812276867
6127.1829952999
6114.3145231467
6101.1707453771
6087.9964659072
6074.8098053638
6062.073563784
6050.0162557765
6038.8102469564
6028.5507582673
6019.2720471842
6010.9365053462
6003.4386556167
5996.6330136673
5990.3731663968
5984.5380186605
5979.0788363315
5973.9826157998
5969.1932037572
5964.4189002296
5956.4825838121
5950.845431134
5944.681044854
5938.2956427429
5931.8911035767
5926.0084655838
5920.7868855883
5916.3645254797
5912.9631678954
5910.3901736988
5908.7811199714
5907.8727693027
5907.6114365358
5907.7720828828
5908.6467942234
5910.3327825473
5912.7673329626
5915.2205297631
5918.1472725631
5921.3668815364
5924.7568569416
5928.2506535075
5932.0273601513
5936.009795586
5940.1414245932
5944.4211161261
5948.8467210794
5953.399953139
5958.089507414
5962.8947430847
5967.9720951499
5973.0906022135
5978.7586476775
5983.9361222434
5989.3209260327
5990.9210015206
7008.8642936953
6995.9674889407
8443.5747848829
11609.341989058
15089.427216403
18361.851221893
21271.010095591
23692.547689231
25644.775105326
26926.257898733
27643.894210261
27760.330062414
27466.809249633
26608.710948205
25404.355687739
23927.612536139
22280.445164562
20553.921605693
18826.499466446
17156.367796145
15581.600084781
14125.240748004
12795.816908175
11594.034251651
10514.337849184
9548.2566153843
8686.7078898241
7918.8832642604
7234.2480840159
6623.6491416555
6078.4885534336
5590.9848148706
5153.6994239614
4760.9958340485
4408.0284532298
4089.9385469885
3802.6436462227
3541.7484212923
3305.0082438487
3089.9240898536
2893.9249376412
2714.8747495097
2550.6666542949
2400.28315802
2262.1125872524
2134.9886883803
2017.6195097047
1909.1717390123
1808.9102208688
1715.9884913515
1629.7553596401
1549.5233885036
1474.8403416351
1405.2410012142
1340.2729586599
1279.5333368137
1222.6412352598
1169.32516466
1119.2984305507
1072.2954982156
1028.0757064842
986.4112613372
947.12007719936
910.04605468906
875.03487165044
841.95187562454
895.91884045652
4470.5489657685
6080.4494403034
6173.6097578419
6182.827778499
6186.9898322378
6189.7314427699
6191.5176780353
6192.5113562051
6192.671312843
6191.8796827958
6189.971635982
6186.740260407
6182.002463639
6175.6732743395
6167.7669788048
6158.3703511483
6147.6595473282
6137.5344915375
6125.1221526465
6112.2727095506
6099.1905717709
6086.0986897681
6072.9859249248
6060.3466191851
6048.3715057752
6037.218413366
6026.9769704342
6017.6851481264
6009.3054268987
6001.7355478459
5994.8349711252
5988.4598507835
5982.5013738979
5976.8962467972
5971.62966774
5966.665553952
5961.8342316904
5953.9799671563
5948.5044698034
5942.4674872494
5936.2343972667
5929.9731462891
5924.2692008117
5919.2156497052
5915.0312509546
5911.7513232149
5909.4106407627
5907.9640391413
5907.2510207975
5907.0858216485
5907.569591909
5908.7257707002
5910.6426487463
5913.0928617353
5915.5607250263
5918.5345541844
5921.7121120635
5925.0522809023
5928.4896192454
5932.2362249799
5936.1868987882
5940.2829050338
5944.5266380894
5948.915389613
5953.4160938456
5958.0381647263
5962.8740082606
5967.9424808919
5973.0620511728
5978.7731554024
5983.807759646
5989.2092464654
5989.9027772769
6365.2217099874
6365.2285524189
6596.5458293502
8179.8349187459
10492.764604201
12891.872824793
15183.588358754
17217.396014367
18997.106448653
20388.594459666
21324.796310999
21828.765118334
21976.609111014
21702.781845194
21069.043168356
20181.743113747
19090.271920033
17877.950623085
16603.436031346
15321.94555109
14075.571433024
12891.064719482
11783.844369455
10762.66895019
9829.9562730143
8983.1640437048
8217.7632524966
7528.1676534306
6907.5151090408
6348.8810340113
5846.1716980257
5393.5462791743
4985.6693515615
4617.63555776
4284.7180943167
3982.946136393
3709.4021949568
3460.8463371412
3234.5649560791
3028.3242805255
2839.4482808682
2666.5239346291
2508.0837634331
2362.4781883267
2228.5755290737
2104.8642570018
1990.6162898254
1885.0080714322
1787.1507813868
1696.3762097406
1611.8963946612
1533.3096764031
1460.1098758224
1391.8196274746
1328.0096011381
1268.2544194064
1212.3076958514
1159.8440915851
1110.5800035656
1064.2638338939
1020.6427553068
979.53971620159
940.7772148439
904.1808988564
869.59755689555
836.75043515056
1004.2892915531
4966.0418744022
6113.5028088359
6177.5209350801
6184.6219056948
6188.3728912655
6190.8134305845
6192.2929716898
6192.9663784585
6192.7612512706
6191.5926498045
6189.2786748761
6185.6380914006
6180.5052054366
6173.8460894451
6165.6625685586
6156.0557144224
6145.211429643
6135.08216016
6122.6770530466
6109.8665810853
6096.8682097791
6083.8760096482
6070.8725828508
6058.3592470969
6046.4963723082
6035.4251752757
6025.2323141805
6015.9481141692
6007.5385419763
5999.9085631081
5992.9241197606
5986.4453827442
5980.3578237733
5974.6131776467
5969.1844495228
5964.0388681678
5959.0717294105
5951.430513472
5946.0874360587
5940.209887717
5934.1663910555
5928.0897493624
5922.5585223911
5917.6600246317
5913.6453337546
5910.4922415265
5908.3384043953
5907.0367493266
5906.5572460986
5906.8157592588
5907.5279887218
5908.705979376
5910.6043421531
5913.0109170217
5915.5088842468
5918.5378169055
5921.6418813484
5924.9554974733
5928.4188684535
5932.1618475148
5936.1264734676
5940.2279562091
5944.4691147163
5948.8282768819
5953.3003549397
5957.9587087381
5962.7992780458
5967.9307431856
5973.0724014456
5978.8355829806
5983.7343994813
5989.1917162549
5988.983936908
5844.9828393373
5823.3848234412
5784.0236300652
6372.1214409647
7807.748298324
9540.2305432165
11310.51020718
12949.415253519
14483.283597995
15718.598785345
16637.155800913
17355.226947516
17775.404011425
17744.4842064
17520.611578812
17016.468855066
16330.005852566
15500.444791464
14584.682201616
13620.856320807
12650.368723923
11700.505305746
10791.688538487
9936.2470947059
9140.7397649612
8407.3299237788
7734.941598939
7121.7053098838
6564.2638743574
6058.1634149744
5598.9742180088
5182.5379361349
4804.7395614844
4461.7303923434
4150.0050758415
3866.4810662119
3608.2372436218
3372.4693215127
3156.7751429271
2959.5720334912
2778.9628000879
2613.274584333
2460.9612978312
2320.4375743637
2190.7647603561
2071.1263618576
1960.4549963255
1857.9768663248
1762.7410001311
1674.1519522278
1591.8194313254
1515.0966924896
1443.5641655839
1376.7009856054
1314.1184847908
1255.5647638973
1200.668958127
1149.1605362321
1100.7438283523
1055.1530344259
1012.2396162944
971.78952876493
933.6284788878
897.57534642447
863.47205373159
830.60775242237
1238.131848163
5377.4431571673
6138.9834313504
6180.1189003645
6186.1551111415
6189.4833161824
6191.5826645684
6192.7402809037
6193.0479348316
6192.474268694