/*--------------------------------*- C++ -*----------------------------------*\
| =========                 |                                                 |
| \\      /  F ield         | OpenFOAM: The Open Source CFD Toolbox           |
|  \\    /   O peration     | Version:  2312                                  |
|   \\  /    A nd           | Website:  www.openfoam.com                      |
|    \\/     M anipulation  |                                                 |
\*---------------------------------------------------------------------------*/
FoamFile
{
    version     2.0;
    format      ascii;
    arch        "LSB;label=32;scalar=64";
    class       volScalarField;
    location    "0.00019";
    object      pTsat;
}
// * * * * * * * * * * * * * * * * * * * * * * * * * * * * * * * * * * * * * //

dimensions      [1 -1 -2 0 0 0 0];

internalField   nonuniform List<scalar> 
109340
(
389521.74373737
387961.77537205
385012.44850723
381474.30505056
377604.79588091
373614.21039914
369584.42359921
365565.55460287
361644.69895842
357812.69144702
354015.22994731
350248.69362428
346516.64809576
342821.53654692
339165.07871688
335548.79578488
331972.1184928
328432.68322017
324925.72739814
321444.59954806
317979.31516187
314519.00255739
311051.29009384
307561.40032644
304029.58816311
300430.2102993
296729.02016776
292879.90226121
288819.51871955
284458.90228761
279669.98240363
274262.73661799
267950.0744572
260306.885148
250744.98390035
238535.80981733
389755.16607131
387753.12701015
384447.38403485
380677.77561245
376705.63612991
372711.04748558
368746.17785712
364821.79617155
360934.14142447
357086.58808496
353273.55209891
349495.97467144
345756.31093581
342056.09319262
338396.32377291
334776.60065373
331196.96142901
327654.49605675
324143.64266202
320656.64758344
317183.30742479
313712.5102129
310231.52039289
306724.73352774
303171.27137595
299543.63991012
295805.09852538
291905.83160813
287776.876119
283320.57306511
278394.52198211
272783.17052894
266148.08107957
257966.51321971
247384.73837918
233490.61366958
390628.04295609
388307.02540948
384664.80368946
380804.07880221
376863.53015061
372923.18047512
368975.77397437
365033.49848243
361121.25148144
357246.74621035
353409.03046411
349608.6857373
345847.54914443
342127.13612544
338448.98952539
334814.1918831
331222.4669635
327671.00293494
324153.76438307
320662.62228464
317186.5899464
313714.36427098
310233.06510984
306726.88266418
303174.80089817
299549.07237991
295812.8280032
291916.14230541
287789.89429132
283335.78570686
278409.78841723
272790.14414375
266110.20729145
257759.00098187
246642.87017263
231017.8415129
391846.32876928
389042.54194982
385210.4060274
381235.928876
377215.05645247
373189.08024967
369172.45036474
365179.40162081
361226.35489515
357319.01940497
353456.96763348
349639.67110138
345867.29420044
342140.1397319
338458.44042148
334822.15519659
331230.53468885
327680.37072973
324164.71059676
320675.65946265
317200.77458173
313729.30293436
310248.70770965
306743.17229052
303192.22990023
299568.02760352
295833.78295695
291939.59309599
287816.16986566
283364.31314752
278438.04079769
272809.97858801
266076.56942444
257513.90118263
245629.88722513
227078.06670814
393775.46715104
390117.58210658
385716.95423194
381467.05309799
377334.83869636
373268.19399512
369238.09199652
365246.47372737
361296.99718588
357390.10254196
353527.4315851
349709.44696271
345936.49708947
342209.02396672
338527.5069326
334892.37924497
331303.8903654
327760.04671403
324247.14232075
320763.98942648
317292.87302269
313824.57893188
310347.12563499
306844.18218362
303296.40192299
299675.65788102
295945.28317664
292055.35561962
287936.25953231
283487.67309447
278558.00011805
272927.21424147
266144.01197687
257375.50122298
244628.59705676
221614.71410177
397400.22880172
390689.57238087
385836.94012122
381497.38656632
377359.96426239
373301.95537023
369282.25525157
365293.48935879
361341.94902132
357429.18092746
353557.92596632
349729.06431173
345943.15126299
342200.69469077
338502.25584196
334848.53651418
331240.51817267
327684.49016071
324195.71429405
320707.18241953
317228.4765329
313753.15550575
310269.36461615
306761.44521329
303208.86719778
299583.86523832
295849.49458819
291955.81410403
287833.25628416
283381.03712114
278437.44548642
272809.19678064
266001.07003738
257133.29987538
243916.08085164
216053.31782358
223830.46312422
209149.92092614
196869.83497912
186879.26673505
178090.97350633
168563.32496852
157991.31501208
146310.06915953
133627.07226343
120228.52287087
105914.04022258
93081.700768219
80537.941113934
69063.217676634
58983.15918741
50216.407992632
42754.036103754
36450.232100948
31157.162169945
26758.044565854
23108.690902127
20054.588035517
17495.30769654
15353.248354148
13550.956540607
12009.170014572
10681.801671377
9595.3595323835
8600.6924893465
7769.502393733
7048.1736250918
6396.0735507138
5854.2325941211
5343.371478499
4923.7246650549
4519.9175378653
4187.7102806981
3865.4460007669
3597.7238771203
3338.7998991332
3119.1812613832
2910.5623216744
2726.5431638238
2558.1443468839
2400.9264948969
2262.8003405244
2128.8578780505
2013.2394218262
1900.4429962174
1801.0947869536
1706.9447664011
1619.7377866196
1539.165159227
1464.2584818091
1394.5399150963
1329.5055340261
1268.7494546356
1211.9210774555
1158.7170567372
1108.8393662571
1062.011593201
1017.9878333223
976.55838771989
937.53477359824
900.72812592027
865.9518004421
833.2331507906
1455.4400125678
5529.0410327503
6142.200421968
6173.4977109758
6178.923860249
6182.8099771777
6186.1130231093
6188.7858635474
6190.7182017328
6191.7704004999
6191.6921803887
6190.3328686161
6187.4292350456
6182.8311924363
6176.4292713056
6168.3063479512
6158.6096713945
6145.8362586845
6133.7352796766
6120.7538095522
6107.4452938747
6094.0785444653
6080.7908322539
6067.9482422728
6055.8602509841
6044.7257079081
6034.6496531402
6025.6654822602
6017.7184407437
6010.6788831047
6004.376678409
5998.6414066077
5993.3394738553
5988.4066101859
5983.7823503336
5979.1734036007
5974.3480969232
5966.2143999192
5959.7189005206
5952.8016904459
5945.8801361656
5938.6438334991
5931.941543306
5925.7992597739
5920.4550756253
5915.8892282941
5911.9148405072
5910.4861554931
5909.1174521987
5907.8813869839
5907.2094447101
5907.1163467137
5907.9817493003
5909.9308570508
5912.4120219265
5915.4615857373
5918.9921328769
5922.5634814802
5926.1908461317
5929.9888973009
5933.9401835417
5938.1024455847
5942.5458922188
5947.1859683255
5952.039630511
5957.0619281841
5962.1977068164
5967.4895470329
5972.8357523437
5978.3472049578
5984.1824161469
5989.0366363919
5994.6076347231
216281.306918
200783.86488829
189189.52411031
180194.19479915
170758.89838099
160943.7062471
150061.93876913
138248.60387638
125740.566313
112805.01330994
99819.699978097
87022.090800589
75594.984104236
65095.58875184
55706.187795419
47575.555769085
40601.084305151
34701.601847593
29756.402609935
25620.992367144
22167.996782456
19282.703696503
16861.887686675
14821.696926319
13096.435117983
11631.067492289
10377.129626294
9300.5822482878
8373.756983213
7566.3132559919
6865.8986098032
6250.6821373707
5711.1905940323
5233.5532648286
4810.8381830305
4434.1856183158
4098.2248701874
3796.934532491
3526.596734454
3282.406323579
3062.339156163
2862.2164340374
2681.0561229283
2515.2225979058
2364.5041028315
2225.8466161548
2099.159637331
1982.227673538
1874.7645774415
1775.3655706485
1683.5031201803
1598.2755239278
1519.0958793126
1445.5577201507
1377.040137035
1313.1384616469
1253.4265288647
1197.5715698593
1145.2450592928
1096.1658452894
1050.0709350403
1006.7293575371
965.92855699166
927.48006524466
891.2138225755
857.00372369716
829.7807259521
2562.7610657592
5868.9084118062
6160.5515957529
6174.395222343
6179.0230106897
6182.7255866012
6185.8517020728
6188.2820438883
6189.9128522744
6190.5595933232
6190.0426372185
6188.1818041895
6184.7597099979
6179.6552986662
6172.8026125884
6164.3015528573
6154.2889301712
6144.2170958085
6132.0311309678
6119.1829400825
6105.9458511762
6092.6139825394
6079.3173440589
6066.4258798635
6054.2543079454
6043.0046342437
6032.7857938841
6023.6358546267
6015.5054723602
6008.2727892499
6001.7798040982
5995.8743708689
5990.4476326671
5985.466710113
5980.9042744728
5976.4892208751
5971.9992265965
5964.4459920767
5958.4673910851
5952.039722108
5945.4091741822
5938.4845143609
5931.9176519828
5925.8288165651
5920.4839737506
5915.9531574361
5911.9354881836
5910.5141684366
5909.1029936668
5907.8299098574
5907.1962621905
5907.1132000844
5908.0120027482
5910.0165058937
5912.518922926
5915.5611732634
5919.0278629124
5922.5750591221
5926.2155407237
5930.0237244071
5933.9697167627
5938.1218968206
5942.569497422
5947.1993884871
5952.0172390339
5956.985928855
5962.0934899875
5967.3979798401
5972.8155678973
5978.3787265167
5984.2696245635
5989.2007506683
5994.7054696881
209757.98949096
191484.666069
180959.05828123
171692.55372498
161728.82546618
151437.03873102
140731.00665743
129456.95476234
117821.7713704
105656.24157136
94372.283899382
83145.250729564
72547.988991381
62825.729704107
54077.627230937
46373.248307667
39721.162975536
34072.630253614
29303.686828452
25283.035196977
21912.101831421
19089.692687907
16713.417683088
14706.460918698
13006.695040197
11559.083291365
10320.421355192
9255.2371436482
8335.8807065155
7537.031466537
6839.4919784348
6230.114315953
5692.5874430968
5218.9375650068
4797.5684591685
4423.5448684261
4088.5726930263
3789.2837284561
3519.4026985636
3276.8435038557
3056.9441147078
2858.1063810536
2676.903995904
2512.0756680322
2361.3065068916
2223.278571126
2096.6417149906
1980.0362679319
1872.7782204507
1773.5118062797
1681.8698430115
1596.7883780575
1517.839659611
1444.350247747
1375.9159258233
1312.0959875533
1252.4749640369
1196.7003206653
1144.4436790443
1095.426935359
1049.3903878773
1006.1025302184
965.3484374647
926.93868665084
890.71346913328
856.5525581572
829.85325303689
2616.1259279592
5880.3650840704
6161.9515171871
6175.2314977946
6179.6433037298
6183.1804003483
6186.1829849227
6188.5195576712
6190.0775049266
6190.661401902
6190.0939141226
6188.1846951354
6184.720912614
6179.5757592348
6172.6864216452
6164.1482347102
6154.0849859211
6144.0099199139
6131.7602970263
6118.9137820013
6105.6815841547
6092.3547946847
6079.0586520834
6066.1687407584
6053.9963202695
6042.7423503396
6032.5149861435
6023.3520879219
6015.2050629424
6007.9529823175
6001.4383666824
5995.5087659172
5990.0543790092
5985.0414203948
5980.4428852128
5975.9981095918
5971.4995839702
5963.9007321879
5957.9046606357
5951.5003941807
5944.8714752648
5938.0717368364
5931.5732173968
5925.576358417
5920.2001975836
5915.9922919725
5911.874110947
5910.5017395115
5909.0065935521
5907.8756836547
5907.2868918004
5907.2423183043
5908.2222919628
5910.2587215733
5912.748030956
5915.8429016159
5919.2376087942
5922.7743185278
5926.465630543
5930.31302422
5934.2696442658
5938.4218498929
5942.8895271204
5947.5149119623
5952.2570460835
5957.1492741616
5962.2190078359
5967.4882381478
5972.8798760273
5978.4329485353
5984.2963985978
5989.3677525655
5994.6015977707
197522.68520468
176228.76999355
166028.25154615
155242.20280673
146473.56819465
136446.05258594
126750.89543169
116912.06352977
106898.39330528
96657.604934471
87406.48271482
77853.301442891
68544.462880329
59838.968368611
51839.481785999
44743.12070745
38546.585354107
33204.824857997
28657.084536058
24815.4038182
21568.768312909
18820.149075006
16506.598568048
14548.781815938
12881.456286338
11458.765893926
10241.159706172
9191.7126167132
8282.5956678362
7493.9665829738
6804.1763544772
6199.6917972732
5667.6348333782
5197.2786767013
4779.7635890258
4407.9085528664
4075.7475741457
3777.8131306273
3509.961658621
3268.4398814405
3049.8598047248
2851.7599850698
2671.4382688386
2507.2677589825
2356.96604159
2219.5373178683
2093.1702321073
1977.0828112309
1869.9533640991
1771.0678733311
1679.5734060505
1594.747687471
1516.003622036
1442.6825315748
1374.3969028976
1310.684597111
1251.1755621527
1195.5017611648
1143.3467337574
1094.4232068376
1048.468329644
1005.2498793312
964.55882719107
926.2107867125
890.04910665536
855.92586945325
830.06307052308
2695.7334982199
5894.6803568198
6163.3977230677
6176.1402546893
6180.3815807357
6183.7561653677
6186.6163468324
6188.8333718848
6190.2942666158
6190.7925302737
6190.1537119451
6188.1779292559
6184.6542817005
6179.4519783526
6172.5122391456
6163.9269088251
6153.8163623757
6143.7528382691
6131.4720075535
6118.6226532244
6105.3954709396
6092.0760448771
6078.7833620308
6065.8974038464
6053.7269661645
6042.4706550097
6032.2358761194
6023.0606666002
6014.8971860815
6007.6257295191
6001.0889115933
5995.1340502103
5989.6505863965
5984.6034792406
5979.96511811
5975.477592672
5970.9265698121
5963.3418305457
5957.3478954264
5950.952030486
5944.3345351783
5937.5954989386
5931.1290208158
5925.2584766806
5919.912211124
5915.8017515607
5911.77978853
5910.4335408295
5908.9167118205
5907.8620995889
5907.3295425736
5907.3419372049
5908.4356365572
5910.4532628718
5912.9835831504
5916.0595194222
5919.4465924596
5922.9743543824
5926.6806362524
5930.5369057621
5934.4916185405
5938.6546430314
5943.0813048717
5947.6443574656
5952.35161985
5957.2305947484
5962.2925547328
5967.5467788161
5972.9152573613
5978.4620945314
5984.2802692648
5989.4612491726
5994.2404588203
171063.18885851
151334.35405431
140116.34097391
130618.83147872
123369.37206941
116071.8402791
109187.43537091
102106.1424157
94924.614560491
87549.036415081
79707.780562147
71699.716060368
63801.208555193
56242.077354862
49198.729346076
42779.760057527
37091.361641263
32137.352574083
27868.158909607
24218.740568754
21117.652863208
18488.902091188
16245.38193386
14342.194309758
12721.443031091
11333.754940034
10138.420592324
9108.5076398937
8215.8376576886
7438.1744442957
6758.2866065618
6161.166766102
5635.3516192977
5169.6247760291
4756.6055344827
4388.1083074143
4058.8454354672
3763.267844167
3497.6149031324
3257.5795976235
3040.6030445704
2843.5386403714
2664.3895172622
2500.8803383935
2351.4514129812
2214.5417523433
2088.7696728691
1973.1029074638
1866.3640300261
1767.8729119033
1676.6334039587
1592.1001109849
1513.5642708525
1440.5164086227
1372.429343519
1308.8737326983
1249.5030518354
1193.9618850585
1141.9376123403
1093.1292323691
1047.2768364662
1004.1505885582
963.54750685918
925.28502021942
889.20621630531
855.11541234734
830.52348297931
2801.4470628019
5911.5935783594
6164.6275157788
6176.9588394441
6181.1540499554
6184.4101411405
6187.1288243818
6189.2118347154
6190.5599909799
6190.9536679673
6190.2259741135
6188.1641952024
6184.5617182332
6179.2882654306
6172.28539102
6163.6405352927
6153.4788932152
6143.4134204552
6131.1108741149
6118.2573201176
6105.0370035628
6091.7283784941
6078.4416834947
6065.5633387153
6053.3976544328
6042.1411821741
6031.8999529252
6022.7117809842
6014.5298000415
6007.235349637
6000.67171168
5994.6860896016
5989.1669585209
5984.0774652466
5979.39157089
5974.8531739222
5970.2552458469
5962.6993766938
5956.7060478104
5950.3265110511
5943.7257337996
5937.0458318749
5930.6612021335
5924.8686879589
5919.5920928162
5915.6516915501
5911.7262353354
5910.343497979
5908.8366077435
5907.8613404457
5907.4055597258
5907.4934596144
5908.6614634968
5910.699483072
5913.2634130126
5916.3063515479
5919.6818221016
5923.1964107688
5926.9019798407
5930.7497207874
5934.696621973
5938.8698224914
5943.2491966359
5947.7965663284
5952.5086566182
5957.3839315797
5962.4240951972
5967.6452928953
5972.9690881771
5978.4921025958
5984.2460779753
5989.5078765421
5993.9698723139
103571.14781986
99977.779755069
98735.166616622
98529.63365951
97177.555911499
94951.337104145
91675.855222119
87837.070128697
82973.202637495
77569.703587025
71516.652151948
65180.69430682
58706.645335706
52308.108634512
46211.409166211
40555.937436848
35438.052827327
30900.300252426
26942.226303964
23523.162059209
20587.416035892
18076.148806135
15937.264118261
14100.804614202
12527.788428024
11178.288891032
10016.830094189
9008.4148569241
8133.1189177018
7370.2582367528
6702.4898307969
6114.2561628303
5595.7010084097
5136.5773955509
4728.1722809224
4364.0319210283
4038.2444827302
3745.7576517724
3482.2658483646
3244.4555463265
3029.1594049066
2833.5552556404
2655.5578651346
2493.1041601268
2344.6257085114
2208.3985083804
2083.3220155504
1968.1701909763
1862.0091740835
1763.897133477
1673.0414854727
1588.8322111493
1510.5919262904
1437.8304132847
1369.9791653937
1306.6488409097
1247.464465312
1192.092176363
1140.2137303417
1091.5373492055
1045.811838206
1002.8061303839
962.31330826587
924.15308443602
888.15009579484
854.12389962966
831.02134910594
2933.7616590377
5930.5044673246
6165.5099673073
6177.6360295507
6181.9092696991
6185.0970465617
6187.6905956061
6189.634836677
6190.8563460117
6191.1315179923
6190.2980770588
6188.1348379043
6184.439209104
6179.0773093853
6171.996200642
6163.2818613754
6153.065147729
6143.0031002359
6130.6806534988
6117.8156079259
6104.6001092213
6091.3058985754
6078.0279286982
6065.1609708638
6053.0027034397
6041.747673035
6031.5003145304
6022.2981099739
6014.0949842856
6006.7736981212
6000.1786701588
5994.1569665906
5988.5960069484
5983.4586730664
5978.7345751576
5974.1609461232
5969.4311726971
5961.9626689032
5955.9727653413
5949.6117992488
5943.0291011367
5936.4000963621
5930.077554121
5924.387480537
5919.2084368034
5915.3993472349
5911.6428921152
5910.1850186174
5908.7176335738
5907.8271579225
5907.4505751335
5907.5851809043
5908.7475434728
5910.8834127404
5913.5433242878
5916.5955357366
5919.9831511417
5923.4814583462
5927.1773612619
5931.0038397826
5934.922432406
5939.1082575986
5943.478327939
5948.0174357586
5952.7062820993
5957.5466623965
5962.5451563118
5967.7216726551
5972.9938579485
5978.5034401295
5984.1615910827
5989.4885018655
5993.4900549794
10105.99387876
46047.366526612
60040.110687381
68590.253885694
73710.067963072
76083.637579988
76074.598716247
74619.396363121
72073.507826877
68637.934555207
64521.800990823
59836.038533132
54776.786802962
49539.835124232
44336.38704511
39356.143624846
34718.876675269
30513.033003401
26771.473468567
23489.377356869
20637.346219773
18175.534654978
16054.659058753
14235.721397137
12665.401468164
11308.332843092
10138.412349174
9124.4668414536
8241.3252909791
7468.1402181949
6791.9698303045
6197.4850079484
5671.6019243157
5205.4392354613
4791.3483209156
4422.1749773743
4091.2372419129
3794.3851510455
3527.073103462
3285.714344995
3066.945640892
2868.4539183526
2687.7920290586
2522.9044725906
2372.0808388497
2233.859784302
2106.9644699788
1990.1251512454
1882.3915285094
1782.8498750646
1690.7473190278
1605.3594287649
1526.0247974037
1452.241813033
1383.5008546915
1319.3751833239
1259.4285942315
1203.3296775872
1150.7804109849
1101.4949162218
1055.2081941825
1011.6767303026
970.68909787115
932.0535947527
895.61328212752
861.2221841434
830.15789909077
1869.4775563995
5703.3133258604
6154.1940881535
6176.570522406
6181.6997819866
6185.0726143846
6187.7125213013
6189.6926745471
6190.9743886856
6191.3742280989
6190.7144177317
6188.7874380907
6185.3798061269
6180.3430316732
6173.5890056623
6165.1915447075
6155.2691872068
6142.5045114919
6130.167062978
6117.2966579347
6104.0856281018
6090.80497034
6077.5386398926
6064.6870502629
6052.5392900372
6041.2875884541
6031.0346467169
6021.81760148
6013.5906862739
6006.238854305
5999.6081640676
5993.5454468003
5987.9383000196
5982.7511878694
5977.9666897894
5973.4157035991
5968.8639142696
5960.8369349861
5954.9054663122
5948.5851881888
5942.0341073008
5935.4573302483
5929.2327378233
5923.6623462974
5918.6438004801
5914.986005686
5911.5324651903
5909.9350314165
5908.5400964362
5907.7064797813
5907.3438749717
5907.5090253185
5908.8218580397
5911.2569227712
5913.9889992669
5916.9721751326
5920.2896471765
5923.7523040005
5927.3681216675
5931.1229053021
5935.1101603915
5939.3043861662
5943.679381331
5948.2181008993
5952.9022149595
5957.7248105999
5962.6945073488
5967.8514176329
5973.0911455424
5978.6323454258
5984.1753151377
5989.6606413778
5993.0544122955
7949.7511323576
14679.029240285
25104.117645084
33684.837992871
40459.818077101
45377.312985764
48656.117568195
50590.524101714
50755.912543032
50022.047109508
48500.432765892
46230.467208937
43387.953615085
40142.560109345
36676.32680182
33173.656893284
29769.761697663
26563.368692757
23622.731197219
20975.970150675
18623.799866961
16553.292896219
14740.453249093
13157.410825958
11779.02007543
10580.015953553
9532.0437067871
8612.2285716885
7808.0971489012
7101.7482775329
6479.7043776445
5927.7619871868
5438.8200863532
5003.8958434485
4615.920381605
4267.8466080187
3955.644722553
3674.651097538
3421.0215162177
3191.0836953685
2982.4318797787
2792.6442870066
2619.6036598139
2461.3228929391
2316.304402758
2183.2462736854
2060.8647691268
1948.0649374157
1843.8607827421
1747.5376419603
1658.2877738684
1575.456513407
1498.4291295669
1426.7056900409
1359.8558090259
1297.4356123062
1239.0742548288
1184.4059124743
1133.1436236318
1085.0246285778
1039.8039256983
997.26182574407
957.19227529766
919.40720074477
883.74109713675
850.02229042138
837.11442700863
3484.6720712203
5992.7800408049
6166.8818209753
6179.4394600223
6184.0490151519
6187.1638560956
6189.4452479325
6190.9846196068
6191.7874802086
6191.6495129105
6190.417059423
6187.8687438469
6183.8096571033
6178.0922918845
6170.7066284978
6161.7311828294
6151.3146176591
6141.2326794699
6128.8620202286
6115.9883141181
6102.8029367484
6089.5644432999
6076.3289232236
6063.5233782244
6051.410364244
6040.1735624194
6029.9125170256
6020.6628246125
6012.3821145799
6004.960261813
5998.2476126901
5992.0926750426
5986.3786028175
5981.0628604711
5976.1339530733
5971.4750081112
5966.7943748447
5958.8506126382
5953.0790395594
5946.8283858882
5940.3423978177
5933.8353129189
5927.7682848685
5922.3716714975
5917.640469478
5914.1290569596
5911.1409608394
5909.4502244103
5908.2422459912
5907.5874283984
5907.363315851
5907.8822210165
5909.5954918329
5911.9818440488
5914.6260083728
5917.5640073748
5920.7860627556
5924.1854422269
5927.7308759764
5931.494752771
5935.5182641302
5939.7059235881
5944.0473090506
5948.5395767025
5953.1691510044
5957.9417736299
5962.8604556768
5967.943504855
5973.1357467158
5978.7559259632
5984.0816873596
5989.6685136019
5992.1980790425
7689.7303279486
8435.7549922822
12980.400623689
18438.597426891
23498.378291829
27786.335828621
31261.588807154
33850.087464411
35574.536886632
36398.697453986
36501.815950951
35810.544115839
34541.756608096
32795.254635126
30664.369206036
28322.405774969
25898.526971145
23502.154991753
21209.863683487
19074.060409666
17123.526413113
15365.605415845
13796.326436445
12403.695993003
11171.998416165
10085.919252113
9128.4571619343
8283.8804615276
7538.3379859991
6877.3332143243
6290.5813066852
5769.7314268862
5305.6091444304
4891.5096187621
4519.501146308
4185.3306158293
3884.7019270998
3613.4952690978
3367.7078436301
3144.4872939641
2941.7271437274
2756.9427428887
2588.0848436168
2433.3175786456
2291.4863961844
2161.1108245534
2041.0823553216
1930.2668361777
1827.8589746449
1733.0929026798
1645.229850789
1563.6099341293
1487.642106877
1416.9018869057
1350.9089428425
1289.2637504128
1231.5831352455
1177.5340897272
1126.8460945477
1079.2379238565
1034.4708359809
992.32862363352
952.61456154725
915.1604610826
879.79534555221
846.2910144272
854.52320802027
3961.5475046113
6039.0819539613
6169.6575761367
6181.0134341128
6185.5093700703
6188.4861413952
6190.5422450259
6191.8196957502
6192.3137694261
6191.8681880298
6190.3164082101
6187.4511704207
6183.0817494074
6177.0678405801
6169.4329157431
6160.2517931021
6149.6879146396
6139.5810814287
6127.1829971256
6114.3145221504
6101.1707412361
6087.9964597705
6074.8097968931
6062.0735538499
6050.0162449904
6038.8102364146
6028.5507489835
6019.2720402453
6010.9365015942
6003.4386556118
5996.6330172753
5990.3731728777
5984.538026575
5979.0788443066
5973.9826225237
5969.193208802
5964.4189089266
5956.4825739548
5950.8454389701
5944.6810500117
5938.2956445159
5931.8911037033
5926.0084656687
5920.7868866938
5916.3645271772
5912.9631703507
5910.39017617
5908.7811222515
5907.8727707497
5907.6114356081
5907.7720804393
5908.6467847354
5910.3327710843
5912.7673166559
5915.2205099627
5918.1472470371
5921.3668523492
5924.756826087
5928.2506220957
5932.0273289727
5936.0097659413
5940.1413975434
5944.421092493
5948.8467015067
5953.3999377848
5958.0894958491
5962.8947355269
5967.9720898462
5973.0906004553
5978.7586473338
5983.9361231977
5989.3209245197
5990.9209777697
7008.8643041055
6995.967502275
8443.5747495818
11609.341983168
15089.427217424
18361.851230783
21271.010150296
23692.547738983
25644.774945282
26926.258982065
27643.894514271
27760.331953
27466.807445712
26608.71172561
25404.356206415
23927.61243618
22280.445182123
20553.921638324
18826.499339427
17156.367725469
15581.600084559
14125.240732124
12795.816891302
11594.034249408
10514.337860248
9548.2566162918
8686.7078948728
7918.8832714596
7234.2480824598
6623.6491414145
6078.4885641692
5590.9848261094
5153.699395371
4760.9958195739
4408.0284455234
4089.9385478346
3802.643638045
3541.7484043302
3305.0082470708
3089.9240954964
2893.9249309726
2714.8747524617
2550.6666567039
2400.2831656033
2262.1125928316
2134.9886946725
2017.6195180186
1909.1717466589
1808.9102283153
1715.9884928515
1629.7553609188
1549.5233880515
1474.8403382213
1405.2409956751
1340.2729495099
1279.533328356
1222.6412265309
1169.3251592974
1119.2984279491
1072.2954977403
1028.0757085361
986.41126336923
947.12007979711
910.04605642712
875.03488320957
841.95186799177
895.92063288054
4470.5534714343
6080.4499467001
6173.6098145072
6182.8278096473
6186.9898566896
6189.7314629372
6191.5176962481
6192.5113751823
6192.6713313437
6191.8797045728
6189.971664552
6186.7402947736
6182.0025035604
6175.6733180871
6167.7670240281
6158.3703950523
6147.6596051278
6137.5343455215
6125.1221529968
6112.2727071181
6099.1905660714
6086.0986821304
6072.9859152487
6060.3466079874
6048.3714937007
6037.2184014774
6026.9769597165
6017.6851395081
6009.3054213858
6001.7355459417
5994.8349727771
5988.4598553159
5982.501380031
5976.8962531187
5971.6296729653
5966.6655579056
5961.8342393413
5953.9799558188
5948.5044766318
5942.4674921185
5936.234399173
5929.9731466418
5924.2692008995
5919.2156514362
5915.0312535055
5911.7513266548
5909.4106447378
5907.9640430406
5907.2510230452
5907.0858211985
5907.5695863483
5908.7257592551
5910.6426314654
5913.0928404297
5915.5606987593
5918.5345234929
5921.7120797217
5925.0522491026
5928.4895887278
5932.2361962907
5936.1868732302
5940.2828832972
5944.5266205098
5948.9153764185
5953.4160846018
5958.0381595105
5962.8740054388
5967.9424820354
5973.0620549187
5978.7731595844
5983.8077635579
5989.2092480448
5989.9027587939
6365.2217171643
6365.2285460843
6596.5458194631
8179.8349379373
10492.764628116
12891.872792329
15183.588392083
17217.396131519
18997.106942932
20388.594936842
21324.797677207
21828.762487233
21976.615999623
21702.78161993
21069.042272761
20181.743136217
19090.273071893
17877.95054304
16603.436184459
15321.945581279
14075.5713594
12891.064720575
11783.844425001
10762.668995741
9829.9562729669
8983.1640247911
8217.7632307866
7528.1676249794
6907.5150804357
6348.8810211421
5846.1717000099
5393.5462798805
4985.6693549518
4617.6355677817
4284.7181120671
3982.9461487196
3709.4022077407
3460.8463556587
3234.5649693421
3028.3242873695
2839.4482812366
2666.5239371697
2508.0837748315
2362.4781870966
2228.5755239625
2104.8642616507
1990.6162921066
1885.0080746252
1787.1507846466
1696.3762151673
1611.8964007776
1533.3096783614
1460.1098741021
1391.819620908
1328.0095931392
1268.2544102301
1212.3076867004
1159.8440837357
1110.579997726
1064.2638315093
1020.6427562643
979.53971987206
940.77722032314
904.18090473098
869.59756034167
836.75031459892
1004.2920858311
4966.0470758686
6113.5032058741
6177.5209877389
6184.6219374006
6188.372916976
6190.8134521977
6192.2929919247
6192.9663979269
6192.7612728454
6191.5926763448
6189.2787063308
6185.6381276284
6180.5052467969
6173.8461337529
6165.6626132771
6156.0557568563
6145.2114850485
6135.0819847131
6122.6770516104
6109.8665769795
6096.8682024882
6083.876000513
6070.8725718115
6058.3592344505
6046.4963588075
6035.4251619051
6025.2323018489
6015.9481038746
6007.5385345678
5999.9085591579
5992.9241192797
5986.4453851524
5980.3578278354
5974.6131821379
5969.1844531337
5964.0388703623
5959.0717403309
5951.4305007496
5946.0874417866
5940.2098920767
5934.1663930577
5928.0897499438
5922.5585227404
5917.6600269737
5913.6453374999
5910.492246633
5908.3384102894
5907.0367550595
5906.5572499611
5906.8157585769
5907.5279816177
5908.7059646886
5910.6043228705
5913.0108946876
5915.5088581373
5918.5377883876
5921.6418559741
5924.9554727508
5928.418845583
5932.1618268975
5936.1264561106
5940.2279423846
5944.4691046167
5948.8282705334
5953.3003516587
5957.9587085493
5962.7992814542
5967.9307493737
5973.0724095311
5978.8355908472
5983.7344049706
5989.1917206481
5988.9839249055
5844.982892642
5823.3848387855
5784.0236420647
6372.1214194684
7807.748306252
9540.2305151145
11310.510188224
12949.415304557
14483.283954733
15718.602069118
16637.162908604
17355.230451826
17775.401498687
17744.478479607
17520.610426264
17016.467873524
16330.005945131
15500.444459168
14584.6820174
13620.856326304
12650.368680939
11700.505342632
10791.688577644
9936.2471193041
9140.7397706523
8407.3299353436
7734.9416078251
7121.7053045275
6564.2638630903
6058.1634003775
5598.974192777
5182.5379098745
4804.7395487387
4461.7303935253
4150.0050832305
3866.4810757532
3608.2372554396
3372.4693349421
3156.7751612318
2959.5720447973
2778.9628076272
2613.274586147
2460.9613017969
2320.4375679935
2190.7647544252
2071.1263601347
1960.4549911735
1857.9768592971
1762.7410038206
1674.1519570001
1591.8194362959
1515.0966947354
1443.564164314
1376.7009813448
1314.1184791323
1255.5647577581
1200.6689497347
1149.1605254197
1100.7438206112
1055.1530293592
1012.239616268
971.78953207926
933.62848421822
897.57533473592
863.4720423083
830.60768095908
1238.14095128
5377.4467936054
6138.9836945274
6180.118944615
6186.1551450931
6189.4833438729
6191.5826886346
6192.7403042426
6193.0479631749