/*--------------------------------*- C++ -*----------------------------------*\
| =========                 |                                                 |
| \\      /  F ield         | OpenFOAM: The Open Source CFD Toolbox           |
|  \\    /   O peration     | Version:  2312                                  |
|   \\  /    A nd           | Website:  www.openfoam.com                      |
|    \\/     M anipulation  |                                                 |
\*---------------------------------------------------------------------------*/
FoamFile
{
    version     2.0;
    format      ascii;
    arch        "LSB;label=32;scalar=64";
    class       volScalarField;
    location    "0.00019";
    object      rho;
}
// * * * * * * * * * * * * * * * * * * * * * * * * * * * * * * * * * * * * * //

dimensions      [1 -3 0 0 0 0 0];

internalField   nonuniform List<scalar> 
109340
(
662.48312776238
662.47807387024
662.46846509076
662.45684414539
662.44401395165
662.43064590294
662.41699976445
662.40320677465
662.38941429159
662.37529114235
662.36019818232
662.34352510547
662.32454098543
662.30235774094
662.2759160359
662.24396233054
662.20500229819
662.15724430187
662.09851495783
662.0261478048
661.93682146125
661.826367005
661.6894966721
661.51943671485
661.30740300801
661.04186796223
660.707474898
660.2833919141
659.74070350877
659.03808296797
658.11422661221
656.87377291339
655.15934207965
652.69279338636
648.94521877483
642.83302959316
662.4838830422
662.47739724605
662.46661702241
662.45421422083
662.44101457457
662.42760104845
662.41414200643
662.40062650704
662.38685526886
662.37249819036
662.35704672658
662.33987002556
662.32019537603
662.29709046096
662.26944732693
662.23595033374
662.19504126344
662.14484339811
662.08307251397
662.00691545215
661.91286286557
661.79649776639
661.65220399177
661.47276723444
661.24880601478
660.9679657158
660.6137218552
660.16354371789
659.58595250943
658.83557832285
657.84436490626
656.50481854833
654.63546999429
651.90497671442
647.64474273676
640.40762275841
662.48670213792
662.47919617807
662.46732974601
662.45463246293
662.44154255616
662.42831772973
662.41492745978
662.40137038917
662.3875507405
662.37315348597
662.35768461051
662.3405099313
662.32085224825
662.29777696989
662.2701763195
662.2367397379
662.19590826959
662.14580752545
662.0841542112
662.00813727237
661.91424663849
661.7980653582
661.65397732335
661.4747662298
661.25104838474
660.97046436033
660.61648337117
660.16656825353
659.58923654508
658.83910932767
657.84809037208
656.50842006246
654.63664138822
651.89054523725
647.54773014962
639.86171631383
662.49062698069
662.48158118732
662.46911580707
662.45606057868
662.44271736794
662.4292161928
662.4156007185
662.40188768907
662.38796355619
662.37350861665
662.35802991178
662.34088792685
662.32129791667
662.29831914947
662.2708366876
662.2375324984
662.19684155422
662.1468823502
662.08535944807
662.0094505859
661.91561800131
661.79941355596
661.65517499541
661.47561732993
661.25126424159
660.96961940256
660.61395871218
660.16146862426
659.5802677755
658.82438125058
657.82476721034
656.47201395565
654.57788286122
651.78212669128
647.27495686976
638.75159018614
662.49681865224
662.48506024349
662.47077393238
662.45682736732
662.44312126684
662.42948762358
662.41582975254
662.40213208837
662.3882514586
662.37385642412
662.3584606486
662.34142134116
662.32194072935
662.29905780509
662.27162745
662.23828807014
662.19741535049
662.14704713831
662.08473232161
662.00751799088
661.91161026215
661.79224093706
661.64330241722
661.4568796455
661.22263655937
660.92686374703
660.55114040406
660.07025566893
659.44889674877
658.63606924824
657.55504057056
656.08471504824
654.01449726614
650.93350620757
645.85751454839
635.32880045083
662.50836800447
662.4868681145
662.47109305202
662.45682113571
662.44306617542
662.42943154876
662.41578069379
662.40203821094
662.38797865697
662.37313534959
662.35683448933
662.3381846244
662.31607132565
662.28913584966
662.25573839545
662.21390299847
662.16123941585
662.09486677526
662.01134322168
661.90574878039
661.7721555202
661.60290859792
661.38806972624
661.11465108028
660.76554759323
660.31800350082
659.74138386441
658.99378215508
658.01662753471
656.72560786018
654.99399284951
652.62464778807
649.27237827441
644.26399816952
635.94211957181
617.34110192295
632.31754984086
614.69432920805
587.64695919479
550.86437215701
506.20787476888
455.23596150018
400.0732214939
343.29161070148
287.53105491089
235.26019242807
187.57442075661
148.23456123329
115.62993470377
89.709322347977
69.709026671008
54.384916437389
42.756432408802
33.917982049554
27.171923562438
22.014118288242
18.041900140702
14.937592552976
12.490248801832
10.548925401444
8.9922454161331
7.7197363672178
6.6719770600374
5.8370558484577
5.1045220690015
4.5114560836266
4.0063385004305
3.5675759361095
3.2061839498457
2.8784335627489
2.6105796832446
2.3619138187132
2.1579105182728
1.9664519259808
1.8075362654713
1.6585045015098
1.5320194928943
1.4152146923926
1.3121209621475
1.2199031018541
1.134252092002
1.0600364851265
0.98896929853823
0.92799255150302
0.86942420284617
0.81800551028823
0.7699123582843
0.72569280969534
0.68517491460723
0.64779934715841
0.61328061234584
0.58131774665098
0.55167246135958
0.52413411298115
0.49852304439744
0.47466671194389
0.45240852407387
0.4316093680307
0.41215009821288
0.39392401542707
0.3768276516919
0.36076157695137
0.34572467263677
0.58937601532705
2.1671887087888
2.3679996022711
2.3455229832171
2.3158606839278
2.2881418167316
2.2624830862031
2.238550207418
2.2159495836314
2.1943044581193
2.1732714348531
2.1526376439896
2.1322638666695
2.1121633360362
2.0924524870324
2.073351339626
2.0550739407468
2.0355676318692
2.0194777135265
2.0043174390399
1.9900452481739
1.9764942547786
1.963447055075
1.950763204647
1.9383020526625
1.9258657673857
1.9132070984648
1.9000472837375
1.8860996733826
1.8711309135273
1.8550445987077
1.8379510169308
1.8201900322586
1.8022927513716
1.78488596863
1.7685682121553
1.7539143406708
1.7380779282808
1.7288968776848
1.7226697733417
1.7188075032968
1.7160421896104
1.7136675621553
1.7112300390577
1.7086350602975
1.7058393624425
1.702793844313
1.7000760531322
1.6970023086258
1.6936265111526
1.6901063382461
1.6864731595934
1.6828462777502
1.6792405176973
1.6754399732571
1.6713821736352
1.6669778797982
1.6620647585707
1.6566463817776
1.6507961603655
1.6445927235745
1.6381693573308
1.6316841585357
1.6252673771934
1.6191043171726
1.6133371886487
1.608081512321
1.6034163303941
1.5993242193785
1.5956834064209
1.5918414091936
1.5856280639182
1.5729774556585
627.20409357754
604.64649783852
571.2038768908
528.45289782629
478.4387176739
424.0505834512
367.57488423409
311.74859084181
258.93747935238
210.90982397359
168.81393626638
133.03206378872
104.51851534954
81.766424742621
63.94069720617
50.231668763248
39.717198033185
31.675522767909
25.516389323852
20.768580612424
17.082604480337
14.196807060011
11.913791687334
10.08921586841
8.6182487413936
7.4215209569307
6.4372435093601
5.6221704063638
4.9427100627528
4.3689509797054
3.8845932416565
3.470133593056
3.1152737888604
2.808025814782
2.5417768850009
2.3090425541115
2.1052831409064
1.925583089603
1.7669709673007
1.6258277614232
1.5004455122962
1.3879674136143
1.2874280444427
1.1965485375415
1.1148625239916
1.0405884326665
0.97339200957535
0.91203702781694
0.85615531429318
0.80497282412884
0.75807308704027
0.714944998879
0.67520352516865
0.63858089209812
0.60471879986995
0.57336800556517
0.54428063550357
0.51725725195938
0.4921082023231
0.4686701836392
0.44679342439339
0.42634637515352
0.40720957583223
0.38927726694522
0.37245461904393
0.35666791813868
0.34387483359748
1.0250474745123
2.289731381427
2.3659245542178
2.3374712335199
2.3081792827393
2.2810089047644
2.2558249449623
2.23225238214
2.2099030949773
2.1884006752109
2.1674504749782
2.146856535875
2.1265251685467
2.1065051044468
2.0869417862349
2.0680591729096
2.0500497215813
2.0350106147353
2.0189030254917
2.0037948732333
1.9895527402644
1.9760186598538
1.9629735390627
1.9502788878351
1.9377963375664
1.9253297490711
1.9126337439273
1.8994315941065
1.8854386924379
1.8704240791779
1.8542945656349
1.8371650135288
1.8193814223119
1.8014828323378
1.7841043202185
1.7678493970417
1.7532941220078
1.7376185869524
1.7285710821766
1.7224639030832
1.7186652068445
1.7159720702103
1.7136171771796
1.7111679751197
1.7085338929161
1.7056946569878
1.7025665356465
1.6997614565671
1.6965658837956
1.6930496154813
1.6893914789045
1.6855947638081
1.6817941521374
1.6780016016134
1.6739816181406
1.6696712675631
1.6649713890157
1.6597493695083
1.654014359162
1.6478383137164
1.6413081231436
1.6345725791111
1.6278086781368
1.6211559252216
1.6148005068775
1.6088930289926
1.6035632441277
1.5988926460827
1.5948689265204
1.5913255896349
1.5876085373703
1.5815292527047
1.5689612567274
624.41173805654
595.96947871172
555.21665166289
505.157375796
449.31632751551
391.74087378438
335.5108615429
282.50630209997
234.16534541491
190.80366509109
154.33080030563
123.31875383327
97.808027345914
77.295885976163
61.040698174374
48.316531715555
38.451272897978
30.84476932839
24.963969956893
20.388213275693
16.81512341199
14.007342987551
11.776412164444
9.9880808509492
8.5429577891761
7.3638577424484
6.3935556501721
5.5883494194075
4.9156717213531
4.3484597195679
3.8669319629122
3.4566723795246
3.1034931012388
2.7989834632474
2.533767030716
2.3027797247498
2.0997049430997
1.921261841371
1.7629821029599
1.6227980044014
1.4975665303937
1.3857969991102
1.2852902690747
1.1949292296558
1.1132649331851
1.0392992355244
0.97216871536706
0.9109683042413
0.8552147900662
0.80409668985385
0.75731403014507
0.71425705427557
0.67462686130079
0.63803319312578
0.60421260589351
0.57290279772329
0.54385885761819
0.51687381867613
0.49175775878586
0.46834907420872
0.44649934627365
0.42607696326832
0.40696150236765
0.38904689053942
0.37224267260736
0.356477313532
0.3438914525353
1.0459519160869
2.2938003737525
2.3661030938523
2.3374506779373
2.3081005195921
2.2808932654787
2.2556843279794
2.2320935470119
2.2097315154694
2.1882197582351
2.1672656012287
2.1466707174775
2.1263437877834
2.1063317322286
2.0867803020282
2.0679104152161
2.0499084165238
2.0348937391092
2.0187812778662
2.0036863613345
1.9894556233414
1.9759308818637
1.9628924597059
1.9502046827642
1.937729013714
1.9252699649829
1.9125828394775
1.8993915265817
1.8854118461443
1.870412514308
1.8542989639368
1.8371837181257
1.8194100665961
1.8015148000273
1.7841316555935
1.7678663132888
1.7532980659274
1.7375823175478
1.7284904722689
1.7223409614875
1.7184968022955
1.715800343937
1.7134223440053
1.7109399150149
1.708210460737
1.7053447074017
1.7020307377835
1.6990394759229
1.6955730196567
1.6918045335914
1.6878228836443
1.6836610227313
1.679468393439
1.6752266438311
1.670693939214
1.6658321136946
1.6604860221227
1.6545824067571
1.6481457734712
1.6412502923257
1.6340050180483
1.6265919353156
1.619227855373
1.6120734596546
1.6053120148288
1.5991253283314
1.5936578843733
1.5889768119057
1.5850678419897
1.5817181712713
1.5782466008233
1.5724631978505
1.5600535968211
618.17341755402
576.30861220024
520.59015148076
457.6488217473
396.92656861445
339.05969021866
287.32493496699
241.46730753758
201.07487571985
165.67103781855
136.37293502703
110.89518529497
89.372419630292
71.65685791842
57.267113613664
45.827154415118
36.810064300647
29.736401265831
24.203809623609
19.872905356514
16.459077171209
13.746699479394
11.587068145426
9.8501660325296
8.4385924122202
7.2837938508657
6.3324433879725
5.5409769663484
4.8773442666854
4.3183623781485
3.8428241467243
3.4365897543888
3.0873221714404
2.7853430542928
2.5227214986727
2.293326198805
2.0920391594326
1.914577234681
1.7575269385867
1.6180529918627
1.4935983033867
1.3823239151857
1.2823202505198
1.1923693444707
1.11097766867
1.037358837732
0.9703913797145
0.90947160174334
0.85380751588869
0.80288753947695
0.75619652590287
0.71327076616889
0.6737501095416
0.63724301884803
0.60350012709743
0.57224734722135
0.54326075958486
0.51632688353958
0.491260974143
0.46789779186672
0.44608765216069
0.42569889325516
0.40661367535459
0.38872820203605
0.37195333801242
0.35620590242487
0.34395310063657
1.0771414584607
2.298804967798
2.3661400564139
2.3373101095269
2.3079302007563
2.2806977447753
2.2554657958007
2.2318544434059
2.2094768950262
2.1879533686697
2.1669940237448
2.1463989021328
2.1260785437349
2.1060786482523
2.0865452392018
2.0676958242409
2.0497129022487
2.0347355920956
2.0186369989915
2.0035601571484
1.989345667204
1.9758347516023
1.9628071393568
1.9501300900086
1.9376656720632
1.9252191519195
1.9125469676292
1.8993740959162
1.8854168771526
1.8704434891747
1.8543570757157
1.8372666974975
1.819511746503
1.8016256339389
1.7842397320564
1.7679591841966
1.7533596889443
1.7376075046669
1.7284567256974
1.7222348180829
1.7183232434566
1.7155837814666
1.7131495302063
1.710611532725
1.7077578780364
1.7047350383788
1.7012030023058
1.6979044776308
1.6940421003078
1.6898307542088
1.6853303862976
1.6805855448559
1.6757624219621
1.6707834368534
1.6654500738411
1.6596811241298
1.6533408695004
1.6463670185601
1.6388187498919
1.6307993759537
1.6224597762783
1.6140320130229
1.6057692689084
1.5978752843054
1.5905660748121
1.5840354764599
1.5784254507741
1.5737907560494
1.5700977353206
1.567077229264
1.5640026538388
1.5586606718786
1.546500147733
597.29952826523
520.4441575524
438.81307147154
368.44173628319
312.68002825906
266.31887529388
227.75796954245
194.505202001
165.53963344341
140.11316689877
117.34125278932
97.270178019396
79.906370485539
65.184374871703
52.940033247699
42.911167457591
34.838430194852
28.40267122198
23.289700391491
19.230523726613
16.003733031728
13.428286124642
11.350456261738
9.6725536885034
8.3065265739946
7.1843695795793
6.2541013761437
5.4796595660767
4.8294948656754
4.27961762564
3.8117646904729
3.4111556666499
3.0665091600695
2.7679053956673
2.5083979928407
2.2812891205918
2.0819550410074
1.9060252807395
1.750376187398
1.6118567387539
1.488385131488
1.3777603782576
1.2784497416863
1.1889183236775
1.1080232805606
1.0347251720855
0.96808989914328
0.90742225986609
0.85197551122413
0.80127666061697
0.75472988682248
0.7119638302157
0.67255915979774
0.636192650217
0.60255517017816
0.57138547395787
0.54247243201332
0.51560724777938
0.49060758240119
0.4673023555233
0.44554343684523
0.42520039270546
0.40615809606128
0.38831368755959
0.37157795550658
0.35584788876702
0.34410289899098
1.1185285676531
2.3046454109967
2.3659369844716
2.3369916740774
2.3076403383433
2.2804092501308
2.2551630989029
2.2315327509273
2.2091397560713
2.1876032192159
2.1666384001208
2.1460432145102
2.1257311802841
2.1057483151382
2.0862392697891
2.0674170908271
2.0494623326538
2.0345258977151
2.0184522371981
2.0033992801284
1.9892064201987
1.975714159584
1.9627013038946
1.9500392051425
1.9375903563798
1.9251613661119
1.9125100671894
1.8993627455308
1.8854364463676
1.8704984812402
1.8544491436185
1.8373929567255
1.819664124704
1.801791475194
1.7844038876019
1.7681051750536
1.7534709752763
1.7376746689972
1.7284450695495
1.7221279020739
1.7181254696062
1.7153209656009
1.7128215840774
1.7101813597205
1.7071658046748
1.703936683554
1.700090184114
1.6963391352832
1.691928590079
1.6870791851762
1.681837170652
1.6762562814282
1.6705041435801
1.6644811495993
1.6579939729241
1.6509302766792
1.643183660085
1.6347128084991
1.625624778582
1.6160737929642
1.6062739653512
1.596524848444
1.587128664113
1.5783444167013
1.5704109757994
1.5635254220809
1.557820890455
1.5533405820044
1.5499974885523
1.547469595202
1.5449677587535
1.5402291869152
1.5285030994391
449.0147303687
325.10126353885
272.79782388454
240.77584943288
214.4465473971
191.51018521234
170.36335288598
151.02918036435
132.43424991176
115.06359018984
98.704887950803
83.753602487406
70.289373287149
58.434062757007
48.264705961491
39.715327008628
32.651277106218
26.891761424264
22.238352365723
18.491523664362
15.474662123028
13.040562242094
11.073242061264
9.4656040660074
8.1481438785362
7.0623661600724
6.161592956462
5.4062414279861
4.7707936046188
4.2327281218565
3.7741945047785
3.3803518529545
3.0410879953884
2.7471067402256
2.4908890278603
2.2667105625722
2.0696925462453
1.8957449213255
1.7415210772331
1.6043712746555
1.4819519547515
1.3722113118745
1.2736114610251
1.1847016851263
1.104364928138
1.0314703895426
0.96523441012758
0.90486655792964
0.849737006326
0.79925797713274
0.75292165978798
0.71033673575589
0.67109149904771
0.63487802497903
0.60136589149377
0.57031390285485
0.54149881030806
0.51472124978247
0.48979735119159
0.46655995300523
0.44486509652611
0.42458192435061
0.40559390836457
0.3877992361562
0.37110101851662
0.35540353638108
0.34424863436756
1.1702843662482
2.3110848644741
2.3654444767303
2.3364795115172
2.3072156497385
2.2800142410858
2.2547679496803
2.2311233915116
2.2087154885542
2.1871663163235
2.1661958258691
2.1456020531045
2.1253016332687
2.1053394719711
2.0858601778006
2.0670726403557
2.0491549004851
2.0342689212206
2.0182284904311
2.0032031218164
1.9890358762334
1.9755670568688
1.9625728811198
1.9499299051004
1.9375008171956
1.9250940675857
1.9124692649495
1.8993543239061
1.8854670668153
1.8705738165817
1.8545714572667
1.8375588809942
1.8198638536267
1.8020100351373
1.7846271302647
1.7683144717775
1.753615507146
1.7377825414911
1.7284559989546
1.7220196334357
1.7179014422705
1.7150070489862
1.7124130291075
1.7096433456972
1.7064217299365
1.7028981051721
1.6986494412177
1.6942890524693
1.6891509183004
1.6834324277152
1.6771755129952
1.6704398936879
1.6633916166179
1.655966630305
1.647927119138
1.6391337125718
1.6295222139991
1.6190891380518
1.6080183194247
1.5965388279225
1.5849444235399
1.5736362888351
1.5629594853949
1.5532139195607
1.544654478819
1.537481862504
1.5318135544603
1.5276560273658
1.5248537704503
1.5230194277236
1.5212831269449
1.5173213976382
1.5061562251519
15.291568692442
103.7878180989
127.57914523367
136.60910709092
138.01699411213
134.03538569838
126.31997004526
116.81703192122
106.36703413962
95.463505038429
84.498777283563
73.735714050005
63.492880107338
54.016431239223
45.508101308218
38.085111540877
31.747686552933
26.440480488775
22.055384598232
18.46165409421
15.528037920623
13.136357949338
11.181414165626
9.5821502875041
8.2616881393386
7.1661565472852
6.2554926763796
5.4925732398458
4.8487646814582
4.3015245921267
3.8354842494773
3.4358209862762
3.0905462469025
2.7910888273316
2.5304104083882
2.3023752505157
2.1016475046427
1.9245819008644
1.7676590637824
1.6280797466733
1.5033747891133
1.3917296604919
1.2914103945561
1.2009585030833
1.1191818211347
1.0450593898366
0.9777226872572
0.91634832908219
0.8602998143735
0.80899269423352
0.7619359724079
0.71868189748568
0.67882300514633
0.64204499220496
0.60803969504553
0.57654868291523
0.54731958498112
0.52015318053872
0.4948732171732
0.4713137857287
0.44932416465297
0.42876730416638
0.40952410430309
0.39148750239769
0.37456810775574
0.35868355973605
0.34434362683266
0.75282240405045
2.2311927680062
2.3689474771411
2.3432865067207
2.3137621619098
2.2861045065379
2.2604183961124
2.2364045497408
2.213711295784
2.1919660339073
2.1708665642254
2.1501923252378
2.1298305895463
2.109797695515
2.0902109118324
2.0712728230491
2.0531690412473
2.033959502194
2.0179613749855
2.0029714938319
1.9888342603022
1.9753920842884
1.9624204668659
1.9498007502976
1.9373956410696
1.9250158049161
1.9124230312491
1.8993472104917
1.8855069451694
1.870667604515
1.8547221547345
1.8377627740564
1.8201099272202
1.8022816581002
1.7849008432557
1.7685913534675
1.7539131822104
1.738060385793
1.7285696678564
1.721916956449
1.7175826787166
1.7145065486144
1.7117298864995
1.7086952172443
1.7050731887527
1.7009508624592
1.6959066978019
1.690342114664
1.683747800101
1.6762453448987
1.667891517163
1.6587986463116
1.6491753761515
1.6389545449
1.6277802651606
1.6155519146674
1.6023050302873
1.5881590325944
1.5734247759221
1.5585045749329
1.5438698495138
1.5300171519271
1.5173611161208
1.5062401758013
1.4969296187001
1.4896026072812
1.4843233304105
1.4810157541988
1.4793921794987
1.4789349929252
1.4786718762644
1.4761348923627
1.4661080525132
6.8301103695059
18.245823749577
32.55874265698
44.446066838784
53.522783347695
59.535447613873
62.705737490791
63.497417775372
61.763746897901
58.743077818174
54.757654947325
50.0471170836
44.943482811856
39.724589024407
34.642370930837
29.904097919001
25.628169382483
21.867728422349
18.629980113871
15.882835905542
13.57211985012
11.638889595877
10.024089541764
8.6741628968627
7.5447648865789
6.5977029918838
5.7980860995371
5.118746356409
4.5418334705403
4.0487101343179
3.6252947475312
3.2586523923828
2.9409355858917
2.6641332011519
2.4219703973335
2.2087405692615
2.0207392870501
1.8542613508639
1.7062892006159
1.5741117533336
1.4558151562055
1.3496158059171
1.2539853777863
1.1675563232066
1.0892625818081
1.0181961922316
0.9535034178546
0.89446440016541
0.84044246169555
0.79095383340637
0.745498256302
0.70366313562786
0.66507427045579
0.62942071845682
0.59643650471407
0.56585960690011
0.53746930036822
0.51105568750711
0.48644898375262
0.46349646429117
0.44205757259334
0.42200727521632
0.40323016256347
0.38562183285484
0.36909056670448
0.35354455149406
0.34643167653633
1.385184861796
2.3314725371612
2.3625515448151
2.3340405611232
2.3051591310541
2.2781532275816
2.2529742054666
2.2293270975153
2.2068912316059
2.1853133386634
2.164330762121
2.1437535725219
2.1235077356992
2.1036332863678
2.0842810354886
2.0656420354701
2.0478824524581
2.0331825438871
2.0172893036155
2.0023895854216
1.9883305944921
1.9749564775188
1.9620407218602
1.9494805401351
1.9371369511358
1.9248251684337
1.912312758835
1.8993343989583
1.8856116722737
1.870907728943
1.8551062137708
1.8382835283099
1.8207405319613
1.8029775730584
1.7856074160385
1.7692618442689
1.7544770263679
1.7385306346588
1.7287975878268
1.7217890835916
1.7170856288982
1.71367878783
1.7105734654463
1.7070475823868
1.7026716752485
1.6973450886227
1.6906624290205
1.6826607026103
1.672985235113
1.6616563593693
1.6487895633152
1.6346754860756
1.6195546817052
1.6032727431923
1.5856250797122
1.5666614254422
1.5466262875661
1.5259673462323
1.5052905217968
1.4852675836183
1.4665730149858
1.4497324160764
1.4351744371255
1.4231950559455
1.4139941155263
1.4076362246244
1.40403657
1.4029257466556
1.403877318894
1.4060974910438
1.4083648949993
1.4085053697411
1.4007928040183
5.4399822161975
8.0339216427141
12.984622592099
18.980161237742
24.625894123755
29.423703533145
33.17190723748
35.729817783816
37.097814980026
37.254902071078
36.513143069607
34.878640142967
32.630757396357
29.967395116478
27.051976302119
24.091505035158
21.229244261648
18.56686713522
16.159615435963
14.030604361248
12.178543796162
10.583921647608
9.2198795579393
8.0567131271426
7.0655674478839
6.2211921128931
5.5003645009966
4.8833024409311
4.3535486654855
3.8961327440464
3.499973636111
3.1561867970883
2.8563488832628
2.59410815716
2.3630572349637
2.1591928412243
1.9788352076116
1.8186857780764
1.6757498425942
1.5478013012166
1.4331309344831
1.329965458483
1.2368492899977
1.1525113916231
1.0760735961137
1.0065570256203
0.9432063322156
0.88529296343867
0.83227251434478
0.78364575960377
0.73894786603331
0.6977707238262
0.6597525861417
0.62462056263554
0.59208852936445
0.56191625318025
0.53387998396456
0.50778487412795
0.48347019038647
0.46077588819861
0.43956534035938
0.41971584817649
0.40111656058885
0.38367223191187
0.36728911939535
0.35185240878605
0.35307414073542
1.5703287623705
2.3460876302548
2.3605984246016
2.3319019996632
2.303217456031
2.2763569153156
2.2512511902466
2.2276327859022
2.2051914603317
2.1836068777209
2.1626250180149
2.1420712739199
2.1218785729159
2.1020882092331
2.0828543549352
2.0643530661922
2.0467400161546
2.0321946893948
2.0164346481435
2.0016484220101
1.9876884265514
1.974401505137
1.9615575370273
1.9490742798083
1.9368101353277
1.9245857523322
1.9121757910138
1.8993212552431
1.8857480419625
1.8712166722578
1.8555994422674
1.8389543258502
1.8215578965373
1.8038885456566
1.7865432844465
1.7701614219846
1.7552715867859
1.7391792383514
1.729151230596
1.7217213092863
1.7165629857047
1.7127304497767
1.7091887212622
1.7050001108039
1.6995629574689
1.692472538943
1.6832466610976
1.6715207508701
1.6569318580528
1.6394555238382
1.6193463589597
1.5972149563602
1.5735246022162
1.5484652402794
1.521978059954
1.494545561626
1.4667837683407
1.4395186798888
1.4136382897242
1.3899541518432
1.3690178195884
1.35121735963
1.336782511158
1.3258448256307
1.3184466759778
1.3144875615551
1.3136573875149
1.3156088811414
1.3194937489564
1.3248267205195
1.3299043069496
1.3327356569477
1.327557961649
4.3484324233865
5.6985446168738
7.2118657817986
10.197317720314
13.523626699901
16.693263663891
19.524874174901
21.821392533762
23.563735279412
24.571137109532
24.903876364336
24.596496199311
23.861047212587
22.58427234541
21.006166549458
19.238467131934
17.396374614256
15.572964583793
13.839553889824
12.240446216099
10.797016572308
9.5153544337878
8.3896333780568
7.4081787083358
6.555992074287
5.8175364005348
5.1783766235371
4.6245368911233
4.1436144444876
3.7252068564833
3.3602304408531
3.0409159697793
2.7603919021875
2.5133344692417
2.2952785433367
2.1021327278797
1.9305083697592
1.7771199228536
1.6399666890074
1.5170704319554
1.406554484963
1.3068683521636
1.2165666497805
1.134800554095
1.0604965823948
0.99284444670256
0.93101872950275
0.87444301001825
0.82261463062192
0.7750053296154
0.73119788774463
0.69077661046216
0.65344675954852
0.61892062528787
0.58692749460271
0.55722858269995
0.52960294979156
0.50388467727659
0.47990715061359
0.4575185444451
0.43658251373024
0.41697232138794
0.39858445085525
0.38132938873651
0.36512101232732
0.34988414504041
0.36913540797661
1.766831122464
2.3581424212678
2.3585434025812
2.329359199439
2.3008367220558
2.2741228753531
2.2491017038685
2.2255258099631
2.2030895773374
2.1815041248853
2.1605327714935
2.1400128465004
2.1198856210558
2.1002090314216
2.0811237455766
2.0627935152264
2.0453603652126
2.0309962297559
2.0153973691695
2.0007472603837
1.9869063547694
1.9737229553158
1.9609676059797
1.9485787749781
1.9364124252201
1.9242951544189
1.9120099147354
1.8993071512742
1.8859166137299
1.8715959248408
1.8562048048245
1.8397788350715
1.8225707890911
1.8050297905885
1.7877337013772
1.7713133091475
1.7563261006001
1.7400900935592
1.7297437364001
1.7218521539525
1.7161718359858
1.711827084831
1.7077152898786
1.7026813140465
1.6957954858275
1.6862335052659
1.6731738067022
1.655814884233
1.6335657395372
1.6064393959883
1.5752971730784
1.5416026523387
1.5066197950572
1.4710089949589
1.4351973014977
1.4000539179231
1.3664833441188
1.3354402695017
1.3076987487021
1.2837593667943
1.2637597729748
1.2477437095228
1.2356779292647
1.2274754883324
1.2230324705555
1.2220757756912
1.2242849977148
1.2289504622323
1.2356586964648
1.2436481848755
1.2510800091778
1.2559134690645
1.2531735890397
3.5389875514712
4.6563897312175
5.0528847866212
6.4326500075726
8.4115305382466
10.490101148862
12.493705042961
14.270218889694
15.785118159195
16.91480053907
17.600288333928
17.834662043177
17.717904053597
17.22432900994
16.413062368663
15.390140996274
14.225592676721
13.002989640048
11.778308070858
10.598457033552
9.495178677654
8.484537778939
7.5720453190096
6.7576762793364
6.036534757349
5.4007770071952
4.8418626493985
4.3512952695234
3.9205799509268
3.5419111894456
3.2086062017022
2.9147055831355
2.6550243903943
2.4250292235783
2.2206426771843
2.0384818858342
1.8759435155267
1.7304580421631
1.5998912771085
1.4824836211592
1.3763787642501
1.2804307035723
1.1935388852555
1.1145827333147
1.0427435424136
0.97707184923024
0.91702051107589
0.8620300446119
0.81153855316685
0.76510840927229
0.72226805487245
0.68273628394395
0.64619892238285
0.6123670280239
0.58098385245006
0.55180364027419
0.52466653400867
0.49938504636083
0.47579582180783
0.45375453310967
0.43312095629816
0.41379105832483
0.39566395960102
0.37864305415672
0.36264349440254
0.34753130001738
0.41165634316305
1.9565975149421
2.3663413597472
2.3559212733591
2.3263231821711
2.2979805317862
2.2714254751335
2.2465038487605
2.2229805819685
2.2005598342966
2.1789849196829
2.1580318143753
2.1375600728635
2.1175222740973
2.0979902233813
2.0790876054183
2.0609642125913
2.0437453400884
2.0295888500242
2.0141785329595
1.9996864434381
1.9859832380936
1.9729176278542
1.9602696255736
1.947991797284
1.9359413056097
1.9239513197831
1.911815351128
1.8992911576699
1.8861147675022
1.8720426856419
1.856921724624
1.84076292954
1.8237855420914
1.806413464343
1.7891985036615
1.7727539693176
1.7576490638302
1.7413006565508
1.7306097111323
1.7222312498911
1.7159783801668
1.7110339268615
1.7062379723271
1.7001783523326
1.6914485094155
1.6785963780121
1.6601788426453
1.6346911877921
1.6013318562817
1.5606046029237
1.5147446105842
1.4672109331713
1.4205426946644
1.3758925034166
1.3338646594204
1.2952145116864
1.2605437378428
1.2304125774179
1.2049657265033
1.1841092246314
1.1675451938039
1.1549893437723
1.1462008538808
1.1410068106812
1.1392596567175
1.1407025321745
1.1448963575226
1.1514889004017
1.1599032532282
1.1693328307872
1.1780103687975
1.1840108408948
1.1834010608747
2.9165323580462
3.9323747311988
4.0829067302347
4.6137037760958
5.7552414890947
7.1340298322264
8.5520920325642
9.8747662041344
11.099496836126
12.06557815877
12.75218406325
13.235676355784
13.435884877662
13.26411442549
12.925130029278
12.356360354269
11.646446642432
10.841315095494
9.9938665343747
9.1385180460996
8.3075854062435
7.521317911778
6.7924265819243
6.1263782970365
5.5242722228783
4.9839103971208
4.501072580711
4.0712631585709
3.689443221439
3.3503207754909
3.0489948274023
2.7810786580914
2.5425462902898
2.3298129030346
2.1397330441537
1.969604133798
1.8169959470239
1.6797014544923
1.5558523829555
1.4440945996123
1.3430147762549
1.2513891120835
1.1681221063798
1.0921608386324
1.0228067204785
0.95945425449559
0.90141544434738
0.8481680418029
0.79913498701632
0.75392149405361
0.71224283728129
0.67371404413833
0.63806499487609
0.60499225963342
0.57426104762049
0.5457043144073
0.51911043536626
0.49431804484717
0.4711607520691
0.44948976367756
0.42921071157831