/*--------------------------------*- C++ -*----------------------------------*\
| =========                 |                                                 |
| \\      /  F ield         | OpenFOAM: The Open Source CFD Toolbox           |
|  \\    /   O peration     | Version:  2312                                  |
|   \\  /    A nd           | Website:  www.openfoam.com                      |
|    \\/     M anipulation  |                                                 |
\*---------------------------------------------------------------------------*/
FoamFile
{
    version     2.0;
    format      ascii;
    arch        "LSB;label=32;scalar=64";
    class       volScalarField;
    location    "0.00019";
    object      rhoHat;
}
// * * * * * * * * * * * * * * * * * * * * * * * * * * * * * * * * * * * * * //

dimensions      [1 -3 0 0 0 0 0];

internalField   nonuniform List<scalar> 
109340
(
661.22301558685
661.21819367231
661.20897032844
661.1977180425
661.18517081692
661.17195896271
661.15832458317
661.14436009028
661.13006382339
661.11480246349
661.09747919495
661.07688234542
661.05153403761
661.01964538296
660.9790870114
660.92734148386
660.8614166572
660.77773181352
660.67195113999
660.53875987486
660.37154648322
660.16201083382
659.89962667917
659.57091563026
659.1584159956
658.63923525319
657.9829152529
657.14820007278
656.07792832696
654.6905818679
652.86555652851
650.41585263558
647.03410167439
642.17996803124
634.83394939349
622.93425642489
661.22373443904
661.21754654645
661.20718800014
661.19515671787
661.18221880065
661.16892987748
661.15544983317
661.14171994527
661.12735320326
661.11167584485
661.09368684468
661.07211778756
661.04541083986
661.01169160131
660.96873579308
660.91390821503
660.84408684082
660.75552266344
660.6436610242
660.50289781202
660.32624694352
660.10491419547
659.82772000207
659.48031166689
659.04404368697
658.49438814986
657.79858163997
656.91202239502
655.77251363645
654.29061767701
652.33254897709
649.68772107336
646.00216087032
640.63322751084
632.29516341363
618.24518146444
661.22641364686
661.21926612908
661.20787565171
661.19556439872
661.18273895448
661.16964355661
661.15624178982
661.14248941319
661.12810933861
661.11244325269
661.09450346299
661.07301608576
661.04641638114
661.01282543606
660.97001747367
660.91536240633
660.84573778439
660.75739891404
660.64579458744
660.50532615358
660.32900869893
660.10804865312
659.83126695405
659.48430747162
659.04852056022
658.49936930273
657.80407779334
656.91803132999
655.77902577761
654.29760688359
652.33991407529
649.69485321207
646.00461650922
640.60550467876
632.10779176802
617.19737583696
661.2301332791
661.22154199376
661.20959713853
661.19695542489
661.1838955509
661.17053763969
661.15692007357
661.14302792567
661.12857735988
661.11290751701
661.09503102408
661.07366707256
661.04724147781
661.01386713185
660.97130835101
660.91692387571
660.84758067422
660.7595211151
660.64817275211
660.50791364848
660.33170835307
660.11069894481
659.83361282131
659.48595652178
659.0488935369
658.49761428488
657.79895777949
656.90776047316
655.76102930101
654.26813818469
652.29337785321
649.62244864315
645.88833106418
640.39252801188
631.57717669235
615.06538569057
661.23597649616
661.22485374535
661.21119299041
661.1977015652
661.18429288715
661.17080760613
661.15715077785
661.143284592
661.12890932216
661.11335851091
661.09565100228
661.07449602076
661.04829260064
661.0151124691
660.97265855468
660.91820061825
660.84848335551
660.75958335518
660.64663929558
660.50374480946
660.3233697381
660.09601076938
659.80950344578
659.44809820288
658.99124066659
658.41170755919
657.67296735202
656.72510762329
655.49836256519
653.89224541161
651.75603504316
648.85276153721
644.77251399464
638.72033909123
628.80790745093
608.49049953212
661.24679555635
661.22657255152
661.21150215843
661.19769779445
661.1842403909
661.17075234524
661.15709974453
661.14315648414
661.12844887686
661.11203554828
661.0925557597
661.06821881884
661.03678832789
660.9955386714
660.94118130516
660.86975443084
660.77646660698
660.65552759605
660.49999647157
660.30025754317
660.04442508827
659.71722604612
659.29886110542
658.76348511953
658.07710725189
657.19458839059
656.05529195895
654.57649693579
652.64298315606
650.08960022361
646.66944260077
642.00087414173
635.42128105958
625.65141021953
609.58380101429
574.43563704447
602.70842726146
569.53300853463
520.41735820337
457.16364524967
385.87497879833
311.89771201207
240.71615176422
177.08088177135
124.09650107972
82.977068164468
52.682934690489
32.845237739422
19.951640842343
11.988274388915
7.2254665759292
4.3899619292054
2.7084687361753
1.701462604189
1.0901240622579
0.71439400216755
0.47910963782133
0.32794586650239
0.22897174737341
0.16310551803681
0.11837629547517
0.087170822988123
0.065024137203332
0.049708575393823
0.03800418763008
0.029622696455169
0.023364402282627
0.018497485299663
0.014937164150544
0.012024928420475
0.0098874967660296
0.0080852887309968
0.0067464394349073
0.0055968269850983
0.0047276098313349
0.0039757575066315
0.003392327685019
0.0028910478549915
0.0024857799937761
0.0021460794065795
0.0018557024629713
0.001619381923835
0.0014093075904681
0.0012401034192219
0.0010880145926284
0.00096276272750906
0.00085244252696248
0.00075706579858681
0.00067461461857199
0.00060279817212094
0.00054006659102945
0.00048506634152001
0.00043670086225589
0.00039405669464876
0.00035636887069257
0.00032297286883182
0.00029330015500406
0.00026686890464372
0.00024327392009993
0.00022216787476459
0.00020324343221301
0.00018622973333798
0.00017097976215641
0.00049518124875736
0.0066967017218325
0.0079889290539685
0.0078299676547497
0.0076255897849884
0.0074370736327012
0.00726462825188
0.0071055908411619
0.0069570431260604
0.0068162973557349
0.0066809888953854
0.0065496678766936
0.0064214028230527
0.0062962320401692
0.006174821441165
0.0060584267697759
0.0059482157944846
0.005831870723827
0.0057368608383546
0.0056481562572352
0.0055653442001498
0.0054873214124065
0.0054127357142029
0.0053406947776167
0.0052703297422108
0.0052004793538634
0.0051297434558706
0.0050565922829138
0.0049795083392039
0.0048973280571414
0.0048096866115921
0.0047173579539361
0.004622315862514
0.0045274603174386
0.0044360679537265
0.0043511510826504
0.0042754920734014
0.0041944496695454
0.004147697140471
0.0041161307934769
0.0040966902537929
0.0040829712495922
0.0040713074664449
0.0040593604476338
0.004046607831534
0.0040328157853753
0.0040177624914055
0.0040041683097354
0.0039888096326848
0.0039719693554061
0.0039543936487214
0.0039362387441926
0.0039180584613876
0.003899920361605
0.00388081215469
0.0038604486866505
0.0038384021005349
0.0038139384220661
0.0037871098340521
0.0037582944724897
0.0037279004302495
0.0036965861014766
0.003665116423287
0.0036341220832858
0.003604472355611
0.0035768266746661
0.003551715052823
0.0035294965079891
0.0035100976142806
0.0034929776218455
0.0034752710930925
0.0034475128049152
0.0033922582685759
592.99773026198
551.04340213448
491.64809840819
420.64249017631
344.60545879931
270.53273654527
203.10714701383
145.95748595724
100.58244774944
66.645712287135
42.635899856381
26.435806500011
16.291009474837
9.9529333308021
6.0755424303641
3.7429329145375
2.3358731554523
1.4831942186772
0.96088718359622
0.63556880330531
0.42934464261311
0.29611510366106
0.2082545426999
0.14916133128881
0.10870603929712
0.080520541722816
0.060514925320545
0.046111768975756
0.035605909186691
0.027793726507336
0.021952912114942
0.017504436996875
0.014095516576335
0.011444141730508
0.0093695071621163
0.007727273638888
0.0064190614972608
0.00536684260525
0.0045161280594257
0.0038213657778887
0.0032527246613485
0.0027818875312065
0.0023921418955843
0.0020653018944365
0.0017920410127699
0.0015604566675744
0.0013648175250139
0.0011976261642682
0.0010549315818958
0.00093216197802937
0.00082637836553068
0.00073472503743688
0.0006550628566
0.00058570855416484
0.00052504586558089
0.00047184829505054
0.00042504036779045
0.00038375194479723
0.00034722825471251
0.0003148389360989
0.00028604241101909
0.00026038042749293
0.00023745890941884
0.00021694162374825
0.00019853937349457
0.00018201425432346
0.00016913269812308
0.0014974005279635
0.0074746126282523
0.0079728934916257
0.007774289448228
0.0075732090316962
0.0073890280331601
0.0072203012447796
0.0070641348618783
0.0069176806380677
0.0067782882559211
0.0066439227421866
0.006513261003517
0.0063856613063176
0.006261377771589
0.0061412430570393
0.006026520041297
0.0059182344670003
0.005828674353193
0.0057335929313731
0.0056452096072825
0.0055625889785456
0.0054846807993405
0.0054101258202317
0.005338044308322
0.0052675817839389
0.0051975876467019
0.0051266733632873
0.005053321468004
0.0049760266444341
0.0048936389908942
0.0048058109211722
0.0047133394205614
0.0046182275526208
0.0045234116214548
0.0044322042801974
0.0043476363224426
0.0042724900905642
0.0041922523504923
0.0041461494665174
0.0041151560438983
0.0040960134487051
0.0040826330432104
0.0040710573861216
0.0040590477676021
0.0040461006471435
0.0040320898560742
0.0040166298638846
0.0040026050671371
0.0039866494638527
0.0039691218829661
0.0039508688960843
0.0039319169478385
0.0039128906680146
0.0038938479294728
0.0038736868221958
0.0038521144918344
0.0038286652776465
0.0038027467695121
0.0037744388408805
0.0037441170925345
0.0037122311261768
0.0036795113682497
0.0036468080513092
0.0036147922490684
0.0035843329817118
0.0035561226524345
0.0035307492365473
0.0035085771190035
0.0034895507800761
0.0034729310141559
0.0034558503946098
0.0034287848779535
0.0033740713321713
587.73865346563
535.33392580347
464.4689701593
384.30526221383
303.85120361106
230.79513734181
169.14398344271
119.80029884629
82.214228442011
54.515180411259
35.615072670882
22.705264281975
14.259737838867
8.8908339697333
5.5350398503947
3.4619323785026
2.1887952992601
1.4061193645051
0.91956773637262
0.61240963052085
0.41595159783812
0.28823264599235
0.20346023699703
0.14617420161902
0.10680821910619
0.079269386326892
0.059691976816374
0.045557795809383
0.035215324723803
0.027532782491192
0.021753276053166
0.017368084118628
0.013989143247085
0.011369995845152
0.0093106520798973
0.007685064565127
0.0063851775501007
0.0053425695880724
0.0044958007489937
0.0038070148338623
0.0032402482329119
0.0027731413267322
0.002384178343855
0.0020597156169229
0.0017868849560274
0.0015566213905027
0.0013613681502632
0.0011948452294218
0.0010525951012401
0.00093013828211941
0.00082471533568462
0.00073331166061175
0.00065394308708799
0.00058470188708282
0.00052416644416609
0.0004710816533926
0.00042438108191056
0.00038318238359825
0.00034673324377599
0.00031440705361102
0.00028566548106201
0.00026005099941445
0.00023716927179063
0.00021668456975871
0.00019831312211133
0.00018181967372999
0.00016914854207584
0.0015590947619948
0.0075012076560275
0.0079740359768534
0.007774082255751
0.0075726194907624
0.0073882082620158
0.0072193351128238
0.0070630680661226
0.0069165489324741
0.0067771135848953
0.0066427394015984
0.0065120876583009
0.0063845307783645
0.0062603110979795
0.00614026241746
0.0060256288365461
0.0059174003017892
0.0058279931212861
0.0057328935849719
0.0056445935009275
0.0055620436460644
0.0054841932086325
0.005409680368097
0.0053376414026953
0.0052672210237383
0.0051972725859968
0.0051264113089855
0.0050531230118218
0.0049759043703559
0.0048936032389812
0.0048058640918647
0.0047134711438783
0.004618413386775
0.0045236161859421
0.0044323864326097
0.0043477666990805
0.0042725554405962
0.0041921186638771
0.0041457950885402
0.0041145874908295
0.0040952140200896
0.0040818057602121
0.0040701085718668
0.0040579251707897
0.0040445073452626
0.0040303436102134
0.0040139695245314
0.003999023046666
0.0039817425761646
0.0039629695849461
0.0039431344434921
0.0039224051719711
0.0039014760137988
0.0038802677027256
0.0038576513898514
0.0038334458914648
0.003806940016527
0.0037778252868914
0.0037462574884761
0.0037126314621383
0.0036775049322553
0.0036417609373116
0.0036064276709213
0.0035722670583249
0.0035401242166841
0.003510818960184
0.0034849911617885
0.0034629304435896
0.0034445640901581
0.0034289471730753
0.0034131063209917
0.0033875589323853
0.0033339302127626
576.06730078368
500.56377310701
408.25289276329
315.28971639438
236.99946469978
172.78087768241
123.95517965735
87.451821274201
60.570446195128
41.066526731291
27.78804355851
18.348203564372
11.898836766194
7.6368685307039
4.869591300168
3.1131817196253
2.0052779493511
1.3065113817813
0.86421342735196
0.58172769752134
0.39845492420098
0.27756499076167
0.19694542440051
0.14214972246936
0.10420446014599
0.07754895476388
0.058551848965265
0.044785358205762
0.034666832371024
0.027151056872214
0.021482192671369
0.017165933771289
0.013843339672032
0.011258982125452
0.0092294180033319
0.0076218465023805
0.0063385154883764
0.0053053040700071
0.0044679667088707
0.0037846796852221
0.003223084484423
0.0027591824426709
0.0023731728968992
0.0020508463090121
0.0017795485496783
0.0015507801584969
0.001356387379133
0.0011909059024684
0.0010491236192489
0.00092733800937683
0.00082227424193515
0.0007312850826674
0.00065223801296965
0.0005832518548754
0.00052292782719987
0.00047000187769586
0.00042344613942036
0.00038237006463193
0.00034603152870949
0.00031380011248383
0.00028513780470779
0.00025958871448389
0.00023676316942572
0.00021632892883272
0.00019800421440391
0.00018154246459023
0.00016920728700048
0.0016534505008354
0.0075339384816631
0.0079741876706461
0.0077730432297787
0.0075713962951793
0.0073868404406028
0.0072178416207249
0.0070614665058204
0.0069148722109587
0.0067753858675927
0.0066410025937214
0.0065103724966198
0.0063828785258444
0.006258754833016
0.0061388355374166
0.0060243433556768
0.005916245052318
0.0058270689289861
0.0057320619131151
0.0056438749575134
0.0055614250733993
0.0054836588110039
0.005409211981481
0.0053372376392957
0.0052668842017112
0.0051970094518459
0.0051262349053083
0.0050530520556284
0.004975959831145
0.0048938023213754
0.004806210841241
0.0047139506690792
0.0046189905040379
0.0045242392896079
0.0044329935606291
0.0043482950119098
0.004272925832056
0.0041923036175002
0.0041456829708579
0.0041141093307964
0.0040943924456482
0.0040807606544795
0.0040687771922241
0.0040563072165287
0.0040422689214672
0.0040273210276158
0.0040098637384505
0.0039934005234223
0.0039741782769633
0.0039532350085694
0.0039308709088814
0.0039073130340734
0.0038833374011029
0.0038585935985807
0.0038321582110505
0.0038036565739625
0.0037724827317791
0.0037383930599566
0.0037017165779465
0.0036629938284281
0.0036229799304881
0.0035827838824913
0.0035435912153412
0.0035063428940094
0.0034720081632504
0.003441437504627
0.0034152382727015
0.0033936286028802
0.0033764394624147
0.0033624800739169
0.0033486024776623
0.0033252965469956
0.0032733332782973
537.82418327612
408.10119294227
289.88714583375
204.18299168251
146.91631096383
106.4768812048
77.796508095828
56.677978905885
41.007758370251
29.342659495977
20.553584646168
14.104383335973
9.5045347216517
6.3153737206379
4.1591407211341
2.728288624642
1.7954786474253
1.1915273904897
0.79993433080249
0.54459091031124
0.37663158035411
0.26480691156205
0.18895453769474
0.13705073671689
0.10095613379405
0.075438349209621
0.057106986199402
0.043795810777271
0.033987517815283
0.026664355762271
0.021134987266966
0.016912015015261
0.013656533544343
0.011118062372231
0.0091244583163186
0.0075418419253936
0.0062772884031399
0.0052578982234968
0.0044315229512397
0.0037556766771809
0.0032005296579236
0.0027409430315906
0.0023588167853712
0.0020389520785695
0.0017700720240958
0.0015428834321729
0.001349949343164
0.001185520233311
0.0010446184627734
0.00092360436476091
0.00081907988996033
0.00072859867067021
0.00064992723915036
0.00058132568783353
0.00052128621316716
0.00046858351065215
0.00042221462326364
0.00038130211327225
0.00034510919468944
0.00031299982734684
0.00028444068731598
0.00025897952838277
0.00023623154540636
0.00021586656366857
0.00019760360691284
0.00018117672276691
0.00016935181963423
0.0017829343116744
0.0075721911256736
0.0079726808834519
0.0077707847842174
0.0075693565083967
0.0073848403950345
0.0072157817178642
0.007059316219558
0.0069126545613956
0.0067731162801716
0.0066387292775998
0.0065081288867206
0.0063807155531932
0.006256724072355
0.0061369784654128
0.0060226737057807
0.0059147640402499
0.0058258435319174
0.0057309962306991
0.0056429585641029
0.0055606414567233
0.0054829883381893
0.0054086310785328
0.005336746109655
0.0052664846862922
0.0051967123029473
0.0051260581624182
0.0050530205704216
0.0049761015169301
0.0048941392784916
0.0048067486932493
0.004714670187099
0.0046198454215947
0.0045251610467636
0.0044339030308524
0.0043491088329868
0.0042735620625476
0.0041927130542969
0.0041456945670757
0.004113638290087
0.0040934588009998
0.0040794912650619
0.0040671729237767
0.0040541861719328
0.0040393389775399
0.0040233582376439
0.0040043430024634
0.0039856542088197
0.0039637470962137
0.0039396871817265
0.0039137209959748
0.0038861254862361
0.0038576907907286
0.0038279711330751
0.0037960768884484
0.0037615036141185
0.0037238017980401
0.0036828471081076
0.0036392075241849
0.0035936689753855
0.0035472767279872
0.0035014344297999
0.0034575284424578
0.003416712980493
0.0033800233584469
0.0033482894863772
0.0033220498016928
0.0033014491765992
0.0032860767710088
0.0032745183013714
0.0032633930723776
0.0032430816981914
0.0031937327221272
303.77358535227
158.99901119257
111.83370406761
87.040185509271
68.984025757627
54.967624836698
43.459302203692
34.122341674032
26.210715537148
19.764390731527
14.527125853636
10.446454537195
7.3479323877
5.0711971201921
3.4546728349586
2.3357110217908
1.5763514411933
1.0676923546919
0.7290879323559
0.50338900956359
0.35205152528049
0.2496818518687
0.17980343907952
0.13122726326305
0.097128976865017
0.072888745008488
0.055423890985541
0.042625917718239
0.033163268790974
0.026081318470474
0.02071884843717
0.016606939005368
0.013430222566827
0.01095104666418
0.0089970714447571
0.0074454384630869
0.0062032932745715
0.0052011500718732
0.0043866331216842
0.0037207696265376
0.0031728137514353
0.0027188467994819
0.0023409248538273
0.0020244765670867
0.0017583563665993
0.0015331648405288
0.0013419695581017
0.001178830210471
0.0010391200563686
0.00091893921391772
0.00081514956593076
0.00072525990811667
0.00064708607829123
0.00057891756323558
0.00051922433911711
0.00046682240571072
0.00042069577065229
0.00037998900746761
0.00034396685053584
0.00031200322010072
0.00028357272640023
0.00025822455654523
0.00023557387078915
0.00021529339744986
0.00019709555087194
0.00018072335431424
0.0001694934993296
0.0019517465810062
0.0076144502344011
0.0079691845640251
0.0077671996750408
0.0075663991211652
0.0073821212425567
0.0072131031513725
0.0070565861901462
0.0069098680464372
0.0067702870565078
0.0066359024495615
0.0065053478084249
0.0063780420463289
0.0062542117092872
0.0061346786181655
0.0060206110849088
0.0059129471148389
0.0058243415263677
0.0057297051846485
0.0056418409197099
0.0055596815714694
0.0054821703572974
0.0054079261636455
0.0053361550920792
0.0052660100977506
0.0051963672208035
0.0051258654318218
0.0050530114993219
0.0049763107039285
0.0048945945460714
0.0048074580684685
0.0047156108186845
0.0046209608691672
0.0045263697363607
0.0044351297591032
0.0043502582658768
0.0042743839549895
0.0041933414265796
0.004145832802515
0.0041131726077839
0.0040924043832564
0.0040779758486955
0.004065175332568
0.0040515347286618
0.0040356574471478
0.0040182114249847
0.0039972047359325
0.0039755269567707
0.003950063535793
0.0039217767466098
0.0038909071509292
0.0038577735134986
0.003823170599742
0.0037868271482826
0.0037476694713094
0.0037050923129229
0.0036588713393539
0.0036090888086777
0.0035566845728758
0.0035027932103537
0.0034488107843673
0.0033965662921778
0.0033475915985666
0.0033031678590261
0.0032643472842637
0.003231925961968
0.0032063354281719
0.0031875382029654
0.0031748250883272
0.0031665173352444
0.0031589482817838
0.0031423741550032
0.0030962863864288
0.34859969087633
16.141773643963
24.385428308868
27.948411745165
28.512909439478
26.875236682049
23.853884160527
20.384268016758
16.88622944997
13.589229513903
10.636145405925
8.0903021399012
5.9916573207445
4.3311348142391
3.0700929248715
2.1472749890356
1.490020929467
1.0320379633593
0.71710054107452
0.50176113711752
0.35449574186592
0.25337865108509
0.18334819490451
0.13449144459071
0.099865637044614
0.075055500060704
0.057132812306861
0.044003585065601
0.034260400588246
0.026939372839418
0.021399911039971
0.017158511812115
0.013872325005643
0.011305840711777
0.0092859471057305
0.00768244636417
0.0063970546004453
0.005361166372476
0.0045197919074196
0.0038319481043367
0.0032655470702472
0.0027970225792227
0.002407048504802
0.0020806207593063
0.0018060231708266
0.0015739752515429
0.0013770406750009
0.001209044442016
0.001065204850851
0.00094154013404424
0.00083485341924849
0.00074246022038194
0.00066213411253746
0.00059210695805811
0.00053085296511424
0.00047712008588241
0.00042981988933888
0.00038807901458526
0.00035115732615093
0.00031841536963745
0.000289305276652
0.00026335793307586
0.00024017696065931
0.00021942207034203
0.00020080789227939
0.00018408552708615
0.00016960893422518
0.00080764605458605
0.0070980552481137
0.0079946083982132
0.0078142831323742
0.0076110293213638
0.0074231245278473
0.0072507106207587
0.0070913554556804
0.006942414258893
0.0068012320003326
0.0066657021453196
0.0065343264453008
0.0064063303862651
0.0062817619508526
0.0061612815641721
0.0060460287049513
0.0059369960494937
0.0058225335293653
0.0057281639843261
0.0056405210298491
0.0055585466196548
0.0054811972756874
0.0054070894103264
0.0053354565891397
0.0052654526008413
0.0051959661764771
0.0051256482589681
0.005053015926648
0.004976577595841
0.0048951578788488
0.0048083289699921
0.0047167635437766
0.0046223315759377
0.0045278668518591
0.0044366303358179
0.0043517638635846
0.0042759758027846
0.0041948842659187
0.0041465393568685
0.0041127814888329
0.0040909145506265
0.0040755585699113
0.0040618293451924
0.0040468575603225
0.0040289829427953
0.0040085702043866
0.0039836342339712
0.0039560690487888
0.0039235203069892
0.0038866173716059
0.0038457068719431
0.0038013880993997
0.0037546816869287
0.0037053392568012
0.0036517978956758
0.0035936957372174
0.0035313312394396
0.0034654019251408
0.0033974468260465
0.0033293585771683
0.0032632588531605
0.0032012981512639
0.0031451848047126
0.003096241532528
0.0030554910934084
0.003023518287619
0.0030004661908536
0.0029859239552026
0.0029786452714549
0.0029764570839343
0.002975394269545
0.0029653627835144
0.0029254487158066
0.068822726486392
0.4948923412828
1.5773631192351
2.9408241628138
4.2654942199269
5.277645893667
5.8535355207901
5.9999942027273
5.673942284374
5.1292963784051
4.4536009187928
3.7171631027918
2.9948691237912
2.3372994737022
1.7755312830423
1.3214960348404
0.96942159027929
0.70493137136764
0.51100338982463
0.37095290011635
0.27054015284627
0.19872200919544
0.1472365322129
0.11012898220316
0.083229363419194
0.063580994065119
0.049055460372589
0.038197903035988
0.030045934337172
0.023855268818642
0.01911090274944
0.015428680664712
0.01255730256419
0.010297288569133
0.0085044618632475
0.0070681980689584
0.0059123658386153
0.004975245013878
0.0042103638527964
0.0035812621440674
0.0030615232954321
0.0026297417881462
0.0022691026203012
0.0019661078571662
0.0017104381760134
0.0014938308113068
0.0013094422800429
0.001151799052477
0.0010164381053135
0.0008998857237289
0.00079910317561915
0.00071165483172719
0.0006354978243307
0.000568977188384
0.00051072150264975
0.00045953646738395
0.00041443919588302
0.0003745795564648
0.00033926588615835
0.0003079069893614
0.00027999406844131
0.00025509301730819
0.00023282802424279
0.0002128755857127
0.00019495955244081
0.00017883215312353
0.00017162107934537
0.0027344796594728
0.0077487643853682
0.0079488830579399
0.0077502296885603
0.0075522141217865
0.0073694250204324
0.0072010258993473
0.0070446622238536
0.0068979273549483
0.0067583200801771
0.0066240142231213
0.006493714107251
0.0063668927061369
0.006243741058702
0.0061251097045294
0.0060120528046723
0.0059054325315686
0.0058179961368805
0.0057242878546719
0.0056372057788114
0.0055557112800184
0.0054787741937039
0.0054050037257503
0.0053337237640567
0.0052640803366319
0.0051949886006943
0.0051251312867444
0.0050530504902444
0.0049772680228994
0.0048965922712483
0.0048105407897538
0.0047196990680947
0.0046258340987553
0.0045316927064714
0.0044404919135004
0.0043554211896388
0.0042790783750859
0.0041975007814381
0.0041479174926995
0.0041123559667395
0.0040886137866241
0.004071575099877
0.0040561779152968
0.0040387458644215
0.0040171199843877
0.0039907683121798
0.0039577841624203
0.0039183718839899
0.0038709625184321
0.0038158010196478
0.0037536244338336
0.0036859719532423
0.0036141224350796
0.0035375515940437
0.0034555380628358
0.0033685424305776
0.0032779076041374
0.0031858157389473
0.0030950142120885
0.0030083656217095
0.0029285799341221
0.0028576087028411
0.0027969137997597
0.0027473855238878
0.002709540183859
0.0026833991097863
0.0026684600628881
0.0026635695509087
0.0026670174490133
0.0026756857077588
0.0026848598027711
0.0026860942642402
0.0026573716101994
0.043423226094792
0.095442145976004
0.24960599682447
0.53372176797144
0.89890187527224
1.2836791409516
1.6317757099095
1.893066103297
2.0403913849247
2.056949550053
1.9749617961305
1.8010432060963
1.5752548706636
1.327498202592
1.0808096376091
0.85635870526677
0.66428154132853
0.50757105597426
0.38406589112581
0.28921313055935
0.21766021061677
0.16421426895682
0.12448244404717
0.094956629024724
0.072957430370018
0.056507248201364
0.044130266425134
0.034752986496523
0.027598039867169
0.022085136251146
0.017808080505849
0.014470427018292
0.011842945837636
0.0097612883586002
0.0080943985665543
0.0067535993495738
0.0056688933378579
0.0047855392624878
0.0040605008131487
0.0034621555338623
0.0029665453979277
0.0025534737131809
0.002207306079238
0.0019156023115476
0.0016691335853873
0.0014597649393646
0.0012812222265014
0.00112822500117
0.00099671077292107
0.00088328109778724
0.00078507939472849
0.00069974905837955
0.00062533783562924
0.00056030557954545
0.00050328000798339
0.00045313500471766
0.00040890568790086
0.00036978613457128
0.00033511122913898
0.0003042923009321
0.00027683659168254
0.00025232222598881
0.00023038657903285
0.00021072241819803
0.00019305591931845
0.00017712077525267
0.00017821775770238
0.0035148891063175
0.0078455476104731
0.0079349919483103
0.0077353614747486
0.0075388839812209
0.0073572444751973
0.0071894922666615
0.0070334677981201
0.0068868443536374
0.0067473334346535
0.0066131690765316
0.006483150066471
0.0063567880616597
0.0062342770493768
0.006116479372928
0.0060043530899803
0.0058986935203724
0.0058122317353284
0.0057193613526541
0.0056329843709437
0.0055520961691813
0.0054756860977137
0.0054023479427792
0.0053315224967641
0.0052623432863748
0.0051937570391163
0.0051244856584367
0.0050531044875073
0.0049781552101513
0.0048984269046308
0.0048133703069984
0.0047234684360051
0.00463036011744
0.0045366834072387
0.0044455843878075
0.0043603006693478
0.0042834010790838
0.0042010695467054
0.0041499827821563
0.0041122873073873
0.0040862376603397
0.0040670362574136
0.004049429583953
0.004028687917246
0.0040018032245119
0.003966796955605
0.0039214218222621
0.0038640741536407
0.0037933074148924
0.0037094020426094
0.0036140391807826
0.0035105244925495
0.0034013841121967
0.0032878409727992
0.0031700182588676
0.0030503307678134
0.0029316381562523
0.00281743743319
0.0027111896093985
0.0026157650625973
0.0025328269968472
0.0024633255032172
0.0024076059285891
0.0023657058072657
0.0023374237668792
0.0023221413528021
0.0023185929656109
0.002325459004165
0.0023396298581968
0.0023593962919917
0.0023786063081059
0.0023899042540168
0.0023722547939955
0.027624969976157
0.047833584618867
0.076709683374409
0.15348505458308
0.27010339729552
0.41172726849152
0.56342066958275
0.70385543305974
0.82074398901851
0.89233063957207
0.91635364073762
0.89350516452284
0.84050816793139
0.75250891837065
0.65053017577515
0.54522528071602
0.44542896404776
0.35662210187717
0.28138405626021
0.21990108057668
0.17092812312712
0.13262647464825
0.10300176985027
0.080235630096171
0.062779281835406
0.049388320522564
0.039097723674839
0.031155256173053
0.024991760952783
0.020183415137788
0.016409667979951
0.013429207524577
0.011057963089381
0.0091608686985105
0.0076351929290936
0.0064001879376998
0.0053944742434262
0.0045685835421532
0.0038883811219756
0.0033255968588333
0.0028571888981195
0.0024652672065861
0.002135276645977
0.0018569922013514
0.001621006854833
0.0014201363638557
0.0012482214205427
0.0011006535304275
0.00097364036275449
0.00086385027689739
0.00076864697591006
0.00068574866462079
0.00061340489724337
0.00055009540794015
0.00049451833505054
0.00044558367082415
0.00040236112688807
0.00036411081731735
0.00033017575482536
0.00029999282363125
0.00027308129676878
0.00024902485790446
0.00022747872477918
0.00020814939729913
0.00019077675334195
0.00017513794308122
0.00019472059877507
0.0044502090042535
0.0079256646950641
0.0079203172546269
0.0077177144835807
0.0075225889379604
0.007342150508415
0.0071751562460025
0.0070195929542485
0.0068731763819168
0.0067338300129887
0.0065998972008612
0.0064702517317077
0.006344452800799
0.0062227875071712
0.0061060275990572
0.0059950500724462
0.0058905644425784
0.0058052445258778
0.0057133856294906
0.005627853038737
0.0055476931257443
0.0054719084485004
0.0053991023971303
0.0053288333885768
0.0052602239535884
0.0051922555599055
0.0051236959845071
0.0050531702762091
0.0049792374420436
0.0049006646340999
0.0048168280481948
0.0047280861333843
0.0046359507777403
0.0045429130838266
0.0044520321012327
0.0043665160517674
0.0042890870485337
0.0042059984138345
0.0041532839503355
0.0041132487867845
0.0040845527188034
0.004062752450904
0.0040422693358149
0.0040173164871122
0.0039832883075988
0.0039362224293216
0.0038723509016256
0.0037882438210068
0.0036818248286006
0.0035541934350238
0.0034105002717535
0.0032584156129101
0.0031042259991594
0.0029511777203011
0.0028012822805352
0.0026580766505075
0.0025248871064503
0.0024048419717666
0.0023000784162877