/*--------------------------------*- C++ -*----------------------------------*\
| =========                 |                                                 |
| \\      /  F ield         | OpenFOAM: The Open Source CFD Toolbox           |
|  \\    /   O peration     | Version:  2312                                  |
|   \\  /    A nd           | Website:  www.openfoam.com                      |
|    \\/     M anipulation  |                                                 |
\*---------------------------------------------------------------------------*/
FoamFile
{
    version     2.0;
    format      ascii;
    arch        "LSB;label=32;scalar=64";
    class       volScalarField;
    location    "0.00019";
    object      T;
}
// * * * * * * * * * * * * * * * * * * * * * * * * * * * * * * * * * * * * * //

dimensions      [0 0 0 1 0 0 0];

internalField   nonuniform List<scalar> 
109340
(
372.99990992063
372.99864665856
372.99643051535
372.99360697763
372.99058553384
372.987561331
372.98460654402
372.98175737642
372.97897502803
372.97618087355
372.97338146196
372.97057981581
372.96777283978
372.96495289251
372.96210949545
372.95922925873
372.95629509263
372.95328570274
372.95017417661
372.94692681666
372.94350161906
372.93984731495
372.93590040598
372.93158035964
372.92678413462
372.92137790954
372.91518561951
372.90797202364
372.89941632905
372.8890697417
372.87628353788
372.86008032572
372.8389117425
372.81018436765
372.76924990753
372.7073570548
372.99970796668
372.99803116486
372.99547455402
372.99259450089
372.98963910034
372.98670488239
372.98381256017
372.98095191012
372.97811752555
372.97529768098
372.97248463552
372.96967369461
372.96685836922
372.96402977495
372.96117632093
372.95828370799
372.95533437573
372.95230571506
372.94916913031
372.94588905911
372.94242157722
372.93871278617
372.93469570451
372.93028503365
372.9253711394
372.91981108314
372.91341613203
372.90593293258
372.89701394815
372.88616935492
372.8726840982
372.85546540109
372.83274491177
372.80147211273
372.75589390455
372.68456369129
372.99974754091
372.99776469935
372.99511073457
372.99227970527
372.98938001422
372.98646511736
372.98354735937
372.98064400999
372.97776846725
372.97491786921
372.97208356582
372.96925819967
372.96643372909
372.96360055621
372.9607470855
372.95785912149
372.95491914946
372.95190479809
372.9487876332
372.94553250058
372.94209545073
372.93842311188
372.93444904052
372.93008807034
372.92523052912
372.91973323829
372.91340741717
372.90599963845
372.89716225192
372.88640511734
372.87301232836
372.85588679901
372.83323307229
372.80188468985
372.75561787641
372.68077196787
372.99970851531
372.99740703803
372.99462109692
372.99169732461
372.9887331737
372.98575562161
372.98278104557
372.97982473041
372.97689861604
372.97400685902
372.97114570979
372.96830866934
372.96548729354
372.96267213764
372.95985349236
372.95701768848
372.95414801614
372.95122282435
372.94821428298
372.94508872061
372.94180261647
372.93830275031
372.93452169793
372.93037300306
372.92574498887
372.92049213292
372.91442270949
372.90727964884
372.8987106282
372.8882187309
372.87507757934
372.85817260837
372.83564998164
372.80415242544
372.75667702649
372.67541371584
372.99949488025
372.99643815676
372.99302006251
372.98967546945
372.9864089502
372.98321789362
372.98011381678
372.9771248101
372.97427060722
372.9715460378
372.96895427965
372.96649489456
372.96416047079
372.96194220575
372.95983034072
372.95781260403
372.9558735277
372.95399293174
372.95214061633
372.95028612409
372.94835130235
372.94625953859
372.94392557575
372.94124636365
372.93809498867
372.93430686236
372.92966726355
372.92388989329
372.91658208877
372.907190591
372.89490430938
372.87849230418
372.85586644965
372.82317538375
372.77183974132
372.67543430356
373.00336036389
373.01757879562
373.03288956794
373.04808482192
373.06273282032
373.07659627765
373.0895480933
373.10153404165
373.11254356439
373.12258573596
373.13168363707
373.13986393514
373.14715263856
373.15357354258
373.15914542919
373.16388132115
373.16778824056
373.17087032099
373.17317785833
373.17482775875
373.17581064122
373.17607448428
373.17554175897
373.17408865632
373.17159160563
373.16783149167
373.16252036067
373.15526271907
373.14550323946
373.13244486305
373.11489897201
373.09105834724
373.05779368841
373.00925762517
372.93190120538
372.77562085448
372.60913907997
372.45435798627
372.21744833126
371.87853766006
371.42751415927
370.85334086809
370.14142917732
369.27895364603
368.2551059516
367.0642985498
365.7034412943
364.19359118788
362.57246379503
360.86982853361
359.12512002799
357.37282516986
355.64244975518
353.95574102643
352.32699538927
350.76567162856
349.27712606236
347.86183288081
346.5187326356
345.24564863272
344.03911878563
342.89460877186
341.80646059704
340.77750153597
339.7950541738
338.85939371333
337.97142850392
337.11750905028
336.30867098289
335.52691291995
334.78541061397
334.06640535586
333.38317650438
332.71893735187
332.08644706948
331.47041321195
330.88221339347
330.30933873742
329.75950343326
329.22549745151
328.70897069643
328.20953376882
327.72280134644
327.25350641391
326.79462727661
326.35143864623
325.91885509823
325.49846374667
325.08920098614
324.69060153763
324.30204075665
323.92310654354
323.55332086183
323.19232250197
322.83973085686
322.49519576913
322.15836406966
321.82891925473
321.50657000307
321.19105106827
320.8821124744
320.57944522113
320.26996428769
321.92399548979
321.76901543935
320.81851522544
319.88373621218
318.98427645684
318.12269957865
317.29914672713
316.51177009935
315.7567686589
315.02952136734
314.32578121107
313.64229900203
312.97711079932
312.32976003393
311.70134346794
311.09428034748
310.51171144378
309.88828327913
309.36590669325
308.87201992846
308.40335691722
307.95434949453
307.51742792806
307.0834198649
306.64222582244
306.18244845143
305.69221733301
305.16060127756
304.57948949482
303.9454618984
303.26050909808
302.53068718322
301.76316595406
300.96310779288
300.13244479948
299.27175218129
298.38554067458
297.26766151886
296.43174268224
295.73698268983
295.23693454346
294.90833095938
294.68205187351
294.49541125451
294.31287661581
294.11834059434
293.90421875115
293.66815855783
293.40880629933
293.12572944448
292.81892251545
292.4878459728
292.13149747114
291.74835189116
291.33702305729
290.89789848801
290.43303977756
289.94660313686
289.44491853141
288.93608322456
288.42877311847
287.93197924127
287.4544459307
287.00474798187
286.59070342026
286.22020146815
285.90310800222
285.65655130048
285.50186325293
285.47891366026
285.7128411706
286.51700239527
288.72777246962
372.56585029048
372.37288628266
372.07898544738
371.67137476629
371.14417090599
370.48833345049
369.69432810897
368.75564833847
367.66742796158
366.42937656839
365.0457881311
363.53247548466
361.92192735954
360.24386983791
358.52899712907
356.80867474032
355.10997580662
353.45367119607
351.85438373579
350.32098053972
348.85807837532
347.4669372569
346.14645844487
344.89406216645
343.70674856704
342.58036932319
341.51077647225
340.49425316011
339.52747621728
338.60605739617
337.72772252671
336.88861468726
336.08644848189
335.31827132132
334.58195289272
333.87524515391
333.19621317034
332.54305065148
331.91412725745
331.30781703006
330.72294012515
330.15790763752
329.61190759418
329.08338516211
328.57188524754
328.07590365043
327.59514380697
327.1282747683
326.67503162735
326.23430155181
325.80579735596
325.38866985693
324.98247026416
324.58675274357
324.20094426276
323.82463571323
323.45737210359
323.09878215726
322.74847778621
322.40612019591
322.07137347058
321.74393278714
321.42350352322
321.10981462189
320.80259930854
320.50167238679
320.21072339954
322.22830245037
321.52812638551
320.5756940576
319.64934312977
318.75946462709
317.90776076875
317.09383678674
316.3152535418
315.56788103803
314.84712184833
314.14896080779
313.47045295416
312.810006907
312.16756630287
311.54459502545
310.94375692852
310.36822076657
309.88720059065
309.3650991305
308.87143634891
308.40297362435
307.95414914111
307.51740196796
307.08357275583
306.64257592245
306.18302850152
305.69307065127
305.16177484872
304.58102427356
303.94738422605
303.26282898429
302.53340651675
301.76629322926
300.96667158286
300.13649502264
299.27634329989
298.39068654545
297.2733277774
296.43717665216
295.74117031248
295.23922086694
294.90876157404
294.68095537729
294.49295867055
294.30892937603
294.11259829528
293.8962211294
293.65738278249
293.39464544079
293.10757999427
292.79619546728
292.46001545964
292.09811986644
291.70907987597
291.29171627099
290.84673083663
290.37654197655
289.88571808838
289.38100254543
288.87064444542
288.36341614242
287.86828275736
287.3938468514
286.94837068801
286.53927302015
286.17409752473
285.8624114486
285.62117480759
285.47058509071
285.45263101184
285.6921454961
286.50345606195
288.72480334275
372.54633313791
372.31181156178
371.95328494945
371.46590636255
370.85178814883
370.11131966177
369.24680535169
368.25608788623
367.13799340622
365.8919850724
364.52676155454
363.05426466214
361.49067630307
359.86258289079
358.19859683508
356.5253542193
354.86890390484
353.2497362053
351.68209214858
350.17485159109
348.73332608566
347.3598326538
346.05380314961
344.81323967055
343.63537672062
342.51687072419
341.45440467777
340.44392159651
339.48199372312
338.56527648638
337.6903217806
336.85476127144
336.05521737234
335.28976016356
334.55551823187
333.85093898023
333.17358765167
332.52217879012
331.89455405716
331.28975806635
330.70588107905
330.14217072521
329.5969262521
329.06956987172
328.55868010563
328.06365077106
327.58343914854
327.1173148963
326.66463123375
326.22450083179
325.79654015403
325.37991728809
324.97423507431
324.57887784182
324.19345673002
323.81750407079
323.45059438698
323.09232877387
322.74232986282
322.40025734237
322.06578143126
321.73859542338
321.41840454303
321.10493078999
320.7979080006
320.49716084055
320.20979220726
322.23085101131
321.51804745407
320.56593858158
319.63988162318
318.75037242595
317.89915894794
317.08573851874
316.30759987826
315.56062396818
314.84024903402
314.14248456979
313.46440262303
312.80442841749
312.16251659917
311.54013219205
310.93992710209
310.36504660016
309.88489003616
309.3633404916
308.87016794813
308.40214335249
307.95371801436
307.5173515209
307.08391167532
306.64334560344
306.18430088291
305.69494120994
305.16434716877
304.584389024
303.95160034423
303.26791994761
302.53937826024
301.77316635336
300.97451129923
300.14541483285
299.28646913881
298.4020587369
297.28590793794
296.44930371225
295.75058340016
295.24444135412
294.90985415046
294.6786436699
294.48765107345
294.30032322841
294.10003316679
293.87867593739
293.63372714218
293.36347899432
293.06761325935
292.74614293237
292.39876350783
292.02473977832
291.62286666935
291.19245916309
290.73496665057
290.25360775641
289.7538870896
289.24334714594
288.73056009016
288.22444799515
287.73385508755
287.26699435693
286.83135004989
286.43346842281
286.08011467107
285.78019538966
285.55018777268
285.40840626158
285.40090434802
285.6520204824
286.47820656843
288.72146461256
372.50710753631
372.17743820223
371.68018248286
371.04007791356
370.28822130116
369.43214027452
368.48698227524
367.45354329211
366.32635725679
365.10353245666
363.79166187048
362.38852566493
360.90250620588
359.35188351789
357.75975368946
356.15187679122
354.55182983291
352.9805188126
351.45317675875
349.98006920119
348.56711898632
347.21648598211
345.92963854993
344.70516089461
343.54050408231
342.43291378281
341.37941818378
340.37686626045
339.42158369123
338.51069342997
337.64091171661
336.80952039724
336.01400526936
335.25175354411
334.52069672036
333.81862090478
333.14385094554
332.4944029414
331.86890598781
331.26571830977
330.68356576909
330.12116223124
329.57732875819
329.05110044286
328.5413056728
328.04729645783
327.56794464791
327.10276055197
326.65073683711
326.21143092771
325.78405640643
325.36812033616
324.96302269428
324.56822536196
324.18331192001
323.80782028884
323.44135485279
323.08350537842
322.73390906806
322.39221437754
322.05809135709
321.73123286698
321.41135201647
321.09815684482
320.79141641657
320.49089272027
320.20954317992
322.2342014935
321.50319923211
320.55173840715
319.62620939645
318.73727969917
317.88677682724
317.07407385661
316.29657041037
315.55016309773
314.83033906545
314.1331436264
313.45567426261
312.79637997727
312.15523118967
311.53369359815
310.93440098987
310.36046360364
309.88141533241
309.36068115368
308.86824821991
308.40088585661
307.95306318154
307.51727159419
307.08442093921
306.64450588985
306.18622141891
305.69776679976
305.16823522206
304.58947778547
303.95798043234
303.27562832991
302.54842492072
301.78358279926
300.98639668047
300.15894291673
299.30183601786
298.41933200007
297.30509367442
296.46789728182
295.76515868673
295.25269200523
294.91178979195
294.675376603
294.47979275905
294.2874860139
294.08114278444
293.85220008489
293.59785337284
293.31615419187
293.00685474196
292.67010369853
292.30583137564
291.91359504816
291.4926438799
291.0432103862
290.56788931844
290.07123147915
289.56015572668
289.04316976648
288.52927936774
288.02745956813
287.54617494419
287.09282790009
286.67351180999
286.29345328319
285.95818546359
285.67563188525
285.46117567051
285.33214907359
285.33890883469
285.60569259417
286.45218721983
288.72469341019
372.40220990429
371.79698386215
370.99612132837
370.11853039862
369.21856538294
368.28955513031
367.32631962496
366.31471129713
365.23857259587
364.09345725111
362.8668990433
361.55774499238
360.16948110455
358.71476441218
357.21318211435
355.68670177156
354.15745035438
352.64616021822
351.16906653154
349.73763672743
348.35923109701
347.0383134381
345.77511104367
344.57031817748
343.42247674222
342.32908794159
341.28717600587
340.29430291678
339.3476209924
338.44384922653
337.5803324394
336.75433436398
335.96353032887
335.20539918903
334.4780341903
333.77924428797
333.10735551524
332.46055066281
331.83742971693
331.23633263067
330.6561505419
330.0954405818
329.55326633038
329.02838674025
328.52000898685
328.02712573046
327.54895748399
327.08474060438
326.63369139346
326.19526808047
325.76868592598
325.35351695981
324.94910093125
324.55501395247
324.17071411343
323.79579300432
323.4298560495
323.07251470688
322.72340350272
322.38216120385
322.04846246537
321.72200343756
321.4024981802
321.0896516226
320.78325968262
320.48307405188
320.20986204189
322.23692499646
321.48364845699
320.53310244143
319.60838119245
318.72026751433
317.87069263244
317.05890835677
316.28222162012
315.53654845211
314.81743601993
314.12097642753
313.44430179636
312.78589186447
312.14573705663
311.5253026707
310.92719772954
310.35448583173
309.87678831786
309.35713284014
308.8656825364
308.39920101066
307.95217950875
307.51715233087
307.08508564946
306.64603663402
306.18876414931
305.70151522882
305.1734003117
304.59624562168
303.9664740025
303.28589884221
302.56048659185
301.79747726582
301.00225483136
300.17699565629
299.32234556888
298.44238631877
297.33083643517
296.49299786268
295.78508692745
295.26427246929
294.91490210773
294.67145881311
294.46969202754
294.2707011786
294.05622821932
293.81706396994
293.54998847052
293.25284477834
292.92551446103
292.56838258257
292.18176417521
291.76571986383
291.32028633291
290.84706278488
290.3503648503
289.83669742523
289.31462851253
288.7938052251
288.28341688262
287.79222585571
287.32783393493
286.89606666326
286.5009385637
286.14584985559
285.83462590654
285.57405417427
285.37714230574
285.264065
285.28651839379
285.57050147476
286.43966169924
288.74421822162
371.79369070292
370.24970073257
369.19579676424
368.32082825423
367.48284948377
366.64706340541
365.78877988341
364.89175371586
363.93371083233
362.90262636468
361.79013400948
360.59537733978
359.32026192937
357.97415446797
356.57360441392
355.13894980465
353.69083037376
352.24914539812
350.83095343838
349.44871403236
348.11142568925
346.824195385
345.59013068186
344.40915530947
343.28095216797
342.20425359576
341.17689902278
340.19594825793
339.25939653665
338.36449120241
337.50861795233
336.68913249782
335.90396285647
335.15094552892
334.42787951445
333.73303251507
333.0645783879
332.42093352742
331.80048102437
331.20195896988
330.62398480839
330.06534616444
329.52496662331
329.00180493312
328.4949740864
328.0034715491
327.52661943243
327.06356161661
326.61367851734
326.17621920954
325.7506079738
325.33629522082
324.9327116636
324.53939862958
324.15581427475
323.78157742852
323.41626624351
323.05951595659
322.71095091266
322.37022737061
322.03702529793
321.7110357437
321.39195612244
321.07953845897
320.77356892496
320.47378372097
320.20975038484
322.23655227172
321.45939151554
320.51006944422
319.58647293949
318.69942969119
317.85099402549
317.04031680433
316.26461773594
315.51983686485
314.80159018694
314.10602706029
313.43032424853
312.77299946471
312.13406603496
311.51498717426
310.91834039646
310.34713086791
309.87102202396
309.35270428256
308.8624737725
308.39708616449
307.95105958425
307.51698170361
307.08588909661
306.64791633438
306.19190236343
305.7061542345
305.17980469516
304.60464987425
303.97703456547
303.29868222331
302.57551139814
301.81479412314
301.02202395336
300.19950149472
299.34791225614
298.47110339512
297.36314645373
296.52468919514
295.81064302288
295.27960515976
294.91963203483
294.66729025613
294.45772083544
294.25033830842
294.02561013819
293.77352682321
293.49031265412
293.17369830519
292.82377850776
292.44136753327
292.02740111038
291.58274733099
291.10876252989
290.60895672648
290.09013227787
289.56119704342
289.03259933575
288.51497026966
288.01698558568
287.54672365046
287.11013144744
286.71028896862
286.34832586566
286.02544156346
285.74318231374
285.50667378257
285.32837583246
285.2310789137
285.26778001475
285.56743407039
286.45782659105
288.79109161082
362.9798816808
366.58893287442
366.33215217391
365.91396859441
365.42813690223
364.85610277456
364.20473236336
363.47872506149
362.68218849242
361.81067468572
360.8541894275
359.80907775358
358.67785721146
357.466421536
356.18774309033
354.86018300563
353.50362534908
352.13747582404
350.77958426547
349.44477389666
348.14387818618
346.88447130981
345.67072352994
344.50536453519
343.38840732528
342.31895000962
341.29649102529
340.31893579269
339.3842235218
338.48964146
337.63345757824
336.81326935301
336.02672168538
335.27185914007
334.54688385856
333.84995855507
333.17918751746
332.53321178545
331.91045248771
331.30957708719
330.72918041302
330.16824614739
329.62559210109
329.10020991959
328.59113741624
328.09754204221
327.61863379974
327.15358050933
326.70173615784
326.26239702205
325.83500390459
325.41893270344
325.01364921039
324.61867942745
324.23354159525
323.85781169417
323.4910308771
323.13284581076
322.78289788835
322.44084742548
322.10636072395
321.77913241569
321.45888648637
321.14532645896
320.83817731577
320.53726719143
320.22783694234
322.09241219498
321.6664911789
320.71817738175
319.78788428949
318.89268892905
318.03593773117
317.21732362083
316.43440883846
315.68337580145
314.95990131174
314.26001489044
313.58065832683
312.92004139345
312.27782984297
311.65514641732
311.05431033488
310.47824162693
309.86412972194
309.34740396036
308.85862404051
308.3945374707
307.94969400799
307.51674506695
307.08681143515
306.65011975737
306.19560504391
305.71164676884
305.18740542594
304.61464245551
303.98961026446
303.31392407836
302.59344263787
301.83547291223
301.04563871691
300.226387499
299.37845243392
298.50536041306
297.4230384444
296.58359661771
295.85902443692
295.30969691985
294.93022087197
294.66125871958
294.43716789766
294.21421988586
293.97040669639
293.6942329682
293.38087695683
293.02811507587
292.6367124103
292.20855699833
291.74612699254
291.25235529917
290.73157229414
290.1913577844
289.6435792248
289.1013236355
288.57798613589
288.0844854974
287.62695066953
287.21125678599
286.83844943177
286.50615887899
286.21052427163
285.94645136124
285.71255110603
285.51226408401
285.35881295791
285.27959914858
285.33089427525
285.64701483311
286.56123031101
288.92235089695
353.86022734134
359.05431423451
359.88515699784
360.27802637317
360.44355605701
360.42085905149
360.21700395779
359.85790059557
359.3671644974
358.76139550083
358.04877196498
357.23997309875
356.33777931955
355.34545482274
354.27401050782
353.14006664399
351.96180641761
350.75771639804
349.5447098654
348.33807112372
347.15011944043
345.98954879255
344.86219869722
343.77176356073
342.72044584555
341.70898734438
340.73720507667
339.80370648393
338.90800857531
338.04838438879
337.22316995875
336.43024292768
335.66826821145
334.93562579182
334.23063323572
333.55153764898
332.89712381232
332.26600390763
331.65682835856
331.06823503492
330.49920616741
329.94868935577
329.41567409098
328.89914839312
328.3983043369
327.91237052768
327.44056296347
326.98215939275
326.53647370244
326.10296909615
325.6810102523
325.27006685326
324.86960427601
324.47917380603
324.09835199268
323.72669298429
323.36380769706
323.00929438758
322.66282462078
322.32406983847
321.9927141275
321.66847759502
321.35107567146
321.04029646077
320.73581925818
320.43738457345
320.24044510479
322.21582554192
321.36189365871
320.41595034758
319.49724311066
318.61492897019
317.77112631124
316.96479228892
316.19298417281
315.45175167803
314.73696018635
314.04499234304
313.37322209226
312.72031884762
312.08637599733
311.47283415276
310.8821314804
310.31703041303
309.84703684516
309.33422543676
308.8490084598
308.38811656212
307.94617847639
307.51600184731
307.08891657816
306.65537688584
306.20455596843
305.72501601549
305.20599151817
304.6391647093
304.02056225537
303.35152721379
302.63775872966
301.88663595389
301.10409101428
300.29294378509
299.45409669004
298.5905699743
297.52454292719
296.68567037631
295.94620607852
295.36808134025
294.95573685509
294.65761266619
294.40792673
294.15784344131
293.88032802461
293.56121980605
293.19443760468
292.77900385987
292.31807276234
291.81723344749
291.28395796435
290.72682425158
290.15728505579
289.59268852765
289.05315505475
288.55664543846
288.11590704344
287.7368938825
287.41850184234
287.15390085965
286.93194913775
286.73677682642
286.55572479604
286.37786626852
286.19883124251
286.02351354727
285.87289709187
285.77401113592
285.80074027868
286.09266277981
286.98714816747
289.2929667759
349.47405775628
354.04323679441
355.07689166007
355.72654707383
356.15393417157
356.41993362901
356.51848435067
356.47141554064
356.26838627244
355.92684792521
355.46748262472
354.89559111726
354.21434766732
353.43588657023
352.57078831486
351.63137800138
350.63250586247
349.59104854496
348.5232789679
347.44389683002
346.36601963818
345.30066947924
344.25545955309
343.23585906772
342.24539705615
341.28643804992
340.36000061856
339.46616712057
338.60476976077
337.7747845258
336.97506505126
336.20500126989
335.4631393765
334.74829656961
334.05879816787
333.39358416881
332.75158787558
332.13152865851
331.53214442508
330.95233151627
330.39130995559
329.84799785114
329.32145890085
328.81078313571
328.31532572051
327.83427694395
327.36693262302
326.91257713308
326.47064592614
326.04057776883
325.62180403828
325.2137845622
324.81602640347
324.428134331
324.04965674818
323.68019245245
323.31933866294
322.96673959338
322.62207133535
322.28499802973
321.95521690184
321.63244587192
321.3164708565
321.00699941657
320.70378253977
320.40620724956
320.35217764631
322.16906670668
321.27838099855
320.33404034337
319.41921650412
318.54112914034
317.70137448119
316.8987294483
316.1302225925
315.39202161373
314.68019958866
313.99134521661
313.32301281926
312.67400033829
312.04445720906
311.43578789537
310.85029674913
310.29053002286
309.825661669
309.31767680865
308.83684590408
308.37988331505
307.94151796866
307.51475223193
307.09117576579
306.66152521072
306.21527193099
305.74121191237
305.22868305106
304.66928166406
304.05875954497
303.39811178023
302.69281475995
301.95030529639
301.17687488542
300.37581823807
299.5482914197
298.69684556649
297.65010424002
296.81452721823
296.06120685671
295.45155760856
294.99968837953
294.66434281236
294.38143364091
294.09661948105
293.77647521778
293.40324569418
292.97019682319
292.48096033967
291.94508778701
291.37790921465
290.7965603578
290.21835039122
289.66581623973
289.16748654495
288.74877299204
288.42443764925
288.19498319265
288.04902126347
287.96658136943
287.92198769105
287.88777014384
287.83943215445
287.75781505053
287.62919276886
287.45189706623
287.24876887377
287.03847789409
286.8497923457
286.76733652916
286.98786883329
287.78040357065
289.88472053672
346.78030090415
350.43038853274
351.4543979637
352.15134885512
352.66567934986
353.04941068835
353.30169948201
353.41680469429
353.40930192533
353.26512312857
352.98938386738
352.60659012231
352.12446000686
351.53105623503
350.84241286202
350.07474596959
349.23933972463
348.34963312777
347.42088637277
346.46744800648
345.50201870656
344.53493296291
343.57559553784
342.63085168026
341.70572897959
340.80349383164
339.92646575333
339.07586908274
338.25222452913
337.45548007235
336.68532505718
335.94121327438
335.22209658969
334.52712819193
333.85575017871
333.20672668309
332.57920257505
331.97187045825
331.38395072546
330.81474676271
330.26319418953
329.72844986143
329.20954574927
328.7059783078
328.21695428688
327.74179186757
327.27975031438
326.83026349306
326.39285182171
325.96691904933
325.55195399842
325.14742486895
324.75293568704
324.36807577928
323.99241747858
323.62556156913
323.26712605425
322.91680345886
322.57426670337
322.23919731029
321.91129943306
321.59030696952
321.27596245277
320.9679884346
320.66610830123
320.36968950242
320.60379362621
322.08927914683
321.17769910065
320.2369892515
319.32695093796
318.45390263689
317.61893596
316.82060740611
316.05595116001
315.32129840126
314.61296649252
313.92779598097
313.26355215135
312.61917824061
311.99487397392
311.39198483417
310.81264611477
310.25914685016
309.80016497231
309.29783666066
308.82213445037
308.36976023361
307.93556484404
307.51278188119
307.09330858509
306.66821499885
306.22732808173
305.75972997562
305.25489701717
304.70434055918
304.10349771656
303.45293989857
302.75784384066
302.02566565349
301.26308459515
300.4739589396
299.65978893058
298.82274221372
297.79823503113
296.96934063306
296.20544947836
295.56479419074
295.06917052379
294.68921439043
294.36529514538
294.03860824932
293.66832666131
293.23313608691
292.72664005499
292.16500767731
291.57787465388
290.99789565812
290.45308284097
289.96823792072
289.57317984702
289.29857706229
289.16113617804
289.15256491898
289.24559117928
289.40167154849
289.5795312782
289.74310849666
289.85827283223
289.89904318103
289.84655259653
289.689996733
289.45071895092
289.15082755191
288.80572487956
288.46731481042
288.22372273699
288.27699782747
288.90053191887
290.63279968901
345.22234717204
347.55947251248
348.59711904273
349.26352027495
349.79454413548
350.22004985809
350.53884757718
350.75116727754
350.84463202034
350.83889464514
350.70932928587
350.45814194146
350.11864052451
349.68142123098
349.14683119524
348.52481534918
347.83161579409
347.07880689574
346.27789541873
345.44205161549
344.58383777232
343.71396265551
342.84085541009
341.97225438235
341.11422126415
340.27110918349
339.44596187558
338.64104359406
337.8576883802
337.09661436863
336.35807414401
335.64192554055
334.94787361486
334.27550294623
333.62409334706
332.99278135244
332.38112923909
331.78838729681
331.213623553
330.65628538348
330.11532644396
329.59011315384
329.08018824296
328.58471955127
328.10314939406
327.63465897865
327.17878420155
326.73507228075
326.30290193864
325.8818027222
325.47120610223
325.07077777888
324.68012000602
324.29879078217
323.92640138933
323.56255022607
323.20696794603
322.85931631697
322.51926499755
322.18652368272
321.86078482064
321.54180441979
321.22932083642
320.92313478959
320.62291202881
320.32734432748
321.06560104337
321.99215484076
321.06099381114
320.12470187151
319.22051976684
318.35341140736
317.52399555488
316.73063254281
315.97039990838
315.23983955897
314.53555455383
313.85467146619
313.19519757824
312.5562275225
311.93799877659
311.34177186741
310.76947689511
310.22310753936
309.77070311172
309.27477197729
308.80485262983
308.35764185268
307.92813486725
307.5098328576
307.09498212305
306.67503493966
306.24022717287
305.77998045481
305.28394880253
304.74357184536
304.15394150244
303.51513273492
302.83193558904
302.11175859259
301.36166690523
300.58614631497
299.7871438912
298.9665653034
297.96700647519
297.14824795266
296.37894794434
295.71084289078
295.17069752963
294.7408970976
294.36917247178
293.99497703131
293.57085452375
293.06863656409
292.50043106921
291.90662527326
291.3483844591
290.88258441234
290.53687908758
290.3234075896
290.25931437037
290.3544287905
290.59688895662
290.94602001
291.34564259671
291.74042476626
292.08524957652
292.3494148999
292.50894084987
292.54629399412
292.448205274
292.21449883377
291.8786815129
291.44218023591
290.94106529203
290.43302258977
290.01140003396
289.85477831005
290.22295203343
291.43449339826
344.47071116305
345.14945670461
346.24513485974
346.86808388985
347.37963464678
347.81055155158
348.1567980797
348.41715792003
348.57742452409
348.63968299258
348.61036245559
348.48430390461
348.24196289112
347.91311475896
347.50836673524
347.01580397659
346.44302457743
345.80634278381
345.1199392746
344.39248661197
343.63408855698
342.85557356188
342.06601698455
341.27262687521
340.48174438162
339.69850189425
338.9265887743
338.16890396251
337.42748434719
336.70367635698
335.99834942159
335.31191626438
334.64445516623
333.99582715019
333.36576211928
332.7539266619
332.15985628273
331.58285594144
331.02221003339
330.47769698681
329.94863337035
329.43431669183
328.93429783096
328.44774985848
327.97415787402
327.51326878449
327.06441989355
326.62714109806
326.20083447888
325.78504820041
325.37953812866
324.98381571615
324.59749987183
324.22016689756
323.85144985004
323.49111106046
323.13878877745
322.7941720951
322.45694321243
322.12680597458
321.80355803341
321.48691392806
321.17665390216
320.87259066766
320.57458175789
320.2797070534
321.68583103658
321.86723307954
320.92787899229
319.99722409094
319.09988938638
318.23962833262
317.41654523814
316.62882772506