/*--------------------------------*- C++ -*----------------------------------*\
| =========                 |                                                 |
| \\      /  F ield         | OpenFOAM: The Open Source CFD Toolbox           |
|  \\    /   O peration     | Version:  2312                                  |
|   \\  /    A nd           | Website:  www.openfoam.com                      |
|    \\/     M anipulation  |                                                 |
\*---------------------------------------------------------------------------*/
FoamFile
{
    version     2.0;
    format      ascii;
    arch        "LSB;label=32;scalar=64";
    class       volScalarField;
    location    "0.00019";
    object      TpSat;
}
// * * * * * * * * * * * * * * * * * * * * * * * * * * * * * * * * * * * * * //

dimensions      [0 0 0 1 0 0 0];

internalField   nonuniform List<scalar> 
109340
(
372.99990992063
372.99864665856
372.99643051535
372.99360697763
372.99058553384
372.987561331
372.98460654402
372.98175737642
372.97897502803
372.97618087355
372.97338146196
372.97057981581
372.96777283978
372.96495289251
372.96210949545
372.95922925873
372.95629509263
372.95328570274
372.95017417661
372.94692681666
372.94350161906
372.93984731495
372.93590040598
372.93158035964
372.92678413462
372.92137790954
372.91518561951
372.90797202364
372.89941632905
372.8890697417
372.87628353788
372.86008032572
372.8389117425
372.81018436765
372.76924990753
372.7073570548
372.99970796668
372.99803116486
372.99547455402
372.99259450089
372.98963910034
372.98670488239
372.98381256017
372.98095191012
372.97811752555
372.97529768098
372.97248463552
372.96967369461
372.96685836922
372.96402977495
372.96117632093
372.95828370799
372.95533437573
372.95230571506
372.94916913031
372.94588905911
372.94242157722
372.93871278617
372.93469570451
372.93028503365
372.9253711394
372.91981108314
372.91341613203
372.90593293258
372.89701394815
372.88616935492
372.8726840982
372.85546540109
372.83274491177
372.80147211273
372.75589390455
372.68456369129
372.99974754091
372.99776469935
372.99511073457
372.99227970527
372.98938001422
372.98646511736
372.98354735937
372.98064400999
372.97776846725
372.97491786921
372.97208356582
372.96925819967
372.96643372909
372.96360055621
372.9607470855
372.95785912149
372.95491914946
372.95190479809
372.9487876332
372.94553250058
372.94209545073
372.93842311188
372.93444904052
372.93008807034
372.92523052912
372.91973323829
372.91340741717
372.90599963845
372.89716225192
372.88640511734
372.87301232836
372.85588679901
372.83323307229
372.80188468985
372.75561787641
372.68077196787
372.99970851531
372.99740703803
372.99462109692
372.99169732461
372.9887331737
372.98575562161
372.98278104557
372.97982473041
372.97689861604
372.97400685902
372.97114570979
372.96830866934
372.96548729354
372.96267213764
372.95985349236
372.95701768848
372.95414801614
372.95122282435
372.94821428298
372.94508872061
372.94180261647
372.93830275031
372.93452169793
372.93037300306
372.92574498887
372.92049213292
372.91442270949
372.90727964884
372.8987106282
372.8882187309
372.87507757934
372.85817260837
372.83564998164
372.80415242544
372.75667702649
372.67541371584
372.99949488025
372.99643815676
372.99302006251
372.98967546945
372.9864089502
372.98321789362
372.98011381678
372.9771248101
372.97427060722
372.9715460378
372.96895427965
372.96649489456
372.96416047079
372.96194220575
372.95983034072
372.95781260403
372.9558735277
372.95399293174
372.95214061633
372.95028612409
372.94835130235
372.94625953859
372.94392557575
372.94124636365
372.93809498867
372.93430686236
372.92966726355
372.92388989329
372.91658208877
372.907190591
372.89490430938
372.87849230418
372.85586644965
372.82317538375
372.77183974132
372.67543430356
373.00336036389
373.01757879562
373.03288956794
373.04808482192
373.06273282032
373.07659627765
373.0895480933
373.10153404165
373.11254356439
373.12258573596
373.13168363707
373.1398639398
373.14715263856
373.15357354258
373.15914542919
373.16388132115
373.16778824056
373.17087032099
373.17317785833
373.17482775875
373.17581064122
373.17607448428
373.17554175897
373.17408865632
373.17159160563
373.16783149167
373.16252036067
373.15526271907
373.14550323946
373.13244486305
373.11489897201
373.09105834724
373.05779368841
373.00925762517
372.93190120538
372.77562085448
372.60913907997
372.45435798627
372.21744831167
371.87853767354
371.42751440588
370.85334091352
370.14142916745
369.27895343422
368.25510627177
367.06429728103
365.70338408728
364.19359063515
362.57247071821
360.8698248283
359.12512328684
357.37282247073
355.64245101375
353.95574320853
352.32699331855
350.76567173802
349.27712727476
347.86183447304
346.51874495918
345.24570551468
344.03914982801
342.89437278584
341.80649982769
340.77763163585
339.79453694417
338.86011641815
337.97100031064
337.1179807688
336.30832262479
335.52717440626
334.78513982285
334.06662220198
333.38291679045
332.71921466369
332.08613722822
331.47089192444
330.88183460249
330.31009011782
329.75906723667
329.22621498031
328.70849650806
328.20963597189
327.72247901713
327.25342577486
326.79462341965
326.35130548109
325.91892086182
325.49844310894
325.08920629762
324.69059563768
324.3020434329
323.92310448272
323.55332160515
323.1923208712
322.83972979981
322.49519393448
322.15836287216
321.82891837245
321.50656991646
321.19105097756
320.88211140283
320.57944266199
320.26997356194
321.9250633299
321.76902561822
320.81851744182
319.88373763691
318.98427738586
318.12270012902
317.29914708335
316.51177038207
315.75676893671
315.02952169024
314.32578160136
313.64229947139
312.97711133058
312.32976059557
311.70134402696
311.09428087554
310.51171192022
309.88828267854
309.36590597285
308.87201917043
308.40335612892
307.9543486848
307.517427113
307.08341905863
306.64222503573
306.18244769726
305.69221662256
305.16060061988
304.57948889768
303.94546136991
303.2605086461
302.53068681167
301.76316565957
300.96310755874
300.13244459747
299.27175197153
298.38554041316
297.26766113112
296.43174226999
295.73698237827
295.23693436523
294.90833085794
294.68205181284
294.49541119279
294.31287655384
294.11834052156
293.90421865665
293.66815847132
293.40880621705
293.12572936426
292.81892243123
292.48784587778
292.13149736543
291.74835179529
291.33702298254
290.89789842813
290.43303975522
289.94660311432
289.44491849951
288.93608319085
288.42877308632
287.9319792139
287.45444590406
287.00474795953
286.59070340349
286.22020144731
285.90310797704
285.65655126957
285.50186321103
285.47891359539
285.71284104295
286.51700212744
288.72777113021
372.56585029048
372.37288628266
372.07898531148
371.67137401149
371.14417217869
370.48833363242
369.69432811713
368.75564812864
367.66742815243
366.42937772541
365.0457897943
363.53247829391
361.92192364627
360.243871149
358.52899747834
356.80867411995
355.10997705408
353.4536707703
351.854383806
350.32098092075
348.85807761127
347.46693735629
346.14645795886
344.89406119643
343.70675249011
342.58037229211
341.51076138203
340.4942667932
339.52746887407
338.60604989971
337.72773946329
336.88859078137
336.0864783089
335.31824258283
334.58198694867
333.87521629891
333.19624767311
332.54302083877
331.91415694139
331.30778756465
330.72295829211
330.15788535049
329.61191669345
329.08338273965
328.57189051387
328.07592462959
327.59514043122
327.12830377616
326.67501454041
326.23431399577
325.80578499392
325.38867573236
324.9824679364
324.58675145169
324.20094480269
323.824635317
323.45737222885
323.09878113884
322.74847666963
322.40611861662
322.0713722249
321.74393167501
321.42350273493
321.10981383645
320.8025984061
320.5016737565
320.21083419339
322.22862273217
321.52813172989
320.57569573839
319.64934438339
318.75946541743
317.907761232
317.09383708482
316.31525377349
315.56788125399
314.84712206973
314.14896107938
313.47045326607
312.81000723888
312.16756663173
311.54459532746
310.94375718695
310.36822096881
309.88719979679
309.36509822416
308.8714354131
308.40297266604
307.95414816923
307.51740099659
307.0835718003
306.64257499241
306.18302760995
305.69306980893
305.16177406448
304.58102355506
303.9473835815
303.26282842202
302.53340604169
301.7662928397
300.96667126412
300.13649474892
299.27634303304
298.39068624194
297.27332736353
296.43717622139
295.74116999145
295.23922068518
294.90876147037
294.68095531529
294.49295860896
294.3089293147
294.11259822324
293.89622104375
293.65738269286
293.39464535749
293.10757991487
292.79619538481
292.46001536649
292.09811976011
291.70907979388
291.29171621693
290.84673079416
290.37654195822
289.88571807315
289.38100252573
288.87064442695
288.36341612732
287.86828274661
287.39384684302
286.94837067606
286.53927301064
286.17409751608
285.86241143691
285.62117479143
285.47058506044
285.45263094985
285.69214537823
286.50345580094
288.72480200085
372.54633313791
372.31181156178
371.95328495505
371.4659060576
370.8517865336
370.1113190557
369.24680568883
368.25608799293
367.13799322488
365.89198478267
364.52676208144
363.05426344277
361.49067653699
359.86258297069
358.19859565112
356.52535536094
354.86890473485
353.2497350244
351.68209257485
350.17485233107
348.73332539517
347.35983384689
346.05380403531
344.81323890472
343.63537601052
342.51687452761
341.4544045249
340.44391030719
339.48200653763
338.56526174486
337.69033044502
336.85475546008
336.05521812018
335.28976091944
334.55551667716
333.85094268469
333.17358610212
332.52218095684
331.89455667421
331.28975577897
330.70589016771
330.14216166866
329.5969427896
329.06955548051
328.55869910186
328.06363436185
327.58345455906
327.11730361953
326.66463934624
326.22449902968
325.79654083205
325.37991873388
324.97423104248
324.57888004899
324.19345565225
323.81750498634
323.45059434672
323.09232854658
322.74232910838
322.40025648078
322.06578078558
321.73859503485
321.41840448218
321.10493071256
320.79790826705
320.49716058903
320.20990321949
322.23115376262
321.518052338
320.56594021297
319.63988287698
318.75037324014
317.89915943562
317.08573883267
316.3076001188
315.56062418802
314.8402492541
314.14248483718
313.46440292516
312.80442873894
312.16251691642
311.54013248207
310.93992734828
310.36504679004
309.88488920649
309.36333955261
308.8701669807
308.40214236367
307.95371701257
307.517350522
307.08391069176
306.64334464632
306.18429996499
305.69494034195
305.16434635959
304.58438828137
303.95159967641
303.26791936294
302.53937776393
301.77316594406
300.97451096278
300.1454145437
299.28646885911
298.40205842391
297.28590751868
296.44930327604
295.75058307298
295.24444116607
294.90985404187
294.67864360571
294.48765101048
294.30032315913
294.10003309333
293.87867584609
293.63372706384
293.36347891311
293.06761318032
292.74614285162
292.3987634202
292.02473968307
291.62286660489
291.19245911324
290.73496662293
290.25360774169
289.75388707941
289.24334713925
288.73056009016
288.22444799515
287.73385508755
287.26699435693
286.83135004989
286.43346842281
286.08011467107
285.78019538966
285.55018776604
285.40840623786
285.40090429087
285.65202036799
286.4782063131
288.72146326769
372.50710753631
372.17743820223
371.68018251843
371.04008811927
370.28821991978
369.43213879264
368.4869819372
367.45354361448
366.32635740228
365.10353250949
363.7916615049
362.38852527026
360.90250641164
359.35188269677
357.7597541468
356.15187753004
354.55182922974
352.9805192998
351.45317725126
349.98006871432
348.56711818382
347.21648752152
345.92963929452
344.70516041949
343.54050399356
342.43291316874
341.37942074953
340.37686208748
339.42158137466
338.51069791632
337.6409037018
336.80952880812
336.01399382932
335.2517637724
334.52068628953
333.8186315297
333.14383959948
332.49441381152
331.86889453274
331.26572854084
330.6835546804
330.12117051242
329.57732214358
329.05110528086
328.54130659605
328.04729586985
327.56795303014
327.10275451733
326.65074775629
326.21142300642
325.78406393813
325.36811580333
324.96302506434
324.56822509592
324.18331173885
323.80782159354
323.44135487349
323.08350578574
322.73390875568
322.3922142924
322.05809134996
321.73123330511
321.4113528334
321.09815805104
320.7914183944
320.4908925631
320.20966715557
322.23448138987
321.50320367262
320.55173995047
319.62621062718
318.73728053063
317.88677734094
317.07407419031
316.29657066341
315.55016332473
314.83033928735
314.13314389153
313.45567455924
312.7963802903
312.1552314971
311.53369387871
310.9344012264
310.36046378341
309.88141448986
309.36068020211
308.86824724015
308.4008848557
307.95306216739
307.5172705841
307.08441994399
306.64450492112
306.18622048932
305.69776592005
305.16823440118
304.58947703125
303.95797975314
303.27562773413
302.54842441371
301.78358237987
300.98639633504
300.15894261968
299.30183573184
298.41933168291
297.30509325387
296.46789684201
295.76515835247
295.25269180973
294.91178967722
294.67537653499
294.47979269383
294.28748594329
294.08114271149
293.85219999741
293.59785328925
293.3161541139
293.00685466366
292.67010362625
292.3058312958
291.91359496842
291.49264382826
291.04321035683
290.56788930484
290.07123147915
289.56015573155
289.04316977658
288.52927938377
288.02745958561
287.54617496296
287.09282791612
286.67351182912
286.29345330291
285.95818548099
285.67563189722
285.46117567594
285.33214905661
285.33890878382
285.60569248293
286.45218696003
288.72469204694
372.40220990429
371.79698388343
370.9961214823
370.11852966352
369.21856814114
368.2895552114
367.32631927667
366.31471125389
365.23857278319
364.09345741627
362.86689907149
361.55774472568
360.1694808035
358.71476413687
357.21318263328
355.6867016383
354.1574503765
352.64616093347
351.1690659441
349.73763632233
348.35923246574
347.03831500753
345.7751106035
344.57031814679
343.42247763217
342.32908759088
341.28717528299
340.2943040127
339.34761661589
338.44385182592
337.58032874239
336.75433439606
335.96352900829
335.20539848336
334.47803475837
333.77924246717
333.10735523118
332.46054968828
331.83742800815
331.23633296323
330.65614584975
330.09544383885
329.55325988931
329.02839265825
328.52000223142
328.02713250788
327.54895401518
327.0847450573
326.63369211413
326.19526827769
325.76869001167
325.35351432071
324.94910444947
324.55501161062
324.17071628641
323.7957932005
323.42985677211
323.07251522563
322.72340370579
322.38216171139
322.04846304184
321.72200457501
321.40249978802
321.08965423171
320.78326353785
320.48307553298
320.21000419936
322.23717832716
321.4836524909
320.53310385313
319.60838237268
318.72026835023
317.87069317016
317.05890871091
316.28222188731
315.5365486877
314.81743623823
314.12097669025
313.44430208686
312.78589216877
312.14573735502
311.52530294192
310.92719795658
310.35448600147
309.87678746413
309.35713187809
308.86568154617
308.39919999935
307.95217848429
307.51715131056
307.08508464382
306.64603565454
306.18876320867
305.70151433787
305.17339947947
304.59624485614
303.96647331203
303.28589823526
302.56048607392
301.79747683604
301.00225447653
300.17699535116
299.32234527656
298.44238599766
297.33083601345
296.49299741891
295.78508658484
295.26427226358
294.91490198493
294.67145874071
294.46969195836
294.27070110431
294.05622814383
293.81706388027
293.54998839201
293.25284470583
292.92551438727
292.56838251315
292.18176410156
291.76571980484
291.32028629668
290.8470627711
290.3503648503
289.83669743747
289.31462853223
288.79380525265
288.28341691568
287.79222589006
287.32783396635
286.89606669715
286.50093859992
286.14584989166
285.83462593343
285.5740541943
285.37714231458
285.26406499207
285.28651834956
285.57050136618
286.43966143601
288.744216843
371.79369070292
370.24970088608
369.19579710803
368.32082780789
367.4828488093
366.64706451735
365.78877960685
364.89175385354
363.93371113488
362.90262667375
361.7901343214
360.59537700435
359.32026149746
357.97415436561
356.57360439669
355.1389497123
353.69083085643
352.24914563167
350.83095284935
349.4487141818
348.11142629908
346.82419430808
345.5901300537
344.40915575617
343.28095308735
342.20425326128
341.17689827642
340.19594894517
339.25939609976
338.36448922463
337.50861952289
336.68912853063
335.90396599438
335.15094152211
334.42788292382
333.73302811046
333.06458183777
332.42092853389
331.80048381647
331.20195312029
330.62398669744
330.06534148869
329.52496730342
329.00180268838
328.49497287642
328.00347334345
327.52661676741
327.06356600538
326.61367554715
326.17622390102
325.75060670234
325.33629708705
324.93271207233
324.53939824687
324.15581608106
323.78157695556
323.4162675287
323.05951613334
322.71095168765
322.37022816758
322.03702636485
321.71103720038
321.39195802343
321.07954110766
320.7735704566
320.47378411239
320.20990430593
322.23677667261
321.45939516674
320.51007068652
319.58647405326
318.69943052019
317.85099458048
317.04031717755
316.26461801705
315.51983710887
314.80159041851
314.10602731989
313.43032453111
312.77299975899
312.13406632286
311.514987435
310.91834061284
310.3471310263
309.87102115946
309.35270330964
308.86247277134
308.39708514211
307.95105854886
307.51698067227
307.08588807972
306.64791534319
306.19190141061
305.70615333098
305.17980385018
304.60464909592
303.97703386221
303.29868160364
302.57551086763
301.81479368148
301.02202358714
300.19950118007
299.34791195669
298.4711030697
297.36314602716
296.52468874508
295.81064267002
295.27960494229
294.91963190311
294.66729017809
294.45772076198
294.25033823104
294.02561006081
293.77352673408
293.49031257909
293.17369823488
292.82377843639
292.44136746925
292.02740104826
291.58274728518
291.10876251149
290.60895672648
290.09013229487
289.56119707362
289.03259937443
288.51497031675
288.01698563659
287.54672369803
287.11013149724
286.71028901833
286.34832591137
286.02544160756
285.74318235187
285.50667381182
285.32837585388
285.2310789137
285.26777997891
285.56743396535
286.45782632552
288.79109021871
362.97988169327
366.58893269893
366.33215463787
365.91396690735
365.4281365981
364.85610253265
364.20473236336
363.47872576252
362.68218888418
361.8106748667
360.85418983089
359.80907760211
358.67785685712
357.46642138028
356.18774294565
354.86018294516
353.50362584366
352.13747572846
350.77958386829
349.44477410384
348.1438783767
346.8844707389
345.67072360168
344.5053660228
343.38840716797
342.31894943293
341.29649138286
340.31893620516
339.38422288328
338.48964020303
337.6334580582
336.8132672475
336.02672321761
335.27185806892
334.54688516483
333.8499568226
333.17918933765
332.53321016524
331.91045336182
331.30957303748
330.72918156222
330.16824224588
329.62559303746
329.10020581363
328.59113786298
328.09754064171
327.61863337492
327.15358151498
326.70173436315
326.26239996806
325.83500238136
325.41893522551
325.01364853419
324.61868006601
324.23354222163
323.85781133237
323.49103199175
323.13284567369
322.7828988595
322.44084822751
322.10636187926
321.77913366032
321.45888769249
321.14532832286
320.83818046228
320.53727127045
320.22788953615
322.09313024773
321.6664977681
320.71817881126
319.78788538585
318.8926898069
318.03593835312
317.21732404591
316.43440915041
315.68337605827
314.9599015395
314.26001514067
313.58065859554
312.92004167525
312.27783012266
311.65514667462
311.05431055161
310.47824178828
309.86412884569
309.34740297552
308.85862302726
308.39453643602
307.94969296066
307.51674402327
307.0868104056
306.65011875306
306.19560407744
305.71164585097
305.18740456646
304.61464166248
303.98960954643
303.31392344401
302.59344209289
301.83547245648
301.04563833833
300.22638717357
299.37845212637
298.50536008191
297.42303800185
296.58359615233
295.85902406338
295.30969667994
294.93022072321
294.66125862593
294.4371678177
294.21421980385
293.97040662151
293.69423288663
293.38087688659
293.02811500951
292.63671234655
292.20855695361
291.74612694302
291.25235527276
290.73157231092
290.19135781664
289.64357927001
289.10132369485
288.57798620745
288.08448557397
287.62695074104
287.21125685752
286.83844950263
286.50615894424
286.21052433165
285.94645141614
285.71255115408
285.51226412289
285.35881298431
285.27959915593
285.33089424964
285.64701473489
286.56123003691
288.9223494897
353.86022737704
359.05431437487
359.88515501731
360.27802630849
360.44355615497
360.42085956778
360.21700328559
359.8579012911
359.36716520351
358.76139545468
358.04877110671
357.23997288996
356.33777892836
355.34545521895
354.27401123227
353.14006711874
351.9618061534
350.75771672715
349.54470993841
348.33807126294
347.15011892412
345.98954870143
344.86219862215
343.77176275291
342.72044517931
341.70898839423
340.73720521849
339.80370547488
338.90800808117
338.04838420065
337.22316942268
336.43024314662
335.66826809047
334.93562626246
334.2306341659
333.55153904027
332.89712467773
332.26600473579
331.65682859633
331.06823645295
330.49920600026
329.94869019423
329.41567251648
328.89914918833
328.3983035217
327.91237120944
327.4405621723
326.98215888582
326.53647391824
326.10296805087
325.68101099206
325.27006572017
324.86960468623
324.47917326182
324.09835138857
323.72669278744
323.36380684578
323.00929499445
322.66282510594
322.32407119803
321.99271573792
321.66847946228
321.35107764889
321.04029844565
320.73582192515
320.43738760843
320.24078236064
322.21596169155
321.36189649867
320.41595140898
319.49724409028
318.61492974766
317.77112687948
316.96479269769
316.19298448101
315.45175193956
314.73696042087
314.04499257939
313.37322234145
312.72031910243
312.08637624451
311.47283437262
310.88213165482
310.31703052672
309.84703594145
309.33422442417
308.84900741822
308.38811549858
307.94617740045
307.51600077446
307.08891551837
306.65537584981
306.20455496858
305.72501506353
305.20599062356
304.6391638807
304.0205615014
303.35152654342
302.63775814906
301.88663546378
301.10409060399
300.29294343268
299.4540963626
298.59056963194
297.52454248118
296.68566990359
295.94620568305
295.36808106899
294.95573668509
294.65761254567
294.40792663698
294.15784335229
293.8803279399
293.56121973119
293.19443753852
292.7790038029
292.31807271586
291.81723341589
291.28395793474
290.72682426364
290.15728510689
289.59268859784
289.05315513363
288.55664552837
288.11590713528
287.73689396921
287.41850191758
287.15390092457
286.93194919488
286.73677687577
286.55572484
286.37786630949
286.19883128142
286.023513577
285.87289711525
285.77401114994
285.80074026027
286.09266267441
286.98714788255
289.29296540488
349.47405781707
354.04323658333
355.07689240902
355.72654687043
356.15393338895
356.41993571406
356.51848418174
356.47141344942
356.26838575264
355.92685208816
355.46747470241
354.89557853062
354.21433715985
353.43589391572
352.57078678107
351.63138022856
350.63250553216
349.59104695751
348.52327955591
347.44389696198
346.36601980925
345.3006703665
344.25546008026
343.2358601872
342.24539874066
341.28643866678
340.35999994488
339.46616686326
338.60476910954
337.77478336369
336.9750639128
336.20500042621
335.46313883083
334.74829567249
334.05879769793
333.39358367525
332.7515879729
332.13152907528
331.53214592483
330.95233269236
330.39131153527
329.84799833374
329.32146039666
328.81078395895
328.31532722637
327.83427787534
327.36693348247
326.91257814347
326.47064601122
326.04057801617
325.62180298295
325.21378418408
324.81602556818
324.42813325004
324.04965559049
323.68019059121
323.31933770541
322.96673877689
322.62207154542
322.28499883185
321.95521789317
321.63244720598
321.31647186281
321.00699989424
320.7037811585
320.40619655821
320.35279022582
322.1691497955
321.27838390752
320.3340416106
319.41921747962
318.54112989092
317.70137503601
316.8987298534
316.13022289692
315.39202184842
314.68019980747
313.99134543034
313.32301303867
312.6740005605
312.04445742164
311.43578807992
310.85029688694
310.29053009718
309.82566073282
309.31767576318
308.83684482881
308.3798822171
307.94151685799
307.51475112427
307.09117466967
306.66152413698
306.21527089178
305.74121091967
305.2286821147
304.66928079273
304.05875874743
303.39811106572
302.69281413517
301.95030476344
301.17687443539
300.37581785148
299.54829106643
298.69684521071
297.65010379318
296.81452674366
296.06120644268
295.45155730663
294.9996881801
294.66434267026
294.38143353562
294.09661938431
293.77647513181
293.40324562096
292.97019676284
292.48096029673
291.9450877663
291.37790919936
290.79656039729
290.21835044455
289.66581632113
289.16748663101
288.7487730792
288.42443773324
288.19498325982
288.04902130603
287.9665813924
287.92198769636
287.88777013851
287.83943214636
287.75781505053
287.62919277395
287.45189706623
287.24876888777
287.03847793022
286.84979236038
286.76733648733
286.98786874812
287.78040329394
289.88471928216
346.78030103253
350.43038926075
351.45439778317
352.15134739594
352.6656790092
353.04941091381
353.30170042066
353.41680387068
353.40929769332
353.26509756784
352.98939215012
352.60660627576
352.1244399131
351.53103091611
350.84241744811
350.07474413214
349.23934084043
348.34963380731
347.42088394516
346.46744660009
345.50201870656
344.53493248731
343.57559509618
342.63085154912
341.70572940566
340.80349385508
339.92646599722
339.07586937301
338.25222449655
337.45548017101
336.68532563526
335.9412140349
335.22209538649
334.52712749585
333.85574974764
333.20672669239
332.57920184915
331.97186938992
331.38395110351
330.81474740733
330.2631934048
329.72845035885
329.20954620163
328.70597933512
328.21695513992
327.74179290171
327.27975171082
326.83026479554
326.39285310683
325.96691935248
325.55195423295
325.14742475969
324.75293493336
324.36807450111
323.99241527232
323.62555940221
323.26712376444
322.91680195394
322.57426594175
322.23919716676
321.91130005827
321.59030765805
321.27596325554
320.96798969729
320.6661098448
320.3696914505
320.60474830156
322.08932827886
321.17770108692
320.23699047792
319.32695186486
318.45390334632
317.61893648159
316.82060778711
316.05595144438
315.32129861991
314.61296668663
313.9277961669
313.26355233738
312.61917842605
311.99487414726
311.39198497778
310.81264620983
310.2591468797
309.80016399754
309.29783557812
308.82213333707
308.36975909735
307.93556369456
307.51278073345
307.09330744764
306.66821388238
306.22732699805
305.75972893678
305.2548960334
304.70433963904
304.10349686877
303.45293913268
302.75784316363
302.02566506946
301.26308409723
300.47395851159
299.6597885449
298.82274183779
297.79823457778
296.96934015655
296.20544904886
295.56479386045
295.06917029399
294.68921423124
294.36529501288
294.03860814332
293.66832656434
293.2331360121
292.72663999666
292.16500764152
291.57787463138
290.99789566427
290.45308288024
289.96823799546
289.57317992525
289.29857711634
289.16113621296
289.15256491898
289.24559115097
289.40167149456
289.57953120293
289.7431084127
289.85827275287
289.89904311731
289.84655255707
289.68999670527
289.45071894336
289.15082759555
288.80572491974
288.46731484536
288.22372271292
288.27699773928
288.90053170222
290.63279864677
345.2223471911
347.559472095
348.59711844265
349.26352152905
349.79454466902
350.22004886055
350.53884847593
350.75117080279
350.84464183689
350.8388949039
350.70934871078
350.45809900153
350.11878306162
349.68141850534
349.14681864745
348.52480040054
347.83161889865
347.07880855038
346.27789853196
345.44205235007
344.58383592427
343.71396268205
342.84085704256
341.97225587221
341.11422131934
340.27110857595
339.44596089822
338.64104229315
337.85768695529
337.09661370611
336.3580742773
335.64192558385
334.94787373618
334.27550357527
333.62409471455
332.99278223268
332.38113042525
331.78838895625
331.21362495171
330.65628611398
330.1153265889
329.59011344816
329.0801892558
328.58471962468
328.10314866065
327.63465965177
327.17878459071
326.73507282413
326.3029025692
325.8818037612
325.47120725066
325.07077817529
324.68011963276
324.29878925139
323.9263994206
323.56254789307
323.20696548053
322.85931413686
322.51926330245
322.18652294543
321.86078511046
321.54180562143
321.22932268111
320.92313686617
320.62291405191
320.32733632426
321.06709646565
321.99218301219
321.0609956473
320.12470293952
319.22052060957
318.35341205142
317.52399602583
316.73063288453
315.97040016446
315.23983975385
314.53555472338
313.85467162293
313.19519773008
312.5562276687
311.93799890704
311.34177196556
310.76947694249
310.22310751896
309.77070210494
309.27477085505
308.80485147541
308.35764067412
307.92813367634
307.50983166679
307.09498094089
306.67503377699
306.24022604118
305.77997936653
305.28394776742
304.74357087194
304.15394059924
303.51513191175
302.83193485376
302.11175794997
301.36166635163
300.58614583726
299.7871434659
298.96656490031
297.96700601198
297.14824747829
296.3789475059
295.71084253879
295.17069727257
294.74089691557
294.36917231953
293.99497691267
293.57085442092
293.0686364803
292.50043101111
291.90662524276
291.348384454
290.88258443875
290.53687912869
290.32340763334
290.25931439056
290.35442875888
290.59688887818
290.94601990173
291.34564246503
291.74042462291
292.08524943509
292.34941477192
292.50894074732
292.54629392582
292.44820523955
292.21449880926
291.87868156301
291.44218030723
290.94106537404
290.43302266526
290.01140004794
289.85477823151
290.22295191082
291.4344926403
344.47071136486
345.14945753564
346.24513579212
346.86808294584
347.37963551924
347.81055025475
348.15679750351
348.41715952516
348.57743053357
348.63975675841
348.61046793025
348.48437769461
348.24182977972
347.91301923024
347.50839447137
347.01578796695
346.44303554921
345.80633503562
345.11993715889
344.39248736896
343.6340872816
342.85557466854
342.0660182487
341.2726277205
340.48174460199
339.69850244378
338.9265891804
338.16890369405
337.42748377196
336.70367553283
335.99834788953
335.3119145939
334.64445425843
333.99582724535
333.36576266221
332.75392748592
332.15985744461
331.58285722734
331.02221198614
330.47769857169
329.94863411077
329.43431706633
328.93429844141
328.44774936044
327.97415740617
327.51326881554
327.06441914866
326.6271398921
326.20083514769
325.78504931534
325.37953912866
324.98381610491
324.59749960364
324.22016591727
323.85144847144
323.49110943146
323.13878648741
322.79416908213
322.45694095151
322.1268044136
321.80355798992
321.48691501579
321.17665585543
320.87259238071
320.57458515636
320.27970526775
321.68720228744
321.86724605731
320.92788045772
319.99722503054
319.09989014252
318.23962890282
317.4165456532
316.62882802476