/*--------------------------------*- C++ -*----------------------------------*\
| =========                 |                                                 |
| \\      /  F ield         | OpenFOAM: The Open Source CFD Toolbox           |
|  \\    /   O peration     | Version:  2312                                  |
|   \\  /    A nd           | Website:  www.openfoam.com                      |
|    \\/     M anipulation  |                                                 |
\*---------------------------------------------------------------------------*/
FoamFile
{
    version     2.0;
    format      ascii;
    arch        "LSB;label=32;scalar=64";
    class       volScalarField;
    location    "0.00019";
    object      Y.Liq;
}
// * * * * * * * * * * * * * * * * * * * * * * * * * * * * * * * * * * * * * //

dimensions      [0 0 0 0 0 0 0];

internalField   nonuniform List<scalar> 
109340
(
0.99999
0.99999
0.99999
0.99999
0.99998999999996
0.99998999999894
0.99998999996973
0.99998999940606
0.99998999595072
0.99998998498301
0.99998995985343
0.99998991201087
0.99998983109584
0.99998970493681
0.99998951943233
0.99998925830546
0.99998890267302
0.99998843039649
0.99998781514857
0.99998702512624
0.99998602130837
0.99998475521672
0.99998316600298
0.99998117658669
0.99997868831928
0.99997557353125
0.99997166480144
0.99996673899273
0.99996049256676
0.99995250165222
0.9999421541346
0.99992852713057
0.99991015108988
0.99988452781231
0.99984708981789
0.99978882186187
0.99999
0.99999
0.99999
0.99999
0.99998999999994
0.99998999999829
0.99998999995109
0.9999899991243
0.9999899946475
0.99998998137991
0.9999899521643
0.99998989797279
0.99998980797656
0.99998966951784
0.99998946796562
0.99998918642154
0.99998880525823
0.99998830140491
0.9999876473226
0.99998680960999
0.99998574715138
0.99998440871779
0.99998272985482
0.99998062872008
0.99997800030117
0.99997470828261
0.99997057326006
0.99996535504952
0.99995872503629
0.99995022091098
0.99993916847011
0.99992453761919
0.99990465603362
0.99987659903524
0.99983476192203
0.99976743469606
0.99999
0.99999
0.99999
0.99999
0.99998999999997
0.99998999999925
0.99998999997503
0.99998999932908
0.99998999530283
0.99998998275474
0.99998995449229
0.99998990144563
0.9999898127447
0.99998967569526
0.99998947563783
0.99998919566253
0.99998881614267
0.9999883140264
0.99998766180329
0.9999868261087
0.99998576584928
0.99998442979141
0.99998275346976
0.99998065500436
0.99997802933307
0.99997474006305
0.99997060767786
0.99996539186926
0.99995876392771
0.99995026146183
0.99993921010946
0.99992457866047
0.9999046842939
0.99987653783363
0.99983419737175
0.9997641462297
0.99999
0.99999
0.99999
0.99999
0.99998999999999
0.99998999999985
0.9999899999929
0.99998999952972
0.99998999599966
0.99998998427174
0.99998995711782
0.9999899054246
0.99998981827982
0.99998968294733
0.99998948471985
0.99998920662951
0.99998882897963
0.9999883286319
0.99998767795468
0.99998684341307
0.99998578363403
0.99998444694862
0.99998276828165
0.99998066489277
0.99997803053162
0.99997472714142
0.99997057287503
0.99996532415725
0.999958647683
0.99995007448329
0.99993892027745
0.99992413807893
0.99990400890486
0.99987542112064
0.99983188495413
0.99975662012979
0.99999
0.99999
0.99999
0.99999
0.99999
0.99998999999999
0.99998999999924
0.99998999966036
0.99998999657388
0.99998998569842
0.99998995978518
0.99998990960483
0.99998982402942
0.99998969001075
0.99998949239118
0.99998921356352
0.99998883295926
0.99998832627866
0.99998766420225
0.99998681113273
0.99998572272506
0.99998434319665
0.99998260191353
0.99998040846114
0.99997764613151
0.99997416245157
0.99996975568325
0.99996415463377
0.99995698725164
0.99994772924844
0.99993561467037
0.99991947332683
0.99989737638626
0.99986578071239
0.99981694764779
0.99972734257313
0.99999
0.99999
0.99999
0.99999
0.99999
0.99999
0.99998999999189
0.99998999919627
0.99998999380702
0.99998997671087
0.99998993788328
0.99998986455795
0.99998974122882
0.9999895494821
0.9999892676254
0.99998887007744
0.99998832646501
0.99998760049515
0.9999866489542
0.9999854154375
0.999983827883
0.99998179528028
0.99997920094678
0.99997589412977
0.99997167869921
0.99996629724072
0.99995940827783
0.99995055229552
0.99993909892887
0.9999241602467
0.999904438153
0.99987795778748
0.99984144275584
0.99978883360007
0.99970650897725
0.9995475593283
0.99969285857828
0.99953430496659
0.99928348914296
0.99891854452002
0.99842938957237
0.99780592380946
0.99703310316835
0.99609798295944
0.99499023162591
0.99370555127095
0.99224457498947
0.99062480255146
0.98889614523085
0.98708906650202
0.98524717358812
0.98340799907816
0.98160287721287
0.9798544036455
0.97817681095044
0.97657825103502
0.97506293154611
0.97363080981678
0.97227940288265
0.97100502694074
0.96980318861707
0.96866926154245
0.96759808340176
0.96658574446833
0.96562726380737
0.96471789568714
0.96385552654395
0.96303452105188
0.96225376080916
0.96150848563797
0.96079756072819
0.96011729156343
0.95946655655738
0.95884237015423
0.958243809055
0.95766829894546
0.95711519643884
0.95658223083083
0.95606893461835
0.95557338064811
0.95509513598449
0.95463269368425
0.95418547530184
0.95375245927645
0.95333289346632
0.95292613755336
0.952531380635
0.95214812597668
0.951775723542
0.95141365601423
0.95106141580492
0.95071854097697
0.95038459465687
0.95005917124749
0.94974188623719
0.9494323824461
0.94913032352011
0.94883539328323
0.94854729475872
0.94826574914277
0.94799049445711
0.94772128089567
0.94745657446782
0.9463952437553
0.94477157207833
0.94370887559515
0.94271178463815
0.94176094842857
0.9408563573906
0.9399961386575
0.9391753952287
0.93838690063062
0.93762300101893
0.93687725626442
0.93614554769545
0.93542693229825
0.93472408845559
0.93404297004431
0.93339144591508
0.93277715664931
0.93213570741485
0.93161293196358
0.9311301269792
0.93068047852851
0.93025509324736
0.92984385134353
0.92943590757096
0.92902040509786
0.92858493567054
0.92811570707005
0.9275981455551
0.92701830205585
0.92636544370115
0.92563525955694
0.92483235809609
0.92397091399891
0.92307295858374
0.92216573576514
0.92128030490297
0.92044924493638
0.91953020648557
0.91896188268438
0.91857167216104
0.91834502965739
0.91822158476184
0.91813756034614
0.91805359346516
0.91795192984864
0.91782607115861
0.91767405014259
0.91749570901621
0.91729186701203
0.91706386144706
0.91681300264492
0.9165402098688
0.91624542260621
0.91592696798638
0.91558117646389
0.91520416366436
0.91479253251193
0.91434483675045
0.91386216231765
0.91334826800765
0.91280942313858
0.91225402893926
0.91169191292147
0.9111340425756
0.91059305742573
0.91008061603697
0.90960800271871
0.90918550099871
0.90882156558159
0.90852128770027
0.90828559328102
0.90810930557301
0.90799243364241
0.99965075630501
0.999450652154
0.99913650459912
0.99869485644982
0.99812297191818
0.99741108612076
0.99654998610761
0.99553368606579
0.99435863716197
0.99302641763646
0.99154312115314
0.98992827831698
0.98821607914916
0.98644146221124
0.98463804257812
0.98283878564398
0.98107301486504
0.97936162215661
0.97771881940021
0.97615289017779
0.97466741364661
0.97326250459409
0.97193605002232
0.97068450366865
0.96950380211345
0.96838894494272
0.96733532818464
0.96633842244224
0.9653940606119
0.96449818094405
0.96364710147641
0.96283747100657
0.96206612098321
0.96133030162541
0.96062734902157
0.9599550044439
0.95931105609394
0.9586936002638
0.95810081398058
0.95753110149474
0.95698294096775
0.9564549936507
0.95594598289199
0.9554547848839
0.95498032715533
0.95452164479866
0.95407784015374
0.95364808102011
0.95323161726223
0.952827725549
0.95243575958735
0.95205509719959
0.95168517820305
0.95132546910888
0.9509754814121
0.95063475590954
0.95030286538102
0.94997940851626
0.94966400790819
0.94935631092389
0.94905598635058
0.94876272278449
0.94847622644367
0.94819621860851
0.94792243220024
0.94765460758387
0.94738154267393
0.94582276791178
0.9444875781122
0.94344869717034
0.94246333399756
0.94152437018295
0.94063150388918
0.93978203131062
0.93897030810656
0.93818884796791
0.9374302089476
0.93668846650241
0.93596025147774
0.93524553038838
0.93454788197725
0.93387389526266
0.93323157360332
0.9326281024261
0.93213473067144
0.93161224218156
0.93112967055197
0.93068021139947
0.93025498302782
0.92984388149399
0.92943607950973
0.92902073884046
0.92858547216568
0.92811650686181
0.92759928426568
0.92701986062688
0.92636749287083
0.92563784219726
0.92483547587266
0.9239745236869
0.92307697909755
0.92217005487661
0.9212847831905
0.92045370116078
0.91953428357058
0.91896508846775
0.91857350242266
0.91834535411783
0.91822054893501
0.91813517123071
0.91804951953797
0.91794555791358
0.91781658690186
0.9176604935714
0.91747698071071
0.91726674695965
0.91703110844848
0.91677142176926
0.91648868330187
0.9161828484392
0.91585216083987
0.91549278380706
0.91510068882215
0.91467246761646
0.91420686091686
0.91370532920412
0.91317215808666
0.91261425695518
0.91204071552859
0.9114621273924
0.91089039846919
0.91033842024881
0.90981824388642
0.9093413623012
0.90891805257595
0.90855652735331
0.90826123838182
0.90803247231643
0.90786369999813
0.907753899972
0.99963322320437
0.99938929215374
0.99900188247211
0.99847300897511
0.99780680746103
0.99700394220113
0.99606651128631
0.99499473315542
0.99378852733527
0.99244922090655
0.99098640858027
0.98941590845004
0.98775624873084
0.98603700572591
0.98428924786413
0.98254175501458
0.98082218206373
0.9791508666478
0.97754209566054
0.97600443375829
0.97454206241361
0.97315611824848
0.97184527056351
0.97060654584116
0.96943614874696
0.96832999648735
0.967283995841
0.96629360129034
0.96535474378182
0.9644636610071
0.96361672153576
0.96281067905254
0.96204248229045
0.9613093771308
0.96060885103751
0.95993859848261
0.95929653446839
0.95868071345681
0.95808939758886
0.95752095957535
0.95697393499473
0.9564469743827
0.95593883391478
0.95544840005797
0.95497461048414
0.95451652603736
0.95407323910565
0.95364394983672
0.95322788396785
0.95282435195197
0.95243269089041
0.95205230168901
0.95168261819229
0.95132311892591
0.95097331719895
0.95063275641966
0.95030101168878
0.94997768284892
0.94966239526021
0.94935479682459
0.94905455773383
0.94876136847304
0.94847493685555
0.9481949846201
0.94792124286908
0.94765345734597
0.94737931805333
0.94580253638494
0.94447679954314
0.94343849538323
0.94245337080575
0.94151484212679
0.94062250778735
0.93977349769755
0.93896212955283
0.93818096760125
0.93742262628327
0.93668122380755
0.93595343079593
0.9352392478473
0.93454226861221
0.93386906693219
0.93322760135681
0.93262499542387
0.93213261207146
0.93161074559615
0.93112868428278
0.93067963854186
0.93025475207345
0.92984395620105
0.92943646348372
0.92902147632966
0.92858665301947
0.92811826371018
0.9276017828154
0.92702327854858
0.92637198616709
0.92564350689869
0.92484231892451
0.92398245465029
0.92308582514252
0.92217957523256
0.92129467719951
0.92046357336521
0.91954336378216
0.9189722707829
0.91857765150898
0.91834615978084
0.91821832888026
0.91812995052444
0.91804057020287
0.91793151748047
0.91779562169065
0.91763042869751
0.91743533139225
0.91721073742149
0.91695791320562
0.91667833462117
0.91637315734953
0.91604236930886
0.91568402906766
0.91529393564309
0.91486775868579
0.9144021101793
0.91389621605491
0.91335241622855
0.9127762083275
0.91217596154731
0.911562326004
0.91094767964703
0.91034579885907
0.90977020248996
0.9092337521492
0.90874833389412
0.90832411379513
0.90796869195649
0.90768510300502
0.90747220944107
0.90732046178177
0.90722647827437
0.99959467477584
0.9992478865698
0.99870853314137
0.99801514741699
0.99719656268403
0.99626952937502
0.99524601926357
0.99412995337668
0.99291667729706
0.99160470193738
0.99020081435128
0.98870637495402
0.98713147455557
0.98549668319646
0.98382755559543
0.98215060959582
0.98049163632112
0.9788719741214
0.97730652568129
0.97580505401865
0.97437279830672
0.97301159836284
0.97172109251119
0.97049921442417
0.96934282195966
0.96824826895712
0.9672117401462
0.96622958848783
0.96529782522491
0.96441280409652
0.96357115947543
0.96276969677497
0.9620055322234
0.96127596128932
0.96057858486881
0.95991112928972
0.95927157022231
0.95865799603487
0.95806870914119
0.95750209789112
0.9569567322887
0.95643126034617
0.95592447783944
0.95543525705745
0.95496258010455
0.95450549336163
0.95406312575058
0.9536346643066
0.95321935430965
0.95281650486676
0.95242546090527
0.95204563172172
0.95167645374091
0.9513174144193
0.95096802926004
0.95062784860622
0.95029644950868
0.94997343511838
0.94965843344205
0.94935109444565
0.9490510904327
0.94875811396591
0.94847187454463
0.94819209495433
0.94791850802901
0.9476508618339
0.94737522817924
0.94577401841173
0.94446096433893
0.94342369546215
0.94243901645268
0.9415011352481
0.94060955633271
0.93976120330714
0.93895034284915
0.93816960705789
0.93741169068119
0.93667077543069
0.93594359033579
0.93523018456385
0.93453417208387
0.93386210369207
0.93322187163005
0.932620506001
0.93212940959738
0.93160848055432
0.93112719160643
0.93067877065896
0.93025440025628
0.92984406519703
0.92943703877152
0.9290225850893
0.92858843115121
0.92812091185593
0.92760555201815
0.92702843862708
0.92637877515804
0.92565207321537
0.92485267704228
0.92399447171306
0.92309924353386
0.92219403431479
0.92130972655871
0.92047861807053
0.91955726988069
0.91898334174422
0.91858413881365
0.91834754547337
0.91821507358662
0.91812209795214
0.91802700059114
0.91791010937308
0.91776350538848
0.91758412986676
0.91737084121506
0.91712361102378
0.91684360573076
0.91653248734504
0.91619164597455
0.91582110965394
0.9154186581028
0.91497957774869
0.91449916256715
0.91397414485115
0.9134046404776
0.91279451674556
0.91215128141946
0.91148565396077
0.91081075562112
0.9101420765613
0.90949543224022
0.90888565889105
0.90832666233449
0.90783072129711
0.90740759256592
0.90706372430499
0.90679985102328
0.90661261742641
0.90648784393686
0.90641817602972
0.99946717469045
0.99882231786055
0.99796090424912
0.99701814932688
0.99604358173407
0.99503922921618
0.99399793350266
0.99290692963932
0.99174997876693
0.99052258017593
0.9892139030577
0.98782349302668
0.98635590259183
0.98482543096704
0.98325385829903
0.981665066799
0.98008192234273
0.97852616336137
0.97701420918319
0.9755571146167
0.97416159818526
0.97283092422813
0.9715656415757
0.97036461898427
0.96922562483168
0.9681456724584
0.96712142473696
0.96614944179398
0.96522646205903
0.96434893391537
0.96351371405505
0.96271782297282
0.96195849331469
0.96123317535111
0.96053952719406
0.95987539089809
0.95923877297426
0.95862785031958
0.95804093651733
0.95747648408178
0.95693306455864
0.95640936990608
0.95590420267287
0.9554164588505
0.95494513335996
0.95448928682124
0.95404806627712
0.95362065936241
0.95320632666233
0.9528043719268
0.95241415618985
0.95203508729474
0.95166661285889
0.95130822230888
0.9509594364033
0.95061981071633
0.95028892450474
0.94996638476585
0.94965182158371
0.94934488763141
0.94904525708939
0.94875262420073
0.9484667000138
0.94818720869606
0.94791388717157
0.94764648402641
0.94736875544105
0.94573711628852
0.94444016981029
0.94340432871525
0.942420349539
0.9414833415739
0.94059272897386
0.93974521499768
0.93893500773661
0.93815482044797
0.93739745039231
0.93665716476395
0.93593077028443
0.93521837837041
0.93452362755064
0.93385303675979
0.93321440996148
0.93261465411908
0.93212514241244
0.93160545821947
0.93112519737861
0.93067760727159
0.93025392227433
0.92984419865627
0.92943779094201
0.92902404559626
0.92859078104375
0.92812441852839
0.92761055058117
0.92703529030785
0.92638780031519
0.92566347418321
0.92486647847405
0.92401050174237
0.92311716267216
0.92221336349021
0.92132986535632
0.92049876903306
0.9195760223323
0.91899838420639
0.91859311574537
0.91834968477081
0.91821093948247
0.91811174364604
0.91800889593481
0.91788131150455
0.9177199791356
0.91752091626484
0.91728215024397
0.91700302010706
0.91668449483893
0.91632849768981
0.91593676747428
0.9155093964432
0.9150437906495
0.91453460326615
0.91397680443708
0.91336753501076
0.91270842814721
0.9120057564533
0.91127002179319
0.91051534610182
0.90975852618034
0.90901920235108
0.90831523950603
0.9076633977761
0.90707866622395
0.90657343597943
0.90615649895828
0.90583234477721
0.9055983212848
0.90544819628045
0.90536129513362
0.90532441894249
0.99859887925291
0.99703618154249
0.9959598526641
0.99504506262293
0.99415746544054
0.99326548837023
0.99234537832843
0.99138183849949
0.99035451227093
0.98925246435892
0.9880692375975
0.98680409983874
0.98545993017753
0.98404744632594
0.98258499950955
0.98109470853104
0.97959833732016
0.97811688335633
0.97666722774186
0.97526203562149
0.97390968998943
0.9726148403317
0.97137937746635
0.97020321290197
0.96908497074679
0.96802241607391
0.96701284011146
0.96605328701284
0.96514085638045
0.96427235315132
0.96344487171823
0.96265567094889
0.9619021540951
0.96118191698378
0.96049271755501
0.95983250708101
0.9591993647293
0.95859153543653
0.9580073795857
0.95744540451636
0.95690421240333
0.95638253921845
0.95587920508283
0.95539313725515
0.9549233410372
0.95446890418277
0.95402897968754
0.95360277355429
0.95318955157824
0.95278862579796
0.95239936636941
0.95202118354327
0.95165353531804
0.95129591296173
0.95094784483967
0.95060888871999
0.95027862821528
0.94995667360709
0.94964265756693
0.94933623516079
0.94903708179804
0.94874489295977
0.94845938083025
0.94818027193156
0.94790731202566
0.9476402574616
0.94735947049841
0.94569257115253
0.94441439323797
0.94338041440003
0.94239745130482
0.94146156397438
0.94057211818759
0.93972561109414
0.93891619335219
0.93813666980841
0.93737996083016
0.93664044205809
0.93591501755127
0.93520387387637
0.93451067679096
0.93384190344531
0.93320524754836
0.93260746443666
0.9321198289346
0.93160168923547
0.93112270528341
0.93067614633779
0.93025331111484
0.92984434504027
0.92943870385853
0.92902583664038
0.92859367559598
0.92812874967541
0.92761673653557
0.92704378338151
0.92639900404371
0.92567764710027
0.92488365875812
0.92403048228277
0.92313952527462
0.92223751194585
0.92135504679355
0.9205239698524
0.91959970705662
0.91901752806146
0.91860479502504
0.9183528157231
0.91820613121488
0.9180990450814
0.91798633841358
0.91784503110702
0.91766458932845
0.91743969795961
0.91716716327791
0.91684539874027
0.9164749980007
0.9160582324525
0.91559738494039
0.91509269202805
0.91454112039717
0.91393664308159
0.91327416351489
0.91255181948475
0.91177372535342
0.9109497750644
0.91009471242379
0.90922725510894
0.90836966123124
0.90754546505075
0.90677512530754
0.90607740555018
0.90546810018409
0.90495912357046
0.90455745644431
0.90426447578369
0.90407278614265
0.90397301636796
0.90393556112423
0.90393975438544
0.987570870019
0.99286051396744
0.99274132569708
0.99237591947317
0.99190009737802
0.99131131712543
0.9906303849574
0.98986604318019
0.98902103158961
0.98809431796658
0.98707888909991
0.98597372206763
0.98478317821161
0.98351450381132
0.98218167897805
0.98080422472042
0.9794035251423
0.97800000056731
0.97661277467695
0.97525619631914
0.97394086234513
0.97267376604664
0.97145876598173
0.97029746411348
0.96918981341474
0.96813454160798
0.9671297099991
0.96617297179496
0.965261882642
0.9643936376013
0.96356557736994
0.96277516929198
0.96202001274231
0.96129782749177
0.96060646366001
0.95994392939294
0.95930838524217
0.95869810744332
0.95811148908646
0.95754705366208
0.95700343495062
0.95647937697367
0.95597371453761
0.95548537836127
0.95501337898477
0.9545568076316
0.95411481616169
0.9536866172194
0.95327147319141
0.95286869731043
0.95247765530287
0.95209775620173
0.95172845562108
0.95136924189003
0.95101964071336
0.9506792066813
0.95034752237948
0.950024195886
0.94970885750494
0.94940115979353
0.94910077549154
0.94880739844777
0.9485207424676
0.94824053731167
0.94796652590266
0.94769847344271
0.94743300333457
0.94613435029261
0.94465570958661
0.94360452483262
0.94261142388294
0.94166509514837
0.9407656511799
0.93991010055412
0.93909302759202
0.93830751755854
0.93754646591855
0.93680390952223
0.93607615571349
0.93536262154125
0.93466617350948
0.93399267024632
0.93334957843908
0.93274392099779
0.93211349010267
0.93159718510626
0.93111971864551
0.93067438468502
0.93025255791259
0.92984449038612
0.92943975840026
0.92902793346368
0.92859708347808
0.92813386621877
0.92762406203432
0.92705386097981
0.92641232158034
0.92569452207314
0.92490414695827
0.92405434577433
0.92316627172814
0.9222664317061
0.92138523457737
0.92055417462699
0.91964397100188
0.91905346510042
0.91862728303732
0.91835960926087
0.91819810887434
0.91807624761677
0.91794500225741
0.91777760598599
0.91756034476157
0.91728502461295
0.91694575416382
0.91653889226241
0.91606400834413
0.91552403102465
0.91492265043569
0.91426061405747
0.91353429355552
0.9127367751113
0.91186377042739
0.91091658754109
0.90990538266421
0.90884814616945
0.90776852416835
0.90669460074061
0.90565872552461
0.90468941239541
0.90381140857982
0.90304599682273
0.90240916952391
0.9019107474932
0.90155318552085
0.90133092484567
0.90122650419202
0.90122671919497
0.90128186226621
0.90136181051954
0.97725387396145
0.98477200819423
0.98575850675938
0.98627722783976
0.98651697009997
0.98653685040261
0.98635694668637
0.98599508946061
0.98549322125614
0.98486700161956
0.98412465422613
0.9832783440539
0.98233557954568
0.9813031546952
0.9801939040542
0.97902525319389
0.97781671186472
0.9765872522385
0.97535395770748
0.97413332232006
0.97293737567353
0.97177447488405
0.9706501857325
0.96956770252551
0.96852850985439
0.96753290662998
0.96658023722925
0.96566933467167
0.96479850375607
0.96396580276946
0.96316925163364
0.96240689116026
0.96167676167535
0.96097698334354
0.96030576763466
0.95966138272709
0.95904223715283
0.95844682627587
0.95787373304883
0.95732163236066
0.95678930307387
0.95627560689553
0.95577949000145
0.9552999666911
0.95483612374428
0.95438710896834
0.95395213476891
0.95353046351831
0.95312140567532
0.95272431636167
0.9523385969083
0.95196369312391
0.95159908906935
0.95124430280324
0.9508988798698
0.95056239450608
0.95023444626473
0.94991465873584
0.94960267744865
0.9492981672108
0.94900081210776
0.94871031478464
0.94842639793051
0.94814880011877
0.94787727374761
0.94761158825202
0.94730981413685
0.94552147645039
0.94430749929612
0.94328159501707
0.94230410836537
0.94137333856472
0.94048857959852
0.93964598307094
0.9388396486801
0.93806272901309
0.93730862908579
0.9365721903545
0.93585072519479
0.93514471188145
0.93445789841146
0.93379656652587
0.93316794560604
0.93257817392697
0.93209782991374
0.93158602357367
0.9311122748645
0.93066993949672
0.93025057901524
0.92984470736996
0.92944219843407
0.92903292461146
0.92860528881937
0.9281462688598
0.92764190400322
0.92707849975351
0.92644499103951
0.92573604716166
0.92495471103719
0.92411340102211
0.9232326272084
0.92233834852446
0.92146051384743
0.92062999385843
0.9197199517827
0.9191168374199
0.91866922193542
0.91837528749299
0.91818790766726
0.91803991141436
0.91787529223504
0.91765946182881
0.91737136834204
0.91699564730235
0.91651938336099
0.91593331712993
0.91523454692609
0.91442790901185
0.91352141558473
0.91251919409298
0.91141926932781
0.91021612757826
0.9089117344148
0.9075197285453
0.90606734869117
0.90459147388944
0.90313362473821
0.90173895588064
0.90044779449588
0.89929364014723
0.89830306296655
0.89749651033588
0.89688543884171
0.89647166502114
0.89624648841496
0.89619078646462
0.89626717601592
0.89644803993007
0.89668477312276
0.89689940419358
0.97196956453261
0.97952795499022
0.9807106196378
0.98145890716148
0.98196695419415
0.98229849133506
0.98244255474618
0.98241789602743
0.98223135564901
0.98188298607513
0.98141673064348
0.98083399743889
0.98013129771299
0.97932785915251
0.97843790113436
0.97747467005221
0.97645534866846
0.97539737857948
0.97431735378633
0.97323004500936
0.97214893469468
0.97108480304625
0.97004527255769
0.96903555261818
0.96805886207975
0.96711697235864
0.96621060619193
0.96533960790075
0.96450323401445
0.96370041012866
0.96292985169163
0.96219018927144
0.96147999513609
0.96079777833624
0.96014206942893
0.95951145646206
0.95890455656588
0.95832005060493
0.95775669771694
0.9572133274795
0.95668883282263
0.95618219164551
0.9556924396406
0.95521868358547
0.95476007603663
0.95431582417325
0.95388518447783
0.95346746773384
0.95306203330061
0.95266827639586
0.95228562926442
0.95191355996666
0.9515515761444
0.95119921612793
0.95085604590486
0.95052165480537
0.95019565522894
0.94987768297195
0.94956739450624
0.94926446672812
0.94896859477473
0.94867949161097
0.94839688725259
0.94812052952258
0.94785018645847
0.94758566287736
0.94723975027844
0.94538328395109
0.94421386233502
0.94319434109344
0.94222217746818
0.94129629303993
0.94041566473869
0.93957636197466
0.93877260621045
0.9379978767359
0.93724600248259
0.93651224985257
0.93579429316179
0.93509284692288
0.93441169928361
0.93375693230465
0.93313535271426
0.93255256041676
0.93207835932657
0.93157207916933
0.93110288568344
0.93066421720002
0.93024786842812
0.92984467700219
0.92944488567712
0.92903873480135
0.92861504338003
0.92816119001732
0.92766354537631
0.92710857691463
0.92648509155502
0.92578727322883
0.92501737771695
0.92418690303867
0.92331553185832
0.92242852973987
0.92155523915951
0.92072584538963
0.91981572033975
0.91919886777353
0.91872695847214
0.91840154322722
0.91818146504595
0.91799951078025
0.9177909662379
0.91750901708061
0.91711986105003
0.91659466862647
0.91590673419296
0.9150355070952
0.91397361124132
0.91273061480601
0.91132824216638
0.90978475191825
0.90810845958953
0.90630542789277
0.90439589506592
0.90241956600649
0.90043099071441
0.89849282616313
0.89666403515367
0.89499359694599
0.89352060959697
0.89227274443492
0.89127045028161
0.89052640062878
0.89004165660735
0.88980533527013
0.88979466689662
0.88995313239658
0.89026138659663
0.89067059775298
0.89110589676175
0.89144508430129
0.96773702056937
0.97573204289749
0.97697619837228
0.97775580725154
0.9783396366485
0.97877219542127
0.97908061827695
0.97923110382955
0.97923704263098
0.97911724806555
0.97884062828729
0.97845196868479
0.97796806238439
0.97736707745543
0.97666544600138
0.97588470037775
0.97503747857363
0.97413822953738
0.97320331282704
0.97224740804907
0.97128302144541
0.97032073674337
0.96936984682935
0.96843696094023
0.96752687306875
0.96664278312817
0.96578655509859
0.96495913972177
0.96416085154555
0.96339143894341
0.96265022065569
0.96193636745653
0.96124890906807
0.96058678412232
0.95994888185604
0.95933411035792
0.95874133702773
0.9581694760685
0.95761747388129
0.95708432978933
0.95656908321673
0.9560708027451
0.95558862756457
0.95512175311314
0.95466940952347
0.95423086340229
0.95380543087893
0.95339247073666
0.95299138546862
0.95260161798957
0.95222264361166
0.95185396711636
0.95149512026631
0.95114566473655
0.95080518754754
0.95047329683192
0.95014962263761
0.94983381442053
0.9495255428194
0.94922449819403
0.94893038880459
0.94864294075251
0.94836189621793
0.94808700878505
0.94781804495679
0.94755477568528
0.94712568112672
0.94523065796773
0.94410304093249
0.94309099749644
0.94212520224197
0.94120519990014
0.94032948223831
0.9394940237939
0.93869325928359
0.9379210872756
0.93717184868852
0.93644131994821
0.93572759793564
0.93503165249921
0.93435728727039
0.93371031853662
0.93309704024943
0.93252242230031
0.93205527964385
0.93155544570799
0.93109154675643
0.93065712849865
0.93024426430411
0.92984417415806
0.92944753122216
0.9290450070207
0.92862590935188
0.92817809445465
0.92768833736724
0.92714332280158
0.92653174230219
0.9258472393778
0.92509115550073
0.92427388507392
0.92341408959562
0.92253620402599
0.92166877685039
0.92084129692082
0.91993134585325
0.91930049709923
0.91880296774393
0.9184424650969
0.91818387979648
0.91795954312168
0.91769600285309
0.91732754482817
0.91679877897935
0.91605644106806
0.91504811058908
0.91373294059589
0.91209831743646
0.91017017340658
0.90801173567823
0.90568271157765
0.90322224470216
0.90066630839134
0.89806770876349
0.89549895151124
0.89303874080188
0.89076055457661
0.88871741219282
0.88694138188849
0.88545381180583
0.88426677075732
0.88338472909716
0.88280835904591
0.88252826388291
0.88252365083211
0.88273092125315
0.88313166762827
0.88367452730432
0.88429080943473
0.884881920565
0.88530426512367
0.96379194617042
0.97271228357659
0.97403275379287
0.97480683637057
0.975396271734
0.9758652637648
0.97622678111618
0.97647566333998
0.97659472825305
0.97659800303515
0.97649179321225
0.97624489562025
0.97589534744686
0.97546678154677
0.97493679043048
0.97431105611429
0.97361185952151
0.97285533655867
0.97205328693409
0.97121898081376
0.97036561723172
0.96950362825554
0.96864133512081
0.96778675418949
0.96694541445959
0.96612144307458
0.96531780197434
0.96453646781423
0.9637786567813
0.96304489768033
0.96233519661288
0.96164928310216
0.96098664711122
0.96034661865625
0.95972844335506
0.95913130952609
0.95855434235837
0.95799667635635
0.95745744700067
0.95693580822641
0.95643095884231
0.95594211660247
0.9554685201794
0.95500944904049
0.95456422892328
0.95413220999997
0.95371276195434
0.95330529532905
0.95290926201297
0.95252414727715
0.9521494652247
0.95178475325797
0.95142957269885
0.95108351146507
0.95074617972826
0.9504172086048
0.95009624686007
0.94978296307108
0.94947704492424
0.94917819767462
0.94888614446943
0.94860062260899
0.94832138152933
0.94804818143804
0.9477807884626
0.94751893061407
0.94691365168353
0.94506712646979
0.94397463790289
0.94297142143078
0.94201330119746
0.9411001721682
0.94023012982317
0.93939909388727
0.93860178512904
0.9378326045433
0.93708649052525
0.93635980465538
0.93565111205568
0.93496164397575
0.93429518316189
0.93365720681517
0.93305340882856
0.93248804721667
0.93202878185066
0.93153618972782
0.93107821485035
0.93064853675489
0.93023955067946
0.92984291108718
0.92944977823271
0.9290513115956
0.92863736892576
0.92819635562613
0.92771552474476
0.92718184046265
0.92658390973907
0.9259148072083
0.92517485774187
0.92437317926692
0.92352721147678
0.9226604024488
0.92180032903614
0.92097575275811
0.92006673436962
0.91942230648652
0.91889922469631
0.91850191362774
0.91819996756123
0.91792638857427
0.91759722301855
0.91712159588702
0.91640926518464
0.91536550535412
0.91389448403925
0.91192451762939
0.90944315948642
0.90653416623468
0.90336496313285
0.9000776089701
0.89676309074211