/*--------------------------------*- C++ -*----------------------------------*\
| =========                 |                                                 |
| \\      /  F ield         | OpenFOAM: The Open Source CFD Toolbox           |
|  \\    /   O peration     | Version:  2312                                  |
|   \\  /    A nd           | Website:  www.openfoam.com                      |
|    \\/     M anipulation  |                                                 |
\*---------------------------------------------------------------------------*/
FoamFile
{
    version     2.0;
    format      ascii;
    arch        "LSB;label=32;scalar=64";
    class       volScalarField;
    location    "0.00019";
    object      Ybar.Liq;
}
// * * * * * * * * * * * * * * * * * * * * * * * * * * * * * * * * * * * * * //

dimensions      [0 0 0 0 0 0 0];

internalField   nonuniform List<scalar> 
109340
(
0.9990918864376
0.99908824501719
0.99908127944678
0.9990727816721
0.99906330571888
0.99905332754034
0.99904302993811
0.99903248242716
0.99902168261304
0.99901014976806
0.99899705182877
0.99898146895498
0.99896227919854
0.99893812459353
0.99890738874564
0.99886816062513
0.99881816869386
0.9987546942357
0.99867444459501
0.99857338264942
0.99844648461799
0.99828744101864
0.99808824607383
0.9978386423483
0.99752533093706
0.99713086059007
0.99663198633136
0.99599717884677
0.99518267911147
0.99412595246791
0.99273424370983
0.99086327523496
0.98827493066223
0.98454828666685
0.97888259315545
0.96963663936334
0.99909242975877
0.99908775684262
0.99907993402723
0.99907084777301
0.99906107655198
0.99905104001809
0.99904085891425
0.99903048851455
0.99901963498282
0.99900778668735
0.99899418369097
0.99897786303778
0.99895764211327
0.99893209806023
0.99889954244513
0.99885797484531
0.99880502504652
0.99873784644776
0.99865298001777
0.99854616855443
0.99841210319471
0.99824409811411
0.99803364947454
0.99776983261821
0.99743844408464
0.99702078117689
0.9964918317572
0.99581749640712
0.99495013895375
0.99382110990118
0.99232744341536
0.9903065208598
0.98748382071697
0.98335800239778
0.97691728374202
0.9659700184952
0.99909445381804
0.99908905628393
0.99908045397311
0.99907115614718
0.9990614698383
0.99905157949806
0.99904145758177
0.9990310703378
0.99902020701247
0.99900836763624
0.99899480233034
0.99897854399113
0.99895840476966
0.99893295838471
0.99890051526095
0.99885907883908
0.99880627859393
0.99873927120527
0.99865460028114
0.99854801278848
0.99841420079438
0.99824647901274
0.99803634404628
0.99777286871185
0.99744184651288
0.9970245680651
0.99649601193895
0.99582206914528
0.99495509828657
0.9938264378175
0.99233306556663
0.99031197636825
0.98748571095668
0.98333669462479
0.97677224982445
0.9651495225003
0.99909726398962
0.99909077609557
0.99908175512471
0.99907220775596
0.99906234441897
0.99905225582778
0.99904197095183
0.99903147826483
0.99902056199214
0.99900872023956
0.99899520334824
0.99897903896238
0.99895903207976
0.99893375021081
0.99890149627484
0.99886026524937
0.99880767858716
0.9987408831593
0.99865640647509
0.99854997782719
0.99841625094646
0.99824849166372
0.99803812548693
0.99777412078279
0.99744212874915
0.99702323210861
0.99649211529019
0.99581424910376
0.99494138632442
0.99380396221613
0.99229752349373
0.99025657186088
0.98739649343733
0.98317266858686
0.97636106377019
0.96347749794569
0.99910167868647
0.99909327922146
0.99908296266374
0.99907277384205
0.99906264734096
0.99905246277358
0.99904214839141
0.99903167542196
0.99902081617771
0.99900906459193
0.99899567568632
0.99897966951203
0.99895983072607
0.99893469558173
0.99890252038945
0.99886123256464
0.99880836070552
0.9987409257684
0.99865523598537
0.99854680439451
0.99840990887058
0.99823732442146
0.99801979781868
0.99774534067125
0.9973982940334
0.99695789712937
0.99639625498855
0.99567519496229
0.99474125642638
0.9935172518167
0.99188706183171
0.98966742688002
0.98653993123512
0.98188344692629
0.9742108978862
0.95829996997677
0.99910984770031
0.9990945529222
0.99908314940608
0.99907270238606
0.99906251803373
0.99905231135018
0.99904198130503
0.99903143229228
0.99902030452548
0.9990078831652
0.99899313500692
0.99897470053731
0.99895088197208
0.99891961018602
0.99887838865328
0.99882420948693
0.99875343434789
0.99866166532154
0.99854362844922
0.99839201670684
0.99819779162888
0.99794933173385
0.99763155929111
0.99722477230831
0.99670302554173
0.99603180784244
0.9951646634322
0.99403805159748
0.99256317847582
0.9906122522906
0.98799325958725
0.98440743021024
0.9793322086563
0.97174870987481
0.95915020964168
0.93101388118896
0.9537196905821
0.92702661617143
0.88604191241349
0.83030007722483
0.76263444466735
0.68543118333744
0.60192516218863
0.51602698147287
0.43174294901049
0.35281301987887
0.28091942388466
0.22163024770306
0.17258528008934
0.13365848468101
0.10366843170925
0.08073078898219
0.063353810862074
0.050169046782056
0.04012281943278
0.032453991668179
0.026557080898528
0.021955615784244
0.018333047808952
0.015463008733477
0.013165090019578
0.011290773064806
0.0097462108936313
0.0085170164229547
0.0074434233869548
0.0065684859487701
0.0058309144964358
0.0051859839702028
0.004658362588951
0.0041780410895853
0.0037871672791708
0.0034234637560343
0.0031261404903646
0.0028464347490957
0.0026152662825836
0.0023975903793656
0.0022140573852409
0.0020433701090984
0.0018942380126081
0.0017595996403195
0.0016358247594256
0.0015277504240214
0.0014248830990249
0.0013363094443037
0.0012514116793648
0.0011769285658999
0.0011072185138551
0.0010432310208765
0.00098459331103072
0.0009305347957462
0.00088062328266559
0.00083442831771753
0.00079159756868517
0.00075182655407786
0.00071485160198816
0.0006804222303496
0.00064831005072082
0.00061831293837617
0.00059025734848326
0.00056398819093539
0.00053935512848311
0.00051621378434644
0.00049455773135827
0.00084116697646224
0.0030907070085464
0.0033738666005774
0.0033383718089687
0.0032928575008289
0.0032503429335444
0.0032109740375588
0.0031742495732196
0.0031395794052989
0.0031063977663047
0.0030741913978605
0.003042643008103
0.0030115497799515
0.0029809363620359
0.0029509830378768
0.0029220212359129
0.0028943714496363
0.0028649426565657
0.0028407153376682
0.0028179398093857
0.0027965322891767
0.0027762277120301
0.0027566879510874
0.0027376827173451
0.0027189822035358
0.0027002731477975
0.0026811706028562
0.0026612450966771
0.0026400600186521
0.0026172648474381
0.0025927208680501
0.0025666043030225
0.0025394376315757
0.0025120284736678
0.0024853265347076
0.0024602459572183
0.002437666183492
0.0024132518424482
0.0023990267698275
0.0023893759992858
0.0023834349366167
0.0023792823046196
0.002375773741979
0.0023721777503738
0.0023683183551944
0.002364117725624
0.0023595068563181
0.0023552839115843
0.002350502529417
0.0023452452483395
0.0023397320078369
0.0023340090535353
0.0023282398607062
0.0023224424837614
0.0023163104013513
0.0023097515790005
0.0023026308425268
0.0022947217673169
0.0022860351915517
0.002276683463221
0.0022667920857226
0.0022565668898772
0.0022462508368201
0.0022360504287471
0.0022262507325593
0.0022170743598455
0.002208705685186
0.0022012759982505
0.0021947795914182
0.0021890590642007
0.0021832193765993
0.0021742682756031
0.0021566257816021
0.94598556515891
0.91181666330404
0.8611398544342
0.79635604291566
0.72058908074688
0.63823691856662
0.5527738278335
0.46835696383676
0.38856977021137
0.31608475217084
0.25262788874496
0.19876354344786
0.15589759263818
0.12174512328958
0.09503249801525
0.074522845795086
0.058819118477103
0.046828981123414
0.03766068867765
0.030604561527673
0.025134951485651
0.020858971724549
0.017480928105652
0.014784829429966
0.012613960045805
0.010849976352973
0.0094009330772934
0.0082020482995678
0.0072038680963378
0.0063617568600225
0.0056514331572868
0.005044342951402
0.0045247803586936
0.0040755193330628
0.0036863056459752
0.0033465285017854
0.0030491014222935
0.0027871230296585
0.002555912193528
0.0023504084646273
0.0021678724262269
0.0020042892324025
0.0018580989644514
0.0017260599836295
0.0016074244265815
0.0014996104312822
0.0014021330397733
0.0013131521235013
0.0012321738874413
0.0011580140093424
0.0010901054992425
0.0010276730210249
0.00097017461587878
0.00091720703929812
0.00086825156682575
0.00082294457798643
0.00078092424579869
0.00074190010489739
0.00070559549389045
0.00067177270409227
0.00064021356950244
0.00061072674938653
0.00058313840878616
0.00055729475641077
0.00053305784585639
0.00051031997000381
0.00049185973743513
0.0014623034648616
0.0032648000360143
0.0033700155013963
0.0033260440732103
0.0032811175561003
0.0032394408176153
0.0032007992300108
0.0031646317339607
0.0031303556183686
0.0030974071385929
0.0030653437271427
0.0030338753995949
0.0030028665767508
0.0029723946794838
0.0029426828554293
0.0029140678078489
0.0028868378771412
0.0028641559351822
0.0028399050919496
0.0028172039645283
0.002795839567818
0.0027755594789528
0.0027560233106838
0.0027370035596325
0.0027182737569033
0.0026995230820965
0.0026803693087393
0.002660385882699
0.0026391390977122
0.0026162817779987
0.0025916796430256
0.0025655151869506
0.0025383192961085
0.002510910479718
0.0024842497783099
0.0024592580478021
0.0024368161206194
0.0024126249756854
0.0023985833004219
0.0023890954273854
0.0023832384582737
0.002379182416678
0.0023756976887936
0.0023720811356622
0.0023681617314889
0.0023638927509357
0.00235915686436
0.0023548001249833
0.0023498338648338
0.002344362669403
0.0023386360808811
0.0023326619400974
0.0023266246147124
0.0023205390875515
0.0023140714940403
0.0023071268018566
0.0022995577925393
0.0022911798494841
0.0022820120997409
0.0022721664523592
0.0022617815785295
0.0022510863047559
0.002240351342799
0.0022297978003016
0.0022197124263166
0.0022103299365927
0.0022018544134227
0.0021944201284099
0.0021880274648085
0.0021824560943005
0.0021768073485122
0.0021680614077853
0.0021505543229183
0.94177318827914
0.89869785279683
0.83694258215254
0.76109827827573
0.67653214662902
0.58938200811972
0.50432210621581
0.42420464326334
0.3512021338122
0.28579208522938
0.2308281742567
0.1841584138093
0.14582109343791
0.11504253245103
0.090690801440622
0.071660069049488
0.056929984773017
0.045591110732176
0.036838739826546
0.030039516575268
0.024738226960907
0.020578348862939
0.01727773426748
0.014635452897638
0.012502931196154
0.010765024321683
0.0093365451562618
0.0081524424448081
0.0071641017484314
0.0063317095151686
0.0056255895059821
0.005024588125625
0.0045076194797649
0.0040622513182411
0.003674674300981
0.0033373476315496
0.0030410202963915
0.0027807945188578
0.0025501384448819
0.0023459785328136
0.0021637006674934
0.0020011276854809
0.0018549966427022
0.0017237183355932
0.0016051055495955
0.0014977624445843
0.0014003567250979
0.0013116238231121
0.0012308062204941
0.0011567542890076
0.0010890063266938
0.0010266825940678
0.00096934375782327
0.00091641737002751
0.00086752314951255
0.00082227490564689
0.00078031760687562
0.00074134867387218
0.00070509177180894
0.00067131126241426
0.00063979113655588
0.0006103398570469
0.00058278227078676
0.00055696413134768
0.00053275369815915
0.00051004681485145
0.00049188219824294
0.0014921075491925
0.0032705844257055
0.0033702387784388
0.0033259822217854
0.0032809732898303
0.0032392456688456
0.0032005705878633
0.0031643790287297
0.0031300864424816
0.003097126247157
0.0030650589157236
0.0030335910923894
0.0030025906917312
0.0029721325827093
0.0029424403164196
0.0029138461505474
0.0028866296297187
0.0028639853113735
0.002839729617683
0.0028170487426557
0.0027957016619496
0.0027754357594735
0.0027559099583083
0.0027369008294544
0.0027181817475286
0.002699442973145
0.002680303331192
0.002660337213151
0.0026391115217404
0.0026162785464761
0.002591701886757
0.0025655604999426
0.0025383812283847
0.0025109792511335
0.0024843136094906
0.0024593080816616
0.0024368477737684
0.0024125983629885
0.002398490111545
0.0023889357352518
0.0023830068977374
0.0023789384712744
0.0023754140854061
0.0023717415573934
0.0023676773407974
0.0023633538731194
0.0023583369082379
0.0023536928878994
0.0023483157367923
0.0023424517250024
0.0023362274401544
0.0023296921650632
0.0023230507393559
0.0023162767286711
0.0023090265232645
0.0023012370312497
0.0022926858786244
0.0022832723931259
0.0022730384774492
0.0022621025893787
0.0022506377364646
0.0022389220517756
0.0022272850650559
0.0022159808650118
0.0022052930012947
0.0021955002609505
0.0021868269430287
0.0021793865588133
0.0021731747849398
0.0021679042324736
0.0021626361030899
0.0021543434369714
0.002137102436072
0.93235746757257
0.86896117067293
0.78454582311649
0.68922035963512
0.59730903835331
0.50976700712494
0.43155238344246
0.36227845470047
0.30131717126178
0.24794252373661
0.20381168003264
0.16548919450649
0.13316183168787
0.10659236479995
0.085044745180649
0.067941309664432
0.0544819658008
0.043940396496752
0.035708466876201
0.02927436974203
0.024210243016579
0.020192454798256
0.016997783397355
0.01443177867389
0.012349000546728
0.010647115477066
0.0092466059958002
0.0080827672145226
0.0071078820176734
0.0062874983365739
0.005590295568162
0.0049951554979437
0.004483981494607
0.0040423012490226
0.0036585512333535
0.0033235452222168
0.0030298489356811
0.0027710465229901
0.0025422047314535
0.0023390637142122
0.0021579431220225
0.0019960685589602
0.0018506964850694
0.0017199913119109
0.0016017970755358
0.0014949410191441
0.0013977852939105
0.0013094535229366
0.0012287694597076
0.0011550069823046
0.0010873893386403
0.0010252593713074
0.00096807609368827
0.00091527760036061
0.00086649515960721
0.00082132988089387
0.00077945572488873
0.00074056080872173
0.00070437647187777
0.00067066169009504
0.00063919879796168
0.00060979608544124
0.00058228217764989
0.00055650603347121
0.00053233784504104
0.00050965715536188
0.00049196654391498
0.0015365720195866
0.0032776847048793
0.0033702444761129
0.0033257346970126
0.0032806844816863
0.003238923571184
0.0032002186409074
0.0031640004429458
0.0031296881237973
0.0030967134284383
0.0030646411497936
0.0030331756694037
0.0030021876398086
0.0029717502983477
0.0029420874762892
0.0029135264036104
0.002886340914116
0.002863753317167
0.0028395201911957
0.0028168671865611
0.0027955449007523
0.002775300010768
0.0027557908100808
0.0027367981562733
0.0027180964530963
0.0026993772122973
0.0026802610256146
0.0026603239215647
0.0026391335506702
0.0026163413212956
0.0025918073396539
0.0025657053265072
0.0025385562817937
0.0025111703797297
0.0024845031649211
0.0024594775153396
0.0024369732358944
0.0024126697408562
0.0023984720434621
0.0023888052910983
0.002382769609254
0.0023786296749544
0.0023750153989556
0.0023712511963505
0.0023669945124418
0.0023624262498511
0.0023570711118536
0.0023519551818092
0.0023459728552798
0.0023394274165908
0.0023324064317708
0.0023249760157435
0.002317364900154
0.0023094644862126
0.0023009897322997
0.0022918171744348
0.0022817532015054
0.0022707148663852
0.0022587961964642
0.0022461612060571
0.002233046179855
0.0022198039284824
0.0022068205996259
0.0021944133678226
0.0021829124112266
0.0021726140400066
0.002163738609944
0.0021563805194958
0.0021505053895162
0.0021457431067233
0.00214108835874
0.0021334740328396
0.002116648004284
0.90082070384778
0.78444462198142
0.66085456521551
0.5543657859885
0.47001287145242
0.39992985083554
0.34167197445802
0.29147314510833
0.24778315873885
0.20946921688124
0.175197472022
0.14502950920311
0.11896594606554
0.096899238276728
0.078573604662818
0.063587202463814
0.051542451182893
0.041954915670757
0.034349709746217
0.028320951239336
0.023535366449712
0.019721103565904
0.016648049437744
0.014169597117261
0.012154268516672
0.010500672914187
0.0091313805999538
0.0079926421403623
0.007037636735683
0.0062306839307794
0.0055447702232998
0.0049579404727595
0.0044535160888322
0.0040168353280474
0.0036376149544197
0.0033059946500961
0.0030151285840818
0.0027585950844234
0.0025317789541737
0.0023300529799783
0.00215035282598
0.0019894374833376
0.0018450707542634
0.0017149795561817
0.0015975118627732
0.0014911173541779
0.00139445311833
0.0013064797200303
0.0012261199778694
0.0011526721845936
0.0010852687357829
0.0010233688239499
0.00096635472805442
0.00091376061991187
0.00086513011572224
0.00082008619218705
0.00077831837929191
0.0007395231688892
0.00070343466381951
0.00066980377015003
0.00063841499686685
0.00060907839678159
0.00058162650856609
0.00055590957343875
0.00053179776290645
0.00050914234023872
0.00049217493022738
0.0015955724110061
0.0032859591164516
0.003369891554251
0.0033252186815179
0.0032802116249689
0.0032384561756043
0.0031997348122736
0.0031634929121263
0.0031291616368967
0.0030961712722255
0.0030640943678291
0.0030326322641642
0.0030016600257259
0.0029712514261028
0.0029416281953774
0.0029131110223609
0.0028859705980347
0.0028634456546881
0.0028392516343572
0.0028166354867013
0.00279534620564
0.0027751296324696
0.0027556430302912
0.0027366732356983
0.0027179954908158
0.0026993034436346
0.0026802198657147
0.0026603227770419
0.0026391808453858
0.0026164440981087
0.0025919682719275
0.0025659202182628
0.0025388131572779
0.0025114504802442
0.0024847839700701
0.0024597344517727
0.0024371812329851
0.0024128120401577
0.0023984949156208
0.0023886801179416
0.0023825006454256
0.002378254321961
0.0023745337609934
0.0023706078203468
0.002366099484674
0.0023612077951135
0.0023553669787337
0.0023495595659796
0.0023427382949113
0.0023352130476041
0.0023270543135946
0.0023183418234381
0.00230930752403
0.0022998118054333
0.0022895756682653
0.0022784325499308
0.0022662318843571
0.0022529242989513
0.0022386766395894
0.0022237306361918
0.0022084175665281
0.0021931911687302
0.0021785132411239
0.0021647795932374
0.0021523540209982
0.0021415375329882
0.0021325366576178
0.0021254261798804
0.0021200933136862
0.0021160879173747
0.0021123138269384
0.0021056253278103
0.0020894915075487
0.6767134077601
0.48920141952016
0.41005570272913
0.36159075732582
0.32176465693486
0.28709331602581
0.25515858067428
0.2259840294014
0.19795804151637
0.17180437076068
0.1472051699175
0.12474987145978
0.10455454945936
0.086797033640149
0.071586466235424
0.058817725187994
0.048283035399741
0.039706653640761
0.032787546635242
0.027224441795108
0.022751482429832
0.019147493585542
0.016238360044791
0.01386413648149
0.011920801299225
0.010321045854503
0.0089953075314816
0.0078847767688801
0.0069514688682809
0.0061619440266384
0.0054897162095934
0.0049128606660647
0.0044163319777071
0.0039864447038298
0.0036120455208493
0.0032847241297351
0.0029972437269196
0.0027436162227146
0.0025188793061282
0.0023191618676501
0.0021409896078756
0.0019813745845645
0.0018380359286721
0.0017088601878795
0.0015921982157183
0.0014863978588734
0.0013903117222761
0.0013027760241905
0.0012228781225991
0.0011497479431003
0.0010826534180392
0.0010210139379922
0.00096423360113911
0.00091186016514849
0.00086341222824308
0.00081853896828782
0.00077691298485666
0.00073824494911422
0.00070226610641488
0.0006687335405437
0.00063743746799142
0.00060818749488001
0.00058081408144691
0.00055516903893457
0.00053111183994703
0.00050850325076037
0.00049237835113249
0.001669361267199
0.0032950707076298
0.0033691099824024
0.0033244112647609
0.0032795329441572
0.0032378245372401
0.0031991075994221
0.0031628495506357
0.0031285007070545
0.0030954957514121
0.0030634146685785
0.0030319587916476
0.0030010079079245
0.0029706342932886
0.0029410594721197
0.0029125978898543
0.0028855162144104
0.002863068375206
0.0028389260899345
0.0028163527880721
0.002795102743411
0.0027749217143939
0.0027554636686316
0.0027365230352836
0.0027178756331339
0.0026992180120962
0.0026801757113188
0.0026603292296457
0.0026392483687752
0.0026165815634206
0.0025921793103047
0.0025661999365461
0.00253914700659
0.0025118162016293
0.0024851601141401
0.0024600929774825
0.0024374488175353
0.0024130237706399
0.0023985597440001
0.0023885599796141
0.0023821977685219
0.0023778063066599
0.0023739341648007
0.0023698034405193
0.002364974335181
0.0023596259691788
0.002353162704188
0.0023464258216586
0.0023384903718722
0.0023296330809942
0.0023199203383971
0.0023094420941318
0.0022984295450474
0.0022867915022404
0.0022741877476377
0.0022604149423174
0.0022453851778217
0.0022291088926697
0.0022118684641601
0.0021940189569902
0.0021760112724254
0.0021584498761064
0.0021418615032868
0.0021267007751468
0.0021133546159702
0.0021021275927759
0.0020932011189358
0.0020865939013759
0.0020820918160822
0.0020791453037305
0.0020765430459343
0.0020710417627045
0.002055793431505
0.022797462765801
0.15554523080236
0.19117026139888
0.20462278260063
0.20662948966447
0.20054833237593
0.18887461741498
0.17453172679797
0.15878451536962
0.14237578477376
0.12589488875242
0.10973764761455
0.09438109734654
0.080192385927336
0.067470555821273
0.056386917802918
0.046937628511545
0.039035717953149
0.032515984953942
0.027180305369446
0.02283068946492
0.01928930472773
0.01639831358037
0.01403618729456
0.012088224218865
0.010473933535098
0.0091334841610767
0.0080116761688867
0.0070659618123531
0.0062628779943454
0.0055795631499384
0.0049940896809926
0.0044887070441694
0.0040507502629773
0.0036697913406467
0.0033367883577847
0.0030438660549967
0.0027856553302904
0.002556963023185
0.00235368025119
0.0021721643941283
0.0020097596586908
0.001863906332894
0.0017324771605487
0.0016137109756584
0.0015061198441853
0.001408424957407
0.0013194237367264
0.0012381848413518
0.0011638495902917
0.0010957051635903
0.0010330916223806
0.0009754190988576
0.0009222244833752
0.00087306009642949
0.00082754834408582
0.00078532107545172
0.00074608864665652
0.00070959307432084
0.00067559337305327
0.00064386980822457
0.00061422314526928
0.0005864800620312
0.00056048473973814
0.000536107004219
0.00051322725613741
0.0004925650925007
0.0010741147292472
0.0031817824770943
0.0033748795655649
0.0033348495032716
0.0032895453379679
0.0032471372220422
0.0032077503719617
0.0031709296663243
0.0031361445233713
0.003102836704167
0.0030705524927286
0.0030389651675163
0.0030079102048354
0.0029774169922914
0.0029476667271154
0.0029189645980982
0.002891589073838
0.0028626142627083
0.0028385374148707
0.0028160188329324
0.0027948148002442
0.002774674313326
0.0027552507042517
0.0027363454718776
0.0027177348191563
0.0026991187855425
0.0026801262954593
0.0026603408640313
0.0026393334416047
0.0026167508841917
0.0025924376538198
0.0025665419140913
0.0025395562674436
0.0025122678505946
0.0024856193418022
0.0024605588235647
0.0024379424906603
0.0024135254536189
0.0023988107597724
0.002388475432688
0.0023817727866665
0.0023770910310577
0.0023729275532937
0.0023683819394957
0.0023629311965048
0.0023566598274387
0.002348967136035
0.0023403945224062
0.0023302311992236
0.0023186475571392
0.0023057342702878
0.0022916588783913
0.0022767149396591
0.0022608093631517
0.0022434382659763
0.0022244573205665
0.0022039281829391
0.0021820478706689
0.0021592939585891
0.0021362791953147
0.0021137168033855
0.0020923589644293
0.0020728313571446
0.0020556430926756
0.0020412070706672
0.0020297842123563
0.0020214739303524
0.0020161701311173
0.0020134633418755
0.0020126068361026
0.0020122464425182
0.0020089092381309
0.0019954225634897
0.010076589398789
0.027124655730227
0.048449764641266
0.066172018183723
0.079703467726438
0.088657820411823
0.093361229997942
0.094504691800097
0.091877702337856
0.08732907747121
0.081343392516235
0.074282424719329
0.066644051357485
0.058843956265858
0.051258259270989
0.044195109457067
0.037829454579361
0.032238486565671
0.027430859759065
0.023356926454254
0.019934535257524
0.017074744786558
0.014688867893871
0.012696666149984
0.011031763491747
0.0096371272658677
0.0084608557661311
0.0074625320969592
0.0066155194567646
0.0058921838277763
0.0052716399077542
0.0047347612514419
0.0042698984569778
0.0038652109810225
0.0035114291095484
0.0032001439568269
0.0029258771395137
0.0026831702058363
0.0024675804089002
0.0022751222643249
0.0021029795885099
0.0019485276326226
0.0018095256635134
0.0016839636563096
0.0015702818253224
0.0014671442043382
0.00137330372406
0.0012877040890919
0.0012094148790588
0.0011377276737402
0.0010719102393876
0.0010113616176395
0.00095553343055618
0.00090397322693131
0.00085629144104416
0.00081210637656413
0.00077109636827922
0.00073295520479298
0.0006974360638095
0.00066431592782047
0.00063339044116363
0.00060447746699467
0.00057740917567827
0.00055203374948032
0.00052821773312561
0.00050582798453237
0.00049544601269528
0.0019757713884515
0.0033238175580506
0.0033646401073714
0.0033206136593385
0.0032763042953397
0.0032348957874941
0.0031962932309708
0.0031600477377916
0.003125673579139
0.0030926414372278
0.0030605581775466
0.003029142748629
0.002998289178975
0.0029680629899661
0.0029386937058832
0.0029104690373953
0.0028836369374682
0.002861474699813
0.0028375599279585
0.0028151799385423
0.0027940952687726
0.0027740580093269
0.0027547195844944
0.0027359046681861
0.0027173879273299
0.002698876747528
0.0026800089770142
0.0026603754603097
0.0026395514811468
0.0026171802419514
0.0025930918283128
0.0025674104196102
0.0025405991922727
0.0025134190660423
0.0024867974818967
0.0024616927794903
0.0024389268446997
0.0024143773203559
0.0023992916192997
0.0023884059986913
0.0023811229923785
0.0023759157447186
0.0023712292811444
0.0023659173953155
0.0023592983008991
0.0023511793358135
0.0023409646785832
0.0023286763172433
0.0023138075236636
0.00229638796661
0.0022766001618038
0.0022548748507427
0.0022315671789648
0.0022064724282746
0.0021793078924243
0.0021501601682944
0.002119413812662
0.0020877587507824
0.002056116127254
0.002025497254109
0.0019969147702753
0.0019711578903741
0.0019488626571233
0.0019304667763987
0.0019162643722136
0.001906349479746
0.0019005976479752
0.001898617306798
0.0018997870938122
0.0019029528992408
0.0019064036352195
0.0019070902160962
0.0018970848485182
0.0079824061466443
0.01188016128384
0.019223886059236
0.028121364528558
0.036504567862155
0.043630728431985
0.049195597878277
0.052987505725135
0.055005511235009
0.055218479877273
0.054093999840618
0.051642012738705
0.048279333790288
0.044302189618417
0.039956358160055
0.035548870979523
0.031293061962385
0.027339186863381
0.023768407696683
0.020614100551714
0.017873277333842
0.015516112748502
0.013502045961704
0.011786439734892
0.010326101422517
0.0090832842315346
0.008023356029948
0.0071168623731336
0.0063393383820298
0.0056685835254934
0.005088149537865
0.0045848549957597
0.0041462447466436
0.0037629197380678
0.003425436088858
0.0031278720546497
0.0028647946463007
0.0026313449844137
0.0024231195836484
0.0022368428761823
0.0020699937757059
0.0019199705324307
0.0017846343233405
0.0016621235466942
0.0015511443697878
0.0014502650871846
0.0013583774347219
0.0012744161774668
0.0011975838515785
0.001127149123728
0.001062433467028
0.0010028397264169
0.00094784079942204
0.00089703699902501
0.00085001114929856
0.00080641288978192
0.00076591572806446
0.000728236236592
0.00069313966814357
0.00066039335023268
0.00062979830858137
0.00060117588900217
0.00057436492360839
0.00054922667359007
0.00052562509935138
0.00050339498287444
0.00050485931338806
0.0022398732845518
0.0033443452513117
0.0033615438312139
0.0033172831515231
0.0032732780076297
0.0032320963530765
0.0031936145343796
0.0031574235616716
0.0031230538830125
0.0030900236965751
0.0030579541197162
0.0030265868226031
0.002995826152484
0.0029657395960219
0.0029365605154724
0.0029085540640919
0.0028819516822733
0.0028600270231032
0.0028363174708829
0.0028141115408894
0.0027931775120471
0.0027732720859294
0.0027540426878244
0.0027353439894079
0.0027169480129918
0.0026985709439777
0.0026798616321701
0.0026604206012527
0.002639829398565
0.0026177269671622
0.0025939258832611
0.002568522193868
0.0025419425715334
0.0025149152644879
0.0024883443014544
0.0024631975136205
0.0024402849793515
0.002415528660351
0.0023999953775179
0.0023884605988838
0.0023804646433792
0.002374582556479
0.0023692037699044
0.0023628611328241
0.0023546033927787
0.0023437863910102
0.0023296771771062
0.0023117135105627
0.0022893598293559
0.0022625870259293
0.0022317971659295
0.0021979149875008
0.002161648745749
0.0021233064958946
0.0020828453314741
0.0020409951095968
0.0019987060000798
0.0019572307725123
0.001917904842597
0.0018819328211257
0.0018501316785205
0.0018230690994713
0.0018010737571287
0.001784329988936
0.0017728920417384
0.0017666064367356
0.0017650225163925
0.0017676241020762
0.0017731602220421
0.0017809434127481
0.0017885890037402
0.0017932669449499
0.0017869656506738
0.0063529817722449
0.0083941676324545
0.010636834113419
0.015051963203063
0.019973512835627
0.024665505109059
0.028858241064103
0.03225733693333
0.034833086114361
0.036318216782998
0.036798656985253
0.036329793404979
0.035227207702657
0.033321913600691
0.030970790249153
0.028342185962993
0.025606278417108
0.02290137312595
0.020332893167414
0.01796595419408
0.015831732486377
0.013938695439892
0.012277700418649
0.010831031464049
0.0095761459575228
0.0084897861900082
0.0075503740862368
0.0067370970726757
0.0060315143560561
0.00541816721143
0.0048835801735968
0.0044162433825176
0.0040059966951021
0.0036449549243029
0.0033265190698277
0.0030446521195776
0.0027943581047863
0.0025708048775067
0.0023710351247864
0.0021921376242566
0.0020313554251923
0.001886408077193
0.0017551794327693
0.001636415930103
0.0015285461009921
0.0014303808266078
0.0013407133799662
0.0012586984734081
0.0011835990137479
0.0011146435382297
0.0010512211704147
0.0009927257880579
0.00093872595059949
0.00088880135393428
0.00084255722254099
0.00079964509464562
0.00075974339892709
0.00072260967141131
0.00068800138924323
0.00065569750408307
0.00062549956039123
0.0005972233972112
0.00057071821056574
0.00054585359956193
0.00052250436567098
0.00050056121957329
0.0005276847068498
0.0025201293650334
0.0033611810244342
0.0033582505594803
0.0033133270356307
0.0032695807971182
0.0032286316813619
0.0031902894825619
0.0031541747936754
0.0031198259127445
0.003086808343065
0.0030547687302456
0.0030234671520523
0.0029928204026848
0.002962919437281
0.0029339774423198
0.0029062404861809
0.0028799187833154
0.0028582721427463
0.0028348101457808
0.0028128124438055
0.0027920591546072
0.0027723099453991
0.0027532145612093
0.002734657959116
0.0027164099900886
0.0026981965759509
0.0026796794583924
0.0026604733474721
0.0026401656365024
0.0026183905332996