/*--------------------------------*- C++ -*----------------------------------*\
| =========                 |                                                 |
| \\      /  F ield         | OpenFOAM: The Open Source CFD Toolbox           |
|  \\    /   O peration     | Version:  2312                                  |
|   \\  /    A nd           | Website:  www.openfoam.com                      |
|    \\/     M anipulation  |                                                 |
\*---------------------------------------------------------------------------*/
FoamFile
{
    version     2.0;
    format      ascii;
    arch        "LSB;label=32;scalar=64";
    class       volScalarField;
    location    "0.00019";
    object      yPlus;
}
// * * * * * * * * * * * * * * * * * * * * * * * * * * * * * * * * * * * * * //

dimensions      [0 0 0 0 0 0 0];

internalField   uniform 0;

boundaryField
{
    inlet
    {
        type            calculated;
        value           uniform 0;
    }
    outlet
    {
        type            calculated;
        value           uniform 0;
    }
    nozzleWalls
    {
        type            calculated;
        value           nonuniform List<scalar> 
144
(
35.085677044247
34.671861766569
34.241467681432
33.816939968354
33.404657417738
33.006744535342
32.62395203095
32.256209499732
31.903524107515
31.565880304383
31.243371175271
30.936191410099
30.644632539448
30.369089549293
30.110063308911
29.868133586307
29.643911573261
29.437405074804
29.245671154786
29.066552692692
28.8997723099
28.745344509539
28.603346235192
28.473890401462
28.357232513411
28.25382038246
28.164402140502
28.09018713593
28.033114973297
27.996366540851
27.985674462782
28.009992502117
28.088759259902
28.269594772546
28.720623855847
30.876773389949
35.324615740788
34.987025148785
34.564446543443
34.134404694624
33.712605015783
33.303784384973
32.909615294132
32.530612690838
32.166627855248
31.817701284709
31.483828127948
31.165129319475
30.861823467086
30.574227078931
30.302763112125
30.047953953823
29.810395509792
29.590673673686
29.388218091173
29.19973143942
29.023701714176
28.860005115475
28.708675740232
28.569799426434
28.443512665272
28.33011414849
28.230116164105
28.144362321506
28.074214251506
28.02185906948
27.990930253261
27.987960602075
28.023448913692
28.12129762723
28.343881390796
28.943176312134
35.177394526288
34.778573081173
34.348958288884
33.922056259819
33.506433445875
33.104812344038
32.718220117461
32.346736066068
31.990286270008
31.648877848611
31.322570501197
31.011534860732
30.716037803244
30.43644753753
30.173240908629
29.926979191424
29.698277773514
29.487488089819
29.29239072854
29.110174156182
28.940311229521
28.782789985431
28.637675035941
28.505066995016
28.385177020599
28.278396684923
28.18538852672
28.107225368772
28.04563005171
28.003402534688
27.9854640236
27.999831746013
28.062188513767
28.209725511526
28.559078603795
29.82927902638
35.259795055226
34.883986079063
34.456725380783
34.027901770316
33.609091919481
33.203831570924
32.813434480641
32.438205643208
32.07798743029
31.732818788828
31.402723970734
31.087849224978
30.788437202799
30.504830030298
30.237477246462
29.986922627108
29.753774340021
29.538543224181
29.339898966456
29.154566644104
28.981621148306
28.821010655171
28.672785352184
28.537038158826
28.413939529518
28.303832005719
28.207299895522
28.12529436088
28.059347120466
28.011929978982
27.987196248101
27.992592938956
28.040658790369
28.161052919909
28.437679707763
29.278938720769
)
;
    }
    tipWalls
    {
        type            calculated;
        value           nonuniform List<scalar> 
304
(
9.2157286684262
3.0187333674509
4.5537705225117
4.8724384676397
4.7606297838721
4.474649205964
4.0553695996162
3.3750760046399
2.3465445074716
1.2849535972362
0.35496150223136
0.57140759898007
0.57263865063813
0.5125152847792
0.4490128391427
0.39636409397153
0.35560305767555
0.32400110702029
0.29842859393741
0.27672402757434
0.25772785661137
0.24078318940356
0.22553415030677
0.2117716737326
0.19938432994441
0.18830354388493
0.17841541091618
0.16959328995877
0.16170020655311
0.15459744647845
0.14815736291868
0.14227223222654
0.13686031206264
0.13186832819379
0.12726872095481
0.12304976286551
0.11920043884385
0.11569556940732
0.11248833061681
0.1095202361104
0.1067385200355
0.10411560753677
0.10165747779006
0.099392837185875
0.097341873209398
0.095481788364955
0.093752660018184
0.092053568974777
0.090279244596697
0.088357822834854
0.08629343751166
0.084196716524114
0.082188459997785
0.080386393019467
0.078861760519041
0.077621595716467
0.076616249011527
0.075764157871621
0.074992353698846
0.074220552328125
0.073380905688616
0.072438096323677
0.071401790074973
0.070426104524365
0.070731407583853
0.13491051028198
0.13340124284455
0.13125603533075
0.12929954951105
0.12755969457683
0.12595696747421
0.12443519166269
0.12297983170922
0.12165157727883
0.12063123157253
0.12053618124473
0.12319577283486
0.22604998395661
0.22525775173064
0.22293226044743
0.22046111526591
0.21828720067725
0.21649460676941
0.21508190209998
0.21404928070052
0.21339747920526
0.21326074968272
0.21366534825614
0.21463594948081
0.21634140323757
0.21894183697391
0.22249805531616
0.22708321882774
0.23266247369689
0.23845936788637
0.24245053473985
0.23582524252075
1.5841130096404
4.0313263854186
4.7984767852398
4.8465815059563
4.6314082267727
4.286249972732
3.7582330914765
2.9035767484144
1.780945279409
0.83148992336601
0.45928773565282
0.58842949915104
0.54692294773896
0.47943115942526
0.42118869130547
0.37460620534026
0.33882731572163
0.310674790649
0.28719362926325
0.26693132472727
0.24902065832945
0.23296030378962
0.21848029436166
0.20540766118124
0.19368739882881
0.18321810041351
0.17387944875668
0.16553943212611
0.15805837946841
0.15130185754369
0.14515119217136
0.13951112019777
0.13431407122034
0.129520421958
0.12511220022712
0.12107990639403
0.11740747665243
0.11405829094792
0.11097807344365
0.10810857311039
0.10540760366804
0.10286440949556
0.10049902800839
0.098340829993115
0.096391015241766
0.094606452733424
0.092906334036511
0.0911818590938
0.089337898321723
0.087338790662484
0.085241933482483
0.083173481981005
0.081255821243703
0.079587320042817
0.078208410104828
0.077094661053587
0.076174331130485
0.075373853347968
0.074611228630627
0.073812177215268
0.07292340913345
0.071927648788204
0.070882282842241
0.07016562260977
0.070500479884431
0.13454079565735
0.13233299525076
0.13024569159126
0.12840782650228
0.12674540023628
0.12518823799536
0.12369761968856
0.12229176947857
0.12108351441068
0.12038482734499
0.12126930710838
0.12308419048143
22.549502329065
2.1412613105748
4.3318224083989
4.8512596857603
4.8099478010691
4.5560913297013
4.1776926840033
3.5797277695081
2.6323148956982
1.5203555389863
0.59633362271969
0.53232585933362
0.58334311612704
0.53025219956106
0.46334329617457
0.4086024687163
0.3648327841486
0.33119193852087
0.30441617860438
0.2818748155422
0.26226506727668
0.24484837491521
0.22919911372045
0.21508287906718
0.20235396949979
0.19095712044891
0.18078238322904
0.17170623654329
0.1635940878058
0.15630630173527
0.14971155918116
0.14369643818845
0.13817232800473
0.13307883465541
0.12838261292976
0.12406930184593
0.12012905744178
0.11654176762707
0.11326537180621
0.1102430254214
0.10741855229378
0.10475666813752
0.10225515251074
0.099939220843923
0.097834939976775
0.09593153513497
0.094177722823465
0.092481555785221
0.090735101456955
0.088852902109877
0.086817809017769
0.084717609359569
0.082675234559381
0.080812670450234
0.079215326244801
0.07790720364075
0.076851064725896
0.075965892910129
0.075182613617538
0.074417739285865
0.073599667973503
0.072684354513352
0.071665754955094
0.070640627799277
0.070253261573721
3.2910943529137
3.6246774827796
4.7023842516047
4.8683505286488
4.6999704639342
4.3847244081153
3.9165986959867
3.1516474289837
2.0564770364214
1.061257384455
0.3530228335028
0.58575108090182
0.56004480007331
0.49650446869479
0.43463402467079
0.38501202672606
0.34695429223425
0.31718924679536
0.29269679075471
0.27174698722338
0.25331268491689
0.2368205194531
0.22196293283137
0.20854667773681
0.19649604951139
0.18572453867149
0.17611512478394
0.16753843437609
0.15985566478005
0.15292990646799
0.1466377213443
0.14087745969683
0.13557441189608
0.13068226702535
0.12617862645629
0.12205338728933
0.11829346479647
0.11486804424333
0.11172621018883
0.10880896344796
0.10606823598219
0.10348472081371
0.10107192967074
0.098860047184447
0.096860861475718
0.09504059323954
0.093329472920072
0.091620854081162
0.089813412174847
0.087852826120659
0.085767723790286
0.083681318065959
0.081714833166271
0.079977765143622
0.078526310601024
0.077350851706498
0.076390784831594
0.075567289839371
0.07480206682142
0.07401893080509
0.073155549214314
0.072185310161507
0.071138845537215
0.07025533519455
0.072129404315755
)
;
    }
    wedge1
    {
        type            wedge;
    }
    wedge2
    {
        type            wedge;
    }
    defaultFaces
    {
        type            empty;
    }
}


// ************************************************************************* //
