/*--------------------------------*- C++ -*----------------------------------*\
| =========                 |                                                 |
| \\      /  F ield         | OpenFOAM: The Open Source CFD Toolbox           |
|  \\    /   O peration     | Version:  2312                                  |
|   \\  /    A nd           | Website:  www.openfoam.com                      |
|    \\/     M anipulation  |                                                 |
\*---------------------------------------------------------------------------*/
FoamFile
{
    version     2.0;
    format      ascii;
    arch        "LSB;label=32;scalar=64";
    class       volScalarField;
    location    "3000";
    object      maxKappa;
}
// * * * * * * * * * * * * * * * * * * * * * * * * * * * * * * * * * * * * * //

dimensions      [0 0 0 0 0 0 0];

internalField   nonuniform List<scalar> 
20400
(
4.142301014e-05
4.142301018e-05
4.142301018e-05
4.142300991e-05
4.142300945e-05
4.142300968e-05
4.142300968e-05
4.142301002e-05
4.142301358e-05
4.142301683e-05
4.142301683e-05
4.142301656e-05
4.142301518e-05
4.142301197e-05
4.142301174e-05
4.142300952e-05
4.142300795e-05
4.142300734e-05
4.142300569e-05
4.142300573e-05
4.1423006e-05
4.1423006e-05
4.142300562e-05
4.142300451e-05
4.142300451e-05
4.142300458e-05
4.142300474e-05
4.14230055e-05
4.14230055e-05
4.142300527e-05
4.142300527e-05
4.142300527e-05
4.142300523e-05
4.142300703e-05
4.142300703e-05
4.142300707e-05
4.142300818e-05
4.142300921e-05
4.142300952e-05
4.142300952e-05
4.142300871e-05
4.142300841e-05
4.142300818e-05
4.142300718e-05
4.142300787e-05
4.142300798e-05
4.142300902e-05
4.142300902e-05
4.142300821e-05
4.142300802e-05
4.142300772e-05
4.142300733e-05
4.142300749e-05
4.142300764e-05
4.14230086e-05
4.14230086e-05
4.14230086e-05
4.142300806e-05
4.142300806e-05
4.142300794e-05
4.142300879e-05
4.142300879e-05
4.142300879e-05
4.142300905e-05
4.142300913e-05
4.142300951e-05
4.142300951e-05
4.142300944e-05
4.142300848e-05
4.142300867e-05
4.142300867e-05
4.14230084e-05
4.142300798e-05
4.142300798e-05
4.142300855e-05
4.14230089e-05
4.14230089e-05
4.142300882e-05
4.142300947e-05
4.142300982e-05
4.142301001e-05
4.142301016e-05
4.142301016e-05
4.142300997e-05
4.142300936e-05
4.142300966e-05
4.142300966e-05
4.142300917e-05
4.142300917e-05
4.142300932e-05
4.142300955e-05
4.142300955e-05
4.142300924e-05
4.142300894e-05
4.142300813e-05
4.142300683e-05
4.142300534e-05
4.142300557e-05
4.142300557e-05
4.142300499e-05
4.142300499e-05
4.142300492e-05
4.14230048e-05
4.142300511e-05
4.142300511e-05
4.142300492e-05
4.142300415e-05
4.142300476e-05
4.142300557e-05
4.142300557e-05
4.142300583e-05
4.142300583e-05
4.142300553e-05
4.142300576e-05
4.142300576e-05
4.14230056e-05
4.142300491e-05
4.142300614e-05
4.142300744e-05
4.142300733e-05
4.142300755e-05
4.142300752e-05
4.142300752e-05
4.142300744e-05
4.142300732e-05
4.142300702e-05
4.142300725e-05
4.142300706e-05
4.142300771e-05
4.142300736e-05
4.142300794e-05
4.142300794e-05
4.142300763e-05
4.142300763e-05
4.14230079e-05
4.142300771e-05
4.142300774e-05
4.142300732e-05
4.142300751e-05
4.142300748e-05
4.142300793e-05
4.142300786e-05
4.142300725e-05
4.142300797e-05
4.142300797e-05
4.14230079e-05
4.142300797e-05
4.142300767e-05
4.142300656e-05
4.142300656e-05
4.14230064e-05
4.142300767e-05
4.142300786e-05
4.142300805e-05
4.142300755e-05
4.142300701e-05
4.142300709e-05
4.142300587e-05
4.142300613e-05
4.142300835e-05
4.142300801e-05
4.142300805e-05
4.142300912e-05
4.142300866e-05
4.142300816e-05
4.142300847e-05
4.142300686e-05
4.142300694e-05
4.142300728e-05
4.14230077e-05
4.142300682e-05
4.142300774e-05
4.142300739e-05
4.142300812e-05
4.142300755e-05
4.142300778e-05
4.142300789e-05
4.142300812e-05
4.142300793e-05
4.142300789e-05
4.142300778e-05
4.142300778e-05
4.142300781e-05
4.142300732e-05
4.142300732e-05
4.142300762e-05
4.142300801e-05
4.142300797e-05
4.142300781e-05
4.142300789e-05
4.142300739e-05
4.142300739e-05
4.14230072e-05
4.142300674e-05
4.142300724e-05
4.142300686e-05
4.142300777e-05
4.142300797e-05
4.14230082e-05
4.142300804e-05
4.142300709e-05
4.142300697e-05
4.14230059e-05
4.142300571e-05
4.142300578e-05
4.142300678e-05
4.142300728e-05
4.142300728e-05
4.14230072e-05
4.14230072e-05
4.142300739e-05
4.142300739e-05
4.142300728e-05
4.142300728e-05
4.142300747e-05
4.142300731e-05
4.142300597e-05
4.142300597e-05
4.142300525e-05
4.142300552e-05
4.142300559e-05
4.142300567e-05
4.142300567e-05
4.142300716e-05
4.142300781e-05
4.142300793e-05
4.142300793e-05
4.142300739e-05
4.142300835e-05
4.142300854e-05
4.142300858e-05
4.142300858e-05
4.142300796e-05
4.1423008e-05
4.1423008e-05
4.142300846e-05
4.142300846e-05
4.142300873e-05
4.142300873e-05
4.142300766e-05
4.142300785e-05
4.142300827e-05
4.142300827e-05
4.142300827e-05
4.142300808e-05
4.142300716e-05
4.14230072e-05
4.14230072e-05
4.142300655e-05
4.142300743e-05
4.142300773e-05
4.142300773e-05
4.142300792e-05
4.142300792e-05
4.142300739e-05
4.142300716e-05
4.142300716e-05
4.142300716e-05
4.142300716e-05
4.142300792e-05
4.142300792e-05
4.142300731e-05
4.142300712e-05
4.142300758e-05
4.142300758e-05
4.142300758e-05
4.142300796e-05
4.142300796e-05
4.142300788e-05
4.142300788e-05
4.142300796e-05
4.142300796e-05
4.14230088e-05
4.14230088e-05
4.142300911e-05
4.142300911e-05
4.142300853e-05
4.142300869e-05
4.142300869e-05
4.142300873e-05
4.142300873e-05
4.142300781e-05
4.142300735e-05
4.142300739e-05
4.142300796e-05
4.14230088e-05
4.14230088e-05
4.142300811e-05
4.142300804e-05
4.142300788e-05
4.142300792e-05
4.142300811e-05
4.142300811e-05
4.142300765e-05
4.142300765e-05
4.142300696e-05
4.142300708e-05
4.142300815e-05
4.142300857e-05
4.142300857e-05
4.142300846e-05
4.142300903e-05
4.142300968e-05
4.142300987e-05
4.14230101e-05
4.14230101e-05
4.14230114e-05
4.142301186e-05
4.14230119e-05
4.142301255e-05
4.142301282e-05
4.142301282e-05
4.142301377e-05
4.142301462e-05
4.142301462e-05
4.142301427e-05
4.142301309e-05
4.142301282e-05
4.1423014e-05
4.1423014e-05
4.142301351e-05
4.142301335e-05
4.142301492e-05
4.142301492e-05
4.142301362e-05
4.142301297e-05
4.14230127e-05
4.142301278e-05
4.142301343e-05
4.142301343e-05
4.142301393e-05
4.142301397e-05
4.142301397e-05
4.142301324e-05
4.142301362e-05
4.142301404e-05
4.142301404e-05
4.142301286e-05
4.142301263e-05
4.142301263e-05
4.142301228e-05
4.142301251e-05
4.142301251e-05
4.142301339e-05
4.142301351e-05
4.142301351e-05
4.142301515e-05
4.142301515e-05
4.142301488e-05
4.142301435e-05
4.142301412e-05
4.142301305e-05
4.142301339e-05
4.142301339e-05
4.142301393e-05
4.142301393e-05
4.142301358e-05
4.142301358e-05
4.142301362e-05
4.14230137e-05
4.14230137e-05
4.142301335e-05
4.142301396e-05
4.142301396e-05
4.142301377e-05
4.14230137e-05
4.142301308e-05
4.142301308e-05
4.142301377e-05
4.142301389e-05
4.142301389e-05
4.142301351e-05
4.142301351e-05
4.142301343e-05
4.142301343e-05
4.142301266e-05
4.142301343e-05
4.142301366e-05
4.142301416e-05
4.142301416e-05
4.142301389e-05
4.142301354e-05
4.142301335e-05
4.142301194e-05
4.142301109e-05
4.142301041e-05
4.142301002e-05
4.142301102e-05
4.142301113e-05
4.14230122e-05
4.14230122e-05
4.142301209e-05
4.142301243e-05
4.142301247e-05
4.142301247e-05
4.14230119e-05
4.142301282e-05
4.14230132e-05
4.14230132e-05
4.142301278e-05
4.14230119e-05
4.142301167e-05
4.142301113e-05
4.142300945e-05
4.142300991e-05
4.142300991e-05
4.142300968e-05
4.142300956e-05
4.142300968e-05
4.142300972e-05
4.142300972e-05
4.142300903e-05
4.142300895e-05
4.142300865e-05
4.142300769e-05
4.142300734e-05
4.142300903e-05
4.142301006e-05
4.142301106e-05
4.142301174e-05
4.142301182e-05
4.142301182e-05
4.142301117e-05
4.142301174e-05
4.142301174e-05
4.142301186e-05
4.142301186e-05
4.142301358e-05
4.142301392e-05
4.142301392e-05
4.142301389e-05
4.142301389e-05
4.142301285e-05
4.14230132e-05
4.14230132e-05
4.142301354e-05
4.142301354e-05
4.142301392e-05
4.142301392e-05
4.142301392e-05
4.142301389e-05
4.142301419e-05
4.142301427e-05
4.142301427e-05
4.142301324e-05
4.142301324e-05
4.142301324e-05
4.142301243e-05
4.14230127e-05
4.14230127e-05
4.142301251e-05
4.142301251e-05
4.142301232e-05
4.142301247e-05
4.142301247e-05
4.142301239e-05
4.142301262e-05
4.142301262e-05
4.142301278e-05
4.142301278e-05
4.142301228e-05
4.142301213e-05
4.142301293e-05
4.142301293e-05
4.142301377e-05
4.142301377e-05
4.142301301e-05
4.142301316e-05
4.142301316e-05
4.142301297e-05
4.142301262e-05
4.14230127e-05
4.142301274e-05
4.142301281e-05
4.142301281e-05
4.142301251e-05
4.142301243e-05
4.142301243e-05
4.142301293e-05
4.142301308e-05
4.142301308e-05
4.142301301e-05
4.142301281e-05
4.142301316e-05
4.14230132e-05
4.14230132e-05
4.142301266e-05
4.142301266e-05
4.142301086e-05
4.142300972e-05
4.142300937e-05
4.142300933e-05
4.142300861e-05
4.142300937e-05
4.14230096e-05
4.14230096e-05
4.142300845e-05
4.14230091e-05
4.142300922e-05
4.142300922e-05
4.142300796e-05
4.142301018e-05
4.142301366e-05
4.142301366e-05
4.142301347e-05
4.142301167e-05
4.142301167e-05
4.142301098e-05
4.142301155e-05
4.142301465e-05
4.142301683e-05
4.142301626e-05
4.142301411e-05
4.142301185e-05
4.142301163e-05
4.142300921e-05
4.142300921e-05
4.142300784e-05
4.142300829e-05
4.142300868e-05
4.142300864e-05
4.14230081e-05
4.14230081e-05
4.142300749e-05
4.142300734e-05
4.142300688e-05
4.142300692e-05
4.142300799e-05
4.142300787e-05
4.14230076e-05
4.142300611e-05
4.142300523e-05
4.142300493e-05
4.142300554e-05
4.142300703e-05
4.142300672e-05
4.142300737e-05
4.142300856e-05
4.142300932e-05
4.142300952e-05
4.142300856e-05
4.142300829e-05
4.14230081e-05
4.14230071e-05
4.142300726e-05
4.142300795e-05
4.142300806e-05
4.142300902e-05
4.142300814e-05
4.142300795e-05
4.142300749e-05
4.142300684e-05
4.142300741e-05
4.142300756e-05
4.142300775e-05
4.14230086e-05
4.14230086e-05
4.142300749e-05
4.142300806e-05
4.142300794e-05
4.142300798e-05
4.142300879e-05
4.142300879e-05
4.142300829e-05
4.142300909e-05
4.142300921e-05
4.142300951e-05
4.14230094e-05
4.142300848e-05
4.142300848e-05
4.142300867e-05
4.142300813e-05
4.142300737e-05
4.142300798e-05
4.142300779e-05
4.142300867e-05
4.14230089e-05
4.142300875e-05
4.142300863e-05
4.142300963e-05
4.142300989e-05
4.142301005e-05
4.142301016e-05
4.142300978e-05
4.142300901e-05
4.142300947e-05
4.142300966e-05
4.142300897e-05
4.142300917e-05
4.142300867e-05
4.142300939e-05
4.142300955e-05
4.142300909e-05
4.142300874e-05
4.142300756e-05
4.142300698e-05
4.142300779e-05
4.142300832e-05
4.142300832e-05
4.142300817e-05
4.142300802e-05
4.142300813e-05
4.142300805e-05
4.142300783e-05
4.142300779e-05
4.142300794e-05
4.142300809e-05
4.142300863e-05
4.142300863e-05
4.142300878e-05
4.142300878e-05
4.142300859e-05
4.14230079e-05
4.142300798e-05
4.142300802e-05
4.142300813e-05
4.142300832e-05
4.142300817e-05
4.142300786e-05
4.142300794e-05
4.142300775e-05
4.142300759e-05
4.142300752e-05
4.142300786e-05
4.142300771e-05
4.142300775e-05
4.14230079e-05
4.142300782e-05
4.142300782e-05
4.14230079e-05
4.142300797e-05
4.142300805e-05
4.142300794e-05
4.14230079e-05
4.14230079e-05
4.142300774e-05
4.142300774e-05
4.142300751e-05
4.142300751e-05
4.142300793e-05
4.142300793e-05
4.142300793e-05
4.142300843e-05
4.142300797e-05
4.142300797e-05
4.142300809e-05
4.142300797e-05
4.14230079e-05
4.14230079e-05
4.142300805e-05
4.142300858e-05
4.142300774e-05
4.142300805e-05
4.142300805e-05
4.142300778e-05
4.142300709e-05
4.142300709e-05
4.142300789e-05
4.142300835e-05
4.142300835e-05
4.142300801e-05
4.142300805e-05
4.142300912e-05
4.142300912e-05
4.142300843e-05
4.142300847e-05
4.142300847e-05
4.142300831e-05
4.14230074e-05
4.14230077e-05
4.142300801e-05
4.142300782e-05
4.142300797e-05
4.142300812e-05
4.142300812e-05
4.14230082e-05
4.142300793e-05
4.142300812e-05
4.142300812e-05
4.142300789e-05
4.142300785e-05
4.142300778e-05
4.142300781e-05
4.142300781e-05
4.142300747e-05
4.142300774e-05
4.142300801e-05
4.142300801e-05
4.142300793e-05
4.142300789e-05
4.142300789e-05
4.142300797e-05
4.142300801e-05
4.142300789e-05
4.142300804e-05
4.142300816e-05
4.142300812e-05
4.1423008e-05
4.14230082e-05
4.14230082e-05
4.142300793e-05
4.142300778e-05
4.142300816e-05
4.142300816e-05
4.142300785e-05
4.142300751e-05
4.14230077e-05
4.142300751e-05
4.142300797e-05
4.142300793e-05
4.142300789e-05
4.142300816e-05
4.142300846e-05
4.142300839e-05
4.14230085e-05
4.142300846e-05
4.142300854e-05
4.142300831e-05
4.142300862e-05
4.142300854e-05
4.142300839e-05
4.142300819e-05
4.142300819e-05
4.142300819e-05
4.142300793e-05
4.142300793e-05
4.142300743e-05
4.142300743e-05
4.142300819e-05
4.142300846e-05
4.142300858e-05
4.142300796e-05
4.142300796e-05
4.1423008e-05
4.142300773e-05
4.142300846e-05
4.142300792e-05
4.142300873e-05
4.142300785e-05
4.142300747e-05
4.142300773e-05
4.142300819e-05
4.142300827e-05
4.142300789e-05
4.142300808e-05
4.142300716e-05
4.14230072e-05
4.142300674e-05
4.142300639e-05
4.142300712e-05
4.142300773e-05
4.142300727e-05
4.142300792e-05
4.142300758e-05
4.142300647e-05
4.142300716e-05
4.142300651e-05
4.142300716e-05
4.1423007e-05
4.142300792e-05
4.142300746e-05
4.142300712e-05
4.142300712e-05
4.142300758e-05
4.142300746e-05
4.142300754e-05
4.142300796e-05
4.142300758e-05
4.142300788e-05
4.142300788e-05
4.142300796e-05
4.142300796e-05
4.14230088e-05
4.142300853e-05
4.142300911e-05
4.142300482e-05
4.142300456e-05
4.142300463e-05
4.142300498e-05
4.142300486e-05
4.142300452e-05
4.142300448e-05
4.142300452e-05
4.142300444e-05
4.142300467e-05
4.142300475e-05
4.142300471e-05
4.14230049e-05
4.142300482e-05
4.142300448e-05
4.142300475e-05
4.142300498e-05
4.14230049e-05
4.142300482e-05
4.142300498e-05
4.142300498e-05
4.142300551e-05
4.142300505e-05
4.142300459e-05
4.142300521e-05
4.14230049e-05
4.142300448e-05
4.142300482e-05
4.142300501e-05
4.142300509e-05
4.142300501e-05
4.14230054e-05
4.142300509e-05
4.142300478e-05
4.142300501e-05
4.142300528e-05
4.142300517e-05
4.142300448e-05
4.142300421e-05
4.142300436e-05
4.142300436e-05
4.14230044e-05
4.142300448e-05
4.142300429e-05
4.142300421e-05
4.142300455e-05
4.142300467e-05
4.142300471e-05
4.142300486e-05
4.142300459e-05
4.142300459e-05
4.142300475e-05
4.142300475e-05
4.142300513e-05
4.142300528e-05
4.14230049e-05
4.142300498e-05
4.142300475e-05
4.14230049e-05
4.142300497e-05
4.142300543e-05
4.14230052e-05
4.142300486e-05
4.142300532e-05
4.142300559e-05
4.14230054e-05
4.142300543e-05
4.142300505e-05
4.142300498e-05
4.142300543e-05
4.14230054e-05
4.142300486e-05
4.142300452e-05
4.142300513e-05
4.142300532e-05
4.14230062e-05
4.142300654e-05
4.142300624e-05
4.142300631e-05
4.142300624e-05
4.142300643e-05
4.142300819e-05
4.142300876e-05
4.142300868e-05
4.142300876e-05
4.142300807e-05
4.142300681e-05
4.142300643e-05
4.142300597e-05
4.142300605e-05
4.142300597e-05
4.142300547e-05
4.142300532e-05
4.142300562e-05
4.142300559e-05
4.14230052e-05
4.142300559e-05
4.142300551e-05
4.142300551e-05
4.142300555e-05
4.142300559e-05
4.142300578e-05
4.142300555e-05
4.142300559e-05
4.142300547e-05
4.14230057e-05
4.142300566e-05
4.142300509e-05
4.14230049e-05
4.142300505e-05
4.142300501e-05
4.142300482e-05
4.142300425e-05
4.142300425e-05
4.142300432e-05
4.142300425e-05
4.142300482e-05
4.142300432e-05
4.142300428e-05
4.142300417e-05
4.142300451e-05
4.142300471e-05
4.142300467e-05
4.142300486e-05
4.142300497e-05
4.142300478e-05
4.142300459e-05
4.142300501e-05
4.142300497e-05
4.142300486e-05
4.142300497e-05
4.14230049e-05
4.142300505e-05
4.142300509e-05
4.142300497e-05
4.142300513e-05
4.142300555e-05
4.142300555e-05
4.142300578e-05
4.142300566e-05
4.142300551e-05
4.142300593e-05
4.142300582e-05
4.142300555e-05
4.142300543e-05
4.142300547e-05
4.142300539e-05
4.142300559e-05
4.142300524e-05
4.142300467e-05
4.142300432e-05
4.142300421e-05
4.142300436e-05
4.142300455e-05
4.142300547e-05
4.142300501e-05
4.142300444e-05
4.14230044e-05
4.142300444e-05
4.142300535e-05
4.142300509e-05
4.142300486e-05
4.142300474e-05
4.142300467e-05
4.142300471e-05
4.14230047e-05
4.14230044e-05
4.14230044e-05
4.142300474e-05
4.142300524e-05
4.14230052e-05
4.142300497e-05
4.142300467e-05
4.142300478e-05
4.14230052e-05
4.142300532e-05
4.142300535e-05
4.142300516e-05
4.142300509e-05
4.142300509e-05
4.142300482e-05
4.142300463e-05
4.142300513e-05
4.142300528e-05
4.142300597e-05
4.142300601e-05
4.14230065e-05
4.142300612e-05
4.142300647e-05
4.142300639e-05
4.142300616e-05
4.142300662e-05
4.142300627e-05
4.142300601e-05
4.14230057e-05
4.142300559e-05
4.142300543e-05
4.142300551e-05
4.142300578e-05
4.142300566e-05
4.142300509e-05
4.142300501e-05
4.142300497e-05
4.142300474e-05
4.142300516e-05
4.142300497e-05
4.142300478e-05
4.142300474e-05
4.14230044e-05
4.142300436e-05
4.142300432e-05
4.142300425e-05
4.142300428e-05
4.142300486e-05
4.142300497e-05
4.142300467e-05
4.142300455e-05
4.142300451e-05
4.14230044e-05
4.142300497e-05
4.142300486e-05
4.142300528e-05
4.142300566e-05
4.142300581e-05
4.142300627e-05
4.142301171e-05
4.142301171e-05
4.142301079e-05
4.142301366e-05
4.142301324e-05
4.142301056e-05
4.142301167e-05
4.142300971e-05
4.142301071e-05
4.142300795e-05
4.142300807e-05
4.142300807e-05
4.142300784e-05
4.142300856e-05
4.142300941e-05
4.142300941e-05
4.142300921e-05
4.14230091e-05
4.142300887e-05
4.142300933e-05
4.142300933e-05
4.142300868e-05
4.14230081e-05
4.142300741e-05
4.142300726e-05
4.142300684e-05
4.142300692e-05
4.142300799e-05
4.14230078e-05
4.142300741e-05
4.142300565e-05
4.142300554e-05
4.142300481e-05
4.142300531e-05
4.142300531e-05
4.142300561e-05
4.142300573e-05
4.142300615e-05
4.142300657e-05
4.142300718e-05
4.142300711e-05
4.142300707e-05
4.142300737e-05
4.142300707e-05
4.142300718e-05
4.142300657e-05
4.142300649e-05
4.142300722e-05
4.142300749e-05
4.142300756e-05
4.142300745e-05
4.142300687e-05
4.142300749e-05
4.14230073e-05
4.142300814e-05
4.142300787e-05
4.142300798e-05
4.142300814e-05
4.142300764e-05
4.142300791e-05
4.142300764e-05
4.142300756e-05
4.142300764e-05
4.142300768e-05
4.142300775e-05
4.142300787e-05
4.142300787e-05
4.142300794e-05
4.142300791e-05
4.142300794e-05
4.142300798e-05
4.142300791e-05
4.142300836e-05
4.142300837e-05
4.142300817e-05
4.142300768e-05
4.142300802e-05
4.142300806e-05
4.142300833e-05
4.142300813e-05
4.142300787e-05
4.142300821e-05
4.142300821e-05
4.142300829e-05
4.142300813e-05
4.142300821e-05
4.142300813e-05
4.142300817e-05
4.142300817e-05
4.142300813e-05
4.142300798e-05
4.142300783e-05
4.142300764e-05
4.142300767e-05
4.142300775e-05
4.142300844e-05
4.142300844e-05
4.14230084e-05
4.142300832e-05
4.142300809e-05
4.142300821e-05
4.142300844e-05
4.142300855e-05
4.142300878e-05
4.142300821e-05
4.142300802e-05
4.142300813e-05
4.142300817e-05
4.142300863e-05
4.142300848e-05
4.142300878e-05
4.142300844e-05
4.142300813e-05
4.142300798e-05
4.142300805e-05
4.142300832e-05
4.142300832e-05
4.142300828e-05
4.142300794e-05
4.142300794e-05
4.142300775e-05
4.142300805e-05
4.142300817e-05
4.142300786e-05
4.142300801e-05
4.142300805e-05
4.142300809e-05
4.142300801e-05
4.142300805e-05
4.142300782e-05
4.142300805e-05
4.142300805e-05
4.142300797e-05
4.142300786e-05
4.142300748e-05
4.142300729e-05
4.142300748e-05
4.142300721e-05
4.142300706e-05
4.142300771e-05
4.142300786e-05
4.142300843e-05
4.142300843e-05
4.142300767e-05
4.142300809e-05
4.142300809e-05
4.142300866e-05
4.14230087e-05
4.142300881e-05
4.142300858e-05
4.142300858e-05
4.142300862e-05
4.142300736e-05
4.142300717e-05
4.142300744e-05
4.142300789e-05
4.142300766e-05
4.142300789e-05
4.142300789e-05
4.142300766e-05
4.142300808e-05
4.142300774e-05
4.142300847e-05
4.142300816e-05
4.142300828e-05
4.142300831e-05
4.142300847e-05
4.142300847e-05
4.14230082e-05
4.142300774e-05
4.142300801e-05
4.142300801e-05
4.142300797e-05
4.142300797e-05
4.142300812e-05
4.14230082e-05
4.14230082e-05
4.142300793e-05
4.142300785e-05
4.142300747e-05
4.142300697e-05
4.142300739e-05
4.142300766e-05
4.142300755e-05
4.142300747e-05
4.142300751e-05
4.142300758e-05
4.142300766e-05
4.142300778e-05
4.142300774e-05
4.142300778e-05
4.142300797e-05
4.142300801e-05
4.142300801e-05
4.142300808e-05
4.142300816e-05
4.142300816e-05
4.142300808e-05
4.142300778e-05
4.142300797e-05
4.142300793e-05
4.142300778e-05
4.142300816e-05
4.142300816e-05
4.142300816e-05
4.14230077e-05
4.14230077e-05
4.14230077e-05
4.142300797e-05
4.142300797e-05
4.142300789e-05
4.142300831e-05
4.142300846e-05
4.142300846e-05
4.14230085e-05
4.14230085e-05
4.142300854e-05
4.142300854e-05
4.142300866e-05
4.142300865e-05
4.14230082e-05
4.14230082e-05
4.142300819e-05
4.142300781e-05
4.142300793e-05
4.142300754e-05
4.142300743e-05
4.142300774e-05
4.142300774e-05
4.142300774e-05
4.142300743e-05
4.142300739e-05
4.142300751e-05
4.142300751e-05
4.142300766e-05
4.142300777e-05
4.142300793e-05
4.142300796e-05
4.142300796e-05
4.142300796e-05
4.142300808e-05
4.142300827e-05
4.142300827e-05
4.142300819e-05
4.142300808e-05
4.142300785e-05
4.142300777e-05
4.142300777e-05
4.142300777e-05
4.142300812e-05
4.142300827e-05
4.142300827e-05
4.142300762e-05
4.142300731e-05
4.14230064e-05
4.142300651e-05
4.142300624e-05
4.142300632e-05
4.142300613e-05
4.142300536e-05
4.142300502e-05
4.142300505e-05
4.142300502e-05
4.142300502e-05
4.142300601e-05
4.142300609e-05
4.142300574e-05
4.142300574e-05
4.142300555e-05
4.142300574e-05
4.142300525e-05
4.142300479e-05
4.142300498e-05
4.142300486e-05
4.142300467e-05
4.142300525e-05
4.142300505e-05
4.142300444e-05
4.142300475e-05
4.142300498e-05
4.142300486e-05
4.142300662e-05
4.142300609e-05
4.142300586e-05
4.142300597e-05
4.142300605e-05
4.142300605e-05
4.142300647e-05
4.142300678e-05
4.142300689e-05
4.142300639e-05
4.142300632e-05
4.142300639e-05
4.142300655e-05
4.142300681e-05
4.142300712e-05
4.142300697e-05
4.142300701e-05
4.142300685e-05
4.142300643e-05
4.142300647e-05
4.142300655e-05
4.142300624e-05
4.14230062e-05
4.14230057e-05
4.142300547e-05
4.14230054e-05
4.14230054e-05
4.142300498e-05
4.142300498e-05
4.142300509e-05
4.142300498e-05
4.142300463e-05
4.142300463e-05
4.142300486e-05
4.14230049e-05
4.142300486e-05
4.142300463e-05
4.142300498e-05
4.142300479e-05
4.142300479e-05
4.142300467e-05
4.142300471e-05
4.142300486e-05
4.142300486e-05
4.142300459e-05
4.142300456e-05
4.14230044e-05
4.142300467e-05
4.142300459e-05
4.142300459e-05
4.142300498e-05
4.142300498e-05
4.142300482e-05
4.142300478e-05
4.142300543e-05
4.142300543e-05
4.142300509e-05
4.142300547e-05
4.142300559e-05
4.142300559e-05
4.142300543e-05
4.142300543e-05
4.142300501e-05
4.142300543e-05
4.142300543e-05
4.14230054e-05
4.142300509e-05
4.142300524e-05
4.142300532e-05
4.142300551e-05
4.142300589e-05
4.142300574e-05
4.142300593e-05
4.142300589e-05
4.142300574e-05
4.142300517e-05
4.142300459e-05
4.142300444e-05
4.142300475e-05
4.142300497e-05
4.142300605e-05
4.142300582e-05
4.142300563e-05
4.142300605e-05
4.142300605e-05
4.142300593e-05
4.14230054e-05
4.142300563e-05
4.142300563e-05
4.142300559e-05
4.142300559e-05
4.142300559e-05
4.142300551e-05
4.142300559e-05
4.142300563e-05
4.142300578e-05
4.142300578e-05
4.142300559e-05
4.142300559e-05
4.14230057e-05
4.14230057e-05
4.142300566e-05
4.142300501e-05
4.142300505e-05
4.142300505e-05
4.142300501e-05
4.142300513e-05
4.142300486e-05
4.142300448e-05
4.142300459e-05
4.142300482e-05
4.142300482e-05
4.14230044e-05
4.142300429e-05
4.142300444e-05
4.142300482e-05
4.142300498e-05
4.14230049e-05
4.142300497e-05
4.142300497e-05
4.142300471e-05
4.142300501e-05
4.142300501e-05
4.142300498e-05
4.142300486e-05
4.14230049e-05
4.14230049e-05
4.142300509e-05
4.142300509e-05
4.142300524e-05
4.142300555e-05
4.142300555e-05
4.142300578e-05
4.142300578e-05
4.142300562e-05
4.142300593e-05
4.142300593e-05
4.142300578e-05
4.142300551e-05
4.142300547e-05
4.142300547e-05
4.142300559e-05
4.142300559e-05
4.142300509e-05
4.142300463e-05
4.142300467e-05
4.142300455e-05
4.142300467e-05
4.142300475e-05
4.142300455e-05
4.142300475e-05
4.142300486e-05
4.142300455e-05
4.142300467e-05
4.142300478e-05
4.142300486e-05
4.142300486e-05
4.142300498e-05
4.14230049e-05
4.142300475e-05
4.142300475e-05
4.142300463e-05
4.142300448e-05
4.14230044e-05
4.142300451e-05
4.142300467e-05
4.142300467e-05
4.142300467e-05
4.142300459e-05
4.142300471e-05
4.142300451e-05
4.142300432e-05
4.142300497e-05
4.14230049e-05
4.142300459e-05
4.142300463e-05
4.14230052e-05
4.142300536e-05
4.142300597e-05
4.142300601e-05
4.14230065e-05
4.14230065e-05
4.142300647e-05
4.142300639e-05
4.142300635e-05
4.142300662e-05
4.142300662e-05
4.142300612e-05
4.142300585e-05
4.142300566e-05
4.142300555e-05
4.142300555e-05
4.142300578e-05
4.142300578e-05
4.142300562e-05
4.142300497e-05
4.142300497e-05
4.142300455e-05
4.142300517e-05
4.142300517e-05
4.142300482e-05
4.142300497e-05
4.142300497e-05
4.142300459e-05
4.142300478e-05
4.142300486e-05
4.142300478e-05
4.142300459e-05
4.142300455e-05
4.142300482e-05
4.142300467e-05
4.142300463e-05
4.142300467e-05
4.142300497e-05
4.142300497e-05
4.142300547e-05
4.142300574e-05
4.142300589e-05
4.142300627e-05
4.14230106e-05
4.142301171e-05
4.142300849e-05
4.142300979e-05
4.142300995e-05
4.142301056e-05
4.142300964e-05
4.14230088e-05
4.142300864e-05
4.142300891e-05
4.142300891e-05
4.142300876e-05
4.142300883e-05
4.142300883e-05
4.142300929e-05
4.142300941e-05
4.14230091e-05
4.14230091e-05
4.142300872e-05
4.142300902e-05
4.142300933e-05
4.142300822e-05
4.142300696e-05
4.142300615e-05
4.142300565e-05
4.142300535e-05
4.142300573e-05
4.142300592e-05
4.142300569e-05
4.142300604e-05
4.142300642e-05
4.142300726e-05
4.142300768e-05
4.142300749e-05
4.142300741e-05
4.142300737e-05
4.142300711e-05
4.142300776e-05
4.142300772e-05
4.14230081e-05
4.142300791e-05
4.142300795e-05
4.142300875e-05
4.142300875e-05
4.142300871e-05
4.142300837e-05
4.142300844e-05
4.142300833e-05
4.142300852e-05
4.142300821e-05
4.142300833e-05
4.142300821e-05
4.142300856e-05
4.142300902e-05
4.142300902e-05
4.142300879e-05
4.142300863e-05
4.142300867e-05
4.142300867e-05
4.142300867e-05
4.142300818e-05
4.142300856e-05
4.142300856e-05
4.142300821e-05
4.14230081e-05
4.142300779e-05
4.14230081e-05
4.142300821e-05
4.142300829e-05
4.142300806e-05
4.142300814e-05
4.142300794e-05
4.142300802e-05
4.142300837e-05
4.142300821e-05
4.142300844e-05
4.142300798e-05
4.142300806e-05
4.142300829e-05
4.142300794e-05
4.142300798e-05
4.142300798e-05
4.142300833e-05
4.142300859e-05
4.142300859e-05
4.142300848e-05
4.142300813e-05
4.142300802e-05
4.142300817e-05
4.142300813e-05
4.142300794e-05
4.142300806e-05
4.142300767e-05
4.142300783e-05
4.142300798e-05
4.14230081e-05
4.142300844e-05
4.142300836e-05
4.142300802e-05
4.142300863e-05
4.142300871e-05
4.142300871e-05
4.14230092e-05
4.14230092e-05
4.142300875e-05
4.142300874e-05
4.142300874e-05
4.142300886e-05
4.142300867e-05
4.142300882e-05
4.142300851e-05
4.142300829e-05
4.142300813e-05
4.142300786e-05
4.142300805e-05
4.142300809e-05
4.142300828e-05
4.142300844e-05
4.142300851e-05
4.142300775e-05
4.142300798e-05
4.142300817e-05
4.142300817e-05
4.142300805e-05
4.142300809e-05
4.142300809e-05
4.142300809e-05
4.142300805e-05
4.142300805e-05
4.142300851e-05
4.142300843e-05
4.142300863e-05
4.142300851e-05
4.142300797e-05
4.142300794e-05
4.142300755e-05
4.142300759e-05
4.142300797e-05
4.142300732e-05
4.142300778e-05
4.142300816e-05
4.142300797e-05
4.142300851e-05
4.142300786e-05
4.142300778e-05
4.142300866e-05
4.14230087e-05
4.142300881e-05
4.142300881e-05
4.142300793e-05
4.142300862e-05
4.142300862e-05
4.142300862e-05
4.142300724e-05
4.142300759e-05
4.142300789e-05
4.142300789e-05
4.142300755e-05
4.142300774e-05
4.142300774e-05
4.142300808e-05
4.142300808e-05
4.142300778e-05
4.142300785e-05
4.142300778e-05
4.142300782e-05
4.142300763e-05
4.142300793e-05
4.142300774e-05
4.142300774e-05
4.142300789e-05
4.142300782e-05
4.142300774e-05
4.142300785e-05
4.142300785e-05
4.14230077e-05
4.142300759e-05
4.142300747e-05
4.142300785e-05
4.142300785e-05
4.142300728e-05
4.142300724e-05
4.14230072e-05
4.142300678e-05
4.142300655e-05
4.142300663e-05
4.142300694e-05
4.142300682e-05
4.142300663e-05
4.142300655e-05
4.142300686e-05
4.142300747e-05
4.142300751e-05
4.142300739e-05
4.142300678e-05
4.142300621e-05
4.142300617e-05
4.142300667e-05
4.142300686e-05
4.142300648e-05
4.14230069e-05
4.142300682e-05
4.142300682e-05
4.142300674e-05
4.142300671e-05
4.142300678e-05
4.14230072e-05
4.142300709e-05
4.142300716e-05
4.142300739e-05
4.142300736e-05
4.14230072e-05
4.142300705e-05
4.142300728e-05
4.142300732e-05
4.142300762e-05
4.142300762e-05
4.142300781e-05
4.142300866e-05
4.142300808e-05
4.14230082e-05
4.142300758e-05
4.142300732e-05
4.14230077e-05
4.142300747e-05
4.142300739e-05
4.142300712e-05
4.142300774e-05
4.142300774e-05
4.142300754e-05
4.142300716e-05
4.142300732e-05
4.142300751e-05
4.142300743e-05
4.142300762e-05
4.142300774e-05
4.142300789e-05
4.142300796e-05
4.142300796e-05
4.142300774e-05
4.142300796e-05
4.142300827e-05
4.142300819e-05
4.1423008e-05
4.142300808e-05
4.142300785e-05
4.14230077e-05
4.142300777e-05
4.142300773e-05
4.1423008e-05
4.142300827e-05
4.142300777e-05
4.142300747e-05
4.142300705e-05
4.142300712e-05
4.142300712e-05
4.142300712e-05
4.142300712e-05
4.142300712e-05
4.142300701e-05
4.142300708e-05
4.142300709e-05
4.142300709e-05
4.14230072e-05
4.14230072e-05
4.142300686e-05
4.142300685e-05
4.142300663e-05
4.14230067e-05
4.14230067e-05
4.142300655e-05
4.142300655e-05
4.142300651e-05
4.142300651e-05
4.14230064e-05
4.142300628e-05
4.14230064e-05
4.142300655e-05
4.142300682e-05
4.142300689e-05
4.142300689e-05
4.142300666e-05
4.14230067e-05
4.14230067e-05
4.14230072e-05
4.142300708e-05
4.142300647e-05
4.142300662e-05
4.142300685e-05
4.142300689e-05
4.142300689e-05
4.142300651e-05
4.142300651e-05
4.142300662e-05
4.142300697e-05
4.142300712e-05
4.142300712e-05
4.142300701e-05
4.142300701e-05
4.142300678e-05
4.142300655e-05
4.142300655e-05
4.142300655e-05
4.14230062e-05
4.142300616e-05
4.142300559e-05
4.142300536e-05
4.142300502e-05
4.142300498e-05
4.142300486e-05
4.142300467e-05
4.142300463e-05
4.142300433e-05
4.142300475e-05
4.142300486e-05
4.14230049e-05
4.14230049e-05
4.142300482e-05
4.142300498e-05
4.142300498e-05
4.142300479e-05
4.142300479e-05
4.14230046e-05
4.142300467e-05
4.142300467e-05
4.142300467e-05
4.142300456e-05
4.142300463e-05
4.142300479e-05
4.142300471e-05