/*--------------------------------*- C++ -*----------------------------------*\
| =========                 |                                                 |
| \\      /  F ield         | OpenFOAM: The Open Source CFD Toolbox           |
|  \\    /   O peration     | Version:  2312                                  |
|   \\  /    A nd           | Website:  www.openfoam.com                      |
|    \\/     M anipulation  |                                                 |
\*---------------------------------------------------------------------------*/
FoamFile
{
    version     2.0;
    format      ascii;
    arch        "LSB;label=32;scalar=64";
    class       volScalarField;
    location    "3000";
    object      p;
}
// * * * * * * * * * * * * * * * * * * * * * * * * * * * * * * * * * * * * * //

dimensions      [1 -1 -2 0 0 0 0];

internalField   nonuniform List<scalar> 
20400
(
101323.2163
101323.2156
101323.2149
101323.2142
101323.2137
101323.2133
101323.213
101323.2128
101323.2127
101323.2126
101323.2126
101323.2127
101323.2128
101323.213
101323.2134
101323.2138
101323.2143
101323.215
101323.2157
101323.2166
101323.2176
101323.2187
101323.22
101323.2214
101323.2229
101323.2245
101323.2263
101323.2282
101323.2302
101323.2325
101323.2348
101323.2373
101323.24
101323.2428
101323.2457
101323.2488
101323.2521
101323.2555
101323.259
101323.2627
101323.2665
101323.2705
101323.2747
101323.279
101323.2835
101323.2881
101323.2929
101323.2979
101323.303
101323.3083
101323.3138
101323.3194
101323.3252
101323.3312
101323.3373
101323.3436
101323.3501
101323.3568
101323.3637
101323.3707
101323.3779
101323.3853
101323.3929
101323.4007
101323.4086
101323.4168
101323.4251
101323.4337
101323.4424
101323.4514
101323.4606
101323.4699
101323.4795
101323.4893
101323.4993
101323.5096
101323.52
101323.5307
101323.5416
101323.5528
101323.5642
101323.5758
101323.5877
101323.5999
101323.6123
101323.6249
101323.6379
101323.6511
101323.6645
101323.6783
101323.6924
101323.7067
101323.7213
101323.7363
101323.7515
101323.7671
101323.783
101323.7992
101323.8157
101323.8326
101323.8498
101323.8673
101323.8852
101323.9034
101323.922
101323.9409
101323.9602
101323.9799
101323.9999
101324.0203
101324.041
101324.0621
101324.0836
101324.1054
101324.1276
101324.15
101324.1729
101324.1961
101324.2196
101324.2435
101324.2676
101324.292
101324.3167
101324.3417
101324.3669
101324.3923
101324.418
101324.4438
101324.4698
101324.4958
101324.522
101324.5482
101324.5747
101324.601
101324.6273
101324.6536
101324.6798
101324.7059
101324.7318
101324.7576
101324.7832
101324.8085
101324.8335
101324.8582
101324.8826
101324.9066
101324.9301
101324.953
101324.9759
101324.9981
101325.0197
101325.0409
101325.0614
101325.0814
101325.1008
101325.1196
101325.1377
101325.1552
101325.172
101325.1881
101325.2035
101325.2183
101325.2325
101325.246
101325.2589
101325.2712
101325.2829
101325.2939
101325.3044
101325.3142
101325.3234
101325.332
101325.3401
101325.3475
101325.3545
101325.361
101325.3669
101325.3724
101325.3774
101325.382
101325.3862
101325.39
101325.3935
101325.3966
101325.3994
101325.4019
101325.4041
101325.406
101325.4078
101325.4093
101325.4106
101325.4117
101325.4127
101325.4135
101325.4142
101325.4148
101325.4153
101325.4156
101325.4159
101325.4162
101325.4164
101325.4165
101325.4166
101325.4167
101325.4168
101325.4168
101325.4169
101325.4169
101325.417
101325.417
101325.4171
101325.4172
101325.4173
101325.4175
101325.4177
101325.4179
101325.4181
101325.4183
101325.4186
101325.419
101325.4194
101325.4198
101325.4202
101325.4207
101325.4213
101325.4219
101325.4225
101325.4231
101325.4238
101325.4245
101325.4252
101325.426
101325.4268
101325.4276
101325.4285
101325.4294
101325.4303
101325.4312
101325.4321
101325.4331
101325.434
101325.435
101325.436
101325.437
101325.438
101325.439
101325.4401
101325.4411
101325.4421
101325.4431
101325.4442
101325.4452
101325.4462
101325.4472
101325.4482
101325.4492
101325.4502
101325.4512
101325.4522
101325.4531
101325.454
101325.455
101325.4559
101325.4568
101325.4576
101325.4585
101325.4593
101325.4601
101325.4609
101325.4616
101325.4624
101325.4631
101325.4637
101325.4644
101325.465
101325.4656
101325.4662
101325.4667
101325.4672
101325.4677
101325.4682
101325.4686
101325.469
101325.4693
101325.4696
101325.4699
101325.4702
101325.4704
101325.4706
101325.4707
101325.4708
101325.4709
101325.4709
101325.471
101325.4709
101325.4709
101325.4708
101325.4706
101325.4705
101325.4703
101325.47
101325.4698
101325.4694
101325.4691
101325.4687
101325.4683
101325.4678
101325.4674
101325.4668
101325.4663
101325.4657
101325.4651
101325.4644
101325.4637
101325.463
101325.4622
101325.4614
101325.4606
101325.4597
101325.4588
101325.4579
101325.4569
101325.4559
101325.4549
101325.4539
101325.4528
101325.4516
101325.4505
101325.4493
101325.4481
101325.4469
101325.4456
101325.4443
101325.443
101325.4416
101325.4402
101325.4388
101325.4374
101325.4359
101325.4344
101325.4329
101325.4313
101325.4297
101325.4281
101325.4265
101325.4249
101325.4232
101325.4215
101325.4197
101325.418
101325.4162
101325.4144
101325.4126
101325.4108
101325.4089
101325.407
101325.4051
101325.4032
101325.4012
101325.3992
101325.3972
101325.3952
101325.3932
101325.3911
101325.389
101325.3869
101325.3848
101325.3827
101325.3805
101325.3784
101325.3762
101325.374
101325.3718
101325.3695
101325.3672
101325.365
101325.3627
101325.3604
101325.358
101325.3557
101325.3533
101325.351
101325.3486
101325.3462
101325.3437
101325.3413
101325.3389
101325.3364
101325.3339
101325.3314
101325.3289
101325.3264
101325.3239
101325.3213
101325.3188
101325.3162
101325.3136
101325.311
101325.3084
101325.3058
101325.3032
101325.3005
101325.2979
101325.2952
101325.2925
101325.2898
101325.2871
101325.2844
101325.2817
101325.279
101325.2762
101325.2735
101325.2707
101325.2679
101325.2651
101325.2623
101325.2595
101325.2567
101325.2539
101325.2511
101325.2482
101325.2454
101325.2425
101325.2396
101325.2368
101325.2339
101325.231
101325.2281
101325.2252
101325.2222
101325.2193
101325.2164
101325.2134
101325.2105
101325.2075
101325.2045
101325.2016
101325.1986
101325.1956
101325.1926
101325.1896
101325.1866
101325.1836
101325.1805
101325.1775
101325.1744
101325.1714
101325.1683
101325.1653
101325.1622
101325.1591
101325.1561
101325.153
101325.1499
101325.1468
101325.1437
101325.1405
101325.1374
101325.1343
101325.1312
101325.128
101325.1249
101325.1217
101325.1186
101325.1154
101325.1123
101325.1091
101325.1059
101325.1027
101325.0995
101325.0963
101325.0931
101325.0899
101325.0867
101325.0835
101325.0803
101325.0771
101325.0738
101325.0706
101325.0674
101325.0641
101325.0609
101325.0576
101325.0544
101325.0511
101325.0479
101325.0446
101325.0413
101325.038
101325.0348
101325.0315
101325.0282
101325.0249
101325.0216
101325.0183
101325.015
101325.0117
101325.0084
101325.0051
101325.0018
101323.2168
101323.2162
101323.2156
101323.2151
101323.2147
101323.2143
101323.214
101323.2138
101323.2137
101323.2136
101323.2135
101323.2136
101323.2137
101323.2139
101323.2143
101323.2147
101323.2152
101323.2159
101323.2167
101323.2175
101323.2185
101323.2197
101323.2209
101323.2223
101323.2238
101323.2254
101323.2272
101323.2291
101323.2311
101323.2334
101323.2357
101323.2382
101323.2409
101323.2436
101323.2466
101323.2497
101323.2529
101323.2563
101323.2598
101323.2635
101323.2673
101323.2713
101323.2755
101323.2798
101323.2843
101323.2889
101323.2937
101323.2987
101323.3038
101323.3091
101323.3146
101323.3202
101323.326
101323.332
101323.3381
101323.3444
101323.3509
101323.3576
101323.3644
101323.3714
101323.3786
101323.386
101323.3936
101323.4014
101323.4094
101323.4175
101323.4259
101323.4344
101323.4432
101323.4521
101323.4613
101323.4706
101323.4802
101323.49
101323.5
101323.5103
101323.5207
101323.5314
101323.5423
101323.5535
101323.5649
101323.5765
101323.5884
101323.6005
101323.6129
101323.6256
101323.6385
101323.6517
101323.6652
101323.6789
101323.693
101323.7073
101323.7219
101323.7369
101323.7521
101323.7676
101323.7835
101323.7997
101323.8162
101323.833
101323.8502
101323.8677
101323.8855
101323.9037
101323.9223
101323.9412
101323.9604
101323.98
101324
101324.0203
101324.041
101324.0621
101324.0835
101324.1052
101324.1273
101324.1497
101324.1724
101324.1955
101324.2189
101324.2425
101324.2665
101324.2908
101324.3153
101324.3401
101324.3652
101324.3904
101324.4159
101324.4415
101324.4672
101324.4931
101324.519
101324.5449
101324.5711
101324.5973
101324.6234
101324.6494
101324.6754
101324.7013
101324.727
101324.7526
101324.778
101324.8031
101324.828
101324.8525
101324.8767
101324.9006
101324.9242
101324.9474
101324.9697
101324.9917
101325.0132
101325.0343
101325.0548
101325.0747
101325.0941
101325.1129
101325.1311
101325.1486
101325.1657
101325.1821
101325.1979
101325.2131
101325.2276
101325.2414
101325.2546
101325.2672
101325.2791
101325.2904
101325.3011
101325.3111
101325.3205
101325.3293
101325.3375
101325.3451
101325.3522
101325.3588
101325.3648
101325.3704
101325.3756
101325.3803
101325.3846
101325.3885
101325.392
101325.3952
101325.398
101325.4006
101325.4029
101325.4049
101325.4067
101325.4083
101325.4097
101325.4108
101325.4119
101325.4127
101325.4135
101325.4141
101325.4146
101325.4151
101325.4154
101325.4157
101325.4159
101325.4161
101325.4162
101325.4163
101325.4164
101325.4165
101325.4166
101325.4167
101325.4168
101325.4168
101325.417
101325.4171
101325.4172
101325.4174
101325.4176
101325.4178
101325.4181
101325.4183
101325.4186
101325.419
101325.4194
101325.4198
101325.4203
101325.4208
101325.4214
101325.4219
101325.4226
101325.4232
101325.4239
101325.4246
101325.4254
101325.4261
101325.4269
101325.4278
101325.4286
101325.4295
101325.4304
101325.4313
101325.4323
101325.4332
101325.4342
101325.4352
101325.4361
101325.4371
101325.4382
101325.4392
101325.4402
101325.4412
101325.4422
101325.4433
101325.4443
101325.4453
101325.4463
101325.4473
101325.4483
101325.4493
101325.4503
101325.4513
101325.4523
101325.4532
101325.4541
101325.455
101325.4559
101325.4568
101325.4577
101325.4585
101325.4594
101325.4602
101325.4609
101325.4617
101325.4624
101325.4631
101325.4638
101325.4644
101325.4651
101325.4656
101325.4662
101325.4667
101325.4673
101325.4677
101325.4682
101325.4686
101325.469
101325.4693
101325.4696
101325.4699
101325.4702
101325.4704
101325.4705
101325.4707
101325.4708
101325.4709
101325.4709
101325.4709
101325.4709
101325.4708
101325.4707
101325.4706
101325.4704
101325.4702
101325.47
101325.4697
101325.4694
101325.469
101325.4687
101325.4682
101325.4678
101325.4673
101325.4668
101325.4662
101325.4656
101325.465
101325.4643
101325.4636
101325.4629
101325.4621
101325.4613
101325.4605
101325.4596
101325.4587
101325.4578
101325.4569
101325.4559
101325.4548
101325.4538
101325.4527
101325.4516
101325.4504
101325.4492
101325.448
101325.4468
101325.4455
101325.4442
101325.4429
101325.4415
101325.4401
101325.4387
101325.4373
101325.4358
101325.4343
101325.4328
101325.4312
101325.4297
101325.4281
101325.4264
101325.4248
101325.4231
101325.4214
101325.4197
101325.4179
101325.4161
101325.4143
101325.4125
101325.4107
101325.4088
101325.4069
101325.405
101325.4031
101325.4011
101325.3992
101325.3972
101325.3951
101325.3931
101325.391
101325.389
101325.3869
101325.3848
101325.3826
101325.3805
101325.3783
101325.3761
101325.3739
101325.3717
101325.3694
101325.3672
101325.3649
101325.3626
101325.3603
101325.358
101325.3556
101325.3533
101325.3509
101325.3485
101325.3461
101325.3437
101325.3413
101325.3388
101325.3363
101325.3339
101325.3314
101325.3289
101325.3264
101325.3238
101325.3213
101325.3187
101325.3161
101325.3136
101325.311
101325.3084
101325.3057
101325.3031
101325.3005
101325.2978
101325.2951
101325.2925
101325.2898
101325.2871
101325.2844
101325.2816
101325.2789
101325.2762
101325.2734
101325.2706
101325.2679
101325.2651
101325.2623
101325.2595
101325.2567
101325.2539
101325.251
101325.2482
101325.2453
101325.2425
101325.2396
101325.2367
101325.2338
101325.2309
101325.228
101325.2251
101325.2222
101325.2193
101325.2163
101325.2134
101325.2104
101325.2075
101325.2045
101325.2015
101325.1986
101325.1956
101325.1926
101325.1896
101325.1865
101325.1835
101325.1805
101325.1775
101325.1744
101325.1714
101325.1683
101325.1652
101325.1622
101325.1591
101325.156
101325.1529
101325.1498
101325.1467
101325.1436
101325.1405
101325.1374
101325.1343
101325.1311
101325.128
101325.1249
101325.1217
101325.1185
101325.1154
101325.1122
101325.1091
101325.1059
101325.1027
101325.0995
101325.0963
101325.0931
101325.0899
101325.0867
101325.0835
101325.0803
101325.077
101325.0738
101325.0706
101325.0674
101325.0641
101325.0609
101325.0576
101325.0544
101325.0511
101325.0478
101325.0446
101325.0413
101325.038
101325.0347
101325.0315
101325.0282
101325.0249
101325.0216
101325.0183
101325.015
101325.0117
101325.0084
101325.0051
101325.0018
101323.2177
101323.2168
101323.2162
101323.2158
101323.2155
101323.2152
101323.2149
101323.2147
101323.2146
101323.2145
101323.2144
101323.2144
101323.2146
101323.2148
101323.2152
101323.2156
101323.2161
101323.2168
101323.2175
101323.2184
101323.2194
101323.2205
101323.2218
101323.2231
101323.2246
101323.2262
101323.228
101323.2299
101323.232
101323.2342
101323.2365
101323.239
101323.2416
101323.2444
101323.2473
101323.2504
101323.2537
101323.2571
101323.2606
101323.2643
101323.2681
101323.2721
101323.2762
101323.2805
101323.285
101323.2896
101323.2944
101323.2994
101323.3045
101323.3098
101323.3152
101323.3209
101323.3266
101323.3326
101323.3387
101323.345
101323.3515
101323.3582
101323.365
101323.372
101323.3792
101323.3866
101323.3942
101323.402
101323.4099
101323.4181
101323.4264
101323.435
101323.4437
101323.4527
101323.4618
101323.4712
101323.4808
101323.4906
101323.5006
101323.5108
101323.5212
101323.5319
101323.5428
101323.554
101323.5654
101323.577
101323.5889
101323.601
101323.6134
101323.626
101323.6389
101323.6521
101323.6656
101323.6793
101323.6933
101323.7076
101323.7222
101323.7371
101323.7523
101323.7678
101323.7836
101323.7997
101323.8162
101323.833
101323.8501
101323.8675
101323.8853
101323.9034
101323.9219
101323.9408
101323.9599
101323.9794
101323.9993
101324.0195
101324.0401
101324.061
101324.0822
101324.1038
101324.1257
101324.148
101324.1706
101324.1935
101324.2167
101324.2403
101324.2641
101324.2882
101324.3126
101324.3373
101324.3621
101324.3872
101324.4125
101324.438
101324.4636
101324.4894
101324.5154
101324.5416
101324.5673
101324.5932
101324.6192
101324.6452
101324.6711
101324.6969
101324.7226
101324.7481
101324.7735
101324.7986
101324.8234
101324.848
101324.8723
101324.8962
101324.9198
101324.9432
101324.9657
101324.9879
101325.0096
101325.0309
101325.0516
101325.0717
101325.0913
101325.1102
101325.1286
101325.1463
101325.1635
101325.1801
101325.196
101325.2112
101325.2258
101325.2397
101325.2529
101325.2655
101325.2773
101325.2886
101325.2992
101325.3092
101325.3186
101325.3274
101325.3356
101325.3433
101325.3504
101325.357
101325.3631
101325.3688
101325.374
101325.3787
101325.383
101325.387
101325.3906
101325.3938
101325.3967
101325.3994
101325.4017
101325.4038
101325.4056
101325.4073
101325.4087
101325.4099
101325.411
101325.4119
101325.4127
101325.4134
101325.4139
101325.4144
101325.4148
101325.4151
101325.4154
101325.4156
101325.4158
101325.4159
101325.416
101325.4162
101325.4163
101325.4164
101325.4165
101325.4166
101325.4167
101325.4169
101325.417
101325.4172
101325.4175
101325.4177
101325.418
101325.4183
101325.4186
101325.419
101325.4194
101325.4198
101325.4203
101325.4208
101325.4214
101325.422
101325.4226
101325.4233
101325.424
101325.4247
101325.4255
101325.4262
101325.4271
101325.4279
101325.4287
101325.4296
101325.4305
101325.4315
101325.4324
101325.4334
101325.4343
101325.4353
101325.4363
101325.4373
101325.4383
101325.4393
101325.4403
101325.4414
101325.4424
101325.4434
101325.4444
101325.4454
101325.4465
101325.4475
101325.4485
101325.4495
101325.4504
101325.4514
101325.4524
101325.4533
101325.4542
101325.4552
101325.4561
101325.4569
101325.4578
101325.4586
101325.4594
101325.4602
101325.461
101325.4618
101325.4625
101325.4632
101325.4639
101325.4645
101325.4651
101325.4657
101325.4663
101325.4668
101325.4673
101325.4678
101325.4682
101325.4686
101325.469
101325.4693
101325.4697
101325.4699
101325.4702
101325.4704
101325.4706
101325.4707
101325.4708
101325.4709
101325.4709
101325.4709
101325.4709
101325.4708
101325.4707
101325.4706
101325.4704
101325.4702
101325.47
101325.4697
101325.4694
101325.469
101325.4686
101325.4682
101325.4678
101325.4673
101325.4667
101325.4662
101325.4656
101325.465
101325.4643
101325.4636
101325.4629
101325.4621
101325.4613
101325.4605
101325.4596
101325.4587
101325.4578
101325.4568
101325.4558
101325.4548
101325.4537
101325.4526
101325.4515
101325.4504
101325.4492
101325.448
101325.4467
101325.4454
101325.4441
101325.4428
101325.4415
101325.4401
101325.4387
101325.4372
101325.4357
101325.4342
101325.4327
101325.4312
101325.4296
101325.428
101325.4264
101325.4247
101325.423
101325.4213
101325.4196
101325.4179
101325.4161
101325.4143
101325.4125
101325.4106
101325.4087
101325.4069
101325.4049
101325.403
101325.4011
101325.3991
101325.3971
101325.3951
101325.393
101325.391
101325.3889
101325.3868
101325.3847
101325.3826
101325.3804
101325.3782
101325.3761
101325.3738
101325.3716
101325.3694
101325.3671
101325.3648
101325.3626
101325.3602
101325.3579
101325.3556
101325.3532
101325.3508
101325.3485
101325.3461
101325.3436
101325.3412
101325.3388
101325.3363
101325.3338
101325.3313
101325.3288
101325.3263
101325.3238
101325.3212
101325.3187
101325.3161
101325.3135
101325.3109
101325.3083
101325.3057
101325.3031
101325.3004
101325.2978
101325.2951
101325.2924
101325.2897
101325.287
101325.2843
101325.2816
101325.2789
101325.2761
101325.2734
101325.2706
101325.2678
101325.265
101325.2623
101325.2595
101325.2566
101325.2538
101325.251
101325.2481
101325.2453
101325.2424
101325.2396
101325.2367
101325.2338
101325.2309
101325.228
101325.2251
101325.2222
101325.2192
101325.2163
101325.2134
101325.2104
101325.2074
101325.2045
101325.2015
101325.1985
101325.1955
101325.1925
101325.1895
101325.1865
101325.1835
101325.1805
101325.1774
101325.1744
101325.1713
101325.1683
101325.1652
101325.1621
101325.1591
101325.156
101325.1529
101325.1498
101325.1467
101325.1436
101325.1405
101325.1374
101325.1342
101325.1311
101325.128
101325.1248
101325.1217
101325.1185
101325.1154
101325.1122
101325.109
101325.1059
101325.1027
101325.0995
101325.0963
101325.0931
101325.0899
101325.0867
101325.0835
101325.0803
101325.077
101325.0738
101325.0706
101325.0673
101325.0641
101325.0608
101325.0576
101325.0543
101325.0511
101325.0478
101325.0445
101325.0413
101325.038
101325.0347
101325.0314
101325.0281
101325.0249
101325.0216
101325.0183
101325.015
101325.0116
101325.0083
101325.0051
101325.0018
101323.2186
101323.2174
101323.2167
101323.2163
101323.216
101323.2158
101323.2155
101323.2154
101323.2152
101323.2151
101323.2151
101323.2151
101323.2153
101323.2155
101323.2159
101323.2163
101323.2168
101323.2175
101323.2182
101323.2191
101323.2201
101323.2212
101323.2224
101323.2238
101323.2253
101323.2269
101323.2286
101323.2305
101323.2326
101323.2348
101323.2371
101323.2396
101323.2422
101323.245
101323.2479
101323.251
101323.2542
101323.2576
101323.2612
101323.2648
101323.2686
101323.2726
101323.2767
101323.2811
101323.2855
101323.2902
101323.295
101323.2999
101323.305
101323.3103
101323.3158
101323.3214
101323.3272
101323.3331
101323.3393
101323.3456
101323.352
101323.3587
101323.3655
101323.3726
101323.3798
101323.3871
101323.3947
101323.4025
101323.4104
101323.4186
101323.4269
101323.4355
101323.4442
101323.4531
101323.4623
101323.4716
101323.4812
101323.491
101323.501
101323.5112
101323.5216
101323.5323
101323.5431
101323.5543
101323.5656
101323.5772
101323.5891
101323.6012
101323.6135
101323.6261
101323.639
101323.6521
101323.6655
101323.6792
101323.6932
101323.7074
101323.7219
101323.7367
101323.7519
101323.7673
101323.783
101323.7991
101323.8154
101323.8321
101323.8492
101323.8665
101323.8842
101323.9022
101323.9206
101323.9393
101323.9584
101323.9778
101323.9975
101324.0175
101324.0379
101324.0587
101324.0799
101324.1013
101324.1232
101324.1453
101324.1678
101324.1907
101324.2138
101324.2373
101324.2611
101324.2851
101324.3094
101324.334
101324.3589
101324.3839
101324.4092
101324.4346
101324.4603
101324.4861
101324.5121
101324.5384
101324.5642
101324.5902
101324.6164
101324.6425
101324.6685
101324.6945
101324.7203
101324.746
101324.7715
101324.7968
101324.8218
101324.8465
101324.8709
101324.895
101324.9186
101324.9418
101324.9648
101324.9872
101325.0091
101325.0305
101325.0513
101325.0716
101325.0912
101325.1103
101325.1287
101325.1465
101325.1635
101325.1799
101325.1957
101325.2107
101325.2252
101325.2389
101325.252
101325.2644
101325.2762
101325.2874
101325.2979
101325.3079
101325.3172
101325.326
101325.3342
101325.3418
101325.349
101325.3556
101325.3617
101325.3673
101325.3725
101325.3773
101325.3817
101325.3856
101325.3893
101325.3925
101325.3955
101325.3981
101325.4005
101325.4026
101325.4045
101325.4062
101325.4076
101325.4089
101325.41
101325.411
101325.4118
101325.4125
101325.4131
101325.4136
101325.414
101325.4144
101325.4147
101325.415
101325.4152
101325.4154
101325.4155
101325.4157
101325.4158
101325.4159
101325.4161
101325.4162
101325.4164
101325.4166
101325.4168
101325.417
101325.4172
101325.4175
101325.4178
101325.4181
101325.4185
101325.4188
101325.4193
101325.4197
101325.4202
101325.4208
101325.4214
101325.422
101325.4226
101325.4233
101325.424
101325.4247
101325.4255
101325.4263
101325.4271
101325.428
101325.4288
101325.4297
101325.4306
101325.4316
101325.4325
101325.4335
101325.4344
101325.4354
101325.4364
101325.4374
101325.4384
101325.4395
101325.4405
101325.4415
101325.4425
101325.4436
101325.4446
101325.4456
101325.4466
101325.4476
101325.4486
101325.4496
101325.4506
101325.4516
101325.4525
101325.4535
101325.4544
101325.4553
101325.4562
101325.4571
101325.4579
101325.4588
101325.4596
101325.4604
101325.4611
101325.4619
101325.4626
101325.4633
101325.464
101325.4646
101325.4652
101325.4658
101325.4664
101325.4669
101325.4674
101325.4679
101325.4683
101325.4687
101325.4691
101325.4694
101325.4697
101325.47
101325.4702
101325.4705
101325.4706
101325.4708
101325.4709
101325.4709
101325.471
101325.471
101325.4709
101325.4709
101325.4708
101325.4706
101325.4705
101325.4702
101325.47
101325.4697
101325.4694
101325.469
101325.4687
101325.4682
101325.4678
101325.4673
101325.4667
101325.4662
101325.4656
101325.465
101325.4643
101325.4636
101325.4629
101325.4621
101325.4613
101325.4605
101325.4596
101325.4587
101325.4578
101325.4568
101325.4558
101325.4548
101325.4537
101325.4526
101325.4515
101325.4503
101325.4491
101325.4479
101325.4467
101325.4454
101325.4441
101325.4428
101325.4414
101325.44
101325.4386
101325.4372
101325.4357
101325.4342
101325.4327
101325.4311
101325.4296
101325.428
101325.4263
101325.4247
101325.423
101325.4213
101325.4196
101325.4178
101325.416
101325.4142
101325.4124
101325.4106
101325.4087
101325.4068
101325.4049
101325.403
101325.401
101325.399
101325.3971
101325.395
101325.393
101325.3909
101325.3889
101325.3868
101325.3847
101325.3825
101325.3804
101325.3782
101325.376
101325.3738
101325.3716
101325.3693
101325.3671
101325.3648
101325.3625
101325.3602
101325.3579
101325.3555
101325.3532
101325.3508
101325.3484
101325.346
101325.3436
101325.3412
101325.3387
101325.3363
101325.3338
101325.3313
101325.3288
101325.3263
101325.3237
101325.3212
101325.3186
101325.3161
101325.3135
101325.3109
101325.3083
101325.3057
101325.303
101325.3004
101325.2977
101325.2951
101325.2924
101325.2897
101325.287
101325.2843
101325.2816
101325.2788
101325.2761
101325.2733
101325.2706
101325.2678
101325.265
101325.2622
101325.2594
101325.2566
101325.2538
101325.251
101325.2481
101325.2453
101325.2424
101325.2395
101325.2367
101325.2338
101325.2309
101325.228
101325.2251
101325.2221
101325.2192
101325.2163
101325.2133
101325.2104
101325.2074
101325.2045
101325.2015
101325.1985
101325.1955
101325.1925
101325.1895
101325.1865
101325.1835
101325.1804
101325.1774
101325.1744
101325.1713
101325.1683
101325.1652
101325.1621
101325.1591
101325.156
101325.1529
101325.1498
101325.1467
101325.1436
101325.1405
101325.1373
101325.1342
101325.1311
101325.128
101325.1248
101325.1217
101325.1185
101325.1153
101325.1122
101325.109
101325.1058
101325.1027
101325.0995
101325.0963
101325.0931
101325.0899
101325.0867
101325.0835
101325.0802
101325.077
101325.0738
101325.0706
101325.0673
101325.0641
101325.0608
101325.0576
101325.0543
101325.0511
101325.0478
101325.0445
101325.0413
101325.038
101325.0347
101325.0314
101325.0281
101325.0248
101325.0215
101325.0182
101325.0149
101325.0116
101325.0083
101325.0051
101325.0018
101323.2192
101323.2179
101323.2171
101323.2167
101323.2163
101323.2161
101323.2159
101323.2157
101323.2156
101323.2155
101323.2155
101323.2156
101323.2158
101323.216
101323.2164
101323.2168
101323.2173
101323.218
101323.2187
101323.2196
101323.2206
101323.2217
101323.2229
101323.2243
101323.2258
101323.2274
101323.2291
101323.231
101323.233
101323.2352
101323.2376
101323.2401
101323.2427
101323.2455
101323.2485
101323.2516
101323.2548
101323.2582
101323.2618
101323.2654
101323.2692
101323.2732
101323.2773
101323.2816
101323.2861
101323.2907
101323.2955
101323.3005
101323.3056
101323.3109
101323.3163
101323.3219
101323.3277
101323.3337
101323.3398
101323.3461
101323.3526
101323.3592
101323.3661
101323.3731
101323.3803
101323.3877
101323.3952
101323.403
101323.4109
101323.419
101323.4273
101323.4358
101323.4445
101323.4534
101323.4625
101323.4718
101323.4813
101323.491
101323.501
101323.5111
101323.5215
101323.5321
101323.543
101323.554
101323.5653
101323.5769
101323.5887
101323.6007
101323.613
101323.6255
101323.6383
101323.6514
101323.6647
101323.6783
101323.6922
101323.7063
101323.7208
101323.7355
101323.7505
101323.7659
101323.7815
101323.7975
101323.8138
101323.8304
101323.8473
101323.8646
101323.8822
101323.9001
101323.9183
101323.9369
101323.9559
101323.9752
101323.9949
101324.015
101324.0354
101324.0562
101324.0773
101324.0988
101324.1206
101324.1428
101324.1654
101324.1883
101324.2115
101324.235
101324.2588
101324.2829
101324.3073
101324.332
101324.3569
101324.3821
101324.4075
101324.433
101324.4587
101324.4846
101324.5106
101324.5367
101324.563
101324.5893
101324.6155
101324.6418
101324.668
101324.6941
101324.72
101324.7458
101324.7715
101324.7968
101324.822
101324.8468
101324.8713
101324.8954
101324.919
101324.9423
101324.9652
101324.9875
101325.0093
101325.0306
101325.0513
101325.0714
101325.091
101325.1099
101325.1282
101325.1459
101325.1628
101325.1791
101325.1948
101325.2098
101325.2241
101325.2378
101325.2508
101325.2632
101325.2749
101325.286
101325.2965
101325.3064
101325.3157
101325.3245
101325.3327
101325.3403
101325.3474
101325.354
101325.3601
101325.3658
101325.371
101325.3757
101325.3801
101325.3841
101325.3877
101325.391
101325.394
101325.3967
101325.3991
101325.4012
101325.4031
101325.4048
101325.4063
101325.4076
101325.4088
101325.4098
101325.4106
101325.4114
101325.412
101325.4126
101325.413
101325.4134
101325.4138
101325.4141
101325.4143
101325.4145
101325.4147
101325.4149
101325.4151
101325.4153
101325.4154
101325.4156
101325.4158
101325.416
101325.4163
101325.4165
101325.4168
101325.4171
101325.4174
101325.4178
101325.4182
101325.4186
101325.419
101325.4195
101325.42
101325.4206
101325.4212
101325.4218
101325.4225
101325.4232
101325.4239
101325.4247
101325.4255
101325.4263
101325.4271
101325.428
101325.4289
101325.4298
101325.4307
101325.4316
101325.4326
101325.4336
101325.4345
101325.4355
101325.4365
101325.4376
101325.4386
101325.4396
101325.4406
101325.4417
101325.4427
101325.4437
101325.4447
101325.4458
101325.4468
101325.4478
101325.4488
101325.4498
101325.4508
101325.4517
101325.4527
101325.4536
101325.4546
101325.4555
101325.4564
101325.4573
101325.4581
101325.4589
101325.4598
101325.4606
101325.4613
101325.4621
101325.4628
101325.4635
101325.4641
101325.4648
101325.4654
101325.466
101325.4665
101325.4671
101325.4676
101325.468
101325.4684
101325.4688
101325.4692
101325.4696
101325.4699
101325.4701
101325.4704
101325.4706
101325.4707
101325.4709
101325.471
101325.471
101325.4711
101325.4711
101325.471
101325.471
101325.4709
101325.4707
101325.4705
101325.4703
101325.4701
101325.4698
101325.4695
101325.4691
101325.4687
101325.4683
101325.4678
101325.4673
101325.4668
101325.4662
101325.4656
101325.465
101325.4643
101325.4636
101325.4629
101325.4621
101325.4613
101325.4605
101325.4596
101325.4587
101325.4578
101325.4568
101325.4558
101325.4548
101325.4537
101325.4526
101325.4515
101325.4503
101325.4492
101325.4479
101325.4467
101325.4454
101325.4441
101325.4428
101325.4414
101325.44
101325.4386
101325.4372
101325.4357
101325.4342
101325.4327
101325.4311
101325.4295
101325.4279
101325.4263
101325.4247
101325.423
101325.4213
101325.4195
101325.4178
101325.416
101325.4142
101325.4124
101325.4106
101325.4087
101325.4068
101325.4049
101325.403
101325.401
101325.399
101325.397
101325.395
101325.393
101325.3909
101325.3888
101325.3867
101325.3846
101325.3825
101325.3803
101325.3782
101325.376
101325.3738
101325.3716
101325.3693
101325.3671
101325.3648
101325.3625
101325.3602
101325.3579
101325.3555
101325.3532
101325.3508
101325.3484
101325.346
101325.3436
101325.3411
101325.3387
101325.3362
101325.3337
101325.3313
101325.3288
101325.3262
101325.3237
101325.3212
101325.3186
101325.316
101325.3135
101325.3109
101325.3083
101325.3056
101325.303
101325.3004
101325.2977
101325.295
101325.2924
101325.2897
101325.287
101325.2843
101325.2815
101325.2788
101325.2761
101325.2733
101325.2706
101325.2678
101325.265
101325.2622
101325.2594
101325.2566
101325.2538
101325.2509
101325.2481
101325.2452
101325.2424
101325.2395
101325.2366
101325.2338
101325.2309
101325.228
101325.225
101325.2221
101325.2192
101325.2163
101325.2133
101325.2104
101325.2074
101325.2044
101325.2015
101325.1985
101325.1955
101325.1925
101325.1895
101325.1865
101325.1834
101325.1804
101325.1774
101325.1743
101325.1713
101325.1682