/*--------------------------------*- C++ -*----------------------------------*\
| =========                 |                                                 |
| \\      /  F ield         | OpenFOAM: The Open Source CFD Toolbox           |
|  \\    /   O peration     | Version:  2312                                  |
|   \\  /    A nd           | Website:  www.openfoam.com                      |
|    \\/     M anipulation  |                                                 |
\*---------------------------------------------------------------------------*/
FoamFile
{
    version     2.0;
    format      ascii;
    arch        "LSB;label=32;scalar=64";
    class       surfaceScalarField;
    location    "3000";
    object      phi;
}
// * * * * * * * * * * * * * * * * * * * * * * * * * * * * * * * * * * * * * //

dimensions      [1 0 -1 0 0 0 0];

oriented        oriented;

internalField   nonuniform List<scalar> 
40240
(
2.057914919e-05
-2.057914789e-05
9.376511401e-06
1.120263656e-05
-3.510143861e-05
4.447795021e-05
-0.000107597591
7.249615122e-05
-0.0002009759289
9.337833796e-05
-0.0003080186501
0.0001070427204
-0.0004227904205
0.0001147717685
-0.0005413747825
0.0001185843642
-0.0006616952485
0.0001203204645
-0.0007829003822
0.0001212051335
-0.0009047569279
0.0001218565453
-0.001027395019
0.0001226380905
-0.001150680754
0.0001232857353
-0.001274010763
0.0001233300089
-0.001396850409
0.0001228396467
-0.001518999136
0.0001221487281
-0.001640419231
0.0001214200936
-0.001761108339
0.000120689107
-0.001881021681
0.0001199133451
-0.002000076568
0.0001190548835
-0.002118222295
0.0001181457255
-0.002235503768
0.0001172814742
-0.002352046373
0.0001165426036
-0.002467986332
0.0001159399617
-0.002583460463
0.0001154741288
-0.002698564156
0.0001151036941
-0.002813236042
0.000114671886
-0.002927267141
0.0001140310955
-0.003040389545
0.0001131224067
-0.003152374727
0.0001119851807
-0.003263118361
0.0001107436341
-0.003372637695
0.0001095193336
-0.003480998869
0.0001083611723
-0.003588260033
0.0001072611655
-0.0036944253
0.000106165266
-0.003799438227
0.0001050129275
-0.003903319518
0.000103881289
-0.004006359068
0.0001030395504
-0.004109050009
0.0001026909402
-0.004211755552
0.0001027055418
-0.004314383371
0.0001026278169
-0.004416375306
0.0001019919373
-0.00451748918
0.0001011138727
-0.004617741294
0.0001002521141
-0.004717213507
9.947221382e-05
-0.004815979019
9.876550881e-05
-0.004914094237
9.811522029e-05
-0.005011603075
9.750883532e-05
-0.005108540092
9.69370159e-05
-0.005204932898
9.639280618e-05
-0.005300804698
9.587180146e-05
-0.005396176694
9.537199358e-05
-0.005491069805
9.489311127e-05
-0.005585505425
9.443561923e-05
-0.005679505724
9.400029883e-05
-0.005773094262
9.3588536e-05
-0.005866296441
9.320217923e-05
-0.005959138292
9.284184966e-05
-0.006051643266
9.250497362e-05
-0.006143830287
9.218702309e-05
-0.006235715105
9.188481848e-05
-0.006327304481
9.158937407e-05
-0.006418571091
9.126661228e-05
-0.006509458642
9.088755365e-05
-0.006599994824
9.053618011e-05
-0.006690226401
9.023157843e-05
-0.006780191549
8.996514773e-05
-0.006869917053
8.972550528e-05
-0.006959422034
8.950497944e-05
-0.007048722529
8.930049589e-05
-0.00713783118
8.910864797e-05
-0.007226757007
8.892582779e-05
-0.007315503453
8.874644504e-05
-0.007404069137
8.856568667e-05
-0.007492451651
8.838251074e-05
-0.007580648504
8.819685334e-05
-0.007668653148
8.80046457e-05
-0.007756455467
8.780231779e-05
-0.00784404808
8.759261357e-05
-0.007931419879
8.737179861e-05
-0.008018554428
8.713454854e-05
-0.008105426376
8.687194669e-05
-0.008192004325
8.65779515e-05
-0.008278256493
8.625216607e-05
-0.008364148182
8.589169067e-05
-0.008449636751
8.548856859e-05
-0.00853467938
8.504263021e-05
-0.008619216191
8.453680925e-05
-0.008703159391
8.394319968e-05
-0.008786436488
8.327709754e-05
-0.008868966945
8.253045778e-05
-0.00895066229
8.169534392e-05
-0.00903143059
8.076829864e-05
-0.009111162713
7.973212542e-05
-0.009189766533
7.860381723e-05
-0.009267132577
7.736604397e-05
-0.009343133011
7.600043623e-05
-0.009417597703
7.446469099e-05
-0.009490324027
7.272632575e-05
-0.009561117045
7.079301833e-05
-0.009629786317
6.866927235e-05
-0.009696187117
6.640080219e-05
-0.0097601958
6.400868314e-05
-0.009821619074
6.142327224e-05
-0.009880103675
5.848460275e-05
-0.00993524761
5.514393402e-05
-0.009986771446
5.152383699e-05
-0.01003444989
4.767844145e-05
-0.01007810252
4.365263573e-05
-0.01011745874
3.935621645e-05
-0.01015236237
3.490363162e-05
-0.01018265367
3.029130201e-05
-0.01020743243
2.477875955e-05
-0.01022654984
1.911740609e-05
-0.01023966792
1.311807866e-05
-0.01024670554
7.037619944e-06
-0.01024836631
1.660765734e-06
-0.01024249934
-5.866965132e-06
-0.01022882739
-1.367194693e-05
-0.01020695867
-2.186872207e-05
-0.01017657485
-3.038381977e-05
-0.01013746073
-3.911412606e-05
-0.01008955118
-4.790954649e-05
-0.01003248469
-5.706649517e-05
-0.009965778683
-6.67060022e-05
-0.00988902996
-7.674872416e-05
-0.009801788742
-8.724121712e-05
-0.009703520459
-9.826828239e-05
-0.009593528959
-0.0001099915011
-0.009471372816
-0.0001221561406
-0.009339907312
-0.0001314655031
-0.00920904605
-0.000130861264
-0.009053191186
-0.000155854863
-0.008887173117
-0.0001660180679
-0.008710691446
-0.0001764816726
-0.008523383026
-0.0001873084182
-0.00832524088
-0.0001981421445
-0.008116093959
-0.0002091469208
-0.007895841747
-0.0002202522145
-0.007664586117
-0.0002312556282
-0.007422580383
-0.0002420057355
-0.007170135813
-0.0002524445707
-0.006907568721
-0.0002625670887
-0.00663512566
-0.0002724430603
-0.006352614222
-0.0002825114376
-0.006058465333
-0.0002941488934
-0.005752233819
-0.0003062315129
-0.005465550449
-0.0002866833721
-0.005146967708
-0.0003185827413
-0.004826138778
-0.0003208289311
-0.004500900154
-0.0003252386215
-0.004170763237
-0.0003301369158
-0.003836220298
-0.0003345429361
-0.003497668095
-0.000338552204
-0.003155600962
-0.0003420671323
-0.002810591695
-0.0003450092666
-0.002462892597
-0.0003476990958
-0.002112154324
-0.000350738275
-0.0017625595
-0.0003495948234
-0.001415243812
-0.0003473156883
-0.001069560199
-0.0003456836124
-0.0007258239552
-0.0003437362439
-0.0003848195582
-0.0003410043982
-4.712521482e-05
-0.0003376943429
0.0002879219319
-0.0003350471489
0.000621115669
-0.0003331937357
0.0009516704728
-0.0003305548051
0.001278369736
-0.0003266992619
0.001600140312
-0.0003217705764
0.001916127344
-0.0003159870289
0.002225648581
-0.0003095212404
0.002528149668
-0.0003025010856
0.002823172572
-0.0002950229029
0.00311033406
-0.0002871614885
0.003389311468
-0.0002789774088
0.003659833545
-0.0002705220765
0.003921674529
-0.0002618409851
0.004174650175
-0.000252975644
0.004418614888
-0.0002439647122
0.004653459489
-0.0002348446027
0.004879109288
-0.0002256497986
0.005095522289
-0.0002164130011
0.005302687548
-0.0002071652591
0.005500623569
-0.0001979360195
0.005689376458
-0.0001887528897
0.005869017656
-0.000179641199
0.006039642336
-0.0001706246809
0.006201368371
-0.0001617260347
0.006354334961
-0.0001529665895
0.006498700707
-0.0001443657476
0.006634641475
-0.0001359407662
0.006762348322
-0.0001277068486
0.006882025622
-0.0001196772985
0.006993889282
-0.0001118636605
0.007098165086
-0.0001042758017
0.007195087105
-9.692201849e-05
0.007284896217
-8.980911577e-05
0.007367838712
-8.29424941e-05
0.007444164956
-7.632624402e-05
0.007514128171
-6.99632164e-05
0.007577983287
-6.385511429e-05
0.007635985861
-5.800257661e-05
0.007688391116
-5.240525611e-05
0.007735453041
-4.706192186e-05
0.007777423563
-4.197052238e-05
0.007814551868
-3.712830596e-05
0.007847083734
-3.253186404e-05
0.007875260965
-2.81772344e-05
0.007899320965
-2.405999842e-05
0.007919496321
-2.017535648e-05
0.00793601465
-1.651832925e-05
0.0079490961
-1.308145004e-05
0.007958947216
-9.851113471e-06
0.007965763911
-6.816697902e-06
0.007969791827
-4.027915117e-06
0.007971326075
-1.534248616e-06
0.007970470538
8.555359154e-07
0.007967221591
3.248947881e-06
0.007961734802
5.48679129e-06
0.007954206488
7.528311373e-06
0.007944828877
9.377611062e-06
0.007933790569
1.103830588e-05
0.007921284268
1.250630459e-05
0.007907488211
1.379605485e-05
0.007892555726
1.49324876e-05
0.007876619549
1.593617407e-05
0.007859800512
1.6819037e-05
0.007842212454
1.758806001e-05
0.007823963233
1.824922113e-05
0.007805154539
1.880869289e-05
0.007785882
1.92725405e-05
0.007766235604
1.964639516e-05
0.007746299902
1.993570137e-05
0.00772615389
2.014601178e-05
0.007705871632
2.028225645e-05
0.007685525347
2.034628643e-05
0.007665187841
2.033750471e-05
0.007644928561
2.025928089e-05
0.007624808195
2.012036651e-05
0.007604880703
1.992749011e-05
0.007585196938
1.968376569e-05
0.007565802937
1.939399992e-05
0.007546740529
1.906241e-05
0.007528048935
1.869159177e-05
0.007509763355
1.828558013e-05
0.007491915228
1.784812784e-05
0.007474532994
1.738223311e-05
0.007457642504
1.689049135e-05
0.007441267607
1.637489506e-05
0.007425430567
1.583704097e-05
0.007410152
1.527856793e-05
0.007395450636
1.470136416e-05
0.007381343168
1.41074683e-05
0.007367844229
1.349893648e-05
0.007354966472
1.287775988e-05
0.007342720628
1.224584232e-05
0.007331115623
1.160500642e-05
0.007320158647
1.095697328e-05
0.007309855274
1.030337382e-05
0.007300209541
9.645734496e-06
0.007291224047
8.985493698e-06
0.007282900046
8.324000642e-06
0.007275237526
7.662521133e-06
0.007268235291
7.002233007e-06
0.007261891053
6.34423923e-06
0.007256201498
5.68955423e-06
0.007251162408
5.039089426e-06
0.007246768774
4.393633267e-06
0.007243014976
3.753798734e-06
0.007239895343
3.119634718e-06
0.007237405788
2.489554026e-06
0.007235545509
1.860282752e-06
0.007234311699
1.233807524e-06
0.007233681527
6.301716076e-07
0.007233615395
6.613382115e-08
0.007234085687
-4.702919616e-07
0.007235103898
-1.018210968e-06
0.007236685653
-1.581754971e-06
0.007238828601
-2.142945942e-06
0.007241548022
-2.719422382e-06
0.007244768618
-3.220595946e-06
0.007248475674
-3.707053495e-06
0.007252661591
-4.185917357e-06
0.00725733473
-4.673141446e-06
0.007262493778
-5.159045914e-06
0.007268120526
-5.626748583e-06
0.00727419465
-6.074123344e-06
0.007280694356
-6.499708721e-06
0.007287604802
-6.910447704e-06
0.007294918943
-7.314137084e-06
0.007302627482
-7.708540418e-06
0.007310719888
-8.092408194e-06
0.007319180714
-8.460826146e-06
0.00732799221
-8.811495716e-06
0.007337141068
-9.148855844e-06
0.007346613981
-9.472912302e-06
0.007356399459
-9.785480277e-06
0.007366486972
-1.008751172e-05
0.00737686419
-1.037721661e-05
0.00738751718
-1.065298902e-05
0.007398431789
-1.09146121e-05
0.007409595688
-1.11638971e-05
0.007420996659
-1.14009727e-05
0.007432623099
-1.16264374e-05
0.007444464144
-1.184104636e-05
0.007456508726
-1.20445836e-05
0.007468745286
-1.223655811e-05
0.007481162276
-1.241698928e-05
0.007493748367
-1.258608959e-05
0.00750649283
-1.274446561e-05
0.007519385182
-1.28923527e-05
0.007532415197
-1.303001472e-05
0.007545573116
-1.315791652e-05
0.007558849409
-1.327629469e-05
0.007572234536
-1.338512828e-05
0.007585719034
-1.348449591e-05
0.007599293711
-1.357467965e-05
0.007612949735
-1.365602595e-05
0.007626678503
-1.372876791e-05
0.007640471723
-1.379321827e-05
0.007654321376
-1.384965554e-05
0.007668219693
-1.389831664e-05
0.007682159192
-1.393949868e-05
0.007696132654
-1.397346311e-05
0.007710133038
-1.400038264e-05
0.007724153501
-1.402046071e-05
0.007738187481
-1.403398254e-05
0.007752228585
-1.404110348e-05
0.007766270328
-1.404174061e-05
0.007780306318
-1.403599288e-05
0.007794330685
-1.402436583e-05
0.007808337986
-1.400730293e-05
0.007822323165
-1.398517743e-05
0.007836281556
-1.395839239e-05
0.007850208338
-1.392678189e-05
0.007864098379
-1.389004165e-05
0.007877946911
-1.384853123e-05
0.007891749975
-1.380306374e-05
0.007905504047
-1.375407327e-05
0.007919205193
-1.370114585e-05
0.007932849087
-1.364389448e-05
0.007946431774
-1.358268715e-05
0.007959950089
-1.351831516e-05
0.007973401267
-1.345117968e-05
0.007986782326
-1.338105829e-05
0.008000090009
-1.330768332e-05
0.008013321153
-1.323114498e-05
0.00802647304
-1.31518839e-05
0.008039543392
-1.307035357e-05
0.008052530096
-1.29867031e-05
0.008065430967
-1.290087303e-05
0.008078243787
-1.281281575e-05
0.008090966375
-1.272259161e-05
0.008103596871
-1.263049282e-05
0.00811613378
-1.253691054e-05
0.008128575827
-1.244204694e-05
0.008140921728
-1.234590187e-05
0.008153170148
-1.224841754e-05
0.00816531972
-1.214957628e-05
0.008177369157
-1.204943564e-05
0.00818931731
-1.194815352e-05
0.008201163229
-1.184591985e-05
0.008212906113
-1.174288245e-05
0.008224545239
-1.163912551e-05
0.008236079954
-1.153471644e-05
0.008247509676
-1.142972248e-05
0.0082588339
-1.132422188e-05
0.008270052194
-1.121829481e-05
0.008281164218
-1.111202402e-05
0.008292169726
-1.100550673e-05
0.008303068573
-1.089884856e-05
0.00831386071
-1.079213779e-05
0.008324546161
-1.068545176e-05
0.008335125017
-1.057885527e-05
0.008345597428
-1.047241036e-05
0.00835596361
-1.036618136e-05
0.00836622384
-1.026022793e-05
0.008376378449
-1.015461036e-05
0.008386427835
-1.004938577e-05
0.008396372443
-9.94460745e-06
0.008406212771
-9.840326705e-06
0.008415949372
-9.736599855e-06
0.008425582845
-9.633475679e-06
0.008435113844
-9.530998845e-06
0.008444543057
-9.429209624e-06
0.008453871203
-9.328145347e-06
0.008463099038
-9.227837183e-06
0.008472227355
-9.128315345e-06
0.008481256964
-9.029609674e-06
0.00849018871
-8.931745508e-06
0.008499023456
-8.834745881e-06
0.008507762088
-8.738632596e-06
0.008516405509
-8.643421406e-06
0.008524954637
-8.549130552e-06
0.00853341041
-8.45577037e-06
0.008541773763
-8.363355021e-06
0.008550045657
-8.271892499e-06
0.008558227046
-8.181388255e-06
0.008566318895
-8.091850021e-06
0.008574322173
-8.003279697e-06
0.00858223785
-7.915676397e-06
0.008590066892
-7.82904253e-06
0.008597810268
-7.743374831e-06
0.008605468938
-7.658671138e-06
0.00861304386
-7.574922681e-06
0.008620535985
-7.492126343e-06
0.008627946257
-7.410271282e-06
0.008635275608
-7.329351162e-06
0.008642524964
-7.249355445e-06
0.00864969524
-7.170275504e-06
0.008656787336
-7.092099231e-06
0.008663802152
-7.014814461e-06
0.008670740564
-6.938411897e-06
0.008677603447
-6.862879354e-06
0.00868439165
-6.788205517e-06
0.008691106025
-6.714376298e-06
0.008697747405
-6.641378528e-06
0.008704316608
-6.569203184e-06
0.008710814446
-6.497836789e-06
0.008717241714
-6.427268061e-06
0.008723599199
-6.357484211e-06
0.008729887673
-6.288474298e-06
0.0087361079
-6.22022646e-06
0.008742260632
-6.152730982e-06
0.008748346609
-6.085979233e-06
0.008754366565
-6.019954867e-06
0.00876032122
-5.954654006e-06
0.008766211285
-5.890065823e-06
0.008772037465
-5.826180449e-06
0.008777800457
-5.762989442e-06
0.008783500941
-5.700486567e-06
0.008789139602
-5.638660176e-06
0.008794717107
-5.577505466e-06
0.008800234121
-5.517014731e-06
0.008805691301
-5.457179193e-06
0.008811089295
-5.397995479e-06
0.008816428749
-5.339451788e-06
0.008821710297
-5.281547833e-06
0.008826934569
-5.224273016e-06
0.008832102192
-5.167621979e-06
0.008837213779
-5.111589136e-06
0.008842269947
-5.056167381e-06
0.008847271299
-5.001351324e-06
0.008852218435
-4.947134803e-06
0.008857111947
-4.893511433e-06
0.008861952423
-4.840475793e-06
0.008866740442
-4.788020378e-06
0.008871476579
-4.736138254e-06
0.008876161403
-4.684822142e-06
0.008880795472
-4.634068238e-06
0.008885379337
-4.583867053e-06
0.008889913546
-4.534209566e-06
0.008894398637
-4.485090453e-06
0.00889883514
-4.436502642e-06
0.008903223575
-4.388435157e-06
0.008907564458
-4.340882398e-06
0.008911858293
-4.29383471e-06
0.008916105573
-4.247281664e-06
0.008920306789
-4.201215706e-06
0.008924462416
-4.155625676e-06
0.008928572919
-4.110504312e-06
0.00893263876
-4.065839112e-06
0.008936660378
-4.02162051e-06
0.008940638217
-3.977837989e-06
0.008944572696
-3.934479538e-06
0.008948464233
-3.891535665e-06
0.008952313224
-3.848993313e-06
0.008956120066
-3.806841431e-06
0.008959885136
-3.765068576e-06
0.008963608798
-3.723661843e-06
0.008967291407
-3.682610922e-06
0.008970933308
-3.641899577e-06
0.008974534826
-3.60151808e-06
0.00897809628
-3.561454396e-06
0.008981617977
-3.521695776e-06
0.008985100207
-3.482230069e-06
0.008988543254
-3.443046343e-06
0.008991947388
-3.404134793e-06
0.008995312871
-3.365483276e-06
0.008998639957
-3.327087614e-06
0.0090019289
-3.288941639e-06
0.009005179948
-3.251047627e-06
0.009008393356
-3.213408045e-06
0.009011569397
-3.176039392e-06
0.00901470837
-3.138973388e-06
0.009017810626
-3.102255885e-06
0.009020876575
-3.065949342e-06
0.009023906723
-3.03014829e-06
0.00902690179
-2.995068141e-06
0.009029862869
-2.961077666e-06
0.009032791261
-2.928390101e-06
0.009035688158
-2.896898509e-06
0.009038556199
-2.868043337e-06
0.009041404484
-2.848281971e-06
0.00904425015
-2.84566672e-06
0.009047107481
-2.857329259e-06
0.009049997265
-2.889785738e-06
0.00905305706
-3.059794162e-06
0.009056861961
-3.804899334e-06
-5.559708847e-06
-9.841199036e-06
-1.07379506e-05
-8.09279686e-05
8.228940887e-05
-0.0002268733457
0.000190423327
-0.000438724805
0.0002843476082
-0.0007018739622
0.0003565274966
-0.001001146523
0.0004063152836
-0.001323433366
0.0004370586089
-0.001659093359
0.0004542443557
-0.002001980593
0.0004632077016
-0.002348657422
0.0004678819635
-0.002697501671
0.0004707007961
-0.003046913181
0.0004720496032
-0.003395037229
0.0004714097769
-0.003740608377
0.0004689011583
-0.004083257587
0.0004654888583
-0.004422867375
0.0004617585129
-0.004759415557
0.000457968279
-0.005092893996
0.0004541675504
-0.005423217162
0.0004502365084
-0.00575025824
0.0004460959608
-0.006073980247
0.000441867735
-0.006394538477
0.0004378397028
-0.00671224047
0.0004342445993
-0.007027397958
0.0004310974491
-0.007340289944
0.0004283661156
-0.007651079647
0.0004258933945
-0.007959613021
0.0004232052626
-0.008265475017
0.0004198930897
-0.008568171501
0.0004158188881
-0.008867305162
0.0004111188447
-0.009162715678
0.0004061541475
-0.009454455322
0.000401258979
-0.009742645667
0.0003965515204
-0.01002738792
0.0003920034157
-0.0103087219
0.0003874992492
-0.01058665551
0.0003829465442
-0.01086139157
0.0003786173479
-0.01113357981
0.0003752277868
-0.0114041062
0.0003732173397
-0.01167352722
0.0003721265585
-0.01194164022
0.0003707408198
-0.01220746049
0.0003678121982
-0.01247062831
0.0003642816992
-0.012731187
0.0003608107973
-0.0129892819
0.0003575671149
-0.01324505388
0.0003545374907
-0.01349862166
0.0003516830008
-0.01375008304
0.0003489702126
-0.01399951785
0.000346371836
-0.01424699175
0.0003438667047
-0.01449256078
0.0003414408255
-0.01473627578
0.000339087002
-0.0149781857
0.0003368030276
-0.01521833917
0.000334589084
-0.01545678526
0.0003324463906
-0.01569357459
0.0003303778666
-0.01592876024
0.0003283878308
-0.01616239608
0.0003264776942
-0.01639453109
0.0003246399876
-0.01662520253
0.0003228584635
-0.0168544341
0.0003211163833
-0.01708223301
0.0003193882784
-0.01730855738
0.0003175909844
-0.01753330245
0.000315632623
-0.01775652465
0.0003137583839
-0.01797830023
0.0003120071521
-0.01819868792
0.0003103528428
-0.01841772592
0.0003087635059
-0.01863543697
0.0003072160257
-0.01885183553
0.0003056990608
-0.01906692588
0.0003041989896
-0.0192807024
0.0003027023514
-0.01949314665
0.0003011906916
-0.01970422847
0.0002996475045
-0.01991391224
0.0002980662903
-0.02012215936
0.0002964439731
-0.02032892199
0.0002947672765
-0.02053414205
0.0002930223774
-0.02073776181
0.0002912123646
-0.02093971069
0.0002893206806
-0.02113990416
0.0002873280272
-0.02133823704
0.0002852048275
-0.02153458842
0.0002829293258
-0.02172883247
0.0002804962121
-0.02192083577
0.0002778949971
-0.02211044655
0.0002750993455
-0.02229751048
0.0002721065575
-0.02248184186
0.0002688681885
-0.02266317485
0.0002652761864
-0.02284128413
0.0002613863832
-0.02301592111
0.0002571674324
-0.02318681033
0.0002525845687
-0.02335366208
0.000247620045
-0.02351613956
0.0002422096045
-0.02367394783
0.0002364120918
-0.02382675577
0.0002301739833
-0.02397419382
0.0002234384833
-0.02411581748
0.0002160883493
-0.02425111777
0.0002080266228
-0.02437958394
0.0001992591793
-0.02450065601
0.0001897413465
-0.02461387504
0.0001796198281
-0.02471884828
0.0001689819254
-0.02481509495
0.0001576699448
-0.02490195086
0.0001453405069
-0.02497861249
0.0001318055732
-0.02504432733
0.0001172386686
-0.02509829453
0.0001016456432
-0.02513984939
8.520749685e-05
-0.02516812416
6.763098423e-05
-0.02518327936
5.00588326e-05
-0.02518546621
3.247815332e-05
-0.02517394202
1.325456916e-05
-0.02514646549
-8.359124499e-06
-0.02510231478
-3.103262696e-05
-0.02504023566
-5.504150348e-05
-0.02495866874
-7.990614843e-05
-0.02485837466
-0.0001061610459
-0.02473814392
-0.000133902681
-0.02459704076
-0.0001629718867
-0.02443429171
-0.0001931328649
-0.02424915924
-0.0002242465988
-0.02404082347
-0.0002562453132
-0.02380874148
-0.0002891484901
-0.02355245993
-0.0003229875445
-0.02327140757
-0.0003578010919
-0.02296497448
-0.0003936743123
-0.02263252184
-0.0004307209223
-0.0222733584
-0.0004691549361
-0.02188636127
-0.0005091532744
-0.02147086155
-0.0005469652164
-0.02105042469
-0.0005512981309
-0.02058382511
-0.0006224544357
-0.02009451946
-0.000655323719
-0.01957947139
-0.000691529756
-0.01903873389
-0.0007280459086
-0.01847250446
-0.0007643715799
-0.01788083566
-0.0008008157246
-0.01726405496
-0.0008370329117
-0.01662280692
-0.0008725036691
-0.01595797227
-0.0009068403813
-0.01527058943
-0.0009398274136
-0.0145618109
-0.0009713456287
-0.01383281854
-0.001001435412
-0.01308481838
-0.001030511604
-0.01231941615
-0.001059551116
-0.01153659851
-0.001089049152
-0.01070902551
-0.001114256369
-0.009898911603
-0.001128696649
-0.009075050327
-0.001144690208
-0.008239205185
-0.001161083769
-0.007392219982
-0.00117712212
-0.006535105794
-0.001191657126
-0.005669738896
-0.001203919102
-0.004798351162
-0.001213454868
-0.003923241842
-0.001220118586
-0.003046860324
-0.001224080613
-0.002171763184
-0.001225835415
-0.001294378891
-0.001226979116
-0.0004146593815
-0.0012270352
0.0004645240751
-0.001224867069
0.001340277589
-0.001219489762
0.002210087566
-0.001210814372
0.003071811625
-0.001199418404
0.00392591694
-0.001189152462
0.004773009862
-0.001180286658
0.005610682175
-0.001168227116
0.006436949136
-0.001152966226
0.007250103947
-0.00113492539
0.008048653134
-0.001114536216
0.008831304521
-0.001092172626
0.009596940812
-0.001068137376
0.01034459126
-0.001042673352
0.01107341006
-0.001015980291
0.01178266134
-0.0009882286865
0.01247170873
-0.0009595694674
0.013140008
-0.0009301402558
0.0137871016
-0.0009000692428
0.01441261436
-0.0008694774715
0.01501624987
-0.0008384801093
0.01559778712
-0.0008071870545
0.01615707738
-0.0007757032531
0.01669404102
-0.0007441289058
0.01720866448
-0.0007125594768
0.01770099669
-0.0006810851036
0.01817114499
-0.0006497895013
0.0186192723
-0.0006187519877
0.01904559504
-0.0005880487715
0.01945038014
-0.0005577516965
0.01983394103
-0.0005279266298
0.02019663323
-0.0004986329658
0.02053885028
-0.0004699238977
0.02086101981
-0.000441846834
0.02116359987
-0.0004144437206
0.02144707537
-0.0003877512977
0.02171195469
-0.0003618013386
0.02195876646
-0.0003366208838
0.02218805643
-0.0003122324613
0.02240038451
-0.0002886543226
0.02259632195
-0.000265900663
0.02277644869
-0.0002439818445
0.02294135077
-0.0002229046553
0.02309161803
-0.0002026725187
0.02322784188
-0.0001832857719
0.02335061322
-0.0001647418659
0.02346052061
-0.0001470356989
0.0235581485
-0.0001301597468
0.02364407551
-0.0001141042443
0.02371887303
-9.885752669e-05
0.02378310395
-8.440626722e-05
0.02383732225
-7.073663518e-05
0.0238820699
-5.782910212e-05
0.0239178691
-4.565031072e-05
0.02394521018
-3.415777744e-05
0.02396453274
-2.335047008e-05
0.02397628851
-1.32900218e-05
0.02398106693
-3.922879301e-06
0.02397952228
4.793593219e-06
0.02397202019
1.298888403e-05
0.023958989
2.055949719e-05
0.0239405773
2.778931096e-05
0.02391717402
3.444158715e-05
0.02388925242
4.042790008e-05
0.02385727157
4.577690931e-05
0.02382164632
5.05577382e-05
0.02378275074
5.4831755e-05
0.0237409293
5.864047158e-05
0.02369650454
6.201282046e-05
0.02364978051
6.497325468e-05
0.02360104435
6.754484998e-05
0.02355056749
6.974940329e-05
0.02349860672
7.160716372e-05
0.02344540504
7.313737691e-05
0.02339119242
7.435863951e-05
0.02333618647
7.528819897e-05
0.02328059106
7.594170341e-05
0.02322459473
7.63338314e-05
0.02316837737
7.647664164e-05
0.02311212492
7.637281636e-05
0.02305602475
7.602766485e-05
0.02300023901
7.54695045e-05
0.02294490469
7.472831879e-05
0.02289015106
7.381603545e-05
0.02283609954
7.274311374e-05
0.02278285982
7.15253076e-05
0.02273053139
7.017655353e-05
0.02267920534
6.870828472e-05
0.02262896563
6.713019859e-05
0.02257989052
6.545000752e-05
0.02253205326
6.367429273e-05
0.02248552199
6.180983998e-05
0.02244035928
5.986407172e-05
0.02239662198
5.784477797e-05
0.0223543612
5.575971382e-05
0.02231362253
5.361642784e-05
0.02227444619
5.142218562e-05
0.02223686725
4.918394793e-05
0.02220091586
4.690835817e-05
0.02216661751
4.460172532e-05
0.02213399325
4.227000072e-05
0.02210305993
3.991880843e-05
0.02207383047
3.755346638e-05
0.02204631401
3.517897726e-05
0.0220205162
3.280003816e-05
0.02199643939
3.042105243e-05
0.02197408284
2.804610939e-05
0.02195344295
2.567897795e-05
0.02193451349
2.332309519e-05
0.02191728574
2.098154392e-05
0.02190174868
1.865669197e-05
0.02188788889
1.634934448e-05
0.02187568987
1.405930557e-05
0.02186513252
1.179115475e-05
0.02185620215
9.560538222e-06
0.02184888788
7.380403343e-06
0.02184318091
5.236685543e-06
0.02183906262
3.100071981e-06
0.02183651465
9.662151324e-07
0.02183545329
-1.081586229e-06
0.02183578009
-3.046217105e-06
0.02183746371
-4.904221389e-06
0.02184052417
-6.767509477e-06
0.02184497931
-8.641057113e-06
0.02185083161
-1.05254411e-05
0.02185804263
-1.237006785e-05
0.02186654385
-1.412796659e-05
0.02187629165
-1.58219209e-05
0.02188724936
-1.745742278e-05
0.02189939439
-1.905547008e-05
0.02191270815
-2.062789999e-05
0.02192715488
-2.215528054e-05
0.02194270214
-2.363965579e-05
0.02195931125
-2.506993855e-05
0.02197694264
-2.644289191e-05
0.02199556143
-2.776763705e-05
0.02201513414
-2.904562617e-05
0.02203562951
-3.028084897e-05
0.02205701788
-3.147588439e-05
0.02207926621
-3.262554316e-05
0.02210233882
-3.372560492e-05
0.02212619965
-3.477543559e-05
0.02215081604
-3.578029218e-05
0.02217615575
-3.674068304e-05
0.02220218799
-3.76586792e-05
0.02222888333
-3.853638304e-05
0.02225621177
-3.937302573e-05
0.02228414241
-4.016719499e-05
0.02231264446
-4.091903678e-05
0.02234168749
-4.162912251e-05
0.0223712424
-4.229938047e-05
0.0224012808
-4.293075197e-05
0.02243177506
-4.352426911e-05
0.02246269855
-4.408140546e-05
0.02249402516
-4.460290577e-05
0.02252572886
-4.508883199e-05
0.02255778387
-4.55395089e-05
0.02259016498
-4.595578939e-05
0.02262284775
-4.633878914e-05
0.02265580829
-4.668931371e-05
0.02268902358
-4.700850243e-05
0.02272247127
-4.729735126e-05
0.0227561297
-4.755674595e-05
0.0227899779
-4.778769474e-05
0.02282399553
-4.799109237e-05
0.0228581627
-4.816755642e-05
0.02289245992
-4.831768499e-05
0.02292686819
-4.844225452e-05
0.02296136916
-4.854206538e-05
0.02299594521
-4.861779198e-05
0.02303057945
-4.867022994e-05
0.02306525568
-4.870059817e-05
0.02309995861
-4.871023341e-05
0.023134673
-4.869957249e-05
0.02316938285
-4.86682383e-05
0.02320407282
-4.86167514e-05
0.02323872923
-4.854645614e-05
0.0232733393
-4.845859734e-05
0.02330789094
-4.835470155e-05
0.02334237244
-4.823557281e-05
0.0233767717
-4.810040947e-05
0.0234110766
-4.79487971e-05
0.02344527602
-4.778209795e-05
0.02347936008
-4.760237852e-05
0.02351331951
-4.741061127e-05
0.02354714479
-4.720632869e-05
0.02358082624
-4.698913584e-05
0.02361435466
-4.675956583e-05
0.02364772175
-4.651897911e-05
0.02368092007
-4.626866993e-05
0.02371394247
-4.600910351e-05
0.02374678183
-4.574023795e-05
0.02377943117
-4.54621524e-05
0.02381188381
-4.517523297e-05
0.02384413384
-4.488052464e-05
0.02387617618
-4.457924527e-05
0.02390800614
-4.427201411e-05
0.02393961912
-4.395888215e-05
0.02397101048
-4.36397756e-05
0.02400217567
-4.331476998e-05
0.02403311041
-4.298417795e-05
0.02406381082
-4.264855446e-05
0.02409427345
-4.230854821e-05
0.02412449522
-4.196465521e-05
0.0241544733
-4.161720549e-05
0.02418420505
-4.126646886e-05
0.02421368807
-4.091274214e-05
0.02424292019
-4.055634011e-05
0.02427189948
-4.019758148e-05
0.02430062425
-3.983679774e-05
0.02432909312
-3.947436796e-05
0.02435730494
-3.911066961e-05
0.02438525884
-3.874604378e-05
0.02441295417
-3.838077814e-05
0.02444039045
-3.801513343e-05
0.0244675674
-3.764936313e-05
0.02449448493
-3.72837068e-05
0.0245211431
-3.691840557e-05
0.02454754218
-3.655369043e-05
0.02457368258
-3.618978263e-05
0.02459956487
-3.582689308e-05
0.02462518977
-3.546522506e-05
0.02465055815
-3.510497984e-05
0.02467567103
-3.474635887e-05
0.02470052956
-3.438953045e-05
0.024725135
-3.403465031e-05
0.02474948872
-3.368185932e-05
0.02477359217
-3.333128593e-05
0.02479744691
-3.298305793e-05
0.02482105458
-3.263728438e-05
0.02484441691
-3.229406758e-05
0.02486753566
-3.195350312e-05
0.0248904127
-3.161567439e-05
0.02491304994
-3.128065608e-05
0.02493544932
-3.094851366e-05
0.02495761286
-3.06193067e-05
0.02497954259
-3.029308366e-05
0.02500124058
-2.996988566e-05
0.02502270894
-2.964975019e-05
0.02504394979
-2.933270175e-05
0.02506496528
-2.901876376e-05
0.02508575755
-2.870795078e-05
0.02510632878
-2.840027258e-05
0.02512668114
-2.809573463e-05
0.0251468168
-2.77943311e-05
0.02516673793
-2.749605567e-05
0.0251864467
-2.720089463e-05
0.02520594527
-2.690883329e-05
0.02522523577
-2.661985171e-05
0.02524432034
-2.6333927e-05
0.0252632011
-2.605103661e-05
0.02528188015
-2.577115159e-05
0.02530035958
-2.549424484e-05
0.02531864146
-2.522028802e-05
0.02533672783
-2.494924796e-05
0.02535462071
-2.468109389e-05
0.02537232213
-2.441579287e-05
0.02538983407
-2.415331434e-05
0.02540715848
-2.3893624e-05
0.02542429734
-2.363668835e-05
0.02544125254
-2.338247729e-05
0.02545802602
-2.313096001e-05
0.02547461965
-2.288210284e-05
0.0254910353
-2.263587706e-05
0.02550727482
-2.239225294e-05
0.02552334005
-2.215120315e-05
0.02553923279
-2.191269835e-05
0.02555495485
-2.167671304e-05
0.025570508
-2.144321992e-05