/*--------------------------------*- C++ -*----------------------------------*\
| =========                 |                                                 |
| \\      /  F ield         | OpenFOAM: The Open Source CFD Toolbox           |
|  \\    /   O peration     | Version:  2312                                  |
|   \\  /    A nd           | Website:  www.openfoam.com                      |
|    \\/     M anipulation  |                                                 |
\*---------------------------------------------------------------------------*/
FoamFile
{
    version     2.0;
    format      ascii;
    arch        "LSB;label=32;scalar=64";
    class       surfaceScalarField;
    location    "3000";
    object      phiByRho;
}
// * * * * * * * * * * * * * * * * * * * * * * * * * * * * * * * * * * * * * //

dimensions      [0 3 -1 0 0 0 0];

oriented        oriented;

internalField   nonuniform List<scalar> 
40240
(
2.057913579e-08
-2.057913449e-08
9.376505294e-09
1.120262926e-08
-3.510141575e-08
4.447792125e-08
-1.07597521e-07
7.2496104e-08
-2.00975798e-07
9.337827715e-08
-3.080184495e-07
1.070426507e-07
-4.227901452e-07
1.147716938e-07
-5.413744299e-07
1.18584287e-07
-6.616948176e-07
1.203203862e-07
-7.828998724e-07
1.212050545e-07
-9.047563387e-07
1.21856466e-07
-1.02739435e-06
1.226380107e-07
-1.150680004e-06
1.23285655e-07
-1.274009933e-06
1.233299286e-07
-1.3968495e-06
1.228395667e-07
-1.518998146e-06
1.221486486e-07
-1.640418162e-06
1.214200145e-07
-1.761107192e-06
1.206890284e-07
-1.881020456e-06
1.19913267e-07
-2.000075265e-06
1.19054806e-07
-2.118220915e-06
1.181456486e-07
-2.235502312e-06
1.172813978e-07
-2.352044841e-06
1.165425277e-07
-2.467984725e-06
1.159398862e-07
-2.58345878e-06
1.154740536e-07
-2.698562399e-06
1.151036192e-07
-2.81323421e-06
1.146718113e-07
-2.927265235e-06
1.140310212e-07
-3.040387564e-06
1.131223331e-07
-3.152372674e-06
1.119851077e-07
-3.263116236e-06
1.10743562e-07
-3.372635498e-06
1.095192623e-07
-3.480996602e-06
1.083611017e-07
-3.588257696e-06
1.072610956e-07
-3.694422894e-06
1.061651969e-07
-3.799435753e-06
1.050128591e-07
-3.903316975e-06
1.038812213e-07
-4.006356459e-06
1.030394833e-07
-4.109047333e-06
1.026908733e-07
-4.211752808e-06
1.027054749e-07
-4.314380561e-06
1.0262775e-07
-4.416372429e-06
1.019918709e-07
-4.517486237e-06
1.011138068e-07
-4.617738287e-06
1.002520488e-07
-4.717210434e-06
9.947214903e-08
-4.815975882e-06
9.876544448e-08
-4.914091036e-06
9.811515638e-08
-5.011599811e-06
9.750877181e-08
-5.108536765e-06
9.693695276e-08
-5.204929507e-06
9.63927434e-08
-5.300801245e-06
9.587173901e-08
-5.396173179e-06
9.537193146e-08
-5.491066229e-06
9.489304946e-08
-5.585501787e-06
9.443555772e-08
-5.679502025e-06
9.40002376e-08
-5.773090501e-06
9.358847504e-08
-5.86629262e-06
9.320211852e-08
-5.959134411e-06
9.284178918e-08
-6.051639324e-06
9.250491337e-08
-6.143826285e-06
9.218696304e-08
-6.235711043e-06
9.188475863e-08
-6.327300359e-06
9.158931441e-08
-6.41856691e-06
9.126655283e-08
-6.509454402e-06
9.088749444e-08
-6.599990525e-06
9.053612114e-08
-6.690222043e-06
9.023151966e-08
-6.780187132e-06
8.996508913e-08
-6.869912578e-06
8.972544684e-08
-6.959417501e-06
8.950492113e-08
-7.048717938e-06
8.930043772e-08
-7.13782653e-06
8.910858992e-08
-7.226752299e-06
8.892576986e-08
-7.315498687e-06
8.874638723e-08
-7.404064314e-06
8.856562898e-08
-7.49244677e-06
8.838245316e-08
-7.580643565e-06
8.819679589e-08
-7.668648152e-06
8.800458837e-08
-7.756450414e-06
8.78022606e-08
-7.84404297e-06
8.75925565e-08
-7.931414712e-06
8.737174169e-08
-8.018549204e-06
8.713449178e-08
-8.105421096e-06
8.68718901e-08
-8.191998988e-06
8.657789509e-08
-8.2782511e-06
8.625210988e-08
-8.364142733e-06
8.589163471e-08
-8.449631246e-06
8.548851289e-08
-8.534673819e-06
8.504257481e-08
-8.619210576e-06
8.453675418e-08
-8.703153721e-06
8.394314499e-08
-8.786430763e-06
8.327704329e-08
-8.868961167e-06
8.253040401e-08
-8.950656459e-06
8.169529069e-08
-9.031424705e-06
8.076824602e-08
-9.111156776e-06
7.973207347e-08
-9.189760545e-06
7.860376602e-08
-9.267126539e-06
7.736599356e-08
-9.343126924e-06
7.600038671e-08
-9.417591566e-06
7.446464247e-08
-9.490317843e-06
7.272627836e-08
-9.561110815e-06
7.079297221e-08
-9.629780042e-06
6.86692276e-08
-9.696180799e-06
6.640075892e-08
-9.76018944e-06
6.400864143e-08
-9.821612674e-06
6.142323222e-08
-9.880097236e-06
5.848456464e-08
-9.935241136e-06
5.514389808e-08
-9.986764938e-06
5.152380342e-08
-1.003444335e-05
4.767841038e-08
-1.007809596e-05
4.365260728e-08
-1.011745215e-05
3.93561908e-08
-1.015235576e-05
3.490360887e-08
-1.018264704e-05
3.029128227e-08
-1.020742578e-05
2.47787434e-08
-1.022654318e-05
1.911739363e-08
-1.023966125e-05
1.311807011e-08
-1.024669886e-05
7.037615357e-09
-1.024835963e-05
1.660764651e-09
-1.024249266e-05
-5.866961308e-09
-1.022882073e-05
-1.367193802e-08
-1.020695202e-05
-2.186870782e-08
-1.017656822e-05
-3.038379997e-08
-1.013745412e-05
-3.911410057e-08
-1.00895446e-05
-4.790951526e-08
-1.003247815e-05
-5.706645797e-08
-9.965772186e-06
-6.670595872e-08
-9.889023513e-06
-7.674867413e-08
-9.801782353e-06
-8.724116025e-08
-9.703514133e-06
-9.826821833e-08
-9.593522705e-06
-1.099914294e-07
-9.471366642e-06
-1.22156061e-07
-9.339901223e-06
-1.314654174e-07
-9.209040047e-06
-1.308611787e-07
-9.053185284e-06
-1.558547613e-07
-8.887167323e-06
-1.660179597e-07
-8.710685766e-06
-1.764815575e-07
-8.523377469e-06
-1.873082961e-07
-8.325235452e-06
-1.981420153e-07
-8.116088667e-06
-2.091467845e-07
-7.895836598e-06
-2.202520708e-07
-7.664581119e-06
-2.312554774e-07
-7.422575543e-06
-2.420055777e-07
-7.170131138e-06
-2.524444061e-07
-6.907564216e-06
-2.625669175e-07
-6.635121333e-06
-2.724428826e-07
-6.352610079e-06
-2.825112534e-07
-6.058461382e-06
-2.941487016e-07
-5.752230067e-06
-3.062313131e-07
-5.465546884e-06
-2.866831852e-07
-5.146964351e-06
-3.185825335e-07
-4.82613563e-06
-3.208287219e-07
-4.500897219e-06
-3.252384094e-07
-4.170760517e-06
-3.301367005e-07
-3.836217796e-06
-3.345427179e-07
-3.497665813e-06
-3.385519832e-07
-3.155598904e-06
-3.420669092e-07
-2.810589862e-06
-3.450090416e-07
-2.462890991e-06
-3.476988691e-07
-2.112152947e-06
-3.507380462e-07
-1.762558351e-06
-3.495945953e-07
-1.415242888e-06
-3.473154618e-07
-1.069559502e-06
-3.456833869e-07
-7.258234818e-07
-3.437360197e-07
-3.848193072e-07
-3.410041758e-07
-4.712518408e-08
-3.376941226e-07
2.879217441e-07
-3.350469303e-07
6.211152638e-07
-3.331935183e-07
9.51669852e-07
-3.305545894e-07
1.278368902e-06
-3.266990488e-07
1.600139268e-06
-3.217703665e-07
1.916126094e-06
-3.159868228e-07
2.225647129e-06
-3.095210385e-07
2.528148019e-06
-3.025008883e-07
2.82317073e-06
-2.950227105e-07
3.110332031e-06
-2.871613012e-07
3.389309257e-06
-2.789772268e-07
3.659831157e-06
-2.705219e-07
3.921671971e-06
-2.618408142e-07
4.174647452e-06
-2.52975479e-07
4.418612005e-06
-2.43964553e-07
4.653456453e-06
-2.348444495e-07
4.879106105e-06
-2.256496514e-07
5.095518964e-06
-2.1641286e-07
5.302684088e-06
-2.07165124e-07
5.50061998e-06
-1.979358904e-07
5.689372747e-06
-1.887527665e-07
5.869013827e-06
-1.796410818e-07
6.039638395e-06
-1.706245696e-07
6.201364325e-06
-1.617259292e-07
6.354330815e-06
-1.529664897e-07
6.498696467e-06
-1.443656534e-07
6.634637147e-06
-1.359406775e-07
6.76234391e-06
-1.277067653e-07
6.882021132e-06
-1.196772204e-07
6.993884719e-06
-1.118635875e-07
7.098160455e-06
-1.042757336e-07
7.195082411e-06
-9.692195526e-08
7.284891464e-06
-8.980905718e-08
7.367833906e-06
-8.294243999e-08
7.444160099e-06
-7.632619423e-08
7.514123269e-06
-6.996317075e-08
7.577978343e-06
-6.385507263e-08
7.635980879e-06
-5.800253877e-08
7.688386101e-06
-5.240522192e-08
7.735447994e-06
-4.706189116e-08
7.777418489e-06
-4.1970495e-08
7.81454677e-06
-3.712828174e-08
7.847078615e-06
-3.253184282e-08
7.875255828e-06
-2.817721602e-08
7.899315811e-06
-2.405998272e-08
7.919491155e-06
-2.017534331e-08
7.936009473e-06
-1.651831848e-08
7.949090914e-06
-1.308144151e-08
7.958942024e-06
-9.851107044e-09
7.965758715e-06
-6.816693455e-09
7.969786628e-06
-4.027912489e-09
7.971320874e-06
-1.534247615e-09
7.970465339e-06
8.555353572e-10
7.967216393e-06
3.248945762e-09
7.961729608e-06
5.48678771e-09
7.954201298e-06
7.528306462e-09
7.944823694e-06
9.377604944e-09
7.933785393e-06
1.103829868e-08
7.921279101e-06
1.250629643e-08
7.907483052e-06
1.379604585e-08
7.892550577e-06
1.493247786e-08
7.876614411e-06
1.593616368e-08
7.859795385e-06
1.681902602e-08
7.842207338e-06
1.758804854e-08
7.823958129e-06
1.824920923e-08
7.805149447e-06
1.880868062e-08
7.785876921e-06
1.927252793e-08
7.766230537e-06
1.964638234e-08
7.746294848e-06
1.993568836e-08
7.726148849e-06
2.014599864e-08
7.705866605e-06
2.028224322e-08
7.685520333e-06
2.034627316e-08
7.665182841e-06
2.033749145e-08
7.644923574e-06
2.025926767e-08
7.624803221e-06
2.012035339e-08
7.604875742e-06
1.992747711e-08
7.585191989e-06
1.968375285e-08
7.565798001e-06
1.939398726e-08
7.546735606e-06
1.906239757e-08
7.528044024e-06
1.869157958e-08
7.509758456e-06
1.82855682e-08
7.49191034e-06
1.784811619e-08
7.474528118e-06
1.738222177e-08
7.457637638e-06
1.689048033e-08
7.441262753e-06
1.637488438e-08
7.425425722e-06
1.583703064e-08
7.410147166e-06
1.527855796e-08
7.395445811e-06
1.470135457e-08
7.381338353e-06
1.41074591e-08
7.367839422e-06
1.349892768e-08
7.354961674e-06
1.287775147e-08
7.342715838e-06
1.224583433e-08
7.33111084e-06
1.160499885e-08
7.320153871e-06
1.095696613e-08
7.309850505e-06
1.03033671e-08
7.300204778e-06
9.645728203e-09
7.29121929e-06
8.985487836e-09
7.282895295e-06
8.323995211e-09
7.27523278e-06
7.662516134e-09
7.268230549e-06
7.002228439e-09
7.261886315e-06
6.344235091e-09
7.256196764e-06
5.689550518e-09
7.251157677e-06
5.039086138e-09
7.246764046e-06
4.393630401e-09
7.243010251e-06
3.753796285e-09
7.23989062e-06
3.119632683e-09
7.237401067e-06
2.489552402e-09
7.235540788e-06
1.860281539e-09
7.23430698e-06
1.233806719e-09
7.233676808e-06
6.301711964e-10
7.233610675e-06
6.613377801e-11
7.234080968e-06
-4.702916548e-10
7.235099178e-06
-1.018210303e-09
7.236680932e-06
-1.581753939e-09
7.238823878e-06
-2.142944544e-09
7.241543297e-06
-2.719420608e-09
7.244763892e-06
-3.220593845e-09
7.248470945e-06
-3.707051077e-09
7.252656859e-06
-4.185914626e-09
7.257329995e-06
-4.673138397e-09
7.26248904e-06
-5.159042548e-09
7.268115784e-06
-5.626744912e-09
7.274189904e-06
-6.074119382e-09
7.280689606e-06
-6.49970448e-09
7.287600048e-06
-6.910443195e-09
7.294914184e-06
-7.314132312e-09
7.302622718e-06
-7.708535389e-09
7.310715119e-06
-8.092402915e-09
7.319175939e-06
-8.460820626e-09
7.32798743e-06
-8.811489967e-09
7.337136281e-06
-9.148849875e-09
7.346609188e-06
-9.472906122e-09
7.35639466e-06
-9.785473893e-09
7.366482166e-06
-1.008750514e-08
7.376859378e-06
-1.037720984e-08
7.38751236e-06
-1.065298207e-08
7.398426962e-06
-1.091460498e-08
7.409590854e-06
-1.116388981e-08
7.420991818e-06
-1.140096526e-08
7.43261825e-06
-1.162642981e-08
7.444459288e-06
-1.184103863e-08
7.456503861e-06
-1.204457574e-08
7.468740414e-06
-1.223655012e-08
7.481157395e-06
-1.241698118e-08
7.493743478e-06
-1.258608137e-08
7.506487933e-06
-1.27444573e-08
7.519380276e-06
-1.289234429e-08
7.532410283e-06
-1.303000622e-08
7.545568193e-06
-1.315790793e-08
7.558844478e-06
-1.327628603e-08
7.572229596e-06
-1.338511955e-08
7.585714085e-06
-1.348448711e-08
7.599288753e-06
-1.35746708e-08
7.612944769e-06
-1.365601704e-08
7.626673527e-06
-1.372875896e-08
7.640466739e-06
-1.379320927e-08
7.654316383e-06
-1.38496465e-08
7.66821469e-06
-1.389830758e-08
7.68215418e-06
-1.393948959e-08
7.696127633e-06
-1.3973454e-08
7.710128008e-06
-1.40003735e-08
7.724148462e-06
-1.402045156e-08
7.738182433e-06
-1.403397338e-08
7.752223528e-06
-1.404109432e-08
7.766265261e-06
-1.404173145e-08
7.780301242e-06
-1.403598372e-08
7.7943256e-06
-1.402435668e-08
7.808332892e-06
-1.400729379e-08
7.822318062e-06
-1.398516831e-08
7.836276444e-06
-1.395838328e-08
7.850203217e-06
-1.392677281e-08
7.864093248e-06
-1.389003258e-08
7.877941772e-06
-1.384852219e-08
7.891744827e-06
-1.380305474e-08
7.905498889e-06
-1.37540643e-08
7.919200027e-06
-1.370113691e-08
7.932843912e-06
-1.364388558e-08
7.94642659e-06
-1.358267829e-08
7.959944896e-06
-1.351830635e-08
7.973396066e-06
-1.34511709e-08
7.986777116e-06
-1.338104956e-08
8.00008479e-06
-1.330767463e-08
8.013315926e-06
-1.323113635e-08
8.026467804e-06
-1.315187532e-08
8.039538147e-06
-1.307034505e-08
8.052524843e-06
-1.298669463e-08
8.065425705e-06
-1.290086461e-08
8.078238517e-06
-1.281280739e-08
8.090961097e-06
-1.272258331e-08
8.103591584e-06
-1.263048458e-08
8.116128486e-06
-1.253690236e-08
8.128570524e-06
-1.244203882e-08
8.140916417e-06
-1.234589382e-08
8.153164829e-06
-1.224840955e-08
8.165314394e-06
-1.214956835e-08
8.177363823e-06
-1.204942778e-08
8.189311968e-06
-1.194814573e-08
8.201157879e-06
-1.184591212e-08
8.212900755e-06
-1.174287479e-08
8.224539874e-06
-1.163911791e-08
8.236074581e-06
-1.153470892e-08
8.247504296e-06
-1.142971502e-08
8.258828512e-06
-1.132421449e-08
8.2700468e-06
-1.121828749e-08
8.281158816e-06
-1.111201677e-08
8.292164316e-06
-1.100549955e-08
8.303063157e-06
-1.089884145e-08
8.313855286e-06
-1.079213075e-08
8.324540731e-06
-1.068544479e-08
8.335119579e-06
-1.057884837e-08
8.345591983e-06
-1.047240353e-08
8.355958159e-06
-1.036617459e-08
8.366218382e-06
-1.026022124e-08
8.376372985e-06
-1.015460373e-08
8.386422364e-06
-1.004937921e-08
8.396366966e-06
-9.944600963e-09
8.406207288e-06
-9.840320286e-09
8.415943882e-06
-9.736593503e-09
8.425577349e-06
-9.633469395e-09
8.435108342e-06
-9.530992627e-09
8.444537549e-06
-9.429203473e-09
8.453865688e-06
-9.328139262e-09
8.463093517e-06
-9.227831163e-09
8.472221828e-06
-9.12830939e-09
8.481251431e-06
-9.029603783e-09
8.490183172e-06
-8.931739681e-09
8.499017912e-06
-8.834740118e-09
8.507756538e-06
-8.738626896e-09
8.516399954e-06
-8.643415768e-09
8.524949076e-06
-8.549124975e-09
8.533404844e-06
-8.455764854e-09
8.541768191e-06
-8.363349565e-09
8.550040079e-06
-8.271887103e-09
8.558221463e-06
-8.181382918e-09
8.566313307e-06
-8.091844743e-09
8.574316579e-06
-8.003274477e-09
8.582232251e-06
-7.915671233e-09
8.590061289e-06
-7.829037423e-09
8.59780466e-06
-7.74336978e-09
8.605463324e-06
-7.658666142e-09
8.613038242e-06
-7.57491774e-09
8.620530362e-06
-7.492121455e-09
8.627940629e-06
-7.410266449e-09
8.635269975e-06
-7.329346381e-09
8.642519327e-06
-7.249350717e-09
8.649689598e-06
-7.170270826e-09
8.656781689e-06
-7.092094605e-09
8.6637965e-06
-7.014809885e-09
8.670734908e-06
-6.938407371e-09
8.677597786e-06
-6.862874877e-09
8.684385985e-06
-6.788201089e-09
8.691100356e-06
-6.714371918e-09
8.697741732e-06
-6.641374196e-09
8.704310931e-06
-6.569198899e-09
8.710808764e-06
-6.49783255e-09
8.717236028e-06
-6.427263869e-09
8.723593509e-06
-6.357480064e-09
8.729881978e-06
-6.288470196e-09
8.736102202e-06
-6.220222403e-09
8.74225493e-06
-6.152726969e-09
8.748340903e-06
-6.085975263e-09
8.754360855e-06
-6.019950941e-09
8.760315506e-06
-5.954650122e-09
8.766205567e-06
-5.890061981e-09
8.772031743e-06
-5.826176649e-09
8.777794731e-06
-5.762985683e-09
8.783495212e-06
-5.700482849e-09
8.789133869e-06
-5.638656498e-09
8.794711371e-06
-5.577501828e-09
8.800228381e-06
-5.517011132e-09
8.805685558e-06
-5.457175634e-09
8.811083548e-06
-5.397991958e-09
8.816422999e-06
-5.339448305e-09
8.821704543e-06
-5.281544388e-09
8.826928811e-06
-5.224269609e-09
8.832096431e-06
-5.167618608e-09
8.837208015e-06
-5.111585802e-09
8.84226418e-06
-5.056164083e-09
8.847265529e-06
-5.001348062e-09
8.852212661e-06
-4.947131576e-09
8.85710617e-06
-4.893508241e-09
8.861946643e-06
-4.840472636e-09
8.866734659e-06
-4.788017255e-09
8.871470792e-06
-4.736135165e-09
8.876155614e-06
-4.684819086e-09
8.880789679e-06
-4.634065216e-09
8.885373542e-06
-4.583864064e-09
8.889907747e-06
-4.534206609e-09
8.894392836e-06
-4.485087528e-09
8.898829336e-06
-4.436499748e-09
8.903217768e-06
-4.388432295e-09
8.907558649e-06
-4.340879567e-09
8.91185248e-06
-4.293831909e-09
8.916099758e-06
-4.247278894e-09
8.920300971e-06
-4.201212966e-09
8.924456595e-06
-4.155622966e-09
8.928567096e-06
-4.110501631e-09
8.932632934e-06
-4.06583646e-09
8.93665455e-06
-4.021617887e-09
8.940632386e-06
-3.977835395e-09
8.944566862e-06
-3.934476972e-09
8.948458396e-06
-3.891533127e-09
8.952307386e-06
-3.848990803e-09
8.956114225e-06
-3.806838948e-09
8.959879293e-06
-3.765066121e-09
8.963602952e-06
-3.723659414e-09
8.967285559e-06
-3.68260852e-09
8.970927457e-06
-3.641897202e-09
8.974528973e-06
-3.601515731e-09
8.978090425e-06
-3.561452073e-09
8.981612119e-06
-3.521693479e-09
8.985094347e-06
-3.482227798e-09
8.988537392e-06
-3.443044098e-09
8.991941524e-06
-3.404132573e-09
8.995307004e-06
-3.365481082e-09
8.998634089e-06
-3.327085444e-09
9.001923029e-06
-3.288939494e-09
9.005174075e-06
-3.251045506e-09
9.008387481e-06
-3.213405949e-09
9.01156352e-06
-3.17603732e-09
9.01470249e-06
-3.13897134e-09
9.017804745e-06
-3.102253862e-09
9.020870692e-06
-3.065947342e-09
9.023900837e-06
-3.030146313e-09
9.026895903e-06
-2.995066188e-09
9.02985698e-06
-2.961075734e-09
9.03278537e-06
-2.928388192e-09
9.035682265e-06
-2.89689662e-09
9.038550304e-06
-2.868041467e-09
9.041398588e-06
-2.848280113e-09
9.044244251e-06
-2.845664864e-09
9.04710158e-06
-2.857327395e-09
9.049991363e-06
-2.889783853e-09
9.053051156e-06
-3.059792166e-09
9.056856054e-06
-3.804896852e-09
-5.559705221e-09
-9.841192626e-09
-1.073794361e-08
-8.09279159e-08
8.228935528e-08
-2.26873198e-07
1.90423203e-07
-4.387245193e-07
2.84347423e-07
-7.018735051e-07
3.565272644e-07
-1.001145871e-06
4.06315019e-07
-1.323432504e-06
4.370583243e-07
-1.659092279e-06
4.542440598e-07
-2.001979289e-06
4.632073999e-07
-2.348655892e-06
4.678816588e-07
-2.697499914e-06
4.707004896e-07
-3.046911197e-06
4.720492957e-07
-3.395035017e-06
4.714094699e-07
-3.740605941e-06
4.689008529e-07
-4.083254928e-06
4.654885551e-07
-4.422864495e-06
4.617582121e-07
-4.759412457e-06
4.579679808e-07
-5.092890679e-06
4.541672546e-07
-5.42321363e-06
4.502362151e-07
-5.750254495e-06
4.460956703e-07
-6.073976292e-06
4.418674472e-07
-6.394534312e-06
4.378394176e-07
-6.712236098e-06
4.342443165e-07
-7.027393381e-06
4.310971683e-07
-7.340285163e-06
4.283658366e-07
-7.651074664e-06
4.258931171e-07
-7.959607837e-06
4.23204987e-07
-8.265469634e-06
4.198928162e-07
-8.568165921e-06
4.158186173e-07
-8.867299386e-06
4.111185769e-07
-9.162709711e-06
4.06153883e-07
-9.454449164e-06
4.012587177e-07
-9.742639321e-06
3.965512621e-07
-1.002738139e-05
3.920031604e-07
-1.030871519e-05
3.874989969e-07
-1.058664862e-05
3.829462948e-07
-1.08613845e-05
3.786171013e-07
-1.113357255e-05
3.752275424e-07
-1.140409878e-05
3.732170966e-07
-1.167351962e-05
3.721263161e-07
-1.194163245e-05
3.707405783e-07
-1.220745254e-05
3.678119587e-07
-1.247062019e-05
3.642814619e-07
-1.273117871e-05
3.608105623e-07
-1.298927344e-05
3.57566882e-07
-1.324504525e-05
3.545372598e-07
-1.349861287e-05
3.516827718e-07
-1.375007408e-05
3.489699853e-07
-1.399950874e-05
3.463716104e-07
-1.424698247e-05
3.438664807e-07
-1.449255134e-05
3.414406031e-07
-1.473626619e-05
3.390867811e-07
-1.497817595e-05
3.368028082e-07
-1.521832925e-05
3.345888661e-07
-1.545677519e-05
3.324461741e-07
-1.569356437e-05
3.303776514e-07
-1.592874986e-05
3.283876169e-07
-1.616238555e-05
3.264774815e-07
-1.639452041e-05
3.246397761e-07
-1.662519171e-05
3.228582532e-07
-1.685442312e-05
3.211161742e-07
-1.708222188e-05
3.193880703e-07
-1.73085461e-05
3.175907775e-07
-1.753329103e-05
3.156324174e-07
-1.775651308e-05
3.137581796e-07
-1.797828852e-05
3.120069488e-07
-1.819867607e-05
3.103526407e-07
-1.841771392e-05
3.087633047e-07
-1.863542483e-05
3.072158256e-07
-1.885182325e-05
3.056988617e-07
-1.906691346e-05
3.041987914e-07
-1.928068984e-05
3.027021542e-07
-1.949313395e-05
3.011904954e-07
-1.970421563e-05
2.996473093e-07
-1.991389927e-05
2.980660961e-07
-2.012214626e-05
2.9644378e-07
-2.032890875e-05
2.947670845e-07
-2.053412868e-05
2.930221865e-07
-2.07377483e-05
2.912121749e-07
-2.093969704e-05
2.893204921e-07
-2.113989039e-05
2.8732784e-07
-2.133822314e-05
2.852046417e-07
-2.153457439e-05
2.829291415e-07
-2.172881831e-05
2.804960294e-07
-2.192082149e-05
2.77894816e-07
-2.211043215e-05
2.750991662e-07
-2.229749595e-05
2.721063802e-07
-2.248182721e-05
2.688680133e-07
-2.266316008e-05
2.652760136e-07
-2.284126925e-05
2.613862129e-07
-2.301590611e-05
2.571672648e-07
-2.318679522e-05
2.525844041e-07
-2.335364686e-05
2.476198836e-07
-2.351612423e-05
2.422094467e-07
-2.367393241e-05
2.364119378e-07
-2.382674024e-05
2.301738334e-07
-2.397417819e-05
2.234383377e-07
-2.411580176e-05
2.160882085e-07
-2.425110197e-05
2.080264872e-07
-2.437956806e-05
1.992590495e-07
-2.450064005e-05
1.897412228e-07
-2.4613859e-05
1.796197111e-07
-2.471883217e-05
1.689818152e-07
-2.481507878e-05
1.576698421e-07
-2.490193463e-05
1.453404122e-07
-2.497859622e-05
1.318054873e-07
-2.504431101e-05
1.172385922e-07
-2.509827817e-05
1.01645577e-07
-2.513983301e-05
8.520744133e-08
-2.516810776e-05
6.763094016e-08
-2.518326295e-05
5.005879997e-08
-2.518544979e-05
3.247813215e-08
-2.517392561e-05
1.325456052e-08
-2.51464491e-05
-8.359119051e-09
-2.510229842e-05
-3.103260673e-08
-2.504021934e-05
-5.504146761e-08
-2.495865247e-05
-7.990609635e-08
-2.485835846e-05
-1.061609767e-07
-2.47381278e-05
-1.339025938e-07
-2.459702473e-05
-1.629717805e-07
-2.443427579e-05
-1.93132739e-07
-2.424914343e-05
-2.242464527e-07
-2.40408078e-05
-2.562451461e-07
-2.380872596e-05
-2.891483016e-07
-2.355244458e-05
-3.229873339e-07
-2.32713924e-05
-3.578008587e-07
-2.296495951e-05
-3.936740557e-07
-2.263250708e-05
-4.307206415e-07
-2.227334388e-05
-4.691546303e-07
-2.1886347e-05
-5.091529424e-07
-2.147084756e-05
-5.469648599e-07
-2.105041096e-05
-5.512977715e-07
-2.058381169e-05
-6.224540299e-07
-2.009450636e-05
-6.553232918e-07
-1.957945862e-05
-6.915293051e-07
-1.903872148e-05
-7.280454339e-07
-1.847249242e-05
-7.643710815e-07
-1.7880824e-05
-8.008152024e-07
-1.72640437e-05
-8.370323659e-07
-1.662279608e-05
-8.725031001e-07
-1.595796187e-05
-9.0683979e-07
-1.527057947e-05
-9.398268007e-07
-1.45618014e-05
-9.713449953e-07
-1.383280952e-05
-1.001434759e-06
-1.308480985e-05
-1.030510932e-06
-1.231940812e-05
-1.059550425e-06
-1.153659099e-05
-1.089048442e-06
-1.070901853e-05
-1.114255642e-06
-9.898905148e-06
-1.128695913e-06
-9.075044409e-06
-1.144689461e-06
-8.239199812e-06
-1.161083011e-06
-7.39221516e-06
-1.177121353e-06
-6.535101532e-06
-1.191656349e-06
-5.669735198e-06
-1.203918317e-06
-4.798348033e-06
-1.213454076e-06
-3.923239283e-06
-1.22011779e-06
-3.046858336e-06
-1.224079815e-06
-2.171761768e-06
-1.225834616e-06
-1.294378047e-06
-1.226978316e-06
-4.14659111e-07
-1.2270344e-06
4.645237721e-07
-1.22486627e-06
1.340276715e-06
-1.219488967e-06
2.210086124e-06
-1.210813582e-06
3.071809622e-06
-1.199417622e-06
3.925914379e-06
-1.189151686e-06
4.773006748e-06
-1.180285888e-06
5.610678515e-06
-1.168226354e-06
6.436944937e-06
-1.152965474e-06
7.250099218e-06
-1.134924649e-06
8.048647884e-06
-1.114535489e-06
8.83129876e-06
-1.092171913e-06
9.596934552e-06
-1.06813668e-06
1.034458451e-05
-1.042672672e-06
1.107340284e-05
-1.015979628e-06
1.178265366e-05
-9.882280418e-07
1.24717006e-05
-9.595688414e-07
1.313999943e-05
-9.30139649e-07
1.378709261e-05
-9.000686556e-07
1.441260496e-05
-8.694769043e-07
1.501624007e-05
-8.384795623e-07
1.559777695e-05
-8.071865279e-07
1.615706684e-05
-7.75702747e-07
1.669403013e-05
-7.441284203e-07
1.720865325e-05
-7.12559012e-07
1.770098515e-05
-6.810846593e-07
1.817113314e-05
-6.497890774e-07
1.861926015e-05
-6.18751584e-07
1.904558261e-05
-5.880483879e-07
1.945036746e-05
-5.577513327e-07
1.983392809e-05
-5.279262854e-07
2.019662005e-05
-4.986326405e-07
2.053883688e-05
-4.699235911e-07
2.08610062e-05
-4.418465457e-07
2.116358607e-05
-4.144434502e-07
2.144706138e-05
-3.877510447e-07
2.171194053e-05
-3.618011026e-07
2.195875213e-05
-3.366206642e-07
2.218804195e-05
-3.122322577e-07
2.240036989e-05
-2.886541343e-07
2.259630721e-05
-2.659004896e-07
2.277643383e-05
-2.439816853e-07
2.29413358e-05
-2.229045099e-07
2.309160296e-05
-2.026723865e-07
2.322782673e-05
-1.832856523e-07
2.335059798e-05
-1.647417585e-07
2.346050531e-05
-1.470356029e-07
2.355813313e-05
-1.301596619e-07
2.364406008e-05
-1.141041699e-07
2.371885756e-05
-9.88574622e-08
2.378308843e-05
-8.440621215e-08
2.38373067e-05
-7.073658903e-08
2.388205432e-05
-5.782906439e-08
2.39178535e-05
-4.565028094e-08
2.394519456e-05
-3.415775516e-08
2.39645171e-05
-2.335045485e-08
2.397627287e-05
-1.329001313e-08
2.398105128e-05
-3.922876741e-09
2.397950664e-05
4.793590092e-09
2.397200455e-05
1.298887556e-08
2.395897337e-05
2.055948378e-08
2.394056168e-05
2.778929283e-08
2.391715842e-05
3.444156468e-08
2.388923684e-05
4.042787371e-08
2.385725601e-05
4.577687944e-08
2.382163078e-05
5.055770521e-08
2.378273522e-05
5.483171923e-08
2.374091381e-05
5.864043332e-08
2.369648908e-05
6.201278e-08
2.364976508e-05
6.49732123e-08
2.360102895e-05
6.754480592e-08
2.355055212e-05
6.974935778e-08
2.349859139e-05
7.160711701e-08
2.344538975e-05
7.313732919e-08
2.339117716e-05
7.4358591e-08
2.333617125e-05
7.528814985e-08
2.328057587e-05
7.594165387e-08
2.322457958e-05
7.63337816e-08
2.316836226e-05
7.647659175e-08
2.311210984e-05
7.637276653e-08
2.30560097e-05
7.602761525e-08
2.3000224e-05
7.546945526e-08
2.294488972e-05
7.472827004e-08
2.289013613e-05
7.38159873e-08
2.283608464e-05
7.274306629e-08
2.278284495e-05
7.152526094e-08
2.273051656e-05
7.017650775e-08
2.267919054e-05
6.870823989e-08
2.262895087e-05
6.713015479e-08
2.257987579e-05
6.544996482e-08
2.253203856e-05
6.367425119e-08
2.248550732e-05
6.180979966e-08
2.244034464e-05
5.986403267e-08
2.239660737e-05
5.784474023e-08
2.235434661e-05
5.575967744e-08
2.231360797e-05
5.361639286e-08
2.227443166e-05
5.142215208e-08
2.223685274e-05
4.918391584e-08
2.220090138e-05
4.690832756e-08
2.216660305e-05
4.460169623e-08
2.213397881e-05
4.226997314e-08
2.210304551e-05
3.991878239e-08
2.207381606e-05
3.755344188e-08
2.204629962e-05
3.517895431e-08
2.202050184e-05
3.280001676e-08
2.199642504e-05
3.042103258e-08
2.19740685e-05
2.804609109e-08
2.195342863e-05
2.56789612e-08
2.193449918e-05
2.332307997e-08
2.191727144e-05
2.098153024e-08
2.190173439e-05
1.86566798e-08
2.188787461e-05
1.634933382e-08
2.18756756e-05
1.40592964e-08
2.186511826e-05
1.179114706e-08
2.185618789e-05
9.560531985e-09
2.184887363e-05
7.380398528e-09
2.184316666e-05
5.236682127e-09
2.183904838e-05
3.100069959e-09
2.183650041e-05
9.662145021e-10
2.183543905e-05
-1.081585524e-09
2.183576584e-05
-3.046215117e-09
2.183744947e-05
-4.90421819e-09
2.184050992e-05
-6.767505062e-09
2.184496506e-05
-8.641051475e-09
2.185081735e-05
-1.052543423e-08
2.185802837e-05
-1.237005978e-08
2.186652958e-05
-1.412795738e-08
2.187627737e-05
-1.582191057e-08
2.188723508e-05
-1.745741139e-08
2.18993801e-05
-1.905545765e-08
2.191269385e-05
-2.062788653e-08
2.192714058e-05
-2.215526608e-08
2.194268782e-05
-2.363964037e-08
2.195929692e-05
-2.50699222e-08
2.197692831e-05
-2.644287465e-08
2.199554708e-05
-2.776761894e-08
2.201511978e-05
-2.904560722e-08
2.203561513e-05
-3.028082922e-08
2.205700349e-05
-3.147586386e-08
2.20792518e-05
-3.262552187e-08
2.21023244e-05
-3.372558292e-08
2.212618521e-05
-3.47754129e-08
2.215080159e-05
-3.578026883e-08
2.217614129e-05
-3.674065907e-08
2.220217351e-05
-3.765865463e-08
2.222886883e-05
-3.85363579e-08
2.225619725e-05
-3.937300004e-08
2.228412787e-05
-4.016716879e-08
2.23126299e-05
-4.091901009e-08
2.234167291e-05
-4.162909535e-08
2.237122781e-05
-4.229935288e-08
2.240126619e-05
-4.293072396e-08
2.243176042e-05
-4.352424071e-08
2.246268389e-05
-4.40813767e-08
2.249401048e-05
-4.460287667e-08
2.252571416e-05
-4.508880257e-08
2.255776916e-05
-4.553947919e-08
2.259015025e-05
-4.595575941e-08
2.262283299e-05
-4.63387589e-08
2.265579351e-05
-4.668928325e-08
2.268900877e-05
-4.700847176e-08
2.272245645e-05
-4.72973204e-08
2.275611486e-05
-4.755671493e-08
2.278996303e-05
-4.778766357e-08
2.282398064e-05
-4.799106107e-08
2.285814779e-05
-4.816752499e-08
2.289244499e-05
-4.831765347e-08
2.292685324e-05
-4.844222292e-08
2.296135418e-05
-4.854203372e-08
2.299593021e-05
-4.861776027e-08
2.303056442e-05
-4.867019819e-08
2.306524063e-05
-4.87005664e-08
2.309994354e-05
-4.871020163e-08
2.313465791e-05
-4.869954072e-08
2.316936773e-05
-4.866820655e-08
2.320405768e-05
-4.861671968e-08
2.323871407e-05
-4.854642447e-08
2.327332412e-05
-4.845856572e-08
2.330787573e-05
-4.835467001e-08
2.334235721e-05
-4.823554135e-08
2.337675645e-05
-4.810037809e-08
2.341106133e-05
-4.794876582e-08
2.344526072e-05
-4.778206678e-08
2.347934476e-05
-4.760234746e-08
2.351330417e-05
-4.741058034e-08
2.354712942e-05
-4.72062979e-08
2.358081085e-05
-4.698910519e-08
2.361433925e-05
-4.675953533e-08
2.364770632e-05
-4.651894876e-08
2.368090462e-05
-4.626863975e-08
2.3713927e-05
-4.60090735e-08
2.374676634e-05
-4.574020811e-08
2.377941565e-05
-4.546212274e-08
2.381186827e-05
-4.51752035e-08
2.384411829e-05
-4.488049536e-08
2.38761606e-05
-4.457921619e-08
2.390799055e-05
-4.427198523e-08
2.39396035e-05
-4.395885348e-08
2.397099484e-05
-4.363974713e-08
2.400216002e-05
-4.331474172e-08
2.403309474e-05
-4.298414991e-08
2.406379512e-05
-4.264852664e-08
2.409425773e-05
-4.230852061e-08
2.412447949e-05
-4.196462783e-08
2.415445754e-05
-4.161717834e-08
2.418418928e-05
-4.126644194e-08
2.421367228e-05
-4.091271545e-08
2.424290438e-05
-4.055631365e-08
2.427188365e-05
-4.019755526e-08
2.43006084e-05
-3.983677175e-08
2.432907724e-05
-3.947434221e-08
2.435728905e-05
-3.91106441e-08
2.438524294e-05
-3.874601851e-08
2.441293825e-05
-3.838075311e-08
2.444037451e-05
-3.801510863e-08
2.446755144e-05
-3.764933857e-08
2.449446895e-05
-3.728368248e-08
2.452112711e-05
-3.691838149e-08
2.454752617e-05
-3.655366659e-08
2.457366655e-05
-3.618975902e-08
2.459954882e-05
-3.582686971e-08
2.46251737e-05
-3.546520192e-08
2.465054207e-05
-3.510495694e-08
2.467565493e-05
-3.47463362e-08
2.470051345e-05
-3.438950802e-08
2.472511887e-05
-3.403462811e-08
2.474947257e-05
-3.368183735e-08
2.4773576e-05
-3.333126419e-08
2.479743073e-05