/*--------------------------------*- C++ -*----------------------------------*\
| =========                 |                                                 |
| \\      /  F ield         | OpenFOAM: The Open Source CFD Toolbox           |
|  \\    /   O peration     | Version:  2312                                  |
|   \\  /    A nd           | Website:  www.openfoam.com                      |
|    \\/     M anipulation  |                                                 |
\*---------------------------------------------------------------------------*/
FoamFile
{
    version     2.0;
    format      ascii;
    arch        "LSB;label=32;scalar=64";
    class       volScalarField;
    location    "3000";
    object      thermo:psiGasEff;
}
// * * * * * * * * * * * * * * * * * * * * * * * * * * * * * * * * * * * * * //

dimensions      [-2 4 2 0 0 0 0];

internalField   nonuniform List<scalar> 
20400
(
8.190899281e-06
8.190899379e-06
8.190899508e-06
8.190899611e-06
8.190899693e-06
8.190899758e-06
8.190899806e-06
8.19089984e-06
8.19089986e-06
8.190899871e-06
8.190899871e-06
8.190899862e-06
8.19089984e-06
8.190899804e-06
8.190899752e-06
8.190899683e-06
8.190899596e-06
8.190899491e-06
8.190899368e-06
8.190899226e-06
8.190899064e-06
8.190898883e-06
8.190898681e-06
8.190898459e-06
8.190898216e-06
8.190897951e-06
8.190897665e-06
8.190897355e-06
8.190897022e-06
8.190896664e-06
8.190896283e-06
8.190895878e-06
8.190895449e-06
8.190894996e-06
8.19089452e-06
8.190894019e-06
8.190893494e-06
8.190892945e-06
8.190892373e-06
8.190891778e-06
8.190891158e-06
8.190890512e-06
8.190889839e-06
8.19088914e-06
8.190888415e-06
8.190887665e-06
8.190886888e-06
8.190886085e-06
8.190885255e-06
8.190884399e-06
8.190883516e-06
8.190882606e-06
8.190881668e-06
8.190880703e-06
8.19087971e-06
8.190878688e-06
8.190877639e-06
8.190876561e-06
8.190875453e-06
8.190874317e-06
8.190873151e-06
8.190871955e-06
8.190870729e-06
8.190869471e-06
8.190868183e-06
8.190866864e-06
8.190865513e-06
8.19086413e-06
8.190862715e-06
8.190861267e-06
8.190859786e-06
8.190858271e-06
8.190856722e-06
8.190855138e-06
8.190853519e-06
8.190851864e-06
8.190850173e-06
8.190848445e-06
8.190846679e-06
8.190844875e-06
8.190843032e-06
8.19084115e-06
8.190839227e-06
8.190837264e-06
8.190835258e-06
8.190833211e-06
8.19083112e-06
8.190828985e-06
8.190826805e-06
8.19082458e-06
8.190822308e-06
8.19081999e-06
8.190817623e-06
8.190815207e-06
8.190812742e-06
8.190810226e-06
8.190807659e-06
8.19080504e-06
8.190802367e-06
8.190799641e-06
8.190796861e-06
8.190794025e-06
8.190791134e-06
8.190788186e-06
8.190785181e-06
8.190782118e-06
8.190778998e-06
8.190775819e-06
8.190772583e-06
8.190769288e-06
8.190765935e-06
8.190762523e-06
8.190759053e-06
8.190755528e-06
8.190751946e-06
8.190748309e-06
8.190744615e-06
8.190740862e-06
8.190737058e-06
8.190733204e-06
8.190729302e-06
8.190725354e-06
8.190721361e-06
8.190717325e-06
8.19071325e-06
8.190709138e-06
8.190704993e-06
8.190700818e-06
8.190696618e-06
8.190692401e-06
8.190688176e-06
8.19068394e-06
8.19067966e-06
8.190675396e-06
8.190671143e-06
8.190666896e-06
8.190662661e-06
8.190658443e-06
8.190654249e-06
8.190650083e-06
8.190645951e-06
8.190641858e-06
8.190637811e-06
8.190633814e-06
8.190629872e-06
8.190625994e-06
8.1906222e-06
8.190618497e-06
8.190614797e-06
8.190611201e-06
8.190607701e-06
8.190604288e-06
8.190600964e-06
8.190597733e-06
8.190594599e-06
8.190591563e-06
8.190588629e-06
8.190585801e-06
8.190583088e-06
8.190580487e-06
8.190577991e-06
8.190575597e-06
8.190573306e-06
8.190571119e-06
8.190569032e-06
8.190567045e-06
8.190565158e-06
8.190563372e-06
8.190561686e-06
8.1905601e-06
8.190558611e-06
8.190557218e-06
8.190555917e-06
8.190554705e-06
8.19055358e-06
8.190552538e-06
8.190551576e-06
8.19055069e-06
8.190549877e-06
8.190549134e-06
8.190548456e-06
8.19054784e-06
8.190547282e-06
8.19054678e-06
8.190546328e-06
8.190545925e-06
8.190545567e-06
8.190545249e-06
8.19054497e-06
8.190544726e-06
8.190544514e-06
8.19054433e-06
8.190544174e-06
8.190544041e-06
8.190543929e-06
8.190543836e-06
8.19054376e-06
8.190543698e-06
8.190543648e-06
8.190543609e-06
8.190543579e-06
8.190543556e-06
8.190543539e-06
8.190543526e-06
8.190543516e-06
8.190543508e-06
8.190543501e-06
8.190543494e-06
8.190543485e-06
8.190543474e-06
8.190543461e-06
8.190543445e-06
8.190543425e-06
8.190543401e-06
8.190543372e-06
8.190543339e-06
8.190543303e-06
8.190543261e-06
8.190543212e-06
8.190543157e-06
8.190543096e-06
8.190543028e-06
8.190542954e-06
8.190542873e-06
8.190542787e-06
8.190542694e-06
8.190542596e-06
8.190542491e-06
8.190542382e-06
8.190542267e-06
8.190542147e-06
8.190542022e-06
8.190541893e-06
8.190541759e-06
8.190541622e-06
8.19054148e-06
8.190541335e-06
8.190541187e-06
8.190541036e-06
8.190540882e-06
8.190540725e-06
8.190540567e-06
8.190540407e-06
8.190540245e-06
8.190540081e-06
8.190539917e-06
8.190539752e-06
8.190539586e-06
8.19053942e-06
8.190539254e-06
8.190539088e-06
8.190538923e-06
8.190538758e-06
8.190538594e-06
8.190538432e-06
8.19053827e-06
8.190538111e-06
8.190537953e-06
8.190537797e-06
8.190537643e-06
8.190537491e-06
8.190537342e-06
8.190537196e-06
8.190537053e-06
8.190536913e-06
8.190536776e-06
8.190536643e-06
8.190536513e-06
8.190536387e-06
8.190536265e-06
8.190536147e-06
8.190536032e-06
8.190535923e-06
8.190535817e-06
8.190535716e-06
8.190535619e-06
8.190535528e-06
8.190535441e-06
8.190535358e-06
8.190535281e-06
8.190535209e-06
8.190535142e-06
8.19053508e-06
8.190535023e-06
8.190534972e-06
8.190534926e-06
8.190534885e-06
8.19053485e-06
8.190534821e-06
8.190534797e-06
8.190534778e-06
8.190534765e-06
8.190534758e-06
8.190534757e-06
8.190534761e-06
8.190534771e-06
8.190534787e-06
8.190534808e-06
8.190534836e-06
8.190534868e-06
8.190534907e-06
8.190534952e-06
8.190535002e-06
8.190535058e-06
8.19053512e-06
8.190535187e-06
8.19053526e-06
8.190535339e-06
8.190535423e-06
8.190535514e-06
8.190535609e-06
8.190535711e-06
8.190535818e-06
8.19053593e-06
8.190536048e-06
8.190536172e-06
8.1905363e-06
8.190536435e-06
8.190536574e-06
8.190536719e-06
8.19053687e-06
8.190537025e-06
8.190537186e-06
8.190537352e-06
8.190537523e-06
8.190537699e-06
8.19053788e-06
8.190538066e-06
8.190538257e-06
8.190538453e-06
8.190538654e-06
8.190538859e-06
8.190539069e-06
8.190539284e-06
8.190539504e-06
8.190539728e-06
8.190539957e-06
8.19054019e-06
8.190540428e-06
8.19054067e-06
8.190540916e-06
8.190541166e-06
8.190541421e-06
8.19054168e-06
8.190541944e-06
8.190542211e-06
8.190542482e-06
8.190542757e-06
8.190543037e-06
8.19054332e-06
8.190543607e-06
8.190543897e-06
8.190544192e-06
8.19054449e-06
8.190544792e-06
8.190545097e-06
8.190545406e-06
8.190545719e-06
8.190546035e-06
8.190546354e-06
8.190546677e-06
8.190547003e-06
8.190547332e-06
8.190547665e-06
8.190548e-06
8.190548339e-06
8.190548681e-06
8.190549026e-06
8.190549375e-06
8.190549726e-06
8.19055008e-06
8.190550437e-06
8.190550796e-06
8.190551159e-06
8.190551524e-06
8.190551893e-06
8.190552264e-06
8.190552637e-06
8.190553013e-06
8.190553392e-06
8.190553773e-06
8.190554157e-06
8.190554544e-06
8.190554932e-06
8.190555324e-06
8.190555717e-06
8.190556113e-06
8.190556511e-06
8.190556912e-06
8.190557315e-06
8.19055772e-06
8.190558127e-06
8.190558536e-06
8.190558948e-06
8.190559361e-06
8.190559777e-06
8.190560195e-06
8.190560614e-06
8.190561036e-06
8.19056146e-06
8.190561885e-06
8.190562313e-06
8.190562742e-06
8.190563173e-06
8.190563607e-06
8.190564041e-06
8.190564478e-06
8.190564917e-06
8.190565357e-06
8.190565799e-06
8.190566242e-06
8.190566688e-06
8.190567134e-06
8.190567583e-06
8.190568033e-06
8.190568485e-06
8.190568938e-06
8.190569393e-06
8.19056985e-06
8.190570308e-06
8.190570767e-06
8.190571228e-06
8.190571691e-06
8.190572154e-06
8.19057262e-06
8.190573086e-06
8.190573555e-06
8.190574024e-06
8.190574495e-06
8.190574967e-06
8.190575441e-06
8.190575916e-06
8.190576392e-06
8.190576869e-06
8.190577348e-06
8.190577828e-06
8.190578309e-06
8.190578792e-06
8.190579276e-06
8.190579761e-06
8.190580247e-06
8.190580734e-06
8.190581223e-06
8.190581712e-06
8.190582203e-06
8.190582695e-06
8.190583188e-06
8.190583682e-06
8.190584177e-06
8.190584673e-06
8.190585171e-06
8.190585669e-06
8.190586168e-06
8.190586669e-06
8.19058717e-06
8.190587673e-06
8.190588176e-06
8.190588681e-06
8.190589186e-06
8.190589693e-06
8.1905902e-06
8.190590708e-06
8.190591217e-06
8.190591727e-06
8.190592238e-06
8.19059275e-06
8.190593263e-06
8.190593777e-06
8.190594291e-06
8.190594807e-06
8.190595323e-06
8.19059584e-06
8.190596358e-06
8.190596876e-06
8.190597396e-06
8.190597916e-06
8.190598437e-06
8.190598959e-06
8.190599482e-06
8.190600005e-06
8.190600529e-06
8.190601054e-06
8.19060158e-06
8.190602106e-06
8.190602633e-06
8.190603161e-06
8.190603689e-06
8.190604218e-06
8.190604748e-06
8.190605278e-06
8.19060581e-06
8.190606341e-06
8.190606874e-06
8.190607407e-06
8.19060794e-06
8.190608475e-06
8.19060901e-06
8.190609544e-06
8.190610076e-06
8.190610613e-06
8.190899187e-06
8.190899289e-06
8.190899383e-06
8.190899462e-06
8.19089953e-06
8.19089959e-06
8.190899639e-06
8.190899675e-06
8.190899701e-06
8.190899716e-06
8.190899721e-06
8.190899714e-06
8.190899693e-06
8.190899656e-06
8.190899603e-06
8.190899533e-06
8.190899446e-06
8.190899341e-06
8.190899218e-06
8.190899076e-06
8.190898915e-06
8.190898733e-06
8.190898532e-06
8.19089831e-06
8.190898067e-06
8.190897803e-06
8.190897517e-06
8.190897208e-06
8.190896875e-06
8.190896519e-06
8.190896138e-06
8.190895734e-06
8.190895306e-06
8.190894855e-06
8.19089438e-06
8.19089388e-06
8.190893356e-06
8.190892808e-06
8.190892237e-06
8.190891642e-06
8.190891023e-06
8.190890377e-06
8.190889705e-06
8.190889007e-06
8.190888283e-06
8.190887533e-06
8.190886757e-06
8.190885955e-06
8.190885127e-06
8.190884271e-06
8.190883389e-06
8.190882479e-06
8.190881542e-06
8.190880578e-06
8.190879585e-06
8.190878565e-06
8.190877516e-06
8.190876438e-06
8.190875332e-06
8.190874196e-06
8.19087303e-06
8.190871835e-06
8.190870609e-06
8.190869353e-06
8.190868065e-06
8.190866746e-06
8.190865396e-06
8.190864014e-06
8.190862599e-06
8.190861151e-06
8.190859671e-06
8.190858156e-06
8.190856608e-06
8.190855024e-06
8.190853406e-06
8.190851751e-06
8.190850061e-06
8.190848333e-06
8.190846568e-06
8.190844765e-06
8.190842922e-06
8.190841041e-06
8.190839119e-06
8.190837156e-06
8.190835152e-06
8.190833105e-06
8.190831016e-06
8.190828882e-06
8.190826704e-06
8.19082448e-06
8.190822209e-06
8.190819892e-06
8.190817527e-06
8.190815114e-06
8.190812651e-06
8.190810138e-06
8.190807574e-06
8.190804958e-06
8.190802289e-06
8.190799567e-06
8.190796791e-06
8.19079396e-06
8.190791075e-06
8.190788133e-06
8.190785134e-06
8.190782078e-06
8.190778965e-06
8.190775794e-06
8.190772566e-06
8.19076928e-06
8.190765936e-06
8.190762534e-06
8.190759074e-06
8.19075556e-06
8.190751992e-06
8.190748369e-06
8.190744691e-06
8.190740963e-06
8.190737184e-06
8.190733354e-06
8.190729477e-06
8.190725552e-06
8.190721584e-06
8.190717575e-06
8.190713528e-06
8.190709446e-06
8.190705333e-06
8.190701193e-06
8.19069703e-06
8.190692849e-06
8.190688662e-06
8.190684473e-06
8.19068023e-06
8.190676003e-06
8.190671783e-06
8.19066757e-06
8.190663369e-06
8.190659184e-06
8.190655022e-06
8.190650888e-06
8.190646787e-06
8.190642724e-06
8.190638705e-06
8.190634735e-06
8.190630819e-06
8.190626958e-06
8.190623147e-06
8.190619394e-06
8.190615787e-06
8.190612237e-06
8.19060875e-06
8.190605347e-06
8.190602033e-06
8.190598809e-06
8.190595678e-06
8.190592643e-06
8.190589705e-06
8.190586863e-06
8.19058411e-06
8.190581453e-06
8.190578897e-06
8.190576447e-06
8.190574103e-06
8.190571866e-06
8.19056973e-06
8.190567694e-06
8.190565763e-06
8.190563938e-06
8.190562217e-06
8.190560598e-06
8.19055908e-06
8.19055766e-06
8.190556333e-06
8.190555099e-06
8.190553952e-06
8.19055289e-06
8.190551909e-06
8.190551005e-06
8.190550175e-06
8.190549416e-06
8.190548723e-06
8.190548092e-06
8.190547521e-06
8.190547006e-06
8.190546542e-06
8.190546127e-06
8.190545758e-06
8.19054543e-06
8.19054514e-06
8.190544886e-06
8.190544664e-06
8.190544472e-06
8.190544307e-06
8.190544165e-06
8.190544046e-06
8.190543945e-06
8.190543861e-06
8.190543792e-06
8.190543736e-06
8.19054369e-06
8.190543654e-06
8.190543625e-06
8.190543602e-06
8.190543584e-06
8.190543568e-06
8.190543555e-06
8.190543543e-06
8.190543531e-06
8.190543518e-06
8.190543503e-06
8.190543486e-06
8.190543466e-06
8.190543442e-06
8.190543415e-06
8.190543382e-06
8.190543346e-06
8.190543306e-06
8.190543262e-06
8.190543212e-06
8.190543155e-06
8.190543091e-06
8.190543021e-06
8.190542945e-06
8.190542862e-06
8.190542774e-06
8.19054268e-06
8.19054258e-06
8.190542474e-06
8.190542364e-06
8.190542248e-06
8.190542127e-06
8.190542001e-06
8.190541871e-06
8.190541737e-06
8.190541599e-06
8.190541457e-06
8.190541312e-06
8.190541163e-06
8.190541012e-06
8.190540858e-06
8.190540702e-06
8.190540543e-06
8.190540383e-06
8.190540221e-06
8.190540058e-06
8.190539894e-06
8.190539729e-06
8.190539564e-06
8.190539399e-06
8.190539233e-06
8.190539068e-06
8.190538903e-06
8.190538738e-06
8.190538575e-06
8.190538413e-06
8.190538252e-06
8.190538093e-06
8.190537936e-06
8.19053778e-06
8.190537627e-06
8.190537477e-06
8.190537328e-06
8.190537183e-06
8.19053704e-06
8.190536901e-06
8.190536765e-06
8.190536632e-06
8.190536503e-06
8.190536378e-06
8.190536256e-06
8.190536139e-06
8.190536025e-06
8.190535916e-06
8.190535811e-06
8.190535711e-06
8.190535615e-06
8.190535524e-06
8.190535437e-06
8.190535356e-06
8.190535279e-06
8.190535207e-06
8.19053514e-06
8.190535079e-06
8.190535023e-06
8.190534972e-06
8.190534927e-06
8.190534887e-06
8.190534852e-06
8.190534823e-06
8.1905348e-06
8.190534782e-06
8.190534769e-06
8.190534763e-06
8.190534762e-06
8.190534766e-06
8.190534777e-06
8.190534793e-06
8.190534815e-06
8.190534842e-06
8.190534876e-06
8.190534915e-06
8.19053496e-06
8.19053501e-06
8.190535066e-06
8.190535128e-06
8.190535196e-06
8.19053527e-06
8.190535349e-06
8.190535433e-06
8.190535524e-06
8.19053562e-06
8.190535721e-06
8.190535828e-06
8.190535941e-06
8.190536059e-06
8.190536183e-06
8.190536312e-06
8.190536446e-06
8.190536586e-06
8.190536731e-06
8.190536882e-06
8.190537037e-06
8.190537198e-06
8.190537364e-06
8.190537535e-06
8.190537711e-06
8.190537893e-06
8.190538079e-06
8.19053827e-06
8.190538466e-06
8.190538667e-06
8.190538872e-06
8.190539082e-06
8.190539297e-06
8.190539517e-06
8.190539741e-06
8.19053997e-06
8.190540203e-06
8.190540441e-06
8.190540683e-06
8.190540929e-06
8.19054118e-06
8.190541434e-06
8.190541693e-06
8.190541957e-06
8.190542224e-06
8.190542495e-06
8.19054277e-06
8.190543049e-06
8.190543333e-06
8.190543619e-06
8.19054391e-06
8.190544205e-06
8.190544503e-06
8.190544804e-06
8.19054511e-06
8.190545419e-06
8.190545731e-06
8.190546047e-06
8.190546366e-06
8.190546689e-06
8.190547015e-06
8.190547344e-06
8.190547676e-06
8.190548012e-06
8.190548351e-06
8.190548693e-06
8.190549038e-06
8.190549386e-06
8.190549737e-06
8.190550091e-06
8.190550448e-06
8.190550808e-06
8.19055117e-06
8.190551535e-06
8.190551903e-06
8.190552274e-06
8.190552648e-06
8.190553024e-06
8.190553402e-06
8.190553784e-06
8.190554167e-06
8.190554554e-06
8.190554942e-06
8.190555333e-06
8.190555727e-06
8.190556123e-06
8.190556521e-06
8.190556921e-06
8.190557324e-06
8.190557729e-06
8.190558136e-06
8.190558545e-06
8.190558957e-06
8.19055937e-06
8.190559786e-06
8.190560203e-06
8.190560623e-06
8.190561045e-06
8.190561468e-06
8.190561894e-06
8.190562321e-06
8.19056275e-06
8.190563182e-06
8.190563615e-06
8.190564049e-06
8.190564486e-06
8.190564924e-06
8.190565364e-06
8.190565806e-06
8.19056625e-06
8.190566695e-06
8.190567142e-06
8.19056759e-06
8.190568041e-06
8.190568492e-06
8.190568945e-06
8.1905694e-06
8.190569857e-06
8.190570315e-06
8.190570774e-06
8.190571235e-06
8.190571697e-06
8.190572161e-06
8.190572626e-06
8.190573093e-06
8.190573561e-06
8.19057403e-06
8.190574501e-06
8.190574973e-06
8.190575447e-06
8.190575922e-06
8.190576398e-06
8.190576875e-06
8.190577354e-06
8.190577834e-06
8.190578315e-06
8.190578797e-06
8.190579281e-06
8.190579766e-06
8.190580252e-06
8.190580739e-06
8.190581228e-06
8.190581717e-06
8.190582208e-06
8.1905827e-06
8.190583193e-06
8.190583687e-06
8.190584182e-06
8.190584678e-06
8.190585176e-06
8.190585674e-06
8.190586173e-06
8.190586674e-06
8.190587175e-06
8.190587677e-06
8.190588181e-06
8.190588685e-06
8.190589191e-06
8.190589697e-06
8.190590204e-06
8.190590712e-06
8.190591222e-06
8.190591732e-06
8.190592243e-06
8.190592754e-06
8.190593267e-06
8.190593781e-06
8.190594295e-06
8.190594811e-06
8.190595327e-06
8.190595844e-06
8.190596362e-06
8.19059688e-06
8.1905974e-06
8.19059792e-06
8.190598441e-06
8.190598963e-06
8.190599485e-06
8.190600009e-06
8.190600533e-06
8.190601057e-06
8.190601583e-06
8.190602109e-06
8.190602636e-06
8.190603164e-06
8.190603692e-06
8.190604221e-06
8.190604751e-06
8.190605281e-06
8.190605813e-06
8.190606344e-06
8.190606877e-06
8.19060741e-06
8.190607943e-06
8.190608478e-06
8.190609013e-06
8.190609547e-06
8.190610077e-06
8.190610613e-06
8.190899042e-06
8.190899187e-06
8.190899283e-06
8.190899349e-06
8.190899405e-06
8.190899454e-06
8.190899496e-06
8.190899528e-06
8.190899553e-06
8.190899571e-06
8.190899579e-06
8.190899574e-06
8.190899553e-06
8.190899515e-06
8.190899461e-06
8.19089939e-06
8.190899303e-06
8.190899199e-06
8.190899077e-06
8.190898936e-06
8.190898775e-06
8.190898595e-06
8.190898394e-06
8.190898173e-06
8.190897931e-06
8.190897667e-06
8.190897383e-06
8.190897075e-06
8.190896744e-06
8.190896388e-06
8.190896009e-06
8.190895606e-06
8.19089518e-06
8.19089473e-06
8.190894257e-06
8.190893758e-06
8.190893235e-06
8.190892687e-06
8.190892117e-06
8.190891524e-06
8.190890906e-06
8.190890261e-06
8.19088959e-06
8.190888893e-06
8.19088817e-06
8.190887421e-06
8.190886646e-06
8.190885845e-06
8.190885017e-06
8.190884163e-06
8.190883281e-06
8.190882373e-06
8.190881437e-06
8.190880473e-06
8.190879481e-06
8.190878462e-06
8.190877414e-06
8.190876337e-06
8.190875231e-06
8.190874096e-06
8.190872931e-06
8.190871737e-06
8.190870512e-06
8.190869256e-06
8.190867969e-06
8.19086665e-06
8.190865301e-06
8.190863919e-06
8.190862505e-06
8.190861058e-06
8.190859578e-06
8.190858064e-06
8.190856517e-06
8.190854934e-06
8.190853316e-06
8.190851663e-06
8.190849973e-06
8.190848247e-06
8.190846483e-06
8.190844681e-06
8.190842841e-06
8.190840961e-06
8.190839041e-06
8.19083708e-06
8.190835078e-06
8.190833034e-06
8.190830947e-06
8.190828816e-06
8.190826641e-06
8.190824421e-06
8.190822155e-06
8.190819842e-06
8.190817482e-06
8.190815074e-06
8.190812617e-06
8.19081011e-06
8.190807553e-06
8.190804945e-06
8.190802284e-06
8.19079957e-06
8.190796803e-06
8.190793983e-06
8.190791108e-06
8.190788178e-06
8.190785191e-06
8.190782147e-06
8.190779047e-06
8.190775893e-06
8.190772682e-06
8.190769413e-06
8.190766091e-06
8.190762713e-06
8.190759278e-06
8.190755788e-06
8.190752243e-06
8.190748644e-06
8.19074499e-06
8.190741284e-06
8.190737526e-06
8.19073372e-06
8.190729866e-06
8.190725966e-06
8.190722023e-06
8.190718039e-06
8.190714017e-06
8.19070996e-06
8.190705871e-06
8.190701754e-06
8.190697612e-06
8.190693443e-06
8.19068924e-06
8.190685009e-06
8.190680851e-06
8.190676664e-06
8.190672459e-06
8.190668259e-06
8.19066407e-06
8.190659896e-06
8.190655742e-06
8.190651613e-06
8.190647516e-06
8.190643455e-06
8.190639437e-06
8.190635465e-06
8.190631546e-06
8.190627679e-06
8.190623858e-06
8.190620082e-06
8.19061644e-06
8.190612855e-06
8.190609335e-06
8.190605899e-06
8.190602552e-06
8.190599296e-06
8.190596134e-06
8.190593068e-06
8.190590102e-06
8.190587233e-06
8.190584458e-06
8.19058178e-06
8.190579207e-06
8.190576741e-06
8.190574384e-06
8.190572137e-06
8.190570002e-06
8.190567976e-06
8.190566056e-06
8.190564238e-06
8.190562522e-06
8.190560905e-06
8.190559387e-06
8.190557964e-06
8.190556634e-06
8.190555395e-06
8.190554242e-06
8.190553173e-06
8.190552185e-06
8.190551273e-06
8.190550436e-06
8.190549668e-06
8.190548966e-06
8.190548327e-06
8.190547747e-06
8.190547223e-06
8.190546751e-06
8.190546327e-06
8.190545949e-06
8.190545612e-06
8.190545315e-06
8.190545052e-06
8.190544823e-06
8.190544622e-06
8.190544449e-06
8.1905443e-06
8.190544173e-06
8.190544065e-06
8.190543975e-06
8.190543899e-06
8.190543836e-06
8.190543784e-06
8.190543741e-06
8.190543707e-06
8.190543678e-06
8.190543654e-06
8.190543633e-06
8.190543615e-06
8.190543597e-06
8.19054358e-06
8.190543563e-06
8.190543543e-06
8.190543522e-06
8.190543498e-06
8.19054347e-06
8.190543439e-06
8.190543403e-06
8.190543363e-06
8.19054332e-06
8.190543272e-06
8.190543219e-06
8.19054316e-06
8.190543094e-06
8.190543022e-06
8.190542943e-06
8.190542858e-06
8.190542767e-06
8.190542671e-06
8.190542569e-06
8.190542462e-06
8.19054235e-06
8.190542233e-06
8.190542111e-06
8.190541984e-06
8.190541853e-06
8.190541718e-06
8.190541579e-06
8.190541436e-06
8.19054129e-06
8.190541141e-06
8.190540989e-06
8.190540835e-06
8.190540678e-06
8.19054052e-06
8.190540359e-06
8.190540197e-06
8.190540034e-06
8.19053987e-06
8.190539705e-06
8.19053954e-06
8.190539375e-06
8.190539209e-06
8.190539044e-06
8.19053888e-06
8.190538716e-06
8.190538553e-06
8.190538391e-06
8.190538231e-06
8.190538072e-06
8.190537915e-06
8.19053776e-06
8.190537608e-06
8.190537457e-06
8.19053731e-06
8.190537165e-06
8.190537023e-06
8.190536884e-06
8.190536749e-06
8.190536616e-06
8.190536488e-06
8.190536363e-06
8.190536242e-06
8.190536125e-06
8.190536012e-06
8.190535904e-06
8.1905358e-06
8.1905357e-06
8.190535605e-06
8.190535514e-06
8.190535428e-06
8.190535347e-06
8.190535271e-06
8.1905352e-06
8.190535134e-06
8.190535073e-06
8.190535018e-06
8.190534967e-06
8.190534922e-06
8.190534883e-06
8.190534849e-06
8.19053482e-06
8.190534797e-06
8.19053478e-06
8.190534768e-06
8.190534762e-06
8.190534761e-06
8.190534766e-06
8.190534777e-06
8.190534794e-06
8.190534816e-06
8.190534844e-06
8.190534878e-06
8.190534917e-06
8.190534962e-06
8.190535013e-06
8.19053507e-06
8.190535132e-06
8.1905352e-06
8.190535274e-06
8.190535353e-06
8.190535438e-06
8.190535529e-06
8.190535625e-06
8.190535727e-06
8.190535835e-06
8.190535947e-06
8.190536066e-06
8.19053619e-06
8.190536319e-06
8.190536454e-06
8.190536594e-06
8.190536739e-06
8.19053689e-06
8.190537045e-06
8.190537206e-06
8.190537373e-06
8.190537544e-06
8.19053772e-06
8.190537901e-06
8.190538088e-06
8.190538279e-06
8.190538475e-06
8.190538676e-06
8.190538882e-06
8.190539092e-06
8.190539307e-06
8.190539527e-06
8.190539751e-06
8.19053998e-06
8.190540213e-06
8.190540451e-06
8.190540693e-06
8.190540939e-06
8.19054119e-06
8.190541444e-06
8.190541703e-06
8.190541967e-06
8.190542234e-06
8.190542505e-06
8.19054278e-06
8.19054306e-06
8.190543343e-06
8.190543629e-06
8.19054392e-06
8.190544214e-06
8.190544513e-06
8.190544814e-06
8.19054512e-06
8.190545428e-06
8.190545741e-06
8.190546057e-06
8.190546376e-06
8.190546698e-06
8.190547024e-06
8.190547354e-06
8.190547686e-06
8.190548022e-06
8.19054836e-06
8.190548702e-06
8.190549047e-06
8.190549395e-06
8.190549746e-06
8.1905501e-06
8.190550457e-06
8.190550816e-06
8.190551179e-06
8.190551544e-06
8.190551912e-06
8.190552283e-06
8.190552656e-06
8.190553032e-06
8.190553411e-06
8.190553792e-06
8.190554176e-06
8.190554562e-06
8.190554951e-06
8.190555342e-06
8.190555735e-06
8.190556131e-06
8.190556529e-06
8.190556929e-06
8.190557332e-06
8.190557737e-06
8.190558144e-06
8.190558553e-06
8.190558964e-06
8.190559378e-06
8.190559793e-06
8.190560211e-06
8.19056063e-06
8.190561052e-06
8.190561475e-06
8.190561901e-06
8.190562328e-06
8.190562757e-06
8.190563188e-06
8.190563621e-06
8.190564056e-06
8.190564493e-06
8.190564931e-06
8.190565371e-06
8.190565813e-06
8.190566256e-06
8.190566701e-06
8.190567148e-06
8.190567596e-06
8.190568046e-06
8.190568498e-06
8.190568951e-06
8.190569406e-06
8.190569862e-06
8.19057032e-06
8.19057078e-06
8.19057124e-06
8.190571703e-06
8.190572166e-06
8.190572632e-06
8.190573098e-06
8.190573566e-06
8.190574036e-06
8.190574506e-06
8.190574978e-06
8.190575452e-06
8.190575927e-06
8.190576403e-06
8.19057688e-06
8.190577359e-06
8.190577839e-06
8.19057832e-06
8.190578802e-06
8.190579286e-06
8.190579771e-06
8.190580257e-06
8.190580744e-06
8.190581232e-06
8.190581722e-06
8.190582212e-06
8.190582704e-06
8.190583197e-06
8.190583691e-06
8.190584186e-06
8.190584682e-06
8.190585179e-06
8.190585678e-06
8.190586177e-06
8.190586677e-06
8.190587179e-06
8.190587681e-06
8.190588185e-06
8.190588689e-06
8.190589194e-06
8.1905897e-06
8.190590208e-06
8.190590716e-06
8.190591225e-06
8.190591735e-06
8.190592246e-06
8.190592758e-06
8.19059327e-06
8.190593784e-06
8.190594298e-06
8.190594814e-06
8.19059533e-06
8.190595847e-06
8.190596365e-06
8.190596883e-06
8.190597403e-06
8.190597923e-06
8.190598444e-06
8.190598966e-06
8.190599488e-06
8.190600011e-06
8.190600535e-06
8.19060106e-06
8.190601586e-06
8.190602112e-06
8.190602639e-06
8.190603166e-06
8.190603695e-06
8.190604224e-06
8.190604754e-06
8.190605284e-06
8.190605815e-06
8.190606347e-06
8.190606879e-06
8.190607412e-06
8.190607945e-06
8.19060848e-06
8.190609015e-06
8.190609549e-06
8.190610078e-06
8.190610612e-06
8.190898908e-06
8.19089909e-06
8.190899204e-06
8.190899269e-06
8.190899319e-06
8.190899362e-06
8.190899397e-06
8.190899426e-06
8.190899449e-06
8.190899467e-06
8.190899474e-06
8.190899466e-06
8.190899442e-06
8.190899402e-06
8.190899348e-06
8.190899278e-06
8.190899191e-06
8.190899088e-06
8.190898966e-06
8.190898826e-06
8.190898666e-06
8.190898487e-06
8.190898287e-06
8.190898067e-06
8.190897826e-06
8.190897564e-06
8.190897281e-06
8.190896975e-06
8.190896645e-06
8.190896291e-06
8.190895912e-06
8.19089551e-06
8.190895084e-06
8.190894635e-06
8.190894163e-06
8.190893665e-06
8.190893142e-06
8.190892594e-06
8.190892023e-06
8.190891432e-06
8.190890818e-06
8.190890174e-06
8.190889503e-06
8.190888806e-06
8.190888083e-06
8.190887335e-06
8.19088656e-06
8.190885759e-06
8.190884931e-06
8.190884077e-06
8.190883196e-06
8.190882287e-06
8.190881352e-06
8.190880388e-06
8.190879397e-06
8.190878378e-06
8.19087733e-06
8.190876254e-06
8.190875148e-06
8.190874014e-06
8.19087285e-06
8.190871656e-06
8.190870432e-06
8.190869177e-06
8.19086789e-06
8.190866573e-06
8.190865224e-06
8.190863844e-06
8.190862431e-06
8.190860986e-06
8.190859508e-06
8.190857996e-06
8.19085645e-06
8.19085487e-06
8.190853255e-06
8.190851604e-06
8.190849917e-06
8.190848193e-06
8.190846432e-06
8.190844634e-06
8.190842797e-06
8.190840921e-06
8.190839006e-06
8.19083705e-06
8.190835053e-06
8.190833015e-06
8.190830934e-06
8.190828811e-06
8.190826645e-06
8.190824434e-06
8.190822179e-06
8.190819877e-06
8.190817528e-06
8.190815132e-06
8.190812687e-06
8.190810193e-06
8.19080765e-06
8.190805055e-06
8.190802408e-06
8.190799708e-06
8.190796956e-06
8.190794151e-06
8.190791291e-06
8.190788377e-06
8.190785406e-06
8.190782377e-06
8.190779295e-06
8.190776163e-06
8.190772977e-06
8.190769735e-06
8.190766433e-06
8.190763073e-06
8.190759656e-06
8.190756184e-06
8.190752655e-06
8.190749072e-06
8.190745433e-06
8.190741741e-06
8.190737998e-06
8.190734204e-06
8.190730361e-06
8.190726472e-06
8.190722539e-06
8.190718563e-06
8.190714548e-06
8.190710496e-06
8.190706411e-06
8.190702296e-06
8.190698153e-06
8.190693981e-06
8.190689769e-06
8.190685525e-06
8.190681348e-06
8.190677138e-06
8.190672913e-06
8.190668692e-06
8.19066448e-06
8.190660283e-06
8.190656104e-06
8.190651951e-06
8.190647828e-06
8.190643742e-06
8.190639698e-06
8.190635702e-06
8.190631759e-06
8.190627874e-06
8.190624054e-06
8.190620303e-06
8.190616586e-06
8.190612958e-06
8.190609416e-06
8.19060596e-06
8.190602593e-06
8.190599319e-06
8.190596142e-06
8.190593063e-06
8.190590087e-06
8.190587216e-06
8.190584456e-06
8.190581805e-06
8.190579261e-06
8.190576823e-06
8.190574491e-06
8.190572267e-06
8.190570151e-06
8.190568142e-06
8.190566237e-06
8.190564432e-06
8.190562727e-06
8.190561119e-06
8.190559608e-06
8.19055819e-06
8.190556864e-06
8.190555627e-06
8.190554475e-06
8.190553407e-06
8.190552417e-06
8.190551504e-06
8.190550664e-06
8.190549893e-06
8.190549188e-06
8.190548545e-06
8.19054796e-06
8.190547431e-06
8.190546954e-06
8.190546525e-06
8.190546141e-06
8.190545798e-06
8.190545495e-06
8.190545226e-06
8.19054499e-06
8.190544784e-06
8.190544605e-06
8.19054445e-06
8.190544316e-06
8.190544202e-06
8.190544105e-06
8.190544023e-06
8.190543954e-06
8.190543897e-06
8.190543848e-06
8.190543807e-06
8.190543773e-06
8.190543743e-06
8.190543717e-06
8.190543694e-06
8.190543671e-06
8.190543649e-06
8.190543627e-06
8.190543603e-06
8.190543577e-06
8.190543548e-06
8.190543516e-06
8.19054348e-06
8.190543441e-06
8.190543397e-06
8.19054335e-06
8.190543298e-06
8.190543241e-06
8.190543178e-06
8.190543111e-06
8.190543036e-06
8.190542955e-06
8.190542867e-06
8.190542774e-06
8.190542675e-06
8.19054257e-06
8.190542461e-06
8.190542347e-06
8.190542227e-06
8.190542103e-06
8.190541975e-06
8.190541842e-06
8.190541706e-06
8.190541565e-06
8.190541421e-06
8.190541274e-06
8.190541124e-06
8.190540971e-06
8.190540815e-06
8.190540658e-06
8.190540498e-06
8.190540337e-06
8.190540175e-06
8.190540011e-06
8.190539847e-06
8.190539682e-06
8.190539516e-06
8.19053935e-06
8.190539185e-06
8.190539019e-06
8.190538855e-06
8.190538691e-06
8.190538528e-06
8.190538366e-06
8.190538206e-06
8.190538047e-06
8.19053789e-06
8.190537736e-06
8.190537583e-06
8.190537433e-06
8.190537286e-06
8.190537141e-06
8.190537e-06
8.190536861e-06
8.190536726e-06
8.190536595e-06
8.190536466e-06
8.190536342e-06
8.190536222e-06
8.190536105e-06
8.190535993e-06
8.190535885e-06
8.190535781e-06
8.190535682e-06
8.190535587e-06
8.190535497e-06
8.190535412e-06
8.190535331e-06
8.190535256e-06
8.190535185e-06
8.19053512e-06
8.190535059e-06
8.190535004e-06
8.190534955e-06
8.19053491e-06
8.190534871e-06
8.190534837e-06
8.19053481e-06
8.190534787e-06
8.19053477e-06
8.190534759e-06
8.190534753e-06
8.190534753e-06
8.190534758e-06
8.19053477e-06
8.190534787e-06
8.190534809e-06
8.190534838e-06
8.190534872e-06
8.190534912e-06
8.190534957e-06
8.190535009e-06
8.190535066e-06
8.190535129e-06
8.190535197e-06
8.190535271e-06
8.190535351e-06
8.190535436e-06
8.190535527e-06
8.190535624e-06
8.190535726e-06
8.190535834e-06
8.190535947e-06
8.190536066e-06
8.19053619e-06
8.190536319e-06
8.190536454e-06
8.190536595e-06
8.19053674e-06
8.190536891e-06
8.190537047e-06
8.190537208e-06
8.190537375e-06
8.190537546e-06
8.190537723e-06
8.190537904e-06
8.190538091e-06
8.190538282e-06
8.190538478e-06
8.190538679e-06