/*--------------------------------*- C++ -*----------------------------------*\
| =========                 |                                                 |
| \\      /  F ield         | OpenFOAM: The Open Source CFD Toolbox           |
|  \\    /   O peration     | Version:  2312                                  |
|   \\  /    A nd           | Website:  www.openfoam.com                      |
|    \\/     M anipulation  |                                                 |
\*---------------------------------------------------------------------------*/
FoamFile
{
    version     2.0;
    format      ascii;
    arch        "LSB;label=32;scalar=64";
    class       volVectorField;
    location    "3000";
    object      U;
}
// * * * * * * * * * * * * * * * * * * * * * * * * * * * * * * * * * * * * * //

dimensions      [0 1 -1 0 0 0 0];

internalField   nonuniform List<vector> 
20400
(
(6.278430241e-06 -6.349905215e-06 0)
(8.04193885e-06 -3.737406766e-07 0)
(-2.079035787e-06 5.493110864e-06 0)
(-2.582145221e-05 7.870003947e-06 0)
(-5.995977513e-05 8.463139873e-06 0)
(-0.0001007725393 8.135828409e-06 0)
(-0.0001455673754 7.447567555e-06 0)
(-0.0001925153017 6.771904921e-06 0)
(-0.0002404640858 6.282839556e-06 0)
(-0.0002888438155 6.001170585e-06 0)
(-0.0003374909753 5.886543237e-06 0)
(-0.0003864281632 6.002053227e-06 0)
(-0.000435648083 6.38736469e-06 0)
(-0.0004850009162 6.640977365e-06 0)
(-0.0005342525662 6.784659709e-06 0)
(-0.0005832543564 6.882767181e-06 0)
(-0.0006319724673 6.965469895e-06 0)
(-0.0006803998676 7.041615667e-06 0)
(-0.0007285253808 7.106401475e-06 0)
(-0.0007763204807 7.153475192e-06 0)
(-0.0008237572843 7.185349379e-06 0)
(-0.0008708352525 7.214200277e-06 0)
(-0.0009175883761 7.25079511e-06 0)
(-0.000964071889 7.296732151e-06 0)
(-0.001010348048 7.355555028e-06 0)
(-0.001056467339 7.427521388e-06 0)
(-0.001102435076 7.494771545e-06 0)
(-0.001148193011 7.538311133e-06 0)
(-0.001193639198 7.549011888e-06 0)
(-0.00123866963 7.529446555e-06 0)
(-0.001283217291 7.494402559e-06 0)
(-0.001327267141 7.459505749e-06 0)
(-0.001370841222 7.431334386e-06 0)
(-0.001413968946 7.40974555e-06 0)
(-0.001456657461 7.386379575e-06 0)
(-0.001498882879 7.346509531e-06 0)
(-0.001540633284 7.293031324e-06 0)
(-0.001581984741 7.263333899e-06 0)
(-0.001623116699 7.295697219e-06 0)
(-0.001664207465 7.384621377e-06 0)
(-0.001705288735 7.468135307e-06 0)
(-0.001746222036 7.470925676e-06 0)
(-0.001786851686 7.440557189e-06 0)
(-0.001827126791 7.414239992e-06 0)
(-0.001867067888 7.398456297e-06 0)
(-0.001906710191 7.390271821e-06 0)
(-0.001946081838 7.387160977e-06 0)
(-0.001985203174 7.387722838e-06 0)
(-0.0020240896 7.390999972e-06 0)
(-0.00206275327 7.396283437e-06 0)
(-0.002101204158 7.403158237e-06 0)
(-0.002139451026 7.411500913e-06 0)
(-0.002177502206 7.421397954e-06 0)
(-0.002215366062 7.432995875e-06 0)
(-0.002253051241 7.446440874e-06 0)
(-0.00229056695 7.461962046e-06 0)
(-0.0023279231 7.479900079e-06 0)
(-0.002365129868 7.500433512e-06 0)
(-0.002402196971 7.523218427e-06 0)
(-0.002439133709 7.547769059e-06 0)
(-0.002475948869 7.574436879e-06 0)
(-0.002512646381 7.60283893e-06 0)
(-0.002549218027 7.626744658e-06 0)
(-0.002585647579 7.639318947e-06 0)
(-0.002621931 7.65446203e-06 0)
(-0.002658082441 7.675703804e-06 0)
(-0.002694119596 7.701873412e-06 0)
(-0.002730055974 7.731532546e-06 0)
(-0.002765900819 7.763893612e-06 0)
(-0.002801661109 7.798888663e-06 0)
(-0.002837342587 7.836370554e-06 0)
(-0.00287294956 7.876163038e-06 0)
(-0.002908484354 7.917699073e-06 0)
(-0.002943947342 7.960453413e-06 0)
(-0.002979337892 8.004538201e-06 0)
(-0.003014654932 8.050260957e-06 0)
(-0.003049896398 8.097191318e-06 0)
(-0.003085059125 8.144957434e-06 0)
(-0.003120139844 8.194382718e-06 0)
(-0.003155134996 8.245349467e-06 0)
(-0.003190039103 8.297548097e-06 0)
(-0.003224843631 8.34999011e-06 0)
(-0.003259537235 8.402055835e-06 0)
(-0.00329410718 8.453988239e-06 0)
(-0.003328539981 8.505435506e-06 0)
(-0.003362821038 8.555265107e-06 0)
(-0.003396933783 8.604063838e-06 0)
(-0.00343085639 8.64931918e-06 0)
(-0.003464559641 8.686542987e-06 0)
(-0.003498011949 8.720048868e-06 0)
(-0.003531182331 8.75042245e-06 0)
(-0.003564037235 8.77760117e-06 0)
(-0.003596539527 8.801276771e-06 0)
(-0.003628649284 8.818357099e-06 0)
(-0.003660327113 8.833012868e-06 0)
(-0.003691533541 8.843785443e-06 0)
(-0.003722221834 8.848815935e-06 0)
(-0.003752331791 8.842228434e-06 0)
(-0.003781788226 8.819780476e-06 0)
(-0.003810508611 8.783805437e-06 0)
(-0.003838414678 8.735280712e-06 0)
(-0.003865444169 8.682903339e-06 0)
(-0.003891548089 8.63174388e-06 0)
(-0.003916659482 8.568202169e-06 0)
(-0.003940663811 8.458282942e-06 0)
(-0.00396341346 8.290262876e-06 0)
(-0.003984774488 8.097944733e-06 0)
(-0.004004644104 7.897541287e-06 0)
(-0.004022933403 7.68659747e-06 0)
(-0.004039546616 7.436895302e-06 0)
(-0.0040544136 7.16222953e-06 0)
(-0.00406746578 6.856748279e-06 0)
(-0.004078518072 6.437781297e-06 0)
(-0.004087369427 5.996025378e-06 0)
(-0.004093883779 5.530775096e-06 0)
(-0.004097925828 5.062006606e-06 0)
(-0.00409951266 4.765852809e-06 0)
(-0.004098766206 4.845173628e-06 0)
(-0.004095074414 4.871670816e-06 0)
(-0.004087962883 4.649097877e-06 0)
(-0.004077485484 4.233694714e-06 0)
(-0.004063606743 3.660106079e-06 0)
(-0.004046232136 2.93774493e-06 0)
(-0.004025257801 2.149577316e-06 0)
(-0.004000532014 1.353553784e-06 0)
(-0.003971877938 5.394846696e-07 0)
(-0.003939114918 -3.1346341e-07 0)
(-0.003902019206 -1.229893453e-06 0)
(-0.00386031062 -2.269180041e-06 0)
(-0.003813891329 -3.442578715e-06 0)
(-0.003763472995 -4.151146432e-06 0)
(-0.003710386253 -3.259392796e-06 0)
(-0.003653278309 -6.68575512e-06 0)
(-0.0035894686 -7.659679986e-06 0)
(-0.003520575776 -8.930659478e-06 0)
(-0.003447668641 -1.045488705e-05 0)
(-0.003370639621 -1.207638916e-05 0)
(-0.003289218668 -1.385470144e-05 0)
(-0.003203326908 -1.580965084e-05 0)
(-0.003112999324 -1.791567541e-05 0)
(-0.003018318424 -2.015688842e-05 0)
(-0.002919401222 -2.254303455e-05 0)
(-0.002816381775 -2.50981387e-05 0)
(-0.002709347814 -2.786781027e-05 0)
(-0.002598201951 -3.103085356e-05 0)
(-0.002482707436 -3.510177529e-05 0)
(-0.002363544004 -3.99153344e-05 0)
(-0.002243756776 -3.982605231e-05 0)
(-0.002122398669 -4.627428375e-05 0)
(-0.00199564398 -4.634981859e-05 0)
(-0.00186590976 -4.716745664e-05 0)
(-0.001734625658 -4.826253836e-05 0)
(-0.001601720221 -4.926492854e-05 0)
(-0.00146708526 -5.022753555e-05 0)
(-0.001330898866 -5.115269139e-05 0)
(-0.001193406966 -5.202913486e-05 0)
(-0.001054756885 -5.29712234e-05 0)
(-0.0009150102567 -5.420956645e-05 0)
(-0.0007749444108 -5.503069095e-05 0)
(-0.0006355136208 -5.610153575e-05 0)
(-0.0004968090915 -5.73625527e-05 0)
(-0.0003588245124 -5.847773639e-05 0)
(-0.0002218271777 -5.927054731e-05 0)
(-8.61466006e-05 -5.952862186e-05 0)
(4.834105043e-05 -5.706628467e-05 0)
(0.0001820355229 -5.199311633e-05 0)
(0.0003148962403 -4.73599976e-05 0)
(0.0004464308348 -4.325560159e-05 0)
(0.0005761927048 -3.9611963e-05 0)
(0.0007038023445 -3.63745277e-05 0)
(0.0008289530852 -3.349231278e-05 0)
(0.0009513987865 -3.091767475e-05 0)
(0.001070938483 -2.860793993e-05 0)
(0.001187405106 -2.652585733e-05 0)
(0.001300658262 -2.463944739e-05 0)
(0.001410579683 -2.292158182e-05 0)
(0.001517070308 -2.134942191e-05 0)
(0.001620048379 -1.990381228e-05 0)
(0.001719448114 -1.856870939e-05 0)
(0.001815218712 -1.733066828e-05 0)
(0.00190732353 -1.617840227e-05 0)
(0.001995739351 -1.510241156e-05 0)
(0.002080455721 -1.409469118e-05 0)
(0.002161474313 -1.31484927e-05 0)
(0.002238808189 -1.225808194e-05 0)
(0.002312480962 -1.141849068e-05 0)
(0.00238252606 -1.062547646e-05 0)
(0.002448986219 -9.875494032e-06 0)
(0.002511913 -9.165553581e-06 0)
(0.002571366115 -8.493055131e-06 0)
(0.002627412617 -7.855698122e-06 0)
(0.002680126047 -7.251441754e-06 0)
(0.002729585641 -6.678473732e-06 0)
(0.002775875596 -6.135181451e-06 0)
(0.002819084385 -5.620117513e-06 0)
(0.002859304106 -5.131976539e-06 0)
(0.002896629869 -4.66957067e-06 0)
(0.002931159223 -4.231810194e-06 0)
(0.002962991608 -3.817690307e-06 0)
(0.002992227844 -3.426273691e-06 0)
(0.003018969658 -3.056680954e-06 0)
(0.003043319236 -2.708081073e-06 0)
(0.003065378817 -2.379681926e-06 0)
(0.003085250326 -2.070728049e-06 0)
(0.00310303502 -1.780493872e-06 0)
(0.003118833165 -1.508284655e-06 0)
(0.003132743768 -1.253418075e-06 0)
(0.003144864455 -1.015226036e-06 0)
(0.003155291368 -7.930935501e-07 0)
(0.003164118553 -5.865095672e-07 0)
(0.003171436809 -3.949173712e-07 0)
(0.003177334586 -2.168198717e-07 0)
(0.003181903555 -4.946491647e-08 0)
(0.003185238125 1.063985481e-07 0)
(0.0031874059 2.363428514e-07 0)
(0.003188434373 3.259625125e-07 0)
(0.003188526388 4.106652153e-07 0)
(0.003187764504 5.481460933e-07 0)
(0.003186015297 6.982767672e-07 0)
(0.003183382048 8.147056479e-07 0)
(0.003179977247 8.988242553e-07 0)
(0.003175878098 9.621502971e-07 0)
(0.003171154414 1.012408022e-06 0)
(0.003165878616 1.053881694e-06 0)
(0.003160118521 1.088953305e-06 0)
(0.003153932228 1.118551513e-06 0)
(0.003147370008 1.142737862e-06 0)
(0.003140478111 1.161438714e-06 0)
(0.003133300616 1.174796374e-06 0)
(0.00312587948 1.183118051e-06 0)
(0.003118254227 1.186735088e-06 0)
(0.003110461959 1.185950625e-06 0)
(0.003102537547 1.181101082e-06 0)
(0.00309451384 1.172591972e-06 0)
(0.003086421784 1.160613906e-06 0)
(0.003078288809 1.144794324e-06 0)
(0.00307014424 1.124448349e-06 0)
(0.003062018954 1.099689754e-06 0)
(0.003053937393 1.072226867e-06 0)
(0.003045922239 1.043495478e-06 0)
(0.003037995245 1.013232464e-06 0)
(0.003030175229 9.81279879e-07 0)
(0.003022479826 9.477109489e-07 0)
(0.003014925278 9.123815195e-07 0)
(0.003007526425 8.755404173e-07 0)
(0.003000296578 8.374792136e-07 0)
(0.002993247668 7.984160185e-07 0)
(0.002986390496 7.585216553e-07 0)
(0.002979734976 7.178827962e-07 0)
(0.002973290324 6.765395993e-07 0)
(0.002967065121 6.345490193e-07 0)
(0.002961067242 5.920103683e-07 0)
(0.002955303775 5.490436067e-07 0)
(0.002949780984 5.057699262e-07 0)
(0.002944504323 4.623032209e-07 0)
(0.002939478461 4.187493201e-07 0)
(0.00293470732 3.752092861e-07 0)
(0.002930194115 3.317751428e-07 0)
(0.002925941391 2.885336072e-07 0)
(0.00292195106 2.455624112e-07 0)
(0.002918224443 2.029340487e-07 0)
(0.002914762301 1.60714968e-07 0)
(0.002911564875 1.189673203e-07 0)
(0.002908631916 7.774686607e-08 0)
(0.002905962723 3.710490527e-08 0)
(0.002903556166 -2.91489999e-09 0)
(0.00290141071 -4.227763141e-08 0)
(0.002899524493 -8.095666184e-08 0)
(0.002897895461 -1.189572458e-07 0)
(0.002896521436 -1.564411309e-07 0)
(0.002895399906 -1.939438918e-07 0)
(0.002894528347 -2.321153346e-07 0)
(0.002893907109 -2.699962403e-07 0)
(0.002893540813 -3.037590283e-07 0)
(0.002893413753 -3.305522269e-07 0)
(0.00289348879 -3.530343467e-07 0)
(0.002893775967 -3.789652957e-07 0)
(0.002894299277 -4.094533109e-07 0)
(0.002895051155 -4.426347455e-07 0)
(0.002896025919 -4.787877397e-07 0)
(0.002897213247 -5.086605477e-07 0)
(0.00289859904 -5.339759768e-07 0)
(0.002900178287 -5.560103597e-07 0)
(0.002901951087 -5.796906837e-07 0)
(0.002903918621 -6.050511583e-07 0)
(0.002906077195 -6.295154998e-07 0)
(0.002908418885 -6.518121752e-07 0)
(0.002910934937 -6.714878966e-07 0)
(0.002913618146 -6.899144919e-07 0)
(0.002916464075 -7.08382418e-07 0)
(0.002919469609 -7.2639477e-07 0)
(0.002922630972 -7.438998316e-07 0)
(0.002925942862 -7.603054558e-07 0)
(0.002929398705 -7.756335701e-07 0)
(0.00293299213 -7.9130179e-07 0)
(0.002936717619 -8.063609659e-07 0)
(0.002940570393 -8.208120099e-07 0)
(0.002944546093 -8.348374038e-07 0)
(0.002948640171 -8.482132451e-07 0)
(0.002952847417 -8.607228281e-07 0)
(0.00295716219 -8.723424001e-07 0)
(0.002961579082 -8.833137277e-07 0)
(0.002966093139 -8.935862359e-07 0)
(0.002970699676 -9.03216267e-07 0)
(0.002975394221 -9.123073521e-07 0)
(0.002980172384 -9.208076269e-07 0)
(0.002985029666 -9.286328359e-07 0)
(0.002989961439 -9.357875193e-07 0)
(0.002994963101 -9.422946007e-07 0)
(0.003000030219 -9.482211439e-07 0)
(0.003005158543 -9.535709779e-07 0)
(0.003010343953 -9.583540084e-07 0)
(0.003015582458 -9.626142439e-07 0)
(0.003020870197 -9.663607946e-07 0)
(0.003026203364 -9.695692202e-07 0)
(0.003031578163 -9.72239552e-07 0)
(0.003036990858 -9.744025533e-07 0)
(0.003042437829 -9.760900896e-07 0)
(0.003047915588 -9.773107628e-07 0)
(0.003053420762 -9.78085584e-07 0)
(0.003058950087 -9.784307007e-07 0)
(0.003064500407 -9.783555983e-07 0)
(0.003070068676 -9.778809724e-07 0)
(0.003075651952 -9.770244451e-07 0)
(0.003081247385 -9.757936629e-07 0)
(0.003086852191 -9.742071499e-07 0)
(0.003092463655 -9.722903525e-07 0)
(0.003098079275 -9.700324193e-07 0)
(0.003103696578 -9.67392433e-07 0)
(0.003109312746 -9.643626585e-07 0)
(0.003114925259 -9.609893502e-07 0)
(0.003120532053 -9.573123753e-07 0)
(0.003126131076 -9.534050286e-07 0)
(0.003131720347 -9.493756337e-07 0)
(0.003137297858 -9.451566549e-07 0)
(0.003142861634 -9.406071991e-07 0)
(0.003148409745 -9.35754547e-07 0)
(0.00315394048 -9.307432049e-07 0)
(0.003159452332 -9.25646206e-07 0)
(0.003164943774 -9.203664743e-07 0)
(0.003170413142 -9.148107427e-07 0)
(0.003175858789 -9.09022999e-07 0)
(0.003181279314 -9.031145794e-07 0)
(0.003186673538 -8.971299058e-07 0)
(0.003192040305 -8.910185264e-07 0)
(0.003197378353 -8.847285307e-07 0)
(0.003202686393 -8.7826183e-07 0)
(0.003207963252 -8.716679476e-07 0)
(0.003213207941 -8.649979862e-07 0)
(0.003218419587 -8.582598791e-07 0)
(0.003223597333 -8.514352934e-07 0)
(0.003228740288 -8.445070074e-07 0)
(0.003233847563 -8.374683216e-07 0)
(0.003238918349 -8.303452749e-07 0)
(0.003243951985 -8.231791147e-07 0)
(0.003248947924 -8.159871881e-07 0)
(0.003253905658 -8.087605824e-07 0)
(0.003258824665 -8.014851716e-07 0)
(0.0032637044 -7.941531328e-07 0)
(0.003268544325 -7.867639867e-07 0)
(0.003273343953 -7.7933113e-07 0)
(0.003278102866 -7.718716197e-07 0)
(0.003282820715 -7.643962185e-07 0)
(0.003287497196 -7.569079633e-07 0)
(0.003292132035 -7.494083581e-07 0)
(0.003296724987 -7.418993231e-07 0)
(0.003301275832 -7.343845238e-07 0)
(0.003305784384 -7.268681311e-07 0)
(0.003310250486 -7.193542199e-07 0)
(0.003314674021 -7.118481317e-07 0)
(0.003319054912 -7.043572599e-07 0)
(0.003323393122 -6.968868549e-07 0)
(0.003327688645 -6.894407969e-07 0)
(0.003331941506 -6.820222706e-07 0)
(0.003336151752 -6.746341523e-07 0)
(0.003340319457 -6.672798617e-07 0)
(0.00334444472 -6.599628074e-07 0)
(0.003348527664 -6.526863271e-07 0)
(0.003352568433 -6.454538e-07 0)
(0.003356567196 -6.382677925e-07 0)
(0.003360524143 -6.311313342e-07 0)
(0.003364439484 -6.240480715e-07 0)
(0.003368313449 -6.170206221e-07 0)
(0.003372146289 -6.100521367e-07 0)
(0.003375938274 -6.031441106e-07 0)
(0.003379689685 -5.962997219e-07 0)
(0.003383400818 -5.895199058e-07 0)
(0.003387071981 -5.828063756e-07 0)
(0.003390703498 -5.761612441e-07 0)
(0.003394295697 -5.695857731e-07 0)
(0.003397848922 -5.630812609e-07 0)
(0.003401363522 -5.566490264e-07 0)
(0.003404839855 -5.502897719e-07 0)
(0.003408278286 -5.440049445e-07 0)
(0.003411679186 -5.377941537e-07 0)
(0.003415042931 -5.316589813e-07 0)
(0.003418369898 -5.255995262e-07 0)
(0.003421660472 -5.196152267e-07 0)
(0.003424915037 -5.137074636e-07 0)
(0.003428133979 -5.078754117e-07 0)
(0.003431317687 -5.02118633e-07 0)
(0.003434466547 -4.964373698e-07 0)
(0.003437580947 -4.908306854e-07 0)
(0.003440661273 -4.852984963e-07 0)
(0.003443707908 -4.798391906e-07 0)
(0.003446721236 -4.744528498e-07 0)
(0.003449701633 -4.69137981e-07 0)
(0.003452649476 -4.638935351e-07 0)
(0.003455565137 -4.58718544e-07 0)
(0.003458448984 -4.536127208e-07 0)
(0.003461301379 -4.485737737e-07 0)
(0.003464122683 -4.436007321e-07 0)
(0.003466913251 -4.386924545e-07 0)
(0.003469673434 -4.338480771e-07 0)
(0.003472403575 -4.290663522e-07 0)
(0.003475104016 -4.243452315e-07 0)
(0.003477775093 -4.196836577e-07 0)
(0.003480417136 -4.150805014e-07 0)
(0.003483030472 -4.105350335e-07 0)
(0.003485615422 -4.060453631e-07 0)
(0.003488172302 -4.016102477e-07 0)
(0.003490701424 -3.97228687e-07 0)
(0.003493203095 -3.928992898e-07 0)
(0.003495677619 -3.886211909e-07 0)
(0.003498125293 -3.843936662e-07 0)
(0.003500546413 -3.80214548e-07 0)
(0.003502941269 -3.760835543e-07 0)
(0.003505310148 -3.719996203e-07 0)
(0.003507653332 -3.679621602e-07 0)
(0.003509971102 -3.639696325e-07 0)
(0.003512263734 -3.600219473e-07 0)
(0.0035145315 -3.561174617e-07 0)
(0.003516774671 -3.522560522e-07 0)
(0.003518993513 -3.484371003e-07 0)
(0.00352118829 -3.446595104e-07 0)
(0.003523359265 -3.409232577e-07 0)
(0.003525506694 -3.372267329e-07 0)
(0.003527630834 -3.335707256e-07 0)
(0.003529731939 -3.29953725e-07 0)
(0.003531810259 -3.263756278e-07 0)
(0.003533866043 -3.228358131e-07 0)
(0.003535899537 -3.193337795e-07 0)
(0.003537910984 -3.158689833e-07 0)
(0.003539900625 -3.124414144e-07 0)
(0.003541868699 -3.090503862e-07 0)
(0.003543815441 -3.056957882e-07 0)
(0.003545741085 -3.023766687e-07 0)
(0.003547645862 -2.990928691e-07 0)
(0.003549530001 -2.958437824e-07 0)
(0.003551393727 -2.926298175e-07 0)
(0.003553237261 -2.894495223e-07 0)
(0.003555060825 -2.863027706e-07 0)
(0.003556864634 -2.831892206e-07 0)
(0.003558648903 -2.801085927e-07 0)
(0.003560413842 -2.770599935e-07 0)
(0.003562159657 -2.740432603e-07 0)
(0.003563886553 -2.71057936e-07 0)
(0.00356559473 -2.68102897e-07 0)
(0.003567284383 -2.651784785e-07 0)
(0.003568955707 -2.622832717e-07 0)
(0.003570608889 -2.59417402e-07 0)
(0.003572244115 -2.565796891e-07 0)
(0.003573861565 -2.537697886e-07 0)
(0.003575461416 -2.509872493e-07 0)
(0.00357704384 -2.482308575e-07 0)
(0.003578609005 -2.455007033e-07 0)
(0.003580157073 -2.427953478e-07 0)
(0.003581688203 -2.401141942e-07 0)
(0.00358320255 -2.374569537e-07 0)
(0.003584700263 -2.348225091e-07 0)
(0.003586181484 -2.322102783e-07 0)
(0.003587646354 -2.296190416e-07 0)
(0.003589095007 -2.270483579e-07 0)
(0.003590527572 -2.244980002e-07 0)
(0.003591944174 -2.219664683e-07 0)
(0.003593344932 -2.194530224e-07 0)
(0.003594729961 -2.169575229e-07 0)
(0.003596099372 -2.144792657e-07 0)
(0.003597453271 -2.120174693e-07 0)
(0.003598791761 -2.095721318e-07 0)
(0.003600114944 -2.071430184e-07 0)
(0.003601422918 -2.04731367e-07 0)
(0.003602715784 -2.023371828e-07 0)
(0.003603993649 -1.999626962e-07 0)
(0.003605256629 -1.976123712e-07 0)
(0.003606504845 -1.952928475e-07 0)
(0.003607738424 -1.930072795e-07 0)
(0.003608957558 -1.907559746e-07 0)
(0.003610162604 -1.885688538e-07 0)
(0.003611353951 -1.865269224e-07 0)
(0.003612531589 -1.846401824e-07 0)
(0.003613695432 -1.8267081e-07 0)
(0.003614847729 -1.806122454e-07 0)
(0.003615994057 -1.800807726e-07 0)
(0.003617134537 -1.837756422e-07 0)
(0.003618252998 -1.902172593e-07 0)
(0.003619340964 -1.900258166e-07 0)
(0.003620524091 -1.784468824e-07 0)
(0.00362247476 -3.137298248e-07 0)
(0.003624686714 -8.163130069e-07 0)
(8.557320975e-07 -8.543568727e-06 0)
(-1.11571691e-05 1.143232045e-05 0)
(-5.410305914e-05 3.528094398e-05 0)
(-0.0001270351782 5.71457642e-05 0)
(-0.0002238576692 7.416648064e-05 0)
(-0.0003378132274 8.571918047e-05 0)
(-0.0004631758908 9.251160179e-05 0)
(-0.0005955039858 9.599032108e-05 0)
(-0.0007316898999 9.759733567e-05 0)
(-0.0008698805265 9.835674967e-05 0)
(-0.001009178978 9.880119077e-05 0)
(-0.001149018341 9.918927019e-05 0)
(-0.001288639661 9.928338275e-05 0)
(-0.001427416909 9.90988036e-05 0)
(-0.001565087245 9.861278141e-05 0)
(-0.001701547916 9.800172926e-05 0)
(-0.001836784348 9.736292994e-05 0)
(-0.001970799034 9.671951668e-05 0)
(-0.002103569242 9.604318426e-05 0)
(-0.002235043513 9.530996608e-05 0)
(-0.002365184595 9.45450142e-05 0)
(-0.002494017901 9.381720132e-05 0)
(-0.002621638328 9.318434344e-05 0)
(-0.002748177576 9.265399425e-05 0)
(-0.002873770548 9.222279005e-05 0)
(-0.002998515038 9.185614099e-05 0)
(-0.003122409373 9.144047184e-05 0)
(-0.003245328582 9.08709776e-05 0)
(-0.003367074621 9.010705717e-05 0)
(-0.003487458254 8.917820836e-05 0)
(-0.003606368027 8.817341629e-05 0)
(-0.003723789654 8.717949474e-05 0)
(-0.003839769914 8.62316133e-05 0)
(-0.00395436132 8.532493692e-05 0)
(-0.00406757945 8.442524345e-05 0)
(-0.004179405301 8.349753198e-05 0)
(-0.004289871236 8.260150033e-05 0)
(-0.004399178675 8.192359045e-05 0)
(-0.004507685637 8.159677151e-05 0)
(-0.00461569986 8.152184042e-05 0)
(-0.004723245957 8.138121254e-05 0)
(-0.004830058995 8.084700741e-05 0)
(-0.004935871802 8.013640396e-05 0)
(-0.005040615736 7.943116988e-05 0)
(-0.005144335447 7.878182696e-05 0)
(-0.005247096397 7.818555963e-05 0)
(-0.005348953832 7.763173063e-05 0)
(-0.005449951286 7.711165287e-05 0)
(-0.005550123736 7.661852422e-05 0)
(-0.005649499749 7.614716587e-05 0)
(-0.005748103258 7.569421873e-05 0)
(-0.005845955368 7.525806271e-05 0)
(-0.005943075841 7.483836333e-05 0)
(-0.006039483998 7.443540009e-05 0)
(-0.006135199239 7.404975925e-05 0)
(-0.006230241573 7.368245158e-05 0)
(-0.0063246319 7.333476669e-05 0)
(-0.006418391443 7.300715129e-05 0)
(-0.006511540592 7.269777162e-05 0)
(-0.006604098287 7.240284496e-05 0)
(-0.006696080491 7.211854032e-05 0)
(-0.006787492679 7.183750793e-05 0)
(-0.006878319008 7.153715913e-05 0)
(-0.006968530347 7.119697586e-05 0)
(-0.007058120733 7.087648822e-05 0)
(-0.007147116075 7.058986111e-05 0)
(-0.007235545024 7.033162837e-05 0)
(-0.007323427683 7.00938248e-05 0)
(-0.007410776218 6.98707512e-05 0)
(-0.007497597957 6.965980413e-05 0)
(-0.007583896716 6.945817923e-05 0)
(-0.007669672233 6.926301634e-05 0)
(-0.007754919367 6.907017364e-05 0)
(-0.007839628238 6.887611061e-05 0)
(-0.007923785893 6.867981175e-05 0)
(-0.008007377368 6.848092784e-05 0)
(-0.008090384896 6.827646997e-05 0)
(-0.008172787603 6.806380333e-05 0)
(-0.008254562856 6.784459314e-05 0)
(-0.008335685443 6.761592075e-05 0)
(-0.00841612447 6.73738266e-05 0)
(-0.008495841567 6.711219754e-05 0)
(-0.008574791338 6.682709476e-05 0)
(-0.008652924141 6.65184782e-05 0)
(-0.008730187722 6.618427446e-05 0)
(-0.008806526848 6.581826399e-05 0)
(-0.008881881656 6.542062004e-05 0)
(-0.008956180644 6.498285882e-05 0)
(-0.009029334882 6.448864407e-05 0)
(-0.009101248632 6.394317682e-05 0)
(-0.009171825828 6.333532141e-05 0)
(-0.009240961481 6.265738043e-05 0)
(-0.009308539473 6.190761091e-05 0)
(-0.00937443508 6.107408276e-05 0)
(-0.009438524234 6.016745441e-05 0)
(-0.009500682823 5.91735855e-05 0)
(-0.009560772474 5.80763265e-05 0)
(-0.009618630851 5.684142264e-05 0)
(-0.0096740671 5.544192865e-05 0)
(-0.009726869402 5.388775214e-05 0)
(-0.009776820162 5.219242741e-05 0)
(-0.009823725169 5.037966819e-05 0)
(-0.009867420756 4.845249734e-05 0)
(-0.009907721244 4.636528386e-05 0)
(-0.009944388579 4.400649144e-05 0)
(-0.009977147634 4.134499569e-05 0)
(-0.01000570502 3.851128224e-05 0)
(-0.01002972782 3.55281017e-05 0)
(-0.01004894087 3.233915728e-05 0)
(-0.01006294528 2.892857814e-05 0)
(-0.01007152747 2.550750277e-05 0)
(-0.01007499829 2.20738815e-05 0)
(-0.01007327629 1.787757283e-05 0)
(-0.01006573236 1.340109575e-05 0)
(-0.01005153744 8.452171054e-06 0)
(-0.01003027854 3.208811599e-06 0)
(-0.01000160527 -2.100985311e-06 0)
(-0.009965331826 -7.436235075e-06 0)
(-0.009921281612 -1.326205472e-05 0)
(-0.009869085249 -1.96617829e-05 0)
(-0.009808380763 -2.650460203e-05 0)
(-0.009738856955 -3.374912945e-05 0)
(-0.009660213264 -4.139247822e-05 0)
(-0.009572183541 -4.937955287e-05 0)
(-0.009474557911 -5.768514055e-05 0)
(-0.009367135944 -6.634571966e-05 0)
(-0.009249686883 -7.541530885e-05 0)
(-0.009121939384 -8.49598547e-05 0)
(-0.008983576467 -9.507300295e-05 0)
(-0.008834322992 -0.0001056582835 0)
(-0.008674445853 -0.0001150463465 0)
(-0.008506067475 -0.000118530332 0)
(-0.008329059344 -0.0001358637219 0)
(-0.008138536263 -0.000144195316 0)
(-0.007937196173 -0.0001529129355 0)
(-0.007725945981 -0.0001617037795 0)
(-0.007504599653 -0.0001704217204 0)
(-0.007273004888 -0.0001791615648 0)
(-0.007031250505 -0.0001878306516 0)
(-0.006779563867 -0.0001962685757 0)
(-0.006518254534 -0.0002043537087 0)
(-0.006247702655 -0.0002120196445 0)
(-0.005968352755 -0.0002192324683 0)
(-0.005680723522 -0.0002260093733 0)
(-0.005385410559 -0.0002325226484 0)
(-0.005082830963 -0.0002391233648 0)
(-0.004772094948 -0.0002440373976 0)
(-0.004450477817 -0.0002259472842 0)
(-0.004123526813 -0.0002512408672 0)
(-0.00379503119 -0.0002557060261 0)
(-0.003463572754 -0.0002598602422 0)
(-0.003127304111 -0.000263992914 0)
(-0.002786329317 -0.0002677835607 0)
(-0.00244157782 -0.0002711577637 0)
(-0.002094012018 -0.0002740031182 0)
(-0.001744547883 -0.000276268288 0)
(-0.001394174227 -0.0002780564342 0)
(-0.001043763046 -0.0002793670637 0)
(-0.0006932081294 -0.0002764885617 0)
(-0.0003417626599 -0.0002716366312 0)
(1.025339293e-05 -0.0002669452366 0)
(0.0003614937409 -0.0002621199692 0)
(0.0007106893167 -0.0002570136896 0)
(0.001057027738 -0.0002519602177 0)
(0.00140033215 -0.0002499187322 0)
(0.001740711308 -0.0002508953091 0)
(0.00207776873 -0.0002508857279 0)
(0.002410693376 -0.0002495651909 0)
(0.002738715394 -0.0002471137316 0)
(0.003061179499 -0.0002437432127 0)
(0.003377527819 -0.0002396279582 0)
(0.00368728042 -0.00023490417 0)
(0.00399002138 -0.0002296783326 0)
(0.004285388652 -0.0002240351562 0)
(0.004573066839 -0.0002180438222 0)
(0.004852782181 -0.0002117624826 0)
(0.005124299075 -0.0002052413363 0)
(0.005387417565 -0.0001985246848 0)
(0.005641971448 -0.000191652298 0)
(0.005887826704 -0.0001846603187 0)
(0.006124880122 -0.0001775818576 0)
(0.006353058007 -0.0001704474134 0)
(0.006572314973 -0.0001632852004 0)
(0.006782632724 -0.0001561213675 0)
(0.006984018641 -0.0001489799921 0)
(0.00717650419 -0.0001418829313 0)
(0.007360143631 -0.0001348504149 0)
(0.007535013111 -0.0001279015059 0)
(0.007701209632 -0.0001210539032 0)
(0.007858849619 -0.0001143236014 0)
(0.008008067227 -0.0001077247914 0)
(0.008149012625 -0.0001012699607 0)
(0.008281850385 -9.497003467e-05 0)
(0.008406757966 -8.883449559e-05 0)
(0.008523924269 -8.287147129e-05 0)
(0.008633548254 -7.708782229e-05 0)
(0.008735837611 -7.148921798e-05 0)
(0.008831007492 -6.608021048e-05 0)
(0.008919279299 -6.086430894e-05 0)
(0.009000879518 -5.584404426e-05 0)
(0.009076038626 -5.102103815e-05 0)
(0.009144990049 -4.639607186e-05 0)
(0.009207969181 -4.196914874e-05 0)
(0.009265212481 -3.773956797e-05 0)
(0.009316956601 -3.370598067e-05 0)
(0.009363437581 -2.986647663e-05 0)
(0.009404890142 -2.621862705e-05 0)
(0.00944154716 -2.275954532e-05 0)
(0.009473639091 -1.948596343e-05 0)
(0.009501392764 -1.639429329e-05 0)
(0.009525030116 -1.348084285e-05 0)
(0.009544769669 -1.074037451e-05 0)
(0.009560831351 -8.163588469e-06 0)
(0.009573430752 -5.740155206e-06 0)
(0.009582745868 -3.481457e-06 0)
(0.009588899172 -1.432627023e-06 0)
(0.009592070064 4.354062873e-07 0)
(0.009592655539 2.334553558e-06 0)
(0.009590863155 4.004351795e-06 0)
(0.009586772137 5.634429892e-06 0)
(0.009580435815 7.171244356e-06 0)
(0.009572020069 8.548248059e-06 0)
(0.009561709643 9.753694264e-06 0)
(0.009549687539 1.080885671e-05 0)
(0.009536127512 1.173953987e-05 0)
(0.009521187945 1.256333523e-05 0)
(0.009505012153 1.328979401e-05 0)
(0.009487732555 1.392472021e-05 0)
(0.009469473908 1.447311534e-05 0)
(0.009450354392 1.493995743e-05 0)
(0.009430485767 1.533003429e-05 0)
(0.009409973632 1.564778371e-05 0)
(0.009388917847 1.589745627e-05 0)
(0.009367412937 1.608325792e-05 0)
(0.009345548379 1.620905283e-05 0)
(0.009323408577 1.62774373e-05 0)
(0.009301072967 1.628993131e-05 0)
(0.009278613744 1.624890219e-05 0)
(0.009256098841 1.615693152e-05 0)
(0.009233608868 1.601652585e-05 0)
(0.009211218645 1.583330768e-05 0)
(0.00918898102 1.561394874e-05 0)
(0.009166951012 1.53616696e-05 0)
(0.009145178536 1.507832435e-05 0)
(0.009123709726 1.476667251e-05 0)
(0.009102586417 1.442926905e-05 0)
(0.009081846621 1.406838848e-05 0)
(0.009061525201 1.368614881e-05 0)
(0.009041654512 1.328422641e-05 0)
(0.009022264837 1.286397452e-05 0)
(0.009003384466 1.242676141e-05 0)
(0.008985039555 1.197411817e-05 0)
(0.008967253995 1.150768058e-05 0)
(0.008950049372 1.102908843e-05 0)
(0.008933445014 1.053993522e-05 0)
(0.008917458061 1.004174782e-05 0)
(0.00890210355 9.535984527e-06 0)
(0.008887394503 9.024029505e-06 0)
(0.008873342023 8.507193358e-06 0)
(0.008859955396 7.986712118e-06 0)
(0.00884724218 7.463752671e-06 0)
(0.008835208307 6.939405615e-06 0)
(0.008823858166 6.414693389e-06 0)
(0.008813194698 5.890571402e-06 0)
(0.008803219483 5.3679323e-06 0)
(0.008793932813 4.847599479e-06 0)
(0.008785333782 4.330320093e-06 0)
(0.00877742041 3.816753103e-06 0)
(0.008770189768 3.307446461e-06 0)
(0.008763637946 2.802660028e-06 0)
(0.008757759757 2.30190027e-06 0)
(0.008752548838 1.803978364e-06 0)
(0.008747998935 1.31010856e-06 0)
(0.008744104536 8.291550775e-07 0)
(0.008740858124 3.711749465e-07 0)
(0.008738251233 -7.271766467e-08 0)
(0.008736282319 -5.203145714e-07 0)
(0.008734954661 -9.697769263e-07 0)
(0.008734252799 -1.410544998e-06 0)
(0.008734114236 -1.852959478e-06 0)
(0.008734511764 -2.237131567e-06 0)
(0.008735448558 -2.627137295e-06 0)
(0.008736954725 -3.020669999e-06 0)
(0.00873902191 -3.41500059e-06 0)
(0.00874164135 -3.805147465e-06 0)
(0.008744788054 -4.184228099e-06 0)
(0.008748440115 -4.546305234e-06 0)
(0.008752583324 -4.890246009e-06 0)
(0.00875720658 -5.221665826e-06 0)
(0.008762301117 -5.547352149e-06 0)
(0.008767856432 -5.866291878e-06 0)
(0.008773858975 -6.17644442e-06 0)
(0.008780293803 -6.473611864e-06 0)
(0.008787145281 -6.756553168e-06 0)
(0.008794398541 -7.028585321e-06 0)
(0.008802039901 -7.290305542e-06 0)
(0.008810056616 -7.542789158e-06 0)
(0.008818436519 -7.786596602e-06 0)
(0.008827167067 -8.020510512e-06 0)
(0.008836234571 -8.243511948e-06 0)
(0.008845624617 -8.455516452e-06 0)
(0.008855323264 -8.657785438e-06 0)
(0.008865317476 -8.85028895e-06 0)
(0.008875594799 -9.033465786e-06 0)
(0.008886143227 -9.20792249e-06 0)
(0.008896950886 -9.37356537e-06 0)
(0.008908005651 -9.530070445e-06 0)
(0.008919295153 -9.677442788e-06 0)
(0.008930807081 -9.815818927e-06 0)
(0.008942529482 -9.945623348e-06 0)
(0.008954450843 -1.006703869e-05 0)
(0.008966560002 -1.018029892e-05 0)