/*--------------------------------*- C++ -*----------------------------------*\
| =========                 |                                                 |
| \\      /  F ield         | OpenFOAM: The Open Source CFD Toolbox           |
|  \\    /   O peration     | Version:  2312                                  |
|   \\  /    A nd           | Website:  www.openfoam.com                      |
|    \\/     M anipulation  |                                                 |
\*---------------------------------------------------------------------------*/
FoamFile
{
    version     2.0;
    format      ascii;
    arch        "LSB;label=32;scalar=64";
    class       volScalarField;
    location    "0.002";
    object      alphat;
}
// * * * * * * * * * * * * * * * * * * * * * * * * * * * * * * * * * * * * * //

dimensions      [1 -1 -1 0 0 0 0];

internalField   nonuniform List<scalar> 
48128
(
1.00377e-08
2.53851e-08
3.56689e-08
3.30635e-08
3.10306e-08
2.50447e-08
2.58399e-08
2.7119e-07
1.15384e-06
2.67518e-06
4.24806e-06
5.68825e-06
6.97948e-06
8.13398e-06
9.18425e-06
1.01666e-05
1.11036e-05
1.20141e-05
1.29189e-05
1.38328e-05
1.4761e-05
1.57114e-05
1.66915e-05
1.77117e-05
1.87843e-05
1.99251e-05
2.11443e-05
2.24665e-05
2.39118e-05
2.54965e-05
2.72087e-05
2.90624e-05
3.10903e-05
3.33152e-05
3.57238e-05
3.83748e-05
4.12554e-05
4.43729e-05
4.77383e-05
5.12662e-05
5.5006e-05
5.8967e-05
6.3247e-05
6.76879e-05
7.23318e-05
7.69869e-05
8.20204e-05
8.70929e-05
9.22058e-05
9.6921e-05
0.000101793
0.000106294
0.000111023
0.000115224
0.000120725
0.000126589
0.000132592
0.000138318
0.000143849
0.000149026
0.000153966
0.000158626
0.000163121
0.000167399
0.000171506
0.000175343
0.000178961
0.000180673
0.000173509
0.000166915
0.000160932
0.000155508
0.00015048
0.000145825
0.000141418
0.000137236
0.000133321
0.000129567
0.000126052
0.000122698
0.000119634
0.000116649
0.000113914
0.000111246
0.000108845
0.000106533
0.000104485
0.000102431
0.000100561
9.87206e-05
9.70413e-05
9.54209e-05
9.39236e-05
9.2494e-05
9.11449e-05
8.98788e-05
8.86896e-05
8.76178e-05
8.65777e-05
8.56243e-05
8.46872e-05
8.38215e-05
8.30058e-05
8.2257e-05
8.15436e-05
8.08898e-05
8.02757e-05
7.97155e-05
7.91881e-05
7.87037e-05
7.82393e-05
7.78186e-05
7.744e-05
7.7091e-05
7.67693e-05
7.64313e-05
7.59894e-05
7.55239e-05
7.48838e-05
7.43856e-05
7.45439e-05
7.42566e-05
7.3969e-05
7.40617e-05
7.40119e-05
7.39172e-05
7.38032e-05
7.36526e-05
7.35038e-05
7.33767e-05
7.3271e-05
7.31806e-05
7.3094e-05
7.29848e-05
7.28722e-05
7.27485e-05
7.2644e-05
7.2554e-05
7.2471e-05
7.23946e-05
7.23096e-05
7.22336e-05
7.2166e-05
7.20876e-05
7.1998e-05
7.18765e-05
7.17473e-05
7.15786e-05
7.14396e-05
7.14326e-05
7.1339e-05
7.12337e-05
7.1177e-05
7.11072e-05
7.10598e-05
7.10165e-05
7.09673e-05
7.09273e-05
7.08725e-05
7.08183e-05
7.07616e-05
7.07e-05
7.0631e-05
7.05555e-05
7.04721e-05
7.0376e-05
7.02805e-05
7.01834e-05
7.00921e-05
6.99939e-05
6.99084e-05
6.98667e-05
6.98137e-05
6.97726e-05
6.97339e-05
6.97177e-05
6.97004e-05
6.96919e-05
6.96825e-05
6.96672e-05
6.96329e-05
6.95895e-05
6.9533e-05
6.94676e-05
6.94035e-05
6.93328e-05
6.92498e-05
6.91879e-05
6.91354e-05
6.90862e-05
6.90463e-05
6.90146e-05
6.89945e-05
6.89798e-05
6.89682e-05
6.89613e-05
6.89516e-05
6.89356e-05
6.89098e-05
6.88693e-05
6.88226e-05
6.87703e-05
6.87054e-05
6.86519e-05
6.85956e-05
6.85499e-05
6.85079e-05
6.84714e-05
6.84468e-05
6.84258e-05
6.84095e-05
6.84033e-05
6.83954e-05
6.83855e-05
6.83657e-05
6.83364e-05
6.83032e-05
6.82656e-05
6.82049e-05
6.81566e-05
6.81004e-05
6.80566e-05
6.80165e-05
6.79794e-05
6.79464e-05
6.79208e-05
6.78974e-05
6.78762e-05
6.78578e-05
6.78433e-05
6.78225e-05
6.78062e-05
6.77774e-05
6.77229e-05
6.76867e-05
6.76421e-05
6.75866e-05
6.75436e-05
6.75003e-05
6.74416e-05
1.74359e-07
1.43235e-07
8.16331e-08
6.69978e-08
1.26102e-07
2.92412e-07
7.72557e-07
2.12632e-06
4.74246e-06
8.91496e-06
1.42829e-05
2.02644e-05
2.68221e-05
3.36867e-05
4.06879e-05
4.77089e-05
5.47891e-05
6.20154e-05
6.95376e-05
7.74918e-05
8.58882e-05
9.49523e-05
0.000104686
0.00011526
0.00012671
0.000139174
0.000152592
0.000167193
0.000182771
0.000200612
0.000219732
0.000239805
0.000261197
0.000284468
0.000309295
0.000333526
0.00035862
0.000385338
0.000413854
0.00044299
0.000472944
0.000503821
0.000536359
0.000568975
0.000602249
0.000634782
0.000670021
0.000705895
0.000743291
0.000777349
0.000812849
0.00084632
0.000881065
0.000912444
0.000942246
0.000969329
0.000995267
0.00101928
0.00104181
0.0010618
0.00107992
0.00109631
0.00111131
0.00112482
0.00113712
0.00114747
0.00115633
0.00116297
0.00116986
0.00117577
0.00118046
0.00118431
0.00118631
0.00118678
0.00118644
0.00118347
0.00118041
0.0011749
0.00116931
0.00116152
0.00115436
0.00114549
0.00113721
0.00112715
0.00111776
0.00110707
0.00109734
0.00108648
0.00107627
0.00106514
0.00105447
0.00104336
0.00103253
0.00102171
0.00101089
0.00100039
0.000989838
0.000979875
0.00096977
0.000960213
0.000950471
0.000941147
0.000931839
0.000923034
0.000914254
0.00090596
0.000897765
0.000890021
0.000882425
0.000875235
0.00086817
0.000861498
0.000855087
0.00084903
0.000843192
0.000837643
0.000831027
0.000824288
0.000816388
0.000809432
0.0008056
0.000799185
0.000793523
0.000790245
0.000786777
0.000783374
0.000780332
0.000777029
0.000773744
0.000770576
0.000767567
0.000764637
0.000761849
0.00075888
0.000755882
0.000752793
0.000749774
0.000746867
0.000744079
0.000741389
0.000738681
0.000736087
0.000733553
0.000731039
0.000727647
0.000723675
0.000719462
0.000715279
0.000711173
0.000706739
0.000702509
0.000698379
0.000694036
0.000690163
0.000686389
0.000682964
0.00067967
0.00067659
0.000673591
0.00067077
0.000667999
0.000665429
0.000662912
0.000660392
0.000657865
0.000655276
0.000652694
0.000650099
0.000647513
0.000644952
0.000642219
0.000639802
0.000637371
0.000635161
0.000632922
0.000630996
0.000629067
0.000627407
0.000625824
0.000624351
0.000622958
0.000621664
0.000620405
0.000619139
0.000617786
0.000616368
0.00061491
0.000613347
0.000611837
0.000610197
0.000608716
0.000607232
0.000605963
0.000604722
0.000603565
0.000602524
0.000601577
0.000600701
0.000599937
0.000599159
0.000598393
0.000597467
0.000596717
0.000595783
0.000594821
0.000593786
0.000592764
0.000591719
0.00059079
0.000589874
0.000589014
0.000588262
0.000587607
0.000587016
0.000586478
0.000586023
0.000585494
0.000585015
0.000584467
0.000583804
0.000583133
0.000582384
0.000581605
0.000580827
0.000580033
0.000579314
0.000578595
0.000577961
0.000577373
0.000576878
0.000576496
0.000576121
0.000575841
0.000575479
0.000575074
0.00057455
0.00057409
0.000573544
0.000572922
0.000571987
3.38997e-07
4.4105e-07
3.97691e-07
4.97519e-07
1.0963e-06
2.25371e-06
5.01373e-06
1.07279e-05
2.11528e-05
3.7405e-05
5.82244e-05
8.15271e-05
0.000105626
0.000129316
0.000151922
0.00017333
0.000193841
0.000213975
0.000233606
0.000253901
0.000274432
0.000296035
0.000318463
0.000342158
0.000367104
0.000393523
0.000421496
0.000451343
0.000482515
0.000515922
0.000550738
0.000587116
0.000624876
0.000664091
0.000705081
0.000747378
0.000791148
0.000836827
0.000885172
0.000934176
0.000983946
0.00103408
0.00108624
0.00113809
0.001191
0.00124179
0.00129617
0.00135043
0.00140705
0.00145824
0.00151077
0.00156048
0.00161113
0.00165796
0.00170314
0.00174493
0.00178481
0.00182229
0.00185745
0.00188914
0.00191821
0.00194486
0.00196946
0.00199192
0.00201246
0.00203022
0.00204587
0.0020582
0.00206904
0.00207768
0.00208431
0.0020897
0.00209225
0.00209284
0.00209213
0.00208782
0.00208323
0.00207508
0.00206693
0.00205554
0.00204499
0.00203156
0.00201895
0.00200374
0.00198949
0.00197313
0.00195819
0.00194108
0.00192489
0.00190718
0.0018901
0.00187229
0.00185481
0.00183723
0.00181951
0.00180223
0.00178479
0.00176819
0.00175124
0.001735
0.00171829
0.00170218
0.00168602
0.0016706
0.00165507
0.00164029
0.00162554
0.00161149
0.00159753
0.00158422
0.00157093
0.00155831
0.00154599
0.00153432
0.00152275
0.00151181
0.00149857
0.00148546
0.00147033
0.00145615
0.00144783
0.0014356
0.00142404
0.00141619
0.00140863
0.00140083
0.00139358
0.00138572
0.00137797
0.00137037
0.00136307
0.00135591
0.00134904
0.00134182
0.00133461
0.0013272
0.00131997
0.00131292
0.00130612
0.00129941
0.00129284
0.00128628
0.00128007
0.00127369
0.00126747
0.00126069
0.001254
0.00124698
0.00124014
0.00123464
0.0012285
0.00122254
0.00121708
0.00121205
0.00120736
0.00120307
0.00119887
0.00119506
0.00119113
0.00118734
0.00118363
0.00117988
0.00117605
0.00117207
0.00116798
0.00116358
0.00115914
0.00115463
0.00115008
0.00114552
0.00114099
0.00113702
0.00113306
0.00112933
0.00112599
0.00112289
0.00112014
0.00111768
0.00111539
0.00111334
0.00111112
0.0011089
0.00110637
0.00110366
0.00110079
0.00109775
0.00109448
0.00109127
0.00108811
0.0010851
0.00108212
0.00107957
0.00107718
0.00107508
0.00107319
0.00107161
0.00107014
0.00106878
0.00106735
0.0010658
0.00106405
0.00106212
0.00106007
0.00105787
0.00105557
0.00105332
0.00105112
0.00104901
0.0010472
0.00104553
0.00104404
0.00104284
0.00104182
0.00104091
0.00103996
0.00103905
0.00103791
0.00103676
0.00103533
0.00103378
0.00103207
0.00103038
0.00102871
0.00102711
0.00102554
0.00102419
0.00102292
0.00102185
0.00102091
0.0010202
0.0010195
0.00101899
0.00101825
0.00101728
0.00101638
0.00101526
0.001014
0.00101273
0.00101142
0.0010095
4.99131e-07
9.22883e-07
1.2536e-06
2.23496e-06
4.1545e-06
8.34649e-06
1.75844e-05
3.54341e-05
6.44309e-05
0.000102694
0.000146759
0.000190913
0.000232273
0.000270063
0.000304472
0.000336528
0.000365943
0.000394566
0.000422449
0.000450887
0.000479467
0.000509146
0.000539724
0.000571702
0.000605118
0.000640164
0.000676886
0.000715336
0.000755176
0.00079683
0.000839884
0.000884399
0.00093004
0.000977103
0.00102586
0.00107696
0.00112916
0.00118266
0.00123867
0.00129529
0.0013527
0.00140997
0.00146892
0.00152692
0.00158624
0.00164282
0.00170296
0.00176191
0.00182316
0.00187872
0.00193536
0.0019893
0.00204406
0.00209539
0.00214542
0.00219256
0.00223751
0.00228018
0.00231998
0.00235694
0.00239161
0.0024241
0.00245432
0.00248238
0.00250809
0.00253104
0.00255211
0.00256985
0.00258594
0.00259976
0.00261184
0.00262253
0.00263002
0.0026355
0.00263894
0.00263877
0.00263784
0.00263319
0.00262852
0.00262068
0.00261336
0.00260278
0.0025926
0.00258001
0.00256809
0.00255424
0.00254143
0.00252593
0.00251105
0.00249442
0.00247828
0.00246124
0.00244451
0.00242741
0.00241003
0.00239287
0.00237555
0.002359
0.00234198
0.00232553
0.00230833
0.00229163
0.00227485
0.00225872
0.00224241
0.00222679
0.00221115
0.00219619
0.00218128
0.00216699
0.00215264
0.00213898
0.00212558
0.00211287
0.00210025
0.00208798
0.00207268
0.00205726
0.00203954
0.00202144
0.00201201
0.00199886
0.00198536
0.00197636
0.00196826
0.00195947
0.00195092
0.0019415
0.0019322
0.00192295
0.00191401
0.00190521
0.00189669
0.00188761
0.00187851
0.00186903
0.00185973
0.0018506
0.00184178
0.00183296
0.00182437
0.00181561
0.00180741
0.00179882
0.00179048
0.0017812
0.00177207
0.00176248
0.00175292
0.00174514
0.00173675
0.0017284
0.00172059
0.00171349
0.00170673
0.00170056
0.00169442
0.00168886
0.00168307
0.00167753
0.00167203
0.00166644
0.00166073
0.00165476
0.00164868
0.00164213
0.0016355
0.00162877
0.00162195
0.00161518
0.00160838
0.00160244
0.00159649
0.0015909
0.00158574
0.00158104
0.00157675
0.00157287
0.00156922
0.00156582
0.00156218
0.00155854
0.00155446
0.00155008
0.00154557
0.0015408
0.00153568
0.00153067
0.00152587
0.00152118
0.00151669
0.00151264
0.00150889
0.00150554
0.00150247
0.00149981
0.00149732
0.00149491
0.00149245
0.00148982
0.00148689
0.00148375
0.00148031
0.00147677
0.00147311
0.00146954
0.00146609
0.00146278
0.00145992
0.00145724
0.00145487
0.00145285
0.00145111
0.00144951
0.00144788
0.00144626
0.00144435
0.00144234
0.00143997
0.00143748
0.00143479
0.00143213
0.00142952
0.00142703
0.00142461
0.00142251
0.00142052
0.00141883
0.0014173
0.00141611
0.00141488
0.001414
0.00141273
0.00141113
0.00140964
0.00140789
0.00140596
0.00140404
0.00140207
0.00139925
6.54706e-07
2.28614e-06
3.55384e-06
5.70152e-06
1.07879e-05
2.1992e-05
4.40916e-05
8.22637e-05
0.000134559
0.000194127
0.000253956
0.000309874
0.000360728
0.000406967
0.000448624
0.000486587
0.000522038
0.000556136
0.00058939
0.000622888
0.000656463
0.000690926
0.000726227
0.000762816
0.000800748
0.000840053
0.000880763
0.000922931
0.000966196
0.00101068
0.00105587
0.00110242
0.00114994
0.00119861
0.00124862
0.00130122
0.0013546
0.00140832
0.00146424
0.00152075
0.00157788
0.00163385
0.00169093
0.00174596
0.00180209
0.00185532
0.00191198
0.00196625
0.00202248
0.00206475
0.00209796
0.00213202
0.00216561
0.00220325
0.00224285
0.00227997
0.00231532
0.00234845
0.00238672
0.00242343
0.00246719
0.00250868
0.00254804
0.00258873
0.00262022
0.00265966
0.00269262
0.00273199
0.00276828
0.00280419
0.00284242
0.00285968
0.00287196
0.00288256
0.00289011
0.00289521
0.00289904
0.00289959
0.00290013
0.00289814
0.0028963
0.00289136
0.00288631
0.00287943
0.00287286
0.00286481
0.00285736
0.00284696
0.00283685
0.00282494
0.00281336
0.00280089
0.00278869
0.00277587
0.00276264
0.00274936
0.00273593
0.00272308
0.00270972
0.00269671
0.00268276
0.00266914
0.00265543
0.00264215
0.00262868
0.00261568
0.00260271
0.00259024
0.00257788
0.00256596
0.002554
0.00254256
0.0025314
0.00252082
0.00251034
0.00249969
0.00248583
0.00247144
0.00245493
0.00243647
0.00242822
0.00241771
0.00240585
0.0023981
0.0023918
0.00238469
0.00237733
0.00236905
0.00236092
0.00235266
0.00234464
0.00233674
0.00232902
0.00232057
0.00231209
0.00230303
0.00229414
0.00228534
0.0022768
0.00226821
0.00225982
0.00225116
0.00224311
0.00223449
0.0022261
0.00221656
0.00220713
0.00219715
0.00218688
0.00217871
0.00217011
0.00216133
0.00215305
0.00214555
0.00213845
0.00213196
0.00212553
0.00211966
0.00211357
0.0021077
0.00210185
0.00209577
0.00208955
0.00208296
0.0020762
0.00206882
0.00206133
0.00205364
0.00204583
0.00203805
0.00203016
0.00202335
0.00201651
0.00201014
0.00200418
0.00199882
0.00199393
0.00198952
0.00198538
0.00198149
0.00197728
0.00197301
0.00196817
0.0019629
0.00195754
0.00195173
0.00194553
0.00193942
0.00193363
0.00192791
0.00192255
0.0019176
0.00191303
0.00190899
0.00190529
0.00190204
0.00189901
0.00189604
0.00189301
0.00188973
0.00188606
0.00188214
0.00187779
0.00187332
0.0018687
0.00186419
0.00185983
0.00185567
0.00185205
0.00184868
0.00184569
0.00184317
0.00184098
0.00183896
0.00183693
0.00183487
0.00183246
0.00182991
0.00182685
0.00182365
0.00182019
0.00181677
0.0018134
0.00181021
0.00180713
0.00180448
0.00180196
0.00179982
0.00179787
0.00179636
0.00179479
0.00179363
0.00179204
0.00179001
0.00178806
0.00178583
0.00178338
0.00178094
0.00177845
0.00177493
8.10471e-07
5.75673e-06
7.34256e-06
1.20629e-05
2.30731e-05
4.60104e-05
8.73265e-05
0.000147191
0.000216215
0.00028795
0.000356435
0.000419162
0.000476241
0.00052732
0.000572913
0.000614901
0.000654203
0.000691687
0.000728126
0.000764384
0.00080056
0.000837198
0.000874464
0.000912652
0.000951844
0.000991962
0.001033
0.0010751
0.00111785
0.00116095
0.00120455
0.00124926
0.00129463
0.00134044
0.00138688
0.0014355
0.0014844
0.00153242
0.00158205
0.00163226
0.00168236
0.0017277
0.00174747
0.00176272
0.00177264
0.00178985
0.00180877
0.00182543
0.00184062
0.00186549
0.00189623
0.00192289
0.00195825
0.00198449
0.00202875
0.00205401
0.00209282
0.00211251
0.00215427
0.00217911
0.00222253
0.00225415
0.00229225
0.00232627
0.00235709
0.00239242
0.00242413
0.00246212
0.00249653
0.00253307
0.00257007
0.00260443
0.00264305
0.00267659
0.00270735
0.00274404
0.00277359
0.00280363
0.00283658
0.00287271
0.00290034
0.00293115
0.00295573
0.00296769
0.00296777
0.0029668
0.00296619
0.00296257
0.00295894
0.00295365
0.00294852
0.00294231
0.00293636
0.00292958
0.0029223
0.00291472
0.0029069
0.00289946
0.00289142
0.00288358
0.00287472
0.002866
0.00285714
0.00284847
0.00283959
0.00283096
0.00282238
0.00281409
0.00280597
0.00279804
0.00279016
0.00278253
0.0027752
0.00276835
0.00276141
0.00275376
0.0027431
0.00273163
0.0027185
0.00270233
0.00269619
0.00268997
0.00268201
0.00267666
0.00267299
0.00266893
0.00266422
0.00265869
0.00265329
0.00264756
0.002642
0.00263649
0.00263104
0.00262481
0.00261855
0.00261159
0.00260476
0.00259789
0.00259122
0.00258448
0.00257784
0.00257093
0.0025646
0.00255752
0.00255064
0.00254257
0.00253452
0.00252588
0.00251664
0.00250954
0.00250235
0.00249478
0.00248761
0.00248116
0.00247519
0.00246974
0.00246447
0.00245961
0.00245462
0.00244977
0.00244486
0.00243963
0.0024342
0.00242831
0.00242219
0.00241534
0.00240833
0.00240101
0.00239356
0.0023861
0.00237839
0.00237191
0.00236544
0.00235946
0.00235383
0.0023489
0.00234442
0.0023405
0.00233683
0.00233339
0.00232956
0.0023256
0.00232095
0.00231586
0.00231056
0.0023047
0.00229843
0.0022922
0.00228633
0.00228049
0.00227509
0.00227009
0.00226555
0.00226158
0.00225799
0.00225485
0.00225194
0.00224909
0.00224616
0.00224291
0.00223917
0.00223519
0.00223059
0.00222593
0.00222098
0.0022162
0.00221153
0.00220711
0.00220328
0.00219977
0.00219668
0.00219415
0.00219198
0.00219
0.00218802
0.00218598
0.00218356
0.00218093
0.00217769
0.00217424
0.00217049
0.00216672
0.00216301
0.00215952
0.00215617
0.00215335
0.00215068
0.00214846
0.00214642
0.00214491
0.00214332
0.00214215
0.00214059
0.00213846
0.00213636
0.00213397
0.00213133
0.00212867
0.00212596
0.00212218
1.04751e-06
9.88263e-06
1.29414e-05
2.23745e-05
4.31591e-05
8.19514e-05
0.000143281
0.000216989
0.000296213
0.000374721
0.000447886
0.000514809
0.000575464
0.000628721
0.000677011
0.000721495
0.000762976
0.000802283
0.000840189
0.000877368
0.000914173
0.000950939
0.000987922
0.00102533
0.0010633
0.00110164
0.0011403
0.00117956
0.00121887
0.00125814
0.00129733
0.00133691
0.00137655
0.00141599
0.00145555
0.00149709
0.00153833
0.00154746
0.00155615
0.00155426
0.00155267
0.00155989
0.00156674
0.00157292
0.00157479
0.00159035
0.00160747
0.00162233
0.0016393
0.00165382
0.00169881
0.00171703
0.00175365
0.00176447
0.00180873
0.00182156
0.00185671
0.00186622
0.00190077
0.00191699
0.00195311
0.00197362
0.00200618
0.00202921
0.00205718
0.00208222
0.00211005
0.00213921
0.00216715
0.00219722
0.00222714
0.00225741
0.00229212
0.00232273
0.00235403
0.00238992
0.00242242
0.00245396
0.00249017
0.00252772
0.00255916
0.00259197
0.00262304
0.00265636
0.00269087
0.0027224
0.0027541
0.0027806
0.00281287
0.00283937
0.00286863
0.00289302
0.00291753
0.00291879
0.00291909
0.00291881
0.00291805
0.00291733
0.002916
0.00291473
0.00291237
0.00291
0.00290745
0.00290488
0.002902
0.00289909
0.00289614
0.00289316
0.00289027
0.00288731
0.00288446
0.0028816
0.002879
0.00287675
0.00287407
0.00287021
0.00286398
0.00285674
0.00284858
0.00283661
0.00283341
0.0028317
0.00282901
0.00282654
0.00282588
0.00282545
0.00282419
0.00282231
0.00282046
0.00281806
0.0028158
0.00281342
0.00281099
0.0028079
0.00280475
0.00280088
0.00279711
0.00279308
0.00278924
0.0027853
0.00278137
0.00277724
0.00277353
0.002769
0.00276463
0.00275917
0.00275362
0.00274748
0.00274051
0.00273552
0.0027307
0.00272547
0.00272047
0.00271609
0.00271217
0.00270875
0.00270562
0.0027027
0.00269982
0.00269694
0.00269392
0.00269052
0.00268687
0.00268268
0.00267821
0.00267293
0.00266748
0.00266159
0.00265559
0.00264953
0.0026431
0.00263794
0.00263288
0.0026283
0.00262396
0.00262038
0.00261722
0.0026146
0.0026122
0.00261003
0.0026074
0.00260455
0.00260096
0.00259696
0.00259254
0.00258759
0.00258225
0.00257684
0.00257174
0.00256669
0.00256206
0.00255792
0.0025542
0.00255105
0.00254829
0.00254596
0.00254385
0.00254181
0.00253966
0.00253714
0.00253408
0.00253069
0.00252666
0.00252255
0.002518
0.00251366
0.00250935
0.00250538
0.00250196
0.00249894
0.00249633
0.00249437
0.00249275
0.00249136
0.00248995
0.00248846
0.00248659
0.00248443
0.00248157
0.00247846
0.00247496
0.0024714
0.00246785
0.0024646
0.00246148
0.00245896
0.0024566
0.00245476
0.00245309
0.00245196
0.00245077
0.00244997
0.00244885
0.00244706
0.00244519
0.00244306
0.00244065
0.00243819
0.00243566
0.0024322
1.33632e-06
1.49069e-05
2.14032e-05
3.78959e-05
7.11049e-05
0.000127588
0.000202252
0.000284249
0.000369355
0.000451211
0.00052681
0.000596565
0.000658053
0.000712813
0.000762661
0.000808416
0.00085082
0.000890696
0.000928676
0.000965266
0.00100112
0.00103639
0.00107132
0.0011061
0.00114092
0.00117554
0.00120985
0.00124416
0.00127801
0.00131127
0.00134405
0.00137644
0.00140835
0.00142079
0.00141778
0.00141714
0.00139539
0.00138731
0.00138652
0.00137581
0.00136952
0.0013833
0.00138995
0.00139812
0.00140484
0.00141865
0.00144905
0.00145967
0.00148118
0.00148088
0.00153293
0.00153947
0.00156765
0.00156483
0.00159921
0.00160233
0.00162826
0.0016314
0.00165359
0.00166256
0.00168714
0.00170191
0.00172969
0.00174819
0.00177322
0.00179116
0.00181658
0.00183662
0.00186199
0.00188347
0.00190995
0.00193386
0.00196111
0.00198527
0.0020106
0.00203705
0.00206559
0.00208602
0.00212072
0.00214554
0.00218008
0.00219857
0.00223507
0.00226064
0.00230172
0.00232531
0.00236699
0.00239059
0.00243317
0.0024625
0.00250272
0.00253185
0.00257032
0.00259806
0.00263321
0.00266266
0.00269421
0.00271961
0.00274557
0.00277242
0.00279548
0.00282047
0.00282594
0.00283093
0.00283524
0.00283918
0.00284281
0.00284614
0.00284942
0.00285239
0.00285548
0.00285836
0.00286154
0.00286472
0.00286706
0.0028678
0.00286733
0.00286549
0.00286349
0.0028576
0.00285787
0.00286089
0.00286388
0.0028651
0.00286771
0.00287108
0.00287387
0.00287617
0.00287834
0.00287981
0.00288134
0.00288252
0.00288356
0.00288418
0.00288466
0.00288447
0.00288431
0.00288367
0.00288323
0.00288257
0.00288195
0.00288115
0.00288058
0.00287916
0.00287792
0.00287576
0.0028734
0.00287045
0.00286665
0.00286434
0.00286248
0.00286027
0.00285809
0.00285636
0.00285502
0.00285426
0.00285383
0.00285346
0.00285325
0.00285295
0.00285244
0.00285152
0.0028503
0.0028485
0.00284635
0.00284335
0.00284017
0.00283647
0.00283266
0.00282878
0.00282448
0.00282137
0.00281844
0.00281599
0.00281371
0.00281214
0.00281091
0.0028102
0.00280966
0.0028093
0.00280848
0.00280742
0.00280558
0.00280332
0.00280039
0.00279718
0.00279352
0.00278969
0.0027861
0.00278259
0.00277948
0.00277687
0.00277459
0.00277291
0.0027716
0.00277067
0.00276995
0.00276929
0.00276851
0.00276734
0.00276557
0.00276343
0.00276064
0.00275773
0.00275427
0.00275103
0.00274774
0.00274484
0.00274245
0.00274051
0.00273893
0.00273809
0.00273753
0.00273727
0.00273691
0.00273648
0.0027357
0.00273455
0.00273264
0.00273044
0.00272777
0.00272497
0.00272211
0.00271962
0.00271725
0.00271554
0.00271398
0.002713
0.00271215
0.00271186
0.0027115
0.00271148
0.00271123
0.00271022
0.00270902
0.0027076
0.00270589
0.00270406
0.00270215
0.00269965
1.67903e-06
1.99362e-05
3.28754e-05
5.88773e-05
0.000105952
0.000176662
0.000258358
0.000345641
0.000433556
0.000516849
0.00059387
0.00066431
0.000725946
0.0007815
0.000831992
0.000878067
0.000920432
0.000959787
0.000996683
0.0010315
0.00106503
0.00109744
0.00112887
0.0011595
0.00118961
0.00121896
0.00124729
0.00127521
0.00130212
0.00132788
0.00135252
0.0013315
0.00130465
0.00127685
0.00126441
0.00125856
0.00123051
0.00122692
0.00122795
0.00122311
0.00122158
0.00124382
0.00125452
0.00126403
0.00127456
0.00127681
0.00132161
0.00132055
0.00133967
0.0013268
0.00136363
0.00135846
0.0013798
0.00137474
0.00139623
0.00139971
0.00141704
0.00142208
0.00143293
0.00144534
0.00145895
0.00147687
0.00149558
0.00151541
0.00153368
0.00154923
0.00157153
0.00158396
0.00161133
0.00162208
0.00165208
0.00166744
0.00169247
0.00171217
0.00173157
0.00175416
0.0017769
0.00179121
0.00182506
0.00183623
0.00187069
0.00188148
0.00191447
0.00193656
0.00197046
0.0019867
0.00201986
0.00204006
0.002074
0.0021005
0.0021326
0.00215885
0.00218954
0.00221768
0.00225009
0.00228119
0.00231404
0.00234179
0.00237284
0.00240376
0.00243401
0.00246733
0.00249608
0.00252564
0.00255345
0.00258023
0.0026055
0.00263029
0.00265302
0.00267666
0.0027003
0.00272151
0.00273201
0.002742
0.00275046
0.00275726
0.00276361
0.00276854
0.00277307
0.00277524
0.0027802
0.00278846
0.00279693
0.00280308
0.00280975
0.00281726
0.0028247
0.00283168
0.00283861
0.0028446
0.00285047
0.00285577
0.00286084
0.00286566
0.00287026
0.00287427
0.00287819
0.00288148
0.0028849
0.00288795
0.00289106
0.002894
0.00289696
0.00289906
0.00290138
0.002903
0.00290431
0.00290506
0.00290509
0.00290592
0.00290738
0.00290863
0.00290969
0.00291097
0.00291264
0.00291486
0.00291742
0.00291999
0.00292276
0.00292545
0.0029278
0.0029298
0.00293143
0.0029325
0.00293307
0.00293288
0.00293236
0.00293142
0.00293024
0.00292916
0.00292752
0.00292699
0.00292669
0.00292677
0.00292707
0.00292792
0.00292911
0.00293067
0.0029324
0.00293423
0.00293566
0.00293678
0.00293716
0.00293714
0.00293623
0.00293531
0.00293383
0.00293219
0.00293063
0.00292919
0.00292816
0.00292757
0.00292727
0.00292752
0.00292814
0.00292906
0.00293016
0.00293132
0.00293238
0.00293304
0.002933
0.00293269
0.00293165
0.00293047
0.00292868
0.00292709
0.00292536
0.00292406
0.0029232
0.00292285
0.00292277
0.00292351
0.00292444
0.00292575
0.00292688
0.00292793
0.00292872
0.00292906
0.00292861
0.0029278
0.00292648
0.00292494
0.00292327
0.00292201
0.00292086
0.00292042
0.00292011
0.00292043
0.00292085
0.0029218
0.0029227
0.00292386
0.00292488
0.00292508
0.00292498
0.0029247
0.00292413
0.00292337
0.0029225
0.00292159
2.26404e-06
2.65229e-05
4.71855e-05
8.40801e-05
0.000144442
0.000223216
0.000309603
0.000399563
0.000488441
0.000571946
0.00064959
0.000719359
0.000780889
0.000836585
0.000887013
0.000932687
0.00097418
0.00101205
0.00104678
0.0010788
0.00110879
0.00113706
0.00116368
0.00118878
0.00121284
0.00123548
0.0012566
0.0012772
0.00127601
0.00123843
0.00121182
0.0011843
0.00115457
0.00112732
0.00111927
0.00111605
0.00109199
0.00109904
0.00110655
0.00110968
0.00111032
0.00112588
0.00115167
0.00115508
0.00116824
0.00115312
0.0011918
0.00118141
0.00119829
0.00118713
0.00119893
0.00119723
0.00120876
0.00121332
0.00121416
0.00122373
0.00122549
0.00123633
0.00123237
0.00125021
0.00124999
0.00127154
0.00127322
0.00129781
0.00130237
0.00132327
0.00133665
0.00135034
0.00137579
0.00138142
0.00141661
0.00142173
0.00145404
0.00146703
0.00148804
0.00151833
0.00153053
0.00156092
0.00157853
0.00159638
0.0016198
0.00163989
0.00166232
0.00168612
0.00171297
0.00173176
0.00175327
0.00177279
0.00179604
0.00181779
0.00183884
0.00185821
0.00187846
0.00190199
0.00192432
0.00194896
0.00197287
0.00199451
0.00202103
0.00204425
0.00207313
0.00210083
0.00212857
0.00215685
0.00218532
0.00221413
0.00224332
0.00227108
0.00230002
0.00232682
0.00235719
0.00238519
0.00241067
0.00243217
0.00244957
0.00246827
0.00249193
0.00252693
0.00256356
0.00258812
0.00260126
0.00261585
0.00263042
0.00264288
0.00265518
0.00266788
0.00268093
0.0026934
0.00270598
0.00271718
0.00272833
0.00273852
0.00274841
0.00275805
0.00276751
0.00277638
0.00278516
0.00279312
0.00280106
0.0028085
0.00281592
0.00282314
0.00283021
0.00283633
0.00284277
0.00284867
0.0028542
0.00285919
0.00286371
0.00286842
0.00287347
0.00287852
0.00288325
0.00288797
0.00289295
0.0028984
0.00290419
0.00291005
0.00291605
0.002922
0.00292755
0.00293277
0.0029376
0.00294185
0.00294547
0.00294849
0.00295101
0.00295323
0.00295508
0.00295711
0.00295861
0.00296097
0.00296364
0.00296663
0.00296982
0.00297337
0.00297728
0.0029814
0.00298567
0.00298996
0.00299391
0.0029975
0.00300043
0.00300292
0.00300452
0.0030062
0.00300729
0.0030082
0.00300909
0.00301014
0.00301157
0.00301338
0.00301541
0.00301793
0.00302079
0.00302389
0.00302713
0.00303041
0.00303362
0.00303642
0.0030385
0.00304041
0.00304153
0.00304249
0.00304281
0.00304331
0.00304357
0.00304426
0.00304532
0.00304694
0.00304876
0.0030514
0.00305416
0.00305737
0.00306035
0.00306323
0.00306594
0.00306816
0.00306958
0.00307059
0.00307106
0.00307121
0.00307112
0.00307149
0.00307197
0.00307318
0.0030745
0.00307649
0.00307855
0.00308111
0.00308362
0.00308632
0.00308896
0.00309076
0.00309214
0.00309339
0.00309434
0.00309506
0.00309563
0.00309688
2.95014e-06
3.52803e-05
6.37032e-05
0.000111995
0.000181376
0.000265267
0.000354683
0.000445571
0.000534188
0.000617086
0.000694588
0.000763118
0.000824297
0.000879657
0.000929475
0.000974073
0.00101387
0.00104932
0.0010809
0.001109
0.00113422
0.00115702
0.00117748
0.00119574
0.00121246
0.00122726
0.00122011
0.00118428
0.00113635
0.00109223
0.00106681
0.00104666
0.00102239
0.00100099
0.00100128
0.00100247
0.000983344
0.000994785
0.00102426
0.00103119
0.00102988
0.00102135
0.00106292
0.00105223
0.00106703
0.00104755
0.00106915
0.00105904
0.00107019
0.00106794
0.00104302
0.00105007
0.00103657
0.00105375
0.00103158
0.00104641
0.00103003
0.00104658
0.00102989
0.00104954
0.00103722
0.00106097
0.00104577
0.00107445
0.00106307
0.00108615
0.00108905
0.00108916
0.00109415
0.00109785
0.00110268
0.00110949
0.00111601
0.00112285
0.00113318
0.00114237
0.00115296
0.00116588
0.001179
0.00119106
0.00120532
0.00121976
0.00123616
0.00125352
0.00127294
0.00129164
0.00131316
0.00133423
0.00135859
0.00138295
0.00140973
0.00143649
0.00146532
0.00149487
0.0015251
0.00155644
0.00158868
0.00162066
0.00165423
0.00168737
0.0017219
0.00175597
0.00178985
0.00182335
0.00185751
0.00189066
0.00191658
0.00193908
0.00196441
0.00198719
0.00201387
0.00203794
0.00205997
0.0020798
0.00209476
0.0021178
0.00214753
0.00218357
0.00222132
0.00227239
0.00230861
0.00232069
0.00233539
0.00235644
0.0023732
0.00239076
0.00240952
0.00243268
0.00245528
0.00247785
0.00249934
0.0025161
0.00253553
0.0025555
0.0025754
0.00259034
0.00260512
0.00261882
0.00263232
0.00264516
0.00265777
0.00267013
0.00268208
0.00269318
0.00270457
0.00271546
0.0027261
0.00273621
0.00274578
0.00275538
0.00276472
0.00277413
0.00278304
0.00279187
0.00280059
0.00280967
0.00281903
0.0028286
0.00283819
0.00284779
0.00285686
0.00286576
0.00287408
0.00288194
0.00288913
0.00289566
0.00290171
0.0029074
0.0029127
0.00291817
0.00292316
0.00292881
0.00293474
0.00294097
0.00294731
0.00295387
0.00296074
0.00296768
0.00297471
0.00298171
0.00298837
0.00299471
0.00300037
0.0030057
0.00301012
0.00301461
0.0030186
0.0030224
0.00302605
0.00302988
0.00303407
0.00303855
0.00304318
0.00304822
0.00305355
0.00305904
0.00306468
0.00307029
0.00307589
0.00308104
0.00308554
0.00308991
0.00309352
0.00309691
0.00309969
0.00310258
0.00310516
0.00310815
0.00311143
0.00311528