/*--------------------------------*- C++ -*----------------------------------*\
| =========                 |                                                 |
| \\      /  F ield         | OpenFOAM: The Open Source CFD Toolbox           |
|  \\    /   O peration     | Version:  2312                                  |
|   \\  /    A nd           | Website:  www.openfoam.com                      |
|    \\/     M anipulation  |                                                 |
\*---------------------------------------------------------------------------*/
FoamFile
{
    version     2.0;
    format      ascii;
    arch        "LSB;label=32;scalar=64";
    class       volScalarField;
    location    "0.002";
    object      cSound;
}
// * * * * * * * * * * * * * * * * * * * * * * * * * * * * * * * * * * * * * //

dimensions      [0 1 -1 0 0 0 0];

internalField   nonuniform List<scalar> 
48128
(
376.328
376.405
376.505
376.536
376.432
375.972
374.818
373.88
373.362
372.907
372.52
372.071
371.536
370.96
370.405
369.889
369.393
368.912
368.453
368.02
367.588
367.171
366.777
366.413
366.087
365.809
365.585
365.426
365.337
365.31
365.337
365.449
365.64
365.891
366.193
366.553
366.981
367.442
367.945
368.483
369.031
369.575
370.113
370.647
371.155
371.628
372.054
372.445
372.791
373.085
373.321
373.498
373.606
373.649
373.624
373.532
373.373
373.149
372.865
372.528
372.145
371.724
371.268
370.779
370.258
369.709
369.129
368.533
367.911
367.27
366.615
365.944
365.259
364.567
363.848
363.139
362.41
361.696
360.976
360.29
359.597
358.924
358.245
357.593
356.958
356.358
355.77
355.194
354.618
354.066
353.528
353.014
352.518
352.038
351.573
351.124
350.699
350.301
349.922
349.553
349.194
348.849
348.526
348.221
347.929
347.656
347.397
347.161
346.934
346.723
346.517
346.324
346.147
345.986
345.825
345.648
345.45
345.231
344.96
344.586
344.637
344.557
344.368
344.447
344.422
344.381
344.324
344.257
344.185
344.111
344.046
343.987
343.926
343.86
343.792
343.722
343.655
343.601
343.548
343.5
343.452
343.403
343.363
343.32
343.274
343.226
343.184
343.133
343.065
343.098
343.098
343.095
343.121
343.142
343.176
343.215
343.246
343.281
343.312
343.337
343.364
343.381
343.396
343.405
343.416
343.417
343.416
343.413
343.411
343.404
343.406
343.419
343.43
343.45
343.474
343.511
343.552
343.6
343.65
343.701
343.742
343.776
343.795
343.808
343.816
343.814
343.802
343.796
343.798
343.802
343.813
343.829
343.856
343.89
343.929
343.974
344.02
344.066
344.1
344.133
344.15
344.172
344.17
344.173
344.172
344.176
344.183
344.196
344.214
344.237
344.266
344.303
344.343
344.385
344.42
344.455
344.478
344.507
344.513
344.528
344.536
344.55
344.566
344.587
344.612
344.643
344.678
344.718
344.76
344.807
344.848
344.893
344.929
344.949
344.972
344.997
345.004
345.016
345.031
345.057
375.957
376.069
376.23
376.32
376.236
375.396
374.338
373.461
372.795
372.212
371.548
370.697
369.773
368.912
368.141
367.443
366.805
366.223
365.704
365.248
364.827
364.453
364.133
363.872
363.678
363.559
363.514
363.52
363.625
363.822
364.093
364.445
364.868
365.35
365.881
366.462
367.092
367.737
368.395
369.06
369.705
370.318
370.892
371.425
371.901
372.312
372.651
372.923
373.121
373.233
373.258
373.192
373.045
372.816
372.502
372.108
371.637
371.1
370.498
369.839
369.128
368.369
367.565
366.722
365.841
364.935
363.998
363.049
362.08
361.111
360.139
359.162
358.184
357.21
356.216
355.242
354.252
353.282
352.314
351.383
350.456
349.55
348.648
347.77
346.922
346.108
345.322
344.547
343.782
343.034
342.311
341.608
340.932
340.271
339.631
339.006
338.406
337.838
337.289
336.755
336.232
335.724
335.238
334.774
334.323
333.897
333.483
333.098
332.723
332.371
332.024
331.695
331.384
331.093
330.809
330.511
330.192
329.85
329.455
328.928
328.838
328.632
328.3
328.256
328.15
328.016
327.867
327.709
327.549
327.389
327.238
327.098
326.957
326.812
326.664
326.515
326.369
326.236
326.107
325.984
325.863
325.742
325.631
325.518
325.4
325.275
325.148
325.01
324.845
324.782
324.699
324.599
324.543
324.48
324.435
324.398
324.357
324.324
324.287
324.248
324.209
324.168
324.126
324.08
324.033
323.983
323.93
323.876
323.823
323.767
323.718
323.689
323.657
323.635
323.609
323.61
323.61
323.618
323.63
323.642
323.651
323.652
323.647
323.638
323.626
323.61
323.58
323.561
323.544
323.534
323.529
323.528
323.536
323.551
323.573
323.6
323.63
323.661
323.683
323.703
323.714
323.73
323.722
323.724
323.721
323.724
323.73
323.741
323.756
323.776
323.801
323.835
323.871
323.908
323.942
323.969
323.996
324.027
324.03
324.047
324.058
324.075
324.097
324.124
324.156
324.192
324.234
324.28
324.329
324.382
324.431
324.482
324.535
324.563
324.597
324.637
324.655
324.68
324.707
324.752
375.605
375.755
375.961
376.074
375.666
374.616
373.558
372.759
372.057
371.328
370.556
369.796
369.088
368.434
367.84
367.308
366.829
366.393
366.016
365.698
365.415
365.177
364.99
364.859
364.788
364.774
364.822
364.948
365.16
365.451
365.809
366.23
366.704
367.213
367.749
368.314
368.909
369.504
370.091
370.664
371.199
371.681
372.101
372.46
372.748
372.953
373.069
373.096
373.029
372.87
372.611
372.252
371.805
371.277
370.661
369.967
369.198
368.368
367.479
366.546
365.568
364.555
363.507
362.431
361.327
360.216
359.083
357.954
356.813
355.679
354.553
353.435
352.334
351.244
350.144
349.077
347.998
346.945
345.903
344.902
343.911
342.945
341.991
341.062
340.175
339.324
338.504
337.693
336.897
336.119
335.367
334.636
333.932
333.243
332.576
331.925
331.302
330.709
330.135
329.575
329.026
328.493
327.981
327.489
327.011
326.556
326.114
325.7
325.296
324.916
324.539
324.183
323.842
323.523
323.209
322.882
322.537
322.169
321.754
321.215
321.089
320.851
320.507
320.41
320.262
320.09
319.905
319.715
319.524
319.336
319.157
318.99
318.821
318.65
318.477
318.303
318.134
317.977
317.823
317.677
317.532
317.39
317.255
317.119
316.979
316.833
316.685
316.527
316.34
316.252
316.144
316.019
315.937
315.848
315.778
315.717
315.653
315.595
315.534
315.472
315.408
315.343
315.276
315.209
315.14
315.069
314.997
314.925
314.856
314.785
314.714
314.669
314.618
314.581
314.537
314.52
314.498
314.49
314.486
314.48
314.472
314.46
314.442
314.421
314.397
314.371
314.333
314.304
314.28
314.257
314.244
314.23
314.232
314.239
314.25
314.268
314.289
314.311
314.327
314.34
314.346
314.356
314.347
314.346
314.34
314.341
314.344
314.353
314.366
314.383
314.406
314.438
314.471
314.506
314.538
314.564
314.588
314.617
314.62
314.634
314.645
314.662
314.684
314.71
314.743
314.781
314.825
314.872
314.923
314.978
315.03
315.084
315.139
315.174
315.213
315.257
315.282
315.312
315.345
315.397
375.373
375.549
375.749
375.637
374.848
373.734
372.845
372.116
371.445
370.826
370.257
369.699
369.157
368.648
368.18
367.772
367.418
367.109
366.848
366.636
366.452
366.307
366.205
366.153
366.147
366.196
366.313
366.504
366.765
367.088
367.464
367.891
368.358
368.849
369.353
369.87
370.396
370.906
371.386
371.834
372.224
372.54
372.771
372.921
372.98
372.937
372.786
372.526
372.156
371.687
371.107
370.422
369.642
368.787
367.841
366.829
365.743
364.612
363.429
362.221
360.981
359.725
358.449
357.164
355.863
354.577
353.282
352.012
350.742
349.496
348.272
347.072
345.908
344.762
343.618
342.519
341.411
340.336
339.283
338.275
337.28
336.313
335.363
334.443
333.577
332.753
331.959
331.177
330.411
329.662
328.94
328.238
327.563
326.9
326.263
325.638
325.047
324.482
323.936
323.404
322.882
322.374
321.886
321.415
320.958
320.521
320.099
319.701
319.314
318.948
318.586
318.244
317.914
317.608
317.302
316.984
316.65
316.292
315.895
315.391
315.258
315.025
314.722
314.598
314.44
314.264
314.077
313.886
313.696
313.507
313.328
313.158
312.988
312.816
312.643
312.468
312.3
312.142
311.987
311.84
311.693
311.552
311.416
311.278
311.137
310.991
310.842
310.684
310.5
310.405
310.294
310.169
310.08
309.987
309.911
309.846
309.779
309.717
309.652
309.585
309.517
309.445
309.372
309.297
309.221
309.144
309.067
308.989
308.917
308.844
308.769
308.72
308.666
308.625
308.577
308.554
308.526
308.511
308.499
308.487
308.472
308.453
308.43
308.404
308.376
308.346
308.306
308.273
308.247
308.221
308.206
308.187
308.186
308.19
308.198
308.211
308.228
308.245
308.259
308.269
308.273
308.279
308.27
308.268
308.261
308.261
308.264
308.272
308.284
308.302
308.325
308.357
308.39
308.425
308.456
308.482
308.505
308.532
308.536
308.547
308.558
308.574
308.595
308.622
308.656
308.695
308.74
308.789
308.842
308.898
308.952
309.008
309.064
309.102
309.144
309.191
309.22
309.254
309.29
309.347
375.213
375.382
375.462
375
374.013
373.082
372.321
371.679
371.139
370.693
370.294
369.855
369.438
369.067
368.735
368.447
368.2
367.983
367.804
367.666
367.549
367.466
367.421
367.415
367.453
367.548
367.704
367.926
368.207
368.541
368.917
369.332
369.776
370.229
370.679
371.121
371.55
371.941
372.277
372.557
372.76
372.859
372.847
372.722
372.481
372.119
371.618
370.985
370.227
369.363
368.373
367.276
366.082
364.831
363.488
362.103
360.645
359.168
357.656
356.149
354.634
353.131
351.633
350.152
348.672
347.241
345.814
344.449
343.096
341.792
340.529
339.301
338.131
336.984
335.847
334.774
333.691
332.651
331.64
330.684
329.741
328.827
327.932
327.073
326.277
325.532
324.81
324.103
323.409
322.733
322.083
321.451
320.841
320.245
319.675
319.115
318.593
318.091
317.607
317.136
316.673
316.223
315.79
315.371
314.965
314.576
314.202
313.848
313.505
313.181
312.859
312.556
312.264
311.993
311.718
311.431
311.134
310.809
310.455
310.013
309.886
309.681
309.445
309.302
309.157
308.999
308.83
308.658
308.487
308.316
308.154
307.999
307.843
307.687
307.529
307.369
307.218
307.072
306.931
306.796
306.66
306.533
306.408
306.282
306.152
306.019
305.881
305.737
305.569
305.478
305.374
305.26
305.174
305.088
305.018
304.96
304.901
304.844
304.786
304.727
304.664
304.597
304.527
304.455
304.382
304.308
304.233
304.159
304.089
304.021
303.952
303.907
303.857
303.82
303.777
303.755
303.729
303.715
303.703
303.69
303.674
303.654
303.632
303.606
303.577
303.549
303.511
303.48
303.456
303.432
303.418
303.402
303.402
303.405
303.414
303.427
303.443
303.46
303.474
303.484
303.488
303.496
303.487
303.486
303.48
303.481
303.485
303.494
303.509
303.529
303.554
303.587
303.623
303.66
303.692
303.72
303.743
303.771
303.775
303.786
303.797
303.813
303.834
303.862
303.896
303.937
303.984
304.036
304.091
304.149
304.205
304.264
304.32
304.362
304.406
304.455
304.488
304.525
304.565
304.627
375.113
375.209
375.029
374.325
373.422
372.614
371.964
371.45
371.066
370.753
370.432
370.119
369.834
369.583
369.361
369.166
368.997
368.849
368.728
368.643
368.575
368.54
368.534
368.565
368.641
368.77
368.954
369.193
369.484
369.816
370.177
370.563
370.963
371.352
371.714
372.043
372.335
372.557
372.691
372.734
372.663
372.46
372.106
371.597
370.934
370.12
369.127
367.973
366.672
365.268
363.714
362.063
360.328
358.563
356.736
354.885
352.99
351.084
349.216
347.363
345.582
343.83
342.134
340.492
338.867
337.346
335.838
334.455
333.089
331.811
330.594
329.417
328.32
327.249
326.199
325.236
324.254
323.333
322.447
321.632
320.817
320.04
319.275
318.55
317.885
317.278
316.68
316.102
315.533
314.98
314.448
313.932
313.43
312.944
312.481
312.024
311.605
311.197
310.808
310.427
310.052
309.687
309.337
308.998
308.671
308.357
308.055
307.77
307.495
307.233
306.975
306.733
306.499
306.28
306.055
305.821
305.58
305.311
305.021
304.665
304.551
304.393
304.236
304.089
303.979
303.855
303.719
303.583
303.445
303.307
303.177
303.05
302.922
302.796
302.667
302.535
302.413
302.292
302.176
302.064
301.953
301.85
301.747
301.642
301.535
301.427
301.31
301.189
301.049
300.969
300.882
300.789
300.716
300.644
300.587
300.543
300.499
300.456
300.413
300.368
300.319
300.265
300.208
300.146
300.082
300.018
299.953
299.89
299.829
299.772
299.714
299.678
299.64
299.613
299.58
299.566
299.548
299.54
299.533
299.525
299.514
299.499
299.481
299.459
299.435
299.414
299.383
299.358
299.339
299.321
299.313
299.304
299.307
299.315
299.327
299.345
299.364
299.383
299.401
299.414
299.421
299.433
299.427
299.43
299.427
299.431
299.438
299.451
299.47
299.494
299.523
299.56
299.6
299.641
299.677
299.708
299.734
299.765
299.771
299.783
299.796
299.813
299.836
299.865
299.901
299.945
299.995
300.05
300.108
300.17
300.229
300.29
300.348
300.394
300.441
300.492
300.53
300.571
300.614
300.682
375.04
374.997
374.583
373.816
372.981
372.287
371.756
371.378
371.111
370.878
370.653
370.45
370.272
370.115
369.973
369.845
369.735
369.641
369.57
369.529
369.506
369.507
369.533
369.596
369.702
369.856
370.055
370.299
370.585
370.897
371.221
371.549
371.872
372.16
372.387
372.544
372.628
372.602
372.432
372.119
371.642
370.981
370.105
369.01
367.699
366.206
364.475
362.556
360.473
358.307
356.036
353.67
351.308
348.869
346.546
344.12
341.796
339.367
337.193
334.944
332.966
330.974
329.174
327.427
325.751
324.203
322.707
321.391
320.097
318.944
317.853
316.831
315.915
315.017
314.163
313.416
312.644
311.946
311.291
310.728
310.132
309.586
309.041
308.536
308.084
307.688
307.284
306.902
306.528
306.161
305.813
305.471
305.137
304.808
304.497
304.185
303.907
303.63
303.368
303.111
302.856
302.609
302.372
302.143
301.921
301.705
301.499
301.303
301.115
300.936
300.76
300.598
300.441
300.291
300.134
299.97
299.806
299.611
299.404
299.153
299.052
298.971
298.889
298.771
298.701
298.624
298.534
298.444
298.354
298.263
298.176
298.09
298.004
297.918
297.83
297.739
297.655
297.57
297.491
297.412
297.335
297.265
297.193
297.12
297.045
296.969
296.884
296.796
296.693
296.63
296.571
296.507
296.454
296.404
296.366
296.343
296.32
296.298
296.276
296.252
296.224
296.19
296.152
296.108
296.061
296.013
295.963
295.917
295.871
295.831
295.79
295.768
295.748
295.735
295.718
295.716
295.712
295.715
295.72
295.72
295.718
295.714
295.704
295.693
295.676
295.667
295.646
295.631
295.622
295.615
295.616
295.618
295.628
295.643
295.664
295.688
295.713
295.739
295.763
295.783
295.796
295.817
295.816
295.823
295.828
295.837
295.851
295.87
295.894
295.925
295.959
296.002
296.048
296.095
296.137
296.174
296.205
296.24
296.251
296.267
296.283
296.303
296.329
296.361
296.401
296.448
296.502
296.561
296.624
296.69
296.754
296.819
296.88
296.931
296.981
297.036
297.078
297.124
297.172
297.246
374.98
374.814
374.226
373.424
372.669
372.084
371.668
371.399
371.21
371.056
370.922
370.808
370.706
370.613
370.531
370.458
370.397
370.349
370.324
370.321
370.327
370.357
370.412
370.499
370.625
370.79
370.989
371.219
371.478
371.743
371.996
372.224
372.419
372.546
372.566
372.452
372.205
371.779
371.122
370.233
369.101
367.726
366.045
364.076
361.823
359.38
356.669
353.762
350.741
347.562
344.635
341.471
338.538
335.349
332.651
329.665
327.024
324.149
321.786
319.238
317.206
315.055
313.277
311.447
309.861
308.351
307.003
305.813
304.692
303.728
302.831
302.034
301.347
300.682
300.089
299.583
299.101
298.651
298.293
298.012
297.7
297.423
297.18
296.943
296.794
296.645
296.524
296.373
296.276
296.14
296.047
295.927
295.83
295.703
295.604
295.48
295.389
295.285
295.191
295.099
295
294.911
294.818
294.726
294.634
294.543
294.454
294.37
294.289
294.214
294.139
294.077
294.015
293.955
293.885
293.805
293.731
293.625
293.521
293.385
293.314
293.322
293.306
293.251
293.228
293.205
293.172
293.14
293.112
293.079
293.047
293.013
292.977
292.942
292.904
292.863
292.828
292.79
292.755
292.719
292.683
292.655
292.623
292.59
292.554
292.519
292.473
292.426
292.369
292.332
292.307
292.278
292.253
292.231
292.221
292.223
292.225
292.23
292.234
292.239
292.237
292.23
292.217
292.197
292.171
292.146
292.116
292.094
292.068
292.05
292.032
292.028
292.029
292.035
292.039
292.054
292.068
292.086
292.106
292.122
292.134
292.143
292.145
292.151
292.146
292.152
292.143
292.144
292.147
292.154
292.167
292.183
292.205
292.232
292.263
292.297
292.332
292.368
292.401
292.43
292.453
292.483
292.493
292.508
292.522
292.54
292.562
292.589
292.621
292.66
292.702
292.753
292.807
292.862
292.912
292.957
292.995
293.038
293.055
293.077
293.098
293.123
293.153
293.19
293.235
293.287
293.346
293.411
293.479
293.552
293.62
293.691
293.756
293.814
293.868
293.927
293.976
294.027
294.081
294.163
374.927
374.621
373.916
373.131
372.464
371.98
371.663
371.469
371.352
371.264
371.202
371.153
371.108
371.066
371.029
371
370.981
370.974
370.98
371.003
371.036
371.088
371.162
371.262
371.391
371.551
371.728
371.919
372.118
372.297
372.429
372.495
372.477
372.329
371.998
371.436
370.628
369.546
368.123
366.347
364.239
361.887
359.089
355.966
352.544
348.909
345.267
341.322
337.477
333.246
329.91
326.044
322.723
318.904
315.975
312.616
309.883
306.836
304.47
301.894
299.963
297.886
296.307
294.596
293.272
291.885
290.836
289.775
288.949
288.146
287.519
286.937
286.473
286.046
285.682
285.37
285.175
284.866
284.814
284.695
284.685
284.543
284.624
284.562
284.723
284.733
284.912
284.934
285.125
285.197
285.373
285.461
285.622
285.705
285.85
285.942
286.073
286.173
286.275
286.383
286.463
286.568
286.639
286.713
286.776
286.833
286.885
286.94
286.986
287.044
287.09
287.151
287.198
287.256
287.281
287.298
287.321
287.322
287.35
287.317
287.323
287.396
287.469
287.489
287.522
287.558
287.6
287.633
287.682
287.711
287.746
287.77
287.793
287.814
287.839
287.854
287.879
287.892
287.91
287.925
287.938
287.96
287.974
287.984
287.995
288.009
288.008
288.014
288.003
288.006
288.016
288.027
288.039
288.052
288.073
288.104
288.137
288.176
288.21
288.249
288.278
288.302
288.318
288.328
288.328
288.333
288.329
288.334
288.334
288.342
288.351
288.369
288.394
288.425
288.454
288.489
288.525
288.563
288.602
288.636
288.666
288.693
288.712
288.738
288.748
288.77
288.782
288.799
288.819
288.843
288.873
288.904
288.941
288.982
289.028
289.075
289.122
289.17
289.215
289.256
289.291
289.334
289.356
289.383
289.409
289.438
289.471
289.508
289.551
289.599
289.652
289.712
289.775
289.84
289.901
289.956
290.003
290.055
290.082
290.111
290.141
290.172
290.209
290.252
290.303
290.361
290.426
290.498
290.573
290.653
290.728
290.806
290.877
290.942
291.002
291.066
291.123
291.181
291.241
291.332
374.844
374.419
373.668
372.919
372.34
371.942
371.7
371.58
371.513
371.48
371.471
371.468
371.466
371.465
371.466
371.47
371.483
371.504
371.536
371.578
371.627
371.692
371.772
371.868
371.983
372.113
372.24
372.354
372.445
372.477
372.403
372.185
371.791
371.166
370.252
368.974
367.29
365.242
362.735
359.771
356.388
352.865
348.821
344.459
339.963
335.054
330.826
326.015
321.669
316.649
313.088
308.809
305.38
301.386
298.444
295.129
292.531
289.707
287.456
285.264
283.481
281.83
280.468
279.151
278.115
276.995
276.298
275.371
274.948
274.198
273.949
273.476
273.263
273.034
272.818
272.687
272.689
272.453
272.651
272.551
272.769
272.689
272.953
273.004
273.322
273.422
273.748
273.885
274.218
274.437
274.757
274.996
275.3
275.548
275.848
276.111
276.405
276.666
276.938
277.211
277.462
277.735
277.973
278.216
278.443
278.66
278.868
279.073
279.266
279.463
279.651
279.846
280.017
280.192
280.332
280.453
280.581
280.711
280.872
280.97
281.063
281.219
281.384
281.484
281.591
281.698
281.815
281.926
282.051
282.153
282.26
282.35
282.44
282.527
282.618
282.699
282.787
282.86
282.936
283.009
283.077
283.152
283.219
283.279
283.343
283.408
283.462
283.522
283.564
283.611
283.664
283.719
283.772
283.825
283.883
283.948
284.017
284.091
284.161
284.236
284.302
284.361
284.412
284.455
284.488
284.524
284.552
284.586
284.618
284.656
284.695
284.74
284.792
284.851
284.907
284.968
285.029
285.091
285.151
285.207
285.259
285.306
285.347
285.393
285.426
285.464
285.5
285.537
285.577
285.621
285.67
285.72
285.775
285.833
285.895
285.958
286.02
286.082
286.142
286.198
286.248
286.305
286.343
286.384
286.424
286.467
286.513
286.562
286.617
286.678
286.742
286.814
286.888
286.965
287.037
287.104
287.163
287.227
287.263
287.303
287.343
287.383
287.428
287.479
287.537
287.603
287.676
287.756
287.839
287.927
288.011
288.096
288.174
288.249
288.316
288.386
288.452
288.517
288.585
288.687
374.715
374.238
373.479
372.778
372.271
371.945
371.774
371.709
371.681
371.688
371.715
371.748
371.779
371.808
371.837
371.867
371.902
371.943
371.989
372.04
372.095
372.159
372.229
372.303
372.379
372.447
372.48
372.46
372.357
372.118
371.681
370.983
369.974
368.596
366.804
364.48
361.576
358.289
354.507
350.263
345.536
340.619
335.651
330.216
324.987
318.982
314.487
309.169
304.725
299.567
295.817
291.651
288.272
284.74
281.859
279.13
276.703
274.532
272.441
270.933
269.339
268.336
267.107
266.389
265.481
264.871
264.363
263.738
263.611
262.934
263.072
262.584
262.692
262.526
262.426
262.518
262.482
262.466
262.733
262.6
262.932
262.865
263.215
263.295
263.665
263.765
264.126
264.286
264.66
264.903
265.27
265.538
265.896
266.203
266.566
266.897
267.261
267.597
267.954
268.313
268.668
269.042
269.39
269.745
270.089
270.429
270.758
271.08
271.393
271.704
272.011
272.323
272.605
272.886
273.127
273.357
273.597
273.859
274.145
274.404
274.612
274.847
275.093
275.276
275.463
275.648
275.843
276.037
276.241
276.424
276.606
276.768
276.931
277.089
277.252
277.403
277.559
277.696
277.837
277.97
278.1
278.233
278.356
278.473
278.592
278.713
278.825
278.942
279.044
279.14
279.24
279.342
279.441
279.537
279.635
279.739
279.847
279.958
280.068
280.182
280.286
280.385
280.474
280.555
280.624
280.696
280.76
280.827
280.893
280.963
281.035
281.112
281.194
281.282
281.369
281.459
281.547
281.636
281.721
281.801
281.877
281.948
282.013
282.083
282.139
282.2
282.262
282.322
282.384
282.45
282.52
282.592
282.667
282.745
282.825
282.906
282.985
283.064
283.141
283.214
283.281
283.354
283.411
283.469
283.525
283.584
283.645
283.709
283.778
283.852
283.93
284.014
284.101
284.191
284.276
284.357
284.429
284.506
284.556
284.607
284.659
284.711
284.765
284.826
284.893
284.968
285.05
285.138
285.231
285.329
285.421
285.515
285.602
285.688
285.762
285.84
285.916
285.99
286.066
286.181
374.549
374.067
373.326
372.678
372.236
371.978
371.871
371.842
371.843
371.879
371.935
371.992
372.046
372.096
372.144
372.191
372.238
372.288
372.338
372.387
372.435
372.482
372.524
372.547
372.546
372.505
372.374
372.108
371.657
370.955
369.927
368.495
366.577
364.119
361.144
357.508
353.193
348.482
343.614
338.186
332.293
325.874
320.511
314.277
308.762
302.283
297.717
292.294
288.058
283.373
279.442
276.038
272.679
270.145
267.359
265.537
263.281
261.986
260.084
259.412
257.966
257.699
256.491
256.487
255.544
255.642
255.031
255.064
254.862
254.692
254.918
254.537
254.933
254.663
254.833
255.058
254.905
255.207
255.442
255.29
255.684
255.58
255.975
256.018
256.382
256.405
256.752
256.853
257.205
257.368
257.711
257.899
258.236
258.494
258.834
259.124
259.469
259.778
260.127
260.474
260.835
261.218
261.588
261.971
262.35
262.734
263.114
263.488
263.861
264.233
264.607
264.985
265.333
265.687
265.99
266.307
266.64
267.002
267.387
267.772
268.098
268.392
268.706
268.975
269.237
269.497
269.767
270.038
270.318
270.577
270.837
271.069
271.306
271.537
271.772
271.997
272.225
272.43
272.64
272.835
273.031
273.224
273.406
273.582
273.759
273.938
274.11
274.285
274.45
274.598
274.748
274.899
275.048
275.19
275.331
275.476
275.625
275.776
275.928
276.083
276.226
276.368
276.497
276.62
276.728
276.838
276.941
277.044
277.147
277.253
277.36
277.47
277.585
277.705
277.824
277.946
278.063
278.18
278.292
278.399
278.502
278.6
278.691
278.787
278.869
278.955
279.046
279.13
279.217
279.308
279.401
279.497
279.594
279.693
279.793
279.894
279.992
280.09
280.185
280.277
280.364
280.455
280.531
280.609
280.684
280.76
280.838
280.919
281.003
281.092
281.186
281.284
281.385
281.488
281.588
281.684
281.772
281.863
281.928
281.993
282.059
282.123
282.189
282.261
282.338
282.423
282.515
282.614
282.717
282.825
282.927
283.031
283.128
283.226
283.31
283.397
283.484
283.567
283.653
283.781
374.372
373.892
373.186
372.602
372.227
372.034
371.975
371.965
371.991
372.052
372.128
372.201
372.268
372.33
372.387
372.441
372.492
372.54
372.583
372.619
372.643
372.653
372.637
372.573
372.438
372.189
371.759
371.078
370.064
368.65
366.769
364.32
361.192
357.325
352.914
348.142
342.512
336.209
330.592
324.135
317.46
309.882
304.398
297.784
292.416
286.125
281.604
276.447
272.533
268.626
264.931
262.393
259.302
257.803
255.274
254.433
252.278
252.005
250.303
250.453
249.159
249.498
248.423
248.992
248.134
248.796
248.165
248.829
248.425
249.009
249.008
249.125
249.585
249.269
249.794
249.864
249.939
250.448
250.518
250.561
250.962
250.839
251.281
251.272
251.632
251.58
251.933
251.962
252.286
252.341
252.637
252.706
252.992
253.132
253.4
253.568
253.829
254.015
254.275
254.504
254.777
255.07
255.351
255.66
255.968
256.293
256.623
256.962
257.308
257.661
258.024
258.392
258.738
259.103
259.412
259.757
260.131
260.536
260.965
261.405
261.795
262.117
262.469
262.8
263.119
263.438
263.765
264.096
264.435
264.756
265.081
265.376
265.677
265.973
266.273
266.565
266.86
267.13
267.406
267.662
267.921
268.173
268.411
268.646
268.879
269.115
269.346
269.578
269.804
270.008
270.208
270.408
270.608
270.8
270.986
271.174
271.364
271.558
271.751
271.949
272.132
272.318
272.488
272.655
272.804
272.955
273.098
273.24
273.381
273.525
273.668
273.814
273.963
274.116
274.27
274.423
274.572
274.718
274.86
274.994
275.126
275.253
275.372
275.496
275.607
275.721
275.84
275.951
276.065
276.181
276.3
276.42
276.542
276.664
276.786
276.908
277.025
277.144
277.259
277.372
277.479
277.59
277.689
277.786
277.882
277.978
278.075
278.173
278.275
278.38
278.49
278.603
278.719
278.837
278.953
279.065
279.169
279.277
279.357
279.439
279.52
279.597
279.677
279.761
279.851
279.946
280.05
280.159
280.274
280.392
280.506
280.62
280.729
280.84
280.934
281.031
281.13
281.224
281.32
281.464
374.207
373.718
373.055
372.538
372.236
372.102
372.074
372.079
372.126
372.206
372.292
372.373
372.447
372.513
372.571
372.621
372.665
372.701
372.724
372.73
372.711
372.655
372.538
372.314
371.935
371.326
370.4
369.082
367.25
364.85
361.865
358.141
353.632
348.267
342.271
336.82
330.11
322.216
316.03
308.686
301.841
293.843
288.246
281.611
276.618
271.011
266.737
262.273
258.795
255.644
252.777
250.863
248.434
247.58
245.55
245.404
243.5
244.038
242.64
243.359
242.33
243.15
242.26
243.287
242.627
243.719
243.229
244.322
243.985
244.979
244.754
245.547
245.787
245.813
246.554
246.347
246.939
247.461
247.258
247.753
248
248.005
248.508
248.432
248.837
248.774
249.168
249.172
249.498
249.487
249.77
249.772
250.04
250.097
250.325
250.387
250.588
250.658
250.844
250.939
251.11
251.283
251.433
251.623
251.794
251.993
252.19
252.403
252.626
252.864
253.114
253.371
253.613
253.881
254.094
254.367
254.687
255.042
255.427
255.841
256.222
256.519
256.844
257.175
257.501
257.833
258.176
258.527
258.888
259.238
259.595
259.928
260.268
260.605
260.947
261.283
261.623
261.941
262.263
262.566
262.872
263.172
263.456
263.741
264.023
264.308
264.591
264.877
265.157
265.414
265.666
265.914
266.162
266.401
266.634
266.864
267.095
267.33
267.565
267.804
268.028
268.257
268.467
268.678
268.868
269.061
269.244
269.427
269.607
269.79
269.97
270.152
270.336
270.523
270.711
270.897
271.078
271.255
271.426
271.59
271.751
271.908
272.057
272.21
272.351
272.494
272.643
272.783
272.924
273.067
273.213
273.358
273.505
273.652
273.796
273.94
274.079
274.219
274.355
274.49
274.619
274.751
274.873
274.992
275.111
275.227
275.343
275.461
275.581
275.704
275.831
275.96
276.091
276.226
276.358
276.487
276.608
276.733
276.831
276.929
277.028
277.121
277.215
277.312
277.415
277.523
277.638
277.76
277.886
278.015
278.142
278.267
278.388
278.512
278.618
278.727
278.838
278.944
279.052
279.211
374.065
373.554
372.938
372.491
372.259
372.173
372.162
372.185
372.249
372.339
372.43
372.512
372.585
372.646
372.696
372.734
372.759
372.769
372.759
372.717
372.623
372.449
372.145
371.636
370.851
369.671
368.012
365.808
362.911
359.268
354.988
349.917
344.082
337.388
329.833
323.789
316.274
307.287
300.572
292.551
285.96
278.28
272.707
266.622
262.089
257.547
253.668
250.201
247.294
244.71
242.888
241.19
239.974
238.938
238.038
237.832
236.824
237.714
236.723
237.874
237.012
238.325
237.663
239.116
238.629
240.118
239.72
241.167
240.875
242.163
241.916
243.067
242.937
243.675
244.383
244.207
244.981
245.431
245.294
246.024
246.034
246.407
246.945
246.809
247.289
247.265
247.704
247.698
248.052
248.015
248.321
248.315
248.591
248.621
248.845
248.86
249.05
249.07
249.234
249.267
249.398
249.499
249.579
249.709
249.79
249.909
250.002
250.116
250.232
250.358
250.489
250.613
250.719
250.824
250.884
251.029
251.222
251.443
251.692
251.958
252.236
252.415
252.624
252.856
253.1
253.36
253.638
253.928
254.238
254.541
254.863
255.176
255.499
255.821
256.154
256.485
256.823
257.148
257.477
257.794
258.115
258.431
258.737
259.045
259.355
259.671
259.991
260.313
260.632
260.93
261.223
261.508
261.795
262.073
262.347
262.615
262.884
263.155
263.426
263.701
263.962
264.229
264.475
264.727
264.957
265.19
265.412
265.633
265.851
266.071
266.289
266.506
266.724
266.944
267.166
267.384
267.597
267.803
268.003
268.198
268.389
268.576
268.755
268.938
269.109
269.282
269.46
269.629
269.799
269.97
270.142
270.314
270.486
270.658
270.824
270.991
271.152
271.314
271.471
271.629
271.78
271.935
272.081
272.222
272.365
272.502
272.639
272.776
272.916
273.057
273.202
273.348
273.496
273.646
273.795
273.942
274.081
274.223
274.341
274.457
274.574
274.683
274.792
274.904
275.021
275.142
275.27
275.404
275.542
275.684
275.824
275.961
276.095
276.232
276.351
276.472
276.597
276.715
276.835
277.012
373.936
373.405
372.839
372.468
372.292
372.241
372.245
372.285
372.36
372.453
372.543
372.62
372.684
372.733
372.764
372.779
372.774
372.747
372.682
372.557
372.328
371.943
371.314
370.341
368.939
366.946
364.321
361.022
356.879
351.823
346.078
339.862
332.818
325.071
316.232
309.105
301.151
291.786
284.734
276.635
270.491
263.823
258.596
253.715
249.675
246.103
242.744
240.111
237.839
235.93
234.956
233.701
233.709
232.319
232.976
232.123
232.954
232.946
232.742
234.035
233.207
235.047
234.444
236.278
235.788
237.611
237.231
238.971
238.716
240.267
240.042
241.432
241.18
242.35
242.723
242.935
243.82
243.93
244.235
245.025
244.944
245.572
246.09
245.961
246.53
246.54
247.005