/*--------------------------------*- C++ -*----------------------------------*\
| =========                 |                                                 |
| \\      /  F ield         | OpenFOAM: The Open Source CFD Toolbox           |
|  \\    /   O peration     | Version:  2312                                  |
|   \\  /    A nd           | Website:  www.openfoam.com                      |
|    \\/     M anipulation  |                                                 |
\*---------------------------------------------------------------------------*/
FoamFile
{
    version     2.0;
    format      ascii;
    arch        "LSB;label=32;scalar=64";
    class       volScalarField;
    location    "0.002";
    object      k;
}
// * * * * * * * * * * * * * * * * * * * * * * * * * * * * * * * * * * * * * //

dimensions      [0 2 -2 0 0 0 0];

internalField   nonuniform List<scalar> 
48128
(
0.634014
1.60513
2.26252
2.09932
1.96975
1.5845
1.61982
16.9541
72.7678
171.626
279.071
382.781
479.967
569.773
653.096
731.415
806.119
878.069
947.938
1016.49
1084.22
1150.95
1216.66
1281.43
1345.37
1408.74
1471.83
1535.1
1598.97
1664.26
1729.1
1793.98
1860.29
1928.54
1997.27
2067.46
2141.01
2214.96
2289.44
2360.88
2430.81
2500.96
2574.61
2646.16
2714.25
2773.74
2838.01
2895.06
2941.47
2964.11
2983.82
2984.9
2989.08
2971.79
3004.81
3051.35
3099.87
3135.65
3162.45
3176.85
3183.93
3183.23
3179.24
3171.02
3160.21
3144.86
3125.94
3101.49
3072.38
3040.1
3006.44
2973.44
2939.63
2905.63
2871.91
2836.64
2802.45
2767.22
2732.43
2696.51
2662.98
2628.92
2597.52
2565.45
2535.21
2504.41
2476.2
2447.76
2421.86
2396.05
2372.06
2348.65
2326.5
2305.45
2285.34
2266.54
2248.44
2231.63
2215.16
2199.99
2185.31
2171.78
2158.85
2146.82
2135.39
2124.71
2114.64
2105.09
2096.08
2087.51
2079.41
2071.86
2064.77
2057.9
2051.5
2045.26
2038.82
2032.99
2025.76
2025.93
2024.03
2019.22
2017.02
2013.8
2009.77
2005.42
2001.07
1996.75
1992.83
1989.49
1986.5
1983.72
1981.11
1978.5
1976.08
1973.82
1971.96
1970.21
1968.6
1967.03
1965.44
1964.06
1962.64
1961.25
1959.81
1958.3
1956.77
1954.92
1954.68
1953.88
1952.47
1951.08
1949.45
1947.7
1945.82
1943.73
1941.56
1939.28
1936.89
1934.56
1932.19
1929.99
1927.89
1925.96
1924.14
1922.45
1921.01
1919.75
1918.72
1917.66
1917
1916.26
1915.41
1914.42
1913.34
1912.09
1910.65
1909.01
1907.17
1905.16
1903.07
1901
1899.13
1897.46
1896.12
1894.83
1893.87
1893.22
1892.61
1891.96
1891.26
1890.48
1889.54
1888.42
1887.1
1885.59
1883.9
1882.07
1880.19
1878.28
1876.69
1875
1873.82
1872.79
1871.97
1871.26
1870.54
1869.78
1868.96
1868
1866.89
1865.57
1864.06
1862.38
1860.57
1858.83
1857.13
1855.41
1854.21
1853.03
1852.12
1851.38
1850.62
1849.82
1848.93
1847.91
1846.71
1845.33
1843.79
1842.08
1840.31
1838.47
1836.49
1834.81
1833.4
1831.88
1830.7
1829.72
1828.69
1827.19
3.9369
1.90835
0.941274
0.806607
1.64744
5.45095
18.5865
57.9888
135.773
248.769
375.1
504.63
637.027
770.104
903.825
1038.32
1175.23
1316.31
1463.34
1618.31
1780.85
1953.52
2135.28
2328.1
2531.21
2745.94
2971.27
3208.95
3454.88
3718.53
3989.38
4266.25
4549.97
4843.72
5141.47
5437.79
5734.71
6033.33
6333.38
6623.45
6901.26
7169.2
7432.73
7679.55
7908.91
8111.39
8319.13
8513.09
8692.92
8810.74
8912.36
8975.7
9030.09
9040.34
9041.5
9023.27
8988.33
8929.49
8850.53
8749.69
8632.06
8500.81
8360.47
8212.52
8060.09
7900.74
7736.75
7566.92
7399.77
7232.72
7065.1
6900.49
6734
6567.93
6404.52
6239.5
6078.84
5919.21
5763.88
5609.96
5462.39
5318.36
5180.58
5046.36
4917.9
4792.65
4673.24
4557.51
4446.69
4339.7
4236.92
4138.5
4043.79
3953.84
3867.04
3784.94
3706.02
3631.27
3559.47
3491.45
3425.73
3363.55
3303.68
3247.25
3192.95
3141.78
3092.73
3046.44
3002.23
2960.37
2920.41
2882.51
2846.56
2812.54
2780.12
2749.11
2717.71
2686.86
2654.84
2623.99
2600.75
2576.18
2550.57
2532.02
2513.37
2495.48
2478.7
2462.18
2446.06
2430.48
2415.52
2401.16
2387.29
2373.64
2360.18
2346.98
2334.17
2321.9
2310.18
2298.94
2288.02
2277.62
2267.44
2257.73
2247.88
2237.78
2227.57
2217.27
2206.76
2198.18
2189.67
2181.02
2173.66
2166.49
2160.17
2154.09
2148.47
2143.03
2137.86
2132.74
2127.95
2123.16
2118.33
2113.53
2108.68
2103.75
2098.86
2093.98
2089.23
2084.41
2079.8
2075.61
2071.77
2067.86
2064.64
2061.43
2058.73
2056.31
2054.17
2052.23
2050.25
2048.17
2045.86
2043.29
2040.52
2037.53
2034.32
2031.15
2027.9
2024.98
2022.02
2019.51
2017.19
2015.18
2013.39
2011.92
2010.59
2009.37
2008.06
2006.6
2004.92
2003.05
2000.92
1998.64
1996.22
1993.86
1991.51
1989.29
1987.34
1985.54
1983.94
1982.65
1981.53
1980.53
1979.49
1978.36
1977.1
1975.64
1973.94
1972.13
1970.21
1968.28
1966.38
1964.6
1962.85
1961.34
1959.88
1958.66
1957.52
1956.65
1955.74
1954.92
1953.87
1952.56
1951.13
1949.55
1947.81
1945.99
1944.06
1941.42
7.63419
4.30049
2.31964
3.04442
10.7114
31.448
80.5573
178.477
336.703
545.52
782.183
1025.98
1269.68
1510.14
1746.1
1977.71
2207.14
2436.89
2669.96
2910.97
3158.61
3417.23
3685.61
3966.2
4258.83
4565.05
4884.79
5218.17
5559.36
5913.1
6275.71
6648.29
7027.17
7412.14
7806.06
8210.79
8615.03
9016.77
9421.45
9816.08
10189.2
10537.1
10874.1
11189.9
11485.8
11734.9
11980.6
12199.3
12402.8
12525.5
12614.6
12655
12671.8
12639.5
12576.8
12480.8
12361.8
12217.6
12051.9
11862.6
11654.9
11432
11198.7
10957.2
10711.2
10459.1
10203.7
9944.13
9684.18
9425.7
9167.85
8915.67
8662.85
8414.46
8171.68
7931.39
7697.7
7469.61
7248.31
7032.09
6823.99
6622.57
6429.42
6243.15
6064.45
5891.08
5725.18
5564.67
5410.83
5262.54
5120.18
4983.78
4852.68
4727.96
4607.64
4493.58
4383.72
4279.28
4178.77
4083.1
3990.57
3902.65
3817.76
3737.36
3659.7
3586.14
3515.28
3448
3383.42
3321.91
3262.91
3206.65
3152.89
3101.71
3052.59
3005.88
2958.66
2913.14
2866.83
2820.71
2783.22
2744.76
2704.97
2671.94
2640.91
2610.99
2582.52
2554.83
2527.83
2501.84
2476.7
2452.51
2429.18
2406.32
2383.99
2362.09
2340.83
2320.22
2300.45
2281.22
2262.73
2244.72
2227.37
2210.42
2193.93
2177.36
2161.03
2144.81
2128.42
2113.83
2099.48
2084.98
2071.75
2059.07
2047.23
2036.05
2025.28
2015.05
2005.11
1995.45
1986.1
1976.93
1967.92
1959.03
1950.24
1941.42
1932.74
1924.14
1915.68
1907.38
1899.14
1891.6
1884.24
1877.15
1870.47
1864.15
1858.38
1852.97
1847.85
1843.17
1838.51
1833.9
1829.22
1824.46
1819.64
1814.71
1809.63
1804.62
1799.59
1794.84
1790.07
1785.81
1781.64
1777.84
1774.31
1771.13
1768.17
1765.46
1762.74
1759.96
1757.09
1754.11
1750.92
1747.65
1744.28
1741
1737.71
1734.56
1731.65
1728.89
1726.35
1724.1
1722.11
1720.2
1718.42
1716.57
1714.72
1712.71
1710.47
1708.21
1705.84
1703.46
1701.13
1698.92
1696.76
1694.79
1692.91
1691.25
1689.69
1688.44
1687.19
1686.09
1684.92
1683.5
1682.01
1680.44
1678.71
1676.88
1674.95
1672.26
11.221
7.58466
6.06844
14.4451
40.0678
95.7494
208.954
403.28
676.722
1000.38
1337.58
1663.1
1973.66
2270.81
2556.65
2835.23
3110.65
3385.94
3664.4
3951.55
4246.82
4554.25
4874.22
5209.35
5560.69
5928.75
6312.87
6713.46
7126.44
7553.15
7993.54
8449.04
8913.73
9383.94
9863.35
10361.7
10858.5
11343.4
11830.7
12310.9
12763.2
13171.4
13555.8
13910.8
14244.7
14514.2
14765.9
14976
15163
15258.9
15304.9
15292.7
15244.5
15141.6
14997.4
14814
14603.6
14367.5
14110.8
13833.2
13539.9
13233.5
12918.2
12596.5
12271.9
11945.4
11619.2
11293.2
10968.8
10650.2
10334.7
10027.9
9723.14
9426.6
9137.56
8856.16
8581.9
8317.58
8061.65
7813.74
7574.39
7343.85
7122.2
6910.05
6705.96
6509.31
6320.43
6138.31
5963.45
5795.3
5633.86
5479.26
5330.82
5189.4
5053.01
4923.35
4798.54
4679.56
4565.2
4455.9
4350.22
4249.41
4152.14
4059.63
3970.24
3885.2
3803.22
3725.11
3650.02
3578.31
3509.34
3443.48
3380.23
3319.96
3261.94
3206.7
3150.9
3097.37
3043.23
2988.1
2943.35
2897.83
2850.47
2809.96
2772.09
2735.33
2699.88
2665.46
2631.93
2599.65
2568.36
2538.26
2509.21
2480.76
2453.01
2425.83
2399.39
2373.72
2349.04
2324.96
2301.8
2279.14
2257.36
2236.02
2215.32
2194.62
2174.29
2154.21
2133.91
2115.43
2097.39
2079.16
2062.14
2045.83
2030.31
2015.62
2001.36
1987.76
1974.5
1961.61
1949.07
1936.75
1924.68
1912.8
1901.14
1889.54
1878.15
1866.95
1855.92
1845.22
1834.44
1824.58
1814.78
1805.41
1796.34
1787.75
1779.61
1771.91
1764.62
1757.67
1750.92
1744.31
1737.75
1731.12
1724.65
1718.12
1711.51
1704.95
1698.59
1692.35
1686.31
1680.54
1675
1669.81
1664.9
1660.32
1656
1651.93
1647.96
1643.99
1640
1635.95
1631.8
1627.63
1623.42
1619.29
1615.23
1611.31
1607.64
1604.1
1600.79
1597.72
1594.93
1592.2
1589.67
1587.09
1584.57
1581.94
1579.14
1576.36
1573.51
1570.69
1567.92
1565.3
1562.73
1560.37
1558.08
1556.01
1554
1552.3
1550.63
1549.14
1547.64
1545.97
1544.27
1542.53
1540.69
1538.78
1536.76
1533.95
14.7079
14.7218
18.4213
41.5733
96.8656
208.192
410.075
711.867
1085.98
1467.76
1833.64
2184.38
2522.21
2848.53
3165.61
3476.6
3785.2
4094.22
4407.38
4730.79
5064.74
5413.28
5778.25
6162.63
6567.41
6992.63
7438.39
7906.16
8391.81
8893.14
9410.49
9948.56
10500.4
11055.2
11613.9
12197.7
12783.2
13340.6
13893.9
14440.9
14955.2
15406.6
15812.8
16175.3
16510.7
16766.3
16982.7
17139.6
17257.1
17280.7
17240
17136.1
16976.7
16764.5
16504.4
16208.5
15883.7
15541.6
15182.5
14820.5
14448.4
14070.7
13685.5
13301.3
12914.5
12536.8
12160.8
11793.6
11430.5
11078.5
10733
10399.3
10070.4
9753.66
9445.22
9149.52
8860.42
8585.14
8318.66
8062.08
7813.85
7575.7
7345.91
7127.9
6917.63
6716.97
6523.46
6337.86
6159.08
5987.73
5822.9
5665.21
5513.81
5369.25
5229.78
5096.76
4968.78
4846.5
4729.11
4616.54
4507.73
4403.55
4303.02
4207.02
4114.21
4025.56
3940.05
3858.35
3779.72
3704.5
3632
3562.63
3495.72
3432.02
3370.47
3311.78
3252.55
3195.74
3138.4
3079.02
3031.05
2982.81
2932.51
2888.49
2847.21
2807.09
2768.07
2730.22
2693.4
2657.81
2623.24
2589.95
2557.79
2526.29
2495.6
2465.51
2436.19
2407.72
2380.25
2353.47
2327.65
2302.37
2278.08
2254.26
2231.14
2208.12
2185.51
2163.22
2140.63
2119.84
2099.71
2079.37
2060.14
2041.65
2024.01
2007.2
1990.88
1975.26
1960.02
1945.19
1930.69
1916.43
1902.43
1888.64
1875.13
1861.73
1848.59
1835.71
1823.02
1810.75
1798.36
1787.02
1775.66
1764.83
1754.22
1744.15
1734.47
1725.23
1716.46
1707.97
1699.76
1691.69
1683.78
1675.81
1668.11
1660.37
1652.64
1644.93
1637.58
1630.25
1623.29
1616.42
1609.89
1603.71
1597.8
1592.2
1586.88
1581.78
1576.85
1571.92
1567.06
1562.15
1557.19
1552.29
1547.38
1542.57
1537.87
1533.32
1529.05
1524.89
1520.98
1517.29
1513.89
1510.53
1507.4
1504.21
1501.13
1497.97
1494.66
1491.41
1488.11
1484.86
1481.69
1478.69
1475.78
1473.09
1470.46
1468.04
1465.69
1463.6
1461.57
1459.7
1457.91
1455.97
1454
1452.08
1450.07
1448.02
1445.9
1442.93
18.1682
31.4119
42.2213
87.3582
185.387
369.444
664.105
1049.26
1448.96
1837.6
2214.32
2579.91
2935.45
3281.92
3621.55
3957.17
4292.03
4628.79
4971.48
5326.26
5694.59
6080.91
6487.69
6917.95
7373.72
7854.91
8361.42
8896.72
9456.01
10032.3
10625.8
11243.8
11881.7
12518.4
13149.4
13804.8
14469.6
15085.7
15680
16260.9
16802.4
17261.1
17653.3
17977.6
18256.4
18437.4
18548.1
18576.9
18537.9
18423.7
18235.3
17991.4
17683.8
17337.9
16940.1
16521
16074.8
15628.5
15168.5
14717.9
14256.3
13807.6
13350.5
12916.3
12476.8
12069.7
11662.9
11283.1
10910.8
10558.1
10217.8
9895.08
9582.76
9286.44
8997.08
8726.67
8458.96
8209.14
7965.56
7733.69
7507.06
7291.59
7081.34
6883.65
6689.9
6507.26
6329.47
6160.36
5995.7
5838.89
5686.85
5541.78
5401.84
5268.21
5139.04
5015.26
4896.02
4781.63
4671.8
4566.06
4463.83
4365.41
4270.31
4179
4090.63
4005.82
3923.92
3845.35
3769.65
3697
3626.86
3559.47
3494.22
3432.09
3371.67
3313.93
3255.68
3199.8
3143.41
3084.38
3036.42
2988.9
2939.82
2895.02
2853.15
2812.75
2773.18
2734.88
2697.5
2661.21
2625.87
2591.79
2558.75
2526.43
2494.91
2463.97
2433.79
2404.39
2375.94
2348.24
2321.43
2295.23
2269.99
2245.24
2221.22
2197.36
2173.92
2150.81
2127.31
2105.49
2084.49
2063.27
2043.04
2023.52
2004.89
1987.02
1969.78
1953.15
1937
1921.22
1905.77
1890.52
1875.56
1860.76
1846.27
1831.89
1817.8
1803.99
1790.39
1777.25
1763.96
1751.79
1739.57
1727.95
1716.46
1705.56
1694.98
1684.85
1675.19
1665.73
1656.63
1647.58
1638.82
1629.96
1621.45
1612.9
1604.46
1596
1587.99
1579.95
1572.35
1564.79
1557.63
1550.77
1544.19
1537.89
1531.87
1526.07
1520.45
1514.86
1509.35
1503.84
1498.27
1492.86
1487.41
1482.1
1476.91
1471.89
1467.15
1462.55
1458.19
1454.07
1450.22
1446.44
1442.85
1439.24
1435.74
1432.16
1428.46
1424.83
1421.16
1417.56
1414.05
1410.74
1407.54
1404.58
1401.71
1399.03
1396.42
1394.03
1391.72
1389.55
1387.52
1385.34
1383.14
1381.05
1378.89
1376.71
1374.48
1371.38
23.4293
56.8652
78.0684
153.722
306.375
566.624
933.798
1336.1
1733.36
2122.22
2502.35
2875.01
3240.83
3600.87
3957.13
4311.85
4667.68
5027.75
5395.89
5777.95
6177.18
6597.83
7042.76
7515.79
8020.57
8556.4
9121.81
9723.06
10354.4
11005.4
11671.9
12362.5
13079.4
13792.1
14484.3
15187
15904.9
16559.4
17155
17718.7
18223.5
18615
18919.8
19119.9
19241.7
19279.2
19211.9
19053.6
18799.7
18484.7
18052.4
17561.1
17006.6
16441.6
15845
15249.7
14649.3
14065.5
13504.8
12971.5
12453.7
11964.2
11476.7
11038.8
10595
10212.7
9826.71
9492.99
9164.31
8868.42
8587.91
8327.1
8082.55
7854.56
7632.74
7434.65
7233.99
7054.54
6873.59
6707.01
6538.58
6383.64
6227.04
6084.61
5940.54
5808.64
5675.43
5551.46
5426.71
5309.39
5192.71
5081.93
4972.94
4867.45
4763.28
4662.65
4564.73
4469.9
4378.84
4290.24
4204.67
4121.31
4040.85
3963.04
3887.6
3814.52
3743.83
3675.35
3609.36
3545.41
3483.72
3423.84
3365.79
3310.16
3255.69
3203.53
3151.12
3100.82
3049.86
2996.15
2951.41
2907.87
2863.71
2821.26
2781.65
2744.03
2706.8
2671
2635.68
2601.29
2567.66
2535.13
2503.44
2472.58
2442.34
2412.68
2383.64
2355.2
2327.65
2300.76
2274.67
2249.2
2224.57
2200.4
2176.98
2153.74
2130.93
2108.34
2085.33
2063.73
2043.01
2022.1
2002.01
1982.53
1963.92
1945.98
1928.85
1912.09
1896.04
1880.16
1864.69
1849.32
1834.28
1819.31
1804.66
1790.06
1775.79
1761.76
1747.95
1734.6
1721.07
1708.65
1696.23
1684.4
1672.65
1661.48
1650.63
1640.14
1630.11
1620.22
1610.74
1601.2
1592.05
1582.77
1573.84
1564.9
1556.15
1547.36
1539.02
1530.64
1522.71
1514.87
1507.38
1500.15
1493.21
1486.51
1480.08
1473.9
1467.86
1461.92
1456.01
1450.17
1444.26
1438.53
1432.74
1427.12
1421.62
1416.3
1411.27
1406.4
1401.76
1397.38
1393.25
1389.22
1385.35
1381.49
1377.72
1373.89
1369.94
1366.07
1362.15
1358.28
1354.52
1350.99
1347.6
1344.45
1341.42
1338.57
1335.8
1333.21
1330.73
1328.36
1326.15
1323.8
1321.44
1319.23
1316.96
1314.7
1312.38
1309.2
29.7848
90.2522
127.558
241.057
452.303
776.066
1167.39
1561.43
1951.78
2335.48
2713.56
3087.34
3457.66
3825.95
4193.59
4562.28
4934.29
5313.15
5702.49
6107.33
6533.24
6984.1
7463.77
7976.3
8527.41
9116.04
9737.31
10400.3
11100.7
11822.9
12557
13308
14086.6
14861.3
15596.4
16306.7
17022.2
17664.1
18187.3
18647.7
19016.9
19257.5
19378.8
19361
19237.3
18992.9
18570.3
18039.2
17403.4
16741.4
16004
15232
14445.8
13669.5
12945.3
12212.4
11556.2
10886.5
10321.9
9752.67
9271.09
8808.66
8398.86
8026
7666.79
7366.97
7066.75
6825.46
6582.53
6380.74
6187.86
6015.53
5859.9
5715.59
5580.5
5465.72
5347.44
5250.78
5151.64
5068.8
4981.92
4906.61
4827.92
4760.1
4689.03
4626.81
4561.75
4502.03
4440.55
4382.27
4322.87
4265.16
4206.11
4146.38
4085.41
4024.72
3963.88
3903.33
3844.74
3786.12
3729.2
3672.53
3616.69
3561.33
3506.88
3452.98
3400.43
3348.37
3298.24
3248.56
3200.86
3153.51
3108.02
3063.55
3019.92
2977.84
2936.28
2895.97
2854.65
2811.24
2772.42
2736.33
2699.96
2663.44
2628.94
2596.93
2564.83
2534.23
2503.48
2473.65
2444.11
2415.51
2387.44
2360.32
2333.44
2307.17
2281.19
2255.66
2230.88
2206.51
2182.88
2159.76
2137.23
2115.22
2093.87
2072.71
2051.91
2031.14
2010.05
1989.87
1970.64
1951.26
1932.42
1914.05
1896.43
1879.42
1863.31
1847.37
1832.27
1817.19
1802.6
1787.94
1773.68
1759.32
1745.33
1731.27
1717.55
1704
1690.67
1677.75
1664.7
1652.59
1640.6
1629.12
1617.74
1606.81
1596.22
1585.89
1575.98
1566.19
1556.77
1547.31
1538.18
1528.97
1519.98
1511.14
1502.46
1493.73
1485.41
1477.1
1469.18
1461.37
1453.87
1446.6
1439.59
1432.82
1426.28
1420
1413.85
1407.82
1401.8
1395.9
1389.91
1384.07
1378.2
1372.47
1366.86
1361.43
1356.29
1351.35
1346.61
1342.12
1337.9
1333.79
1329.82
1325.88
1322.02
1318.1
1314.06
1310.09
1306.05
1302.05
1298.17
1294.52
1291.04
1287.8
1284.7
1281.78
1278.96
1276.28
1273.72
1271.26
1268.97
1266.55
1264.1
1261.84
1259.53
1257.24
1254.91
1251.72
37.3436
129.503
189.926
345.056
609.114
967.548
1351.11
1734.24
2113.55
2488.18
2859.87
3230
3600.1
3971.68
4345.56
4723.03
5106.49
5499.3
5905.03
6327.85
6775.63
7253.07
7764.29
8312.71
8907.04
9546.24
10219.1
10939
11702.1
12487.7
13278.4
14071.3
14877.8
15676.2
16414.6
17069.4
17696.7
18231.1
18583.6
18840.8
18962
18887.5
18639.1
18232.4
17656.2
16998.9
16171.5
15248.5
14282.1
13308.1
12409.7
11490.4
10700.7
9894.3
9226.89
8538.36
7968.13
7380.17
6916.24
6440.53
6073.81
5703.06
5411.03
5126.5
4882.72
4668.83
4470.58
4313.06
4157.06
4037.07
3919.93
3822.95
3737.22
3658.69
3592.03
3537.12
3481.74
3443.23
3403.05
3376.15
3347.66
3326.78
3304.69
3290.25
3273.94
3262.87
3250.6
3241.28
3231.3
3221.76
3211.09
3199.86
3187.34
3173.94
3159.17
3143.36
3126.11
3107.64
3088.43
3068.33
3047.66
3026.17
3003.55
2979.36
2953.67
2926.68
2898.85
2870.36
2841.8
2812.92
2784.55
2755.79
2727.53
2699.06
2670.73
2642.97
2616.18
2589.03
2560.75
2530.93
2501.86
2475.66
2448.99
2421.88
2395.5
2371.21
2346.97
2323.72
2300.22
2277.24
2254.14
2231.69
2209.45
2187.98
2166.54
2145.52
2124.51
2103.75
2083.47
2063.37
2043.81
2024.63
2005.76
1987.37
1969.42
1951.79
1934.27
1916.69
1898.9
1881.41
1864.75
1848.01
1831.55
1815.35
1799.75
1784.67
1770.4
1756.3
1742.93
1729.57
1716.62
1703.58
1690.84
1677.98
1665.32
1652.64
1640.12
1627.82
1615.6
1603.81
1591.93
1580.73
1569.75
1559.16
1548.73
1538.58
1528.73
1519.09
1509.78
1500.61
1491.7
1482.86
1474.16
1465.54
1456.89
1448.62
1440.36
1432.1
1424.16
1416.29
1408.73
1401.29
1394.1
1387.1
1380.37
1373.81
1367.48
1361.38
1355.41
1349.57
1343.73
1338.02
1332.24
1326.54
1320.83
1315.22
1309.73
1304.41
1299.36
1294.51
1289.86
1285.45
1281.3
1277.29
1273.39
1269.55
1265.77
1261.94
1257.99
1254.07
1250.09
1246.1
1242.23
1238.59
1235.13
1231.91
1228.85
1225.96
1223.19
1220.54
1218.02
1215.57
1213.3
1210.91
1208.47
1206.25
1203.97
1201.74
1199.46
1196.37
50.3887
172.787
261.282
457.256
760.694
1121.51
1492.02
1861.16
2226.46
2588.96
2950.68
3313.23
3678.74
4048.88
4424.1
4805.46
5195.34
5597.07
6014.02
6450.55
6916.02
7416.79
7956.91
8537.98
9172.27
9858.85
10581
11350.3
12163.7
12995.5
13817.7
14617.2
15402.2
16151
16815.9
17336.2
17778.5
18079.5
18079.2
17940.5
17634.1
17173.9
16472.7
15626.9
14624.6
13588.3
12513.1
11425.8
10445.6
9448.31
8638.15
7807.78
7138.18
6445.4
5905.75
5352.12
4920.25
4479.64
4144.22
3805.24
3552.51
3296.18
3107.15
2915.95
2770.76
2630.72
2519.58
2421.85
2337.8
2271.17
2209.37
2161.46
2120.63
2084.64
2060.92
2039.82
2025.64
2018.7
2011.07
2011.81
2014.01
2019.31
2026.58
2037.05
2048.69
2062.4
2077
2093.04
2109.37
2126.59
2141.67
2157.12
2171.56
2186.49
2199.72
2213.02
2224.85
2235
2244.91
2252.92
2260.65
2266.61
2270.97
2273.72
2274.49
2273.71
2271.82
2268.67
2264.44
2259.19
2253.21
2246.27
2238.65
2230.08
2220.59
2210.65
2200.62
2190.04
2178.44
2164.62
2149.44
2134.82
2119.88
2104.45
2088.84
2074.16
2059.76
2045.6
2031.22
2016.68
2001.9
1987.28
1972.61
1958.28
1943.86
1929.58
1915.16
1900.75
1886.41
1872.11
1858.03
1844.11
1830.33
1816.77
1803.52
1790.56
1777.52
1764.39
1751.01
1737.52
1724.46
1711.35
1698.33
1685.3
1672.72
1660.49
1648.9
1637.51
1626.67
1615.85
1605.31
1594.7
1584.21
1573.64
1563.04
1552.5
1541.88
1531.5
1521.09
1511.07
1500.97
1491.32
1481.91
1472.76
1463.77
1454.95
1446.37
1437.91
1429.69
1421.63
1413.71
1405.9
1398.13
1390.48
1382.72
1375.36
1367.94
1360.54
1353.37
1346.29
1339.47
1332.73
1326.19
1319.79
1313.64
1307.62
1301.79
1296.16
1290.67
1285.29
1279.9
1274.65
1269.33
1264.06
1258.76
1253.52
1248.38
1243.38
1238.64
1234.08
1229.72
1225.58
1221.67
1217.94
1214.3
1210.72
1207.21
1203.63
1199.95
1196.25
1192.49
1188.69
1184.97
1181.46
1178.15
1175.07
1172.17
1169.43
1166.82
1164.31
1161.94
1159.62
1157.48
1155.22
1152.92
1150.82
1148.68
1146.58
1144.43
1141.55
65.8402
217.809
336.755
569.709
887.697
1240.68
1595.53
1947.88
2296.96
2644.73
2993.53
3344.79
3702.06
4066.64
4438.71
4819.14
5210.41
5616.22
6040.2
6487.12
6967.01
7488.65
8056.29
8668.26
9339.11
10070.3
10838.5
11641.9
12481.7
13332.9
14145.4
14882.6
15577.6
16202
16693.8
16932.9
16997.2
16905.8
16531.4
15943.6
15181.3
14315.2
13250.3
12107.7
10969
9834.25
8832.87
7838.02
6986.3
6145.77
5473.07
4824.95
4309.82
3804.6
3413.51
3034.08
2744.25
2462.2
2246.83
2041.16
1886.44
1736.69
1625.71
1516.63
1438.01
1358
1302.9
1246.08
1206.03
1168
1135.9
1112.26
1090.24
1074.15
1064.87
1055.35
1054.36
1054.55
1056.72
1061.86
1069.39
1079.88
1092.17
1106.88
1123.01
1141.22
1160.86
1182.43
1205.09
1229.33
1253.93
1279.69
1305.28
1331.72
1357.24
1383.37
1408.69
1433.58
1458.5
1482.19
1506.2
1528.25
1549.42
1569.19
1588.56
1606.03
1622.79
1637.21
1651.24
1662.98
1674.67
1684.16
1692.98
1700.18
1706.31
1712.27
1718.34
1724.1
1729.23
1732.46
1732.24
1731.29
1729.48
1726.7
1723.25
1719.51
1715.61
1711.63
1707.25
1702.49
1697.16
1691.5
1685.58
1679.55
1673.33
1666.88
1660.05
1652.97
1645.6
1638.05
1630.4
1622.61
1614.86
1607.06
1599.47
1591.96
1584.33
1576.52
1568.32
1559.87
1551.34
1542.7
1533.91
1524.95
1516.16
1507.52
1499.37
1491.37
1483.76
1476.13
1468.68
1461.15
1453.6
1445.93
1438.15
1430.3
1422.33
1414.43
1406.49
1398.78
1391.01
1383.52
1376.2
1369.05
1361.98
1354.98
1348.15
1341.35
1334.72
1328.18
1321.72
1315.34
1308.96
1302.67
1296.27
1290.17
1284.01
1277.86
1271.86
1265.91
1260.18
1254.48
1248.94
1243.46
1238.19
1233
1227.98
1223.11
1218.38
1213.73
1209.08
1204.54
1199.95
1195.35
1190.73
1186.12
1181.57
1177.13
1172.9
1168.85
1164.97
1161.28
1157.8
1154.52
1151.32
1148.18
1145.11
1141.97
1138.73
1135.43
1132.06
1128.62
1125.2
1121.98
1118.96
1116.14
1113.52
1111.05
1108.72
1106.48
1104.37
1102.29
1100.39
1098.38
1096.33
1094.46
1092.54
1090.68
1088.76
1086.22
82.056
263.14
412.054
667.756
988.912
1328.47
1666.15
1999.67
2330.47
2660.79
2994.39
3334.28
3681.49
4037.33
4402.18
4776.94
5164.64
5570.02
5997.47
6452.05
6943.97
7485.11
8080.75
8724.32
9428.66
10195.1
10999.5
11818.8
12646.6
13464.6
14214.1
14821.4
15318.9
15677.2
15866.6
15720.1
15383
14907.4
14141.6
13175.1
12062.1
10931
9798.53
8646.05
7620.4
6588.94
5737.77
4945.67
4274.58
3682.4
3171.03
2747.19
2386.68
2079.87
1827.43
1606.08
1433.91
1277.23
1158.28
1046.65
963.994
886.139
829.419
774.159
735.073
695.142
667.753
638.649
619.443
598.924
583.773
570.545
557.447
549.326
541.696
536.413
534.637
532.262
532.811
534.327
537.033
541.482
547.142
554.323
562.669
572.581
583.739
596.498
610.429
625.967
642.6
660.837
680.054
700.585
721.8
744.06
766.914
790.663
815.043
840.184
866.081
892.173
918.709
944.656
970.968
996.22
1021.67
1045.32
1069.15
1091.03
1113.07
1133.17
1152.67
1170.66
1188.5
1206.49
1224.55
1242.7
1259.62
1275.85
1288.5
1298.99
1308.45
1316.69
1323.54
1330.06
1335.7
1341.49
1346.28
1351.04
1354.76
1358.08
1360.79
1363.49
1365.62
1367.68
1368.99
1370.03
1370.12
1369.86
1369.29
1368.35
1367.13
1365.75
1364.28
1362.75
1361.04
1359.03
1356.52
1353.53
1350.19
1346.51
1342.49
1338.14
1333.64
1329.08
1324.82
1320.67
1316.75
1312.79
1308.86
1304.83
1300.72
1296.43
1291.95
1287.3
1282.47
1277.55
1272.54
1267.6
1262.61
1257.72
1252.93
1248.22
1243.5
1238.75
1234.07
1229.35
1224.7
1220.06
1215.47
1210.88
1206.28
1201.71
1197.05
1192.56
1188.04
1183.49
1179
1174.54
1170.22
1165.89
1161.65
1157.4
1153.31
1149.24
1145.32
1141.48
1137.77
1134.12
1130.47
1126.9
1123.28
1119.63
1115.93
1112.19
1108.48
1104.82
1101.33
1097.98
1094.79
1091.75
1088.89
1086.23
1083.64
1081.12
1078.66
1076.13
1073.5
1070.79
1067.97
1065.07
1062.12
1059.33
1056.73
1054.31
1052.09
1050.02
1048.1
1046.23
1044.51
1042.79
1041.25
1039.61
1037.92
1036.38
1034.81
1033.27
1031.68
1029.61
98.2071
303.138
478.067
747.102
1064.12
1388.12
1707.48
2020.55
2331.62
2647.47
2966.67
3291.02
3623.81
3966.71
4320.27
4685.43
5066.02
5468.39
5897.92
6360.17
6864.78
7426.58
8052.62
8727.69
9458.53
10252.6
11073.3
11876.9
12650.5
13364.4
13968
14345.9
14557
14548.7
14406.7
13922.6
13191.2
12344.8
11293.3
10138.3
8951.34
7752.18
6733.85
5725
4891
4090.94
3443.46
2886.2
2421.11
2053.75
1725.85
1478.62
1260.85
1095.73
954.185
840.886
752.362
675.605
618.24
566.526
528.298
492.976
467.081
441.925
423.473
404.745
390.819
376.254
365.599
354.082
346.091
337.534
330.365
324.355
317.887
313.781
310.374
306.555
304.747
302.841
301.569
301.465
301.663
302.504
303.919
306.097
308.884
312.466
316.703
321.806
327.632
334.41
341.946
350.431
359.645
369.807
380.749
392.706
405.527
419.43
434.379
450.284
467.24
485.013
503.684
523.04
543.092
563.649
584.722
606.095
627.842
649.6
671.528
693.609
716.268
739.471
763.073
787.025
810.169
833.182
853.271
871.219
888.063
904.311
918.823
933.296
946.742
960.396
973.021
985.77
997.415
1008.78
1019.18
1029.59
1039.11
1048.56
1057.11
1065.21
1072.51
1079.19
1085.43
1091.18
1096.47
1101.58
1106.39
1111.16
1115.55
1119.59
1123.04
1125.7
1127.78
1129.15
1130.13
1130.5
1130.54
1130.42
1130.32
1130.23
1130.24
1130.15
1130.02
1129.75
1129.34
1128.7
1127.79
1126.63
1125.19
1123.56
1121.77
1119.92
1117.97
1115.99
1113.99
1111.97
1109.89
1107.7
1105.46
1103.11
1100.71
1098.27
1095.81
1093.31
1090.76
1088.19
1085.55
1082.96
1080.35
1077.69
1075
1072.31
1069.66
1066.98
1064.29
1061.57
1058.9
1056.21
1053.62
1051.05
1048.6
1046.18
1043.76
1041.4
1038.96
1036.49
1033.93
1031.31
1028.66
1025.99
1023.46
1021.01
1018.69
1016.47
1014.42
1012.55
1010.75
1009.01
1007.32
1005.57
1003.71
1001.75
999.664
997.456
995.163
992.947
990.912
989.028
987.341
985.785
984.382
983.029
981.802
980.574
979.499
978.347
977.138
976.028
974.907
973.807
972.638
971.186
112.525
335.137
531.695
806.949
1115.07
1422.5
1722.25
2016.91
2312.64
2609.84
2910.57
3217.02
3532.92
3860.34
4200.13
4553.45
4925.18
5323.73
5756.01
6228.95
6750.41
7334.36
7989.89
8700.81
9454.12
10257.9
11069.9
11812.4
12464.7
13001.7
13389.7
13466.6
13343.2
13012.5
12523.4
11754.3
10734.1
9600.03
8438.36
7258.58
6188.57
5118.46
4275.96
3498.16
2887.75
2344.91
1922.03
1577.77
1303.14
1097.14
919.958
794.758
681.17
604.44
534.202
485.095
443.891
410.629
385.535
363.451
346.286
329.821
316.909
304.161
294.019
283.655
275.212
266.509
259.381
251.921
246.075
239.655
234.944
230.142
225.152
221.113
217.499
213.941
211.294
208.409
206.248
204.458
202.542
201.156
199.749
199.011
198.291
198.033
198.084
198.41
199.008
199.981
201.27
202.947
204.945
207.357
210.14
213.394
217.076
221.3
226.057
231.392
237.372
243.94
251.181
259.07
267.663
276.964
287.004
297.766
309.28
321.542
334.62
348.64
363.895
380.349
397.826
416.18
435.204
454.759
473.911
492.202
510.08
528.145
545.59
563.185
580.297
597.65
614.6
631.848
648.446
665.182
680.987
696.936
711.998
727.025
741.164
754.884
767.93
780.549
792.598
804.264
815.432
826.405
836.987
847.395
857.379
866.781
875.606
883.354
890.495
896.719
902.55
907.613
912.358
916.582
920.832
924.863
929.004
932.875
936.798
940.405
943.928
947.09
949.786
952.224
954.23
956.059
957.608
959.063
960.304
961.389
962.356
963.224
963.944
964.448
964.863
964.985
964.998
964.923
964.778
964.533
964.209
963.82
963.348
962.851
962.32
961.715
961.04
960.305
959.527
958.67
957.74
956.713
955.65
954.531
953.44
952.329
951.298
950.292
949.277
948.282
947.222
946.099
944.873
943.542
942.132
940.664
939.242
937.869
936.578
935.352
934.271
933.328
932.475
931.657
930.883
930.07
929.123
928.051
926.842
925.475
923.993
922.502
921.168
919.952
918.915
917.997
917.227
916.506
915.887
915.272
914.776
914.217
913.6
913.029
912.462
911.905
911.258
910.56
125.607
359.504
572.049
847.86
1143.82
1433.88
1717.11
1996.85
2273.28
2549.92
2830.56
3117.7
3415.17
3725.66
4050.65
4391.7
4754.85
5151.05
5589.84
6078.77
6621.49
7232.3
7924.11
8673.11
9437.27
10225.6
10990.1
11620.6
12095.2
12391.1
12492
12302.8
11878.4
11199.8
10363.8
9369.83
8202.94
6946.49
5841.74
4779.5
3906.96
3095.56
2484.45
1971.61
1586.27
1276.12
1041.74
860.213
720.545
615.585
530.818
471.321
416.95
381.845
348.694
328.679
308.581
294.628
282.76
271.473
261.77
251.819
243.564
235.048
227.963
220.691
214.704
208.576
203.383
198.009
193.464
188.627
184.847
180.923
177.296
174.185
171.033
168.175
165.728
163.189
161.002
159.115
157.155
155.344
153.509
152.126
150.721
149.612
148.474
147.609
146.723
146.14
145.554
145.205
144.895
144.739
144.761
144.906
145.183
145.637
146.266
147.098
148.159
149.42
150.92
152.656
154.669
156.97
159.588
162.531
165.836
169.539
173.697
178.419
183.854
190.022
196.928
204.558
212.88
221.814
231.217
240.949
251.122
261.803
272.976
284.67
296.844
309.582
322.849
336.775
351.196
366.129
381.39
397.023
412.857
428.947
444.985
461.163
476.957
492.737
508.122
523.418
538.432
553.329
568.049
582.549
596.811
610.425
623.622
635.624
647.17
657.703
667.915
677.258
686.368
694.74
703.135
711.073
719.114
726.765
734.415
741.67
748.655
755.37
761.584
767.544
773.014
778.303
783.255
788.03
792.564
796.829
800.895
804.761
808.434
811.803
814.969
817.67
820.245
822.55
824.791
826.878
828.855
830.768
832.553
834.278
835.966
837.519
838.983
840.3
841.553
842.604
843.568
844.29
844.983
845.506
846.041
846.507
847
847.517
848.009
848.518
848.942
849.296
849.522
849.564
849.514
849.381
849.212
849.035
848.884
848.783
848.797
848.888
849.064
849.285
849.546
849.808
849.846
849.78
849.564
849.152
848.592
847.973
847.455
847.025
846.741
846.561
846.523
846.544
846.625
846.739
846.911
847.051
847.111
847.184
847.265
847.364
847.304
847.497
136.153
374.595
598.968
870.983
1152.29
1428.54
1698.14
1960.16
2216.71
2472.25
2731.83
2998.86
3277.21
3570.46
3881.24
4211.76
4569.11
4967.7
5417.19
5928.69
6505.29
7155.14
7888.5
8677.1
9433.11
10171.5
10843.6
11302.3
11541.5
11532.3
11385.2
10913.6
10183.4
9205.06
8047.92
6878.42
5729.12
4568.78
3654.86
2853.12
2250.05
1747.67
1376.1
1090.55
880.364
723.455
605.165
515.298
445.759
391.77
350.521
319.223
293.4
274.956
259.61
249.334
238.298
230.987
222.78
215.187
208.27
200.972
194.681
188.208
182.968
177.621
173.326
168.964
165.209
161.314
157.973
154.496
151.599
148.507
146.177
143.964
141.62
139.43
137.558
135.641
133.846
132.335
130.782
129.314
127.823
126.591
125.343
124.255
123.145
122.174
121.189
120.361
119.525
118.796
118.055