/*--------------------------------*- C++ -*----------------------------------*\
| =========                 |                                                 |
| \\      /  F ield         | OpenFOAM: The Open Source CFD Toolbox           |
|  \\    /   O peration     | Version:  2312                                  |
|   \\  /    A nd           | Website:  www.openfoam.com                      |
|    \\/     M anipulation  |                                                 |
\*---------------------------------------------------------------------------*/
FoamFile
{
    version     2.0;
    format      ascii;
    arch        "LSB;label=32;scalar=64";
    class       volScalarField;
    location    "0.002";
    object      nut;
}
// * * * * * * * * * * * * * * * * * * * * * * * * * * * * * * * * * * * * * //

dimensions      [0 2 -1 0 0 0 0];

internalField   nonuniform List<scalar> 
48128
(
2.93426e-07
7.42431e-07
1.04481e-06
9.68977e-07
9.09292e-07
7.32682e-07
7.5247e-07
7.87993e-06
3.35731e-05
7.81045e-05
0.000124837
0.000168359
0.000207916
0.000243599
0.000276146
0.000306446
0.00033515
0.000362727
0.000389623
0.000416205
0.000442648
0.000469011
0.000495387
0.000521914
0.000548747
0.000576106
0.000604136
0.000633167
0.000663444
0.000695228
0.000727878
0.000761528
0.000796686
0.000833525
0.000871416
0.000910925
0.000952127
0.000994207
0.00103705
0.00107902
0.00112066
0.00116228
0.00120505
0.00124656
0.00128665
0.00132311
0.0013608
0.0013953
0.00142584
0.00144784
0.00146845
0.00148224
0.00149647
0.00150302
0.00152464
0.00154948
0.00157409
0.00159401
0.00161052
0.00162262
0.00163195
0.00163842
0.00164341
0.00164669
0.00164878
0.00164911
0.00164803
0.00163101
0.00153658
0.0014517
0.00137579
0.00130777
0.00124597
0.0011899
0.00113788
0.00109032
0.00104621
0.00100557
0.000967775
0.000932984
0.000900997
0.000871084
0.000843579
0.000817742
0.000794207
0.000772138
0.00075214
0.000732989
0.000715383
0.000698675
0.000683292
0.000668811
0.000655363
0.000642753
0.000630914
0.000619906
0.000609575
0.000600134
0.00059113
0.000582794
0.000574802
0.00056741
0.000560453
0.000554027
0.000547922
0.000542283
0.000536952
0.000532032
0.000527361
0.000523018
0.000518864
0.000515013
0.000511437
0.000508078
0.000504908
0.000501699
0.000498327
0.000495003
0.000491033
0.000488107
0.000487469
0.000485408
0.000483187
0.000482466
0.000481076
0.000479454
0.00047774
0.000475975
0.000474292
0.000472752
0.000471348
0.000470055
0.000468787
0.000467505
0.000466253
0.000465029
0.000463925
0.000462923
0.00046197
0.000461061
0.000460152
0.000459304
0.000458503
0.000457698
0.00045686
0.000455986
0.000455116
0.000454122
0.000453341
0.000453006
0.000452408
0.000451708
0.000451198
0.000450607
0.000450071
0.000449529
0.00044895
0.000448381
0.000447776
0.000447176
0.000446571
0.00044597
0.000445366
0.000444779
0.000444199
0.000443621
0.00044308
0.000442568
0.000442119
0.000441652
0.000441298
0.000441055
0.00044077
0.000440514
0.000440242
0.000440032
0.000439789
0.000439544
0.000439269
0.000438949
0.000438563
0.000438145
0.000437718
0.000437297
0.000436935
0.000436561
0.000436201
0.000435956
0.000435749
0.000435562
0.000435402
0.000435249
0.000435118
0.000434979
0.000434823
0.000434653
0.000434448
0.000434207
0.000433922
0.000433592
0.000433285
0.000432974
0.000432661
0.000432424
0.00043221
0.000432051
0.000431907
0.000431784
0.000431674
0.000431562
0.000431447
0.000431334
0.000431188
0.00043101
0.000430791
0.000430542
0.000430297
0.000430044
0.000429772
0.000429563
0.000429365
0.000429231
0.000429115
0.000429007
0.000428906
0.000428805
0.000428693
0.000428566
0.000428425
0.000428274
0.000428088
0.000427903
0.000427662
0.000427384
0.00042719
0.000426991
0.000426772
0.000426626
0.000426484
0.000426308
5.08783e-06
4.18194e-06
2.38804e-06
1.96134e-06
3.68966e-06
8.52518e-06
2.24307e-05
6.16177e-05
0.000137613
0.000259536
0.000417916
0.000595932
0.000792176
0.000998314
0.00120846
0.00141908
0.00163059
0.00184503
0.00206585
0.00229642
0.00253682
0.00279251
0.00306227
0.00334956
0.00365331
0.00397488
0.00431065
0.00466395
0.00502593
0.00542916
0.00584228
0.00625394
0.00667102
0.00710413
0.00754151
0.0079255
0.00829573
0.00866436
0.0090322
0.00937492
0.00969515
0.00999774
0.0102925
0.0105549
0.0107907
0.0109858
0.0111913
0.0113797
0.0115586
0.0116671
0.0117688
0.0118304
0.0118897
0.0118985
0.0118783
0.0118239
0.0117545
0.0116652
0.0115628
0.0114397
0.0113048
0.0111613
0.0110136
0.0108617
0.0107088
0.0105497
0.0103878
0.010221
0.0100666
0.00991647
0.00976695
0.00962103
0.00947118
0.00932097
0.00917288
0.00901929
0.00887082
0.00871804
0.00856947
0.00841696
0.00827249
0.00812701
0.00798961
0.00784886
0.00771514
0.00757926
0.00745154
0.00732444
0.00720387
0.00708356
0.00696818
0.00685463
0.00674481
0.00663894
0.00653541
0.00643675
0.00633924
0.00624672
0.0061557
0.00606934
0.0059845
0.00590365
0.00582406
0.00574876
0.00567468
0.00560465
0.00553581
0.00547067
0.00540692
0.00534649
0.00528761
0.00523157
0.00517728
0.0051256
0.00507568
0.00502848
0.00498018
0.00493308
0.0048838
0.00484091
0.00479758
0.00475329
0.00471139
0.00467649
0.00464247
0.00461027
0.00458049
0.00455096
0.00452223
0.00449441
0.00446757
0.00444147
0.00441631
0.0043914
0.00436686
0.00434277
0.00431907
0.00429621
0.00427413
0.00425278
0.00423187
0.00421174
0.00419196
0.00417294
0.00414922
0.00412363
0.00409696
0.00407153
0.00404659
0.00401654
0.00399026
0.00396409
0.0039363
0.0039109
0.00388568
0.00386222
0.0038396
0.00381796
0.00379728
0.00377773
0.00375856
0.00374099
0.00372415
0.00370783
0.00369188
0.0036764
0.00366125
0.00364635
0.00363173
0.00361752
0.00360257
0.00358824
0.00357406
0.00356079
0.00354697
0.00353455
0.00352184
0.0035102
0.00349886
0.00348807
0.00347831
0.00346925
0.00346117
0.0034536
0.00344596
0.00343829
0.00343108
0.0034232
0.00341536
0.00340686
0.00339897
0.00339072
0.00338322
0.00337559
0.00336816
0.00336107
0.0033544
0.00334817
0.00334277
0.00333763
0.00333316
0.00332806
0.00332447
0.00332003
0.0033157
0.00331091
0.00330611
0.0033011
0.00329621
0.00329123
0.00328629
0.0032815
0.00327708
0.00327287
0.00326917
0.00326603
0.00326291
0.00326019
0.00325793
0.00325501
0.00325251
0.00324951
0.00324632
0.00324307
0.0032396
0.0032362
0.00323263
0.00322931
0.00322603
0.00322299
0.00322065
0.00321811
0.00321646
0.00321514
0.00321337
0.00321139
0.00321004
0.00320819
0.00320597
0.00320259
9.87349e-06
1.28599e-05
1.16206e-05
1.45438e-05
3.19832e-05
6.54443e-05
0.000145057
0.00031023
0.000612649
0.00108672
0.00169901
0.00238957
0.00311067
0.00382481
0.0045091
0.00515569
0.00577236
0.00637356
0.00695273
0.00754318
0.00813197
0.00874107
0.00936003
0.00999792
0.0106495
0.0113169
0.0119969
0.0126948
0.0133882
0.0140986
0.0147959
0.0154792
0.0161408
0.0167791
0.017398
0.0179761
0.0185244
0.0190462
0.0195524
0.0200035
0.0204004
0.0207434
0.0210583
0.0213131
0.0215233
0.0216548
0.0217931
0.0218879
0.0219709
0.0219446
0.0219014
0.0218063
0.0216995
0.0215433
0.0213581
0.0211371
0.0208974
0.0206407
0.0203694
0.0200773
0.0197757
0.019469
0.0191623
0.018856
0.0185529
0.0182481
0.017945
0.0176402
0.0173411
0.0170485
0.0167593
0.0164813
0.0162019
0.0159291
0.0156632
0.0153963
0.0151382
0.0148793
0.0146288
0.0143762
0.0141357
0.0138956
0.0136684
0.0134393
0.0132212
0.0130005
0.0127922
0.0125843
0.0123863
0.0121896
0.0120002
0.0118142
0.0116337
0.0114593
0.0112883
0.0111248
0.0109631
0.0108086
0.0106562
0.0105101
0.0103661
0.0102279
0.0100915
0.00996151
0.00983287
0.00971044
0.0095893
0.00947389
0.00935999
0.00925135
0.00914434
0.00904217
0.00894195
0.00884647
0.00875234
0.00866393
0.00857142
0.00848328
0.00839081
0.00830668
0.00822459
0.00814021
0.00805826
0.00798661
0.00791826
0.00785153
0.00778894
0.00772613
0.00766502
0.00760539
0.00754767
0.00749126
0.00743678
0.00738266
0.00732949
0.00727701
0.0072256
0.00717548
0.007127
0.00707931
0.00703342
0.0069878
0.00694417
0.00690076
0.00685884
0.00681619
0.00677454
0.00673275
0.00669223
0.00665368
0.00661537
0.00657759
0.00654189
0.00650799
0.00647537
0.00644453
0.00641432
0.00638586
0.00635754
0.0063302
0.00630339
0.00627723
0.00625136
0.00622557
0.00620002
0.00617418
0.0061487
0.00612338
0.00609839
0.00607379
0.00604955
0.00602654
0.00600385
0.00598197
0.00596143
0.00594162
0.00592308
0.00590549
0.00588859
0.00587285
0.00585718
0.00584187
0.00582633
0.00581075
0.00579502
0.00577903
0.00576299
0.00574706
0.00573118
0.00571596
0.0057006
0.00568674
0.00567321
0.00566068
0.00564881
0.00563797
0.00562765
0.00561794
0.00560834
0.00559861
0.00558896
0.00557867
0.00556882
0.00555846
0.00554797
0.00553773
0.00552756
0.00551772
0.00550861
0.0055
0.0054919
0.00548452
0.00547786
0.00547146
0.00546526
0.00545948
0.00545314
0.00544694
0.00544077
0.00543389
0.00542695
0.00542006
0.00541318
0.00540663
0.0054
0.00539403
0.00538814
0.00538298
0.00537815
0.00537413
0.00537019
0.00536695
0.00536306
0.00535933
0.00535564
0.00535148
0.00534713
0.00534268
0.00533801
0.00533126
1.45171e-05
2.68986e-05
3.65934e-05
6.5206e-05
0.000120697
0.000241395
0.000507667
0.00102364
0.00186579
0.00298506
0.00428763
0.0056102
0.00686078
0.00801162
0.00906454
0.0100434
0.0109378
0.0118019
0.0126319
0.0134653
0.0142891
0.0151278
0.0159702
0.0168259
0.0176896
0.0185615
0.0194352
0.0203075
0.0211589
0.0219966
0.0228008
0.0235667
0.0242846
0.0249592
0.0255936
0.0261896
0.0267258
0.0272053
0.0276434
0.0280087
0.0283034
0.0285232
0.0286905
0.0287818
0.0288199
0.0287692
0.0287119
0.0285946
0.0284572
0.0282155
0.02795
0.0276424
0.0273226
0.0269722
0.026601
0.0262104
0.0258058
0.0253948
0.0249728
0.024546
0.0241222
0.0237039
0.0232921
0.0228886
0.0224926
0.0221053
0.021727
0.0213566
0.0209946
0.0206478
0.0203106
0.0199902
0.0196715
0.0193638
0.0190643
0.0187693
0.018482
0.0182005
0.017928
0.0176583
0.0173997
0.0171446
0.0169012
0.0166613
0.0164311
0.0162022
0.0159829
0.0157658
0.0155566
0.0153502
0.0151503
0.0149546
0.0147644
0.0145803
0.0143996
0.0142261
0.0140549
0.0138904
0.0137284
0.0135719
0.0134172
0.013268
0.0131206
0.0129791
0.012839
0.0127048
0.0125718
0.0124445
0.0123186
0.012198
0.0120787
0.0119644
0.0118517
0.0117439
0.0116374
0.0115362
0.0114297
0.0113278
0.0112207
0.0111175
0.0110245
0.0109282
0.0108311
0.0107473
0.0106675
0.010588
0.0105121
0.0104356
0.0103609
0.0102875
0.0102161
0.0101461
0.0100782
0.0100102
0.00994335
0.00987676
0.00981142
0.00974732
0.00968523
0.00962356
0.00956438
0.00950481
0.00944815
0.00939112
0.0093362
0.00927945
0.00922421
0.00916843
0.00911365
0.00906153
0.00900979
0.00895831
0.008909
0.00886245
0.008817
0.00877421
0.00873176
0.00869187
0.00865188
0.00861328
0.00857518
0.00853764
0.00850049
0.00846327
0.00842646
0.00838915
0.0083523
0.00831569
0.00827938
0.00824396
0.00820869
0.0081755
0.00814251
0.00811088
0.00808047
0.00805159
0.00802397
0.00799767
0.00797228
0.00794799
0.00792385
0.00790022
0.00787623
0.00785193
0.00782804
0.00780363
0.00777911
0.00775485
0.00773136
0.0077083
0.00768576
0.00766449
0.00764409
0.007625
0.00760664
0.00758963
0.00757336
0.00755759
0.00754222
0.00752668
0.0075111
0.00749493
0.0074787
0.00746237
0.00744598
0.00742998
0.00741439
0.00739934
0.00738539
0.00737209
0.00735974
0.00734815
0.00733761
0.00732749
0.00731762
0.00730817
0.00729792
0.00728759
0.00727732
0.00726642
0.00725544
0.00724468
0.00723403
0.00722393
0.00721393
0.00720489
0.00719603
0.00718817
0.00718072
0.00717439
0.00716802
0.00716298
0.00715658
0.00715048
0.00714461
0.00713819
0.00713165
0.00712509
0.00711833
0.00710878
1.9025e-05
6.66023e-05
0.0001036
0.000165794
0.00031223
0.000634795
0.0012724
0.0023784
0.0039037
0.00565984
0.00744763
0.00914025
0.010697
0.0121232
0.0134135
0.0145878
0.0156788
0.0167199
0.0177198
0.0187107
0.0196854
0.0206634
0.0216376
0.0226147
0.0235888
0.0245551
0.0255059
0.0264342
0.0273213
0.0281644
0.0289417
0.0296636
0.030322
0.0309185
0.0314567
0.0319469
0.0323561
0.0326809
0.0329421
0.0331231
0.0332232
0.0332303
0.0331535
0.0329914
0.0327649
0.0324602
0.0321393
0.0317491
0.0313373
0.0307208
0.0299444
0.0292103
0.02847
0.0278292
0.0272219
0.026621
0.026024
0.0254377
0.0249361
0.024452
0.0240657
0.0236859
0.0233127
0.0229817
0.0225974
0.0223162
0.0220014
0.0217755
0.0215398
0.0213344
0.0211642
0.0208652
0.0205563
0.0202615
0.0199733
0.0196986
0.0194288
0.0191727
0.0189236
0.0186834
0.0184512
0.0182266
0.0180107
0.0178038
0.0176035
0.0174083
0.0172184
0.0170324
0.0168511
0.0166737
0.0165008
0.0163329
0.0161692
0.016011
0.0158556
0.0157058
0.0155585
0.0154162
0.0152765
0.0151405
0.015006
0.0148754
0.0147465
0.0146219
0.0144986
0.0143796
0.0142622
0.014149
0.0140374
0.0139298
0.0138237
0.0137212
0.0136201
0.0135232
0.0134274
0.0133355
0.0132385
0.013145
0.0130464
0.0129457
0.0128626
0.0127756
0.012685
0.012607
0.0125332
0.0124591
0.0123873
0.0123151
0.0122444
0.0121745
0.0121061
0.012039
0.0119735
0.0119077
0.0118428
0.0117776
0.0117136
0.0116503
0.0115889
0.0115277
0.0114688
0.0114092
0.0113527
0.0112952
0.01124
0.0111823
0.0111262
0.011069
0.0110117
0.0109579
0.0109043
0.0108505
0.0107986
0.0107495
0.0107016
0.0106563
0.0106114
0.010569
0.0105266
0.0104854
0.0104446
0.010404
0.0103637
0.0103229
0.0102826
0.0102414
0.0102007
0.01016
0.0101197
0.0100802
0.0100407
0.0100038
0.00996691
0.00993172
0.00989746
0.0098651
0.00983394
0.00980425
0.00977553
0.00974778
0.00972005
0.00969269
0.00966491
0.00963639
0.00960877
0.00957999
0.00955126
0.00952267
0.00949535
0.00946817
0.00944216
0.00941692
0.00939288
0.00937046
0.00934884
0.00932863
0.00930929
0.00929034
0.0092719
0.0092531
0.00923424
0.00921468
0.00919487
0.00917491
0.00915486
0.00913529
0.00911629
0.00909798
0.00908103
0.0090649
0.00905001
0.00903611
0.0090234
0.00901121
0.00899933
0.00898787
0.00897542
0.00896267
0.0089498
0.00893622
0.00892243
0.00890897
0.00889566
0.00888312
0.00887084
0.00885988
0.00884918
0.00883975
0.00883072
0.00882318
0.00881542
0.0088093
0.00880162
0.00879415
0.00878697
0.0087792
0.0087713
0.00876345
0.00875542
0.00874429
2.35137e-05
0.000167521
0.000213439
0.000349536
0.000666416
0.00132738
0.00252255
0.00426501
0.00629368
0.00842929
0.0104983
0.0124188
0.0141863
0.0157811
0.0172105
0.0185243
0.0197472
0.0209034
0.02201
0.0230924
0.0241497
0.0251956
0.0262266
0.0272452
0.0282456
0.0292197
0.0301565
0.0310492
0.0318804
0.0326349
0.0333098
0.0339116
0.0344362
0.0348734
0.0352325
0.0355217
0.0357101
0.0357893
0.0357801
0.0356889
0.0355052
0.0351667
0.0342303
0.0332056
0.0320481
0.0310627
0.0300688
0.0290627
0.0280303
0.0272014
0.0264354
0.0256522
0.0249854
0.0242568
0.0237525
0.023074
0.0225682
0.0219015
0.0214891
0.0209494
0.0206142
0.0202035
0.0198776
0.01955
0.0192227
0.0189681
0.0187025
0.0185228
0.0183274
0.0181818
0.0180536
0.0179305
0.0178532
0.017758
0.0176681
0.0176368
0.0175674
0.0175314
0.0175131
0.0175338
0.0175039
0.0175166
0.0174975
0.0174212
0.0172763
0.0171387
0.0170024
0.0168714
0.0167414
0.0166163
0.0164928
0.0163735
0.0162564
0.0161443
0.0160332
0.0159259
0.01582
0.0157171
0.0156163
0.0155175
0.0154197
0.0153239
0.0152293
0.0151372
0.0150461
0.0149574
0.0148701
0.0147853
0.0147022
0.0146212
0.0145418
0.0144641
0.0143878
0.0143142
0.0142415
0.0141709
0.0140963
0.0140241
0.0139469
0.0138641
0.0138008
0.0137344
0.013664
0.0136014
0.0135434
0.0134856
0.0134288
0.0133719
0.0133159
0.0132602
0.0132054
0.0131516
0.013099
0.0130458
0.0129933
0.01294
0.0128877
0.0128354
0.0127848
0.0127341
0.0126852
0.0126357
0.0125887
0.0125407
0.0124946
0.012446
0.0123987
0.0123497
0.0122997
0.0122533
0.0122071
0.0121601
0.0121147
0.0120715
0.0120296
0.01199
0.0119512
0.0119141
0.0118774
0.0118413
0.0118057
0.0117695
0.0117336
0.0116969
0.0116604
0.0116227
0.0115854
0.0115479
0.0115106
0.0114741
0.0114373
0.0114034
0.0113692
0.0113369
0.0113051
0.0112752
0.0112463
0.011219
0.0111923
0.0111665
0.0111406
0.0111147
0.0110883
0.0110611
0.0110346
0.0110068
0.010979
0.0109512
0.0109248
0.0108983
0.0108732
0.0108487
0.0108254
0.0108038
0.0107829
0.0107633
0.0107447
0.0107263
0.0107084
0.0106901
0.0106715
0.0106523
0.0106324
0.0106125
0.0105921
0.0105724
0.010553
0.0105346
0.0105175
0.0105014
0.0104867
0.0104732
0.0104609
0.0104493
0.0104379
0.0104269
0.0104148
0.0104022
0.0103892
0.0103754
0.0103611
0.0103471
0.0103332
0.0103203
0.0103077
0.0102968
0.0102862
0.0102771
0.0102683
0.0102612
0.0102538
0.0102482
0.010241
0.0102338
0.0102269
0.0102194
0.0102118
0.0102042
0.0101964
0.0101859
3.03323e-05
0.000286802
0.000375
0.000646697
0.00124524
0.00236572
0.004147
0.00630634
0.00865451
0.011018
0.0132528
0.0153238
0.0172219
0.0189032
0.0204321
0.0218377
0.0231411
0.0243646
0.0255267
0.0266474
0.0277315
0.0287875
0.0298139
0.0308097
0.0317706
0.0326852
0.0335392
0.0343272
0.0350329
0.0356459
0.0361591
0.0365691
0.0368852
0.0370943
0.0372154
0.0372475
0.0371645
0.0362565
0.0352399
0.0339597
0.0326682
0.0315793
0.0304366
0.0292937
0.0280432
0.0270846
0.0261088
0.0251292
0.0241809
0.0232585
0.0227327
0.0219069
0.0213123
0.020473
0.0200199
0.019289
0.0188093
0.0181268
0.0177194
0.0171827
0.0168564
0.016429
0.0161359
0.0157998
0.015532
0.0152766
0.0150587
0.0148876
0.0147168
0.0145958
0.0144829
0.0143967
0.0143518
0.014295
0.0142662
0.0142779
0.0142778
0.0142977
0.0143418
0.0144099
0.0144435
0.0145041
0.0145593
0.0146399
0.0147235
0.0147997
0.0148724
0.0149356
0.0150273
0.0150994
0.0151833
0.0152498
0.0153148
0.0152665
0.0152141
0.0151631
0.0151105
0.0150593
0.015009
0.0149591
0.0149094
0.0148598
0.014811
0.0147629
0.0147145
0.0146665
0.0146186
0.0145709
0.0145244
0.0144778
0.0144327
0.0143872
0.0143432
0.0143
0.0142573
0.0142156
0.0141717
0.0141288
0.0140812
0.0140268
0.013988
0.0139479
0.0139053
0.0138635
0.0138266
0.0137911
0.0137554
0.0137203
0.0136849
0.0136494
0.0136143
0.0135797
0.0135457
0.0135114
0.0134774
0.0134424
0.0134079
0.0133728
0.013339
0.0133048
0.0132721
0.0132388
0.0132073
0.0131748
0.0131441
0.013111
0.0130789
0.0130445
0.0130084
0.0129754
0.0129425
0.0129086
0.0128755
0.012844
0.0128138
0.0127855
0.0127584
0.0127322
0.012707
0.0126816
0.0126566
0.0126306
0.0126048
0.0125775
0.0125504
0.0125218
0.0124935
0.0124647
0.0124361
0.012408
0.0123794
0.0123538
0.0123278
0.0123036
0.0122793
0.012257
0.0122352
0.0122148
0.0121948
0.0121754
0.0121557
0.0121358
0.0121153
0.012094
0.012073
0.012051
0.0120288
0.0120065
0.0119853
0.0119641
0.0119439
0.0119247
0.0119062
0.0118892
0.0118729
0.0118577
0.0118434
0.0118292
0.0118155
0.0118013
0.0117867
0.0117713
0.0117551
0.0117389
0.0117217
0.0117053
0.0116889
0.0116737
0.0116595
0.0116467
0.0116351
0.011625
0.0116158
0.0116076
0.0115993
0.0115916
0.0115827
0.0115729
0.0115627
0.0115514
0.0115393
0.0115273
0.0115153
0.0115045
0.011494
0.0114854
0.0114772
0.0114706
0.0114643
0.0114597
0.0114548
0.0114516
0.0114469
0.011442
0.0114373
0.0114322
0.0114268
0.0114214
0.0114158
0.0114086
3.859e-05
0.000431389
0.000618574
0.00109347
0.00205139
0.00368826
0.00586786
0.00828698
0.0108364
0.0133267
0.0156591
0.0178381
0.0197812
0.0215247
0.0231161
0.0245746
0.0259189
0.0271705
0.0283465
0.0294619
0.0305263
0.031545
0.0325167
0.0334382
0.0343058
0.0351076
0.0358266
0.0364546
0.0369839
0.0374025
0.0377102
0.0378795
0.0379396
0.0373928
0.0363879
0.0353303
0.033711
0.032454
0.0312605
0.0298366
0.0284946
0.027585
0.0264796
0.0254161
0.0242947
0.0233393
0.0226007
0.0216004
0.0207627
0.0196917
0.0192757
0.0183905
0.0177618
0.0168648
0.0163744
0.0156463
0.0151642
0.0145295
0.0141082
0.0136087
0.0132784
0.0128985
0.0126549
0.0123666
0.0121625
0.0119343
0.0117784
0.0116153
0.0114963
0.0113842
0.0113075
0.01124
0.0112003
0.0111567
0.0111436
0.0111406
0.0111638
0.0111611
0.011234
0.0112661
0.0113507
0.0113698
0.0114847
0.011553
0.0116971
0.01176
0.0119095
0.0119844
0.0121499
0.0122594
0.0124185
0.0125309
0.0126858
0.0127955
0.0129385
0.0130568
0.0131831
0.0132814
0.0133839
0.0134896
0.0135817
0.0136816
0.0136882
0.013692
0.0136927
0.0136915
0.0136883
0.0136836
0.0136789
0.0136723
0.013667
0.0136593
0.0136536
0.0136463
0.0136394
0.013632
0.0136256
0.0136168
0.0136042
0.0135854
0.0135732
0.0135636
0.0135509
0.0135347
0.0135223
0.0135123
0.0135015
0.0134914
0.01348
0.0134685
0.0134564
0.0134442
0.0134323
0.0134204
0.013408
0.0133949
0.0133814
0.013367
0.0133535
0.013339
0.0133258
0.0133119
0.0132992
0.0132857
0.0132737
0.0132597
0.0132464
0.0132301
0.0132124
0.013196
0.01318
0.0131627
0.0131454
0.013129
0.0131137
0.0131001
0.013088
0.0130761
0.0130657
0.0130545
0.0130438
0.0130315
0.0130193
0.0130052
0.0129911
0.0129751
0.0129595
0.012943
0.0129269
0.012911
0.0128945
0.0128807
0.0128667
0.012854
0.0128411
0.0128296
0.0128184
0.0128081
0.0127981
0.0127883
0.0127782
0.0127677
0.0127565
0.0127445
0.0127322
0.0127197
0.0127066
0.0126933
0.0126807
0.0126684
0.0126567
0.0126458
0.0126354
0.0126262
0.0126176
0.0126099
0.0126028
0.0125959
0.0125894
0.0125822
0.0125746
0.0125662
0.0125568
0.0125475
0.0125366
0.0125266
0.0125161
0.0125071
0.0124987
0.012492
0.0124861
0.012482
0.0124785
0.0124763
0.0124737
0.0124718
0.0124687
0.0124643
0.0124594
0.0124534
0.0124461
0.0124386
0.0124309
0.0124246
0.0124185
0.0124146
0.0124109
0.0124092
0.0124075
0.0124075
0.0124072
0.0124084
0.0124082
0.0124077
0.0124073
0.0124065
0.0124053
0.0124041
0.0124026
0.0124017
4.83787e-05
0.000575383
0.000948121
0.00169746
0.00305871
0.00511574
0.00751421
0.0101127
0.0127728
0.0153295
0.0177273
0.0199465
0.0219103
0.0236918
0.0253151
0.026795
0.0281492
0.0293959
0.03055
0.0316232
0.0326274
0.0335675
0.0344415
0.0352435
0.0359711
0.0366146
0.0371535
0.0375803
0.037891
0.0380706
0.0381329
0.0367943
0.0352388
0.0336435
0.032441
0.0312904
0.0295502
0.0284411
0.0273119
0.02605
0.0248334
0.0240985
0.0230846
0.0220582
0.0210278
0.0199103
0.0193886
0.0183005
0.0174905
0.0163584
0.0158126
0.0149094
0.0143076
0.0135135
0.0129987
0.0123895
0.0119414
0.0114427
0.0110364
0.0106683
0.0103507
0.0100824
0.00985748
0.00965439
0.00948325
0.0093065
0.00919961
0.00904539
0.00899548
0.00886978
0.00885774
0.00878574
0.0087693
0.0087408
0.00872961
0.00873234
0.00875604
0.00874674
0.0088356
0.00882181
0.00892292
0.0089272
0.0090394
0.00910616
0.00922559
0.00927122
0.00939176
0.00946673
0.00960015
0.0097081
0.00983906
0.00994989
0.0100789
0.0102025
0.0103427
0.01048
0.0106223
0.0107447
0.0108818
0.0110181
0.0111538
0.0113026
0.011431
0.0115621
0.0116844
0.0118011
0.01191
0.0120162
0.0121129
0.012213
0.0123129
0.0123998
0.0124384
0.0124732
0.012507
0.0125394
0.0125734
0.0126023
0.0126275
0.0126477
0.0126669
0.0126886
0.0127075
0.0127227
0.0127381
0.0127558
0.0127732
0.0127904
0.0128065
0.0128214
0.012835
0.012848
0.0128607
0.0128733
0.012885
0.0128958
0.0129056
0.0129141
0.0129229
0.0129302
0.0129386
0.0129459
0.0129539
0.0129613
0.0129698
0.0129771
0.0129842
0.0129888
0.0129915
0.0129939
0.0129966
0.012998
0.0129985
0.0129991
0.0130006
0.0130034
0.0130078
0.0130123
0.0130184
0.0130234
0.0130288
0.0130324
0.0130359
0.0130372
0.0130382
0.0130372
0.0130362
0.0130345
0.0130327
0.0130316
0.0130296
0.0130296
0.0130297
0.0130308
0.0130316
0.013033
0.0130347
0.0130365
0.0130387
0.0130406
0.0130423
0.0130432
0.0130436
0.0130432
0.0130419
0.0130413
0.0130395
0.0130377
0.0130362
0.013035
0.0130342
0.013034
0.013034
0.013035
0.0130363
0.0130382
0.0130406
0.0130431
0.0130459
0.0130482
0.0130497
0.0130507
0.0130505
0.0130503
0.0130483
0.013047
0.0130449
0.0130443
0.013044
0.0130455
0.0130474
0.0130515
0.0130558
0.0130617
0.0130667
0.0130727
0.0130775
0.0130808
0.0130835
0.0130848
0.0130846
0.0130839
0.0130825
0.0130828
0.0130832
0.0130858
0.0130888
0.0130937
0.0130987
0.0131053
0.0131114
0.0131189
0.0131251
0.0131308
0.0131365
0.0131418
0.0131469
0.0131517
0.0131561
0.013164
6.51274e-05
0.000763906
0.00135893
0.00242364
0.00417393
0.00647625
0.00902847
0.0117329
0.0144439
0.0170284
0.0194639
0.0216786
0.023652
0.0254489
0.0270804
0.0285573
0.0298942
0.0311061
0.0322053
0.0332018
0.0341076
0.034929
0.0356637
0.036304
0.0368478
0.0372871
0.0376109
0.0378026
0.0372783
0.0356188
0.0342435
0.0327473
0.0311534
0.0295924
0.0285289
0.027456
0.0258279
0.0249696
0.0239751
0.0228895
0.0217287
0.0208445
0.0200989
0.0189968
0.0180499
0.0167475
0.0161617
0.0150745
0.0143437
0.013382
0.0126688
0.0119326
0.01135
0.0107809
0.0102079
0.00977012
0.00931459
0.00897539
0.0085659
0.00833482
0.00801308
0.0078539
0.00759892
0.00749479
0.00730987
0.00722296
0.00711897
0.00702157
0.00700359
0.00689221
0.00693876
0.00684852
0.00689298
0.00686139
0.00687565
0.00693191
0.0069254
0.00700238
0.00702356
0.0070555
0.0071133
0.00717024
0.00723674
0.00731549
0.00740252
0.00746768
0.00753883
0.0076155
0.00770174
0.00779008
0.00787388
0.00795645
0.00804145
0.00814609
0.0082434
0.00835354
0.00845844
0.00855796
0.00867764
0.00878356
0.00891592
0.00904194
0.0091696
0.00929899
0.00942854
0.00955876
0.00969002
0.00981488
0.00994434
0.0100641
0.0101985
0.0103213
0.0104336
0.0105273
0.0106111
0.0107037
0.0108191
0.0109831
0.0111533
0.0112732
0.0113347
0.0113919
0.011446
0.011497
0.0115455
0.011594
0.0116428
0.0116897
0.0117358
0.011779
0.0118212
0.0118618
0.0119016
0.0119405
0.0119786
0.0120152
0.0120508
0.0120846
0.0121178
0.0121492
0.0121809
0.0122111
0.0122417
0.0122714
0.0123022
0.0123322
0.0123615
0.0123883
0.0124134
0.0124368
0.0124594
0.0124807
0.0125004
0.0125194
0.0125389
0.0125592
0.0125809
0.012603
0.0126264
0.0126488
0.0126714
0.0126922
0.0127126
0.0127307
0.0127481
0.0127636
0.0127785
0.0127928
0.0128067
0.0128215
0.0128353
0.0128506
0.012866
0.012882
0.0128976
0.0129133
0.0129291
0.0129444
0.0129599
0.0129748
0.0129896
0.0130033
0.0130167
0.013029
0.0130406
0.0130529
0.013064
0.0130751
0.0130861
0.0130976
0.0131092
0.0131211
0.0131331
0.0131456
0.0131583
0.0131713
0.0131846
0.0131979
0.0132115
0.0132246
0.0132369
0.0132489
0.0132595
0.0132701
0.0132786
0.0132878
0.0132957
0.0133051
0.0133145
0.0133258
0.0133372
0.0133509
0.0133644
0.0133798
0.0133942
0.0134095
0.0134237
0.0134364
0.0134485
0.0134589
0.0134674
0.0134752
0.0134819
0.0134903
0.0134988
0.0135096
0.0135206
0.0135339
0.013547
0.0135617
0.0135758
0.0135911
0.0136053
0.0136188
0.0136323
0.0136453
0.013658
0.0136704
0.0136823
0.0137015
8.47835e-05
0.00101496
0.00183356
0.00322934
0.00524758
0.00771214
0.0103724
0.0131272
0.0158492
0.0184334
0.0208793
0.0230689
0.0250415
0.0268366
0.0284572
0.0299092
0.0312026
0.0323497
0.0333603
0.0342435
0.0350109
0.0356704
0.0362219
0.036658
0.0369732
0.0371674
0.0366474
0.0351416
0.0332525
0.0314217
0.0301038
0.0288201
0.0273896
0.0259853
0.0251273
0.0241425
0.0226344
0.0218453
0.0212834
0.0202776
0.0191089
0.0177957
0.0172867
0.0160587
0.0152105
0.0139879
0.0132703
0.0123264
0.0116528
0.010945
0.0100196
0.00950112
0.00882771
0.00849597
0.00787623
0.00759782
0.00712509
0.00693315
0.00653788
0.00641241
0.00609915
0.006027
0.00574594
0.00572641
0.00551016
0.00548568
0.00537227
0.00525101
0.0051687
0.00508722
0.00502033
0.00497172
0.00492589
0.00489464
0.0048786
0.0048624
0.00486603
0.0048761
0.00488967
0.0049105
0.0049395
0.00497758
0.00502196
0.00507403
0.00513186
0.00519709
0.00526984
0.00534935
0.00543809
0.00553209
0.00563578
0.00574398
0.00585975
0.00598258
0.00610676
0.00623857
0.00637265
0.00651027
0.0066536
0.00679689
0.00694716
0.00709474
0.00724411
0.00739186
0.0075424
0.00768861
0.00780546
0.00790818
0.00802225
0.00812549
0.008244
0.00835086
0.00845093
0.00854136
0.00861915
0.00873198
0.00887159
0.00903618
0.00920621
0.00943441
0.00959468
0.00964822
0.00970985
0.00980197
0.00987475
0.00994946
0.0100276
0.0101233
0.0102154
0.0103102
0.0103999
0.010473
0.0105571
0.0106433
0.0107291
0.0107948
0.0108592
0.010921
0.0109812
0.0110393
0.0110964
0.0111519
0.0112073
0.0112615
0.0113167
0.0113708
0.0114244
0.0114755
0.0115245
0.0115718
0.011616
0.011659
0.0116991
0.0117385
0.0117769
0.0118159
0.0118558
0.0118965
0.011938
0.0119789
0.0120194
0.0120586
0.0120968
0.0121328
0.0121681
0.0122009
0.0122331
0.0122643
0.012295
0.0123263
0.0123568
0.0123883
0.0124197
0.0124515
0.0124827
0.0125134
0.0125441
0.0125738
0.0126034
0.0126323
0.0126607
0.0126882
0.0127152
0.0127412
0.0127666
0.0127926
0.0128175
0.0128424
0.0128669
0.0128918
0.0129167
0.0129417
0.0129664
0.0129913
0.0130163
0.0130412
0.0130663
0.0130912
0.0131165
0.0131412
0.0131653
0.0131891
0.0132117
0.013234
0.0132543
0.013275
0.0132941
0.0133145
0.0133347
0.0133567
0.0133787
0.0134028
0.0134266
0.0134524
0.0134772
0.0135029
0.0135276
0.0135509
0.0135733
0.0135941
0.0136127
0.0136304
0.0136463
0.013664
0.0136816
0.0137017
0.013722
0.0137445
0.0137669
0.0137909
0.0138142
0.0138386
0.0138619
0.0138844
0.0139069
0.0139287
0.0139504
0.0139717
0.0139922
0.0140244
0.000105206
0.00128831
0.00235071
0.00401143
0.00623448
0.00880082
0.0115219
0.0142924
0.0169951
0.0195573
0.0219866
0.0241658
0.0261358
0.027917
0.0295078
0.0309091
0.0321268
0.0331702
0.0340487
0.0347714
0.0353502
0.0357966
0.0361167
0.0363045
0.0361306
0.034134
0.0324457
0.0308519
0.029106
0.0274978
0.0265259
0.0254548
0.024174
0.0227799
0.0220468
0.021565
0.0202675
0.0192977
0.0190276
0.0178635
0.0166882
0.0151467
0.0146429
0.0135097
0.0128016
0.0118279
0.0108827
0.0100416
0.009281
0.00879322
0.00785944
0.00748492
0.00679373
0.00661069
0.00604361
0.005866
0.00542378
0.00527321
0.00498999
0.00471828
0.00451482
0.00432101
0.0041827
0.00404476
0.00395321
0.00385539
0.00379422
0.00372554
0.003685
0.00363882
0.00360705
0.00357961
0.00354991
0.00353542
0.00351848
0.00350928
0.00350753
0.00350416
0.00350682
0.00351204
0.00352033
0.00353335
0.00354985
0.00357091
0.00359559
0.00362519
0.00365915
0.00369863
0.00374293
0.00379321
0.00384914
0.00391093
0.00398008
0.00405352
0.00413471
0.00421947
0.00431191
0.00440956
0.00451341
0.00462485
0.00474155
0.0048647
0.00499453
0.00512575
0.00526619
0.005406
0.00555148
0.00569257
0.00584009
0.00598241
0.00613088
0.00627419
0.00641942
0.00656109
0.00670546
0.00685358
0.0070048
0.00715996
0.00731222
0.00746599
0.00760504
0.00773526
0.00786178
0.00798397
0.00810049
0.00819631
0.00828297
0.00838274
0.00847823
0.00858021
0.00868273
0.00877582
0.00887431
0.00897695
0.00908004
0.00919171
0.00929909
0.00940368
0.00950747
0.00959657
0.00969734
0.00978711
0.00986902
0.00995966
0.0100413
0.0101218
0.0102017
0.0102794
0.0103543
0.0104267
0.0104953
0.0105616
0.0106243
0.0106857
0.0107449
0.0108039
0.0108633
0.0109239
0.0109845
0.0110452
0.0111049
0.0111635