/*--------------------------------*- C++ -*----------------------------------*\
| =========                 |                                                 |
| \\      /  F ield         | OpenFOAM: The Open Source CFD Toolbox           |
|  \\    /   O peration     | Version:  2312                                  |
|   \\  /    A nd           | Website:  www.openfoam.com                      |
|    \\/     M anipulation  |                                                 |
\*---------------------------------------------------------------------------*/
FoamFile
{
    version     2.0;
    format      ascii;
    arch        "LSB;label=32;scalar=64";
    class       volScalarField;
    location    "0.002";
    object      omega;
}
// * * * * * * * * * * * * * * * * * * * * * * * * * * * * * * * * * * * * * //

dimensions      [0 0 -1 0 0 0 0];

internalField   nonuniform List<scalar> 
48128
(
2.16072e+06
2.162e+06
2.16548e+06
2.16653e+06
2.16625e+06
2.1626e+06
2.15267e+06
2.15155e+06
2.16744e+06
2.19739e+06
2.23548e+06
2.2736e+06
2.30846e+06
2.33898e+06
2.36504e+06
2.38676e+06
2.40525e+06
2.42074e+06
2.43296e+06
2.44227e+06
2.4494e+06
2.45399e+06
2.45597e+06
2.45526e+06
2.45172e+06
2.44528e+06
2.43627e+06
2.42449e+06
2.4101e+06
2.39383e+06
2.37554e+06
2.35576e+06
2.33503e+06
2.31372e+06
2.29198e+06
2.26962e+06
2.24866e+06
2.22787e+06
2.20764e+06
2.18799e+06
2.16908e+06
2.15177e+06
2.13652e+06
2.12277e+06
2.10955e+06
2.09639e+06
2.08554e+06
2.07487e+06
2.06297e+06
2.04727e+06
2.03196e+06
2.01378e+06
1.99742e+06
1.97721e+06
1.97084e+06
1.96928e+06
1.96931e+06
1.96715e+06
1.96363e+06
1.95785e+06
1.95099e+06
1.94287e+06
1.93454e+06
1.9257e+06
1.9167e+06
1.90701e+06
1.89678e+06
1.88551e+06
1.87329e+06
1.86054e+06
1.84767e+06
1.83519e+06
1.82268e+06
1.81033e+06
1.79817e+06
1.78583e+06
1.77384e+06
1.76177e+06
1.74983e+06
1.73774e+06
1.7263e+06
1.71486e+06
1.70417e+06
1.69341e+06
1.68314e+06
1.67279e+06
1.66314e+06
1.65353e+06
1.64467e+06
1.63591e+06
1.62769e+06
1.6197e+06
1.61209e+06
1.60485e+06
1.59792e+06
1.59141e+06
1.58513e+06
1.57925e+06
1.57349e+06
1.56814e+06
1.56299e+06
1.55821e+06
1.55364e+06
1.54936e+06
1.54527e+06
1.54144e+06
1.5378e+06
1.53433e+06
1.53104e+06
1.52789e+06
1.52491e+06
1.5221e+06
1.51943e+06
1.51684e+06
1.5144e+06
1.51202e+06
1.50974e+06
1.50772e+06
1.50539e+06
1.50555e+06
1.50438e+06
1.50272e+06
1.50188e+06
1.50038e+06
1.49869e+06
1.49691e+06
1.49514e+06
1.49344e+06
1.49189e+06
1.49053e+06
1.48929e+06
1.48813e+06
1.48702e+06
1.48595e+06
1.48496e+06
1.48406e+06
1.48329e+06
1.48256e+06
1.48188e+06
1.48121e+06
1.48055e+06
1.47997e+06
1.47936e+06
1.47879e+06
1.47822e+06
1.47767e+06
1.47713e+06
1.47653e+06
1.47649e+06
1.47612e+06
1.47564e+06
1.47516e+06
1.47455e+06
1.47391e+06
1.47319e+06
1.47239e+06
1.47156e+06
1.47068e+06
1.46978e+06
1.4689e+06
1.46801e+06
1.46719e+06
1.46641e+06
1.46571e+06
1.46507e+06
1.46451e+06
1.46403e+06
1.46363e+06
1.46332e+06
1.46301e+06
1.46285e+06
1.4626e+06
1.46232e+06
1.46199e+06
1.46161e+06
1.46114e+06
1.4606e+06
1.45997e+06
1.45927e+06
1.4585e+06
1.45773e+06
1.45697e+06
1.4563e+06
1.45572e+06
1.45527e+06
1.45485e+06
1.45458e+06
1.4544e+06
1.45423e+06
1.45405e+06
1.45384e+06
1.45359e+06
1.45326e+06
1.45286e+06
1.45238e+06
1.45181e+06
1.45118e+06
1.4505e+06
1.44981e+06
1.44912e+06
1.44857e+06
1.44799e+06
1.44761e+06
1.44729e+06
1.44705e+06
1.44685e+06
1.44664e+06
1.44642e+06
1.44615e+06
1.44582e+06
1.44543e+06
1.44495e+06
1.44439e+06
1.44377e+06
1.44311e+06
1.44248e+06
1.44188e+06
1.44128e+06
1.44089e+06
1.44052e+06
1.44026e+06
1.44005e+06
1.43983e+06
1.4396e+06
1.43932e+06
1.43899e+06
1.43858e+06
1.43811e+06
1.43756e+06
1.43694e+06
1.43631e+06
1.43564e+06
1.43492e+06
1.43436e+06
1.43388e+06
1.43337e+06
1.43301e+06
1.43271e+06
1.4324e+06
1.43194e+06
773788
456332
394162
411252
446501
639394
828618
941107
986633
958515
897548
846790
804148
771405
747915
731685
720739
713432
708351
704709
702001
699557
697288
695047
692856
690823
689287
688034
687411
684918
682847
682170
682050
681818
681755
686113
691284
696338
701200
706507
711826
717081
722149
727582
732940
738351
743359
748095
752077
755178
757284
758696
759491
759789
761175
763136
764670
765482
765430
764851
763575
761630
759106
756100
752662
748904
744792
740330
735082
729365
723368
717229
710999
704640
698202
691795
685262
678962
672607
666507
660307
654405
648414
642942
637435
632337
627152
622234
617264
612644
608039
603753
599542
595553
591706
588020
584616
581309
578240
575261
572434
569742
567246
564861
562666
560566
558677
556867
555258
553702
552312
550984
549818
548723
547734
546709
545705
544662
543601
542045
542097
541979
541363
541436
541386
541286
541143
541024
540897
540777
540679
540624
540563
540521
540476
540433
540433
540453
540503
540574
540665
540780
540903
541042
541147
541261
541338
541447
541448
541671
541995
542249
542612
542997
543429
543873
544327
544752
545198
545611
546048
546423
546790
547151
547500
547844
548176
548510
548846
549185
549592
550013
550500
550905
551357
551807
552279
552748
553207
553655
554047
554385
554687
554943
555184
555416
555599
555814
556030
556305
556564
556861
557116
557404
557701
558002
558289
558579
558788
558967
559088
559266
559261
559313
559361
559437
559519
559623
559732
559855
559989
560144
560299
560433
560559
560590
560664
560637
560528
560526
560478
560433
560431
560442
560476
560515
560575
560619
560668
560726
560738
560730
560697
560571
560424
560322
560168
560014
559881
559736
773201
334410
199615
209327
334906
480532
555349
575306
549585
501985
460376
429357
408171
394826
387239
383598
382363
382344
384017
385907
388418
390940
393761
396703
399910
403383
407169
411048
415245
419411
424152
429497
435367
441749
448676
456763
465063
473416
481856
490719
499462
507972
516381
525026
533647
541907
549742
557354
564513
570777
575971
580338
583965
586700
588854
590468
591544
591916
591669
590849
589356
587187
584415
581097
577330
573159
568611
563721
558453
552876
547030
540956
534680
528244
521711
515148
508496
502013
495481
489149
482748
476595
470385
464543
458691
453142
447553
442192
436838
431724
426674
421847
417123
412587
408178
403923
399860
395915
392146
388493
384965
381568
378313
375180
372191
369307
366583
363948
361477
359073
356822
354633
352595
350615
348774
346942
345177
343398
341663
339572
338403
337185
335677
334552
333522
332546
331562
330674
329788
328955
328141
327383
326644
325943
325259
324596
323963
323353
322780
322237
321711
321234
320754
320315
319869
319439
318993
318565
318043
317693
317364
316983
316690
316391
316156
315935
315744
315549
315391
315226
315084
314937
314800
314675
314554
314443
314332
314228
314129
314035
313932
313878
313839
313801
313762
313745
313753
313771
313802
313845
313890
313923
313958
313980
314002
314017
314010
314007
314000
314006
314014
314031
314045
314069
314103
314143
314193
314254
314307
314357
314385
314432
314415
314412
314400
314389
314372
314362
314353
314344
314346
314358
314376
314395
314426
314420
314446
314435
314380
314362
314328
314288
314257
314229
314214
314198
314193
314185
314176
314180
314178
314162
314171
314125
314062
314015
313945
313866
313778
313671
772954
281973
165834
221531
331970
396651
411597
393967
362700
335129
311964
296443
287673
283440
282050
282298
284394
286897
290090
293461
297207
301053
305208
309604
314348
319411
324817
330590
336806
343379
350581
358516
367052
375971
385384
395640
406293
416954
427975
439538
450944
461778
472484
483317
494265
504505
514279
523735
532834
540798
547582
553233
557944
561377
563790
565196
565903
565766
565045
563562
561303
558286
554618
550341
545598
540386
534783
528791
522458
515804
508831
501639
494275
486817
479303
471843
464339
456997
449668
442496
435318
428349
421403
414736
408127
401754
395449
389344
383339
377539
371866
366392
361060
355919
350913
346080
341413
336891
332537
328318
324226
320276
316460
312782
309234
305807
302519
299338
296300
293353
290540
287811
285211
282696
280298
277968
275676
273432
271216
268774
266984
265171
263174
261457
259863
258342
256835
255420
254026
252699
251403
250170
248974
247822
246699
245609
244550
243525
242539
241590
240664
239788
238921
238100
237283
236503
235715
234960
234144
233452
232790
232093
231468
230842
230273
229721
229204
228692
228216
227743
227292
226849
226420
226012
225615
225236
224866
224509
224161
223827
223475
223177
222877
222591
222306
222037
221787
221553
221344
221147
220968
220792
220632
220471
220317
220169
220013
219855
219702
219549
219407
219263
219124
218992
218875
218762
218662
218580
218499
218421
218343
218275
218193
218112
218027
217940
217851
217764
217679
217591
217506
217432
217364
217292
217239
217166
217126
217074
216995
216938
216873
216806
216743
216682
216627
216571
216520
216467
216413
216367
216326
216270
216254
216206
216145
216096
216035
215966
215888
215783
773083
221040
177812
250753
310238
327967
322283
299304
278193
259330
246205
238985
235786
234965
236003
238323
241422
244871
248726
252839
257284
261975
267046
272505
278412
284772
291634
299088
307153
315758
325153
335380
346298
357559
369201
381811
395079
408208
421767
435976
450145
463632
476957
490290
503915
516520
528409
539846
550690
560154
567993
574354
579238
582634
584485
585138
584818
583797
581799
578944
575160
570578
565286
559348
552951
546074
538837
531217
523298
515152
506817
498404
489895
481389
472893
464475
456046
447781
439592
431509
423488
415639
407864
400358
392969
385848
378866
372106
365500
359111
352886
346859
341008
335348
329839
324515
319360
314377
309568
304913
300395
296028
291800
287720
283766
279949
276259
272695
269260
265940
262738
259645
256658
253788
251014
248344
245688
243114
240558
237840
235648
233478
231179
229117
227173
225304
223460
221697
219970
218309
216687
215130
213620
212156
210727
209338
207980
206665
205390
204158
202955
201799
200664
199577
198500
197465
196429
195431
194396
193454
192558
191638
190778
189930
189132
188358
187616
186892
186196
185514
184850
184201
183568
182956
182360
181784
181222
180679
180146
179634
179107
178633
178155
177696
177239
176800
176376
175968
175588
175217
174872
174532
174216
173904
173603
173317
173029
172739
172462
172182
171919
171650
171395
171145
170909
170679
170462
170261
170067
169880
169701
169528
169354
169188
169023
168858
168695
168534
168378
168219
168063
167914
167773
167628
167501
167360
167249
167135
167005
166895
166783
166671
166564
166461
166363
166265
166169
166073
165976
165881
165797
165700
165641
165561
165473
165400
165320
165234
165143
165014
772663
187511
197815
249926
278185
278325
263267
246016
230225
218001
210921
207743
206921
207965
210428
213621
217349
221437
225874
230650
235804
241348
247370
253915
261057
268822
277268
286536
296609
307411
318999
331563
345035
358965
373218
388631
405196
421515
438231
455628
473237
489759
506067
522082
538410
553265
566633
578891
589435
598802
605045
609896
612385
613882
613178
611707
608944
605648
601406
596809
591274
585103
578158
570674
562729
554467
545923
537134
528154
519034
509781
500581
491284
482096
472935
463893
454812
445957
437189
428501
419908
411493
403148
395131
387231
379682
372269
365136
358136
351395
344807
338461
332291
326321
320524
314912
309482
304231
299163
294252
289488
284875
280402
276074
271874
267815
263880
260080
256400
252851
249409
246090
242860
239767
236750
233855
230961
228165
225385
222472
220018
217622
215150
212848
210668
208574
206510
204524
202578
200692
198848
197070
195340
193659
192015
190414
188846
187324
185841
184406
183003
181647
180319
179037
177774
176551
175334
174158
172956
171830
170760
169675
168642
167628
166662
165724
164819
163936
163083
162247
161428
160628
159844
159082
158337
157613
156904
156218
155542
154892
154228
153620
153007
152418
151831
151265
150714
150179
149673
149171
148703
148234
147797
147360
146942
146537
146139
145738
145357
144972
144607
144237
143886
143540
143208
142883
142570
142274
141986
141707
141438
141175
140916
140669
140426
140186
139951
139719
139496
139272
139051
138837
138632
138425
138232
138031
137855
137679
137494
137329
137163
137000
136845
136695
136553
136410
136271
136131
135994
135854
135727
135590
135487
135369
135246
135139
135029
134916
134799
134635
772421
198273
208182
237704
246037
239514
225175
211866
200284
192614
188817
187618
188181
190490
193673
197450
201705
206355
211382
216830
222750
229190
236224
243942
252452
261782
271974
283247
295563
308742
322793
338058
354596
371811
389202
407734
427960
448020
468167
488886
509962
528649
546383
563018
578879
593271
604102
613879
620201
626604
628698
629971
628708
626954
623125
618575
612777
606693
599721
592425
584257
575714
566583
557328
547693
538389
528855
519661
510360
501332
492289
483479
474633
466038
457405
449090
440656
432569
424399
416414
408357
400598
392760
385308
377772
370675
363513
356744
349926
343444
336983
330813
324715
318832
313083
307500
302089
296821
291747
286799
282014
277346
272829
268447
264202
260085
256100
252239
248504
244886
241376
237978
234662
231480
228352
225353
222353
219468
216590
213603
210995
208482
205945
203503
201181
198971
196780
194675
192598
190579
188600
186686
184814
182999
181218
179482
177779
176119
174499
172927
171388
169895
168434
167015
165624
164270
162929
161627
160306
159049
157854
156648
155491
154355
153266
152202
151182
150177
149212
148259
147329
146416
145523
144647
143793
142956
142137
141340
140554
139796
139027
138310
137594
136904
136217
135554
134908
134275
133673
133073
132509
131940
131408
130872
130360
129857
129369
128877
128409
127936
127488
127036
126605
126178
125766
125363
124972
124598
124232
123878
123531
123196
122863
122543
122230
121921
121621
121324
121040
120755
120477
120205
119945
119682
119434
119180
118947
118717
118479
118260
118044
117831
117628
117431
117244
117057
116877
116695
116519
116339
116172
115998
115853
115697
115537
115396
115252
115108
114962
114756
771827
209213
206214
220452
220487
210415
198947
188420
180113
175248
173289
173075
174796
177747
181415
185650
190374
195548
201171
207296
214020
221401
229536
238539
248571
259660
271790
285296
300151
316099
332987
351326
371289
392316
413449
435261
459226
482577
504441
525940
546929
564564
579678
592968
603648
614750
619865
624385
624613
624917
621185
615500
607868
600006
591130
581936
572297
562417
552711
542969
533272
523789
514212
505034
495570
486898
477950
469824
461496
453809
446046
438600
431258
424112
416974
410228
403273
396885
390325
384187
377845
371903
365785
360012
354052
348488
342766
337361
331847
326592
321273
316184
311021
305987
300942
296002
291154
286363
281760
277187
272787
268428
264219
260102
256112
252200
248418
244700
241120
237600
234203
230869
227635
224497
221411
218444
215498
212676
209836
206931
204256
201740
199246
196786
194416
192190
189967
187840
185718
183662
181632
179669
177738
175876
174033
172242
170475
168748
167064
165418
163809
162243
160704
159210
157745
156317
154903
153524
152134
150794
149518
148241
147004
145787
144614
143466
142368
141278
140235
139200
138196
137202
136235
135279
134348
133430
132532
131654
130787
129948
129101
128300
127508
126741
125982
125243
124526
123819
123142
122470
121830
121190
120580
119971
119381
118804
118243
117679
117139
116597
116079
115562
115063
114571
114094
113626
113172
112735
112305
111889
111479
111084
110690
110307
109934
109564
109208
108853
108515
108177
107849
107524
107216
106905
106610
106311
106027
105750
105467
105199
104937
104678
104431
104190
103961
103733
103514
103293
103080
102863
102660
102451
102269
102078
101884
101708
101531
101357
101181
100932
771902
212279
200319
203277
199141
189131
179807
171491
165473
162313
161325
161933
164311
167640
171659
176265
181408
187077
193291
200101
207667
216074
225434
235865
247617
260722
275051
291083
308835
328013
348128
369952
393629
418659
443213
466590
491605
514912
534355
551948
567815
581608
591082
598790
602629
605824
602505
597316
589786
581945
572432
561941
550973
539841
529044
517794
506788
495170
484706
473675
464072
454185
445369
436418
427775
419939
411941
405178
398125
392135
385946
380321
374793
369404
364264
359362
354322
349820
345136
340955
336589
332511
328299
324296
320133
316186
312121
308185
304172
300226
296213
292326
288409
284595
280763
276982
273217
269469
265818
262166
258620
255076
251630
248172
244770
241377
238060
234760
231555
228377
225298
222245
219283
216388
213540
210773
208072
205442
202792
200109
197513
195108
192720
190359
188058
185892
183741
181676
179613
177612
175625
173699
171799
169963
168144
166373
164619
162904
161223
159577
157963
156391
154838
153332
151846
150403
148971
147565
146165
144792
143479
142176
140905
139651
138436
137247
136103
134972
133882
132805
131756
130719
129707
128707
127727
126763
125813
124885
123965
123071
122178
121318
120475
119652
118844
118053
117282
116525
115792
115073
114374
113688
113017
112360
111708
111080
110461
109843
109247
108653
108080
107510
106958
106414
105886
105368
104863
104375
103896
103430
102970
102524
102083
101648
101226
100806
100402
99998.6
99613.7
99230.4
98859.4
98490.6
98140.4
97789.3
97453.1
97114.7
96790.2
96472.7
96150.6
95841.7
95539
95239.9
94953.5
94672.9
94405.9
94140.5
93885.9
93629.8
93383.1
93133.5
92898
92657.9
92441.2
92218.7
91993.2
91787
91578.8
91375.3
91171.3
90881.3
773694
211089
192270
188665
182249
173173
165258
158628
154146
152038
151598
152834
155536
159098
163369
168274
173791
179935
186740
194283
202770
212339
223109
235180
248923
264404
281328
300251
321279
344247
367974
393068
419215
445932
471224
492399
513885
533181
546777
558312
567881
575923
575910
574525
569936
564556
555546
544793
532739
519964
507415
494142
481139
466673
453294
438865
425756
411746
399815
387203
376827
365877
357113
347993
340533
333094
326586
320938
315429
311141
306745
303281
300018
296955
294581
292160
290129
288288
286332
284771
283134
281624
280041
278457
276755
275025
273204
271334
269356
267285
265073
262785
260434
258044
255604
253122
250586
248007
245394
242754
240094
237409
234724
232035
229370
226693
224033
221382
218763
216164
213617
211079
208598
206162
203738
201349
199020
196709
194382
192014
189634
187398
185208
183044
180922
178900
176913
174992
173079
171211
169348
167537
165743
164003
162278
160595
158924
157287
155673
154094
152537
151019
149515
148049
146601
145195
143796
142424
141059
139708
138406
137119
135862
134614
133403
132214
131064
129930
128831
127747
126687
125644
124617
123610
122610
121635
120662
119715
118773
117854
116940
116051
115180
114328
113491
112671
111869
111084
110317
109568
108834
108118
107410
106722
106032
105368
104711
104056
103420
102789
102178
101571
100981
100398
99833.6
99277.8
98735.9
98209.3
97693
97189.6
96692.2
96208.1
95730
95256.3
94795.9
94336.5
93893.5
93452
93029.3
92608.6
92202.2
91797.7
91412.1
91028
90658.2
90288
89930.7
89579.6
89225.6
88882.2
88546.3
88212.9
87893.1
87578.4
87278.5
86980.3
86694.6
86407.7
86131.8
85853.1
85589.1
85321.4
85075.4
84825.3
84572.4
84338.5
84102.6
83872.7
83643.2
83316.1
776569
208155
183662
176416
169163
160874
153824
148385
144926
143474
143373
144992
147837
151533
155979
161126
166986
173610
181059
189441
198996
209940
222415
236463
252592
270945
291020
313278
337799
364406
390622
416497
442109
466794
489714
505370
520794
535651
541502
544618
545285
545309
540188
532328
521612
509922
496835
482361
466692
448763
431850
413488
396853
378971
363839
347854
334436
320377
308716
296657
286943
276886
268915
260669
254248
247553
242504
237302
233333
229595
226261
223717
221328
219454
218273
217042
216678
216269
216112
216243
216498
216948
217479
218147
218830
219588
220284
221043
221601
222218
222494
222788
222753
222599
222252
221744
221052
220203
219205
218069
216808
215406
213887
212286
210618
208885
207097
205264
203394
201496
199580
197638
195699
193745
191810
189897
188021
186150
184259
182313
180319
178372
176488
174609
172762
170972
169205
167495
165782
164106
162420
160773
159137
157545
155961
154415
152871
151358
149856
148383
146930
145501
144089
142704
141336
140004
138679
137381
136086
134799
133552
132319
131113
129910
128740
127585
126467
125361
124289
123228
122192
121171
120164
119175
118191
117229
116269
115329
114395
113479
112570
111679
110808
109951
109110
108282
107473
106678
105901
105142
104396
103666
102944
102240
101537
100853
100177
99503.6
98847.3
98194.9
97562.5
96933.3
96321.1
95714.7
95126.2
94546.4
93980.9
93429.5
92888.8
92360.5
91838.2
91328.4
90824.8
90324.3
89837.1
89349.9
88879
88409.5
87958.7
87510.2
87076.4
86645.1
86231.8
85822.5
85426.7
85032.1
84649.9
84272.8
83895
83524.1
83162.3
82801.9
82454.9
82112.5
81785.3
81460
81148.3
80835.7
80535.2
80232.2
79944.2
79653.2
79382.4
79109.1
78833.3
78575.6
78316
78063.4
77811.6
77452
779958
204252
175289
166463
158620
150949
144608
139912
137126
136051
136192
137975
140860
144619
149187
154548
160758
167922
176144
185556
196434
209101
223740
240309
259354
281249
304993
330461
357382
385526
411612
435762
458055
477946
497060
506747
514010
521746
520361
517136
511456
504932
494716
482101
467057
449797
431344
411149
390362
369066
349278
330016
312967
295737
281196
266415
254455
242212
232120
221829
213518
205077
198297
191398
185943
180304
175992
171424
168099
164593
161842
159388
157031
155378
153958
152856
152425
151894
151936
152142
152552
153249
154131
155233
156489
157945
159528
161276
163088
165023
166946
168972
170865
172834
174571
176340
177860
179306
180583
181667
182658
183397
183943
184296
184378
184280
184036
183628
183071
182372
181552
180608
179560
178424
177244
176039
174815
173562
172263
170888
169427
167931
166431
164916
163390
161899
160415
158976
157530
156104
154666
153241
151821
150432
149047
147690
146331
144992
143648
142318
141001
139695
138402
137128
135867
134636
133412
132210
131010
129814
128648
127491
126360
125227
124119
123019
121954
120897
119873
118856
117864
116883
115917
114968
114022
113095
112170
111262
110358
109468
108584
107714
106861
106021
105196
104381
103584
102799
102031
101278
100539
99813.5
99096.3
98393.9
97695
97009.1
96333.2
95658.5
94998.6
94341.7
93703.7
93067.8
92448.9
91833.5
91235.9
90645.6
90069.9
89507.4
88954.8
88414.8
87880.1
87357.6
86839.9
86325.7
85823.2
85320.1
84832.6
84346.2
83877.5
83411.3
82959.3
82510.3
82078.1
81651.6
81238.3
80827.4
80428.2
80033.5
79639.5
79249.6
78869.3
78489.5
78122.2
77759.3
77411.2
77065.3
76733.2
76400.7
76080.9
75759
75451.7
75142.7
74851.5
74560.3
74266.8
73989.1
73711
73439.9
73169.5
72783
783830
200050
167736
157888
149874
142702
136930
132721
130328
129454
129749
131553
134413
138194
142870
148466
155098
162948
172172
182949
195581
210518
227993
247849
270454
296165
323015
350348
377532
404919
429158
449832
466895
480909
495855
497445
496999
497043
492485
484765
473407
460373
445163
427325
407005
383506
359720
336380
314362
294771
275075
258711
242881
229422
216985
205565
196017
186385
178486
170497
163925
157292
151878
146400
141935
137377
133691
129872
126867
123706
121334
118903
116780
115042
113262
111946
110930
109851
109261
108721
108351
108296
108351
108574
108958
109547
110299
111251
112361
113667
115124
116769
118536
120453
122448
124550
126698
128918
131159
133431
135744
137959
140210
142281
144344
146183
147945
149474
150902
152085
153152
153979
154668
155145
155514
155764
155888
155845
155689
155377
154870
154212
153453
152607
151689
150730
149743
148742
147721
146683
145620
144536
143438
142334
141222
140111
138989
137866
136736
135607
134482
133359
132238
131128
130023
128939
127859
126791
125726
124660
123604
122548
121510
120466
119438
118411
117414
116420
115458
114499
113563
112638
111727
110831
109938
109061
108183
107319
106458
105608
104762
103926
103104
102293
101497
100707
99935.8
99172.9
98427.4
97693
96973.5
96265.1
95565.5
94878.1
94195.7
93521.8
92859.5
92197
91547.3
90899.4
90269.1
89639.5
89026.6
88415.1
87821.1
87232.7
86658.6
86096.5
85543.5
85003.6
84467.9
83944.3
83423.6
82907.5
82400.8
81893.3
81400
80907.5
80431.1
79957.4
79496.7
79039.1
78597
78161.7
77739.3
77320.3
76912
76508.3
76106.1
75705.5
75314.6
74923.1
74543.2
74167.4
73805.2
73445.7
73099.1
72753.5
72419.6
72085.2
71763.6
71442.5
71136
70832.4
70526.5
70233.7
69942
69657.3
69372.7
68965.7
787761
195834
160696
150304
142379
135662
130325
126497
124284
123505
123863
125608
128411
132213
137038
142965
150192
158997
169615
182310
197380
215358
236561
260415
286601
315408
344008
371589
397466
422291
443810
459210
470037
477289
484605
482454
477302
470985
461512
449242
433043
413245
391263
366060
340351
314088
290819
269282
249803
233754
217908
205595
193126
183534
173814
165736
158150
150863
144774
138647
133466
128226
123868
119472
115831
112124
109068
105946
103396
100779
98703.3
96537.9
94814
93183.9
91546.8
90158.7
88943
87738.3
86823.6
85879.4
85109.4
84496.1
83855.1
83406.7
82951.3
82725.7
82493.3
82465.1
82514.2
82669.5
82930.8
83324.4
83832.5
84473.8
85227.8
86117.4
87125
88271.5
89537.2
90942.1
92474.1
94129.5
95914.6
97790.6
99763.5
101801
103898
106029
108196
110337
112495
114581
116659
118672
120700
122740
124650
126462
128058
129528
130677
131550
132220
132762
133113
133347
133438
133412
133312
133135
132870
132521
132094
131603
131049
130442
129780
129072
128329
127555
126757
125939
125105
124258
123402
122539
121668
120788
119897
118995
118087
117174
116266
115352
114442
113525
112629
111731
110859
109989
109138
108294
107468
106649
105826
105014
104200
103394
102589
101792
100997
100207
99427.7
98657.4
97900.2
97148.3
96411.9
95681
94967.1
94260.8
93568.8
92886
92211.7
91547.8
90889.3
90237.3
89596.4
88955.5
88324.9
87695.4
87081.4
86467.4
85869.1
85270.3
84688.6
84110.5
83546.9
82993.1
82448
81916.4
81388.4
80871.4
80357.2
79847.7
79345.9
78843.5
78353
77863.5
77388
76915.4
76454
75995.7
75551.9
75114.9
74691.1
74271.2
73860.8
73455.9
73052.4
72649.1
72254.9
71859.4
71474
71092.4
70723
70356.7
70002
69649.5
69307.4
68966.4
68636.1
68308.5
67992.6
67681.7
67368.6
67066.5
66766.1
66472.8
66179.1
65758.4
791729
192029
154176
143513
135834
129533
124544
120997
118888
118099
118446
120096
122850
126729
131829
138299
146442
156666
169316
184731
203181
225163
250855
278794
307798
338697
367597
394037
417377
437932
455706
464362
469592
469981
469450
465653
456785
444093
428353
409089
385904
357760
328707
300196
275830
253235
234066
217179
202559
190255
178899
169830
160616
153199
145556
139289
132766
127193
122210
117183
112934
108615
105045
101408
98420.4
95396.7
92959.4
90499.3
88501.9
86472.9
84786.2
83037.3
81624.4
80192.1
78876.2
77714.3
76575.8
75515.7
74607.9
73686.9
72864.6
72145.2
71406.8
70749.8
70083.3
69554.6
69016.7
68588.1
68151.3
67822.4
67487.5
67268.3
67045.1
66932.4
66813.9
66815.1
66853.5
66955
67120.4
67364.1
67685.7
68095
68600
69192.7
69882.7
70666.7
71552.5
72538.5
73627.6
74813.9
76102.4
77495
79000.6
80635.3
82423.3
84347.7
86378.6
88485.9
90632.4
92799.7
94914.4
96914.1
98759.5
100597
102270
103937
105417
106893
108183
109474
110593
111653
112536
113330
113976
114503
114915
115176
115359
115373
115319
115194
114995
114730
114405
114027
113595
113113
112577
111993
111372
110722
110050
109358
108650
107928
107200
106465
105738
105006
104282
103555
102834
102119
101400
100685
99964.2
99247.9
98527.1
97810.7
97092.1
96375.4
95663.1
94958.5
94262.1
93571.9
92889.4
92206.3
91536.5
90870.7
90217.3
89571.3
88932.8
88303
87678.2
87058.5
86448.2
85838.7
85236.3
84635.2
84045.9
83456.2
82879.5
82301
81738.2
81176.5
80629.8
80090
79559.1
79041.2
78527
78022.2
77521.1
77024.4
76533.9
76043.2
75561.9
75081.8
74613
74147.5
73691.3
73238.3
72798.6
72365.5
71945.3
71529.8
71122.6
70721.9
70322.5
69922.6
69531.1
69137.8
68752.8
68371.1
68000.4
67633
67275.7
66921.7
66576.5
66234
65900.3
65571.1
65251
64937.7
64622.2
64316.1
64011.9
63714.8
63416.3
62988.7
795253
188720
148214
137433
130064
124118
119433
116092
114057
113193
113480
115045
117812
121907
127531
134925
144522
156874
172480
191772
214752
241487
271886
303707
334260
365882
393734
417528
436867
451505
463870
466250
465707
461693
454759
445835
431492
411113
386401
356468
325239
294421
267965
244390
224678
207927
193704
181350
170597
160972
152448
144933
137637
130987
124505
118947
113179
108868
104423
100334
96898.3
93372.7
90472
87543.4
85199.6
82905.4
81060.9
79280.5
77768.6
76218
74874.4
73491.7
72319.9
71111.2
70104.6
69178.7
68229.3
67344.1
66569.3
65788
65053.7
64405.3
63745.5
63138.6
62522.3
61987.7
61446.2
60966.9
60480.2
60051.2
59616.3
59240.4
58859.8
58526.5
58187.5
57894.3
57602.2
57353.1
57114.6
56911.6
56732
56584.7
56476.2
56400.9
56355.6
56363.7
56403.9
56485.2
56613.3
56789.4
57019.3
57310.3
57672.4
58123.3
58677.4
59345.4
60120.5
60996.1
61964.4
63014.2
64145.9
65338
66590.2
67908
69287
70728.4
72221.1
73772.8
75377.1
77049
78763.4
80523.6
82284.9
84072.4
85790.6
87519.8
89159.4
90750.8
92225.4
93606.6
94855.7
95994
97023.8
97933.4
98734.4
99419.7
99986
100438
100757
100966
101032
100995
100895
100725
100492
100201
99865.1
99490.1
99086
98654.2
98198.6
97719.5
97219.5
96704.7
96176.6
95636.6
95084
94520.7
93946.1
93361.9
92768.2
92166.5
91558.8
90948.9
90339.1
89726.6
89119.1
88508.5
87906.4
87305.3
86713.5
86126.5
85545.5
84970.6
84399.7
83832.1
83271.6
82712.1
82157.3
81602.2
81051.7
80499.1
79954.6
79407
78872.7
78336.9
77815.7
77298.3
76790.1
76293.1
75800.5
75315.4
74835.2
74358.4
73886
73413.4
72947.2
72482.2
72025.5
71572.1
71126.2
70683.3
70252.6
69827.7
69415.5
69008.3
68608.4
68216.1
67824.6
67432.7
67047.7
66661.1
66281
65903.5
65535.6
65171.3
64815.6
64463.8
64119.8
63779.5
63446.7
63119.3
62799.1
62487.6
62173.7
61867.7
61563.3
61266.1
60966.6
60537.4
798476
186069
142819
131976
124928
119304
114894
111708
109704
108800
109009
110552
113480
118050
124605
133544
145404
161000
180911
205480
233964
265805
300707
335457
365688
396145
421746
440757
454721
462033
467296
465504
460678
450889
435989
417230
393111
361527
327555
294544
266556
242066
221393
204062
189485
177062
166186
156518
147796
139542
132106
124898
118474
112089
106469
101201
96666.6
92949.9
89085.3
86142.2
83433.2
80745.8
78677.4
76616
74990.2
73416.6
72114.5
70840.3
69617.2
68364.6