/*--------------------------------*- C++ -*----------------------------------*\
| =========                 |                                                 |
| \\      /  F ield         | OpenFOAM: The Open Source CFD Toolbox           |
|  \\    /   O peration     | Version:  2312                                  |
|   \\  /    A nd           | Website:  www.openfoam.com                      |
|    \\/     M anipulation  |                                                 |
\*---------------------------------------------------------------------------*/
FoamFile
{
    version     2.0;
    format      ascii;
    arch        "LSB;label=32;scalar=64";
    class       volScalarField;
    location    "0.002";
    object      p;
}
// * * * * * * * * * * * * * * * * * * * * * * * * * * * * * * * * * * * * * //

dimensions      [1 -1 -2 0 0 0 0];

internalField   nonuniform List<scalar> 
48128
(
3460.5
3460.24
3456.74
3455.57
3454.07
3451.29
3445.99
3436.28
3422.05
3402.13
3373.01
3340.92
3309.86
3282.12
3259.36
3242.17
3229.04
3219.79
3215.25
3215.26
3218.5
3225.82
3237.63
3254.43
3276.91
3305.81
3341.25
3384.44
3436.12
3495.81
3563.76
3640.58
3726.63
3822.07
3926.66
4043.05
4168.17
4304.18
4451.47
4607.97
4774.54
4949.66
5135.42
5328.33
5531.6
5739.99
5959.51
6184.62
6419.31
6655.58
6900.73
7145.63
7396.81
7645.03
7895.38
8142.16
8387.77
8630.3
8869.88
9104.01
9332.83
9555.71
9772.59
9982.62
10185.9
10380.8
10568.7
10746.4
10917.5
11078
11230.1
11374.3
11509.3
11634.5
11752.2
11855.8
11955.1
12040.4
12122.8
12193.8
12264.1
12322.5
12378.9
12425.6
12473.3
12515.1
12559.3
12593.2
12626.6
12652.4
12678.5
12699.8
12721.2
12738.6
12754.5
12768
12781.6
12796.7
12809.6
12822.7
12832.3
12841.2
12850.3
12859.5
12868.4
12877.7
12887.6
12898.5
12909.7
12921.6
12932.8
12945
12958.8
12973.6
12988.6
13000.8
12998.2
12988.8
12962.4
12925.3
12973.6
12972.4
12967.4
13009
13035.9
13060.1
13082.5
13099.1
13113.5
13127.9
13143
13158.4
13173.7
13185.1
13194.8
13201.7
13209
13217
13225.1
13233.4
13240.3
13247
13254.7
13260.2
13264.5
13263.8
13262
13255.8
13247.7
13258.7
13258.9
13259.5
13266
13271.9
13281.5
13292.5
13302.8
13314.9
13325
13334.6
13344.1
13351.8
13358
13362
13364.5
13363.7
13361.8
13358.6
13354.6
13349.5
13344
13344.3
13343.8
13345.2
13347.9
13354
13361.2
13370.8
13381.3
13392.1
13400.4
13407.6
13411.2
13412.5
13411.8
13409.5
13403.5
13398.7
13395
13391.5
13389.6
13389.4
13391.6
13395.7
13401.3
13408.7
13416.7
13424.7
13431.1
13435.9
13437.7
13438.8
13435.7
13432.9
13428.4
13424.7
13421.5
13419.2
13419.2
13420.3
13423
13428.2
13434.3
13441.2
13446.8
13451.6
13454.5
13457.3
13454.3
13452.5
13448.2
13444.8
13441.8
13439.5
13438.1
13438.6
13440.2
13443.1
13447.1
13452.7
13457.6
13463.7
13468.4
13467.9
13468.6
13467.9
13464.3
13461.3
13458.3
13454.2
3459.86
3460.02
3456.25
3455.37
3455.64
3452.57
3447.38
3437.84
3421.04
3399.19
3369.98
3337.69
3306.84
3280.26
3259.36
3242.23
3229.17
3220.02
3215.53
3215.54
3218.77
3226.02
3237.69
3254.33
3276.67
3305.63
3341.22
3383.71
3434.55
3493.61
3561.3
3637.82
3723.23
3817.8
3921.63
4036.77
4161.03
4295.87
4441.75
4597.18
4762.55
4936.25
5120.36
5311.93
5513.85
5721.1
5938.62
6161.98
6394.8
6629.58
6873.31
7116.55
7366.01
7613.34
7862.07
8108.08
8353.05
8595.17
8834.22
9068.31
9297.25
9520.4
9737.53
9947.9
10151.3
10346.8
10534.8
10712.2
10882.6
11043.8
11197
11342.1
11478.4
11604.6
11723
11827.9
11928
12014.3
12097.8
12170.4
12241.8
12301.3
12358.4
12406
12454.9
12498.1
12543.4
12578.2
12612.2
12638.7
12665.6
12687.6
12709.8
12727.8
12744.3
12758.2
12772.5
12788.2
12801.7
12815.2
12825.1
12834.4
12843.8
12853.4
12862.7
12872.3
12882.5
12893.7
12905.2
12917.4
12928.7
12941.1
12955.2
12970.3
12985.5
12997.7
12995
12985.7
12959.9
12921.9
12969.8
12970.2
12966.5
13005.9
13035.2
13058.8
13080.8
13097.4
13112
13126.3
13141.5
13157
13172.3
13183.7
13193.5
13200.4
13207.7
13215.8
13224
13232.4
13239.3
13246.1
13253.8
13259.3
13263.6
13262.8
13261.1
13255.1
13246.8
13257.6
13258.2
13259.1
13265.1
13271.6
13281
13292
13302.4
13314.5
13324.6
13334.3
13343.7
13351.4
13357.5
13361.6
13364.1
13363.4
13361.5
13358.3
13354.3
13349.2
13343.7
13344.2
13343.6
13345.1
13347.7
13353.9
13361.1
13370.7
13381.2
13392
13400.3
13407.5
13411.2
13412.4
13411.8
13409.5
13403.5
13398.6
13394.9
13391.4
13389.5
13389.3
13391.6
13395.7
13401.3
13408.7
13416.7
13424.7
13431.1
13435.9
13437.7
13438.8
13435.8
13432.9
13428.4
13424.7
13421.5
13419.2
13419.2
13420.4
13423
13428.2
13434.3
13441.2
13446.9
13451.6
13454.6
13457.3
13454.3
13452.5
13448.3
13444.8
13441.9
13439.5
13438.1
13438.7
13440.3
13443.2
13447.2
13452.7
13457.6
13463.8
13468.5
13467.9
13468.6
13468
13464.4
13461.4
13458.4
13454.3
3459.88
3458.84
3455.22
3455.81
3455.28
3452
3445.17
3432.08
3413.87
3389.98
3361.16
3332.56
3304.07
3278.19
3256.29
3239.82
3227.69
3219.2
3215.14
3215.34
3218.71
3225.94
3237.54
3254.17
3276.53
3304.94
3340.08
3382.32
3432.64
3490.91
3557.82
3633.75
3718.53
3812.13
3914.85
4028.61
4151.67
4284.87
4429.11
4583.06
4746.99
4919.11
5101.48
5291.31
5491.66
5697.37
5912.82
6134.54
6365.33
6599.13
6840.84
7083.11
7331.34
7577.55
7825.54
8071.07
8315.5
8557.16
8795.83
9029.99
9259.17
9482.9
9700.55
9911.61
10115.5
10311.5
10500.2
10678.5
10850.4
11012.4
11167.1
11313.2
11450.6
11578
11696.9
11802.9
11903.9
11990.7
12075.2
12149.2
12221.8
12282.1
12339.8
12388
12437.9
12482.4
12528.8
12564.1
12598.8
12625.8
12653.4
12676.1
12699
12717.4
12734.4
12748.7
12763.6
12779.8
12793.8
12807.8
12817.9
12827.5
12837.4
12847.3
12856.8
12866.7
12877.2
12888.7
12900.5
12912.9
12924.4
12937
12951.3
12966.7
12982.1
12994
12991.4
12981.8
12957.8
12919.4
12963.7
12968.2
12966.6
13003
13033.1
13057.1
13078.8
13095.2
13110.1
13124.5
13139.7
13155.3
13170.6
13182
13191.9
13198.9
13206.3
13214.5
13222.7
13231.1
13238.1
13245
13252.6
13258.2
13262.3
13261.7
13260
13254.4
13245.9
13256.1
13257.6
13258.5
13264.4
13271
13280.3
13291.3
13301.9
13313.8
13324
13333.8
13343.2
13350.9
13357
13361.1
13363.6
13362.9
13361
13357.8
13353.9
13348.8
13343.3
13343.9
13343.3
13344.8
13347.5
13353.7
13360.9
13370.5
13381
13391.7
13400.1
13407.3
13410.9
13412.2
13411.5
13409.3
13403.3
13398.5
13394.7
13391.3
13389.5
13389.2
13391.6
13395.6
13401.2
13408.6
13416.7
13424.6
13431
13435.9
13437.6
13438.7
13435.8
13432.8
13428.4
13424.7
13421.5
13419.1
13419.2
13420.4
13423
13428.3
13434.3
13441.2
13446.9
13451.6
13454.6
13457.4
13454.4
13452.4
13448.3
13444.8
13441.9
13439.6
13438.2
13438.7
13440.4
13443.2
13447.3
13452.8
13457.7
13463.8
13468.6
13468
13468.7
13468
13464.5
13461.4
13458.4
13454.3
3460.46
3456.39
3454.81
3454.54
3454.66
3449.63
3439.35
3423.75
3403.23
3379.13
3351.7
3322.22
3295.49
3272.2
3252.33
3237.19
3226.08
3218.32
3214.77
3215.09
3218.54
3225.74
3237.3
3253.78
3275.71
3303.53
3338.13
3379.74
3429.28
3486.77
3552.8
3627.94
3711.78
3804.34
3905.82
4018.26
4140.25
4271.74
4414.57
4567.14
4729.83
4900.37
5081.77
5269.91
5469.13
5672.93
5887.53
6107.79
6338.02
6570.55
6811.64
7053.23
7301.4
7546.94
7794.83
8040.37
8284.62
8526.24
8764.51
8998.81
9228.13
9452.45
9670.56
9882.26
10086.5
10282.4
10471.6
10650.3
10823.2
10985.4
11141.2
11288
11426.5
11555.4
11674.3
11781.3
11883
11969.8
12055.2
12130.4
12204.3
12265.1
12323.1
12371.7
12422.5
12468.2
12515.9
12551.6
12587
12614.3
12642.6
12665.7
12689.3
12708.1
12725.6
12740.2
12755.6
12772.2
12786.6
12801
12811.3
12821.3
12831.5
12841.7
12851.5
12861.7
12872.4
12884
12896.1
12908.7
12920.4
12933.3
12947.7
12963.3
12978.7
12990
12987.6
12977.5
12955.9
12918.8
12956.2
12965.8
12968.6
13000.2
13030.6
13055.3
13076.6
13092.9
13108.2
13122.7
13138
13153.6
13168.7
13180.1
13190.2
13197.3
13204.9
13213.1
13221.3
13229.8
13236.8
13243.8
13251.4
13256.9
13260.9
13260.5
13258.7
13253.8
13245.4
13254.4
13256.9
13258.2
13263.8
13270.4
13279.7
13290.7
13301.4
13313.2
13323.3
13333.2
13342.6
13350.3
13356.3
13360.4
13362.9
13362.4
13360.5
13357.3
13353.4
13348.5
13343
13343.5
13343.1
13344.7
13347.3
13353.5
13360.7
13370.3
13380.8
13391.5
13399.8
13406.9
13410.6
13411.9
13411.2
13409
13403.1
13398.3
13394.6
13391.2
13389.4
13389.2
13391.6
13395.5
13401.2
13408.6
13416.6
13424.5
13430.9
13435.8
13437.4
13438.6
13435.7
13432.7
13428.3
13424.6
13421.5
13419.2
13419.3
13420.4
13423.1
13428.3
13434.4
13441.1
13446.9
13451.5
13454.5
13457.3
13454.4
13452.3
13448.4
13444.8
13441.9
13439.6
13438.3
13438.8
13440.4
13443.3
13447.3
13452.8
13457.8
13463.8
13468.6
13468.2
13468.6
13468
13464.5
13461.4
13458.4
13454.4
3460.59
3454.86
3454.16
3454.27
3452.29
3444.39
3431.14
3412.95
3391.42
3366.53
3339.67
3312.55
3287.54
3266.05
3248.2
3234.41
3224.25
3217.17
3214.02
3214.38
3217.88
3225.05
3236.4
3252.47
3273.91
3301.14
3334.94
3375.94
3424.69
3481.41
3546.61
3621
3703.96
3795.52
3895.69
4007.04
4128.23
4258.21
4400.11
4551.81
4713.72
4882.47
5064.4
5251.39
5450.64
5653.32
5868.28
6088.27
6318.72
6549.59
6790.95
7032.56
7281.5
7526.94
7775.61
8021.22
8265.51
8506.9
8745.31
8979.48
9209.56
9434.09
9653.03
9864.83
10069
10264.6
10454
10632.5
10806.2
10967.9
11124.2
11270.4
11409.7
11539.8
11657.9
11765.8
11867.8
11953.8
12039.8
12116
12190.9
12251.9
12309.8
12358.2
12409.7
12456.6
12505.5
12541.3
12577.2
12604.8
12633.6
12657.1
12681.3
12700.4
12718.4
12733.2
12749.1
12766.1
12780.7
12795.5
12805.9
12816.2
12826.7
12837.2
12847.2
12857.6
12868.5
12880.3
12892.5
12905.2
12917.2
12930.3
12944.8
12960.6
12975.8
12986
12983.7
12973.2
12954.4
12920.1
12949
12963.5
12972.3
12998.5
13028.4
13053.5
13074.4
13090.8
13106.6
13121.2
13136.5
13152
13166.8
13178.2
13188.5
13195.8
13203.7
13211.9
13220.1
13228.5
13235.6
13242.7
13250.3
13255.5
13259.4
13259.2
13257.4
13253.2
13245.3
13252.7
13256.2
13258.2
13263.4
13270.1
13279.3
13290.2
13300.9
13312.5
13322.6
13332.7
13342
13349.6
13355.6
13359.7
13362.1
13361.7
13359.9
13356.8
13353
13348.3
13342.8
13343.1
13343
13344.7
13347.3
13353.4
13360.6
13370.2
13380.5
13391.2
13399.4
13406.5
13410.1
13411.5
13410.7
13408.6
13402.9
13398.2
13394.5
13391
13389.4
13389.3
13391.6
13395.6
13401.3
13408.6
13416.5
13424.3
13430.7
13435.6
13437.2
13438.4
13435.5
13432.6
13428.2
13424.6
13421.5
13419.2
13419.4
13420.6
13423.1
13428.4
13434.4
13441.1
13446.9
13451.4
13454.4
13457.2
13454.5
13452.2
13448.4
13444.8
13441.9
13439.6
13438.4
13438.9
13440.5
13443.4
13447.4
13452.9
13457.9
13463.7
13468.5
13468.3
13468.6
13468
13464.6
13461.5
13458.5
13454.5
3464.29
3455.62
3456.02
3454.04
3448.51
3437.55
3421.21
3401.21
3378.74
3354.05
3327.75
3302.62
3279.76
3260.11
3243.92
3231.32
3221.99
3215.6
3212.71
3213.11
3216.67
3223.63
3234.65
3250.23
3271.1
3297.63
3330.71
3371.15
3419.21
3475.15
3539.51
3613.27
3695.42
3786.15
3884.97
3995.47
4116.24
4245.04
4386.82
4538.63
4700.37
4868.18
5048.99
5235.87
5436.06
5638.14
5854.51
6074.82
6306.12
6535.79
6777.92
7018.92
7268.59
7513.07
7764
8008.02
8253.34
8492.19
8732.55
8964.88
9197.2
9421.39
9641.94
9853.69
10057.6
10252.7
10442.1
10620.6
10795.1
10956.3
11113.3
11258.6
11398.7
11529.7
11646.4
11755.4
11857.1
11941.9
12028.7
12106.1
12181.5
12242.5
12299.6
12347.2
12399.2
12446.9
12496.9
12532.7
12569.1
12596.8
12626.3
12650
12674.7
12693.8
12712.2
12727.4
12744
12761.1
12775.8
12790.9
12801.4
12812.2
12823
12833.7
12843.9
12854.5
12865.6
12877.6
12889.8
12902.6
12914.8
12928.3
12942.9
12958.7
12973.2
12981.8
12979.6
12968.9
12953.4
12923
12943.2
12962.3
12977
12998.2
13026.5
13051.8
13072.3
13088.8
13105.3
13120
13135.4
13150.7
13165.1
13176.5
13186.9
13194.5
13202.8
13210.9
13219.1
13227.5
13234.6
13241.8
13249.3
13254.3
13257.9
13258
13256.1
13252.7
13245.6
13251.2
13255.6
13258.4
13263.4
13270.1
13279
13289.8
13300.5
13311.9
13322.1
13332.2
13341.4
13348.9
13354.9
13358.9
13361.3
13361
13359.3
13356.3
13352.5
13348.2
13342.8
13342.8
13343
13344.8
13347.5
13353.5
13360.7
13370.1
13380.4
13390.8
13399
13406
13409.5
13411
13410.2
13408.2
13402.8
13398.1
13394.4
13391
13389.5
13389.5
13391.7
13395.7
13401.4
13408.7
13416.4
13424.1
13430.5
13435.3
13436.9
13438.3
13435.2
13432.4
13428.2
13424.6
13421.5
13419.3
13419.5
13420.7
13423.3
13428.5
13434.5
13441
13446.8
13451.2
13454.2
13457.1
13454.4
13452.1
13448.4
13444.9
13441.9
13439.7
13438.5
13439
13440.7
13443.6
13447.6
13452.9
13458
13463.5
13468.4
13468.5
13468.5
13467.9
13464.6
13461.5
13458.5
13454.5
3469.59
3461.13
3458.75
3453.35
3444.02
3429.42
3410.69
3389.74
3366.98
3341.48
3316.41
3293.15
3272.29
3254.38
3239.62
3228.04
3219.43
3213.67
3211.05
3211.41
3214.92
3221.55
3232.08
3247.15
3267.41
3293.27
3325.61
3365.58
3412.94
3468.13
3531.59
3604.89
3686.35
3776.43
3874.04
3984.55
4105.3
4232.49
4375.04
4526.83
4688.94
4855.85
5036.43
5222.53
5423.17
5624.62
5842.02
6061.54
6292.24
6520.64
6766.36
7002.7
7253.7
7492.56
7750.1
7987.81
8237.14
8469.4
8711.79
8940.14
9175.58
9399.68
9622.74
9835
10038.9
10233.1
10423
10601.5
10777.3
10938.3
11097.3
11242.8
11385.2
11517.4
11632.9
11744.5
11845.7
11929.7
12018
12097.7
12172.8
12234.1
12290.5
12337.6
12390.6
12439.2
12489.6
12525.3
12562.7
12590.3
12621
12644.4
12669.7
12687.8
12706.9
12722.3
12739.9
12756.8
12771.7
12787
12797.6
12809
12819.9
12830.8
12841.3
12852.1
12863.4
12875.5
12887.8
12900.6
12913
12927.1
12941.6
12957.6
12970.7
12977
12974.8
12964.4
12953.1
12927.1
12939.5
12961.9
12982.1
12999.7
13025.2
13050
13070.1
13087
13104.3
13119.2
13134.8
13149.6
13163.5
13174.9
13185.5
13193.5
13202.2
13210.3
13218.4
13226.7
13233.7
13241.1
13248.5
13253
13256.3
13256.8
13255
13252.4
13246.3
13250.2
13255.2
13258.8
13263.8
13270.4
13279.1
13289.7
13300.4
13311.4
13321.6
13331.9
13340.8
13348.2
13354.1
13358.2
13360.5
13360.3
13358.7
13355.9
13352.1
13348.3
13343
13342.6
13343.2
13345.1
13347.9
13353.8
13360.9
13370.2
13380.3
13390.5
13398.5
13405.4
13408.7
13410.6
13409.5
13407.6
13402.7
13398.1
13394.4
13391.1
13389.7
13389.8
13391.9
13396
13401.7
13408.8
13416.3
13423.8
13430.2
13434.9
13436.6
13437.9
13435
13432.2
13428.1
13424.6
13421.7
13419.5
13419.8
13421
13423.6
13428.6
13434.6
13441
13446.7
13451
13454
13456.9
13454.3
13451.9
13448.5
13444.9
13442
13439.8
13438.7
13439.2
13440.8
13443.8
13447.8
13453
13458
13463.3
13468.2
13468.7
13468.4
13467.7
13464.7
13461.6
13458.6
13454.6
3477.96
3467.55
3461.21
3451.94
3438.51
3420.92
3400.92
3379.52
3354.83
3329.74
3306.16
3284.58
3265.43
3249.02
3235.48
3224.77
3216.82
3211.63
3209.23
3209.33
3212.6
3218.87
3228.9
3243.38
3263.08
3288.25
3319.86
3359.36
3406.11
3460.57
3522.95
3596.12
3677.5
3766.8
3863.05
3974.47
4096
4220.31
4363.5
4514.74
4677.03
4843.55
5023.79
5208.27
5407.29
5607.48
5825.88
6040.7
6268.57
6488.93
6746.9
6972.01
7225.21
7453.32
7719.52
7949.83
8202.27
8426.96
8668.81
8893.27
9131.85
9354.93
9581.61
9794.4
9998.69
10193
10383
10562.6
10740.2
10901.8
11064.4
11211
11357.4
11491.3
11605.7
11722
11823.4
11907.3
11998
12081
12158.5
12218.3
12276.7
12324.1
12381.1
12428.5
12482.3
12515.1
12556.3
12582.8
12616.4
12638.5
12665.7
12681.7
12702.6
12717.6
12737.2
12753.2
12768.2
12784
12794.3
12806.7
12817.3
12828.4
12839.2
12850.3
12861.8
12874.1
12886.2
12899.3
12911.7
12926.5
12940.9
12957
12967.8
12971.2
12968.6
12959.2
12953.1
12932.4
12938.9
12962.4
12986.9
13002.9
13024.8
13047.6
13067.9
13085.1
13103.7
13118.6
13134.5
13148.7
13161.9
13173.2
13184.2
13192.5
13201.9
13209.8
13218
13226.1
13233.1
13240.7
13247.8
13251.7
13254.7
13255.6
13253.8
13252.3
13247.3
13249.8
13255
13259.5
13264.5
13271
13279.4
13289.8
13300.3
13311.2
13321.1
13331.6
13340.1
13347.6
13353.3
13357.4
13359.4
13359.6
13358
13355.5
13351.8
13348.4
13343.4
13342.7
13343.4
13345.5
13348.5
13354.3
13361.4
13370.4
13380.2
13390.1
13397.9
13404.7
13407.9
13410.3
13408.7
13407.1
13402.6
13398.2
13394.5
13391.3
13390
13390.3
13392.3
13396.4
13402.1
13409
13416.2
13423.6
13429.9
13434.5
13436.1
13437.5
13434.8
13432
13428.1
13424.7
13421.8
13419.8
13420.1
13421.4
13423.9
13428.8
13434.8
13440.9
13446.6
13450.7
13453.7
13456.7
13454.1
13451.8
13448.5
13445
13442.1
13439.9
13438.9
13439.5
13441.1
13444.1
13448
13453.1
13458.1
13463.1
13468
13468.8
13468.2
13467.5
13464.7
13461.6
13458.7
13454.7
3484.74
3473.28
3462.81
3449.38
3432.51
3413.07
3392.41
3368.81
3343.51
3319.49
3297.16
3277.03
3259.33
3244.19
3231.68
3221.76
3214.41
3209.56
3207.15
3206.94
3209.85
3215.79
3225.26
3239.1
3258.28
3282.8
3313.52
3352.67
3398.98
3453.18
3514
3586.53
3668.98
3758.06
3852.53
3963.72
4085.77
4208.04
4351.98
4501.09
4661.55
4828.21
5005.31
5186.53
5381.03
5576.27
5804.16
6004.69
6230.97
6433.76
6704.35
6918.44
7174.31
7390.01
7660.11
7886.33
8139.44
8357.57
8597.26
8819.75
9058.93
9284.37
9514.83
9730.37
9935.56
10130.3
10321
10502.9
10682.5
10845.7
11013.1
11161.4
11313.4
11448.3
11563.3
11684.9
11788.2
11870.1
11968.4
12050.4
12136.5
12188.5
12255.3
12300.5
12367.8
12409.2
12470
12497
12545.1
12570.4
12608.2
12629
12658.8
12673.6
12697.3
12712.5
12734.4
12749.2
12764.5
12780.6
12791
12804.9
12814.9
12826.3
12837.4
12849
12860.8
12873.3
12885.1
12898.5
12911
12926.8
12940.5
12956.8
12964
12963.9
12960.7
12954.2
12952
12938.4
12942.6
12965.3
12992
13006.8
13025
13044.9
13065.4
13083.1
13103
13118
13134.5
13147.7
13160.2
13171.4
13182.8
13191.6
13201.8
13209.4
13217.7
13225.6
13232.4
13240.4
13247.1
13250.1
13252.9
13254.2
13252.8
13252.1
13248.5
13250.1
13254.9
13260.3
13265.6
13272
13280.1
13290.2
13300.4
13311.1
13320.6
13331.4
13339.3
13347
13352.3
13356.7
13358.3
13358.8
13357.2
13355.1
13351.5
13348.5
13344
13343.1
13344
13346.2
13349.4
13355.1
13362.1
13370.9
13380.2
13389.7
13397.3
13403.9
13407
13409.7
13407.9
13406.4
13402.5
13398.4
13394.7
13391.6
13390.5
13390.9
13392.9
13396.9
13402.5
13409.3
13416.2
13423.3
13429.5
13434
13435.5
13437
13434.5
13431.8
13428.1
13424.8
13422.1
13420.2
13420.5
13421.9
13424.4
13429.1
13434.9
13440.9
13446.5
13450.3
13453.3
13456.4
13453.9
13451.6
13448.5
13445.1
13442.2
13440.1
13439.2
13439.8
13441.4
13444.4
13448.3
13453.2
13458.1
13462.9
13467.7
13468.9
13468.1
13467.3
13464.8
13461.7
13458.7
13454.9
3488.94
3476.72
3463.02
3446.09
3426.9
3405.83
3384.13
3358.6
3333.86
3310.74
3289.52
3270.61
3254.1
3240.03
3228.38
3219.13
3212.19
3207.41
3204.81
3204.42
3206.91
3212.43
3221.3
3234.42
3253.2
3277.15
3306.74
3345.96
3391.51
3445.59
3505.55
3578.3
3659.19
3748.64
3841.65
3952.83
4073.98
4194.04
4337.7
4482.16
4635.89
4803.89
4980.01
5153.23
5343.1
5521.09
5764.83
5949.85
6174.38
6353.39
6626.18
6834.29
7094.14
7302
7567.25
7792.56
8041.97
8257.94
8491.48
8718.7
8954.21
9185.21
9414.36
9638.35
9843.46
10040.4
10238.3
10416.4
10607.3
10763.8
10944.1
11090
11251.4
11385
11505.8
11633.6
11738.3
11819.2
11933.9
12005.3
12101.9
12147.5
12224.1
12270.3
12347.8
12383.4
12448.5
12472.8
12525.4
12553.4
12592.8
12615.3
12646
12662.7
12687.7
12705
12728.3
12742.3
12758.7
12774.9
12786.1
12801.6
12812
12823.9
12835.6
12847.6
12859.8
12872.3
12884.4
12897.6
12911.1
12927.1
12940.2
12955.7
12958.2
12955.4
12951.9
12949.7
12951.8
12945.7
12949.5
12971.2
12997
13009.9
13025.5
13042.9
13062.6
13081
13102
13117.6
13134.2
13146.6
13158.4
13169.6
13181.2
13190.8
13201.5
13209.1
13217.5
13225.1
13232
13240
13246.3
13248.4
13251.2
13252.5
13251.9
13251.9
13249.9
13251.1
13255.3
13261.1
13266.9
13273.4
13281.1
13290.7
13300.6
13311
13320.4
13330.9
13338.6
13346.1
13351.3
13355.8
13357
13357.8
13356.4
13354.6
13351.4
13348.7
13344.7
13343.8
13344.8
13347.1
13350.5
13356
13362.9
13371.4
13380.2
13389.3
13396.6
13402.9
13406.1
13408.8
13407.1
13405.5
13402.5
13398.6
13395
13392
13391.2
13391.7
13393.7
13397.6
13403.1
13409.6
13416.2
13423
13429.1
13433.4
13434.8
13436.4
13434.2
13431.5
13428.1
13425
13422.5
13420.7
13421
13422.4
13425
13429.5
13435.1
13440.9
13446.3
13449.9
13453
13456
13453.6
13451.4
13448.6
13445.3
13442.4
13440.4
13439.5
13440.1
13441.8
13444.7
13448.6
13453.4
13458.1
13462.6
13467.4
13469
13467.9
13467.1
13464.8
13461.8
13458.8
13455
3489.83
3477.39
3461.56
3442.36
3421.45
3398.9
3375.91
3349.84
3325.84
3303.47
3283.25
3265.38
3249.86
3236.65
3225.69
3216.88
3210.1
3205.25
3202.49
3201.87
3203.88
3208.94
3217.18
3229.48
3248.05
3271.72
3299.4
3339.37
3384.39
3438.09
3496.85
3570.18
3649.61
3738.3
3829.58
3940.09
4057.03
4175.52
4320.07
4456.38
4596.3
4756.27
4948.08
5103.5
5292.23
5442.88
5691.62
5865.99
6091.41
6254.54
6506.7
6714.92
6969.96
7182.73
7432.3
7664.72
7906.04
8126.44
8351.61
8581.74
8811.88
9053.77
9275.08
9510.61
9712.55
9922.04
10119.6
10305.5
10507.4
10656.8
10857.7
10990.7
11167.4
11293.1
11425.8
11565
11660.3
11765.2
11888.7
11947.2
12049.8
12094.7
12181.4
12233
12317.2
12350.6
12416.9
12443.7
12499.4
12530.4
12572.8
12595.5
12628.5
12647.7
12675.5
12694.2
12719.2
12732.9
12750.7
12766.1
12779.2
12796.6
12807.6
12820.2
12832.4
12845.2
12857.7
12870.2
12882.6
12895.9
12910.4
12927.1
12938.8
12951.7
12950
12945.1
12942.9
12945.2
12952.8
12954.5
12960.7
12978.5
13001
13012.2
13025.8
13041.2
13059.6
13078.9
13100.7
13117
13133.9
13145
13156.4
13167.7
13179.6
13189.8
13201.2
13208.6
13217.3
13224.4
13231.5
13239.5
13244.8
13246.7
13249.1
13250.6
13250.9
13251.9
13251.4
13252.5
13256.2
13262.1
13268.4
13275
13282.3
13291.4
13300.9
13310.9
13320.2
13330.5
13337.7
13345.2
13350.1
13354.6
13355.7
13356.7
13355.5
13354
13351.2
13349
13345.6
13344.7
13345.7
13348.3
13351.9
13357.2
13363.9
13372
13380.3
13388.8
13395.7
13401.9
13404.8
13407.8
13406.3
13404.7
13402.4
13398.9
13395.4
13392.7
13392
13392.7
13394.6
13398.5
13403.7
13409.9
13416.2
13422.7
13428.5
13432.7
13434.1
13435.7
13433.8
13431.3
13428.2
13425.3
13422.9
13421.3
13421.6
13423.1
13425.7
13430
13435.3
13440.8
13446
13449.4
13452.6
13455.6
13453.3
13451.1
13448.6
13445.5
13442.6
13440.7
13439.9
13440.6
13442.2
13445.2
13449
13453.5
13458.2
13462.4
13467
13469
13467.6
13466.8
13464.7
13461.8
13458.9
13455.2
3488.4
3475.42
3458.54
3437.99
3415.47
3392.81
3368.24
3342.73
3319.26
3297.65
3278.35
3261.36
3246.63
3234.1
3223.61
3215.01
3208.23
3203.31
3200.31
3199.33
3200.79
3205.44
3213.14
3224.6
3242.9
3266.5
3293.31
3332.51
3377.28
3431.25
3488.34
3562.07
3639.12
3724.98
3815
3926.24
4031.54
4143.92
4298.61
4421.23
4545.19
4681.69
4892.87
5032.78
5221.55
5349.46
5582.58
5745.79
5967.99
6131.57
6349.77
6567.07
6804.65
7032.53
7258.72
7500.23
7717.31
7959.94
8159.57
8414.14
8617.43
8891.03
9085.55
9353.46
9532.27
9777.69
9953.92
10167.8
10355.2
10539.2
10742.6
10876.1
11067.3
11175.7
11324
11468.6
11566.7
11707.8
11816.7
11877.5
11987.4
12030.6
12129
12186.7
12276
12308.9
12377.4
12409
12469.2
12500.3
12547.5
12568.7
12606.3
12628.9
12660.7
12680
12707
12720.4
12740.3
12754.3
12770.1
12789.8
12801.1
12815
12827.8
12841.6
12854.3
12867
12879.9
12893.6
12908.9
12926.3
12935.8
12944.6
12939.3
12933
12933.6
12939.7
12953
12964.5
12975
12987
13004.2
13014.7
13026.3
13039.8
13056.9
13076.4
13098.7
13115.5
13132.9
13142.9
13154.2
13165.6
13177.6
13188.7
13200.7
13208.1
13217
13223.7
13230.9
13238.7
13242.8
13244.7
13246.8
13248.5
13249.7
13251.8
13253
13254.2
13257.5
13263.3
13269.9
13276.7
13283.8
13292.2
13301.2
13310.8
13319.9
13329.9
13336.7
13344
13348.6
13353.2
13354.2
13355.3
13354.4
13353.3
13351.1
13349.5
13346.7
13345.9
13346.9
13349.6
13353.4
13358.6
13365.1
13372.7
13380.4
13388.2
13394.6
13400.6
13403.5
13406.7
13405.2
13403.9
13402.2
13399.1
13395.9
13393.4
13393
13393.8
13395.8
13399.5
13404.6
13410.3
13416.3
13422.4
13427.8
13431.8
13433.3
13434.9
13433.3
13431
13428.2
13425.6
13423.4
13422
13422.4
13423.9
13426.5
13430.7
13435.6
13440.8
13445.8
13448.9
13452.1
13455
13452.8
13450.8
13448.5
13445.7
13442.9
13441
13440.4
13441
13442.7
13445.7
13449.4
13453.7
13458.2
13462.1
13466.6
13468.9
13467.4
13466.5
13464.7
13461.9
13459.1
13455.4
3484.35
3471.21
3454.02
3432.82
3409.54
3387.35
3361.81
3337.18
3314.16
3293.31
3274.8
3258.54
3244.44
3232.39
3222.16
3213.59
3206.73
3201.67
3198.3
3196.86
3197.8
3202.21
3209.59
3220.01
3238.23
3261.23
3287.31
3327.49
3371.32
3424.71
3479.81
3553.17
3625.63
3703.89
3792.42
3915.65
3999.62
4090.18
4260.96
4371.75
4490.99
4590.79
4798.92
4929.04
5121.72
5242.25
5443.64
5593.61
5798.14
5977.87
6174.24
6386.1
6592.71
6843.76
7040.1
7306.25
7488.01
7765.04
7934.74
8228.53
8402.56
8703.89
8871.44
9166.91
9326.73
9608.29
9762.83
10018.9
10172.4
10403.1
10574.9
10752.5
10945.7
11046.2
11217.2
11333.3
11463.1
11631.3
11713.4
11801.3
11915.5
11961.7
12075.5
12131.2
12224.1
12257
12332.8
12369
12435.6
12465
12517.4
12536.8
12581.3
12605.6
12642.5
12662.4
12691.5
12704.7
12727.5
12739.8
12759.2
12780.3
12792.2
12808.3
12821.3
12836.4
12849.6
12862.9
12876.6
12891
12907
12924.1
12930.9
12934.2
12925.4
12920.4
12924
12934.6
12953.4
12974.6
12990.9
12995.7
13007.2
13016.9
13026.7
13038.5
13054.4
13073.5
13095.9
13112.9
13130.9
13140.4
13151.6
13163
13175.4
13187.2
13199.7
13207.3
13216.6
13222.7
13230
13237.4
13240.4
13242.3
13244.1
13246.2
13248.3
13251.5
13254.4
13256
13259.2
13264.7
13271.5
13278.5
13285.4
13293.2
13301.6
13310.7
13319.6
13329.1
13335.4
13342.6
13346.9
13351.4
13352.4
13353.9
13353.5
13352.6
13350.9
13349.9
13347.9
13347.4
13348.5
13351.3
13355.1
13360.2
13366.4
13373.4
13380.4
13387.4
13393.4
13399.2
13402
13405.2
13403.9
13403
13401.9
13399.4
13396.5
13394.3
13394.1
13395
13397.1
13400.7
13405.4
13410.8
13416.3
13422
13427
13430.9
13432.3
13434
13432.6
13430.7
13428.3
13426
13424
13422.8
13423.2
13424.7
13427.4
13431.3
13435.8
13440.7
13445.4
13448.4
13451.5
13454.4
13452.4
13450.5
13448.5
13445.9
13443.2
13441.5
13441
13441.6
13443.3
13446.2
13449.8
13453.9
13458.2
13461.8
13466.1
13468.7
13467.1
13466.2
13464.6
13461.9
13459.2
13455.6
3478.19
3465.42
3448.5
3427.44
3404.66
3382.07
3356.74
3332.97
3310.55
3290.44
3272.62
3256.94
3243.3
3231.54
3221.4
3212.68
3205.69
3200.41
3196.61
3194.67
3195.29
3199.59
3206.17
3215.32
3234.31
3257.93
3282.55
3323.62
3365.87
3416.98
3469.77
3541.93
3608.46
3673.69
3750.57
3899.13
3970.36
4025.63
4194.63
4293.52
4429.62
4499.41
4678.61
4794.77
4978.63
5105.27
5276.47
5420.84
5595.22
5781.09
5965.06
6178.16
6361.14
6620.51
6804.92
7087.28
7239.42
7542.18
7695.3
8016.54
8176.84
8481.71
8631.88
8945.97
9098.54
9404.72
9553.94
9844.86
9988.34
10254.2
10392.6
10619.9
10779.6
10923.7
11120.2
11192.4
11367.5
11531.1
11593.6
11723.3
11819.2
11894.9
12028
12065.2
12159.9
12196
12284.3
12323.8
12397.5
12423.9
12481.7
12501.7
12554
12579.6
12622.2
12641
12673.6
12686.6
12712.9
12724.3
12747.9
12767.8
12781.9
12800.9
12813.8
12830.4
12843.6
12857.8
12872.4
12887.7
12904
12919.1
12922.5
12920.3
12907.9
12907.6
12915.6
12931.7
12955.2
12984.9
13006.2
13004.8
13010.8
13018.4
13026.9
13037.7
13052.5
13070.7
13092.3
13109
13127.6
13137.3
13148.6
13160
13172.6
13184.9
13198
13205.9
13215.6
13221.3
13228.5
13235.2
13237.2
13239.4
13241.3
13244.2
13247.7
13252.2
13256.6
13258.2
13261.3
13266.4
13273
13280.1
13287
13294.3
13302
13310.5
13319
13328.1
13333.8
13340.8
13344.9
13349.6
13350.6
13352.2
13352
13351.6
13350.6
13350.3
13349.2
13349.1
13350.3
13353.1
13357.2
13362.2
13367.9
13374.2
13380.3
13386.6
13392.2
13397.6
13400.1
13403.5
13402.5
13402
13401.6
13399.6
13397.1
13395.4
13395.4
13396.4
13398.6
13402
13406.4
13411.3
13416.4
13421.6
13426.1
13429.9
13431.2
13433
13431.9
13430.3
13428.4
13426.4
13424.7
13423.7
13424.1
13425.7
13428.5
13432.1
13436.1
13440.6
13445.1
13447.8
13450.8
13453.6
13451.8
13450.1
13448.4
13446.2
13443.6
13442
13441.6
13442.2
13444
13446.8
13450.3
13454.1
13458.2
13461.5
13465.6
13468.4
13466.8
13465.9
13464.4
13462
13459.4
13455.9
3470.85
3458.85
3442.59
3422.04
3400.64
3377.5
3353.12
3330.06
3308.42
3289.03
3271.76
3256.51
3243.14
3231.5
3221.3
3212.36
3205.13
3199.65
3195.51
3193
3192.61
3196.88
3203.65
3212.19
3232.16
3255.91
3278.45
3319.91
3359.07
3404.78
3455.47
3528.25
3588.62
3641.49
3692.68
3851.47
3938.03
3965.74
4112.03
4191.94
4336.25
4401.68
4542.92
4646.77
4800.18
4931.55
5075.13
5223.09
5377.98
5547.4
5716.26
5900.2
6077.84
6278.34
6458.57
6707.55
6868.34
7173.37
7335.1
7658.88
7820.29
8149.25
8294.69
8625.02
8781.43
9113.84
9263.4
9585.6
9734.78
10030.5
10162.6
10428
10551.5
10764.8
10956.9
11052.1
11259.7
11398.5
11472.9
11639.8
11710
11832.3
11975.4
11996.6
12094.9
12137.1
12237.5
12277.4
12357.2
12380.6
12444
12467.1
12526.4
12553.1
12600.3
12617.7
12654.5
12667.7
12698.1
12709.2
12736.2
12753.3
12771.2
12793.5
12806.3
12824.3
12837.2
12852.5
12868.1
12884.6
12899.6
12911.4
12910.9
12903.7
12889.5
12895.7
12909.8
12930.5
12957.8
12992.3
13018.8
13013.8
13015
13019.8
13026.9
13037.3
13051.2
13068
13087.7
13103.5
13122.7
13133.5
13145.5
13156.6
13169.6
13182.1
13195.9
13204.6
13214.7
13220.2
13227.1
13233.2
13234.5
13236.1
13238
13241.5
13246
13251.8
13257.9
13260.4
13263.9
13269
13275.4
13282.1
13288.8
13295.4
13302.5
13310.2
13318.2
13326.9
13332.5
13339.4
13342.4
13347
13348.1
13350
13350.3
13350.5
13350.3
13350.7
13350.6
13350.9
13352.3
13355.1
13359.3
13364.2
13369.6
13375.2
13380.3
13385.7
13390.6
13395.7
13398.1
13401.5
13401
13400.9
13401.1
13399.7
13397.9
13396.6
13396.8
13398
13400.2
13403.5
13407.4
13411.8
13416.4
13421.1
13425
13428.6
13430
13431.8
13431
13429.8
13428.5
13426.8
13425.4
13424.6
13425.2
13426.9
13429.6
13432.9
13436.4
13440.5
13444.6
13447.2
13450
13452.7
13451.2
13449.7
13448.3
13446.4
13444
13442.5
13442.3
13442.9
13444.7
13447.5
13450.8
13454.3
13458.1
13461.1
13465
13468
13466.4
13465.5
13464.2
13462
13459.6
13456.2
3463.09
3452.07
3436.78
3417.04
3397.28
3374.13
3350.86
3328.55
3307.74
3288.97
3272.15
3257.17
3243.93
3232.25
3221.85
3212.63
3205.18
3199.38
3194.59
3191.55
3190.44
3195.46
3202.76
3210.15
3230.83
3253.72
3273.05
3314.29
3348.86
3385.03
3431.41
3513.55
3563.24
3615.95
3636.91
3760.8
3880.14
3908.32
4025.46
4082.63
4206.86
4281.76
4384.17
4487.11
4600.82
4724.1
4849.93
4963.79
5073.86
5192.52
5346.78
5510.3
5735.08
5872.31
6124.16
6302.33
6562.01
6787.27
7008.3
7329.15
7477.91
7827.25
7982.08
8337.53
8484.92
8839.48
8990.84
9339.89
9491.76
9810.4
9945.03
10235
10341.8
10598
10752.8
10908.5
11124.3
11214.7
11347.4
11525
11584.9
11740.7
11877.3
11908.4
12023.5
12071.9
12178.1
12216.3
12304
12329.2
12400.8
12429.4
12494.7
12521.9
12573.6
12590.6
12632.2
12646.9
12681.7
12693.9
12722.9
12737.5
12760
12784.9
12798.8
12818.4
12830.7
12847.5
12864.2
12881.5
12893.8
12901.3
12897
12885.5
12872.7
12886.6
12907.3
12932.3