/*--------------------------------*- C++ -*----------------------------------*\
| =========                 |                                                 |
| \\      /  F ield         | OpenFOAM: The Open Source CFD Toolbox           |
|  \\    /   O peration     | Version:  2312                                  |
|   \\  /    A nd           | Website:  www.openfoam.com                      |
|    \\/     M anipulation  |                                                 |
\*---------------------------------------------------------------------------*/
FoamFile
{
    version     2.0;
    format      ascii;
    arch        "LSB;label=32;scalar=64";
    class       surfaceScalarField;
    location    "0.002";
    object      phi;
}
// * * * * * * * * * * * * * * * * * * * * * * * * * * * * * * * * * * * * * //

dimensions      [1 0 -1 0 0 0 0];

oriented        oriented;

internalField   nonuniform List<scalar> 
95760
(
5.22473e-09
-5.2472e-09
7.85888e-09
-2.6567e-09
7.84554e-09
-9.05699e-12
7.35258e-09
4.70986e-10
6.74496e-09
5.8628e-10
3.07324e-09
3.65171e-09
-5.25225e-09
8.30769e-09
-1.81326e-08
1.28632e-08
-3.66072e-08
1.84577e-08
-5.5771e-08
1.91467e-08
-7.24641e-08
1.6676e-08
-8.68849e-08
1.44035e-08
-9.92076e-08
1.23047e-08
-1.09742e-07
1.05159e-08
-1.18882e-07
9.1203e-09
-1.26969e-07
8.06753e-09
-1.34285e-07
7.29607e-09
-1.41065e-07
6.76059e-09
-1.47434e-07
6.35069e-09
-1.53462e-07
6.00947e-09
-1.59237e-07
5.75749e-09
-1.64763e-07
5.50859e-09
-1.70054e-07
5.27238e-09
-1.75096e-07
5.02463e-09
-1.79878e-07
4.7647e-09
-1.84323e-07
4.42833e-09
-1.88487e-07
4.14866e-09
-1.923e-07
3.79741e-09
-1.96e-07
3.68526e-09
-1.99357e-07
3.34079e-09
-2.02035e-07
2.66159e-09
-2.04203e-07
2.14948e-09
-2.05933e-07
1.71068e-09
-2.0713e-07
1.17621e-09
-2.07503e-07
3.52188e-10
-2.07154e-07
-3.6995e-10
-2.05929e-07
-1.24293e-09
-2.03961e-07
-1.98206e-09
-2.0079e-07
-3.18172e-09
-1.96525e-07
-4.27244e-09
-1.91229e-07
-5.3012e-09
-1.84907e-07
-6.32618e-09
-1.77046e-07
-7.85786e-09
-1.67862e-07
-9.17425e-09
-1.57238e-07
-1.06147e-08
-1.4576e-07
-1.1468e-08
-1.32692e-07
-1.30658e-08
-1.17958e-07
-1.47374e-08
-1.01128e-07
-1.68349e-08
-8.31977e-08
-1.79345e-08
-6.32139e-08
-1.99797e-08
-4.21153e-08
-2.1091e-08
-1.90249e-08
-2.30867e-08
4.96165e-09
-2.39926e-08
3.00988e-08
-2.51524e-08
5.65116e-08
-2.64312e-08
8.48866e-08
-2.83916e-08
1.1462e-07
-2.97451e-08
1.45495e-07
-3.08783e-08
1.77071e-07
-3.15726e-08
2.09379e-07
-3.22975e-08
2.42273e-07
-3.28731e-08
2.75859e-07
-3.35532e-08
3.10001e-07
-3.40962e-08
3.44878e-07
-3.48211e-08
3.79981e-07
-3.50489e-08
4.15341e-07
-3.53117e-08
4.50383e-07
-3.50021e-08
4.85516e-07
-3.50994e-08
5.20268e-07
-3.47158e-08
5.54785e-07
-3.44743e-08
5.8912e-07
-3.42963e-08
6.2303e-07
-3.38513e-08
6.56808e-07
-3.37245e-08
6.90233e-07
-3.33723e-08
7.22872e-07
-3.25937e-08
7.55184e-07
-3.22713e-08
7.86448e-07
-3.12343e-08
8.16849e-07
-3.03704e-08
8.46061e-07
-2.91955e-08
8.74745e-07
-2.8674e-08
9.02434e-07
-2.7687e-08
9.2948e-07
-2.70393e-08
9.55098e-07
-2.56079e-08
9.79737e-07
-2.46171e-08
1.00306e-06
-2.32985e-08
1.02589e-06
-2.28009e-08
1.04778e-06
-2.1862e-08
1.06906e-06
-2.12711e-08
1.08929e-06
-2.0225e-08
1.10881e-06
-1.95166e-08
1.12734e-06
-1.85389e-08
1.14522e-06
-1.78886e-08
1.16232e-06
-1.71056e-08
1.17876e-06
-1.64316e-08
1.19444e-06
-1.567e-08
1.20929e-06
-1.48324e-08
1.22356e-06
-1.42561e-08
1.23715e-06
-1.35603e-08
1.2503e-06
-1.31428e-08
1.26286e-06
-1.25496e-08
1.27484e-06
-1.19851e-08
1.28623e-06
-1.14002e-08
1.29716e-06
-1.09556e-08
1.30758e-06
-1.04451e-08
1.31758e-06
-1.0033e-08
1.32708e-06
-9.534e-09
1.33622e-06
-9.16776e-09
1.34493e-06
-8.7343e-09
1.35335e-06
-8.4526e-09
1.36142e-06
-8.08172e-09
1.36918e-06
-7.77547e-09
1.3766e-06
-7.42929e-09
1.38379e-06
-7.18516e-09
1.39085e-06
-7.0549e-09
1.39794e-06
-7.07517e-09
1.40449e-06
-6.52715e-09
1.41081e-06
-6.29252e-09
1.41649e-06
-5.65324e-09
1.42345e-06
-6.92568e-09
1.42738e-06
-3.89418e-09
1.43031e-06
-2.89675e-09
1.43562e-06
-5.27654e-09
1.43928e-06
-3.63337e-09
1.44367e-06
-4.35747e-09
1.44824e-06
-4.54816e-09
1.45291e-06
-4.64418e-09
1.45727e-06
-4.34115e-09
1.46158e-06
-4.29273e-09
1.46581e-06
-4.21676e-09
1.46992e-06
-4.09156e-09
1.47391e-06
-3.97892e-09
1.47787e-06
-3.93932e-09
1.4816e-06
-3.72026e-09
1.48519e-06
-3.57385e-09
1.4886e-06
-3.39195e-09
1.49184e-06
-3.21137e-09
1.49495e-06
-3.08111e-09
1.49792e-06
-2.9477e-09
1.5008e-06
-2.84281e-09
1.50355e-06
-2.71035e-09
1.50615e-06
-2.57275e-09
1.50868e-06
-2.48375e-09
1.51107e-06
-2.36504e-09
1.51326e-06
-2.17713e-09
1.51508e-06
-1.81156e-09
1.51668e-06
-1.59874e-09
1.51806e-06
-1.38156e-09
1.51976e-06
-1.72066e-09
1.52052e-06
-7.73614e-10
1.52096e-06
-4.46077e-10
1.5219e-06
-9.56713e-10
1.5223e-06
-4.022e-10
1.52298e-06
-6.73141e-10
1.52353e-06
-5.63501e-10
1.5241e-06
-5.39625e-10
1.52471e-06
-5.92586e-10
1.52537e-06
-6.564e-10
1.52591e-06
-5.17559e-10
1.52652e-06
-6.06763e-10
1.52706e-06
-5.46464e-10
1.52774e-06
-6.98734e-10
1.52831e-06
-5.89314e-10
1.52878e-06
-5.13404e-10
1.52912e-06
-3.82724e-10
1.52938e-06
-2.94853e-10
1.52957e-06
-2.28214e-10
1.52967e-06
-1.29895e-10
1.5297e-06
-5.64349e-11
1.52967e-06
2.66317e-11
1.52943e-06
2.53277e-10
1.52926e-06
1.79776e-10
1.52896e-06
3.22599e-10
1.52878e-06
2.02538e-10
1.52852e-06
2.82157e-10
1.52827e-06
2.56886e-10
1.52801e-06
2.65639e-10
1.52779e-06
2.17457e-10
1.52761e-06
1.69651e-10
1.52748e-06
1.17206e-10
1.52741e-06
4.92025e-11
1.52742e-06
-2.40108e-11
1.52744e-06
-3.5579e-11
1.5274e-06
2.46042e-11
1.52734e-06
6.66253e-11
1.52722e-06
1.26574e-10
1.52705e-06
1.82412e-10
1.52675e-06
3.23876e-10
1.52641e-06
3.56352e-10
1.52588e-06
5.48304e-10
1.5254e-06
5.09059e-10
1.52484e-06
5.84958e-10
1.52438e-06
4.8251e-10
1.52386e-06
5.44505e-10
1.52336e-06
5.13877e-10
1.5229e-06
4.76644e-10
1.52247e-06
4.40762e-10
1.5221e-06
3.77274e-10
1.52178e-06
3.40048e-10
1.52149e-06
2.73822e-10
1.52119e-06
3.0986e-10
1.52081e-06
4.02571e-10
1.52057e-06
2.56327e-10
1.52012e-06
4.61631e-10
1.51967e-06
4.7293e-10
1.51912e-06
5.79713e-10
1.51853e-06
6.24156e-10
1.51789e-06
6.9787e-10
1.51727e-06
6.73582e-10
1.51664e-06
6.99915e-10
1.51603e-06
6.77492e-10
1.51543e-06
6.78577e-10
1.51486e-06
6.25116e-10
1.51432e-06
6.08388e-10
1.51382e-06
5.27732e-10
1.51338e-06
4.79222e-10
1.51285e-06
5.68263e-10
1.51235e-06
4.69788e-10
1.51199e-06
3.91697e-10
1.51134e-06
6.12402e-10
1.51075e-06
5.40037e-10
1.51007e-06
6.29253e-10
1.50933e-06
7.10672e-10
1.50853e-06
7.68925e-10
1.50768e-06
8.27969e-10
1.50686e-06
8.13795e-10
1.50599e-06
8.56913e-10
1.50519e-06
8.04632e-10
1.50437e-06
8.13217e-10
1.5036e-06
7.7123e-10
1.50286e-06
7.29019e-10
1.50218e-06
6.69436e-10
1.50147e-06
6.96416e-10
1.5009e-06
5.49262e-10
1.50029e-06
5.92118e-10
1.49955e-06
7.16355e-10
1.49888e-06
6.53588e-10
1.49812e-06
7.44388e-10
1.49728e-06
8.26692e-10
9.05613e-10
7.21905e-09
-1.24876e-08
1.05172e-08
-5.97638e-09
1.02776e-08
2.0889e-10
7.43682e-09
3.29032e-09
-2.48994e-10
8.2513e-09
-1.29575e-08
1.63415e-08
-3.17102e-08
2.70432e-08
-5.40411e-08
3.51772e-08
-7.31068e-08
3.75066e-08
-8.9644e-08
3.56669e-08
-1.04213e-07
3.12284e-08
-1.16596e-07
2.67691e-08
-1.26926e-07
2.26164e-08
-1.35517e-07
1.9088e-08
-1.42694e-07
1.62777e-08
-1.48906e-07
1.42599e-08
-1.54366e-07
1.27365e-08
-1.59249e-07
1.16237e-08
-1.6368e-07
1.0763e-08
-1.67726e-07
1.00377e-08
-1.71473e-07
9.48603e-09
-1.74923e-07
8.94054e-09
-1.78085e-07
8.41646e-09
-1.80945e-07
7.86709e-09
-1.83507e-07
7.30949e-09
-1.85846e-07
6.75032e-09
-1.87916e-07
6.20231e-09
-1.89428e-07
5.2938e-09
-1.90264e-07
4.50503e-09
-1.90499e-07
3.55984e-09
-1.90322e-07
2.46782e-09
-1.89523e-07
1.3331e-09
-1.88121e-07
2.90313e-10
-1.86088e-07
-8.76548e-10
-1.83442e-07
-2.31308e-09
-1.7987e-07
-3.96066e-09
-1.75407e-07
-5.7227e-09
-1.70063e-07
-7.34064e-09
-1.6346e-07
-9.79642e-09
-1.55646e-07
-1.20948e-08
-1.46673e-07
-1.42791e-08
-1.36663e-07
-1.63404e-08
-1.25165e-07
-1.93534e-08
-1.12291e-07
-2.20403e-08
-9.77833e-08
-2.51138e-08
-8.22062e-08
-2.70362e-08
-6.48927e-08
-3.03773e-08
-4.58493e-08
-3.3785e-08
-2.47087e-08
-3.7982e-08
-1.9962e-09
-4.06507e-08
2.22924e-08
-4.42595e-08
4.8519e-08
-4.73021e-08
7.68479e-08
-5.13998e-08
1.0644e-07
-5.3577e-08
1.38047e-07
-5.67619e-08
1.70937e-07
-5.93324e-08
2.05237e-07
-6.27047e-08
2.40552e-07
-6.50747e-08
2.77109e-07
-6.74456e-08
3.14439e-07
-6.89078e-08
3.52572e-07
-7.04275e-08
3.91358e-07
-7.16452e-08
4.30879e-07
-7.30454e-08
4.71004e-07
-7.41759e-08
5.11867e-07
-7.56257e-08
5.52853e-07
-7.59737e-08
5.94266e-07
-7.66654e-08
6.35485e-07
-7.61668e-08
6.76885e-07
-7.64488e-08
7.17913e-07
-7.56949e-08
7.5869e-07
-7.51972e-08
7.99148e-07
-7.47029e-08
8.38998e-07
-7.36309e-08
8.78551e-07
-7.32117e-08
9.17564e-07
-7.23193e-08
9.55692e-07
-7.0656e-08
9.9335e-07
-6.98623e-08
1.02992e-06
-6.77337e-08
1.06555e-06
-6.59382e-08
1.1e-06
-6.36049e-08
1.1338e-06
-6.24419e-08
1.16653e-06
-6.04011e-08
1.19852e-06
-5.90245e-08
1.22918e-06
-5.62559e-08
1.25887e-06
-5.42963e-08
1.28723e-06
-5.16481e-08
1.31495e-06
-5.04936e-08
1.34159e-06
-4.84699e-08
1.36749e-06
-4.71461e-08
1.39235e-06
-4.50535e-08
1.41642e-06
-4.35665e-08
1.43954e-06
-4.16444e-08
1.46191e-06
-4.02522e-08
1.48346e-06
-3.86585e-08
1.50427e-06
-3.72388e-08
1.52437e-06
-3.57511e-08
1.5437e-06
-3.41474e-08
1.56243e-06
-3.29543e-08
1.58044e-06
-3.15356e-08
1.59788e-06
-3.05485e-08
1.61467e-06
-2.93119e-08
1.63089e-06
-2.81828e-08
1.64653e-06
-2.70198e-08
1.66167e-06
-2.60862e-08
1.67628e-06
-2.50513e-08
1.69045e-06
-2.42088e-08
1.70413e-06
-2.32232e-08
1.71741e-06
-2.24648e-08
1.73023e-06
-2.15771e-08
1.7427e-06
-2.09342e-08
1.75474e-06
-2.01414e-08
1.76646e-06
-1.95217e-08
1.77787e-06
-1.88555e-08
1.78898e-06
-1.83027e-08
1.79985e-06
-1.79386e-08
1.8103e-06
-1.75142e-08
1.81996e-06
-1.61742e-08
1.82943e-06
-1.57403e-08
1.83715e-06
-1.33301e-08
1.84852e-06
-1.82586e-08
1.85591e-06
-1.12455e-08
1.86258e-06
-9.51436e-09
1.87146e-06
-1.41119e-08
1.87998e-06
-1.21041e-08
1.88769e-06
-1.20249e-08
1.89554e-06
-1.23462e-08
1.90338e-06
-1.24385e-08
1.91077e-06
-1.16933e-08
1.91802e-06
-1.15023e-08
1.92511e-06
-1.12644e-08
1.93207e-06
-1.10117e-08
1.93888e-06
-1.0748e-08
1.94548e-06
-1.04933e-08
1.95177e-06
-9.96651e-09
1.95781e-06
-9.58212e-09
1.96363e-06
-9.16746e-09
1.96928e-06
-8.8174e-09
1.9748e-06
-8.56398e-09
1.98015e-06
-8.25729e-09
1.98532e-06
-7.98737e-09
1.99031e-06
-7.66718e-09
1.99512e-06
-7.33932e-09
1.99982e-06
-7.13387e-09
2.00429e-06
-6.79834e-09
2.00855e-06
-6.3757e-09
2.01244e-06
-5.64634e-09
2.01629e-06
-5.39605e-09
2.01951e-06
-4.5518e-09
2.02365e-06
-5.83105e-09
2.0269e-06
-3.99224e-09
2.02985e-06
-3.38469e-09
2.03311e-06
-4.2192e-09
2.03632e-06
-3.61768e-09
2.03949e-06
-3.86072e-09
2.04264e-06
-3.7417e-09
2.04574e-06
-3.64018e-09
2.0488e-06
-3.63535e-09
2.05179e-06
-3.63838e-09
2.05463e-06
-3.29911e-09
2.05743e-06
-3.33495e-09
2.0601e-06
-3.16179e-09
2.06262e-06
-3.16026e-09
2.06496e-06
-2.89053e-09
2.06712e-06
-2.66481e-09
2.06909e-06
-2.34919e-09
2.07083e-06
-2.05029e-09
2.07241e-06
-1.84241e-09
2.07381e-06
-1.575e-09
2.07507e-06
-1.34707e-09
2.07613e-06
-1.07724e-09
2.0774e-06
-1.03652e-09
2.07846e-06
-8.70227e-10
2.07947e-06
-6.81119e-10
2.08051e-06
-8.08151e-10
2.08165e-06
-8.24394e-10
2.08283e-06
-8.82283e-10
2.08408e-06
-9.39315e-10
2.0854e-06
-1.06596e-09
2.0867e-06
-1.08671e-09
2.08794e-06
-1.07626e-09
2.0891e-06
-1.07667e-09
2.0901e-06
-1.01144e-09
2.09085e-06
-7.79898e-10
2.09145e-06
-5.73791e-10
2.09185e-06
-3.32938e-10
2.09208e-06
-9.68605e-11
2.09218e-06
7.63313e-11
2.09224e-06
2.61685e-10
2.09225e-06
3.49684e-10
2.09224e-06
5.74996e-10
2.09219e-06
5.84995e-10
2.09228e-06
5.28644e-10
2.09244e-06
3.66326e-10
2.09262e-06
4.04059e-10
2.09286e-06
3.16201e-10
2.09319e-06
1.91996e-10
2.0935e-06
1.68152e-10
2.09376e-06
1.4403e-10
2.09397e-06
2.00149e-10
2.09407e-06
1.92848e-10
2.09403e-06
3.90196e-10
2.0937e-06
7.74229e-10
2.09344e-06
5.41912e-10
2.09293e-06
9.9007e-10
2.09237e-06
1.04755e-09
2.09174e-06
1.22693e-09
2.09113e-06
1.25632e-09
2.09055e-06
1.32139e-09
2.09004e-06
1.23271e-09
2.08962e-06
1.17562e-09
2.0893e-06
1.07339e-09
2.08902e-06
1.05302e-09
2.08879e-06
9.42092e-10
2.0886e-06
9.22689e-10
2.08827e-06
9.6227e-10
2.08806e-06
8.22089e-10
2.08745e-06
1.28635e-09
2.08679e-06
1.1991e-09
2.0863e-06
9.99676e-10
2.08538e-06
1.56454e-09
2.08444e-06
1.4631e-09
2.08346e-06
1.56722e-09
2.08243e-06
1.69801e-09
2.08138e-06
1.78207e-09
2.08034e-06
1.82761e-09
2.07935e-06
1.75601e-09
2.07839e-06
1.77908e-09
2.0775e-06
1.67577e-09
2.07672e-06
1.57355e-09
2.07591e-06
1.57972e-09
2.07514e-06
1.50253e-09
2.07443e-06
1.37113e-09
2.0732e-06
1.91763e-09
2.07234e-06
1.38694e-09
2.07138e-06
1.53106e-09
2.07014e-06
1.92256e-09
2.0689e-06
1.86731e-09
2.06763e-06
1.99172e-09
2.06628e-06
2.14875e-09
2.26762e-09
6.80225e-09
-1.93098e-08
9.40186e-09
-8.59642e-09
7.59162e-09
1.99837e-09
-5.87828e-10
1.14491e-08
-1.45081e-08
2.21522e-08
-3.51466e-08
3.69624e-08
-5.61267e-08
4.80066e-08
-7.38737e-08
5.29074e-08
-8.88473e-08
5.24634e-08
-1.01397e-07
4.81999e-08
-1.12039e-07
4.18534e-08
-1.20657e-07
3.53697e-08
-1.28022e-07
2.99618e-08
-1.34364e-07
2.54113e-08
-1.39809e-07
2.1702e-08
-1.4445e-07
1.88812e-08
-1.48447e-07
1.67133e-08
-1.51993e-07
1.51495e-08
-1.55167e-07
1.39183e-08
-1.58008e-07
1.28607e-08
-1.60568e-07
1.20291e-08
-1.62848e-07
1.12037e-08
-1.64843e-07
1.03945e-08
-1.66582e-07
9.58949e-09
-1.68034e-07
8.74534e-09
-1.69042e-07
7.74262e-09
-1.69475e-07
6.61921e-09
-1.695e-07
5.30287e-09
-1.69003e-07
3.99253e-09
-1.67945e-07
2.48687e-09
-1.66316e-07
8.23083e-10
-1.64044e-07
-9.54896e-10
-1.61124e-07
-2.64664e-09
-1.57555e-07
-4.46276e-09
-1.53285e-07
-6.60014e-09
-1.47932e-07
-9.33094e-09
-1.41505e-07
-1.21656e-08
-1.34096e-07
-1.47639e-08
-1.25337e-07
-1.85674e-08
-1.15205e-07
-2.22349e-08
-1.03725e-07
-2.57639e-08
-9.11074e-08
-2.89619e-08
-7.69125e-08
-3.35463e-08
-6.12109e-08
-3.77332e-08
-4.36341e-08
-4.26802e-08
-2.48278e-08
-4.58321e-08
-3.82809e-09
-5.13735e-08
1.88546e-08
-5.64719e-08
4.3969e-08
-6.31043e-08
7.02554e-08
-6.69405e-08
9.88713e-08
-7.28632e-08
1.29074e-07
-7.74803e-08
1.61518e-07
-8.38138e-08
1.953e-07
-8.73334e-08
2.31179e-07
-9.26257e-08
2.68433e-07
-9.65822e-08
3.07314e-07
-1.0159e-07
3.47262e-07
-1.05033e-07
3.88492e-07
-1.08687e-07
4.30454e-07
-1.10877e-07
4.73269e-07
-1.13244e-07
5.16699e-07
-1.15065e-07
5.60843e-07
-1.17166e-07
6.05544e-07
-1.18836e-07
6.50805e-07
-1.20831e-07
6.96078e-07
-1.21187e-07
7.41605e-07
-1.22129e-07
7.86747e-07
-1.21245e-07
8.31872e-07
-1.21509e-07
8.76479e-07
-1.20236e-07
9.20682e-07
-1.19331e-07
9.64284e-07
-1.1824e-07
1.00706e-06
-1.16325e-07
1.04937e-06
-1.15455e-07
1.09085e-06
-1.13729e-07
1.13132e-06
-1.11049e-07
1.17116e-06
-1.09613e-07
1.20974e-06
-1.06234e-07
1.2473e-06
-1.03403e-07
1.28365e-06
-9.98769e-08
1.31922e-06
-9.79493e-08
1.35361e-06
-9.47499e-08
1.38712e-06
-9.2517e-08
1.41925e-06
-8.83817e-08
1.45036e-06
-8.53995e-08
1.48017e-06
-8.14546e-08
1.5092e-06
-7.95163e-08
1.53708e-06
-7.63216e-08
1.56411e-06
-7.41549e-08
1.59006e-06
-7.09648e-08
1.61521e-06
-6.86762e-08
1.63939e-06
-6.57898e-08
1.66282e-06
-6.36599e-08
1.68539e-06
-6.12168e-08
1.70721e-06
-5.90485e-08
1.72828e-06
-5.68068e-08
1.74864e-06
-5.44887e-08
1.76842e-06
-5.27072e-08
1.78748e-06
-5.05612e-08
1.80595e-06
-4.89803e-08
1.82374e-06
-4.7067e-08
1.84098e-06
-4.53777e-08
1.85767e-06
-4.36712e-08
1.87387e-06
-4.22558e-08
1.88956e-06
-4.07133e-08
1.90483e-06
-3.94636e-08
1.91963e-06
-3.80213e-08
1.93407e-06
-3.6909e-08
1.94807e-06
-3.55815e-08
1.96172e-06
-3.45974e-08
1.97493e-06
-3.3367e-08
1.98787e-06
-3.24895e-08
2.00052e-06
-3.15228e-08
2.01291e-06
-3.07115e-08
2.02502e-06
-3.00673e-08
2.03652e-06
-2.90227e-08
2.0471e-06
-2.67461e-08
2.05719e-06
-2.5815e-08
2.0657e-06
-2.18099e-08
2.07695e-06
-2.94609e-08
2.08613e-06
-2.03829e-08
2.09427e-06
-1.76059e-08
2.10417e-06
-2.39555e-08
2.11451e-06
-2.23859e-08
2.1242e-06
-2.1655e-08
2.13361e-06
-2.17017e-08
2.14275e-06
-2.1518e-08
2.15144e-06
-2.03298e-08
2.15993e-06
-1.99371e-08
2.16822e-06
-1.94983e-08
2.17639e-06
-1.9126e-08
2.18439e-06
-1.86952e-08
2.19212e-06
-1.81656e-08
2.19948e-06
-1.72631e-08
2.20654e-06
-1.65906e-08
2.21332e-06
-1.5884e-08
2.21995e-06
-1.53878e-08
2.22646e-06
-1.50204e-08
2.23278e-06
-1.45332e-08
2.23891e-06
-1.40916e-08
2.24484e-06
-1.35604e-08
2.25056e-06
-1.30376e-08
2.25618e-06
-1.27058e-08
2.26153e-06
-1.21069e-08
2.26658e-06
-1.13641e-08
2.27123e-06
-1.02176e-08
2.27578e-06
-9.86433e-09
2.27974e-06
-8.42222e-09
2.28449e-06
-1.0505e-08
2.28869e-06
-8.12825e-09
2.29256e-06
-7.20729e-09
2.29665e-06
-8.28464e-09
2.30085e-06
-7.81647e-09
2.30501e-06
-8.04649e-09
2.30917e-06
-7.95166e-09
2.3133e-06
-7.78749e-09
2.31734e-06
-7.6947e-09
2.32131e-06
-7.61645e-09
2.3251e-06
-7.03233e-09
2.32882e-06
-6.98361e-09
2.33241e-06
-6.64685e-09
2.33579e-06
-6.42784e-09
2.33892e-06
-5.93038e-09
2.34182e-06
-5.49817e-09
2.34446e-06
-4.93897e-09
2.34681e-06
-4.38059e-09
2.34894e-06
-3.98282e-09
2.35084e-06
-3.52249e-09
2.35262e-06
-3.17712e-09
2.3542e-06
-2.69982e-09
2.35608e-06
-2.96139e-09
2.3576e-06
-2.41891e-09
2.35918e-06
-2.2809e-09
2.36081e-06
-2.43069e-09
2.36262e-06
-2.59562e-09
2.3645e-06
-2.71475e-09
2.36648e-06
-2.85656e-09
2.36848e-06
-2.99342e-09
2.37049e-06
-3.01917e-09
2.37242e-06
-2.92351e-09
2.37414e-06
-2.73206e-09
2.37565e-06
-2.46759e-09
2.37682e-06
-1.92365e-09
2.37779e-06
-1.51952e-09
2.37857e-06
-1.0996e-09
2.37893e-06
-4.53963e-10
2.37923e-06
-2.3279e-10
2.37949e-06
-1.22914e-11
2.37972e-06
1.15889e-10
2.37995e-06
3.50544e-10
2.38016e-06
3.84524e-10
2.38059e-06
1.39347e-10
2.38104e-06
-3.76709e-11
2.3816e-06
-1.09629e-10
2.38225e-06
-2.84896e-10
2.38301e-06
-5.07883e-10
2.38372e-06
-4.85015e-10
2.38432e-06
-4.01477e-10
2.3848e-06
-1.92685e-10
2.38507e-06
-3.34315e-11
2.38514e-06
3.76518e-10
2.38498e-06
9.92367e-10
2.38463e-06
9.41928e-10
2.38414e-06
1.50944e-09
2.38354e-06
1.66426e-09
2.38293e-06
1.85548e-09
2.38232e-06
1.89577e-09
2.38178e-06
1.88062e-09
2.38132e-06
1.71649e-09
2.38102e-06
1.52267e-09
2.38083e-06
1.32769e-09
2.38071e-06
1.25976e-09
2.38065e-06
1.0959e-09
2.38063e-06
1.07984e-09
2.38038e-06
1.34771e-09
2.38024e-06
1.13622e-09
2.37971e-06
1.98434e-09
2.379e-06
2.03406e-09
2.37833e-06
1.84925e-09
2.37736e-06
2.63572e-09
2.37626e-06
2.59443e-09
2.37515e-06
2.67386e-09
2.37402e-06
2.81302e-09
2.37286e-06
2.91008e-09
2.37173e-06
2.90555e-09
2.37066e-06
2.76413e-09
2.36965e-06
2.73091e-09
2.36872e-06
2.56857e-09
2.36791e-06
2.35232e-09
2.36712e-06
2.363e-09
2.36628e-06
2.34353e-09
2.36555e-06
2.11188e-09
2.36413e-06
3.34126e-09
2.36304e-06
2.45772e-09
2.36186e-06
2.69001e-09
2.36036e-06
3.39358e-09
2.3588e-06
3.39933e-09
2.35725e-06
3.51316e-09
2.35563e-06
3.73688e-09
3.87227e-09
5.33284e-09
-2.46614e-08
5.93434e-09
-9.21728e-09
-3.21748e-10
8.23458e-09
-1.3456e-08
2.45637e-08
-3.34051e-08
4.20832e-08
-5.2797e-08
5.63373e-08
-6.9205e-08
6.43977e-08
-8.2801e-08
6.64864e-08
-9.39163e-08
6.35615e-08
-1.02754e-07
5.70207e-08
-1.10197e-07
4.92789e-08
-1.16774e-07
4.19286e-08
-1.22265e-07
3.54331e-08
-1.26868e-07
2.99949e-08
-1.30795e-07
2.56089e-08
-1.34156e-07
2.22212e-08
-1.37071e-07
1.9608e-08
-1.39636e-07
1.76946e-08
-1.41937e-07
1.62009e-08
-1.43968e-07
1.48729e-08
-1.45752e-07
1.37967e-08
-1.47294e-07
1.27297e-08
-1.48599e-07
1.16845e-08
-1.49583e-07
1.05577e-08
-1.50146e-07
9.29319e-09
-1.5032e-07
7.90138e-09
-1.50013e-07
6.29697e-09
-1.49143e-07
4.41748e-09
-1.47679e-07
2.51384e-09
-1.45616e-07
4.08827e-10
-1.42903e-07
-1.90519e-09
-1.39405e-07
-4.46742e-09
-1.35106e-07
-6.96053e-09
-1.30026e-07
-9.55759e-09
-1.24153e-07
-1.24881e-08
-1.17059e-07
-1.64404e-08
-1.08694e-07
-2.05448e-08
-9.92649e-08
-2.42072e-08
-8.83218e-08
-2.95223e-08
-7.58111e-08
-3.4754e-08
-6.17342e-08
-3.98456e-08
-4.64423e-08
-4.42578e-08
-2.93065e-08
-5.06808e-08
-1.05213e-08
-5.65079e-08
1.04422e-08
-6.36301e-08
3.29725e-08
-6.83488e-08
5.79006e-08
-7.62963e-08
8.48197e-08
-8.33962e-08
1.14197e-07
-9.24915e-08
1.44749e-07
-9.74961e-08
1.77947e-07
-1.06044e-07
2.12893e-07
-1.12391e-07
2.50291e-07
-1.21167e-07
2.88924e-07
-1.25921e-07
3.29907e-07
-1.33575e-07
3.722e-07
-1.38855e-07
4.16347e-07
-1.4573e-07
4.6147e-07
-1.50158e-07
5.08e-07
-1.55222e-07
5.55088e-07
-1.5797e-07
6.03109e-07
-1.61266e-07
6.51558e-07
-1.63503e-07
7.00719e-07
-1.66304e-07
7.50199e-07
-1.68278e-07
8.00054e-07
-1.70631e-07
8.49735e-07
-1.70814e-07
8.99411e-07
-1.71745e-07
9.48506e-07
-1.70273e-07
9.97322e-07
-1.70249e-07
1.04536e-06
-1.68188e-07
1.09271e-06
-1.66591e-07
1.13905e-06
-1.64491e-07
1.18429e-06
-1.6147e-07
1.22886e-06
-1.59947e-07
1.27217e-06
-1.56967e-07
1.31434e-06
-1.5314e-07
1.35562e-06
-1.50804e-07
1.39545e-06
-1.45961e-07
1.43411e-06
-1.41938e-07
1.47149e-06
-1.37144e-07
1.50791e-06
-1.34275e-07
1.54299e-06
-1.29764e-07
1.57702e-06
-1.26508e-07
1.60948e-06
-1.2082e-07
1.64085e-06
-1.16761e-07
1.67084e-06
-1.11446e-07
1.69997e-06
-1.08651e-07
1.72777e-06
-1.04115e-07
1.75467e-06
-1.01034e-07
1.78039e-06
-9.66478e-08
1.80534e-06
-9.35837e-08
1.82929e-06
-8.96814e-08
1.85252e-06
-8.68561e-08
1.87483e-06
-8.3495e-08
1.89638e-06
-8.05724e-08
1.91712e-06
-7.75211e-08
1.9372e-06
-7.45488e-08
1.95672e-06
-7.22034e-08
1.97552e-06
-6.93365e-08
1.99373e-06
-6.71503e-08
2.01123e-06
-6.45391e-08
2.02822e-06
-6.23174e-08
2.04471e-06
-6.01084e-08
2.06073e-06
-5.82324e-08
2.07627e-06
-5.62055e-08
2.09142e-06
-5.45786e-08
2.10614e-06
-5.27123e-08
2.12054e-06
-5.1298e-08
2.13451e-06
-4.95543e-08
2.14818e-06
-4.82711e-08
2.1614e-06
-4.66058e-08
2.17444e-06
-4.55478e-08
2.18718e-06
-4.42906e-08
2.19975e-06
-4.33112e-08
2.21201e-06
-4.2353e-08
2.22351e-06
-4.0537e-08
2.23399e-06
-3.72316e-08
2.2437e-06
-3.55221e-08
2.25231e-06
-3.03884e-08
2.26218e-06
-3.92936e-08
2.27198e-06
-3.01393e-08
2.28101e-06
-2.65766e-08
2.29081e-06
-3.36911e-08
2.30172e-06
-3.32381e-08
2.31225e-06
-3.21164e-08
2.32227e-06
-3.16549e-08
2.33185e-06
-3.10346e-08
2.34094e-06
-2.93598e-08
2.34984e-06
-2.87731e-08
2.35852e-06
-2.81111e-08
2.3671e-06
-2.7642e-08
2.37552e-06
-2.70433e-08
2.38362e-06
-2.62026e-08
2.39132e-06
-2.48878e-08
2.39869e-06
-2.38949e-08
2.40574e-06
-2.2862e-08
2.41267e-06
-2.2246e-08
2.41949e-06
-2.17667e-08
2.42611e-06
-2.10997e-08
2.43255e-06
-2.04979e-08
2.43876e-06
-1.97422e-08
2.44479e-06
-1.90406e-08
2.45069e-06
-1.85684e-08
2.45629e-06
-1.76797e-08
2.46154e-06
-1.65579e-08
2.46637e-06
-1.49773e-08
2.47104e-06
-1.44364e-08
2.47524e-06
-1.25039e-08
2.47988e-06
-1.5031e-08
2.48444e-06
-1.25727e-08
2.48864e-06
-1.1324e-08
2.49294e-06
-1.25305e-08
2.49743e-06
-1.22816e-08
2.50194e-06
-1.2572e-08
2.50644e-06
-1.25134e-08
2.51093e-06
-1.23209e-08
2.51532e-06
-1.21427e-08
2.51964e-06
-1.19659e-08
2.52378e-06
-1.11368e-08
2.52785e-06
-1.09949e-08
2.53177e-06
-1.04567e-08
2.53548e-06
-9.99339e-09
2.53892e-06
-9.23458e-09
2.54211e-06
-8.56735e-09
2.54499e-06
-7.72432e-09
2.54756e-06
-6.88703e-09
2.54986e-06
-6.25983e-09
2.5519e-06
-5.59152e-09
2.55381e-06
-5.12992e-09
2.55551e-06
-4.44914e-09
2.55749e-06
-5.01315e-09
2.5592e-06
-4.18817e-09
2.56099e-06
-4.1081e-09
2.56285e-06
-4.30587e-09
2.56491e-06
-4.64456e-09
2.56709e-06
-4.85272e-09
2.56942e-06
-5.12484e-09
2.57179e-06
-5.26338e-09
2.57416e-06
-5.28971e-09
2.57644e-06
-5.08679e-09
2.57847e-06
-4.65623e-09
2.58023e-06
-4.14479e-09
2.58159e-06
-3.23389e-09
2.58274e-06
-2.61595e-09
2.58365e-06
-1.98352e-09
2.5841e-06
-8.95384e-10
2.58441e-06
-5.55664e-10
2.58474e-06
-3.58867e-10
2.58502e-06
-1.80157e-10
2.58534e-06
2.17003e-11
2.58569e-06
4.25519e-11
2.58622e-06
-3.61536e-10
2.58681e-06
-5.93594e-10
2.58756e-06
-8.07145e-10
2.58843e-06
-1.09578e-09
2.58941e-06
-1.42262e-09
2.59034e-06
-1.34784e-09
2.59113e-06
-1.12411e-09
2.59177e-06
-7.31415e-10
2.59215e-06
-3.46617e-10
2.59226e-06
3.48205e-10
2.59221e-06
1.12175e-09
2.59178e-06
1.43241e-09
2.59127e-06
2.06603e-09
2.59063e-06
2.33541e-09
2.58999e-06
2.53079e-09
2.58934e-06
2.56781e-09
2.5888e-06
2.43825e-09
2.58835e-06
2.18054e-09
2.58805e-06
1.83587e-09
2.58791e-06
1.50897e-09
2.58786e-06
1.38039e-09
2.58784e-06
1.18971e-09
2.58788e-06
1.16915e-09
2.58774e-06
1.63307e-09
2.58758e-06
1.48853e-09
2.58711e-06
2.66904e-09
2.58641e-06
2.91914e-09
2.58561e-06
2.87595e-09
2.58458e-06
3.8275e-09
2.5834e-06
3.86982e-09
2.58219e-06
3.92956e-09
2.58098e-06
4.04625e-09
2.57973e-06
4.14181e-09
2.57852e-06
4.067e-09
2.57738e-06
3.83546e-09
2.5763e-06
3.72953e-09
2.57532e-06
3.48901e-09
2.57446e-06
3.17193e-09
2.57367e-06
3.13774e-09
2.57278e-06
3.24034e-09
2.57198e-06
2.92549e-09
2.57051e-06
4.81996e-09
2.56925e-06
3.70743e-09
2.5679e-06
4.02493e-09
2.56621e-06
5.05495e-09
2.56443e-06
5.15081e-09
2.56266e-06
5.25522e-09
2.56083e-06
5.53652e-09
5.66838e-09
2.44993e-09
-2.71288e-08
-1.11859e-09
-5.66703e-09
-1.18918e-08
1.89891e-08
-2.92839e-08
4.19376e-08
-4.70326e-08
5.98145e-08
-6.23286e-08
7.16162e-08
-7.49593e-08
7.70111e-08
-8.51207e-08
7.66304e-08
-9.29186e-08
7.13418e-08
-9.93107e-08
6.33952e-08
-1.04736e-07
5.46864e-08
-1.09369e-07
4.65442e-08
-1.13295e-07
3.93395e-08
-1.1663e-07
3.33091e-08
-1.19514e-07
2.84728e-08
-1.22028e-07
2.47135e-08
-1.24234e-07
2.17936e-08
-1.26147e-07
1.95876e-08
-1.27839e-07
1.7874e-08
-1.29287e-07
1.63032e-08
-1.30497e-07
1.49901e-08
-1.31473e-07
1.36902e-08
-1.32129e-07
1.23259e-08
-1.32422e-07
1.08359e-08
-1.32343e-07
9.20009e-09
-1.31787e-07
7.33092e-09
-1.30645e-07
5.14006e-09
-1.28855e-07
2.61298e-09
-1.26391e-07
3.45726e-11
-1.23233e-07
-2.76367e-09
-1.19327e-07
-5.82502e-09
-1.14477e-07
-9.33073e-09
-1.0865e-07
-1.28007e-08
-1.01887e-07
-1.63346e-08
-9.424e-08
-2.01479e-08
-8.51943e-08
-2.54995e-08
-7.46312e-08
-3.11211e-08
-6.29371e-08
-3.5914e-08
-4.94651e-08
-4.30056e-08
-3.41406e-08
-5.00865e-08
-1.69857e-08
-5.70049e-08
1.79251e-09
-6.30416e-08
2.22315e-08
-7.11196e-08
4.47347e-08
-7.89979e-08
6.99408e-08
-8.88185e-08
9.67846e-08
-9.5174e-08
1.26674e-07
-1.06177e-07
1.58757e-07
-1.15485e-07
1.93773e-07
-1.27519e-07
2.30047e-07
-1.33774e-07
2.69677e-07
-1.45653e-07
3.11076e-07
-1.53744e-07
3.55256e-07
-1.65288e-07
4.00335e-07
-1.70935e-07
4.48261e-07
-1.8145e-07
4.97183e-07
-1.87739e-07
5.48411e-07
-1.96935e-07
6.00279e-07
-2.02015e-07
6.53721e-07
-2.08658e-07
7.07249e-07
-2.11493e-07
7.61626e-07
-2.15631e-07
8.16123e-07
-2.17978e-07
8.7111e-07
-2.21261e-07
9.26162e-07
-2.23284e-07
9.81279e-07
-2.2569e-07
1.03583e-06
-2.25319e-07
1.08996e-06
-2.25825e-07
1.14304e-06
-2.23295e-07
1.19544e-06
-2.22566e-07
1.24653e-06
-2.19174e-07
1.2966e-06
-2.16541e-07
1.34535e-06
-2.1312e-07
1.3928e-06
-2.08795e-07
1.43924e-06
-2.063e-07
1.48399e-06
-2.01638e-07
1.52739e-06
-1.96458e-07
1.5696e-06
-1.92924e-07
1.61004e-06
-1.86284e-07
1.64914e-06
-1.80901e-07
1.68681e-06
-1.74671e-07
1.72333e-06
-1.70658e-07
1.75823e-06
-1.64567e-07
1.79185e-06
-1.60049e-07
1.82356e-06
-1.52482e-07
1.85417e-06
-1.47347e-07
1.88331e-06
-1.40594e-07
1.91151e-06
-1.36856e-07
1.9382e-06
-1.30821e-07
1.96396e-06
-1.26786e-07
1.98845e-06
-1.21113e-07
2.01226e-06
-1.17342e-07
2.03501e-06
-1.12369e-07
2.05712e-06
-1.08905e-07
2.07818e-06
-1.04497e-07
2.09846e-06
-1.00803e-07
2.11785e-06
-9.68767e-08
2.13668e-06
-9.33533e-08
2.15497e-06
-9.0465e-08
2.17253e-06
-8.68835e-08
2.18952e-06
-8.41131e-08
2.20581e-06
-8.07942e-08
2.22163e-06
-7.80981e-08
2.237e-06
-7.54275e-08
2.25195e-06
-7.3115e-08
2.26644e-06
-7.0632e-08
2.28059e-06
-6.86667e-08
2.29434e-06
-6.64217e-08
2.30784e-06
-6.47718e-08
2.32095e-06
-6.26481e-08
2.33381e-06
-6.11271e-08
2.34624e-06
-5.90462e-08
2.35857e-06
-5.78964e-08
2.37063e-06
-5.63784e-08
2.3826e-06
-5.53232e-08
2.39421e-06
-5.39971e-08
2.4049e-06
-5.12485e-08
2.41449e-06
-4.68393e-08
2.42305e-06
-4.40805e-08
2.43113e-06
-3.8459e-08
2.43919e-06
-4.73147e-08
2.44863e-06
-3.95331e-08
2.45826e-06
-3.61483e-08
2.4673e-06
-4.26639e-08
2.47798e-06
-4.38388e-08
2.48845e-06
-4.25146e-08
2.49831e-06
-4.14443e-08
2.50765e-06
-4.03043e-08
2.51652e-06
-3.81582e-08
2.52523e-06
-3.74138e-08
2.5337e-06
-3.65046e-08
2.54211e-06
-3.59798e-08
2.55034e-06
-3.5202e-08
2.55823e-06
-3.40232e-08
2.5657e-06
-3.22805e-08
2.57286e-06
-3.09698e-08
2.57967e-06
-2.95798e-08
2.5864e-06
-2.88968e-08
2.593e-06
-2.82843e-08
2.59942e-06
-2.74518e-08
2.60568e-06
-2.67119e-08
2.61169e-06
-2.57175e-08
2.61756e-06
-2.48813e-08
2.62327e-06
-2.42431e-08
2.62865e-06
-2.30432e-08
2.63363e-06
-2.15039e-08
2.63824e-06
-1.95241e-08
2.64261e-06
-1.87046e-08
2.64668e-06
-1.64535e-08
2.65085e-06
-1.90508e-08
2.65532e-06
-1.68943e-08
2.65958e-06
-1.54595e-08
2.66369e-06
-1.65375e-08
2.66807e-06
-1.66149e-08
2.67253e-06
-1.7037e-08
2.67699e-06
-1.70355e-08
2.68148e-06
-1.6856e-08
2.68585e-06
-1.66015e-08
2.69015e-06
-1.63181e-08
2.69428e-06
-1.52683e-08
2.69834e-06
-1.50282e-08
2.70224e-06
-1.42486e-08
2.70593e-06
-1.35333e-08
2.70936e-06
-1.24896e-08
2.71253e-06
-1.15737e-08
2.71537e-06
-1.04123e-08
2.71789e-06
-9.29609e-09
2.7201e-06
-8.41047e-09
2.72204e-06
-7.52386e-09
2.72381e-06
-6.94207e-09
2.72541e-06
-6.09829e-09
2.72722e-06
-6.89992e-09
2.72884e-06
-5.89272e-09
2.73059e-06
-5.92346e-09
2.73243e-06
-6.18598e-09
2.73449e-06
-6.71918e-09
2.7367e-06
-7.03695e-09
2.73913e-06
-7.49125e-09
2.7416e-06
-7.63559e-09
2.74411e-06
-7.68326e-09
2.7465e-06
-7.33736e-09
2.74862e-06
-6.64838e-09
2.75046e-06
-5.86446e-09
2.75184e-06
-4.5302e-09
2.75301e-06
-3.70717e-09
2.75389e-06
-2.81209e-09
2.75425e-06
-1.2386e-09
2.75448e-06
-7.87574e-10
2.75473e-06
-6.23266e-10
2.75493e-06
-4.02506e-10
2.75519e-06
-2.56781e-10
2.75552e-06
-2.85234e-10
2.75601e-06
-8.42339e-10
2.75662e-06
-1.16424e-09
2.75741e-06
-1.55371e-09
2.75834e-06
-1.9734e-09
2.7594e-06
-2.4079e-09
2.7604e-06
-2.28185e-09
2.76126e-06
-1.90294e-09
2.76194e-06
-1.30657e-09
2.76233e-06
-6.54581e-10
2.76244e-06
3.37248e-10
2.76234e-06
1.32522e-09
2.76183e-06
2.02928e-09
2.76123e-06
2.72559e-09
2.76051e-06
3.11361e-09
2.75978e-06
3.31018e-09
2.75906e-06
3.32075e-09
2.75844e-06
3.06911e-09
2.75792e-06
2.69906e-09
2.75755e-06
2.20933e-09
2.7574e-06
1.67846e-09
2.75732e-06
1.49078e-09
2.7573e-06
1.26781e-09
2.75731e-06
1.26703e-09
2.7572e-06
1.8893e-09
2.75696e-06
1.92819e-09
2.75649e-06
3.3884e-09
2.75574e-06
3.88619e-09
2.75483e-06
4.06165e-09
2.75373e-06
5.15975e-09
2.75244e-06
5.30443e-09