/*--------------------------------*- C++ -*----------------------------------*\
| =========                 |                                                 |
| \\      /  F ield         | OpenFOAM: The Open Source CFD Toolbox           |
|  \\    /   O peration     | Version:  2312                                  |
|   \\  /    A nd           | Website:  www.openfoam.com                      |
|    \\/     M anipulation  |                                                 |
\*---------------------------------------------------------------------------*/
FoamFile
{
    version     2.0;
    format      ascii;
    arch        "LSB;label=32;scalar=64";
    class       volScalarField;
    location    "0.002";
    object      rho;
}
// * * * * * * * * * * * * * * * * * * * * * * * * * * * * * * * * * * * * * //

dimensions      [1 -3 0 0 0 0 0];

internalField   nonuniform List<scalar> 
48128
(
0.0342085
0.0341919
0.0341392
0.0341221
0.0341261
0.0341822
0.0343401
0.0344153
0.0343681
0.0342513
0.0340288
0.0337865
0.0335687
0.0333909
0.0332587
0.0331758
0.0331302
0.0331215
0.0331573
0.0332355
0.0333472
0.0334989
0.0336938
0.0339361
0.0342313
0.0345858
0.0349993
0.0354827
0.036042
0.0366736
0.0373809
0.0381632
0.0390245
0.0399691
0.0409951
0.0421273
0.0433297
0.0446314
0.0460326
0.0475119
0.0490834
0.0507339
0.0524851
0.0542998
0.0562172
0.0581864
0.0602734
0.0624189
0.0646675
0.0669418
0.06932
0.071712
0.0741899
0.0766617
0.0791831
0.0816982
0.0842344
0.0867739
0.0893187
0.0918423
0.0943447
0.0968168
0.0992575
0.101658
0.10402
0.106326
0.108591
0.110774
0.112919
0.114979
0.116975
0.118911
0.120774
0.122552
0.124281
0.125867
0.127432
0.128849
0.130249
0.131512
0.13278
0.133912
0.135036
0.13604
0.137049
0.137971
0.138917
0.139744
0.14057
0.141297
0.14202
0.142672
0.143315
0.143903
0.144465
0.144988
0.145494
0.145997
0.146461
0.14692
0.147333
0.147727
0.148105
0.148471
0.148823
0.149165
0.149502
0.149832
0.150159
0.15048
0.15079
0.1511
0.151417
0.151731
0.152046
0.152345
0.152489
0.152573
0.152502
0.152396
0.15292
0.152978
0.153086
0.153506
0.153846
0.154169
0.154484
0.154741
0.154976
0.155212
0.15545
0.155685
0.155921
0.156116
0.156293
0.156439
0.156586
0.15673
0.156874
0.157017
0.157143
0.157267
0.157395
0.1575
0.157593
0.157629
0.157646
0.15762
0.157585
0.157686
0.157687
0.157698
0.157751
0.157803
0.157886
0.15798
0.158074
0.158185
0.158277
0.158368
0.158455
0.158531
0.158591
0.15863
0.15865
0.15864
0.158618
0.158582
0.158537
0.158482
0.158415
0.158408
0.15839
0.158389
0.158399
0.158438
0.158486
0.158555
0.158633
0.158714
0.158775
0.158828
0.158854
0.158857
0.158842
0.158816
0.158757
0.158704
0.158659
0.158614
0.158581
0.158563
0.158565
0.158582
0.158612
0.158658
0.158711
0.158762
0.158807
0.158834
0.158839
0.158832
0.158797
0.158761
0.158709
0.158662
0.158618
0.158578
0.158562
0.158554
0.158558
0.158585
0.158621
0.158664
0.158698
0.158722
0.158735
0.158741
0.1587
0.158665
0.158607
0.158555
0.158504
0.158458
0.158418
0.158395
0.158382
0.15838
0.158389
0.158411
0.158431
0.158462
0.158484
0.158459
0.158446
0.158416
0.158367
0.15832
0.158272
0.158199
0.0342698
0.0342508
0.0341842
0.0341592
0.0341771
0.0342998
0.034442
0.0345083
0.0344624
0.0343496
0.0341764
0.0340046
0.0338587
0.0337436
0.0336692
0.0336196
0.0336008
0.0336121
0.0336606
0.0337447
0.0338566
0.0340025
0.0341857
0.0344107
0.0346837
0.0350133
0.0353989
0.035848
0.0363656
0.0369508
0.0376107
0.0383447
0.039154
0.0400426
0.0410123
0.0420827
0.0432294
0.0444739
0.0458198
0.0472527
0.0487815
0.0503935
0.0521116
0.0539063
0.055812
0.057782
0.0598699
0.0620311
0.0643065
0.0666274
0.0690678
0.0715375
0.0741035
0.0766857
0.0793247
0.0819802
0.0846709
0.0873777
0.0901001
0.0928173
0.0955276
0.0982241
0.100904
0.103558
0.106186
0.108768
0.111316
0.113782
0.116212
0.118567
0.120863
0.123095
0.125255
0.127324
0.129342
0.131216
0.133067
0.134767
0.136451
0.137997
0.139543
0.140948
0.142336
0.143607
0.144879
0.146066
0.147263
0.148337
0.149401
0.150368
0.151326
0.152213
0.153085
0.153897
0.154679
0.155419
0.156145
0.156862
0.15754
0.158207
0.158822
0.159418
0.159998
0.160562
0.161111
0.161644
0.162174
0.16269
0.163203
0.163703
0.16419
0.164673
0.165162
0.165645
0.166124
0.16658
0.166867
0.167094
0.167162
0.167206
0.167918
0.168133
0.168426
0.168983
0.169474
0.169919
0.17036
0.17074
0.171098
0.171452
0.171809
0.172159
0.172508
0.17281
0.173095
0.173344
0.173596
0.173843
0.174089
0.174331
0.174552
0.17477
0.174991
0.175186
0.17537
0.175495
0.175609
0.175678
0.175746
0.175957
0.176056
0.176176
0.176317
0.176471
0.176645
0.176832
0.177016
0.177213
0.177388
0.177559
0.177728
0.177875
0.178003
0.178107
0.178192
0.178239
0.178271
0.178288
0.178293
0.178286
0.178267
0.178305
0.178332
0.178376
0.17844
0.178522
0.178619
0.178738
0.178865
0.178996
0.179098
0.179192
0.179247
0.179273
0.179278
0.179266
0.179218
0.179174
0.179143
0.179108
0.179088
0.179086
0.179108
0.179146
0.179197
0.179266
0.17934
0.179412
0.179473
0.179516
0.179527
0.179524
0.179493
0.179451
0.179395
0.179342
0.179293
0.179249
0.179233
0.179226
0.179234
0.179266
0.179308
0.179358
0.179396
0.17943
0.179439
0.179442
0.179398
0.179356
0.179287
0.179222
0.179158
0.179098
0.179044
0.17901
0.178986
0.178974
0.178974
0.178989
0.179
0.179025
0.17903
0.17899
0.178963
0.17891
0.178842
0.178775
0.178705
0.178601
0.0343341
0.0342965
0.034223
0.0342082
0.0342774
0.0344371
0.0345639
0.0345803
0.0345268
0.03442
0.0342696
0.0341178
0.0339561
0.0338098
0.0336924
0.0336192
0.0335809
0.0335722
0.0335991
0.0336596
0.0337472
0.0338671
0.0340237
0.034223
0.0344715
0.034773
0.0351336
0.0355534
0.0360404
0.0365939
0.0372222
0.0379293
0.038714
0.0395786
0.0405266
0.0415763
0.0427084
0.0439367
0.0452717
0.0467007
0.0482318
0.049851
0.0515824
0.0533987
0.0553353
0.057345
0.0594763
0.0616976
0.0640417
0.0664507
0.0689806
0.0715611
0.0742473
0.0769591
0.0797423
0.082553
0.085408
0.0882865
0.0911883
0.0940934
0.0969982
0.099895
0.102778
0.105638
0.108472
0.111256
0.114008
0.116677
0.119314
0.121869
0.124367
0.126792
0.129136
0.131384
0.133569
0.135605
0.137614
0.139461
0.141291
0.142983
0.144668
0.146202
0.147709
0.149095
0.150477
0.151773
0.153077
0.154246
0.155404
0.15646
0.157506
0.158478
0.159434
0.160327
0.161185
0.162
0.162799
0.163591
0.16434
0.165079
0.165761
0.166425
0.167073
0.167705
0.168321
0.168921
0.169516
0.170098
0.170677
0.171242
0.171792
0.172339
0.172892
0.173438
0.173983
0.174494
0.174833
0.175104
0.175231
0.175299
0.176037
0.176359
0.176718
0.17732
0.177897
0.178415
0.178917
0.179355
0.179774
0.180183
0.180595
0.180999
0.181401
0.181753
0.182087
0.182383
0.18268
0.182973
0.183264
0.18355
0.183814
0.184075
0.184337
0.184572
0.184794
0.184955
0.185104
0.185211
0.185311
0.185557
0.185704
0.185864
0.186043
0.18624
0.186455
0.186681
0.186906
0.187142
0.187357
0.187568
0.187777
0.187963
0.188128
0.188267
0.188384
0.18846
0.188518
0.18856
0.188588
0.1886
0.188608
0.188669
0.188723
0.188789
0.188879
0.188987
0.189115
0.189261
0.189415
0.189574
0.189702
0.189819
0.189891
0.189935
0.189954
0.189954
0.189915
0.189882
0.189858
0.189837
0.189826
0.18984
0.189871
0.18992
0.189986
0.190069
0.190158
0.190244
0.190315
0.190368
0.190385
0.19039
0.190359
0.190318
0.190262
0.190209
0.19016
0.190116
0.190102
0.190096
0.190106
0.190142
0.190188
0.190243
0.190285
0.19032
0.190333
0.190337
0.190291
0.190247
0.190176
0.190105
0.190038
0.189972
0.189914
0.189875
0.189846
0.189829
0.189825
0.189836
0.189844
0.189864
0.189864
0.189815
0.189777
0.189715
0.189635
0.189556
0.189475
0.189355
0.0343824
0.0343097
0.0342576
0.0342754
0.0344209
0.0345761
0.0346376
0.0346159
0.0345327
0.0344026
0.0342284
0.0340297
0.0338552
0.0337089
0.0335893
0.0335073
0.0334567
0.0334324
0.033443
0.033485
0.0335547
0.0336564
0.0337958
0.0339776
0.0342076
0.0344888
0.0348279
0.0352252
0.0356907
0.0362252
0.0368357
0.0375275
0.0382975
0.039148
0.0400826
0.0411215
0.0422496
0.0434716
0.0448089
0.046246
0.047793
0.0494324
0.0511987
0.0530514
0.0550396
0.0571036
0.059312
0.061617
0.0640666
0.0665849
0.0692439
0.0719654
0.0748121
0.077687
0.0806519
0.0836521
0.0867059
0.0897894
0.0929003
0.0960211
0.0991455
0.102266
0.105372
0.108455
0.111507
0.1145
0.117463
0.12033
0.123171
0.12591
0.128595
0.131191
0.133697
0.136105
0.138423
0.14059
0.142725
0.144677
0.146616
0.14841
0.150196
0.151814
0.153398
0.154851
0.156295
0.157647
0.159009
0.160216
0.161414
0.162501
0.16358
0.16458
0.165568
0.166486
0.167368
0.168203
0.169019
0.169829
0.170594
0.171349
0.172042
0.172719
0.17338
0.174027
0.174657
0.175272
0.175881
0.176479
0.177072
0.177652
0.178218
0.178779
0.179349
0.179912
0.180474
0.180993
0.181341
0.181612
0.181766
0.181825
0.182504
0.18291
0.183302
0.183893
0.18451
0.185066
0.185588
0.186047
0.18649
0.18692
0.187352
0.187777
0.188198
0.188568
0.188921
0.189235
0.189548
0.189857
0.190164
0.190466
0.190746
0.19102
0.191297
0.191545
0.191778
0.191951
0.19211
0.192233
0.19234
0.192588
0.192762
0.192938
0.19313
0.193343
0.193573
0.193814
0.194053
0.194303
0.194533
0.194761
0.194985
0.195187
0.195368
0.195523
0.195655
0.195744
0.195814
0.195867
0.195902
0.195922
0.195936
0.196005
0.196068
0.196144
0.196243
0.196364
0.196505
0.196666
0.196834
0.197008
0.19715
0.197278
0.197361
0.197413
0.19744
0.197446
0.197411
0.197382
0.197361
0.197343
0.197337
0.197357
0.197393
0.197448
0.197521
0.197613
0.197709
0.197803
0.19788
0.197939
0.197959
0.197967
0.197936
0.197895
0.19784
0.197785
0.197735
0.197691
0.197676
0.19767
0.197679
0.197716
0.197763
0.197818
0.197862
0.197897
0.197912
0.197918
0.197871
0.197825
0.197754
0.197681
0.19761
0.197542
0.19748
0.197437
0.197404
0.197383
0.197375
0.197383
0.197388
0.197404
0.197403
0.197348
0.197302
0.197233
0.197144
0.197056
0.196966
0.196834
0.034413
0.0343252
0.0343036
0.0343891
0.0345511
0.0346443
0.0346522
0.0345878
0.0344697
0.0342991
0.0340988
0.0339021
0.0337222
0.0335693
0.0334458
0.0333558
0.0332959
0.033262
0.0332617
0.0332904
0.0333477
0.0334372
0.0335632
0.0337309
0.0339461
0.0342109
0.0345318
0.0349142
0.0353642
0.035885
0.0364825
0.0371642
0.0379243
0.0387667
0.0396933
0.0407307
0.0418655
0.043093
0.0444488
0.045912
0.0474934
0.0491674
0.051003
0.0529217
0.0550007
0.0571569
0.0594902
0.0619311
0.064539
0.0672101
0.0700619
0.0729887
0.0760663
0.0791704
0.0823913
0.0856457
0.0889686
0.0923216
0.0957135
0.0991098
0.102519
0.105915
0.109298
0.112643
0.115953
0.119181
0.122384
0.125462
0.128519
0.13144
0.134303
0.137055
0.139712
0.142268
0.144699
0.146975
0.149214
0.151236
0.153255
0.155118
0.156971
0.158634
0.160255
0.161731
0.163198
0.164566
0.165948
0.16715
0.168348
0.169424
0.170499
0.171487
0.17247
0.173373
0.174238
0.175054
0.175848
0.176638
0.177379
0.178112
0.178779
0.179433
0.180072
0.180698
0.181306
0.181901
0.18249
0.183069
0.183643
0.184206
0.184756
0.185302
0.185857
0.186408
0.186956
0.187447
0.187772
0.188013
0.18817
0.188206
0.188781
0.189245
0.189661
0.19022
0.190837
0.191401
0.191916
0.19237
0.192816
0.193245
0.193674
0.194097
0.194514
0.19488
0.195231
0.195543
0.195853
0.196161
0.196463
0.196762
0.19704
0.19731
0.197585
0.197826
0.198051
0.19822
0.198372
0.198497
0.198597
0.198826
0.199013
0.199192
0.199382
0.199596
0.199826
0.200066
0.200305
0.200554
0.200783
0.201013
0.201237
0.20144
0.201623
0.20178
0.201914
0.202006
0.202077
0.202129
0.202164
0.202183
0.202193
0.202257
0.202321
0.202396
0.202494
0.202615
0.20276
0.202924
0.203097
0.203276
0.203423
0.203556
0.203641
0.203697
0.203724
0.20373
0.203694
0.203663
0.20364
0.20362
0.203613
0.203633
0.203668
0.203725
0.2038
0.203893
0.203991
0.204087
0.204166
0.204226
0.204246
0.204254
0.204222
0.204179
0.204121
0.204064
0.204012
0.203965
0.203947
0.203938
0.203944
0.203978
0.204023
0.204074
0.204119
0.20415
0.204164
0.20417
0.204122
0.204074
0.204001
0.203926
0.203852
0.203781
0.203715
0.203668
0.20363
0.203605
0.203593
0.203596
0.203597
0.203606
0.203604
0.203545
0.20349
0.203416
0.20332
0.203224
0.203125
0.202981
0.0344681
0.0343643
0.0344013
0.0345111
0.0346227
0.0346624
0.0346183
0.0345112
0.0343542
0.0341607
0.0339517
0.0337524
0.0335704
0.0334146
0.0332887
0.0331943
0.0331289
0.0330897
0.0330816
0.0331011
0.0331499
0.033228
0.0333426
0.0334977
0.0336988
0.0339484
0.0342547
0.0346258
0.035064
0.0355738
0.0361619
0.0368387
0.0375951
0.0384373
0.0393638
0.040412
0.0415682
0.0428178
0.044216
0.0457357
0.0473835
0.0491288
0.0510504
0.053085
0.0553119
0.0576207
0.0601543
0.06281
0.0656652
0.0685807
0.0717308
0.0749599
0.0783756
0.0818117
0.0854121
0.0890182
0.0927328
0.0964549
0.100249
0.104017
0.107816
0.111572
0.115319
0.118991
0.12262
0.126129
0.129616
0.132923
0.136218
0.139319
0.142358
0.145251
0.148043
0.150726
0.153234
0.155586
0.157883
0.15992
0.161969
0.163838
0.165696
0.167335
0.168923
0.170349
0.171783
0.173105
0.174457
0.175597
0.176743
0.177756
0.178776
0.1797
0.180628
0.181463
0.182265
0.183017
0.183748
0.184478
0.185154
0.185827
0.186431
0.187027
0.187609
0.188177
0.188727
0.189268
0.189802
0.190331
0.190853
0.191368
0.191872
0.192375
0.192885
0.193398
0.193899
0.194325
0.194598
0.194781
0.194919
0.194915
0.195365
0.195857
0.196283
0.196793
0.197365
0.197909
0.198396
0.198826
0.199257
0.199663
0.200069
0.200469
0.200859
0.2012
0.201531
0.201822
0.202112
0.2024
0.20268
0.202958
0.203216
0.203466
0.203722
0.203939
0.204139
0.204287
0.204417
0.204529
0.20461
0.204805
0.204991
0.205161
0.205338
0.205539
0.205757
0.205984
0.206211
0.206445
0.206662
0.206883
0.207092
0.207283
0.207455
0.207604
0.207729
0.207812
0.207876
0.207918
0.207943
0.207955
0.20795
0.208001
0.208056
0.208122
0.20821
0.208323
0.20846
0.208619
0.208788
0.208963
0.209106
0.209236
0.209315
0.20937
0.209392
0.209389
0.209348
0.20931
0.209279
0.209251
0.209238
0.20925
0.20928
0.209333
0.209405
0.209493
0.209587
0.20968
0.209756
0.209812
0.209827
0.209831
0.209793
0.209746
0.209682
0.209621
0.209564
0.209511
0.209488
0.209473
0.209472
0.209501
0.20954
0.209584
0.209624
0.209649
0.209659
0.209662
0.209611
0.209558
0.209483
0.209404
0.209326
0.20925
0.20918
0.209128
0.209084
0.209053
0.209034
0.209031
0.209027
0.209028
0.209023
0.208961
0.208896
0.208814
0.208712
0.208607
0.2085
0.208344
0.0345344
0.034458
0.0345105
0.0345982
0.0346593
0.0346412
0.0345505
0.0344081
0.0342264
0.0340099
0.0337956
0.0335954
0.0334147
0.0332601
0.0331347
0.033039
0.0329706
0.0329282
0.0329141
0.0329251
0.0329652
0.033033
0.0331364
0.0332795
0.0334679
0.0337047
0.0339991
0.0343623
0.0347922
0.0352954
0.0358784
0.0365585
0.0373197
0.0381725
0.0391114
0.0401931
0.0413926
0.0426809
0.0441587
0.0457677
0.0475285
0.0493958
0.0514757
0.0536949
0.0561559
0.0587178
0.0615682
0.0645596
0.0677934
0.0711061
0.07473
0.0783784
0.0822834
0.0861852
0.0903468
0.0944353
0.098712
0.102953
0.10727
0.111565
0.115867
0.12013
0.12433
0.128432
0.132448
0.136302
0.140122
0.14369
0.147257
0.150538
0.153777
0.156801
0.159709
0.162486
0.165008
0.167386
0.169663
0.171632
0.17363
0.175415
0.177184
0.178706
0.180162
0.181446
0.18276
0.183949
0.185181
0.186173
0.187184
0.188046
0.188934
0.189709
0.190504
0.191189
0.191867
0.192494
0.193113
0.193723
0.194283
0.194847
0.195338
0.19583
0.196304
0.196769
0.197221
0.197668
0.198113
0.198557
0.198995
0.19943
0.199855
0.200289
0.200723
0.201171
0.201585
0.201905
0.202091
0.202193
0.202296
0.202229
0.202559
0.20302
0.203449
0.203884
0.20438
0.204875
0.205315
0.205704
0.206101
0.20646
0.206826
0.207178
0.207519
0.207817
0.208108
0.208361
0.208617
0.208863
0.209103
0.209345
0.209565
0.209781
0.209999
0.210174
0.210332
0.210447
0.210539
0.210624
0.210672
0.210824
0.210988
0.211136
0.211291
0.211467
0.21166
0.211862
0.212066
0.212273
0.212466
0.212665
0.212847
0.213015
0.213163
0.213292
0.213396
0.213463
0.213509
0.213531
0.213538
0.213533
0.213507
0.213533
0.213572
0.213621
0.21369
0.213787
0.213908
0.214052
0.214206
0.214369
0.2145
0.214617
0.214684
0.214731
0.214738
0.214721
0.214672
0.21462
0.214575
0.214532
0.214507
0.214507
0.214526
0.214569
0.214631
0.214709
0.214792
0.214876
0.214943
0.214989
0.214996
0.214989
0.214942
0.214887
0.214815
0.214745
0.214678
0.214617
0.214585
0.214561
0.214551
0.21457
0.2146
0.214633
0.214663
0.214678
0.214681
0.214677
0.214619
0.214559
0.21448
0.214395
0.214311
0.214229
0.214153
0.214094
0.214043
0.214004
0.213977
0.213964
0.213952
0.213942
0.213932
0.213866
0.21379
0.2137
0.213591
0.213476
0.21336
0.21319
0.0346287
0.0345556
0.0346009
0.0346567
0.0346619
0.0345931
0.0344678
0.0343007
0.0340847
0.0338578
0.0336424
0.0334433
0.0332667
0.0331161
0.0329927
0.0328964
0.0328263
0.0327817
0.0327616
0.0327632
0.0327955
0.0328542
0.0329467
0.0330789
0.0332573
0.033484
0.0337697
0.0341291
0.0345558
0.0350583
0.0356415
0.0363373
0.0371208
0.0379963
0.038963
0.0401113
0.0413927
0.0427468
0.0443538
0.0461116
0.0480625
0.0501468
0.0524916
0.0550093
0.0578249
0.0607838
0.064115
0.0675759
0.0713384
0.0752031
0.0795266
0.0837102
0.08826
0.0927866
0.0976655
0.102409
0.107375
0.112282
0.117207
0.122169
0.127059
0.131946
0.136682
0.141364
0.145793
0.150086
0.154229
0.15812
0.161964
0.165446
0.168909
0.172051
0.175095
0.177944
0.180426
0.182849
0.185026
0.186901
0.188778
0.190442
0.192066
0.19337
0.194613
0.195676
0.196777
0.197731
0.198748
0.199474
0.200262
0.200867
0.201532
0.202049
0.202615
0.203045
0.203518
0.203928
0.204368
0.204769
0.205141
0.205523
0.205827
0.20615
0.20645
0.206757
0.207061
0.207369
0.207681
0.207997
0.208308
0.208625
0.208933
0.209261
0.209582
0.209927
0.210204
0.210372
0.210437
0.210437
0.210486
0.210344
0.210552
0.210924
0.211343
0.211685
0.212073
0.212479
0.212856
0.213185
0.213527
0.213818
0.214125
0.214406
0.214674
0.21491
0.215145
0.215341
0.215547
0.215731
0.215916
0.216101
0.216268
0.216435
0.216598
0.216711
0.216813
0.216879
0.216919
0.216963
0.216967
0.217062
0.217184
0.217301
0.217422
0.217561
0.217713
0.217881
0.21805
0.21822
0.218376
0.218542
0.218682
0.218818
0.218929
0.219029
0.2191
0.219139
0.219158
0.219151
0.219129
0.219099
0.219045
0.219039
0.21905
0.219075
0.219118
0.219191
0.219287
0.219407
0.219538
0.219677
0.219787
0.219885
0.219933
0.219963
0.219946
0.21991
0.219849
0.219777
0.219711
0.219648
0.219606
0.219588
0.219588
0.219615
0.21966
0.219722
0.219788
0.219856
0.219909
0.21994
0.219933
0.21991
0.219851
0.219783
0.219698
0.219615
0.219536
0.219463
0.219418
0.219381
0.219359
0.219362
0.21938
0.219398
0.219414
0.219414
0.219406
0.219391
0.219323
0.219253
0.219167
0.219073
0.21898
0.21889
0.218806
0.218738
0.218677
0.218629
0.21859
0.218565
0.218543
0.21852
0.218503
0.218431
0.21834
0.218241
0.218123
0.217997
0.21787
0.217684
0.034706
0.0346485
0.0346743
0.0346855
0.0346394
0.034533
0.0343825
0.034179
0.0339437
0.0337159
0.0335002
0.0333045
0.0331327
0.0329862
0.0328654
0.0327698
0.0326983
0.0326503
0.0326246
0.0326185
0.0326423
0.0326934
0.0327766
0.0328997
0.0330714
0.0332918
0.0335712
0.033933
0.034365
0.0348794
0.0354685
0.0361877
0.0370232
0.0379523
0.0389755
0.040222
0.0416414
0.0431391
0.0449602
0.0469526
0.049191
0.0516141
0.0543444
0.0573045
0.0606132
0.0641279
0.0681643
0.0721591
0.0765939
0.0811081
0.0862368
0.0911139
0.0964379
0.101731
0.107413
0.112975
0.118666
0.124278
0.129837
0.13548
0.140951
0.14648
0.151721
0.156966
0.161725
0.166467
0.170825
0.175113
0.179126
0.182877
0.186512
0.18979
0.192999
0.195882
0.198356
0.20088
0.202934
0.204786
0.206558
0.208147
0.20965
0.210758
0.211791
0.212665
0.213586
0.214287
0.215067
0.215498
0.216039
0.216366
0.216749
0.216972
0.21724
0.217367
0.217553
0.217672
0.217848
0.217948
0.218055
0.218165
0.218222
0.218297
0.21836
0.218441
0.218535
0.218644
0.218765
0.218895
0.219025
0.219166
0.219306
0.219481
0.219642
0.219831
0.219914
0.219888
0.219798
0.219686
0.219606
0.219425
0.219486
0.21976
0.220101
0.220321
0.220579
0.220861
0.221143
0.221391
0.221654
0.221863
0.222086
0.222273
0.222449
0.222605
0.222759
0.222885
0.223019
0.223127
0.223239
0.223348
0.223445
0.223546
0.223636
0.223671
0.223703
0.223702
0.22368
0.22366
0.223615
0.223638
0.223703
0.223775
0.223849
0.223936
0.22404
0.224162
0.224282
0.224402
0.22451
0.22463
0.224717
0.224809
0.224874
0.224933
0.22496
0.224962
0.224939
0.224896
0.224837
0.224774
0.224683
0.224641
0.224617
0.224604
0.224614
0.224655
0.224717
0.224804
0.2249
0.225008
0.225088
0.225158
0.22518
0.225185
0.225138
0.225079
0.224995
0.224901
0.224807
0.224717
0.224653
0.224611
0.224587
0.22459
0.224614
0.224653
0.224696
0.224741
0.224774
0.224786
0.224756
0.224715
0.224638
0.224552
0.22445
0.22435
0.224254
0.224165
0.224103
0.224051
0.224011
0.223997
0.223996
0.223995
0.223994
0.223973
0.223951
0.223921
0.223839
0.223755
0.223659
0.223553
0.223449
0.223347
0.223254
0.223174
0.223101
0.22304
0.222989
0.222949
0.222914
0.222875
0.222846
0.222765
0.22266
0.222549
0.22242
0.222281
0.222141
0.221938
0.0347632
0.0347201
0.0347226
0.0346917
0.0346058
0.0344668
0.0342918
0.0340551
0.0338165
0.0335878
0.0333742
0.0331829
0.0330157
0.0328731
0.0327548
0.0326602
0.0325876
0.0325353
0.0325035
0.0324922
0.0325087
0.0325534
0.0326292
0.0327451
0.0329149
0.0331341
0.0334105
0.0337859
0.0342293
0.0347691
0.0353882
0.0361649
0.0370608
0.0380949
0.0392328
0.0406485
0.0422793
0.0440149
0.046154
0.0484801
0.0510994
0.0540136
0.0572999
0.060804
0.0647228
0.068853
0.0737418
0.0783714
0.0835414
0.0887109
0.0946364
0.100332
0.106499
0.112544
0.118943
0.125252
0.131567
0.137747
0.143869
0.149998
0.155994
0.161899
0.167553
0.173162
0.178166
0.183203
0.187758
0.192313
0.196441
0.200432
0.204158
0.207597
0.210946
0.213809
0.216421
0.219035
0.221003
0.222912
0.224747
0.22626
0.227714
0.228708
0.229705
0.230487
0.231403
0.231901
0.232565
0.232787
0.233199
0.233347
0.233536
0.233548
0.233597
0.233485
0.233438
0.23331
0.233242
0.233058
0.232901
0.232735
0.23252
0.232343
0.232134
0.231945
0.231778
0.231633
0.231508
0.231391
0.231289
0.2312
0.231131
0.231095
0.231048
0.231035
0.23085
0.230599
0.230327
0.230074
0.229848
0.229581
0.229495
0.229624
0.229812
0.229877
0.229976
0.230109
0.230266
0.230409
0.230575
0.230681
0.2308
0.230869
0.230928
0.230983
0.231038
0.231073
0.231118
0.231131
0.231153
0.231168
0.231176
0.231195
0.231194
0.231134
0.231077
0.230995
0.230895
0.230798
0.230695
0.230641
0.230627
0.230637
0.230653
0.230678
0.230718
0.23078
0.23084
0.2309
0.230949
0.231009
0.231036
0.231069
0.231078
0.231083
0.231053
0.231007
0.230936
0.23085
0.230744
0.230636
0.230505
0.230414
0.230347
0.230294
0.230261
0.230257
0.230278
0.230323
0.230377
0.230443
0.230486
0.230518
0.230507
0.23048
0.230398
0.230308
0.230197
0.230071
0.229945
0.229823
0.22973
0.229658
0.229604
0.229578
0.229572
0.229582
0.229596
0.229613
0.22962
0.229605
0.229549
0.229485
0.229386
0.229275
0.229152
0.229031
0.228914
0.228805
0.228722
0.22865
0.22859
0.228554
0.22853
0.228507
0.228483
0.228438
0.228397
0.228347
0.228248
0.228147
0.228036
0.227916
0.227796
0.227681
0.227574
0.227481
0.227393
0.227318
0.22725
0.227192
0.227141
0.227083
0.22704
0.226948
0.226825
0.226701
0.226558
0.226405
0.22625
0.226026
0.0347961
0.0347604
0.034743
0.0346805
0.0345637
0.034396
0.0341949
0.0339427
0.0337045
0.0334765
0.0332668
0.03308
0.0329173
0.0327783
0.0326622
0.0325677
0.032493
0.0324368
0.0324009
0.0323857
0.0323963
0.0324364
0.0325073
0.0326189
0.032793
0.0330199
0.0332933
0.0337002
0.0341735
0.0347603
0.0354376
0.0363171
0.0373278
0.0385214
0.0398485
0.0415229
0.0434447
0.0455377
0.0481249
0.0508537
0.0538951
0.0573928
0.0614876
0.0655242
0.070151
0.0748903
0.080567
0.0859165
0.0918397
0.097574
0.104098
0.11052
0.117423
0.124029
0.130974
0.137724
0.144564
0.150953
0.157527
0.163674
0.170058
0.176035
0.182002
0.187631
0.192928
0.197998
0.202717
0.20742
0.211687
0.215805
0.219642
0.223159
0.22656
0.229403
0.232276
0.234938
0.236941
0.239101
0.24112
0.242553
0.244017
0.245051
0.246151
0.247046
0.248047
0.248532
0.249183
0.249419
0.249829
0.249987
0.25014
0.250086
0.250065
0.24987
0.249739
0.249486
0.249296
0.248938
0.248622
0.248256
0.247856
0.247504
0.247077
0.246671
0.246276
0.245904
0.245544
0.2452
0.24487
0.244563
0.244283
0.24404
0.243757
0.243498
0.243036
0.242534
0.242068
0.241647
0.241285
0.240862
0.240614
0.240531
0.240518
0.240405
0.24033
0.24029
0.240288
0.240305
0.24035
0.240331
0.240324
0.240246
0.240172
0.240104
0.240038
0.239963
0.2399
0.239798
0.239711
0.239612
0.239517
0.239433
0.239315
0.23915
0.238989
0.238809
0.238621
0.238439
0.238256
0.238112
0.238009
0.237939
0.237884
0.237839
0.237804
0.237788
0.237777
0.237766
0.237745
0.237735
0.237688
0.237653
0.23759
0.237533
0.237435
0.237331
0.237202
0.237062
0.236902
0.236743
0.236562
0.236417
0.236297
0.236194
0.236112
0.236056
0.236027
0.23602
0.236023
0.236039
0.236034
0.236023
0.235967
0.235903
0.235781
0.235653
0.235507
0.235346
0.235182
0.235023
0.234895
0.234787
0.234697
0.234635
0.234594
0.234568
0.234548
0.23453
0.234504
0.234456
0.234369
0.234277
0.23415
0.234011
0.233862
0.233716
0.233574
0.233441
0.233333
0.233237
0.233153
0.233091
0.23304
0.232989
0.232939
0.232864
0.2328
0.232727
0.232606
0.232484
0.232356
0.232218
0.23208
0.231948
0.231825
0.231715
0.23161
0.231517
0.231431
0.231352
0.231282
0.231203
0.231142
0.231035
0.230892
0.230752
0.230594
0.230425
0.230253
0.230005
0.0348127
0.0347726
0.0347411
0.034655
0.0345098
0.0343283
0.0340994
0.0338465
0.0336087
0.0333834
0.0331779
0.0329958
0.0328374
0.0327018
0.0325874
0.0324923
0.0324154
0.032357
0.032318
0.0322996
0.0323061
0.0323448
0.0324153
0.0325268
0.0327115
0.032957
0.0332509
0.0336947
0.0342302
0.0349091
0.0356873
0.0367254
0.0379134
0.0393338
0.0409508
0.0430065
0.0452455
0.0477725
0.05097
0.0541202
0.0576287
0.0617209
0.0666816
0.0713363
0.0766794
0.0819617
0.0881774
0.094154
0.100692
0.106902
0.113842
0.12066
0.128124
0.134911
0.142167
0.14892
0.155867
0.162361
0.168877
0.175049
0.181293
0.187437
0.193346
0.199053
0.204358
0.20946
0.214258
0.218805
0.223191
0.22746
0.231439
0.235017
0.238405
0.241252
0.244127
0.24681
0.249218
0.251664
0.253537
0.255144
0.256712
0.257847
0.259153
0.260301
0.261463
0.262117
0.262863
0.263328
0.263881
0.264204
0.264495
0.264556
0.264655
0.2646
0.264572
0.264381
0.264241
0.263891
0.263595
0.263181
0.262779
0.262413
0.261904
0.261421
0.260926
0.260443
0.259949
0.259469
0.258994
0.258541
0.258115
0.257727
0.257241
0.256731
0.256039
0.255307
0.254679
0.254111
0.253642
0.253137
0.252724
0.252406
0.252149
0.251847
0.251583
0.251356
0.251183
0.251053
0.250962
0.250801
0.250653
0.250415
0.250193
0.249983
0.249778
0.249576
0.249385
0.249148
0.248934
0.248704
0.248482
0.248277
0.248024
0.24774
0.247458
0.247167
0.24688
0.246603
0.246328
0.246086
0.24588
0.245716
0.245572
0.245445
0.245324
0.24522
0.245123
0.24503
0.244928
0.244836
0.244707
0.24459
0.244446
0.244313
0.24414
0.243966
0.24377
0.243567
0.243346
0.24313
0.242893
0.242685
0.242502
0.242342
0.242202
0.242087
0.242
0.241933
0.241876
0.241832
0.24177
0.241709
0.241601
0.241493
0.241324
0.241151
0.240965
0.240764
0.240556
0.240355
0.240187
0.240037
0.239905
0.239803
0.239721
0.239651
0.23959
0.239533
0.239466
0.23938
0.239258
0.239131
0.238972
0.2388
0.238622
0.238446
0.238275
0.238114
0.237977
0.237852
0.237741
0.237649
0.237565
0.237483
0.237402
0.237296
0.237204
0.237102
0.236956
0.23681
0.236659
0.236503
0.236342
0.23619
0.236048
0.235918
0.235793
0.235681
0.235574
0.23547
0.235378
0.235274
0.235191
0.235068
0.234903
0.234744
0.234567
0.234381
0.23419
0.233915
0.0348052
0.034763
0.0347217
0.034617
0.0344516
0.0342629
0.0340152
0.0337679
0.0335302
0.0333084
0.0331077
0.0329304
0.0327761
0.0326434
0.0325301
0.0324342
0.0323561
0.0322967
0.0322553
0.0322346
0.0322399
0.0322826
0.0323598
0.0324759
0.0326835
0.0329597
0.0333002
0.0338309
0.0344646
0.0352795
0.0362158
0.0374782
0.0389077
0.0406123
0.042629
0.0452293
0.0477304
0.0506583
0.0545821
0.0582546
0.0623868
0.0669302
0.0725084
0.0778192
0.0838576
0.0896467
0.0961039
0.10247
0.10929
0.115978
0.123154
0.129855
0.137272
0.144161
0.15125
0.158007
0.164715
0.171181
0.177308
0.183653
0.18949
0.195752
0.201251
0.207005
0.212072
0.217314
0.221934
0.22654
0.230761
0.234889
0.238768
0.24255
0.246001
0.248888
0.25168
0.254142
0.2569
0.259608
0.261297
0.263168
0.264864
0.266153
0.267741
0.268994
0.270278
0.271119
0.272032
0.272766
0.273532
0.274059
0.274567
0.274842
0.275193
0.275422
0.275643
0.27571
0.275778
0.27566
0.27559
0.27536
0.27519
0.275011
0.274662
0.274342
0.273961
0.273588
0.273165
0.272729
0.272285
0.271841
0.271413
0.270999
0.270417
0.269726
0.268901
0.268082
0.267386
0.266776
0.266286
0.265825
0.265367
0.264811
0.264335
0.263865
0.263427
0.263027
0.262694
0.26242
0.262195
0.2619
0.261616
0.261224
0.260855
0.260502
0.260157
0.259821
0.259493
0.259116
0.258764
0.25839
0.258033
0.257692
0.257294
0.256881
0.25647
0.25606
0.255664
0.255285
0.254913
0.254559
0.254242
0.253971
0.253726
0.253502
0.253285
0.253083
0.252888
0.2527
0.252507
0.252322
0.252101
0.251892
0.25166
0.251438
0.25118
0.250931
0.250662
0.250383
0.250093
0.24981
0.249513
0.249239
0.248988
0.24876
0.248553
0.24837
0.248216
0.248082
0.247956
0.247844
0.247717
0.247597
0.247432
0.247269
0.247048
0.246826
0.246593
0.246347
0.246091
0.245845
0.24563
0.245432
0.245254
0.245104
0.244975
0.244857
0.24475
0.244645
0.244532
0.244405
0.244241
0.244076
0.243878
0.243671
0.24346
0.24325
0.243045
0.242852
0.242682
0.242525
0.242383
0.242257
0.242136
0.242018
0.241903
0.241761
0.241637
0.241503
0.241327
0.241153
0.240977
0.240798
0.240613
0.240437
0.240274
0.240121
0.239973
0.239838
0.239707
0.239577
0.239458
0.239327
0.23922
0.239077
0.238888
0.238707
0.23851
0.238304
0.238092
0.237787
0.0347742
0.0347373
0.0346906
0.0345746
0.0344005
0.0341969
0.033946
0.0337045
0.0334694
0.0332519
0.0330563
0.0328837
0.0327331
0.0326029
0.0324904
0.0323937
0.0323156
0.0322562
0.0322139
0.0321932
0.0322028
0.0322558
0.0323425
0.0324738
0.0327322
0.0330795
0.0334963
0.0341581
0.0349383
0.035937
0.0370968
0.0386598
0.0403968
0.0424039
0.0448213
0.0481172
0.0510084
0.0542833
0.0587984
0.0630822
0.068067
0.0729548
0.0788349
0.0846439
0.0910912
0.0973134
0.103826
0.110329
0.116959
0.123841
0.130698
0.137441
0.144292
0.151212
0.158005
0.164758
0.170936
0.1773
0.182991
0.189504
0.194939
0.200845
0.205907
0.2116
0.216382
0.221663
0.226089
0.230894
0.234906
0.239207
0.242879