/*--------------------------------*- C++ -*----------------------------------*\
| =========                 |                                                 |
| \\      /  F ield         | OpenFOAM: The Open Source CFD Toolbox           |
|  \\    /   O peration     | Version:  2312                                  |
|   \\  /    A nd           | Website:  www.openfoam.com                      |
|    \\/     M anipulation  |                                                 |
\*---------------------------------------------------------------------------*/
FoamFile
{
    version     2.0;
    format      ascii;
    arch        "LSB;label=32;scalar=64";
    class       volScalarField;
    location    "0.002";
    object      T;
}
// * * * * * * * * * * * * * * * * * * * * * * * * * * * * * * * * * * * * * //

dimensions      [0 0 0 1 0 0 0];

internalField   nonuniform List<scalar> 
48128
(
352.471
352.616
352.802
352.86
352.665
351.803
349.648
347.901
346.936
346.092
345.373
344.542
343.552
342.487
341.464
340.511
339.6
338.716
337.873
337.08
336.289
335.527
334.808
334.143
333.549
333.041
332.635
332.344
332.184
332.133
332.182
332.387
332.734
333.191
333.741
334.398
335.18
336.022
336.942
337.929
338.934
339.935
340.924
341.909
342.847
343.722
344.51
345.235
345.876
346.423
346.86
347.189
347.39
347.471
347.423
347.252
346.957
346.541
346.014
345.389
344.678
343.899
343.056
342.154
341.193
340.181
339.114
338.021
336.88
335.707
334.511
333.287
332.042
330.784
329.481
328.198
326.881
325.595
324.3
323.068
321.827
320.624
319.412
318.25
317.121
316.055
315.013
313.994
312.977
312.003
311.055
310.152
309.281
308.44
307.624
306.839
306.097
305.403
304.742
304.1
303.475
302.877
302.315
301.786
301.28
300.808
300.361
299.952
299.559
299.197
298.84
298.507
298.202
297.924
297.648
297.343
297.003
296.626
296.16
295.518
295.607
295.468
295.145
295.28
295.237
295.167
295.07
294.955
294.831
294.705
294.593
294.493
294.388
294.276
294.158
294.038
293.924
293.831
293.742
293.659
293.577
293.494
293.424
293.351
293.274
293.191
293.119
293.032
292.916
292.973
292.973
292.967
293.012
293.047
293.105
293.171
293.225
293.285
293.338
293.381
293.426
293.456
293.481
293.497
293.515
293.517
293.515
293.511
293.507
293.496
293.499
293.52
293.54
293.574
293.616
293.678
293.748
293.83
293.916
294.003
294.072
294.132
294.164
294.187
294.199
294.197
294.175
294.166
294.168
294.176
294.194
294.222
294.269
294.327
294.394
294.471
294.549
294.628
294.687
294.742
294.772
294.809
294.806
294.811
294.809
294.815
294.828
294.85
294.88
294.92
294.97
295.034
295.102
295.174
295.234
295.294
295.335
295.383
295.393
295.419
295.434
295.456
295.485
295.521
295.564
295.617
295.678
295.745
295.817
295.898
295.968
296.046
296.108
296.142
296.182
296.224
296.236
296.257
296.282
296.328
351.776
351.986
352.288
352.456
352.299
350.727
348.753
347.12
345.884
344.803
343.573
342.001
340.299
338.716
337.301
336.023
334.857
333.796
332.85
332.022
331.257
330.578
329.997
329.524
329.174
328.958
328.877
328.887
329.077
329.434
329.926
330.563
331.331
332.207
333.173
334.233
335.382
336.561
337.768
338.987
340.174
341.303
342.361
343.345
344.227
344.989
345.617
346.122
346.489
346.698
346.743
346.62
346.347
345.923
345.34
344.609
343.739
342.746
341.634
340.42
339.113
337.719
336.247
334.706
333.101
331.453
329.752
328.035
326.287
324.542
322.797
321.049
319.303
317.569
315.804
314.079
312.331
310.623
308.923
307.293
305.673
304.095
302.528
301.006
299.539
298.135
296.783
295.451
294.141
292.864
291.629
290.433
289.285
288.164
287.08
286.025
285.014
284.058
283.135
282.24
281.364
280.515
279.703
278.929
278.178
277.469
276.782
276.143
275.521
274.939
274.364
273.822
273.308
272.828
272.361
271.871
271.346
270.785
270.135
269.272
269.125
268.789
268.245
268.173
267.999
267.781
267.538
267.281
267.019
266.759
266.513
266.285
266.055
265.819
265.579
265.336
265.098
264.884
264.673
264.474
264.277
264.082
263.902
263.718
263.526
263.324
263.118
262.896
262.629
262.528
262.392
262.231
262.141
262.039
261.966
261.906
261.841
261.787
261.727
261.665
261.602
261.536
261.467
261.394
261.318
261.236
261.151
261.064
260.979
260.889
260.81
260.764
260.712
260.677
260.635
260.636
260.635
260.648
260.668
260.687
260.701
260.703
260.695
260.681
260.662
260.635
260.588
260.558
260.53
260.513
260.505
260.504
260.516
260.541
260.576
260.62
260.668
260.718
260.754
260.785
260.803
260.829
260.816
260.82
260.815
260.82
260.829
260.847
260.871
260.904
260.944
260.999
261.056
261.117
261.171
261.215
261.259
261.308
261.313
261.34
261.358
261.385
261.421
261.464
261.515
261.575
261.643
261.716
261.795
261.881
261.96
262.043
262.127
262.174
262.228
262.292
262.322
262.361
262.406
262.479
351.118
351.397
351.784
351.995
351.232
349.271
347.301
345.817
344.516
343.167
341.742
340.341
339.039
337.839
336.751
335.778
334.901
334.107
333.419
332.841
332.324
331.892
331.552
331.315
331.186
331.161
331.248
331.475
331.861
332.391
333.042
333.809
334.673
335.603
336.584
337.619
338.71
339.804
340.885
341.94
342.928
343.82
344.598
345.263
345.796
346.176
346.393
346.443
346.319
346.023
345.542
344.878
344.049
343.073
341.935
340.656
339.241
337.718
336.09
334.385
332.604
330.762
328.864
326.92
324.931
322.936
320.908
318.893
316.863
314.853
312.861
310.892
308.957
307.05
305.128
303.272
301.399
299.578
297.782
296.062
294.362
292.711
291.085
289.506
288.002
286.563
285.178
283.815
282.479
281.174
279.918
278.698
277.527
276.383
275.279
274.201
273.173
272.196
271.252
270.333
269.433
268.56
267.724
266.922
266.143
265.402
264.685
264.014
263.359
262.743
262.135
261.559
261.009
260.496
259.991
259.465
258.911
258.319
257.654
256.792
256.591
256.211
255.661
255.507
255.27
254.996
254.702
254.4
254.096
253.797
253.512
253.247
252.978
252.707
252.433
252.157
251.889
251.641
251.398
251.166
250.936
250.712
250.5
250.285
250.063
249.834
249.6
249.351
249.057
248.918
248.748
248.552
248.423
248.283
248.172
248.076
247.976
247.885
247.789
247.692
247.592
247.489
247.385
247.279
247.17
247.06
246.947
246.833
246.725
246.615
246.503
246.433
246.353
246.294
246.226
246.198
246.165
246.153
246.146
246.137
246.124
246.105
246.077
246.044
246.007
245.966
245.906
245.86
245.823
245.787
245.768
245.746
245.749
245.759
245.777
245.805
245.837
245.872
245.897
245.918
245.927
245.942
245.928
245.926
245.917
245.919
245.924
245.937
245.957
245.985
246.021
246.07
246.123
246.177
246.228
246.267
246.306
246.351
246.356
246.378
246.395
246.421
246.455
246.497
246.548
246.608
246.677
246.751
246.831
246.917
246.998
247.083
247.17
247.225
247.285
247.355
247.394
247.441
247.492
247.574
350.684
351.013
351.387
351.177
349.704
347.628
345.977
344.624
343.383
342.24
341.19
340.163
339.166
338.231
337.374
336.625
335.978
335.413
334.937
334.55
334.214
333.949
333.764
333.668
333.658
333.748
333.96
334.309
334.784
335.375
336.063
336.843
337.7
338.601
339.527
340.477
341.446
342.387
343.275
344.102
344.826
345.41
345.839
346.118
346.227
346.148
345.867
345.384
344.699
343.83
342.758
341.494
340.057
338.486
336.752
334.901
332.922
330.865
328.722
326.54
324.309
322.056
319.776
317.486
315.177
312.904
310.622
308.393
306.172
304.001
301.874
299.799
297.791
295.821
293.861
291.984
290.098
288.275
286.492
284.793
283.121
281.5
279.911
278.377
276.937
275.572
274.258
272.968
271.706
270.475
269.292
268.144
267.042
265.963
264.926
263.913
262.956
262.043
261.162
260.304
259.464
258.648
257.867
257.112
256.382
255.684
255.01
254.377
253.761
253.18
252.606
252.063
251.542
251.058
250.574
250.071
249.546
248.98
248.356
247.564
247.356
246.99
246.515
246.322
246.074
245.798
245.505
245.207
244.91
244.616
244.336
244.072
243.806
243.539
243.27
242.997
242.736
242.49
242.25
242.022
241.793
241.574
241.363
241.15
240.931
240.706
240.474
240.231
239.946
239.8
239.628
239.434
239.296
239.153
239.036
238.936
238.833
238.737
238.637
238.534
238.429
238.318
238.205
238.09
237.973
237.855
237.737
237.617
237.505
237.393
237.278
237.203
237.12
237.056
236.983
236.947
236.905
236.882
236.864
236.844
236.822
236.793
236.758
236.718
236.674
236.628
236.566
236.516
236.476
236.436
236.413
236.385
236.384
236.388
236.401
236.422
236.447
236.474
236.495
236.51
236.516
236.526
236.512
236.508
236.497
236.498
236.502
236.514
236.534
236.561
236.597
236.645
236.696
236.75
236.798
236.837
236.872
236.915
236.92
236.937
236.954
236.978
237.011
237.053
237.104
237.164
237.233
237.309
237.39
237.477
237.559
237.645
237.732
237.791
237.854
237.926
237.972
238.024
238.079
238.168
350.385
350.7
350.85
349.988
348.148
346.417
345.005
343.815
342.817
341.994
341.258
340.45
339.682
339
338.392
337.863
337.409
337.011
336.684
336.431
336.218
336.066
335.983
335.972
336.043
336.215
336.502
336.907
337.423
338.034
338.725
339.487
340.304
341.139
341.968
342.784
343.578
344.301
344.923
345.442
345.819
346.003
345.98
345.747
345.301
344.63
343.703
342.534
341.134
339.545
337.728
335.719
333.539
331.263
328.83
326.327
323.706
321.06
318.361
315.684
313.005
310.358
307.729
305.143
302.568
300.09
297.629
295.284
292.969
290.746
288.602
286.524
284.55
282.623
280.72
278.929
277.127
275.403
273.731
272.155
270.604
269.107
267.644
266.244
264.95
263.741
262.572
261.43
260.313
259.225
258.181
257.17
256.194
255.243
254.335
253.445
252.617
251.821
251.056
250.312
249.581
248.872
248.192
247.533
246.897
246.287
245.701
245.149
244.613
244.107
243.606
243.135
242.681
242.259
241.831
241.387
240.926
240.423
239.876
239.194
238.999
238.681
238.318
238.098
237.874
237.631
237.372
237.108
236.845
236.582
236.334
236.096
235.857
235.618
235.376
235.131
234.9
234.677
234.461
234.255
234.048
233.853
233.663
233.471
233.273
233.071
232.86
232.64
232.385
232.246
232.089
231.916
231.786
231.655
231.548
231.46
231.37
231.284
231.197
231.106
231.01
230.909
230.803
230.694
230.583
230.471
230.358
230.246
230.14
230.037
229.932
229.864
229.789
229.733
229.668
229.635
229.596
229.574
229.555
229.535
229.512
229.482
229.448
229.409
229.365
229.323
229.266
229.219
229.183
229.146
229.125
229.101
229.1
229.106
229.119
229.139
229.164
229.189
229.21
229.225
229.231
229.242
229.229
229.228
229.219
229.22
229.226
229.24
229.262
229.293
229.33
229.381
229.434
229.49
229.539
229.581
229.616
229.658
229.664
229.681
229.697
229.722
229.754
229.796
229.848
229.91
229.981
230.059
230.142
230.231
230.316
230.404
230.49
230.553
230.619
230.694
230.744
230.801
230.861
230.955
350.199
350.378
350.042
348.728
347.047
345.548
344.343
343.392
342.682
342.106
341.513
340.935
340.411
339.949
339.541
339.183
338.872
338.6
338.379
338.222
338.098
338.033
338.023
338.078
338.218
338.455
338.793
339.232
339.768
340.378
341.043
341.754
342.492
343.212
343.882
344.49
345.031
345.442
345.691
345.77
345.639
345.262
344.607
343.665
342.439
340.938
339.111
336.994
334.615
332.058
329.237
326.257
323.137
319.978
316.727
313.447
310.109
306.77
303.513
300.301
297.23
294.224
291.328
288.538
285.792
283.231
280.704
278.397
276.128
274.014
272.008
270.073
268.278
266.53
264.823
263.261
261.674
260.189
258.765
257.459
256.156
254.917
253.699
252.549
251.496
250.536
249.593
248.683
247.788
246.92
246.086
245.279
244.495
243.737
243.017
242.307
241.657
241.025
240.421
239.833
239.253
238.691
238.152
237.631
237.128
236.645
236.182
235.745
235.323
234.923
234.528
234.159
233.803
233.469
233.125
232.768
232.402
231.993
231.552
231.012
230.84
230.6
230.362
230.14
229.973
229.786
229.581
229.374
229.166
228.958
228.761
228.569
228.377
228.186
227.992
227.794
227.609
227.427
227.253
227.085
226.918
226.763
226.608
226.451
226.291
226.127
225.953
225.771
225.561
225.441
225.311
225.172
225.062
224.955
224.869
224.804
224.737
224.674
224.609
224.541
224.468
224.388
224.302
224.21
224.115
224.019
223.922
223.827
223.736
223.652
223.565
223.511
223.455
223.414
223.365
223.344
223.318
223.305
223.296
223.283
223.267
223.244
223.217
223.186
223.148
223.118
223.071
223.034
223.006
222.98
222.967
222.955
222.959
222.97
222.989
223.015
223.043
223.072
223.098
223.118
223.128
223.147
223.138
223.141
223.138
223.143
223.154
223.173
223.201
223.237
223.28
223.336
223.395
223.456
223.51
223.557
223.595
223.641
223.65
223.668
223.687
223.713
223.747
223.791
223.845
223.91
223.984
224.066
224.153
224.246
224.334
224.426
224.513
224.581
224.651
224.728
224.784
224.845
224.91
225.012
350.062
349.982
349.21
347.781
346.23
344.942
343.958
343.26
342.766
342.336
341.921
341.547
341.218
340.928
340.666
340.432
340.228
340.056
339.926
339.849
339.807
339.809
339.857
339.972
340.168
340.451
340.817
341.267
341.795
342.37
342.97
343.575
344.173
344.706
345.127
345.419
345.574
345.526
345.21
344.63
343.747
342.526
340.909
338.896
336.493
333.765
330.617
327.145
323.397
319.522
315.485
311.306
307.161
302.911
298.891
294.721
290.753
286.636
282.974
279.212
275.925
272.633
269.675
266.82
264.095
261.592
259.183
257.073
255.007
253.174
251.445
249.83
248.388
246.978
245.641
244.474
243.271
242.186
241.171
240.299
239.378
238.535
237.696
236.92
236.227
235.62
235.001
234.417
233.847
233.287
232.756
232.236
231.728
231.229
230.758
230.286
229.864
229.446
229.05
228.662
228.276
227.904
227.548
227.203
226.869
226.546
226.236
225.942
225.66
225.392
225.128
224.886
224.652
224.428
224.193
223.948
223.702
223.412
223.103
222.729
222.578
222.458
222.336
222.161
222.056
221.942
221.808
221.675
221.541
221.406
221.277
221.149
221.021
220.894
220.763
220.628
220.503
220.378
220.261
220.144
220.03
219.926
219.82
219.713
219.602
219.489
219.363
219.233
219.081
218.988
218.901
218.807
218.728
218.654
218.599
218.565
218.53
218.498
218.466
218.43
218.39
218.339
218.283
218.218
218.149
218.078
218.004
217.936
217.868
217.81
217.75
217.717
217.687
217.668
217.644
217.641
217.634
217.638
217.646
217.646
217.644
217.637
217.623
217.607
217.582
217.569
217.538
217.516
217.502
217.492
217.493
217.496
217.51
217.534
217.563
217.599
217.637
217.675
217.71
217.739
217.759
217.788
217.788
217.799
217.806
217.819
217.839
217.867
217.903
217.948
217.999
218.062
218.13
218.199
218.261
218.316
218.361
218.413
218.429
218.452
218.476
218.505
218.543
218.591
218.65
218.719
218.799
218.886
218.979
219.077
219.171
219.268
219.357
219.432
219.506
219.587
219.65
219.718
219.789
219.899
349.949
349.641
348.545
347.052
345.649
344.565
343.797
343.297
342.949
342.665
342.417
342.207
342.018
341.847
341.695
341.561
341.448
341.36
341.314
341.308
341.319
341.375
341.476
341.637
341.868
342.173
342.54
342.966
343.443
343.934
344.404
344.826
345.186
345.422
345.459
345.247
344.789
344
342.785
341.146
339.064
336.542
333.472
329.894
325.824
321.439
316.606
311.468
306.17
300.646
295.603
290.2
285.236
279.887
275.402
270.481
266.164
261.504
257.706
253.641
250.422
247.037
244.257
241.411
238.959
236.637
234.572
232.757
231.053
229.594
228.24
227.04
226.008
225.011
224.126
223.37
222.652
221.983
221.45
221.033
220.571
220.16
219.801
219.45
219.23
219.009
218.831
218.608
218.465
218.266
218.128
217.951
217.809
217.622
217.475
217.294
217.16
217.007
216.868
216.733
216.587
216.458
216.321
216.186
216.051
215.917
215.786
215.663
215.544
215.435
215.325
215.234
215.144
215.056
214.953
214.837
214.728
214.573
214.422
214.223
214.12
214.13
214.108
214.027
213.994
213.961
213.913
213.865
213.825
213.776
213.73
213.68
213.627
213.576
213.521
213.461
213.41
213.354
213.303
213.251
213.199
213.159
213.111
213.063
213.01
212.96
212.893
212.825
212.741
212.688
212.652
212.61
212.573
212.54
212.526
212.529
212.532
212.54
212.546
212.553
212.55
212.539
212.521
212.491
212.453
212.418
212.374
212.341
212.303
212.278
212.252
212.246
212.247
212.256
212.262
212.283
212.304
212.331
212.36
212.382
212.399
212.413
212.416
212.425
212.417
212.426
212.414
212.414
212.419
212.429
212.448
212.471
212.503
212.542
212.588
212.638
212.688
212.74
212.788
212.83
212.864
212.908
212.922
212.943
212.964
212.99
213.022
213.061
213.109
213.165
213.227
213.301
213.379
213.46
213.533
213.599
213.654
213.716
213.742
213.773
213.804
213.841
213.885
213.939
214.004
214.079
214.166
214.26
214.36
214.466
214.567
214.67
214.766
214.849
214.929
215.015
215.087
215.162
215.24
215.36
349.852
349.28
347.968
346.507
345.27
344.373
343.786
343.428
343.211
343.048
342.934
342.843
342.76
342.683
342.615
342.561
342.526
342.513
342.525
342.567
342.628
342.724
342.861
343.045
343.284
343.578
343.906
344.26
344.629
344.96
345.205
345.327
345.294
345.019
344.407
343.366
341.875
339.881
337.269
334.023
330.189
325.938
320.918
315.36
309.326
302.981
296.688
289.946
283.452
276.388
270.883
264.571
259.209
253.111
248.482
243.227
238.993
234.317
230.717
226.829
223.937
220.847
218.512
215.994
214.058
212.038
210.516
208.983
207.794
206.641
205.741
204.91
204.247
203.64
203.121
202.678
202.401
201.963
201.889
201.72
201.706
201.505
201.62
201.532
201.761
201.775
202.028
202.059
202.33
202.432
202.682
202.807
203.036
203.155
203.36
203.491
203.678
203.82
203.966
204.12
204.233
204.384
204.485
204.59
204.68
204.762
204.836
204.914
204.981
205.063
205.128
205.216
205.283
205.365
205.402
205.425
205.458
205.46
205.5
205.453
205.462
205.567
205.67
205.699
205.747
205.798
205.859
205.906
205.975
206.017
206.067
206.102
206.134
206.164
206.201
206.222
206.257
206.276
206.302
206.324
206.342
206.373
206.394
206.409
206.424
206.444
206.442
206.45
206.435
206.439
206.455
206.47
206.486
206.505
206.535
206.58
206.628
206.683
206.732
206.788
206.83
206.865
206.888
206.901
206.901
206.908
206.903
206.91
206.91
206.922
206.934
206.96
206.996
207.041
207.082
207.133
207.184
207.24
207.296
207.344
207.387
207.426
207.453
207.49
207.505
207.536
207.554
207.577
207.607
207.642
207.684
207.729
207.782
207.842
207.907
207.975
208.043
208.111
208.177
208.236
208.287
208.347
208.38
208.418
208.456
208.497
208.545
208.598
208.66
208.73
208.806
208.892
208.984
209.078
209.165
209.244
209.313
209.388
209.426
209.468
209.511
209.557
209.61
209.672
209.745
209.829
209.924
210.027
210.136
210.252
210.361
210.473
210.575
210.671
210.757
210.85
210.932
211.016
211.103
211.235
349.696
348.904
347.506
346.114
345.041
344.302
343.854
343.633
343.508
343.449
343.431
343.425
343.422
343.421
343.422
343.43
343.453
343.493
343.551
343.628
343.721
343.839
343.988
344.166
344.379
344.619
344.854
345.067
345.234
345.293
345.156
344.753
344.024
342.867
341.182
338.829
335.744
332.01
327.468
322.138
316.108
309.89
302.827
295.302
287.643
279.396
272.39
264.525
257.519
249.544
243.962
237.34
232.098
226.067
221.675
216.777
212.978
208.886
205.652
202.528
200.003
197.681
195.774
193.94
192.504
190.957
189.996
188.724
188.145
187.119
186.78
186.135
185.846
185.535
185.241
185.063
185.066
184.745
185.014
184.877
185.175
185.065
185.424
185.494
185.925
186.061
186.505
186.692
187.147
187.446
187.883
188.21
188.627
188.967
189.378
189.74
190.143
190.503
190.878
191.255
191.6
191.979
192.307
192.643
192.957
193.259
193.547
193.833
194.1
194.375
194.635
194.908
195.145
195.39
195.585
195.754
195.933
196.115
196.339
196.476
196.606
196.825
197.056
197.195
197.346
197.496
197.659
197.816
197.99
198.135
198.284
198.412
198.538
198.66
198.788
198.902
199.025
199.128
199.235
199.338
199.434
199.539
199.634
199.719
199.809
199.9
199.977
200.062
200.121
200.187
200.262
200.34
200.415
200.49
200.571
200.664
200.761
200.865
200.965
201.071
201.164
201.247
201.319
201.381
201.427
201.479
201.518
201.566
201.611
201.665
201.72
201.785
201.858
201.941
202.021
202.107
202.193
202.282
202.368
202.447
202.52
202.587
202.645
202.711
202.757
202.812
202.863
202.916
202.972
203.035
203.104
203.176
203.253
203.337
203.424
203.514
203.602
203.691
203.777
203.856
203.927
204.008
204.063
204.121
204.179
204.239
204.305
204.375
204.454
204.54
204.632
204.734
204.84
204.95
205.053
205.149
205.233
205.324
205.377
205.433
205.49
205.548
205.612
205.685
205.768
205.862
205.967
206.081
206.201
206.327
206.446
206.568
206.68
206.789
206.884
206.985
207.079
207.173
207.27
207.417
349.455
348.567
347.154
345.851
344.912
344.309
343.991
343.872
343.82
343.833
343.883
343.943
344
344.055
344.108
344.164
344.229
344.304
344.389
344.484
344.586
344.704
344.835
344.971
345.111
345.238
345.3
345.263
345.071
344.628
343.819
342.529
340.669
338.135
334.855
330.626
325.379
319.491
312.78
305.336
297.151
288.754
280.393
271.385
262.859
253.234
246.148
237.894
231.103
223.347
217.789
211.698
206.822
201.784
197.722
193.912
190.554
187.575
184.728
182.689
180.547
179.204
177.566
176.613
175.41
174.606
173.936
173.115
172.949
172.061
172.242
171.604
171.745
171.528
171.397
171.518
171.47
171.449
171.798
171.624
172.059
171.972
172.429
172.534
173.02
173.15
173.625
173.835
174.327
174.649
175.132
175.487
175.96
176.367
176.847
177.287
177.772
178.219
178.695
179.174
179.648
180.149
180.614
181.091
181.553
182.01
182.454
182.888
183.31
183.73
184.147
184.569
184.951
185.332
185.66
185.973
186.3
186.657
187.047
187.401
187.684
188.007
188.343
188.593
188.849
189.104
189.371
189.638
189.918
190.17
190.421
190.643
190.868
191.086
191.311
191.52
191.735
191.925
192.119
192.303
192.483
192.667
192.838
192.999
193.165
193.332
193.488
193.65
193.792
193.925
194.064
194.206
194.344
194.478
194.614
194.759
194.908
195.063
195.217
195.376
195.521
195.658
195.783
195.896
195.993
196.093
196.182
196.276
196.368
196.467
196.567
196.675
196.79
196.913
197.034
197.16
197.284
197.408
197.528
197.64
197.746
197.846
197.938
198.035
198.115
198.2
198.288
198.371
198.459
198.552
198.65
198.752
198.857
198.967
199.079
199.194
199.304
199.416
199.524
199.627
199.722
199.825
199.904
199.986
200.066
200.149
200.235
200.326
200.423
200.527
200.638
200.757
200.88
201.006
201.127
201.242
201.344
201.453
201.523
201.596
201.67
201.742
201.82
201.906
202.001
202.107
202.223
202.349
202.481
202.619
202.75
202.884
203.008
203.131
203.236
203.347
203.455
203.56
203.668
203.831
349.146
348.247
346.87
345.667
344.847
344.37
344.171
344.117
344.119
344.186
344.29
344.396
344.495
344.587
344.676
344.763
344.852
344.944
345.036
345.128
345.216
345.304
345.38
345.424
345.422
345.345
345.102
344.611
343.776
342.477
340.583
337.951
334.442
329.972
324.601
318.098
310.466
302.239
293.854
284.644
274.81
264.295
255.668
245.819
237.268
227.414
220.595
212.632
206.514
199.851
194.345
189.639
185.052
181.628
177.901
175.485
172.516
170.823
168.351
167.482
165.621
165.278
163.733
163.728
162.526
162.65
161.873
161.915
161.659
161.443
161.73
161.248
161.75
161.407
161.623
161.908
161.714
162.097
162.396
162.202
162.703
162.571
163.074
163.129
163.593
163.622
164.066
164.194
164.645
164.853
165.294
165.535
165.968
166.3
166.737
167.111
167.556
167.956
168.407
168.857
169.325
169.823
170.304
170.803
171.298
171.8
172.297
172.787
173.277
173.765
174.258
174.756
175.216
175.683
176.084
176.504
176.947
177.427
177.938
178.452
178.887
179.279
179.699
180.059
180.409
180.759
181.12
181.484
181.861
182.21
182.56
182.873
183.193
183.505
183.824
184.127
184.436
184.714
184.999
185.263
185.53
185.793
186.039
186.279
186.521
186.765
186.999
187.238
187.464
187.666
187.87
188.077
188.281
188.476
188.669
188.868
189.072
189.28
189.488
189.701
189.897
190.093
190.271
190.439
190.589
190.74
190.881
191.024
191.166
191.312
191.459
191.612
191.77
191.936
192.102
192.269
192.431
192.594
192.749
192.896
193.039
193.175
193.302
193.435
193.549
193.668
193.794
193.911
194.032
194.158
194.288
194.421
194.557
194.694
194.834
194.975
195.111
195.247
195.38
195.508
195.629
195.757
195.863
195.971
196.076
196.183
196.292
196.404
196.523
196.647
196.778
196.915
197.057
197.201
197.342
197.477
197.599
197.728
197.818
197.91
198.002
198.091
198.185
198.285
198.395
198.513
198.643
198.782
198.927
199.078
199.223
199.369
199.506
199.644
199.762
199.884
200.008
200.125
200.246
200.427
348.816
347.922
346.611
345.525
344.83
344.473
344.365
344.345
344.393
344.507
344.646
344.782
344.906
345.021
345.128
345.228
345.322
345.411
345.491
345.556
345.601
345.621
345.59
345.472
345.221
344.76
343.963
342.705
340.836
338.235
334.792
330.336
324.688
317.774
309.977
301.649
291.972
281.326
272.004
261.483
250.823
238.992
230.607
220.696
212.81
203.752
197.363
190.201
184.853
179.592
174.685
171.354
167.34
165.411
162.182
161.115
158.398
158.055
155.927
156.114
154.506
154.926
153.594
154.298
153.237
154.055
153.275
154.096
153.596
154.319
154.318
154.463
155.034
154.642
155.294
155.381
155.474
156.108
156.195
156.249
156.749
156.596
157.148
157.137
157.588
157.523
157.964
158.002
158.408
158.477
158.849
158.935
159.296
159.472
159.81
160.022
160.352
160.587
160.915
161.205
161.551
161.924
162.28
162.673
163.066
163.48
163.901
164.334
164.777
165.23
165.696
166.169
166.614
167.084
167.482
167.929
168.413
168.937
169.494
170.066
170.574
170.994
171.454
171.886
172.303
172.721
173.151
173.586
174.032
174.454
174.883
175.272
175.67
176.061
176.459
176.846
177.238
177.597
177.964
178.305
178.65
178.987
179.304
179.618
179.931
180.247
180.555
180.867
181.17
181.444
181.713
181.983
182.252
182.51
182.761
183.015
183.272
183.533
183.795
184.062
184.31
184.563
184.793
185.019
185.222
185.427
185.62
185.814
186.006
186.202
186.397
186.595
186.799
187.008
187.217
187.427
187.63
187.83
188.024
188.208
188.388
188.562
188.725
188.895
189.047
189.203
189.367
189.52
189.676
189.836
189.999
190.164
190.332
190.5
190.668
190.836
190.998
191.161
191.32
191.476
191.624
191.778
191.914
192.049
192.182
192.314
192.448
192.584
192.725
192.871
193.023
193.18
193.34
193.505
193.666
193.822
193.966
194.116
194.227
194.34
194.454
194.561
194.672
194.789
194.914
195.047
195.191
195.344
195.503
195.669
195.828
195.987
196.139
196.294
196.425
196.561
196.7
196.832
196.967
197.167
348.509
347.599
346.367
345.407
344.848
344.598
344.547
344.557
344.644
344.791
344.952
345.102
345.238
345.36
345.468
345.562
345.643
345.709
345.752
345.764
345.728
345.624
345.407
344.993
344.29
343.163
341.454
339.028
335.671
331.297
325.899
319.226
311.239
301.866
291.562
282.348
271.21
258.396
248.568
237.151
226.75
214.892
206.784
197.374
190.437
182.795
177.074
171.197
166.687
162.653
159.025
156.625
153.607
152.554
150.062
149.883
147.566
148.22
146.526
147.396
146.152
147.143
146.067
147.309
146.51
147.832
147.238
148.565
148.155
149.365
149.091
150.058
150.352
150.384
151.291
151.038
151.764
152.407
152.156
152.767
153.071
153.078
153.699
153.605
154.106
154.028
154.517
154.521
154.926
154.912
155.264
155.267
155.599
155.671
155.955
156.032
156.283
156.37
156.603
156.72
156.934
157.151
157.338
157.576
157.791
158.04
158.287
158.555
158.835
159.135
159.449
159.773
160.079
160.417
160.686
161.032
161.437
161.888
162.377
162.903
163.39
163.768
164.183
164.607
165.024
165.45
165.89
166.341
166.806
167.258
167.719
168.15
168.59
169.027
169.471
169.908
170.35
170.764
171.185
171.58
171.981
172.373
172.746
173.119
173.489
173.864
174.237
174.613
174.983
175.323
175.656
175.983
176.312
176.629
176.938
177.243
177.551
177.863
178.176
178.494
178.793
179.099
179.379
179.661
179.916
180.174
180.419
180.664
180.905
181.151
181.393
181.638
181.885
182.137
182.39
182.641
182.885
183.124
183.354
183.577
183.795
184.007
184.209
184.416
184.607
184.801
185.003
185.193
185.384
185.579
185.777
185.975
186.175
186.375
186.571
186.767
186.957
187.147
187.333
187.518
187.694
187.875
188.042
188.205
188.367
188.526
188.686
188.846
189.011
189.18
189.354
189.532
189.713
189.897
190.079
190.256
190.424
190.595
190.73
190.866
191.002
191.13
191.259
191.394
191.535
191.685
191.844
192.012
192.186
192.366
192.542
192.715
192.882
193.054
193.2
193.352
193.506
193.653
193.803
194.024
348.244
347.294
346.149
345.32
344.891
344.731
344.711
344.753
344.872
345.039
345.207
345.36
345.494
345.607
345.7
345.77
345.816
345.836
345.817
345.739
345.564
345.242
344.679
343.737
342.285
340.11
337.064
333.04
327.787
321.237
313.629
304.733
294.656
283.302
270.757
260.924
248.953
235.006
224.847
213.006
203.516
192.732
185.09
176.922
170.957
165.083
160.149
155.8
152.201
149.036
146.825
144.78
143.324
142.089
141.021
140.777
139.586
140.637
139.466
140.826
139.808
141.361
140.577
142.301
141.721
143.496
143.021
144.753
144.402
145.95
145.653
147.042
146.886
147.779
148.639
148.425
149.367
149.917
149.748
150.641
150.654
151.111
151.772
151.605
152.195
152.165
152.705
152.699
153.135
153.089
153.468
153.46
153.802
153.839
154.116
154.135
154.37
154.395
154.598
154.639
154.802
154.927
155.026
155.188
155.289
155.436
155.552
155.695
155.839
155.996
156.159
156.314
156.446
156.577
156.652
156.833
157.074
157.351
157.663
157.996
158.345
158.569
158.833
159.124
159.431
159.76
160.11
160.477
160.869
161.253
161.661
162.058
162.468
162.878
163.303
163.725
164.156
164.572
164.994
165.4
165.813
166.219
166.612
167.009
167.409
167.818
168.231
168.649
169.062
169.449
169.83
170.2
170.574
170.936
171.295
171.644
171.996
172.35
172.705
173.067
173.41
173.761
174.085
174.416
174.72
175.027
175.32
175.612
175.9
176.192
176.481
176.768
177.058
177.35
177.644
177.935
178.218
178.493
178.76
179.02
179.275
179.525
179.764
180.009
180.238
180.47
180.709
180.935
181.163
181.393
181.625
181.856
182.088
182.318
182.543
182.767
182.986
183.203
183.416
183.629
183.834
184.043
184.241
184.433
184.626
184.812
184.998
185.184
185.373
185.566
185.763
185.962
186.162
186.367
186.569
186.77
186.96
187.154
187.314
187.473
187.632
187.782
187.931
188.085
188.244
188.41
188.586
188.769
188.959
189.153
189.346
189.533
189.718
189.906
190.069
190.237
190.407
190.57
190.736
190.979
348.004
347.017
345.965
345.277
344.951
344.856
344.863
344.937
345.078
345.25
345.416
345.56
345.679
345.768
345.826
345.853
345.845
345.794
345.675
345.441
345.018
344.305
343.141
341.344
338.766
335.115
330.338
324.382
316.98
308.062
298.084
287.471
275.679
262.995
248.887
237.795
225.714
211.894
201.776
190.46
182.094
173.227
166.431
160.207
155.145
150.738
146.652
143.487
140.785
138.534
137.392
135.928
135.938
134.326
135.087
134.099
135.061
135.052
134.815
136.317
135.354
137.499
136.795
138.943
138.367
140.515
140.066
142.128
141.826
143.673
143.405
145.07
144.768
146.176
146.627
146.883
147.955
148.089
148.459
149.421
149.322
150.088
150.723
150.564
151.262
151.274
151.846
151.817
152.319