/*--------------------------------*- C++ -*----------------------------------*\
| =========                 |                                                 |
| \\      /  F ield         | OpenFOAM: The Open Source CFD Toolbox           |
|  \\    /   O peration     | Version:  2312                                  |
|   \\  /    A nd           | Website:  www.openfoam.com                      |
|    \\/     M anipulation  |                                                 |
\*---------------------------------------------------------------------------*/
FoamFile
{
    version     2.0;
    format      ascii;
    arch        "LSB;label=32;scalar=64";
    class       volScalarField;
    location    "0.002";
    object      thermo:psiLiqEff;
}
// * * * * * * * * * * * * * * * * * * * * * * * * * * * * * * * * * * * * * //

dimensions      [-2 4 2 0 0 0 0];

internalField   nonuniform List<scalar> 
48128
(
4.09192e-13
4.09024e-13
4.08808e-13
4.08741e-13
4.08967e-13
4.09969e-13
4.12496e-13
4.14568e-13
4.15721e-13
4.16734e-13
4.17602e-13
4.1861e-13
4.19816e-13
4.21121e-13
4.22383e-13
4.23565e-13
4.24702e-13
4.2581e-13
4.26873e-13
4.27878e-13
4.28884e-13
4.29858e-13
4.30782e-13
4.31639e-13
4.32408e-13
4.33066e-13
4.33596e-13
4.33975e-13
4.34185e-13
4.3425e-13
4.34186e-13
4.33919e-13
4.33466e-13
4.32872e-13
4.32158e-13
4.31309e-13
4.30303e-13
4.29225e-13
4.28052e-13
4.26802e-13
4.25536e-13
4.24283e-13
4.23051e-13
4.21833e-13
4.20679e-13
4.19607e-13
4.18647e-13
4.17768e-13
4.16994e-13
4.16335e-13
4.1581e-13
4.15416e-13
4.15176e-13
4.15079e-13
4.15136e-13
4.15341e-13
4.15694e-13
4.16193e-13
4.16827e-13
4.17581e-13
4.18442e-13
4.1939e-13
4.20421e-13
4.21529e-13
4.22717e-13
4.23974e-13
4.25308e-13
4.26684e-13
4.28128e-13
4.29625e-13
4.31161e-13
4.32744e-13
4.34367e-13
4.36019e-13
4.37742e-13
4.39454e-13
4.41225e-13
4.42968e-13
4.44738e-13
4.46434e-13
4.48155e-13
4.49836e-13
4.51544e-13
4.53192e-13
4.54806e-13
4.5634e-13
4.57849e-13
4.59336e-13
4.60827e-13
4.62267e-13
4.63676e-13
4.65025e-13
4.66335e-13
4.67607e-13
4.68848e-13
4.70047e-13
4.71187e-13
4.72258e-13
4.73281e-13
4.74281e-13
4.75257e-13
4.76197e-13
4.77081e-13
4.77918e-13
4.7872e-13
4.79471e-13
4.80186e-13
4.80841e-13
4.81471e-13
4.82054e-13
4.8263e-13
4.83168e-13
4.83663e-13
4.84113e-13
4.84562e-13
4.85059e-13
4.85614e-13
4.86231e-13
4.86997e-13
4.88055e-13
4.87909e-13
4.88137e-13
4.88673e-13
4.88448e-13
4.88519e-13
4.88636e-13
4.88796e-13
4.88988e-13
4.89192e-13
4.89402e-13
4.89588e-13
4.89754e-13
4.89929e-13
4.90116e-13
4.90311e-13
4.90512e-13
4.90702e-13
4.90858e-13
4.91007e-13
4.91145e-13
4.91283e-13
4.91422e-13
4.91538e-13
4.91661e-13
4.91791e-13
4.91929e-13
4.9205e-13
4.92197e-13
4.92391e-13
4.92295e-13
4.92296e-13
4.92305e-13
4.92229e-13
4.92171e-13
4.92073e-13
4.91962e-13
4.91871e-13
4.91771e-13
4.91683e-13
4.9161e-13
4.91534e-13
4.91485e-13
4.91443e-13
4.91416e-13
4.91386e-13
4.91383e-13
4.91386e-13
4.91393e-13
4.91399e-13
4.91418e-13
4.91412e-13
4.91377e-13
4.91344e-13
4.91287e-13
4.91218e-13
4.91113e-13
4.90997e-13
4.9086e-13
4.90715e-13
4.90571e-13
4.90455e-13
4.90355e-13
4.90301e-13
4.90264e-13
4.90243e-13
4.90247e-13
4.90283e-13
4.90299e-13
4.90294e-13
4.90283e-13
4.90251e-13
4.90206e-13
4.90128e-13
4.90031e-13
4.89919e-13
4.89791e-13
4.89661e-13
4.8953e-13
4.89432e-13
4.89341e-13
4.8929e-13
4.89229e-13
4.89234e-13
4.89225e-13
4.89229e-13
4.89219e-13
4.89197e-13
4.89161e-13
4.89111e-13
4.89044e-13
4.88962e-13
4.88855e-13
4.88743e-13
4.88625e-13
4.88525e-13
4.88426e-13
4.88358e-13
4.88278e-13
4.88261e-13
4.88218e-13
4.88195e-13
4.88157e-13
4.88109e-13
4.88051e-13
4.87979e-13
4.87892e-13
4.87792e-13
4.87681e-13
4.87561e-13
4.87429e-13
4.87313e-13
4.87184e-13
4.87083e-13
4.87026e-13
4.86961e-13
4.86891e-13
4.86872e-13
4.86838e-13
4.86796e-13
4.86721e-13
4.10001e-13
4.09756e-13
4.09405e-13
4.09209e-13
4.09392e-13
4.11227e-13
4.13554e-13
4.155e-13
4.16985e-13
4.18292e-13
4.1979e-13
4.2172e-13
4.23829e-13
4.25811e-13
4.27597e-13
4.29223e-13
4.30718e-13
4.32087e-13
4.33315e-13
4.34396e-13
4.354e-13
4.36294e-13
4.37062e-13
4.37689e-13
4.38155e-13
4.38443e-13
4.38551e-13
4.38537e-13
4.38284e-13
4.37809e-13
4.37156e-13
4.36313e-13
4.35302e-13
4.34154e-13
4.32894e-13
4.31522e-13
4.30043e-13
4.28537e-13
4.27005e-13
4.25469e-13
4.23984e-13
4.22581e-13
4.21276e-13
4.20068e-13
4.18992e-13
4.18066e-13
4.17307e-13
4.16698e-13
4.16256e-13
4.16005e-13
4.1595e-13
4.16098e-13
4.16426e-13
4.16937e-13
4.17641e-13
4.18526e-13
4.19586e-13
4.20802e-13
4.22171e-13
4.23676e-13
4.2531e-13
4.27065e-13
4.28935e-13
4.30909e-13
4.32986e-13
4.35139e-13
4.37384e-13
4.39674e-13
4.42028e-13
4.44405e-13
4.46808e-13
4.49241e-13
4.51697e-13
4.54165e-13
4.56703e-13
4.59211e-13
4.61781e-13
4.6432e-13
4.66876e-13
4.69353e-13
4.71841e-13
4.74289e-13
4.76746e-13
4.79157e-13
4.81503e-13
4.8377e-13
4.85975e-13
4.88166e-13
4.90341e-13
4.9248e-13
4.94564e-13
4.96601e-13
4.98572e-13
5.00511e-13
5.02401e-13
5.04254e-13
5.06044e-13
5.07747e-13
5.09403e-13
5.11019e-13
5.1261e-13
5.14161e-13
5.15653e-13
5.17085e-13
5.1848e-13
5.19806e-13
5.21096e-13
5.22301e-13
5.23481e-13
5.24589e-13
5.25688e-13
5.26729e-13
5.2772e-13
5.28648e-13
5.29556e-13
5.3051e-13
5.31536e-13
5.32639e-13
5.33919e-13
5.35631e-13
5.35923e-13
5.36594e-13
5.37681e-13
5.37826e-13
5.38175e-13
5.38614e-13
5.39103e-13
5.39622e-13
5.40151e-13
5.40678e-13
5.41177e-13
5.41639e-13
5.42109e-13
5.42589e-13
5.4308e-13
5.43577e-13
5.44064e-13
5.44506e-13
5.44939e-13
5.45348e-13
5.45755e-13
5.46159e-13
5.46531e-13
5.46912e-13
5.4731e-13
5.47731e-13
5.48159e-13
5.48621e-13
5.49181e-13
5.49392e-13
5.49676e-13
5.50013e-13
5.50204e-13
5.50418e-13
5.5057e-13
5.50695e-13
5.50834e-13
5.50947e-13
5.51073e-13
5.51204e-13
5.51337e-13
5.51475e-13
5.51621e-13
5.51775e-13
5.51936e-13
5.52108e-13
5.52288e-13
5.52473e-13
5.52653e-13
5.52843e-13
5.5301e-13
5.53109e-13
5.5322e-13
5.53294e-13
5.53382e-13
5.53381e-13
5.53381e-13
5.53355e-13
5.53313e-13
5.53273e-13
5.53241e-13
5.53238e-13
5.53254e-13
5.53284e-13
5.53326e-13
5.53382e-13
5.53482e-13
5.53547e-13
5.53605e-13
5.53642e-13
5.53659e-13
5.53661e-13
5.53634e-13
5.53581e-13
5.53508e-13
5.53414e-13
5.53312e-13
5.53207e-13
5.5313e-13
5.53064e-13
5.53026e-13
5.5297e-13
5.52999e-13
5.5299e-13
5.53e-13
5.5299e-13
5.5297e-13
5.52932e-13
5.5288e-13
5.52812e-13
5.52726e-13
5.52611e-13
5.52489e-13
5.52361e-13
5.52246e-13
5.52154e-13
5.52061e-13
5.51956e-13
5.51947e-13
5.51889e-13
5.51852e-13
5.51793e-13
5.51718e-13
5.51628e-13
5.51519e-13
5.51394e-13
5.51251e-13
5.51096e-13
5.50931e-13
5.50749e-13
5.50583e-13
5.50408e-13
5.50232e-13
5.50134e-13
5.50021e-13
5.49885e-13
5.49822e-13
5.4974e-13
5.49648e-13
5.49494e-13
4.10768e-13
4.10442e-13
4.09992e-13
4.09745e-13
4.10636e-13
4.12941e-13
4.15284e-13
4.17066e-13
4.18642e-13
4.20287e-13
4.2204e-13
4.23777e-13
4.25404e-13
4.26916e-13
4.28296e-13
4.29537e-13
4.30661e-13
4.31685e-13
4.32576e-13
4.33328e-13
4.34001e-13
4.34566e-13
4.35011e-13
4.35324e-13
4.35493e-13
4.35526e-13
4.35412e-13
4.35112e-13
4.34607e-13
4.33914e-13
4.33065e-13
4.3207e-13
4.30954e-13
4.2976e-13
4.28508e-13
4.27194e-13
4.25818e-13
4.24446e-13
4.23101e-13
4.21795e-13
4.20579e-13
4.19488e-13
4.18541e-13
4.17735e-13
4.17091e-13
4.16632e-13
4.16372e-13
4.16311e-13
4.16461e-13
4.16816e-13
4.17397e-13
4.18201e-13
4.19208e-13
4.204e-13
4.218e-13
4.23383e-13
4.2515e-13
4.27067e-13
4.29135e-13
4.31324e-13
4.33634e-13
4.36049e-13
4.38565e-13
4.41173e-13
4.43874e-13
4.46617e-13
4.49439e-13
4.52279e-13
4.55176e-13
4.58083e-13
4.60999e-13
4.63919e-13
4.66825e-13
4.69725e-13
4.72683e-13
4.75577e-13
4.78531e-13
4.8144e-13
4.84345e-13
4.8716e-13
4.89973e-13
4.92736e-13
4.9549e-13
4.98192e-13
5.00794e-13
5.03309e-13
5.05752e-13
5.08183e-13
5.10587e-13
5.12955e-13
5.15258e-13
5.17513e-13
5.19696e-13
5.21848e-13
5.23942e-13
5.26001e-13
5.27981e-13
5.29876e-13
5.31721e-13
5.33528e-13
5.3531e-13
5.3705e-13
5.38727e-13
5.40348e-13
5.41929e-13
5.43442e-13
5.44914e-13
5.463e-13
5.47657e-13
5.48942e-13
5.50216e-13
5.51426e-13
5.52588e-13
5.53678e-13
5.54754e-13
5.55878e-13
5.57068e-13
5.58344e-13
5.59786e-13
5.61664e-13
5.62104e-13
5.62938e-13
5.6415e-13
5.64489e-13
5.65014e-13
5.65621e-13
5.66273e-13
5.66947e-13
5.67624e-13
5.68293e-13
5.68932e-13
5.69529e-13
5.70132e-13
5.70744e-13
5.71364e-13
5.71991e-13
5.72599e-13
5.73163e-13
5.73718e-13
5.74246e-13
5.74772e-13
5.75287e-13
5.75773e-13
5.76268e-13
5.76779e-13
5.77309e-13
5.77851e-13
5.78427e-13
5.7911e-13
5.79433e-13
5.79828e-13
5.80286e-13
5.80588e-13
5.80915e-13
5.81175e-13
5.814e-13
5.81636e-13
5.81849e-13
5.82073e-13
5.82302e-13
5.82537e-13
5.82778e-13
5.83025e-13
5.83275e-13
5.83531e-13
5.83792e-13
5.84058e-13
5.84328e-13
5.84585e-13
5.84846e-13
5.8511e-13
5.85278e-13
5.85467e-13
5.85606e-13
5.85769e-13
5.85834e-13
5.85913e-13
5.85943e-13
5.8596e-13
5.8598e-13
5.86011e-13
5.86058e-13
5.86123e-13
5.86202e-13
5.8629e-13
5.86389e-13
5.8653e-13
5.8664e-13
5.86729e-13
5.86815e-13
5.86861e-13
5.86914e-13
5.86905e-13
5.86882e-13
5.86838e-13
5.86772e-13
5.86695e-13
5.86613e-13
5.86552e-13
5.86503e-13
5.8648e-13
5.86445e-13
5.86479e-13
5.86483e-13
5.86505e-13
5.86501e-13
5.86489e-13
5.86457e-13
5.86409e-13
5.86342e-13
5.86257e-13
5.8614e-13
5.86015e-13
5.85884e-13
5.85765e-13
5.8567e-13
5.85579e-13
5.85471e-13
5.85459e-13
5.85408e-13
5.85366e-13
5.85305e-13
5.85224e-13
5.85124e-13
5.85003e-13
5.84861e-13
5.84699e-13
5.84522e-13
5.84334e-13
5.84129e-13
5.83937e-13
5.83737e-13
5.83532e-13
5.83403e-13
5.8326e-13
5.83096e-13
5.83003e-13
5.82893e-13
5.82773e-13
5.82579e-13
4.11277e-13
4.10892e-13
4.10454e-13
4.107e-13
4.12429e-13
4.14893e-13
4.16874e-13
4.1851e-13
4.20022e-13
4.21425e-13
4.22722e-13
4.23998e-13
4.25246e-13
4.26421e-13
4.27505e-13
4.28456e-13
4.29281e-13
4.30004e-13
4.30616e-13
4.31113e-13
4.31547e-13
4.31889e-13
4.32129e-13
4.32253e-13
4.32266e-13
4.3215e-13
4.31875e-13
4.31424e-13
4.30811e-13
4.30053e-13
4.29172e-13
4.28178e-13
4.27092e-13
4.25955e-13
4.24793e-13
4.23608e-13
4.22406e-13
4.21245e-13
4.20155e-13
4.19144e-13
4.18265e-13
4.17557e-13
4.17039e-13
4.16702e-13
4.16572e-13
4.16666e-13
4.17005e-13
4.17588e-13
4.18418e-13
4.19475e-13
4.20787e-13
4.22345e-13
4.24129e-13
4.26098e-13
4.28293e-13
4.30659e-13
4.3322e-13
4.35913e-13
4.38755e-13
4.41687e-13
4.44726e-13
4.47838e-13
4.51031e-13
4.54283e-13
4.57612e-13
4.60937e-13
4.64323e-13
4.67679e-13
4.71072e-13
4.74436e-13
4.77779e-13
4.81087e-13
4.8433e-13
4.87556e-13
4.90809e-13
4.93964e-13
4.97175e-13
5.00319e-13
5.03433e-13
5.06437e-13
5.09429e-13
5.12362e-13
5.1527e-13
5.18111e-13
5.20804e-13
5.23385e-13
5.25892e-13
5.28378e-13
5.30833e-13
5.33248e-13
5.35591e-13
5.37883e-13
5.40105e-13
5.42296e-13
5.44418e-13
5.46509e-13
5.48497e-13
5.50409e-13
5.52266e-13
5.54085e-13
5.5588e-13
5.57633e-13
5.59324e-13
5.60965e-13
5.62564e-13
5.64099e-13
5.65589e-13
5.66997e-13
5.68373e-13
5.69678e-13
5.70974e-13
5.72203e-13
5.73388e-13
5.74495e-13
5.75604e-13
5.76761e-13
5.77975e-13
5.79288e-13
5.80745e-13
5.82603e-13
5.83093e-13
5.83956e-13
5.85082e-13
5.85541e-13
5.86132e-13
5.8679e-13
5.87488e-13
5.88203e-13
5.88916e-13
5.89626e-13
5.90301e-13
5.90939e-13
5.91583e-13
5.92233e-13
5.92888e-13
5.93554e-13
5.94191e-13
5.94794e-13
5.95383e-13
5.95946e-13
5.96509e-13
5.97051e-13
5.97571e-13
5.981e-13
5.98645e-13
5.99204e-13
5.99782e-13
6.00389e-13
6.01102e-13
6.01469e-13
6.01901e-13
6.02387e-13
6.02734e-13
6.03095e-13
6.0339e-13
6.03643e-13
6.03904e-13
6.04147e-13
6.044e-13
6.04659e-13
6.04928e-13
6.05208e-13
6.05496e-13
6.05788e-13
6.06086e-13
6.06386e-13
6.06688e-13
6.06994e-13
6.0728e-13
6.07568e-13
6.07861e-13
6.08054e-13
6.08267e-13
6.0843e-13
6.08617e-13
6.0871e-13
6.08819e-13
6.08878e-13
6.08924e-13
6.08974e-13
6.09033e-13
6.09107e-13
6.09197e-13
6.093e-13
6.09412e-13
6.0953e-13
6.0969e-13
6.0982e-13
6.09922e-13
6.10026e-13
6.10086e-13
6.10158e-13
6.10162e-13
6.10149e-13
6.10117e-13
6.10062e-13
6.09998e-13
6.09929e-13
6.09874e-13
6.09835e-13
6.09821e-13
6.09794e-13
6.09831e-13
6.0984e-13
6.09868e-13
6.09867e-13
6.09856e-13
6.09825e-13
6.09774e-13
6.09703e-13
6.09612e-13
6.09488e-13
6.09356e-13
6.09218e-13
6.09094e-13
6.08993e-13
6.08902e-13
6.08794e-13
6.08781e-13
6.08735e-13
6.08692e-13
6.0863e-13
6.08546e-13
6.08439e-13
6.08308e-13
6.08153e-13
6.07976e-13
6.07781e-13
6.07576e-13
6.07352e-13
6.07142e-13
6.06922e-13
6.06701e-13
6.06551e-13
6.06388e-13
6.06204e-13
6.06089e-13
6.05957e-13
6.05815e-13
6.0559e-13
4.11628e-13
4.11258e-13
4.11083e-13
4.12095e-13
4.14274e-13
4.16344e-13
4.18047e-13
4.19494e-13
4.20716e-13
4.21729e-13
4.22639e-13
4.23641e-13
4.24599e-13
4.25454e-13
4.26219e-13
4.26885e-13
4.2746e-13
4.27964e-13
4.28381e-13
4.28702e-13
4.28974e-13
4.29168e-13
4.29274e-13
4.29288e-13
4.29198e-13
4.28978e-13
4.28612e-13
4.28097e-13
4.27442e-13
4.26669e-13
4.25799e-13
4.24843e-13
4.23823e-13
4.22786e-13
4.2176e-13
4.20757e-13
4.19784e-13
4.18903e-13
4.18147e-13
4.17518e-13
4.17063e-13
4.16841e-13
4.1687e-13
4.17149e-13
4.17689e-13
4.18502e-13
4.1963e-13
4.21063e-13
4.22791e-13
4.24769e-13
4.27055e-13
4.29611e-13
4.32419e-13
4.35389e-13
4.38612e-13
4.41976e-13
4.45555e-13
4.49227e-13
4.53035e-13
4.56877e-13
4.60788e-13
4.64719e-13
4.68689e-13
4.7266e-13
4.76683e-13
4.8062e-13
4.84595e-13
4.88443e-13
4.92303e-13
4.96068e-13
4.99753e-13
5.03378e-13
5.0687e-13
5.10326e-13
5.13785e-13
5.17084e-13
5.20449e-13
5.23706e-13
5.26905e-13
5.29956e-13
5.32994e-13
5.3596e-13
5.3889e-13
5.41724e-13
5.44369e-13
5.46865e-13
5.493e-13
5.51699e-13
5.54068e-13
5.56392e-13
5.58642e-13
5.6084e-13
5.62975e-13
5.65073e-13
5.67091e-13
5.69083e-13
5.70949e-13
5.72753e-13
5.74498e-13
5.76206e-13
5.77894e-13
5.7954e-13
5.8113e-13
5.82675e-13
5.84178e-13
5.85624e-13
5.87021e-13
5.88344e-13
5.89632e-13
5.90855e-13
5.92071e-13
5.93218e-13
5.94328e-13
5.95363e-13
5.96415e-13
5.97513e-13
5.98655e-13
5.99908e-13
6.01277e-13
6.02993e-13
6.03485e-13
6.04288e-13
6.05208e-13
6.05769e-13
6.06338e-13
6.06958e-13
6.07622e-13
6.08297e-13
6.08972e-13
6.0965e-13
6.10291e-13
6.10904e-13
6.11524e-13
6.12145e-13
6.12773e-13
6.13411e-13
6.14017e-13
6.146e-13
6.15165e-13
6.15707e-13
6.1625e-13
6.16764e-13
6.17266e-13
6.17775e-13
6.18299e-13
6.18835e-13
6.19395e-13
6.1998e-13
6.20662e-13
6.21032e-13
6.21454e-13
6.21918e-13
6.22267e-13
6.22619e-13
6.22906e-13
6.23143e-13
6.23386e-13
6.23615e-13
6.23852e-13
6.24098e-13
6.24355e-13
6.24629e-13
6.24915e-13
6.25211e-13
6.25513e-13
6.25817e-13
6.26123e-13
6.26429e-13
6.26716e-13
6.26996e-13
6.27283e-13
6.2747e-13
6.27673e-13
6.27827e-13
6.28006e-13
6.28095e-13
6.28202e-13
6.28263e-13
6.28313e-13
6.28368e-13
6.28432e-13
6.28513e-13
6.28607e-13
6.28715e-13
6.28833e-13
6.28949e-13
6.29106e-13
6.29235e-13
6.29335e-13
6.29436e-13
6.29492e-13
6.29558e-13
6.29561e-13
6.29546e-13
6.29511e-13
6.29453e-13
6.29387e-13
6.29318e-13
6.29259e-13
6.29218e-13
6.29203e-13
6.29171e-13
6.29206e-13
6.29211e-13
6.29236e-13
6.29233e-13
6.29216e-13
6.29178e-13
6.29116e-13
6.29033e-13
6.28929e-13
6.28791e-13
6.28644e-13
6.28491e-13
6.28356e-13
6.28243e-13
6.28146e-13
6.28031e-13
6.28014e-13
6.2797e-13
6.27924e-13
6.27858e-13
6.2777e-13
6.27655e-13
6.27513e-13
6.27344e-13
6.2715e-13
6.26937e-13
6.26711e-13
6.26468e-13
6.26238e-13
6.25998e-13
6.25765e-13
6.25594e-13
6.25414e-13
6.25212e-13
6.25076e-13
6.24923e-13
6.2476e-13
6.24504e-13
4.11847e-13
4.11636e-13
4.12032e-13
4.13584e-13
4.15587e-13
4.1739e-13
4.18851e-13
4.20011e-13
4.20881e-13
4.21591e-13
4.22322e-13
4.23038e-13
4.2369e-13
4.24266e-13
4.24776e-13
4.25224e-13
4.25614e-13
4.25956e-13
4.26235e-13
4.26433e-13
4.26589e-13
4.26671e-13
4.26684e-13
4.26614e-13
4.26437e-13
4.26138e-13
4.25714e-13
4.25162e-13
4.24492e-13
4.23731e-13
4.22904e-13
4.22025e-13
4.21115e-13
4.20232e-13
4.19413e-13
4.18673e-13
4.18016e-13
4.17518e-13
4.17217e-13
4.17122e-13
4.1728e-13
4.17736e-13
4.18531e-13
4.19677e-13
4.21179e-13
4.23034e-13
4.25313e-13
4.27985e-13
4.31029e-13
4.34347e-13
4.38069e-13
4.42072e-13
4.46339e-13
4.50746e-13
4.55374e-13
4.60138e-13
4.65092e-13
4.70154e-13
4.75199e-13
4.80283e-13
4.85246e-13
4.90204e-13
4.95076e-13
4.99864e-13
5.04668e-13
5.09232e-13
5.13815e-13
5.18074e-13
5.22332e-13
5.26362e-13
5.30244e-13
5.34043e-13
5.37616e-13
5.41142e-13
5.44632e-13
5.47862e-13
5.51186e-13
5.54331e-13
5.57382e-13
5.6021e-13
5.6306e-13
5.65797e-13
5.68513e-13
5.71103e-13
5.73493e-13
5.75691e-13
5.77868e-13
5.79982e-13
5.82077e-13
5.84123e-13
5.86103e-13
5.88031e-13
5.89916e-13
5.91751e-13
5.93506e-13
5.95245e-13
5.96846e-13
5.98411e-13
5.99913e-13
6.01384e-13
6.02843e-13
6.04262e-13
6.0563e-13
6.06959e-13
6.08246e-13
6.09487e-13
6.10682e-13
6.11814e-13
6.12911e-13
6.13955e-13
6.1499e-13
6.15959e-13
6.16898e-13
6.17781e-13
6.18691e-13
6.1964e-13
6.20616e-13
6.21711e-13
6.22894e-13
6.24351e-13
6.24816e-13
6.25467e-13
6.26112e-13
6.26718e-13
6.27173e-13
6.27683e-13
6.28244e-13
6.28811e-13
6.29381e-13
6.29954e-13
6.30496e-13
6.31024e-13
6.31554e-13
6.32083e-13
6.32621e-13
6.33171e-13
6.33686e-13
6.34194e-13
6.34679e-13
6.35149e-13
6.35617e-13
6.36052e-13
6.36487e-13
6.36927e-13
6.37379e-13
6.37839e-13
6.38333e-13
6.38845e-13
6.39442e-13
6.39781e-13
6.40149e-13
6.40545e-13
6.40859e-13
6.41163e-13
6.41409e-13
6.41595e-13
6.41784e-13
6.41965e-13
6.4215e-13
6.42345e-13
6.42553e-13
6.42785e-13
6.4303e-13
6.43293e-13
6.43566e-13
6.43842e-13
6.44122e-13
6.44394e-13
6.44656e-13
6.449e-13
6.4515e-13
6.45305e-13
6.45467e-13
6.45586e-13
6.45727e-13
6.45787e-13
6.45863e-13
6.45901e-13
6.45929e-13
6.45965e-13
6.46013e-13
6.46079e-13
6.46155e-13
6.46247e-13
6.46355e-13
6.46443e-13
6.46578e-13
6.46686e-13
6.46767e-13
6.46844e-13
6.4688e-13
6.46917e-13
6.46904e-13
6.46871e-13
6.46817e-13
6.46742e-13
6.4666e-13
6.46575e-13
6.465e-13
6.46443e-13
6.46413e-13
6.4636e-13
6.46386e-13
6.46376e-13
6.46385e-13
6.46371e-13
6.46338e-13
6.46282e-13
6.46201e-13
6.46098e-13
6.45973e-13
6.45812e-13
6.45641e-13
6.45465e-13
6.45309e-13
6.45175e-13
6.45064e-13
6.44932e-13
6.44904e-13
6.44853e-13
6.44799e-13
6.44725e-13
6.44627e-13
6.445e-13
6.44343e-13
6.44156e-13
6.43943e-13
6.43707e-13
6.43458e-13
6.43191e-13
6.42938e-13
6.42675e-13
6.42427e-13
6.42232e-13
6.42032e-13
6.41812e-13
6.41652e-13
6.41476e-13
6.41291e-13
6.41001e-13
4.12008e-13
4.12102e-13
4.13013e-13
4.1471e-13
4.16569e-13
4.18124e-13
4.1932e-13
4.20173e-13
4.20778e-13
4.21308e-13
4.21819e-13
4.22281e-13
4.22688e-13
4.23047e-13
4.23372e-13
4.23664e-13
4.23917e-13
4.24132e-13
4.24295e-13
4.2439e-13
4.24443e-13
4.24441e-13
4.24381e-13
4.24237e-13
4.23992e-13
4.2364e-13
4.23185e-13
4.22627e-13
4.21974e-13
4.21265e-13
4.20529e-13
4.19788e-13
4.19059e-13
4.18411e-13
4.179e-13
4.17546e-13
4.17359e-13
4.17417e-13
4.17799e-13
4.18502e-13
4.19577e-13
4.21073e-13
4.2307e-13
4.25583e-13
4.28623e-13
4.32126e-13
4.36241e-13
4.40871e-13
4.45981e-13
4.5139e-13
4.57167e-13
4.63304e-13
4.69557e-13
4.76145e-13
4.82549e-13
4.89378e-13
4.96057e-13
5.03183e-13
5.09694e-13
5.16563e-13
5.22717e-13
5.29029e-13
5.34833e-13
5.40555e-13
5.46132e-13
5.51359e-13
5.56485e-13
5.61052e-13
5.65597e-13
5.69693e-13
5.73612e-13
5.7732e-13
5.80672e-13
5.83988e-13
5.87166e-13
5.89969e-13
5.92885e-13
5.95543e-13
5.9805e-13
6.00219e-13
6.02529e-13
6.04659e-13
6.06792e-13
6.08781e-13
6.10567e-13
6.1214e-13
6.13753e-13
6.1528e-13
6.16781e-13
6.18262e-13
6.19673e-13
6.21061e-13
6.22422e-13
6.23765e-13
6.25038e-13
6.26321e-13
6.27469e-13
6.28614e-13
6.29699e-13
6.30769e-13
6.31834e-13
6.32866e-13
6.33856e-13
6.34818e-13
6.35754e-13
6.36661e-13
6.37532e-13
6.38362e-13
6.3916e-13
6.39922e-13
6.4067e-13
6.41361e-13
6.4203e-13
6.42671e-13
6.43344e-13
6.44048e-13
6.44756e-13
6.45594e-13
6.46488e-13
6.47572e-13
6.48011e-13
6.4836e-13
6.48718e-13
6.49229e-13
6.49534e-13
6.49868e-13
6.50262e-13
6.50652e-13
6.51046e-13
6.51442e-13
6.51822e-13
6.52198e-13
6.52577e-13
6.52951e-13
6.53341e-13
6.5374e-13
6.54109e-13
6.5448e-13
6.5483e-13
6.55177e-13
6.55517e-13
6.55825e-13
6.56144e-13
6.56464e-13
6.56796e-13
6.57132e-13
6.5751e-13
6.57901e-13
6.58356e-13
6.58635e-13
6.58898e-13
6.59181e-13
6.5942e-13
6.59642e-13
6.59809e-13
6.59912e-13
6.60016e-13
6.60112e-13
6.6021e-13
6.6032e-13
6.60441e-13
6.60595e-13
6.60762e-13
6.6096e-13
6.6117e-13
6.61385e-13
6.61609e-13
6.61814e-13
6.62022e-13
6.62199e-13
6.62382e-13
6.6248e-13
6.62572e-13
6.6263e-13
6.62703e-13
6.62713e-13
6.62734e-13
6.62721e-13
6.62698e-13
6.62696e-13
6.62705e-13
6.62724e-13
6.62768e-13
6.62815e-13
6.62893e-13
6.62933e-13
6.63028e-13
6.63094e-13
6.63136e-13
6.63167e-13
6.63163e-13
6.63156e-13
6.63111e-13
6.6304e-13
6.62949e-13
6.6284e-13
6.62726e-13
6.6261e-13
6.62503e-13
6.62415e-13
6.62354e-13
6.62264e-13
6.62266e-13
6.62233e-13
6.62212e-13
6.62171e-13
6.6211e-13
6.62026e-13
6.61915e-13
6.61781e-13
6.61625e-13
6.61433e-13
6.61228e-13
6.61018e-13
6.6083e-13
6.60664e-13
6.60528e-13
6.6037e-13
6.60321e-13
6.60252e-13
6.6018e-13
6.60091e-13
6.59976e-13
6.59832e-13
6.59655e-13
6.59445e-13
6.59206e-13
6.58942e-13
6.58664e-13
6.58368e-13
6.58087e-13
6.57796e-13
6.57527e-13
6.57303e-13
6.5708e-13
6.56838e-13
6.5665e-13
6.56448e-13
6.56235e-13
6.55907e-13
4.12141e-13
4.12504e-13
4.13802e-13
4.15582e-13
4.17268e-13
4.18581e-13
4.19517e-13
4.20127e-13
4.20554e-13
4.20903e-13
4.21207e-13
4.21466e-13
4.21699e-13
4.2191e-13
4.22097e-13
4.22264e-13
4.22404e-13
4.22512e-13
4.22569e-13
4.22576e-13
4.22562e-13
4.22494e-13
4.22368e-13
4.22169e-13
4.21884e-13
4.21508e-13
4.21056e-13
4.20533e-13
4.19949e-13
4.1935e-13
4.18778e-13
4.18265e-13
4.17828e-13
4.17542e-13
4.17499e-13
4.17754e-13
4.18309e-13
4.19269e-13
4.20754e-13
4.22777e-13
4.25373e-13
4.28561e-13
4.32506e-13
4.37197e-13
4.42659e-13
4.48699e-13
4.55548e-13
4.63063e-13
4.71076e-13
4.79734e-13
4.87917e-13
4.97002e-13
5.05653e-13
5.15317e-13
5.2371e-13
5.3324e-13
5.41889e-13
5.51545e-13
5.59676e-13
5.68645e-13
5.75957e-13
5.83849e-13
5.90494e-13
5.97456e-13
6.03587e-13
6.09512e-13
6.14876e-13
6.19673e-13
6.24243e-13
6.28209e-13
6.31936e-13
6.35277e-13
6.38179e-13
6.41005e-13
6.43538e-13
6.45714e-13
6.47797e-13
6.4975e-13
6.51313e-13
6.52543e-13
6.53911e-13
6.5513e-13
6.56201e-13
6.57251e-13
6.57909e-13
6.58572e-13
6.5911e-13
6.59782e-13
6.60214e-13
6.60817e-13
6.61235e-13
6.61772e-13
6.62202e-13
6.62771e-13
6.63218e-13
6.63772e-13
6.64182e-13
6.6465e-13
6.65076e-13
6.65491e-13
6.65937e-13
6.66336e-13
6.66758e-13
6.67173e-13
6.67592e-13
6.68005e-13
6.6841e-13
6.68791e-13
6.6916e-13
6.695e-13
6.69842e-13
6.70124e-13
6.70406e-13
6.70679e-13
6.71001e-13
6.71364e-13
6.71703e-13
6.7219e-13
6.72663e-13
6.73288e-13
6.73613e-13
6.73579e-13
6.73649e-13
6.73905e-13
6.74008e-13
6.74114e-13
6.74265e-13
6.74416e-13
6.74541e-13
6.74695e-13
6.74842e-13
6.74999e-13
6.75165e-13
6.75329e-13
6.75501e-13
6.75693e-13
6.75853e-13
6.7603e-13
6.76191e-13
6.76357e-13
6.76521e-13
6.7665e-13
6.768e-13
6.76953e-13
6.77121e-13
6.7728e-13
6.77495e-13
6.77712e-13
6.77977e-13
6.78146e-13
6.78264e-13
6.78398e-13
6.78516e-13
6.78619e-13
6.78663e-13
6.78656e-13
6.78644e-13
6.7862e-13
6.78602e-13
6.78579e-13
6.78587e-13
6.78623e-13
6.78681e-13
6.78777e-13
6.78897e-13
6.7901e-13
6.79151e-13
6.79255e-13
6.79376e-13
6.79458e-13
6.79542e-13
6.7956e-13
6.79555e-13
6.79527e-13
6.79507e-13
6.79442e-13
6.79375e-13
6.79289e-13
6.79196e-13
6.79125e-13
6.79069e-13
6.79026e-13
6.79017e-13
6.78986e-13
6.79013e-13
6.78985e-13
6.79024e-13
6.79022e-13
6.79007e-13
6.78973e-13
6.78912e-13
6.7884e-13
6.78739e-13
6.78612e-13
6.78468e-13
6.78308e-13
6.78147e-13
6.77983e-13
6.77828e-13
6.77693e-13
6.77587e-13
6.77448e-13
6.77403e-13
6.77334e-13
6.77268e-13
6.77185e-13
6.77083e-13
6.76959e-13
6.76807e-13
6.7663e-13
6.76433e-13
6.76199e-13
6.7595e-13
6.75696e-13
6.75464e-13
6.75256e-13
6.75083e-13
6.74885e-13
6.74804e-13
6.74706e-13
6.74606e-13
6.74491e-13
6.74352e-13
6.74182e-13
6.73978e-13
6.73739e-13
6.73468e-13
6.73171e-13
6.72857e-13
6.72524e-13
6.72209e-13
6.71884e-13
6.71586e-13
6.71325e-13
6.71076e-13
6.70806e-13
6.70583e-13
6.7035e-13
6.70106e-13
6.69731e-13
4.12256e-13
4.12931e-13
4.14488e-13
4.16236e-13
4.17727e-13
4.18815e-13
4.1953e-13
4.19967e-13
4.20233e-13
4.20433e-13
4.20572e-13
4.20684e-13
4.20787e-13
4.2088e-13
4.20964e-13
4.21031e-13
4.21074e-13
4.2109e-13
4.21075e-13
4.21023e-13
4.20948e-13
4.2083e-13
4.20662e-13
4.20437e-13
4.20143e-13
4.19784e-13
4.19384e-13
4.18952e-13
4.18504e-13
4.18103e-13
4.17806e-13
4.17657e-13
4.17698e-13
4.1803e-13
4.18774e-13
4.20044e-13
4.21876e-13
4.24351e-13
4.27637e-13
4.31794e-13
4.36807e-13
4.42504e-13
4.49427e-13
4.57349e-13
4.66271e-13
4.76036e-13
4.86133e-13
4.97438e-13
5.08837e-13
5.21843e-13
5.32448e-13
5.45153e-13
5.5643e-13
5.69838e-13
5.80455e-13
5.92997e-13
6.03502e-13
6.15547e-13
6.25152e-13
6.35868e-13
6.44081e-13
6.53095e-13
6.60075e-13
6.67769e-13
6.73808e-13
6.8023e-13
6.85147e-13
6.90173e-13
6.94125e-13
6.97997e-13
7.01049e-13
7.03894e-13
7.06179e-13
7.08285e-13
7.10094e-13
7.11645e-13
7.12621e-13
7.14167e-13
7.14427e-13
7.15026e-13
7.15077e-13
7.15789e-13
7.1538e-13
7.15692e-13
7.14882e-13
7.14832e-13
7.13935e-13
7.13824e-13
7.1287e-13
7.12509e-13
7.11632e-13
7.11192e-13
7.10391e-13
7.09976e-13
7.09259e-13
7.088e-13
7.0815e-13
7.07656e-13
7.07151e-13
7.06617e-13
7.06226e-13
7.05706e-13
7.05357e-13
7.04993e-13
7.04684e-13
7.04402e-13
7.04145e-13
7.03879e-13
7.0365e-13
7.03369e-13
7.03143e-13
7.02842e-13
7.02613e-13
7.02332e-13
7.02208e-13
7.02126e-13
7.02014e-13
7.02009e-13
7.01871e-13
7.02032e-13
7.02e-13
7.01643e-13
7.01291e-13
7.01191e-13
7.0103e-13
7.00855e-13
7.00648e-13
7.00487e-13
7.00252e-13
7.00111e-13
6.99938e-13
6.99821e-13
6.99712e-13
6.99609e-13
6.99485e-13
6.99413e-13
6.99294e-13
6.99229e-13
6.99143e-13
6.99067e-13
6.99006e-13
6.989e-13
6.9883e-13
6.98781e-13
6.9873e-13
6.98662e-13
6.98666e-13
6.98639e-13
6.98692e-13
6.98677e-13
6.98625e-13
6.98571e-13
6.98518e-13
6.98455e-13
6.98352e-13
6.98202e-13
6.9804e-13
6.97852e-13
6.97688e-13
6.97497e-13
6.97356e-13
6.97239e-13
6.97162e-13
6.97116e-13
6.97117e-13
6.97094e-13
6.97111e-13
6.97087e-13
6.97087e-13
6.97047e-13
6.97005e-13
6.96917e-13
6.96798e-13
6.96645e-13
6.96508e-13
6.96337e-13
6.96164e-13
6.95978e-13
6.95791e-13
6.95627e-13
6.95483e-13
6.95354e-13
6.95262e-13
6.95139e-13
6.95087e-13
6.94984e-13
6.94925e-13
6.94846e-13
6.94748e-13
6.9463e-13
6.94489e-13
6.94337e-13
6.94161e-13
6.93961e-13
6.93745e-13
6.93517e-13
6.93292e-13
6.93064e-13
6.92845e-13
6.92648e-13
6.9248e-13
6.92278e-13
6.92168e-13
6.92042e-13
6.91917e-13
6.91779e-13
6.91622e-13
6.91445e-13
6.9124e-13
6.91009e-13
6.90757e-13
6.90471e-13
6.90168e-13
6.89859e-13
6.89572e-13
6.89309e-13
6.89085e-13
6.88837e-13
6.88712e-13
6.88573e-13
6.88432e-13
6.88281e-13
6.88108e-13
6.87903e-13
6.87664e-13
6.87388e-13
6.87079e-13
6.8674e-13
6.86383e-13
6.86006e-13
6.85651e-13
6.85286e-13
6.84951e-13
6.84642e-13
6.84362e-13
6.84059e-13
6.83793e-13
6.83522e-13
6.83241e-13
6.82812e-13
4.12439e-13
4.13375e-13
4.15039e-13
4.16708e-13
4.18004e-13
4.18901e-13
4.19447e-13
4.19717e-13
4.1987e-13
4.19942e-13
4.19964e-13
4.19971e-13
4.19975e-13
4.19977e-13
4.19975e-13
4.19965e-13
4.19937e-13
4.19888e-13
4.19817e-13
4.19723e-13
4.1961e-13
4.19465e-13
4.19284e-13
4.19067e-13
4.18808e-13
4.18516e-13
4.18231e-13
4.17973e-13
4.1777e-13
4.17699e-13
4.17865e-13
4.18354e-13
4.1924e-13
4.20655e-13
4.22732e-13
4.25668e-13
4.29579e-13
4.34412e-13
4.40438e-13
4.47726e-13
4.56267e-13
4.65422e-13
4.76278e-13
4.88417e-13
5.01422e-13
5.16224e-13
5.29504e-13
5.45249e-13
5.60083e-13
5.77985e-13
5.91209e-13
6.07708e-13
6.21434e-13
6.38014e-13
6.50657e-13
6.65358e-13
6.77229e-13
6.90498e-13
7.01357e-13
7.12178e-13
7.21168e-13
7.29642e-13
7.36747e-13
7.43715e-13
7.49264e-13
7.55336e-13
7.59154e-13
7.64273e-13
7.66627e-13
7.7083e-13
7.72229e-13
7.74904e-13
7.76109e-13
7.77411e-13
7.78645e-13
7.79391e-13
7.79381e-13
7.80735e-13
7.79599e-13
7.80174e-13
7.78923e-13
7.79383e-13
7.77876e-13
7.77582e-13
7.75778e-13
7.75211e-13
7.73364e-13
7.72591e-13
7.70712e-13
7.69481e-13
7.67694e-13
7.6636e-13
7.64664e-13
7.63288e-13
7.61631e-13
7.60179e-13
7.58565e-13
7.57131e-13
7.55646e-13
7.54156e-13
7.52795e-13
7.51312e-13
7.50028e-13
7.48719e-13
7.475e-13
7.46333e-13
7.45221e-13
7.44125e-13
7.43099e-13
7.42049e-13
7.41055e-13
7.40019e-13
7.39118e-13
7.38194e-13
7.37457e-13
7.3682e-13
7.36148e-13
7.35465e-13
7.34622e-13
7.34113e-13
7.33625e-13
7.3281e-13
7.31952e-13
7.31435e-13
7.30874e-13
7.30321e-13
7.29716e-13
7.29139e-13
7.28496e-13
7.27965e-13
7.27417e-13
7.26949e-13
7.26486e-13
7.26042e-13
7.25571e-13
7.25156e-13
7.24707e-13
7.24333e-13
7.23943e-13
7.23572e-13
7.2322e-13
7.22839e-13
7.22495e-13
7.22189e-13
7.21864e-13
7.21535e-13
7.21257e-13
7.20951e-13
7.20738e-13
7.20501e-13
7.20231e-13
7.1995e-13
7.19683e-13
7.19413e-13
7.1912e-13
7.18789e-13
7.18442e-13
7.1807e-13
7.17712e-13
7.17333e-13
7.17002e-13
7.16704e-13
7.16449e-13
7.16229e-13
7.16066e-13
7.15881e-13
7.1574e-13
7.15571e-13
7.1541e-13
7.15221e-13
7.15026e-13
7.14795e-13
7.14535e-13
7.14241e-13
7.1396e-13
7.13655e-13
7.1335e-13
7.13038e-13
7.12736e-13
7.12457e-13
7.122e-13
7.11963e-13
7.11761e-13
7.1153e-13
7.11367e-13
7.11176e-13
7.10994e-13
7.10811e-13
7.10612e-13
7.10393e-13
7.10152e-13
7.099e-13
7.09629e-13
7.09339e-13
7.09034e-13
7.08719e-13
7.08414e-13
7.08106e-13
7.07808e-13
7.07532e-13
7.07284e-13
7.07005e-13
7.06814e-13
7.06613e-13
7.06414e-13
7.06204e-13
7.05978e-13
7.05733e-13
7.05462e-13
7.05166e-13
7.04848e-13
7.04498e-13
7.04131e-13
7.03756e-13
7.03402e-13
7.03072e-13
7.02784e-13
7.02473e-13
7.02292e-13
7.02099e-13
7.01905e-13
7.01707e-13
7.01488e-13
7.01239e-13
7.00956e-13
7.00636e-13
7.0028e-13
6.99892e-13
6.99486e-13
6.99057e-13
6.98654e-13
6.98241e-13
6.97861e-13
6.97496e-13
6.97176e-13
6.96835e-13
6.96517e-13
6.96202e-13
6.95877e-13
6.95384e-13
4.12723e-13
4.13775e-13
4.15459e-13
4.17025e-13
4.18161e-13
4.18893e-13
4.1928e-13
4.19425e-13
4.19488e-13
4.19473e-13
4.19412e-13
4.19338e-13
4.19269e-13
4.19203e-13
4.19137e-13
4.19069e-13
4.18991e-13
4.18899e-13
4.18795e-13
4.18681e-13
4.18556e-13
4.18413e-13
4.18254e-13
4.18089e-13
4.17919e-13
4.17766e-13
4.17691e-13
4.17735e-13
4.17967e-13
4.18504e-13
4.1949e-13
4.2107e-13
4.23369e-13
4.26542e-13
4.3072e-13
4.3623e-13
4.43265e-13
4.51436e-13
4.61121e-13
4.72365e-13
4.85377e-13
4.99494e-13
5.14389e-13
5.31465e-13
5.48704e-13