/*--------------------------------*- C++ -*----------------------------------*\
| =========                 |                                                 |
| \\      /  F ield         | OpenFOAM: The Open Source CFD Toolbox           |
|  \\    /   O peration     | Version:  2312                                  |
|   \\  /    A nd           | Website:  www.openfoam.com                      |
|    \\/     M anipulation  |                                                 |
\*---------------------------------------------------------------------------*/
FoamFile
{
    version     2.0;
    format      ascii;
    arch        "LSB;label=32;scalar=64";
    class       volScalarField;
    location    "0.002";
    object      thermo:psiGasEff;
}
// * * * * * * * * * * * * * * * * * * * * * * * * * * * * * * * * * * * * * //

dimensions      [-2 4 2 0 0 0 0];

internalField   nonuniform List<scalar> 
48128
(
0.00844749
0.0084522
0.00847384
0.00848096
0.00848362
0.00847653
0.00845053
0.0084559
0.00850271
0.00858168
0.00871234
0.00885912
0.00900028
0.00912469
0.00922493
0.00929699
0.00934763
0.00937696
0.00938006
0.00935798
0.00931725
0.009254
0.00916692
0.00905447
0.0089148
0.0087463
0.00855129
0.00832714
0.00807464
0.00780005
0.00750658
0.00719755
0.00687617
0.00654601
0.00621219
0.0058712
0.00553692
0.00520558
0.00488013
0.0045676
0.00426712
0.00398223
0.00371012
0.0034563
0.00321573
0.0029941
0.00278396
0.00259042
0.00240894
0.00224448
0.00209048
0.0019515
0.00182226
0.00170625
0.00159954
0.00150331
0.00141535
0.00133532
0.00126223
0.00119598
0.00113571
0.0010809
0.00103092
0.000985404
0.000943802
0.000906002
0.000871334
0.00084004
0.000811164
0.000785091
0.000761243
0.000739357
0.000719412
0.000701347
0.000684663
0.000670126
0.0006564
0.000644584
0.000633316
0.000623585
0.000614088
0.00060601
0.000598226
0.000591584
0.000584981
0.000579134
0.000573167
0.000568239
0.000563404
0.000559363
0.000555367
0.000551903
0.000548502
0.000545518
0.000542718
0.000540189
0.000537736
0.000535251
0.000533016
0.000530809
0.000528926
0.00052715
0.000525434
0.000523762
0.000522161
0.000520588
0.000519014
0.000517435
0.00051586
0.000514286
0.000512787
0.000511249
0.000509637
0.000508002
0.000506365
0.000504898
0.000504521
0.000504609
0.000505869
0.000507675
0.00050405
0.000503908
0.000503749
0.00050076
0.000498622
0.000496654
0.000494795
0.000493349
0.000492058
0.000490773
0.000489457
0.000488145
0.000486841
0.000485815
0.000484904
0.000484202
0.00048348
0.000482742
0.000482004
0.00048126
0.000480626
0.000480002
0.000479336
0.000478815
0.000478377
0.000478295
0.000478308
0.00047861
0.000479013
0.000478306
0.000478296
0.000478239
0.000477846
0.000477475
0.00047688
0.000476204
0.000475549
0.000474783
0.000474149
0.000473534
0.000472938
0.000472441
0.000472043
0.000471782
0.000471637
0.000471693
0.000471827
0.000472047
0.000472324
0.000472669
0.00047306
0.00047307
0.000473144
0.000473095
0.000472971
0.000472638
0.00047224
0.000471697
0.000471095
0.000470476
0.000470002
0.000469595
0.00046939
0.000469336
0.000469405
0.000469561
0.000469946
0.000470272
0.000470539
0.000470793
0.00047096
0.000471018
0.000470934
0.00047074
0.000470454
0.000470056
0.000469621
0.000469191
0.000468835
0.000468584
0.000468509
0.000468489
0.000468701
0.000468908
0.000469217
0.000469487
0.000469729
0.000469929
0.000469976
0.000469959
0.000469854
0.00046959
0.000469273
0.000468906
0.000468607
0.000468371
0.000468229
0.000468116
0.000468342
0.000468507
0.000468825
0.000469102
0.000469354
0.000469574
0.00046974
0.000469789
0.00046977
0.000469679
0.000469511
0.000469252
0.000469021
0.000468717
0.00046849
0.00046858
0.000468593
0.000468706
0.000468976
0.000469219
0.000469469
0.000469825
0.00843393
0.00843822
0.00846388
0.00847224
0.00846713
0.00844434
0.00842214
0.00842928
0.00848197
0.00856452
0.00868253
0.00881083
0.00893133
0.00903443
0.00911244
0.00917412
0.00921638
0.00923944
0.00923903
0.00921596
0.00917628
0.00911639
0.00903484
0.00892987
0.00879916
0.00863998
0.00845486
0.00824409
0.00800644
0.00774644
0.00746587
0.00716891
0.00685968
0.00654131
0.00621756
0.00588657
0.00555929
0.00523412
0.00491352
0.00460343
0.00430433
0.00402002
0.0037477
0.00349227
0.0032495
0.00302502
0.00281259
0.0026162
0.00243175
0.00226392
0.00210648
0.00196425
0.00183202
0.00171282
0.00160345
0.00150443
0.00141391
0.00133151
0.00125634
0.00118808
0.00112594
0.00106937
0.00101776
0.000970695
0.000927707
0.000888578
0.000852735
0.000820443
0.000790709
0.000763689
0.000738931
0.000716247
0.000695546
0.0006768
0.000659514
0.000644328
0.000630035
0.000617616
0.000605782
0.000595423
0.000585394
0.000576751
0.00056849
0.000561293
0.000554186
0.000547782
0.000541367
0.000535962
0.000530705
0.000526186
0.000521747
0.000517806
0.000513959
0.000510524
0.000507287
0.000504322
0.000501416
0.000498509
0.00049584
0.000493227
0.00049094
0.000488752
0.00048662
0.000484549
0.000482551
0.0004806
0.00047865
0.00047672
0.000474796
0.000472901
0.000471085
0.000469252
0.000467356
0.00046545
0.000463563
0.00046186
0.000461163
0.000460864
0.000461593
0.00046283
0.000459165
0.000458565
0.000457894
0.000455008
0.000452669
0.000450665
0.000448743
0.000447179
0.000445747
0.000444339
0.000442905
0.000441482
0.000440077
0.000438928
0.000437879
0.000437023
0.000436146
0.00043526
0.000434376
0.000433499
0.000432723
0.00043196
0.000431168
0.000430507
0.000429917
0.000429636
0.000429412
0.000429436
0.00042954
0.000428674
0.000428416
0.000428094
0.000427559
0.000426976
0.000426254
0.000425451
0.000424675
0.00042382
0.00042308
0.000422365
0.000421665
0.000421072
0.000420576
0.000420202
0.000419925
0.000419837
0.000419823
0.000419883
0.000419994
0.000420174
0.00042039
0.000420285
0.00042024
0.000420089
0.000419855
0.000419469
0.000419017
0.000418437
0.00041781
0.000417169
0.000416672
0.00041623
0.000415989
0.000415889
0.000415897
0.000415998
0.000416295
0.00041655
0.000416736
0.000416925
0.00041703
0.000417041
0.000416918
0.000416706
0.000416412
0.000416021
0.000415601
0.000415189
0.000414848
0.000414599
0.000414519
0.000414491
0.000414659
0.000414845
0.000415111
0.00041535
0.00041556
0.000415736
0.000415772
0.000415752
0.000415653
0.000415415
0.000415131
0.000414802
0.000414539
0.000414316
0.000414202
0.00041411
0.000414306
0.00041446
0.000414746
0.000415006
0.000415244
0.000415456
0.000415623
0.000415687
0.000415692
0.000415633
0.000415508
0.000415302
0.000415125
0.000414877
0.000414721
0.000414829
0.000414871
0.000415013
0.000415282
0.000415532
0.000415787
0.000416154
0.00841808
0.00842986
0.00845682
0.00845902
0.00844322
0.00841206
0.00839783
0.00842585
0.00848392
0.00857023
0.00868164
0.0087951
0.00891319
0.00902241
0.00911476
0.00918104
0.00922605
0.00925279
0.00925702
0.00923982
0.00920619
0.00915303
0.00907827
0.0089793
0.00885372
0.00870151
0.00852158
0.00831581
0.00808318
0.00782803
0.00755115
0.00725555
0.00694641
0.00662784
0.00630295
0.00597034
0.00563981
0.00531172
0.00498719
0.0046722
0.00436765
0.00407792
0.00380016
0.00353921
0.00329074
0.00306076
0.00284355
0.00264211
0.00245311
0.00228042
0.00211916
0.00197287
0.00183711
0.00171479
0.0016025
0.00150085
0.00140803
0.00132366
0.00124676
0.00117694
0.00111343
0.00105564
0.00100301
0.000955069
0.00091137
0.000871674
0.000835353
0.000802608
0.000772436
0.000745114
0.000720038
0.000697145
0.000676279
0.000657388
0.000640063
0.00062479
0.000610448
0.000598002
0.000586123
0.000575664
0.000565579
0.000556896
0.000548638
0.00054142
0.000534298
0.000527848
0.00052141
0.000516005
0.000510747
0.000506216
0.000501759
0.000497792
0.000493913
0.000490452
0.000487187
0.000484193
0.000481255
0.000478319
0.000475617
0.000472971
0.000470652
0.000468424
0.000466249
0.000464132
0.000462092
0.000460097
0.000458106
0.000456134
0.000454172
0.00045224
0.000450387
0.000448521
0.000446594
0.000444659
0.00044274
0.000441039
0.000440271
0.000439914
0.00044041
0.000441547
0.000438195
0.000437243
0.000436409
0.000433709
0.000431304
0.000429261
0.000427346
0.000425768
0.000424294
0.000422865
0.000421413
0.000419973
0.000418558
0.000417386
0.000416306
0.000415412
0.000414501
0.000413584
0.00041267
0.000411765
0.000410956
0.000410162
0.000409342
0.00040865
0.00040803
0.000407694
0.000407419
0.000407353
0.000407397
0.000406542
0.000406176
0.000405799
0.000405226
0.000404599
0.000403847
0.000403024
0.00040222
0.000401352
0.000400587
0.000399842
0.000399115
0.000398491
0.000397959
0.000397544
0.000397223
0.000397082
0.000397015
0.000397021
0.00039708
0.000397206
0.000397352
0.000397207
0.000397112
0.000396926
0.000396659
0.000396248
0.000395767
0.000395176
0.000394546
0.000393899
0.000393386
0.000392935
0.000392678
0.000392551
0.000392531
0.000392595
0.000392853
0.000393061
0.00039322
0.000393365
0.000393442
0.00039342
0.000393286
0.000393067
0.000392766
0.000392376
0.000391959
0.000391551
0.000391216
0.000390966
0.000390882
0.00039084
0.000390989
0.00039116
0.000391402
0.000391622
0.000391813
0.000391973
0.000392001
0.000391978
0.000391881
0.000391653
0.000391382
0.00039107
0.000390817
0.00039061
0.000390496
0.000390406
0.000390588
0.000390735
0.000391
0.000391247
0.000391472
0.000391674
0.000391834
0.000391899
0.000391912
0.000391863
0.000391754
0.000391569
0.00039141
0.000391191
0.000391053
0.000391169
0.000391229
0.000391376
0.000391645
0.000391898
0.000392153
0.00039252
0.00840484
0.00843259
0.00844928
0.00844553
0.00840954
0.00838402
0.00839415
0.00843766
0.00850898
0.0086021
0.00871661
0.00884532
0.00896302
0.00906601
0.00915386
0.00921917
0.00926491
0.00929402
0.00930134
0.00928872
0.00925951
0.00921092
0.00914016
0.00904522
0.00892426
0.00877697
0.0086014
0.0083997
0.00817037
0.00791709
0.00764117
0.00734497
0.00703473
0.00671447
0.00638751
0.00605191
0.00571678
0.00538504
0.0050553
0.00473458
0.00442375
0.00412819
0.0038435
0.00357685
0.00332205
0.00308694
0.00286368
0.00265715
0.00246272
0.00228572
0.00212015
0.0019701
0.00183072
0.00170561
0.00159066
0.00148678
0.00139213
0.00130622
0.00122816
0.00115731
0.00109298
0.00103449
0.000981351
0.000933028
0.000889113
0.000849376
0.000812989
0.000780301
0.000750123
0.000722977
0.000697985
0.000675274
0.000654585
0.000635833
0.000618812
0.000603741
0.000589619
0.00057745
0.000565776
0.000555469
0.000545544
0.000537053
0.000529005
0.000521987
0.000515049
0.000508756
0.000502477
0.000497273
0.000492195
0.000487844
0.000483542
0.000479726
0.000475977
0.000472653
0.000469516
0.00046665
0.000463835
0.000461023
0.00045844
0.000455904
0.000453703
0.000451573
0.000449494
0.000447466
0.000445513
0.000443599
0.000441693
0.0004398
0.000437919
0.000436064
0.000434284
0.000432489
0.000430635
0.000428772
0.000426926
0.000425333
0.000424597
0.00042429
0.000424639
0.00042572
0.00042291
0.000421663
0.00042067
0.000418295
0.000415925
0.000413892
0.000412055
0.000410527
0.000409074
0.000407681
0.000406269
0.000404868
0.0004035
0.000402358
0.0004013
0.00040042
0.000399527
0.000398629
0.000397738
0.000396854
0.000396061
0.000395284
0.000394483
0.000393812
0.000393213
0.000392871
0.000392599
0.000392493
0.000392522
0.000391751
0.000391325
0.000390929
0.000390377
0.000389751
0.000389014
0.000388211
0.000387422
0.000386579
0.000385829
0.000385091
0.000384377
0.00038376
0.00038323
0.000382809
0.00038248
0.000382321
0.000382238
0.000382226
0.000382268
0.00038237
0.000382499
0.000382352
0.00038224
0.000382046
0.000381777
0.000381368
0.000380886
0.000380302
0.000379681
0.000379043
0.000378534
0.000378087
0.000377827
0.000377689
0.000377657
0.000377707
0.000377941
0.000378132
0.000378276
0.000378407
0.000378468
0.000378435
0.0003783
0.000378083
0.000377782
0.0003774
0.000376992
0.000376591
0.000376264
0.000376016
0.000375932
0.000375884
0.000376023
0.000376185
0.000376413
0.000376621
0.000376803
0.000376954
0.000376979
0.000376958
0.000376866
0.000376649
0.000376389
0.000376096
0.000375849
0.000375657
0.000375543
0.000375453
0.000375623
0.000375769
0.000376015
0.000376254
0.000376471
0.000376665
0.00037682
0.000376887
0.000376904
0.000376863
0.000376765
0.000376596
0.000376448
0.000376252
0.000376119
0.000376235
0.00037631
0.000376459
0.000376726
0.000376981
0.000377236
0.000377604
0.00839707
0.00843249
0.00843951
0.00841826
0.00838359
0.00838023
0.00841068
0.00847124
0.00855424
0.00866035
0.00878125
0.00890452
0.00902013
0.00912084
0.00920482
0.00926903
0.00931495
0.00934496
0.00935422
0.00934507
0.0093189
0.00927327
0.00920608
0.00911504
0.00899794
0.00885466
0.00868345
0.00848405
0.00825687
0.00800447
0.00772864
0.00743099
0.00711897
0.00679626
0.00646692
0.00612709
0.00578601
0.00544962
0.00511301
0.00478509
0.00446687
0.00416565
0.00387147
0.00359826
0.00333568
0.00309476
0.00286447
0.00265215
0.00245216
0.0022717
0.00210178
0.00194819
0.00180545
0.0016781
0.00156093
0.00145564
0.00135986
0.00127328
0.00119468
0.00112365
0.00105915
0.00100079
0.000947815
0.000899926
0.000856512
0.000817436
0.000781617
0.000749641
0.000720046
0.000693667
0.00066934
0.000647389
0.000627328
0.00060911
0.000592808
0.000578276
0.000564707
0.000553148
0.000541959
0.000532081
0.00052257
0.00051452
0.000506917
0.000500327
0.000493768
0.000487824
0.000481867
0.000477036
0.000472288
0.000468262
0.000464249
0.000460717
0.000457218
0.000454153
0.000451259
0.000448632
0.000446049
0.000443465
0.000441108
0.000438783
0.000436791
0.000434848
0.00043295
0.000431098
0.000429318
0.000427567
0.000425825
0.000424089
0.000422365
0.000420659
0.00041902
0.000417359
0.000415647
0.000413915
0.000412218
0.000410816
0.000410177
0.000409981
0.000410233
0.000411245
0.000409076
0.000407617
0.000406449
0.000404438
0.000402205
0.000400247
0.000398536
0.000397099
0.000395702
0.000394384
0.000393052
0.000391733
0.000390452
0.000389381
0.000388379
0.000387546
0.000386701
0.000385854
0.000385021
0.000384191
0.000383445
0.000382715
0.000381963
0.000381346
0.000380801
0.000380484
0.000380244
0.000380126
0.00038016
0.000379511
0.000379053
0.000378656
0.000378147
0.00037755
0.000376854
0.000376095
0.000375342
0.000374551
0.000373837
0.000373128
0.000372453
0.000371867
0.000371362
0.000370958
0.000370644
0.000370489
0.000370407
0.000370397
0.000370441
0.000370535
0.00037067
0.000370543
0.000370431
0.000370246
0.000369994
0.000369603
0.00036914
0.000368577
0.000367978
0.000367363
0.000366871
0.000366438
0.000366188
0.000366048
0.000366019
0.000366067
0.000366288
0.000366472
0.000366616
0.000366746
0.000366802
0.000366769
0.000366645
0.000366433
0.000366142
0.000365775
0.000365386
0.000365
0.000364684
0.000364446
0.000364367
0.000364318
0.000364456
0.000364611
0.000364833
0.000365033
0.00036521
0.000365357
0.000365384
0.000365368
0.000365287
0.000365084
0.000364839
0.000364567
0.000364331
0.000364154
0.000364046
0.000363959
0.000364119
0.000364266
0.000364499
0.000364731
0.000364943
0.000365132
0.000365284
0.000365353
0.000365377
0.000365343
0.000365257
0.000365103
0.000364966
0.000364793
0.000364665
0.000364775
0.000364867
0.000365018
0.000365281
0.000365539
0.000365796
0.000366165
0.00837469
0.00842105
0.00841101
0.00838907
0.00837545
0.00839251
0.00844335
0.00851935
0.0086152
0.00872779
0.00885092
0.00897094
0.00908243
0.00917978
0.00926049
0.00932301
0.00936848
0.00939821
0.00940898
0.00940224
0.00937804
0.00933578
0.009272
0.0091848
0.00907178
0.00893261
0.00876482
0.00856686
0.0083409
0.00808903
0.00781279
0.00751269
0.0071979
0.00687147
0.00653907
0.00619329
0.00584437
0.00550166
0.0051555
0.00481748
0.00448995
0.00418116
0.00387968
0.00359782
0.00332581
0.00307812
0.00283951
0.00262083
0.00241492
0.002231
0.00205683
0.00190064
0.00175537
0.00162692
0.00150798
0.0014028
0.00130658
0.00122083
0.00114229
0.00107238
0.00100847
0.000951327
0.000899365
0.00085288
0.000810861
0.000773302
0.000738848
0.000708355
0.000680043
0.000655129
0.000632085
0.000611501
0.000592591
0.000575431
0.000560339
0.000546753
0.000534181
0.000523626
0.000513272
0.000504172
0.000495436
0.000488139
0.000481305
0.000475436
0.00046949
0.000464117
0.000458681
0.000454398
0.000450145
0.000446596
0.000443012
0.000439909
0.000436794
0.000434131
0.000431594
0.000429307
0.000427044
0.000424784
0.000422744
0.000420716
0.000419009
0.000417322
0.000415678
0.000414079
0.000412543
0.000411025
0.000409513
0.000407997
0.000406493
0.000404997
0.000403554
0.000402077
0.000400564
0.000399011
0.000397536
0.000396402
0.000395915
0.000395867
0.000396061
0.000397001
0.000395469
0.000393894
0.000392594
0.000390937
0.000388957
0.000387135
0.000385582
0.000384261
0.000382948
0.000381741
0.000380518
0.00037932
0.000378167
0.000377199
0.000376283
0.000375524
0.000374751
0.000373987
0.000373239
0.000372491
0.00037182
0.00037116
0.000370484
0.000369951
0.000369489
0.000369217
0.000369033
0.000368927
0.000368979
0.000368472
0.000368015
0.000367634
0.000367178
0.000366634
0.000365997
0.000365299
0.000364602
0.000363879
0.000363218
0.000362554
0.000361939
0.000361403
0.000360941
0.000360573
0.000360291
0.000360156
0.00036009
0.000360098
0.000360156
0.000360253
0.000360408
0.000360321
0.000360219
0.000360056
0.000359832
0.000359474
0.000359044
0.000358517
0.000357953
0.000357375
0.000356912
0.000356505
0.000356277
0.000356141
0.000356128
0.000356185
0.000356399
0.000356588
0.000356739
0.000356877
0.000356939
0.00035692
0.00035681
0.000356612
0.000356339
0.000355995
0.000355633
0.00035527
0.000354972
0.000354751
0.000354683
0.000354639
0.000354785
0.000354938
0.000355158
0.000355356
0.000355534
0.000355682
0.000355716
0.00035571
0.000355643
0.000355458
0.000355231
0.000354985
0.000354765
0.000354607
0.000354509
0.000354429
0.000354586
0.000354738
0.000354959
0.000355189
0.000355399
0.000355587
0.000355737
0.000355811
0.000355842
0.000355817
0.000355744
0.000355609
0.000355483
0.000355335
0.000355214
0.000355317
0.000355428
0.000355583
0.000355842
0.000356104
0.000356365
0.000356738
0.00834584
0.00838478
0.0083778
0.00836962
0.00837749
0.00841757
0.00848601
0.00857379
0.00867757
0.00879944
0.0089222
0.00903875
0.00914557
0.00923865
0.00931585
0.00937635
0.00942095
0.00944996
0.00946173
0.0094575
0.00943571
0.00939696
0.00933711
0.00925382
0.00914465
0.00900914
0.00884428
0.00864684
0.0084215
0.00816933
0.00789217
0.00758788
0.00726885
0.00693693
0.00659982
0.00624408
0.00588481
0.00553567
0.00517609
0.00482667
0.00448716
0.00416912
0.00385723
0.00356604
0.00328361
0.00302787
0.00278023
0.00255538
0.00234427
0.00215677
0.00197766
0.00182196
0.00167544
0.0015486
0.00142817
0.00132568
0.00122985
0.00114685
0.00107007
0.0010026
0.000940603
0.000885594
0.000835844
0.000791685
0.000752085
0.000716954
0.000684702
0.000656458
0.000630102
0.000607302
0.000585991
0.000567252
0.000549956
0.000534355
0.000520967
0.000508681
0.000497571
0.000488394
0.000479228
0.000471228
0.000463646
0.000457392
0.000451615
0.000446705
0.000441597
0.000437029
0.00043237
0.00042884
0.000425255
0.000422376
0.000419371
0.000416884
0.000414316
0.000412239
0.000410166
0.000408334
0.000406464
0.000404646
0.000403011
0.000401363
0.000400024
0.000398662
0.00039736
0.000396086
0.000394856
0.00039363
0.000392401
0.000391157
0.000389925
0.000388685
0.000387487
0.000386228
0.00038496
0.000383629
0.000382454
0.00038166
0.000381376
0.000381489
0.000381627
0.000382521
0.000381532
0.000380007
0.000378616
0.000377299
0.000375647
0.000374026
0.00037265
0.000371466
0.000370259
0.000369195
0.000368105
0.000367065
0.000366076
0.000365236
0.000364429
0.000363769
0.000363082
0.000362433
0.000361793
0.00036115
0.000360577
0.000360005
0.000359431
0.00035901
0.000358651
0.000358442
0.000358335
0.000358258
0.000358343
0.00035798
0.000357566
0.000357217
0.000356822
0.000356348
0.00035579
0.000355167
0.00035454
0.000353901
0.000353309
0.000352706
0.000352169
0.000351696
0.000351296
0.000350977
0.000350745
0.000350641
0.000350607
0.000350645
0.00035073
0.00035084
0.000351023
0.000350991
0.000350912
0.000350779
0.000350594
0.00035028
0.000349893
0.000349416
0.000348901
0.000348371
0.00034795
0.00034758
0.000347387
0.000347261
0.000347278
0.000347355
0.000347563
0.000347765
0.000347934
0.00034809
0.000348167
0.000348165
0.000348079
0.000347902
0.000347655
0.000347344
0.000347017
0.000346686
0.000346414
0.000346218
0.000346164
0.00034614
0.000346291
0.00034645
0.000346672
0.000346877
0.000347061
0.000347214
0.00034726
0.000347267
0.000347217
0.000347058
0.000346852
0.000346636
0.000346438
0.000346305
0.000346223
0.000346154
0.000346314
0.000346473
0.000346688
0.000346918
0.000347131
0.00034732
0.000347472
0.000347553
0.000347595
0.000347581
0.000347523
0.000347409
0.000347298
0.000347177
0.000347066
0.000347162
0.000347295
0.000347457
0.000347713
0.000347981
0.000348248
0.000348628
0.00830308
0.00834561
0.00834997
0.00835891
0.0083903
0.00845023
0.00853079
0.00862664
0.0087452
0.00887017
0.00899062
0.00910357
0.00920556
0.00929413
0.00936794
0.00942655
0.00947004
0.00949824
0.00951117
0.00951041
0.00949139
0.00945595
0.00940014
0.00932074
0.00921477
0.00908236
0.00891976
0.00872205
0.00849612
0.00824253
0.00796411
0.00765269
0.00732538
0.00698693
0.0066438
0.00627269
0.00589816
0.0055431
0.00516695
0.00480349
0.0044486
0.00411711
0.00379209
0.00349036
0.0031982
0.0029339
0.00267719
0.00244975
0.00223619
0.00204924
0.00186373
0.00171342
0.00156815
0.00144599
0.00132638
0.00122829
0.00113544
0.00105686
0.000984207
0.000920405
0.00086186
0.000810146
0.000763575
0.000722244
0.000685993
0.000653668
0.000624466
0.000598743
0.000574869
0.00055443
0.000535083
0.000518441
0.000502862
0.000489043
0.00047756
0.000466558
0.000457114
0.000449339
0.000441511
0.000434647
0.000428223
0.000423255
0.000418548
0.000414676
0.000410457
0.000406916
0.000403092
0.000400569
0.000397685
0.000395654
0.000393297
0.000391604
0.000389674
0.000388358
0.000386815
0.000385581
0.000384161
0.000382929
0.000381786
0.000380605
0.000379735
0.000378772
0.00037791
0.000377023
0.000376153
0.000375269
0.000374369
0.000373446
0.000372537
0.000371594
0.000370691
0.000369682
0.000368706
0.000367645
0.000366854
0.000366465
0.000366425
0.000366689
0.000366776
0.000367615
0.000367064
0.000365752
0.000364341
0.000363303
0.00036203
0.000360707
0.000359508
0.000358481
0.000357399
0.000356508
0.000355565
0.000354717
0.000353919
0.000353226
0.000352546
0.000352003
0.000351416
0.000350907
0.00035039
0.000349874
0.00034942
0.000348948
0.0003485
0.000348216
0.000347973
0.000347843
0.000347825
0.000347796
0.00034792
0.000347703
0.000347371
0.000347066
0.00034674
0.00034635
0.000345889
0.000345351
0.000344812
0.000344263
0.000343761
0.000343228
0.00034279
0.000342385
0.000342065
0.000341803
0.00034164
0.000341577
0.000341588
0.000341663
0.000341791
0.000341925
0.000342137
0.000342165
0.000342128
0.000342035
0.000341893
0.00034163
0.0003413
0.000340881
0.00034043
0.000339963
0.000339595
0.000339271
0.000339117
0.000339011
0.000339077
0.000339173
0.000339382
0.000339604
0.000339797
0.000339978
0.000340077
0.000340096
0.000340046
0.000339898
0.000339685
0.000339414
0.00033913
0.000338839
0.000338599
0.000338435
0.000338404
0.000338406
0.000338563
0.000338739
0.000338968
0.000339184
0.000339378
0.000339541
0.000339603
0.000339627
0.000339598
0.00033947
0.000339292
0.000339109
0.00033894
0.000338836
0.000338775
0.000338722
0.00033889
0.000339059
0.000339274
0.000339508
0.000339727
0.000339921
0.000340077
0.000340168
0.000340222
0.000340222
0.000340182
0.000340092
0.000340001
0.000339908
0.000339812
0.000339905
0.00034006
0.000340232
0.000340487
0.000340762
0.000341037
0.000341427
0.00826848
0.00830951
0.00832844
0.00835817
0.00841041
0.00848438
0.00857341
0.00868489
0.00881124
0.00893499
0.0090534
0.00916253
0.0092601
0.00934462
0.00941527
0.00947182
0.00951423
0.00954259
0.00955729
0.00955972
0.00954409
0.00951156
0.00945958
0.00938393
0.00928024
0.00914995
0.00898967
0.00878995
0.0085612
0.00830254
0.00802332
0.00770486
0.00736175
0.0070113
0.00665981
0.0062724
0.0058776
0.00550871
0.00511076
0.00473176
0.00436098
0.00401278
0.00367633
0.00336461
0.00306597
0.00279646
0.00252757
0.00230791
0.00209532
0.00191634
0.00172962
0.00158638
0.00144535
0.00133016
0.00121537
0.00112239
0.00103533
0.000962778
0.000895865
0.000836891
0.000783167
0.000735307
0.000692716
0.000654735
0.000622343
0.00059299
0.00056719
0.000543716
0.000522597
0.00050418
0.000486836
0.000472073
0.000457984
0.000445928
0.000435985
0.000426026
0.00041802
0.000411384
0.000404504
0.000398684
0.000393016
0.000389283
0.000385273
0.000382279
0.000378561
0.000376063
0.000372872
0.000371324
0.000368974
0.000367673
0.000365923
0.000364945
0.000363636
0.000363
0.000362013
0.000361382
0.000360469
0.000359887
0.000359278
0.000358643
0.000358259
0.000357749
0.000357364
0.000356915
0.000356451
0.000355953
0.00035543
0.000354876
0.00035434
0.000353743
0.000353176
0.000352463
0.000351831
0.000351086
0.000350758
0.000350802
0.000351033
0.000351387
0.000351574
0.000352234
0.000352023
0.000350969
0.000349706
0.000348958
0.000348062
0.000347088
0.000346101
0.000345248
0.000344313
0.000343595
0.000342821
0.000342185
0.000341593
0.000341062
0.000340531
0.000340113
0.000339646
0.000339285
0.000338902
0.000338534
0.000338214
0.000337856
0.000337548
0.000337419
0.0003373
0.00033727
0.000337339
0.000337386
0.000337545
0.00033747
0.00033725
0.000337005
0.000336758
0.000336465
0.000336105
0.000335665
0.000335228
0.000334781
0.000334379
0.000333932
0.000333604
0.000333276
0.000333046
0.00033285
0.000332771
0.000332754
0.000332829
0.000332945
0.000333121
0.000333289
0.000333538
0.000333622
0.000333635
0.000333599
0.000333506
0.000333302
0.000333036
0.000332687
0.000332313
0.000331919
0.000331613
0.000331347
0.000331237
0.000331163
0.000331276
0.000331401
0.00033162
0.000331861
0.00033209
0.000332301
0.000332424
0.000332475
0.000332462
0.000332358
0.000332183
0.000331958
0.000331724
0.000331481
0.000331279
0.000331151
0.000331157
0.000331182
0.000331355
0.000331551
0.000331792
0.000332022
0.000332231
0.000332409
0.000332493
0.000332538
0.000332533
0.000332438
0.000332296
0.000332148
0.000332013
0.000331949
0.000331908
0.000331877
0.000332059
0.000332241
0.00033246
0.000332701
0.000332929
0.000333132
0.000333295
0.000333399
0.000333469
0.000333485
0.000333466
0.000333403
0.000333334
0.000333273
0.000333196
0.000333288
0.000333467
0.000333651
0.000333909
0.000334193
0.000334477
0.000334881
0.00824493
0.00828419
0.00831635
0.00836465
0.00843237
0.00851877
0.00861713
0.00874299
0.00887
0.00899276
0.00910871
0.00921417
0.00930782
0.00938883
0.00945671
0.00951136
0.00955314
0.00958275
0.00959993
0.00960443
0.0095921
0.00956245
0.009514
0.00944185
0.00933892
0.00920933
0.00905142
0.00884592
0.00861407
0.00834722
0.00806092
0.00772746
0.00737396
0.00700261
0.00663487
0.00622368
0.00580568
0.00541711
0.00499495
0.00460203
0.00422135
0.00385394
0.00350442
0.00319146
0.00289168
0.00263059
0.00235234
0.00214456
0.00193868
0.00177426
0.0015947
0.00145836
0.00132359
0.00121685
0.00111102
0.00102456
0.000945135
0.000879119
0.000818557
0.000764645
0.000715923
0.000672464
0.000633951
0.000599162
0.0005702
0.000543648
0.000520204
0.000499201
0.000479916
0.000463521
0.000447564
0.000434357
0.000421331
0.000410811
0.000401589
0.000392437
0.000385474
0.000379558
0.000372842
0.000368146
0.000362875
0.000359942
0.000356132
0.000353588
0.000349978
0.000348224
0.000345413
0.000344411
0.000342359
0.000341379
0.000340034
0.000339411
0.000338517
0.000338233
0.000337633
0.00033736
0.000336839
0.000336733
0.000336528
0.000336342
0.000336357
0.000336207
0.000336238
0.000336198
0.000336135
0.000336029
0.000335891
0.000335737
0.000335569
0.000335355
0.000335104
0.000334741
0.00033447
0.000334089
0.000334291
0.000334728
0.000335213
0.00033564
0.000335916
0.000336463
0.000336492
0.000335742
0.0003348
0.000334374
0.00033383
0.000333191
0.000332461
0.000331787
0.000331015
0.000330471
0.000329883
0.000329473
0.000329094
0.000328737
0.000328368
0.000328081
0.00032775
0.000327543
0.000327304
0.000327095
0.000326914
0.000326689
0.000326536
0.000326567
0.00032658
0.000326664
0.000326819
0.000326956
0.00032715
0.000327198
0.000327115
0.000326959
0.000326792
0.000326597
0.000326351
0.000326028
0.000325698
0.000325361
0.000325062
0.000324721
0.000324497
0.000324267
0.000324129
0.000324013
0.000324025
0.00032407
0.000324205
0.000324369
0.000324596
0.000324814
0.000325095
0.000325245
0.000325317
0.000325334
0.000325298
0.000325171
0.000324973
0.000324703
0.000324413
0.000324101
0.000323864
0.000323665
0.000323605
0.000323576
0.000323732
0.000323896
0.000324128
0.000324398
0.000324663
0.000324907
0.00032506
0.000325148
0.000325178
0.000325119
0.000324995
0.000324824
0.000324643
0.000324454
0.000324298
0.000324215
0.00032426
0.000324312
0.000324505
0.000324726
0.000324984
0.000325231
0.000325459
0.000325656
0.000325766
0.000325835
0.000325858
0.000325799
0.000325699
0.000325592
0.000325495
0.000325472
0.000325456
0.000325453
0.000325653
0.000325852
0.000326077
0.000326329
0.000326571
0.000326785
0.000326959
0.000327078
0.000327166
0.000327201
0.000327204
0.000327172
0.000327129
0.000327103
0.000327049
0.000327144
0.000327349
0.000327547
0.00032781
0.000328104
0.0003284
0.00032882
0.00823502
0.00827298
0.00831498
0.00837641
0.00845609
0.00855368
0.00866257
0.00879487
0.00892096
0.00904253
0.00915557
0.00925764
0.00934785
0.0094258
0.00949144
0.00954504
0.00958719
0.00961835
0.0096373
0.0096437
0.00963449
0.00960741
0.00956189
0.00949289
0.0093885
0.00925654
0.00910349
0.00888593
0.00864629
0.00836756
0.00806973
0.00771258
0.00734043
0.00694422
0.00655296
0.00611232
0.00567356
0.00525918
0.00480994
0.00441261
0.00403685
0.00366334
0.00328682
0.00299041
0.00269356
0.00245329
0.00218076
0.00198419
0.00178752
0.00163859
0.00147637
0.00134747
0.00122185
0.0011225
0.0010273
0.000947301
0.000874934
0.000815184
0.000760104
0.000711964
0.000667302
0.000627433
0.00059239
0.000560389
0.000533665
0.000509025
0.000487468
0.000467824
0.000449585
0.000434822
0.00041932
0.000407719
0.000395243
0.000385999
0.000376798
0.000368045
0.00036195
0.000355485
0.000348846
0.000345084
0.000340095
0.000337401
0.000333505
0.000330893
0.000327308
0.000325783
0.000323198
0.000322196
0.000320234
0.000319242
0.00031797
0.000317464
0.000316662
0.000316427
0.000315898
0.000315753
0.000315374
0.000315487
0.000315448
0.000315532
0.000315716