/*--------------------------------*- C++ -*----------------------------------*\
| =========                 |                                                 |
| \\      /  F ield         | OpenFOAM: The Open Source CFD Toolbox           |
|  \\    /   O peration     | Version:  2312                                  |
|   \\  /    A nd           | Website:  www.openfoam.com                      |
|    \\/     M anipulation  |                                                 |
\*---------------------------------------------------------------------------*/
FoamFile
{
    version     2.0;
    format      ascii;
    arch        "LSB;label=32;scalar=64";
    class       volVectorField;
    location    "0.002";
    object      U;
}
// * * * * * * * * * * * * * * * * * * * * * * * * * * * * * * * * * * * * * //

dimensions      [0 1 -1 0 0 0 0];

internalField   nonuniform List<vector> 
48128
(
(3.21198 -1.2418 0)
(7.1134 -0.549278 0)
(8.39516 0.0774468 0)
(7.88581 -0.0928711 0)
(7.51544 -0.902006 0)
(6.06871 -0.352452 0)
(-0.421853 1.66665 0)
(-11.5817 2.71121 0)
(-28.2637 4.71969 0)
(-48.3007 5.63531 0)
(-67.0621 4.94135 0)
(-83.789 4.33669 0)
(-98.537 3.51742 0)
(-111.295 2.73734 0)
(-122.277 2.23909 0)
(-131.791 2.17301 0)
(-140.253 1.99116 0)
(-147.902 1.91875 0)
(-154.752 1.83801 0)
(-160.85 1.78393 0)
(-166.571 1.73522 0)
(-171.798 1.68674 0)
(-176.495 1.63063 0)
(-180.628 1.56086 0)
(-184.147 1.47945 0)
(-186.997 1.39435 0)
(-189.144 1.34765 0)
(-190.569 1.32639 0)
(-191.266 1.26343 0)
(-191.406 1.14566 0)
(-190.711 0.879706 0)
(-189.057 0.747518 0)
(-186.636 0.627837 0)
(-183.514 0.491695 0)
(-179.686 0.307317 0)
(-175.011 0.161344 0)
(-169.38 -0.0961021 0)
(-163.216 -0.263471 0)
(-156.289 -0.541165 0)
(-148.586 -0.755262 0)
(-140.397 -0.951204 0)
(-131.749 -1.14765 0)
(-122.606 -1.42635 0)
(-112.86 -1.61721 0)
(-102.802 -1.80732 0)
(-92.5116 -1.88018 0)
(-82.1624 -2.09584 0)
(-71.3615 -2.29985 0)
(-60.2467 -2.54363 0)
(-48.8944 -2.57935 0)
(-37.5063 -2.82968 0)
(-25.9744 -2.81486 0)
(-14.3663 -2.98928 0)
(-2.92622 -2.96352 0)
(8.1336 -2.8667 0)
(18.9994 -2.79764 0)
(29.9959 -2.89408 0)
(41.0139 -2.94419 0)
(51.9073 -2.95102 0)
(62.5502 -2.91024 0)
(72.9283 -2.87878 0)
(83.0329 -2.83438 0)
(92.9034 -2.80497 0)
(102.555 -2.76402 0)
(112.035 -2.74394 0)
(121.275 -2.68806 0)
(130.33 -2.62926 0)
(139.014 -2.59445 0)
(147.452 -2.60538 0)
(155.606 -2.52387 0)
(163.467 -2.44277 0)
(171.108 -2.37031 0)
(178.531 -2.28439 0)
(185.708 -2.22338 0)
(192.84 -2.15542 0)
(199.623 -2.05784 0)
(206.347 -1.99838 0)
(212.737 -1.89314 0)
(218.99 -1.80539 0)
(224.815 -1.6961 0)
(230.529 -1.63536 0)
(235.957 -1.54777 0)
(241.297 -1.48699 0)
(246.33 -1.37775 0)
(251.102 -1.29797 0)
(255.535 -1.20068 0)
(259.758 -1.15617 0)
(263.826 -1.09031 0)
(267.81 -1.04746 0)
(271.598 -0.977683 0)
(275.235 -0.929302 0)
(278.679 -0.865093 0)
(281.966 -0.82179 0)
(285.118 -0.772243 0)
(288.145 -0.730526 0)
(291.037 -0.684653 0)
(293.769 -0.63282 0)
(296.304 -0.597336 0)
(298.715 -0.556432 0)
(301.031 -0.532621 0)
(303.284 -0.50103 0)
(305.43 -0.469825 0)
(307.457 -0.437061 0)
(309.358 -0.412691 0)
(311.191 -0.385353 0)
(312.898 -0.363297 0)
(314.535 -0.336764 0)
(316.027 -0.317544 0)
(317.468 -0.295258 0)
(318.793 -0.281512 0)
(320.096 -0.26396 0)
(321.306 -0.249218 0)
(322.422 -0.231445 0)
(323.44 -0.219661 0)
(324.432 -0.212707 0)
(325.503 -0.216384 0)
(326.682 -0.205762 0)
(327.971 -0.182508 0)
(329.536 -0.197291 0)
(331.671 -0.168067 0)
(331.58 -0.0858965 0)
(332.123 -0.0528637 0)
(333.272 -0.118351 0)
(333 -0.0598176 0)
(333.207 -0.0924055 0)
(333.515 -0.109161 0)
(333.906 -0.11487 0)
(334.358 -0.106148 0)
(334.833 -0.105493 0)
(335.317 -0.10373 0)
(335.758 -0.0989508 0)
(336.161 -0.0939127 0)
(336.58 -0.0942066 0)
(337.021 -0.0875815 0)
(337.48 -0.0835298 0)
(337.95 -0.0778088 0)
(338.406 -0.070914 0)
(338.797 -0.0656628 0)
(339.176 -0.0609054 0)
(339.533 -0.05779 0)
(339.888 -0.0537643 0)
(340.237 -0.0497262 0)
(340.541 -0.0467741 0)
(340.859 -0.0443844 0)
(341.194 -0.037726 0)
(341.548 -0.027491 0)
(341.888 -0.0139113 0)
(342.277 -0.0166413 0)
(342.809 -0.00994389 0)
(342.793 0.0157292 0)
(342.899 0.0251233 0)
(343.102 0.0138875 0)
(343.066 0.0311805 0)
(343.09 0.0231896 0)
(343.034 0.0259721 0)
(342.955 0.025887 0)
(342.887 0.0224639 0)
(342.798 0.0180461 0)
(342.722 0.0215801 0)
(342.661 0.0157658 0)
(342.593 0.0171073 0)
(342.574 0.00793016 0)
(342.584 0.00928419 0)
(342.614 0.0103043 0)
(342.667 0.0132024 0)
(342.749 0.0142653 0)
(342.848 0.0151357 0)
(342.962 0.0171502 0)
(343.07 0.0189336 0)
(343.191 0.0187527 0)
(343.284 0.0245144 0)
(343.269 0.021084 0)
(343.258 0.0222287 0)
(343.209 0.0193305 0)
(343.133 0.0217497 0)
(342.991 0.0213688 0)
(342.828 0.0225422 0)
(342.627 0.0220721 0)
(342.41 0.0209585 0)
(342.204 0.0186331 0)
(342.044 0.0172968 0)
(341.93 0.0130879 0)
(341.88 0.00919899 0)
(341.873 0.0088246 0)
(341.886 0.00683471 0)
(341.922 0.00635002 0)
(342.021 0.00640127 0)
(342.075 0.00939522 0)
(342.103 0.0118058 0)
(342.094 0.015704 0)
(342.057 0.0156794 0)
(341.992 0.017895 0)
(341.874 0.0152907 0)
(341.721 0.0169614 0)
(341.541 0.0163985 0)
(341.333 0.0156064 0)
(341.121 0.0146568 0)
(340.917 0.0127571 0)
(340.749 0.0110227 0)
(340.62 0.00886233 0)
(340.548 0.00936468 0)
(340.455 0.00922014 0)
(340.487 0.00600019 0)
(340.48 0.00864424 0)
(340.497 0.00907156 0)
(340.483 0.0109068 0)
(340.451 0.0123264 0)
(340.39 0.0146571 0)
(340.301 0.0144823 0)
(340.181 0.0158324 0)
(340.03 0.0158974 0)
(339.832 0.0161684 0)
(339.625 0.0149355 0)
(339.411 0.0150453 0)
(339.213 0.0109831 0)
(339.064 0.0111703 0)
(338.922 0.00942207 0)
(338.792 0.00698092 0)
(338.789 0.00535689 0)
(338.735 0.00841798 0)
(338.731 0.00683238 0)
(338.7 0.00874307 0)
(338.647 0.0105223 0)
(338.575 0.0117683 0)
(338.476 0.013324 0)
(338.348 0.013356 0)
(338.188 0.0146289 0)
(338.004 0.0134942 0)
(337.798 0.0145739 0)
(337.566 0.0131877 0)
(337.358 0.0120113 0)
(337.132 0.0119677 0)
(336.942 0.00774825 0)
(336.852 0.00670864 0)
(336.743 0.00734422 0)
(336.614 0.00829961 0)
(336.584 0.00653785 0)
(336.526 0.00820074 0)
(336.451 0.00959852 0)
(336.311 0.0110674 0)
(5.78605 -5.43671 0)
(9.54284 -2.54224 0)
(11.2246 -0.0858287 0)
(9.51731 0.593067 0)
(5.32708 1.79319 0)
(-6.01407 5.32899 0)
(-22.7487 9.41293 0)
(-44.3951 13.4008 0)
(-65.6286 15.7863 0)
(-84.2958 15.3556 0)
(-100.762 13.2821 0)
(-115.297 11.2189 0)
(-127.809 9.62221 0)
(-138.276 8.50921 0)
(-146.905 7.82912 0)
(-154.204 6.79959 0)
(-160.497 6.09711 0)
(-165.949 5.55768 0)
(-170.59 5.13885 0)
(-174.471 4.77614 0)
(-177.958 4.49313 0)
(-180.942 4.2073 0)
(-183.397 3.92881 0)
(-185.296 3.63962 0)
(-186.607 3.35734 0)
(-187.31 3.09912 0)
(-187.477 2.86154 0)
(-186.942 2.51099 0)
(-185.481 2.24914 0)
(-183.139 1.87519 0)
(-179.99 1.42775 0)
(-176.056 1.02876 0)
(-171.4 0.689223 0)
(-166.062 0.332031 0)
(-160.082 -0.118616 0)
(-153.436 -0.562448 0)
(-145.997 -1.04822 0)
(-138.01 -1.4477 0)
(-129.35 -2.05072 0)
(-119.979 -2.55289 0)
(-110.124 -2.97568 0)
(-99.8923 -3.34603 0)
(-89.3099 -3.91445 0)
(-78.2527 -4.34837 0)
(-66.9013 -4.80034 0)
(-55.3145 -4.96397 0)
(-43.6551 -5.38143 0)
(-31.6232 -5.78584 0)
(-19.3238 -6.29781 0)
(-6.98558 -6.47498 0)
(5.37767 -6.80904 0)
(17.8252 -6.97727 0)
(30.2408 -7.29668 0)
(42.5773 -7.30203 0)
(54.9247 -7.39655 0)
(67.1109 -7.44519 0)
(79.1055 -7.61308 0)
(90.81 -7.64285 0)
(102.273 -7.64028 0)
(113.417 -7.53857 0)
(124.246 -7.4423 0)
(134.751 -7.32308 0)
(144.973 -7.22751 0)
(154.927 -7.11245 0)
(164.663 -7.03708 0)
(174.095 -6.86672 0)
(183.334 -6.73135 0)
(192.197 -6.46861 0)
(200.853 -6.28423 0)
(209.211 -6.05067 0)
(217.269 -5.86245 0)
(225.07 -5.69334 0)
(232.611 -5.49124 0)
(239.86 -5.34887 0)
(247.032 -5.17772 0)
(253.828 -4.95967 0)
(260.545 -4.81205 0)
(266.931 -4.57817 0)
(273.165 -4.37478 0)
(279.009 -4.14446 0)
(284.714 -4.00226 0)
(290.177 -3.80931 0)
(295.504 -3.66434 0)
(300.603 -3.4336 0)
(305.414 -3.26078 0)
(309.954 -3.05305 0)
(314.244 -2.94509 0)
(318.414 -2.78974 0)
(322.449 -2.67848 0)
(326.341 -2.52345 0)
(330.049 -2.40755 0)
(333.615 -2.26888 0)
(337.007 -2.16561 0)
(340.291 -2.05319 0)
(343.445 -1.9537 0)
(346.48 -1.85028 0)
(349.381 -1.74207 0)
(352.086 -1.66013 0)
(354.697 -1.56865 0)
(357.194 -1.50444 0)
(359.637 -1.42652 0)
(361.971 -1.35425 0)
(364.207 -1.28157 0)
(366.315 -1.22296 0)
(368.373 -1.15993 0)
(370.299 -1.10735 0)
(372.177 -1.04828 0)
(373.907 -1.0017 0)
(375.6 -0.950105 0)
(377.173 -0.911907 0)
(378.723 -0.867345 0)
(380.18 -0.829771 0)
(381.554 -0.790459 0)
(382.834 -0.758465 0)
(384.071 -0.735852 0)
(385.361 -0.721547 0)
(386.732 -0.656721 0)
(388.187 -0.640421 0)
(389.844 -0.536175 0)
(392.059 -0.735648 0)
(392.418 -0.410273 0)
(393.255 -0.323028 0)
(394.639 -0.541167 0)
(394.83 -0.40533 0)
(395.282 -0.427961 0)
(395.852 -0.443597 0)
(396.485 -0.447629 0)
(397.154 -0.416523 0)
(397.835 -0.407199 0)
(398.508 -0.395821 0)
(399.145 -0.382035 0)
(399.734 -0.369079 0)
(400.331 -0.359063 0)
(400.939 -0.337632 0)
(401.557 -0.32193 0)
(402.182 -0.30483 0)
(402.791 -0.289024 0)
(403.346 -0.277026 0)
(403.887 -0.264168 0)
(404.405 -0.253109 0)
(404.916 -0.240412 0)
(405.419 -0.227434 0)
(405.878 -0.218793 0)
(406.343 -0.206435 0)
(406.825 -0.19225 0)
(407.326 -0.164897 0)
(407.833 -0.155181 0)
(408.378 -0.128234 0)
(409.042 -0.169413 0)
(409.305 -0.0987736 0)
(409.656 -0.0742754 0)
(410.083 -0.112128 0)
(410.34 -0.0760463 0)
(410.629 -0.0919117 0)
(410.851 -0.0848196 0)
(411.032 -0.0816627 0)
(411.227 -0.0824903 0)
(411.385 -0.0835805 0)
(411.552 -0.0733847 0)
(411.716 -0.0754424 0)
(411.881 -0.070343 0)
(412.058 -0.0739194 0)
(412.248 -0.0652788 0)
(412.453 -0.0590605 0)
(412.675 -0.0498463 0)
(412.914 -0.0424106 0)
(413.167 -0.037105 0)
(413.432 -0.0297686 0)
(413.687 -0.0234673 0)
(413.946 -0.0172788 0)
(414.2 -0.0105761 0)
(414.343 -0.0108551 0)
(414.506 -0.00350474 0)
(414.603 -0.00801595 0)
(414.72 -0.00611939 0)
(414.727 -0.00716438 0)
(414.737 -0.0080658 0)
(414.712 -0.0106267 0)
(414.673 -0.0120979 0)
(414.631 -0.0126252 0)
(414.625 -0.0145509 0)
(414.641 -0.0146631 0)
(414.685 -0.0118337 0)
(414.75 -0.00743611 0)
(414.829 -0.00275378 0)
(414.926 0.000929016 0)
(415.069 0.00497972 0)
(415.182 0.00992171 0)
(415.266 0.0109043 0)
(415.342 0.0183816 0)
(415.376 0.0178269 0)
(415.394 0.0178837 0)
(415.366 0.0139087 0)
(415.312 0.0153141 0)
(415.235 0.0138428 0)
(415.133 0.0119659 0)
(415.023 0.0110028 0)
(414.914 0.00931857 0)
(414.822 0.00908903 0)
(414.757 0.00772557 0)
(414.724 0.0102451 0)
(414.679 0.0176141 0)
(414.716 0.0109211 0)
(414.723 0.0213747 0)
(414.75 0.0216905 0)
(414.754 0.0262071 0)
(414.746 0.0269353 0)
(414.716 0.0288927 0)
(414.667 0.0272715 0)
(414.594 0.0268382 0)
(414.497 0.0250223 0)
(414.36 0.024604 0)
(414.213 0.022342 0)
(414.058 0.0213635 0)
(413.907 0.0209179 0)
(413.788 0.0174157 0)
(413.669 0.0251977 0)
(413.546 0.0218306 0)
(413.533 0.0176677 0)
(413.476 0.0279722 0)
(413.458 0.0252261 0)
(413.422 0.0277036 0)
(413.371 0.0304698 0)
(413.305 0.0321689 0)
(413.219 0.0334582 0)
(413.111 0.0322415 0)
(412.978 0.0329619 0)
(412.824 0.0309137 0)
(412.65 0.0296102 0)
(412.453 0.029014 0)
(412.265 0.0273437 0)
(412.066 0.0244393 0)
(411.87 0.0306938 0)
(411.76 0.0225271 0)
(411.635 0.0244243 0)
(411.49 0.0300822 0)
(411.424 0.0282086 0)
(411.338 0.0307321 0)
(411.241 0.0332777 0)
(411.076 0.0351943 0)
(5.89887 -9.91179 0)
(8.99903 -4.87196 0)
(9.81955 0.28281 0)
(5.3936 3.8424 0)
(-6.83633 8.94564 0)
(-25.533 15.3379 0)
(-46.9088 21.8699 0)
(-66.7813 25.5908 0)
(-83.845 25.7896 0)
(-98.3273 23.8961 0)
(-110.652 20.8057 0)
(-121.221 18.1982 0)
(-130.173 15.5256 0)
(-137.955 13.212 0)
(-144.7 11.3585 0)
(-150.334 9.83485 0)
(-155.085 8.64131 0)
(-159.165 7.77855 0)
(-162.553 7.09729 0)
(-165.285 6.5124 0)
(-167.679 6.04766 0)
(-169.611 5.58956 0)
(-171.054 5.15022 0)
(-171.977 4.72845 0)
(-172.378 4.33105 0)
(-172.184 3.82349 0)
(-171.237 3.32464 0)
(-169.485 2.71939 0)
(-166.947 2.15778 0)
(-163.626 1.53859 0)
(-159.572 0.875729 0)
(-154.765 0.206717 0)
(-149.227 -0.395603 0)
(-143.047 -1.00382 0)
(-136.25 -1.69545 0)
(-128.733 -2.4971 0)
(-120.37 -3.27862 0)
(-111.41 -3.93919 0)
(-101.811 -4.89929 0)
(-91.4859 -5.72632 0)
(-80.6331 -6.43348 0)
(-69.4077 -7.00184 0)
(-57.8743 -7.87566 0)
(-45.894 -8.54775 0)
(-33.5813 -9.2962 0)
(-21.0609 -9.57977 0)
(-8.43012 -10.2987 0)
(4.53336 -10.8966 0)
(17.6627 -11.698 0)
(30.7109 -11.9266 0)
(43.7064 -12.4329 0)
(56.7667 -12.6983 0)
(69.7155 -13.1878 0)
(82.5088 -13.1912 0)
(95.2215 -13.4148 0)
(107.702 -13.4477 0)
(119.978 -13.6034 0)
(131.923 -13.5449 0)
(143.574 -13.4893 0)
(154.837 -13.2647 0)
(165.744 -13.0607 0)
(176.275 -12.8112 0)
(186.485 -12.6044 0)
(196.375 -12.3641 0)
(206.017 -12.1792 0)
(215.273 -11.8401 0)
(224.314 -11.577 0)
(232.921 -11.1602 0)
(241.272 -10.876 0)
(249.281 -10.4721 0)
(256.979 -10.1207 0)
(264.386 -9.78145 0)
(271.497 -9.39535 0)
(278.304 -9.11232 0)
(285.028 -8.78271 0)
(291.353 -8.39444 0)
(297.606 -8.11712 0)
(303.541 -7.71345 0)
(309.307 -7.3637 0)
(314.717 -6.97866 0)
(319.985 -6.72314 0)
(325.056 -6.39328 0)
(329.968 -6.14006 0)
(334.709 -5.77 0)
(339.134 -5.48628 0)
(343.331 -5.14995 0)
(347.282 -4.95501 0)
(351.142 -4.69035 0)
(354.853 -4.49571 0)
(358.448 -4.24432 0)
(361.856 -4.05142 0)
(365.148 -3.82946 0)
(368.275 -3.65645 0)
(371.318 -3.4725 0)
(374.235 -3.30771 0)
(377.058 -3.14364 0)
(379.744 -2.97589 0)
(382.264 -2.84257 0)
(384.7 -2.69361 0)
(387.034 -2.57972 0)
(389.32 -2.45115 0)
(391.506 -2.33584 0)
(393.603 -2.22104 0)
(395.59 -2.12443 0)
(397.531 -2.02305 0)
(399.357 -1.93834 0)
(401.139 -1.8453 0)
(402.791 -1.7702 0)
(404.41 -1.6867 0)
(405.921 -1.62145 0)
(407.416 -1.54685 0)
(408.82 -1.48791 0)
(410.159 -1.42681 0)
(411.403 -1.37318 0)
(412.62 -1.33052 0)
(413.883 -1.27563 0)
(415.207 -1.16704 0)
(416.615 -1.12319 0)
(418.177 -0.933763 0)
(420.219 -1.27781 0)
(420.66 -0.832124 0)
(421.522 -0.697582 0)
(422.794 -0.976858 0)
(423.122 -0.880533 0)
(423.657 -0.843883 0)
(424.282 -0.844805 0)
(424.958 -0.837392 0)
(425.657 -0.783891 0)
(426.36 -0.762653 0)
(427.052 -0.739495 0)
(427.71 -0.717698 0)
(428.322 -0.694524 0)
(428.941 -0.669557 0)
(429.567 -0.630641 0)
(430.199 -0.600941 0)
(430.836 -0.570757 0)
(431.454 -0.546742 0)
(432.027 -0.528173 0)
(432.587 -0.505921 0)
(433.124 -0.485709 0)
(433.657 -0.463035 0)
(434.178 -0.440479 0)
(434.662 -0.425203 0)
(435.151 -0.40175 0)
(435.653 -0.373596 0)
(436.167 -0.331954 0)
(436.689 -0.317556 0)
(437.24 -0.266291 0)
(437.895 -0.33547 0)
(438.205 -0.245665 0)
(438.59 -0.213351 0)
(439.041 -0.248331 0)
(439.352 -0.22808 0)
(439.688 -0.233392 0)
(439.972 -0.227198 0)
(440.209 -0.219834 0)
(440.459 -0.215757 0)
(440.673 -0.212534 0)
(440.893 -0.193395 0)
(441.105 -0.191438 0)
(441.317 -0.180728 0)
(441.537 -0.174674 0)
(441.767 -0.159754 0)
(442.007 -0.146884 0)
(442.261 -0.130469 0)
(442.529 -0.114269 0)
(442.809 -0.10287 0)
(443.098 -0.0896018 0)
(443.381 -0.0788309 0)
(443.663 -0.0648169 0)
(443.951 -0.0686481 0)
(444.134 -0.0549501 0)
(444.337 -0.0486553 0)
(444.475 -0.0527898 0)
(444.634 -0.0554413 0)
(444.691 -0.057917 0)
(444.761 -0.0600633 0)
(444.778 -0.0649247 0)
(444.786 -0.0647675 0)
(444.799 -0.0624475 0)
(444.828 -0.0591066 0)
(444.877 -0.0536974 0)
(444.949 -0.0412595 0)
(445.039 -0.0316989 0)
(445.14 -0.0207323 0)
(445.255 -0.00769226 0)
(445.408 -0.00174765 0)
(445.539 0.00445777 0)
(445.638 0.00731176 0)
(445.739 0.0131876 0)
(445.791 0.0139731 0)
(445.85 0.00962635 0)
(445.843 0.00596682 0)
(445.82 0.00522844 0)
(445.778 0.00152229 0)
(445.714 -0.00328628 0)
(445.64 -0.00334678 0)
(445.566 -0.00271621 0)
(445.499 0.000752693 0)
(445.455 0.00277201 0)
(445.435 0.0101371 0)
(445.406 0.0236194 0)
(445.439 0.0200159 0)
(445.451 0.0331513 0)
(445.479 0.035886 0)
(445.493 0.040273 0)
(445.49 0.0406639 0)
(445.471 0.0410564 0)
(445.435 0.0377491 0)
(445.379 0.0341793 0)
(445.301 0.0302754 0)
(445.188 0.0290189 0)
(445.064 0.0253173 0)
(444.931 0.0244557 0)
(444.798 0.0288072 0)
(444.689 0.0237118 0)
(444.581 0.0403198 0)
(444.462 0.0389959 0)
(444.44 0.0336274 0)
(444.384 0.049624 0)
(444.359 0.0476615 0)
(444.32 0.0492769 0)
(444.271 0.0522114 0)
(444.208 0.0540105 0)
(444.129 0.054138 0)
(444.03 0.0513677 0)
(443.908 0.0509188 0)
(443.767 0.0476852 0)
(443.608 0.0435456 0)
(443.428 0.0438618 0)
(443.248 0.0421302 0)
(443.06 0.0378493 0)
(442.868 0.0575003 0)
(442.75 0.040975 0)
(442.621 0.0447011 0)
(442.473 0.0562087 0)
(442.392 0.0552064 0)
(442.295 0.0572339 0)
(442.189 0.0607443 0)
(442.017 0.0626551 0)
(4.12839 -13.7516 0)
(7.10453 -6.13087 0)
(5.03711 2.36124 0)
(-5.81274 10.7994 0)
(-24.0732 18.7888 0)
(-44.2195 27.4524 0)
(-62.4569 32.8386 0)
(-78.0509 34.6133 0)
(-91.0544 33.5206 0)
(-101.788 30.5959 0)
(-110.683 26.8479 0)
(-118.6 23.0081 0)
(-125.524 19.3302 0)
(-131.385 16.2413 0)
(-136.4 13.7941 0)
(-140.592 11.8998 0)
(-144.134 10.4332 0)
(-147.204 9.36186 0)
(-149.716 8.51358 0)
(-151.677 7.76662 0)
(-153.369 7.16101 0)
(-154.649 6.5699 0)
(-155.494 6.00714 0)
(-155.881 5.43608 0)
(-155.699 4.77816 0)
(-154.871 4.11263 0)
(-153.305 3.35746 0)
(-150.935 2.51284 0)
(-147.785 1.69074 0)
(-143.853 0.810764 0)
(-139.158 -0.115383 0)
(-133.654 -1.07573 0)
(-127.327 -1.94955 0)
(-120.29 -2.82173 0)
(-112.609 -3.77624 0)
(-104.198 -4.97558 0)
(-94.8849 -6.12953 0)
(-84.9247 -7.08003 0)
(-74.3509 -8.44475 0)
(-63.0048 -9.65762 0)
(-51.0747 -10.7002 0)
(-38.7828 -11.4758 0)
(-26.192 -12.6807 0)
(-13.1821 -13.6229 0)
(0.183047 -14.7261 0)
(13.7328 -15.1575 0)
(27.4103 -16.2158 0)
(41.3793 -17.0055 0)
(55.3888 -18.0809 0)
(69.278 -18.2675 0)
(82.9863 -18.9685 0)
(96.7171 -19.2475 0)
(110.239 -19.8551 0)
(123.484 -19.775 0)
(136.571 -20.0728 0)
(149.324 -20.0122 0)
(161.831 -20.1422 0)
(173.913 -19.9325 0)
(185.656 -19.7997 0)
(196.915 -19.3863 0)
(207.778 -19.0549 0)
(218.184 -18.6229 0)
(228.233 -18.2764 0)
(237.887 -17.8651 0)
(247.28 -17.5216 0)
(256.192 -16.9846 0)
(264.873 -16.5532 0)
(273.056 -15.9292 0)
(280.965 -15.4749 0)
(288.49 -14.8714 0)
(295.686 -14.3397 0)
(302.535 -13.7998 0)
(309.047 -13.2135 0)
(315.254 -12.7791 0)
(321.382 -12.2663 0)
(327.089 -11.7087 0)
(332.742 -11.2894 0)
(338.089 -10.7133 0)
(343.252 -10.2151 0)
(348.086 -9.68327 0)
(352.784 -9.30898 0)
(357.32 -8.84466 0)
(361.696 -8.47876 0)
(365.927 -7.96946 0)
(369.83 -7.5769 0)
(373.516 -7.11984 0)
(376.992 -6.83806 0)
(380.385 -6.46579 0)
(383.639 -6.18809 0)
(386.794 -5.84273 0)
(389.773 -5.57937 0)
(392.657 -5.27806 0)
(395.394 -5.0431 0)
(398.071 -4.79008 0)
(400.625 -4.56596 0)
(403.114 -4.34283 0)
(405.46 -4.12303 0)
(407.675 -3.94444 0)
(409.814 -3.74329 0)
(411.867 -3.58415 0)
(413.882 -3.40779 0)
(415.809 -3.25296 0)
(417.658 -3.10148 0)
(419.416 -2.97122 0)
(421.131 -2.8358 0)
(422.751 -2.72293 0)
(424.331 -2.60002 0)
(425.8 -2.50113 0)
(427.243 -2.38925 0)
(428.591 -2.30128 0)
(429.931 -2.19884 0)
(431.184 -2.12363 0)
(432.389 -2.04223 0)
(433.504 -1.97307 0)
(434.613 -1.90944 0)
(435.761 -1.81557 0)
(436.957 -1.65579 0)
(438.24 -1.57765 0)
(439.638 -1.32512 0)
(441.428 -1.73973 0)
(441.867 -1.2703 0)
(442.66 -1.08706 0)
(443.705 -1.40628 0)
(444.105 -1.3532 0)
(444.635 -1.2888 0)
(445.232 -1.26586 0)
(445.871 -1.23593 0)
(446.525 -1.15905 0)
(447.176 -1.12545 0)
(447.823 -1.08996 0)
(448.436 -1.06056 0)
(449.013 -1.02725 0)
(449.595 -0.987153 0)
(450.182 -0.929733 0)
(450.772 -0.885013 0)
(451.369 -0.840179 0)
(451.943 -0.808921 0)
(452.482 -0.783951 0)
(453.01 -0.752831 0)
(453.516 -0.724305 0)
(454.022 -0.691655 0)
(454.512 -0.660334 0)
(454.974 -0.638222 0)
(455.441 -0.602878 0)
(455.918 -0.560992 0)
(456.401 -0.502357 0)
(456.892 -0.481635 0)
(457.404 -0.409649 0)
(458.005 -0.498415 0)
(458.308 -0.401898 0)
(458.672 -0.354545 0)
(459.087 -0.395807 0)
(459.395 -0.380767 0)
(459.717 -0.386186 0)
(459.998 -0.380052 0)
(460.233 -0.369999 0)
(460.477 -0.361748 0)
(460.692 -0.353988 0)
(460.91 -0.325942 0)
(461.118 -0.31957 0)
(461.327 -0.301667 0)
(461.543 -0.287071 0)
(461.767 -0.263274 0)
(462.002 -0.24228 0)
(462.248 -0.216804 0)
(462.507 -0.191547 0)
(462.776 -0.1731 0)
(463.054 -0.153198 0)
(463.331 -0.138944 0)
(463.603 -0.11875 0)
(463.884 -0.132107 0)
(464.068 -0.108088 0)
(464.27 -0.103759 0)
(464.412 -0.108315 0)
(464.574 -0.115429 0)
(464.643 -0.119442 0)
(464.725 -0.124823 0)
(464.756 -0.1279 0)
(464.779 -0.127377 0)
(464.807 -0.121298 0)
(464.847 -0.110898 0)
(464.905 -0.0985643 0)
(464.983 -0.0765956 0)
(465.077 -0.0611533 0)
(465.182 -0.0457056 0)
(465.297 -0.0201718 0)
(465.447 -0.0122691 0)
(465.579 -0.00548155 0)
(465.68 -0.00158415 0)
(465.783 0.00481786 0)
(465.841 0.00566568 0)
(465.908 -0.00316763 0)
(465.909 -0.00869029 0)
(465.898 -0.0123099 0)
(465.868 -0.0185855 0)
(465.818 -0.0260539 0)
(465.759 -0.0246114 0)
(465.7 -0.0203412 0)
(465.643 -0.0121342 0)
(465.608 -0.00490394 0)
(465.594 0.00900616 0)
(465.57 0.0261809 0)
(465.599 0.0297784 0)
(465.611 0.044523 0)
(465.638 0.0495267 0)
(465.653 0.0538092 0)
(465.651 0.0541322 0)
(465.635 0.0520908 0)
(465.603 0.0467642 0)
(465.553 0.0397412 0)
(465.482 0.0333406 0)
(465.38 0.0309027 0)
(465.265 0.0265061 0)
(465.143 0.02558 0)
(465.021 0.034666 0)
(464.915 0.0299575 0)
(464.812 0.0533432 0)
(464.697 0.0562656 0)
(464.668 0.0531342 0)
(464.612 0.0721129 0)
(464.582 0.0717611 0)
(464.541 0.0726191 0)
(464.49 0.0749519 0)
(464.428 0.07658 0)
(464.351 0.0751798 0)
(464.256 0.0706957 0)
(464.14 0.0687097 0)
(464.005 0.0640731 0)
(463.853 0.0578364 0)
(463.682 0.057378 0)
(463.508 0.0579073 0)
(463.325 0.0515841 0)
(463.14 0.0838874 0)
(463.017 0.0625893 0)
(462.886 0.0674908 0)
(462.737 0.0845252 0)
(462.648 0.0849591 0)
(462.544 0.0863971 0)
(462.433 0.0906253 0)
(462.254 0.0922553 0)
(1.55079 -16.6421 0)
(2.98918 -5.35839 0)
(-5.24887 8.10723 0)
(-20.6486 19.7587 0)
(-39.1493 30.3184 0)
(-55.8817 37.745 0)
(-70.3105 41.4096 0)
(-82.3145 41.7753 0)
(-92.0573 39.586 0)
(-99.8352 35.5935 0)
(-106.365 30.5983 0)
(-112.28 25.9445 0)
(-117.414 21.8709 0)
(-121.774 18.4333 0)
(-125.538 15.6646 0)
(-128.753 13.518 0)
(-131.495 11.8519 0)
(-133.882 10.606 0)
(-135.795 9.62424 0)
(-137.205 8.73511 0)
(-138.383 8.00038 0)
(-139.169 7.28789 0)
(-139.546 6.56523 0)
(-139.404 5.7706 0)
(-138.663 4.95225 0)
(-137.24 4.04505 0)
(-135.067 3.02147 0)
(-132.073 1.88212 0)
(-128.235 0.759814 0)
(-123.57 -0.414406 0)
(-118.097 -1.65013 0)
(-111.755 -2.9733 0)
(-104.486 -4.19483 0)
(-96.4319 -5.37986 0)
(-87.7001 -6.62066 0)
(-78.2239 -8.27177 0)
(-67.7613 -9.86882 0)
(-56.6167 -11.1195 0)
(-44.864 -12.9507 0)
(-32.2401 -14.6004 0)
(-18.9804 -16.0236 0)
(-5.40797 -17.0384 0)
(8.44447 -18.4858 0)
(22.7092 -19.6854 0)
(37.2414 -21.1509 0)
(52.0818 -21.6893 0)
(66.9835 -23.0794 0)
(82.1835 -24.0011 0)
(97.3116 -25.3045 0)
(112.283 -25.4043 0)
(127.004 -26.3388 0)
(141.647 -26.5492 0)
(155.947 -27.2324 0)
(169.757 -26.9277 0)
(183.304 -27.2862 0)
(196.349 -27.0124 0)
(209.102 -27.1067 0)
(221.287 -26.6333 0)
(233.041 -26.3848 0)
(244.173 -25.6774 0)
(254.805 -25.167 0)
(264.859 -24.4852 0)
(274.534 -23.9526 0)
(283.684 -23.3239 0)
(292.621 -22.7792 0)
(300.908 -22.0047 0)
(308.99 -21.3629 0)
(316.451 -20.4964 0)
(323.628 -19.8402 0)
(330.382 -19.0083 0)
(336.753 -18.2851 0)
(342.811 -17.5511 0)
(348.531 -16.7745 0)
(353.965 -16.185 0)
(359.335 -15.4793 0)
(364.274 -14.763 0)
(369.188 -14.1995 0)
(373.805 -13.4562 0)
(378.238 -12.8199 0)
(382.358 -12.1591 0)
(386.365 -11.6667 0)
(390.229 -11.0743 0)
(393.949 -10.5989 0)
(397.524 -9.95022 0)
(400.765 -9.4596 0)
(403.798 -8.89045 0)
(406.675 -8.52412 0)
(409.479 -8.04503 0)
(412.17 -7.69206 0)
(414.779 -7.25638 0)
(417.234 -6.93558 0)
(419.615 -6.55984 0)
(421.874 -6.27387 0)
(424.092 -5.95114 0)
(426.191 -5.67354 0)
(428.253 -5.39349 0)
(430.167 -5.13307 0)
(431.992 -4.91525 0)
(433.751 -4.66826 0)
(435.438 -4.46908 0)
(437.101 -4.24858 0)
(438.688 -4.06099 0)
(440.211 -3.87856 0)
(441.664 -3.71962 0)
(443.078 -3.55503 0)
(444.418 -3.41878 0)
(445.722 -3.27099 0)
(446.936 -3.15388 0)
(448.131 -3.01784 0)
(449.247 -2.91212 0)
(450.363 -2.78445 0)
(451.4 -2.69899 0)
(452.404 -2.60015 0)
(453.332 -2.52131 0)
(454.27 -2.43701 0)
(455.244 -2.29906 0)
(456.25 -2.08845 0)
(457.346 -1.96419 0)
(458.522 -1.68234 0)
(460.003 -2.09754 0)
(460.396 -1.68218 0)
(461.055 -1.4881 0)
(461.812 -1.78868 0)
(462.257 -1.80227 0)
(462.716 -1.72162 0)
(463.221 -1.66733 0)
(463.763 -1.61167 0)
(464.316 -1.51224 0)
(464.865 -1.46859 0)
(465.417 -1.42049 0)
(465.937 -1.38576 0)
(466.434 -1.34291 0)
(466.935 -1.28724 0)
(467.437 -1.2114 0)
(467.943 -1.15214 0)
(468.457 -1.09207 0)
(468.944 -1.05588 0)
(469.412 -1.0244 0)
(469.867 -0.985284 0)
(470.305 -0.949626 0)
(470.745 -0.90686 0)
(471.165 -0.868796 0)
(471.57 -0.839232 0)
(471.979 -0.791916 0)
(472.397 -0.73455 0)
(472.816 -0.660872 0)
(473.248 -0.630396 0)
(473.693 -0.545241 0)
(474.21 -0.637351 0)
(474.481 -0.548805 0)
(474.796 -0.492829 0)
(475.147 -0.530117 0)
(475.425 -0.524567 0)
(475.708 -0.532538 0)
(475.957 -0.526761 0)
(476.162 -0.515364 0)
(476.374 -0.503372 0)
(476.565 -0.491122 0)
(476.754 -0.454729 0)
(476.936 -0.444285 0)
(477.118 -0.418424 0)
(477.307 -0.395077 0)
(477.503 -0.362127 0)
(477.709 -0.33316 0)
(477.926 -0.29807 0)
(478.155 -0.264241 0)
(478.395 -0.238044 0)
(478.642 -0.211577 0)
(478.892 -0.193745 0)
(479.136 -0.167995 0)
(479.387 -0.189274 0)
(479.554 -0.158383 0)
(479.735 -0.156159 0)
(479.861 -0.161859 0)
(480.006 -0.173974 0)
(480.067 -0.180231 0)
(480.14 -0.189583 0)
(480.166 -0.191917 0)
(480.187 -0.191267 0)
(480.211 -0.18112 0)
(480.246 -0.163377 0)
(480.299 -0.144119 0)
(480.367 -0.110881 0)
(480.451 -0.0903963 0)
(480.548 -0.0684285 0)
(480.649 -0.0308531 0)
(480.783 -0.019759 0)
(480.902 -0.0149697 0)
(480.994 -0.00924411 0)
(481.087 -0.00415342 0)
(481.138 -0.00403821 0)
(481.197 -0.0166686 0)
(481.197 -0.024518 0)
(481.184 -0.0318483 0)
(481.154 -0.0407389 0)
(481.106 -0.0502176 0)
(481.051 -0.0473451 0)
(480.995 -0.0392614 0)
(480.94 -0.0263963 0)
(480.904 -0.0132498 0)
(480.887 0.00770381 0)
(480.858 0.0291531 0)
(480.882 0.0405426 0)
(480.887 0.057755 0)
(480.908 0.0642777 0)
(480.914 0.0687699 0)
(480.909 0.0686126 0)
(480.89 0.0638125 0)
(480.855 0.0561632 0)
(480.803 0.0459193 0)
(480.734 0.035639 0)
(480.633 0.0321947 0)
(480.522 0.0271952 0)
(480.402 0.0266101 0)
(480.285 0.0390069 0)
(480.178 0.0373633 0)
(480.075 0.0663152 0)
(479.959 0.0741035 0)
(479.923 0.074956 0)
(479.864 0.0963847 0)
(479.826 0.0978291 0)
(479.78 0.0980054 0)
(479.726 0.0994014 0)
(479.66 0.100577 0)
(479.582 0.0974164 0)
(479.486 0.0908659 0)
(479.371 0.0871638 0)
(479.238 0.0807418 0)
(479.089 0.0729144 0)
(478.922 0.0706661 0)
(478.751 0.0741086 0)
(478.57 0.0665469 0)
(478.39 0.109791 0)
(478.262 0.0861062 0)
(478.128 0.0923695 0)
(477.978 0.114831 0)
(477.881 0.116946 0)
(477.771 0.118071 0)
(477.654 0.122892 0)
(477.468 0.123972 0)
(-2.2712 -16.5233 0)
(-5.94097 -1.53698 0)
(-17.5351 15.54 0)
(-33.0241 29.859 0)
(-48.4773 39.8285 0)
(-61.8295 45.8211 0)
(-73.0546 48.1445 0)
(-82.1946 47.3437 0)
(-89.3751 43.859 0)
(-94.9785 38.6174 0)
(-99.7552 33.2185 0)
(-104.027 28.2023 0)
(-107.754 23.7888 0)
(-111.021 20.1018 0)
(-113.892 17.1368 0)
(-116.37 14.8091 0)
(-118.475 12.9831 0)
(-120.269 11.5761 0)
(-121.645 10.462 0)
(-122.526 9.44262 0)
(-123.207 8.57227 0)
(-123.477 7.69346 0)
(-123.289 6.77785 0)
(-122.558 5.8171 0)
(-121.188 4.75286 0)
(-119.081 3.57086 0)
(-116.196 2.23788 0)
(-112.448 0.750791 0)
(-107.758 -0.720674 0)
(-102.184 -2.23408 0)
(-95.7504 -3.81845 0)
(-88.3959 -5.57856 0)
(-79.9812 -7.22708 0)
(-70.6919 -8.78274 0)
(-60.6835 -10.3311 0)
(-49.8868 -12.5139 0)
(-37.9556 -14.6371 0)
(-25.3465 -16.1326 0)
(-12.1158 -18.4696 0)
(2.07759 -20.5221 0)
(16.9332 -22.3302 0)
(32.211 -23.5996 0)
(47.7816 -25.4251 0)
(63.8901 -26.8885 0)
(80.2401 -28.7882 0)
(96.9533 -29.3717 0)
(113.653 -31.1667 0)
(130.625 -32.1447 0)
(147.374 -33.6434 0)
(163.789 -33.4462 0)
(179.841 -34.6512 0)
(195.605 -34.6214 0)
(210.738 -35.3081 0)
(225.22 -34.6149 0)
(239.092 -34.952 0)
(252.432 -34.3599 0)
(265.253 -34.3337 0)
(277.549 -33.5625 0)
(289.011 -33.04 0)
(299.923 -31.9928 0)
(309.97 -31.1846 0)
(319.441 -30.2039 0)
(328.43 -29.3982 0)
(336.769 -28.5034 0)
(344.969 -27.7102 0)
(352.281 -26.652 0)
(359.465 -25.7638 0)
(365.825 -24.6163 0)
(371.937 -23.7266 0)
(377.556 -22.6361 0)
(382.751 -21.6966 0)
(387.708 -20.744 0)
(392.294 -19.7786 0)
(396.657 -19.0354 0)
(400.968 -18.1337 0)
(404.833 -17.2664 0)
(408.736 -16.5713 0)
(412.343 -15.6634 0)
(415.775 -14.9041 0)
(418.883 -14.1291 0)
(421.955 -13.5352 0)
(424.871 -12.8165 0)
(427.694 -12.2531 0)
(430.396 -11.4915 0)
(432.836 -10.9518 0)
(435.093 -10.2988 0)
(437.273 -9.86828 0)
(439.389 -9.28947 0)
(441.432 -8.88659 0)
(443.41 -8.37031 0)
(445.273 -8.01784 0)
(447.075 -7.57641 0)
(448.798 -7.25982 0)
(450.471 -6.8653 0)
(452.036 -6.54802 0)
(453.588 -6.21458 0)
(455.002 -5.93344 0)
(456.371 -5.68333 0)
(457.686 -5.40011 0)
(458.949 -5.17228 0)
(460.202 -4.91303 0)
(461.394 -4.70477 0)
(462.54 -4.4968 0)
(463.633 -4.31519 0)
(464.692 -4.12815 0)
(465.698 -3.97532 0)
(466.674 -3.80983 0)
(467.585 -3.68208 0)
(468.481 -3.52749 0)
(469.32 -3.41157 0)
(470.16 -3.26246 0)
(470.936 -3.1744 0)
(471.69 -3.06257 0)
(472.394 -2.98113 0)
(473.117 -2.87411 0)
(473.871 -2.68903 0)
(474.642 -2.42837 0)
(475.5 -2.24941 0)
(476.41 -1.9756 0)
(477.542 -2.33971 0)
(477.864 -2.03085 0)
(478.345 -1.86487 0)
(478.802 -2.10694 0)
(479.252 -2.18885 0)
(479.577 -2.1078 0)
(479.946 -2.02046 0)
(480.355 -1.94081 0)
(480.769 -1.82059 0)
(481.184 -1.77018 0)
(481.603 -1.70888 0)
(481.997 -1.67165 0)
(482.38 -1.61989 0)
(482.766 -1.54869 0)
(483.151 -1.45543 0)
(483.541 -1.38424 0)
(483.939 -1.30864 0)
(484.311 -1.27099 0)
(484.677 -1.23213 0)
(485.029 -1.18674 0)
(485.37 -1.14567 0)
(485.715 -1.09273 0)
(486.037 -1.05076 0)
(486.358 -1.01385 0)
(486.682 -0.953807 0)
(487.013 -0.881084 0)
(487.343 -0.79536 0)
(487.69 -0.752844 0)
(488.043 -0.662429 0)
(488.454 -0.745337 0)
(488.672 -0.676748 0)
(488.916 -0.616914 0)
(489.181 -0.644879 0)
(489.406 -0.649124 0)
(489.626 -0.661877 0)
(489.822 -0.658244 0)