x,T,U_0,rho,p,rho,U_0,U_1,U_2
0.000625,293,-6.09E-12,1002.15,1.00E+07,1002.15,-6.09E-12,0,0
0.001875,293,-7.13E-12,1002.15,1.00E+07,1002.15,-7.13E-12,0,0
0.003125,293,-8.74E-12,1002.15,1.00E+07,1002.15,-8.74E-12,0,0
0.004375,293,-5.05E-12,1002.15,1.00E+07,1002.15,-5.05E-12,0,0
0.005625,293,-6.96E-13,1002.15,1.00E+07,1002.15,-6.96E-13,0,0
0.006875,293,4.29E-12,1002.15,1.00E+07,1002.15,4.29E-12,0,0
0.008125,293,8.00E-12,1002.15,1.00E+07,1002.15,8.00E-12,0,0
0.009375,293,1.20E-11,1002.15,1.00E+07,1002.15,1.20E-11,0,0
0.010625,293,9.69E-12,1002.15,1.00E+07,1002.15,9.69E-12,0,0
0.011875,293,1.10E-11,1002.15,1.00E+07,1002.15,1.10E-11,0,0
0.013125,293,9.11E-12,1002.15,1.00E+07,1002.15,9.11E-12,0,0
0.014375,293,7.06E-12,1002.15,1.00E+07,1002.15,7.06E-12,0,0
0.015625,293,2.56E-12,1002.15,1.00E+07,1002.15,2.56E-12,0,0
0.016875,293,2.77E-12,1002.15,1.00E+07,1002.15,2.77E-12,0,0
0.018125,293,3.59E-12,1002.15,1.00E+07,1002.15,3.59E-12,0,0
0.019375,293,2.83E-13,1002.15,1.00E+07,1002.15,2.83E-13,0,0
0.020625,293,-7.87E-12,1002.15,1.00E+07,1002.15,-7.87E-12,0,0
0.021875,293,-4.79E-12,1002.15,1.00E+07,1002.15,-4.79E-12,0,0
0.023125,293,-7.66E-12,1002.15,1.00E+07,1002.15,-7.66E-12,0,0
0.024375,293,-1.66E-12,1002.15,1.00E+07,1002.15,-1.66E-12,0,0
0.025625,293,-1.06E-12,1002.15,1.00E+07,1002.15,-1.06E-12,0,0
0.026875,293,1.32E-12,1002.15,1.00E+07,1002.15,1.32E-12,0,0
0.028125,293,1.95E-12,1002.15,1.00E+07,1002.15,1.95E-12,0,0
0.029375,293,2.45E-12,1002.15,1.00E+07,1002.15,2.45E-12,0,0
0.030625,293,-2.41E-12,1002.15,1.00E+07,1002.15,-2.41E-12,0,0
0.031875,293,-1.68E-13,1002.15,1.00E+07,1002.15,-1.68E-13,0,0
0.033125,293,-5.32E-12,1002.15,1.00E+07,1002.15,-5.32E-12,0,0
0.034375,293,-1.68E-12,1002.15,1.00E+07,1002.15,-1.68E-12,0,0
0.035625,293,1.52E-12,1002.15,1.00E+07,1002.15,1.52E-12,0,0
0.036875,293,2.57E-13,1002.15,1.00E+07,1002.15,2.57E-13,0,0
0.038125,293,5.64E-12,1002.15,1.00E+07,1002.15,5.64E-12,0,0
0.039375,293,6.37E-12,1002.15,1.00E+07,1002.15,6.37E-12,0,0
0.040625,293,6.39E-12,1002.15,1.00E+07,1002.15,6.39E-12,0,0
0.041875,293,1.46E-12,1002.15,1.00E+07,1002.15,1.46E-12,0,0
0.043125,293,-8.29E-13,1002.15,1.00E+07,1002.15,-8.29E-13,0,0
0.044375,293,-7.25E-13,1002.15,1.00E+07,1002.15,-7.25E-13,0,0
0.045625,293,-5.97E-13,1002.15,1.00E+07,1002.15,-5.97E-13,0,0
0.046875,293,-9.32E-13,1002.15,1.00E+07,1002.15,-9.32E-13,0,0
0.048125,293,-3.10E-12,1002.15,1.00E+07,1002.15,-3.10E-12,0,0
0.049375,293,-2.47E-12,1002.15,1.00E+07,1002.15,-2.47E-12,0,0
0.050625,293,-3.28E-12,1002.15,1.00E+07,1002.15,-3.28E-12,0,0
0.051875,293,-2.96E-12,1002.15,1.00E+07,1002.15,-2.96E-12,0,0
0.053125,293,-5.23E-12,1002.15,1.00E+07,1002.15,-5.23E-12,0,0
0.054375,293,-3.05E-12,1002.15,1.00E+07,1002.15,-3.05E-12,0,0
0.055625,293,-3.50E-12,1002.15,1.00E+07,1002.15,-3.50E-12,0,0
0.056875,293,-3.09E-12,1002.15,1.00E+07,1002.15,-3.09E-12,0,0
0.058125,293,-3.35E-12,1002.15,1.00E+07,1002.15,-3.35E-12,0,0
0.059375,293,-3.43E-12,1002.15,1.00E+07,1002.15,-3.43E-12,0,0
0.060625,293,-5.08E-12,1002.15,1.00E+07,1002.15,-5.08E-12,0,0
0.061875,293,-1.74E-12,1002.15,1.00E+07,1002.15,-1.74E-12,0,0
0.063125,293,-3.41E-12,1002.15,1.00E+07,1002.15,-3.41E-12,0,0
0.064375,293,-3.52E-12,1002.15,1.00E+07,1002.15,-3.52E-12,0,0
0.065625,293,-2.55E-12,1002.15,1.00E+07,1002.15,-2.55E-12,0,0
0.066875,293,-3.42E-12,1002.15,1.00E+07,1002.15,-3.42E-12,0,0
0.068125,293,-8.70E-13,1002.15,1.00E+07,1002.15,-8.70E-13,0,0
0.069375,293,1.87E-12,1002.15,1.00E+07,1002.15,1.87E-12,0,0
0.070625,293,2.27E-12,1002.15,1.00E+07,1002.15,2.27E-12,0,0
0.071875,293,-2.01E-12,1002.15,1.00E+07,1002.15,-2.01E-12,0,0
0.073125,293,-5.15E-12,1002.15,1.00E+07,1002.15,-5.15E-12,0,0
0.074375,293,-9.67E-12,1002.15,1.00E+07,1002.15,-9.67E-12,0,0
0.075625,293,-6.15E-12,1002.15,1.00E+07,1002.15,-6.15E-12,0,0
0.076875,293,-6.00E-12,1002.15,1.00E+07,1002.15,-6.00E-12,0,0
0.078125,293,-5.25E-12,1002.15,1.00E+07,1002.15,-5.25E-12,0,0
0.079375,293,-1.22E-12,1002.15,1.00E+07,1002.15,-1.22E-12,0,0
0.080625,293,2.00E-12,1002.15,1.00E+07,1002.15,2.00E-12,0,0
0.081875,293,-1.78E-12,1002.15,1.00E+07,1002.15,-1.78E-12,0,0
0.083125,293,1.91E-12,1002.15,1.00E+07,1002.15,1.91E-12,0,0
0.084375,293,4.45E-12,1002.15,1.00E+07,1002.15,4.45E-12,0,0
0.085625,293,5.81E-12,1002.15,1.00E+07,1002.15,5.81E-12,0,0
0.086875,293,7.35E-12,1002.15,1.00E+07,1002.15,7.35E-12,0,0
0.088125,293,3.82E-12,1002.15,1.00E+07,1002.15,3.82E-12,0,0
0.089375,293,1.01E-12,1002.15,1.00E+07,1002.15,1.01E-12,0,0
0.090625,293,2.91E-13,1002.15,1.00E+07,1002.15,2.91E-13,0,0
0.091875,293,5.24E-13,1002.15,1.00E+07,1002.15,5.24E-13,0,0
0.093125,293,2.60E-13,1002.15,1.00E+07,1002.15,2.60E-13,0,0
0.094375,293,-2.54E-12,1002.15,1.00E+07,1002.15,-2.54E-12,0,0
0.095625,293,-3.72E-12,1002.15,1.00E+07,1002.15,-3.72E-12,0,0
0.096875,293,-7.04E-12,1002.15,1.00E+07,1002.15,-7.04E-12,0,0
0.098125,293,-4.46E-12,1002.15,1.00E+07,1002.15,-4.46E-12,0,0
0.099375,293,-6.52E-12,1002.15,1.00E+07,1002.15,-6.52E-12,0,0
0.100625,293,-7.13E-12,1002.15,1.00E+07,1002.15,-7.13E-12,0,0
0.101875,293,-6.99E-12,1002.15,1.00E+07,1002.15,-6.99E-12,0,0
0.103125,293,-1.11E-11,1002.15,1.00E+07,1002.15,-1.11E-11,0,0
0.104375,293,-1.05E-11,1002.15,1.00E+07,1002.15,-1.05E-11,0,0
0.105625,293,-9.87E-12,1002.15,1.00E+07,1002.15,-9.87E-12,0,0
0.106875,293,-2.01E-13,1002.15,1.00E+07,1002.15,-2.01E-13,0,0
0.108125,293,1.97E-12,1002.15,1.00E+07,1002.15,1.97E-12,0,0
0.109375,293,5.45E-12,1002.15,1.00E+07,1002.15,5.45E-12,0,0
0.110625,293,8.35E-12,1002.15,1.00E+07,1002.15,8.35E-12,0,0
0.111875,293,1.99E-12,1002.15,1.00E+07,1002.15,1.99E-12,0,0
0.113125,293,1.62E-12,1002.15,1.00E+07,1002.15,1.62E-12,0,0
0.114375,293,-1.54E-12,1002.15,1.00E+07,1002.15,-1.54E-12,0,0
0.115625,293,-4.19E-12,1002.15,1.00E+07,1002.15,-4.19E-12,0,0
0.116875,293,-4.18E-12,1002.15,1.00E+07,1002.15,-4.18E-12,0,0
0.118125,293,-5.03E-12,1002.15,1.00E+07,1002.15,-5.03E-12,0,0
0.119375,293,-4.24E-12,1002.15,1.00E+07,1002.15,-4.24E-12,0,0
0.120625,293,-1.54E-12,1002.15,1.00E+07,1002.15,-1.54E-12,0,0
0.121875,293,-9.84E-13,1002.15,1.00E+07,1002.15,-9.84E-13,0,0
0.123125,293,1.66E-12,1002.15,1.00E+07,1002.15,1.66E-12,0,0
0.124375,293,3.63E-12,1002.15,1.00E+07,1002.15,3.63E-12,0,0
0.125625,293,1.65E-12,1002.15,1.00E+07,1002.15,1.65E-12,0,0
0.126875,293,2.42E-12,1002.15,1.00E+07,1002.15,2.42E-12,0,0
0.128125,293,1.54E-12,1002.15,1.00E+07,1002.15,1.54E-12,0,0
0.129375,293,-1.90E-14,1002.15,1.00E+07,1002.15,-1.90E-14,0,0
0.130625,293,-5.09E-12,1002.15,1.00E+07,1002.15,-5.09E-12,0,0
0.131875,293,-5.53E-12,1002.15,1.00E+07,1002.15,-5.53E-12,0,0
0.133125,293,-6.14E-12,1002.15,1.00E+07,1002.15,-6.14E-12,0,0
0.134375,293,-1.18E-11,1002.15,1.00E+07,1002.15,-1.18E-11,0,0
0.135625,293,-7.55E-12,1002.15,1.00E+07,1002.15,-7.55E-12,0,0
0.136875,293,-5.81E-12,1002.15,1.00E+07,1002.15,-5.81E-12,0,0
0.138125,293,-6.73E-12,1002.15,1.00E+07,1002.15,-6.73E-12,0,0
0.139375,293,-3.62E-12,1002.15,1.00E+07,1002.15,-3.62E-12,0,0
0.140625,293,-2.01E-12,1002.15,1.00E+07,1002.15,-2.01E-12,0,0
0.141875,293,-8.54E-13,1002.15,1.00E+07,1002.15,-8.54E-13,0,0
0.143125,293,5.04E-12,1002.15,1.00E+07,1002.15,5.04E-12,0,0
0.144375,293,3.16E-12,1002.15,1.00E+07,1002.15,3.16E-12,0,0
0.145625,293,-4.09E-13,1002.15,1.00E+07,1002.15,-4.09E-13,0,0
0.146875,293,1.09E-12,1002.15,1.00E+07,1002.15,1.09E-12,0,0
0.148125,293,6.82E-13,1002.15,1.00E+07,1002.15,6.82E-13,0,0
0.149375,293,2.35E-12,1002.15,1.00E+07,1002.15,2.35E-12,0,0
0.150625,293,-9.66E-13,1002.15,1.00E+07,1002.15,-9.66E-13,0,0
0.151875,293,-5.42E-12,1002.15,1.00E+07,1002.15,-5.42E-12,0,0
0.153125,293,-9.59E-12,1002.15,1.00E+07,1002.15,-9.59E-12,0,0
0.154375,293,-4.09E-12,1002.15,1.00E+07,1002.15,-4.09E-12,0,0
0.155625,293,9.93E-13,1002.15,1.00E+07,1002.15,9.93E-13,0,0
0.156875,293,-3.50E-12,1002.15,1.00E+07,1002.15,-3.50E-12,0,0
0.158125,293,-5.96E-12,1002.15,1.00E+07,1002.15,-5.96E-12,0,0
0.159375,293,-6.41E-12,1002.15,1.00E+07,1002.15,-6.41E-12,0,0
0.160625,293,-6.90E-12,1002.15,1.00E+07,1002.15,-6.90E-12,0,0
0.161875,293,-1.73E-12,1002.15,1.00E+07,1002.15,-1.73E-12,0,0
0.163125,293,-3.58E-12,1002.15,1.00E+07,1002.15,-3.58E-12,0,0
0.164375,293,-8.40E-13,1002.15,1.00E+07,1002.15,-8.40E-13,0,0
0.165625,293,-7.20E-12,1002.15,1.00E+07,1002.15,-7.20E-12,0,0
0.166875,293,-7.49E-12,1002.15,1.00E+07,1002.15,-7.49E-12,0,0
0.168125,293,-5.99E-12,1002.15,1.00E+07,1002.15,-5.99E-12,0,0
0.169375,293,-9.57E-12,1002.15,1.00E+07,1002.15,-9.57E-12,0,0
0.170625,293,-9.59E-12,1002.15,1.00E+07,1002.15,-9.59E-12,0,0
0.171875,293,-6.56E-12,1002.15,1.00E+07,1002.15,-6.56E-12,0,0
0.173125,293,-1.13E-11,1002.15,1.00E+07,1002.15,-1.13E-11,0,0
0.174375,293,-8.48E-12,1002.15,1.00E+07,1002.15,-8.48E-12,0,0
0.175625,293,-7.18E-12,1002.15,1.00E+07,1002.15,-7.18E-12,0,0
0.176875,293,-1.06E-11,1002.15,1.00E+07,1002.15,-1.06E-11,0,0
0.178125,293,-1.11E-11,1002.15,1.00E+07,1002.15,-1.11E-11,0,0
0.179375,293,-9.32E-12,1002.15,1.00E+07,1002.15,-9.32E-12,0,0
0.180625,293,-4.85E-12,1002.15,1.00E+07,1002.15,-4.85E-12,0,0
0.181875,293,-3.82E-12,1002.15,1.00E+07,1002.15,-3.82E-12,0,0
0.183125,293,8.12E-14,1002.15,1.00E+07,1002.15,8.12E-14,0,0
0.184375,293,-1.69E-12,1002.15,1.00E+07,1002.15,-1.69E-12,0,0
0.185625,293,-5.87E-12,1002.15,1.00E+07,1002.15,-5.87E-12,0,0
0.186875,293,-1.96E-13,1002.15,1.00E+07,1002.15,-1.96E-13,0,0
0.188125,293,5.33E-12,1002.15,1.00E+07,1002.15,5.33E-12,0,0
0.189375,293,6.23E-12,1002.15,1.00E+07,1002.15,6.23E-12,0,0
0.190625,293,6.28E-12,1002.15,1.00E+07,1002.15,6.28E-12,0,0
0.191875,293,5.66E-12,1002.15,1.00E+07,1002.15,5.66E-12,0,0
0.193125,293,1.17E-11,1002.15,1.00E+07,1002.15,1.17E-11,0,0
0.194375,293,6.36E-12,1002.15,1.00E+07,1002.15,6.36E-12,0,0
0.195625,293,5.31E-12,1002.15,1.00E+07,1002.15,5.31E-12,0,0
0.196875,293,9.54E-12,1002.15,1.00E+07,1002.15,9.54E-12,0,0
0.198125,293,6.24E-12,1002.15,1.00E+07,1002.15,6.24E-12,0,0
0.199375,293,6.27E-12,1002.15,1.00E+07,1002.15,6.27E-12,0,0
0.200625,293,7.54E-12,1002.15,1.00E+07,1002.15,7.54E-12,0,0
0.201875,293,8.11E-13,1002.15,1.00E+07,1002.15,8.11E-13,0,0
0.203125,293,4.86E-13,1002.15,1.00E+07,1002.15,4.86E-13,0,0
0.204375,293,-4.54E-13,1002.15,1.00E+07,1002.15,-4.54E-13,0,0
0.205625,293,-2.36E-12,1002.15,1.00E+07,1002.15,-2.36E-12,0,0
0.206875,293,1.77E-14,1002.15,1.00E+07,1002.15,1.77E-14,0,0
0.208125,293,-1.75E-12,1002.15,1.00E+07,1002.15,-1.75E-12,0,0
0.209375,293,-4.64E-15,1002.15,1.00E+07,1002.15,-4.64E-15,0,0
0.210625,293,-1.92E-12,1002.15,1.00E+07,1002.15,-1.92E-12,0,0
0.211875,293,4.92E-13,1002.15,1.00E+07,1002.15,4.92E-13,0,0
0.213125,293,5.51E-12,1002.15,1.00E+07,1002.15,5.51E-12,0,0
0.214375,293,5.81E-12,1002.15,1.00E+07,1002.15,5.81E-12,0,0
0.215625,293,5.37E-12,1002.15,1.00E+07,1002.15,5.37E-12,0,0
0.216875,293,5.26E-12,1002.15,1.00E+07,1002.15,5.26E-12,0,0
0.218125,293,5.16E-12,1002.15,1.00E+07,1002.15,5.16E-12,0,0
0.219375,293,2.88E-12,1002.15,1.00E+07,1002.15,2.88E-12,0,0
0.220625,293,2.37E-12,1002.15,1.00E+07,1002.15,2.37E-12,0,0
0.221875,293,8.33E-13,1002.15,1.00E+07,1002.15,8.33E-13,0,0
0.223125,293,-1.55E-12,1002.15,1.00E+07,1002.15,-1.55E-12,0,0
0.224375,293,-4.47E-12,1002.15,1.00E+07,1002.15,-4.47E-12,0,0
0.225625,293,-6.69E-12,1002.15,1.00E+07,1002.15,-6.69E-12,0,0
0.226875,293,-3.05E-12,1002.15,1.00E+07,1002.15,-3.05E-12,0,0
0.228125,293,1.38E-12,1002.15,1.00E+07,1002.15,1.38E-12,0,0
0.229375,293,2.80E-12,1002.15,1.00E+07,1002.15,2.80E-12,0,0
0.230625,293,-2.07E-13,1002.15,1.00E+07,1002.15,-2.07E-13,0,0
0.231875,293,-3.82E-14,1002.15,1.00E+07,1002.15,-3.82E-14,0,0
0.233125,293,3.17E-12,1002.15,1.00E+07,1002.15,3.17E-12,0,0
0.234375,293,1.69E-12,1002.15,1.00E+07,1002.15,1.69E-12,0,0
0.235625,293,2.11E-12,1002.15,1.00E+07,1002.15,2.11E-12,0,0
0.236875,293,2.17E-12,1002.15,1.00E+07,1002.15,2.17E-12,0,0
0.238125,293,1.11E-12,1002.15,1.00E+07,1002.15,1.11E-12,0,0
0.239375,293,3.76E-13,1002.15,1.00E+07,1002.15,3.76E-13,0,0
0.240625,293,-2.37E-12,1002.15,1.00E+07,1002.15,-2.37E-12,0,0
0.241875,293,-6.34E-12,1002.15,1.00E+07,1002.15,-6.34E-12,0,0
0.243125,293,-5.43E-12,1002.15,1.00E+07,1002.15,-5.43E-12,0,0
0.244375,293,-4.64E-12,1002.15,1.00E+07,1002.15,-4.64E-12,0,0
0.245625,293,-1.14E-11,1002.15,1.00E+07,1002.15,-1.14E-11,0,0
0.246875,293,-1.40E-11,1002.15,1.00E+07,1002.15,-1.40E-11,0,0
0.248125,293,-1.65E-11,1002.15,1.00E+07,1002.15,-1.65E-11,0,0
0.249375,293,-1.21E-11,1002.15,1.00E+07,1002.15,-1.21E-11,0,0
0.250625,293,-1.03E-11,1002.15,1.00E+07,1002.15,-1.03E-11,0,0
0.251875,293,-1.21E-11,1002.15,1.00E+07,1002.15,-1.21E-11,0,0
0.253125,293,-9.34E-12,1002.15,1.00E+07,1002.15,-9.34E-12,0,0
0.254375,293,-5.69E-12,1002.15,1.00E+07,1002.15,-5.69E-12,0,0
0.255625,293,-1.46E-12,1002.15,1.00E+07,1002.15,-1.46E-12,0,0
0.256875,293,5.03E-12,1002.15,1.00E+07,1002.15,5.03E-12,0,0
0.258125,293,3.85E-12,1002.15,1.00E+07,1002.15,3.85E-12,0,0
0.259375,293,9.69E-12,1002.15,1.00E+07,1002.15,9.69E-12,0,0
0.260625,293,7.60E-12,1002.15,1.00E+07,1002.15,7.60E-12,0,0
0.261875,293,5.12E-12,1002.15,1.00E+07,1002.15,5.12E-12,0,0
0.263125,293,4.96E-12,1002.15,1.00E+07,1002.15,4.96E-12,0,0
0.264375,293,3.65E-12,1002.15,1.00E+07,1002.15,3.65E-12,0,0
0.265625,293,3.79E-12,1002.15,1.00E+07,1002.15,3.79E-12,0,0
0.266875,293,5.10E-12,1002.15,1.00E+07,1002.15,5.10E-12,0,0
0.268125,293,8.67E-12,1002.15,1.00E+07,1002.15,8.67E-12,0,0
0.269375,293,1.23E-11,1002.15,1.00E+07,1002.15,1.23E-11,0,0
0.270625,293,1.21E-11,1002.15,1.00E+07,1002.15,1.21E-11,0,0
0.271875,293,1.36E-11,1002.15,1.00E+07,1002.15,1.36E-11,0,0
0.273125,293,1.20E-11,1002.15,1.00E+07,1002.15,1.20E-11,0,0
0.274375,293,1.73E-11,1002.15,1.00E+07,1002.15,1.73E-11,0,0
0.275625,293,1.60E-11,1002.15,1.00E+07,1002.15,1.60E-11,0,0
0.276875,293,1.91E-11,1002.15,1.00E+07,1002.15,1.91E-11,0,0
0.278125,293,2.30E-11,1002.15,1.00E+07,1002.15,2.30E-11,0,0
0.279375,293,2.32E-11,1002.15,1.00E+07,1002.15,2.32E-11,0,0
0.280625,293,2.56E-11,1002.15,1.00E+07,1002.15,2.56E-11,0,0
0.281875,293,3.16E-11,1002.15,1.00E+07,1002.15,3.16E-11,0,0
0.283125,293,3.69E-11,1002.15,1.00E+07,1002.15,3.69E-11,0,0
0.284375,293,5.26E-11,1002.15,1.00E+07,1002.15,5.26E-11,0,0
0.285625,293,9.05E-11,1002.15,1.00E+07,1002.15,9.05E-11,0,0
0.286875,293,1.68E-10,1002.15,1.00E+07,1002.15,1.68E-10,0,0
0.288125,293,3.00E-10,1002.15,1.00E+07,1002.15,3.00E-10,0,0
0.289375,293,5.73E-10,1002.15,1.00E+07,1002.15,5.73E-10,0,0
0.290625,293,1.10E-09,1002.15,1.00E+07,1002.15,1.10E-09,0,0
0.291875,293,2.10E-09,1002.15,1.00E+07,1002.15,2.10E-09,0,0
0.293125,293,3.98E-09,1002.15,1.00E+07,1002.15,3.98E-09,0,0
0.294375,293,7.49E-09,1002.15,1.00E+07,1002.15,7.49E-09,0,0
0.295625,293,1.40E-08,1002.15,1.00E+07,1002.15,1.40E-08,0,0
0.296875,293,2.57E-08,1002.15,1.00E+07,1002.15,2.57E-08,0,0
0.298125,293,4.71E-08,1002.15,1.00E+07,1002.15,4.71E-08,0,0
0.299375,293,8.53E-08,1002.15,1.00E+07,1002.15,8.53E-08,0,0
0.300625,293,1.54E-07,1002.15,1.00E+07,1002.15,1.54E-07,0,0
0.301875,293,2.74E-07,1002.15,1.00E+07,1002.15,2.74E-07,0,0
0.303125,293,4.86E-07,1002.15,1.00E+07,1002.15,4.86E-07,0,0
0.304375,293,8.55E-07,1002.15,1.00E+07,1002.15,8.55E-07,0,0
0.305625,293,1.49E-06,1002.15,1.00E+07,1002.15,1.49E-06,0,0
0.306875,293,2.58E-06,1002.15,1.00E+07,1002.15,2.58E-06,0,0
0.308125,293,4.43E-06,1002.15,1.00E+07,1002.15,4.43E-06,0,0
0.309375,293,7.55E-06,1002.15,1.00E+07,1002.15,7.55E-06,0,0
0.310625,293,1.28E-05,1002.15,1.00E+07,1002.15,1.28E-05,0,0
0.311875,293,2.14E-05,1002.15,1.00E+07,1002.15,2.14E-05,0,0
0.313125,293,3.55E-05,1002.15,1.00E+07,1002.15,3.55E-05,0,0
0.314375,293,5.85E-05,1002.15,1.00E+07,1002.15,5.85E-05,0,0
0.315625,293,9.55E-05,1002.15,1.00E+07,1002.15,9.55E-05,0,0
0.316875,293,0.000154518,1002.15,1.00E+07,1002.15,0.000154518,0,0
0.318125,293,0.00024779,1002.15,1.00E+07,1002.15,0.00024779,0,0
0.319375,293,0.00039374,1002.15,1.00E+07,1002.15,0.00039374,0,0
0.320625,293,0.000619855,1002.15,1.00E+07,1002.15,0.000619855,0,0
0.321875,293,0.000966626,1002.15,1.00E+07,1002.15,0.000966626,0,0
0.323125,292.999,0.00149294,1002.15,1.00E+07,1002.15,0.00149294,0,0
0.324375,292.999,0.00228335,1002.15,1.00E+07,1002.15,0.00228335,0,0
0.325625,292.999,0.00345757,1002.15,9.99E+06,1002.15,0.00345757,0,0
0.326875,292.998,0.00518274,1002.15,9.99E+06,1002.15,0.00518274,0,0
0.328125,292.997,0.00768877,1002.15,9.99E+06,1002.15,0.00768877,0,0
0.329375,292.996,0.011287,1002.14,9.98E+06,1002.14,0.011287,0,0
0.330625,292.994,0.0163923,1002.14,9.98E+06,1002.14,0.0163923,0,0
0.331875,292.992,0.0235477,1002.14,9.97E+06,1002.14,0.0235477,0,0
0.333125,292.988,0.0334511,1002.13,9.95E+06,1002.13,0.0334511,0,0
0.334375,292.983,0.0469821,1002.12,9.93E+06,1002.12,0.0469821,0,0
0.335625,292.977,0.0652252,1002.11,9.90E+06,1002.11,0.0652252,0,0
0.336875,292.968,0.0894869,1002.09,9.87E+06,1002.09,0.0894869,0,0
0.338125,292.957,0.1213,1002.07,9.82E+06,1002.07,0.1213,0,0
0.339375,292.943,0.162413,1002.04,9.76E+06,1002.04,0.162413,0,0
0.340625,292.924,0.214748,1002.01,9.68E+06,1002.01,0.214748,0,0
0.341875,292.901,0.280341,1001.96,9.58E+06,1001.96,0.280341,0,0
0.343125,292.872,0.361234,1001.91,9.46E+06,1001.91,0.361234,0,0
0.344375,292.838,0.459339,1001.84,9.32E+06,1001.84,0.459339,0,0
0.345625,292.796,0.576265,1001.76,9.15E+06,1001.76,0.576265,0,0
0.346875,292.748,0.713114,1001.67,8.94E+06,1001.67,0.713114,0,0
0.348125,292.693,0.870269,1001.56,8.71E+06,1001.56,0.870269,0,0
0.349375,292.63,1.04717,1001.44,8.45E+06,1001.44,1.04717,0,0
0.350625,292.561,1.24228,1001.31,8.16E+06,1001.31,1.24228,0,0
0.351875,292.488,1.45006,1001.17,7.85E+06,1001.17,1.45006,0,0
0.353125,292.415,1.65523,1001.03,7.55E+06,1001.03,1.65523,0,0
0.354375,292.346,1.85033,1000.9,7.26E+06,1000.9,1.85033,0,0
0.355625,292.282,2.03225,1000.77,6.99E+06,1000.77,2.03225,0,0
0.356875,292.224,2.19853,1000.66,6.74E+06,1000.66,2.19853,0,0
0.358125,292.171,2.34754,1000.56,6.52E+06,1000.56,2.34754,0,0
0.359375,292.125,2.47855,1000.47,6.33E+06,1000.47,2.47855,0,0
0.360625,292.085,2.59161,1000.4,6.16E+06,1000.4,2.59161,0,0
0.361875,292.051,2.68741,1000.33,6.02E+06,1000.33,2.68741,0,0
0.363125,292.023,2.76711,1000.28,5.91E+06,1000.28,2.76711,0,0
0.364375,292,2.83226,1000.23,5.81E+06,1000.23,2.83226,0,0
0.365625,291.982,2.88457,1000.2,5.73E+06,1000.2,2.88457,0,0
0.366875,291.967,2.92585,1000.17,5.67E+06,1000.17,2.92585,0,0
0.368125,291.956,2.95787,1000.15,5.62E+06,1000.15,2.95787,0,0
0.369375,291.947,2.98228,1000.13,5.59E+06,1000.13,2.98228,0,0
0.370625,291.941,3.00058,1000.12,5.56E+06,1000.12,3.00058,0,0
0.371875,291.936,3.01406,1000.11,5.54E+06,1000.11,3.01406,0,0
0.373125,291.933,3.02383,1000.1,5.53E+06,1000.1,3.02383,0,0
0.374375,291.93,3.03079,1000.1,5.52E+06,1000.1,3.03079,0,0
0.375625,291.929,3.03567,1000.1,5.51E+06,1000.1,3.03567,0,0
0.376875,291.927,3.03903,1000.09,5.50E+06,1000.09,3.03903,0,0
0.378125,291.927,3.04131,1000.09,5.50E+06,1000.09,3.04131,0,0
0.379375,291.926,3.04283,1000.09,5.50E+06,1000.09,3.04283,0,0
0.380625,291.926,3.04383,1000.09,5.50E+06,1000.09,3.04383,0,0
0.381875,291.926,3.04448,1000.09,5.50E+06,1000.09,3.04448,0,0
0.383125,291.925,3.0449,1000.09,5.50E+06,1000.09,3.0449,0,0
0.384375,291.925,3.04516,1000.09,5.50E+06,1000.09,3.04516,0,0
0.385625,291.925,3.04532,1000.09,5.50E+06,1000.09,3.04532,0,0
0.386875,291.925,3.04542,1000.09,5.50E+06,1000.09,3.04542,0,0
0.388125,291.925,3.04548,1000.09,5.50E+06,1000.09,3.04548,0,0
0.389375,291.925,3.04552,1000.09,5.50E+06,1000.09,3.04552,0,0
0.390625,291.925,3.04555,1000.09,5.50E+06,1000.09,3.04555,0,0
0.391875,291.925,3.04556,1000.09,5.50E+06,1000.09,3.04556,0,0
0.393125,291.925,3.04558,1000.09,5.50E+06,1000.09,3.04558,0,0
0.394375,291.925,3.04559,1000.09,5.50E+06,1000.09,3.04559,0,0
0.395625,291.925,3.0456,1000.09,5.50E+06,1000.09,3.0456,0,0
0.396875,291.925,3.0456,1000.09,5.50E+06,1000.09,3.0456,0,0
0.398125,291.925,3.0456,1000.09,5.50E+06,1000.09,3.0456,0,0
0.399375,291.925,3.0456,1000.09,5.50E+06,1000.09,3.0456,0,0
0.400625,291.925,3.04561,1000.09,5.50E+06,1000.09,3.04561,0,0
0.401875,291.925,3.04561,1000.09,5.50E+06,1000.09,3.04561,0,0
0.403125,291.925,3.04561,1000.09,5.50E+06,1000.09,3.04561,0,0
0.404375,291.925,3.04562,1000.09,5.50E+06,1000.09,3.04562,0,0
0.405625,291.925,3.04562,1000.09,5.50E+06,1000.09,3.04562,0,0
0.406875,291.925,3.04562,1000.09,5.50E+06,1000.09,3.04562,0,0
0.408125,291.925,3.04562,1000.09,5.50E+06,1000.09,3.04562,0,0
0.409375,291.925,3.04563,1000.09,5.50E+06,1000.09,3.04563,0,0
0.410625,291.925,3.04563,1000.09,5.50E+06,1000.09,3.04563,0,0
0.411875,291.925,3.04563,1000.09,5.50E+06,1000.09,3.04563,0,0
0.413125,291.925,3.04563,1000.09,5.50E+06,1000.09,3.04563,0,0
0.414375,291.925,3.04563,1000.09,5.50E+06,1000.09,3.04563,0,0
0.415625,291.925,3.04563,1000.09,5.50E+06,1000.09,3.04563,0,0
0.416875,291.925,3.04563,1000.09,5.50E+06,1000.09,3.04563,0,0
0.418125,291.925,3.04564,1000.09,5.50E+06,1000.09,3.04564,0,0
0.419375,291.925,3.04564,1000.09,5.50E+06,1000.09,3.04564,0,0
0.420625,291.925,3.04564,1000.09,5.50E+06,1000.09,3.04564,0,0
0.421875,291.925,3.04564,1000.09,5.50E+06,1000.09,3.04564,0,0
0.423125,291.925,3.04564,1000.09,5.50E+06,1000.09,3.04564,0,0
0.424375,291.925,3.04564,1000.09,5.50E+06,1000.09,3.04564,0,0
0.425625,291.925,3.04564,1000.09,5.50E+06,1000.09,3.04564,0,0
0.426875,291.925,3.04564,1000.09,5.50E+06,1000.09,3.04564,0,0
0.428125,291.925,3.04564,1000.09,5.50E+06,1000.09,3.04564,0,0
0.429375,291.925,3.04564,1000.09,5.50E+06,1000.09,3.04564,0,0
0.430625,291.925,3.04564,1000.09,5.50E+06,1000.09,3.04564,0,0
0.431875,291.925,3.04564,1000.09,5.50E+06,1000.09,3.04564,0,0
0.433125,291.925,3.04564,1000.09,5.50E+06,1000.09,3.04564,0,0
0.434375,291.925,3.04564,1000.09,5.50E+06,1000.09,3.04564,0,0
0.435625,291.925,3.04564,1000.09,5.50E+06,1000.09,3.04564,0,0
0.436875,291.925,3.04564,1000.09,5.50E+06,1000.09,3.04564,0,0
0.438125,291.925,3.04564,1000.09,5.50E+06,1000.09,3.04564,0,0
0.439375,291.925,3.04565,1000.09,5.50E+06,1000.09,3.04565,0,0
0.440625,291.925,3.04565,1000.09,5.50E+06,1000.09,3.04565,0,0
0.441875,291.925,3.04565,1000.09,5.50E+06,1000.09,3.04565,0,0
0.443125,291.925,3.04565,1000.09,5.50E+06,1000.09,3.04565,0,0
0.444375,291.925,3.04565,1000.09,5.50E+06,1000.09,3.04565,0,0
0.445625,291.925,3.04565,1000.09,5.50E+06,1000.09,3.04565,0,0
0.446875,291.925,3.04564,1000.09,5.50E+06,1000.09,3.04564,0,0
0.448125,291.925,3.04565,1000.09,5.50E+06,1000.09,3.04565,0,0
0.449375,291.925,3.04565,1000.09,5.50E+06,1000.09,3.04565,0,0
0.450625,291.925,3.04565,1000.09,5.50E+06,1000.09,3.04565,0,0
0.451875,291.925,3.04565,1000.09,5.50E+06,1000.09,3.04565,0,0
0.453125,291.925,3.04565,1000.09,5.50E+06,1000.09,3.04565,0,0
0.454375,291.925,3.04565,1000.09,5.50E+06,1000.09,3.04565,0,0
0.455625,291.925,3.04565,1000.09,5.50E+06,1000.09,3.04565,0,0
0.456875,291.925,3.04565,1000.09,5.50E+06,1000.09,3.04565,0,0
0.458125,291.925,3.04565,1000.09,5.50E+06,1000.09,3.04565,0,0
0.459375,291.925,3.04565,1000.09,5.50E+06,1000.09,3.04565,0,0
0.460625,291.925,3.04565,1000.09,5.50E+06,1000.09,3.04565,0,0
0.461875,291.925,3.04565,1000.09,5.50E+06,1000.09,3.04565,0,0
0.463125,291.925,3.04565,1000.09,5.50E+06,1000.09,3.04565,0,0
0.464375,291.925,3.04565,1000.09,5.50E+06,1000.09,3.04565,0,0
0.465625,291.925,3.04565,1000.09,5.50E+06,1000.09,3.04565,0,0
0.466875,291.925,3.04565,1000.09,5.50E+06,1000.09,3.04565,0,0
0.468125,291.925,3.04565,1000.09,5.50E+06,1000.09,3.04565,0,0
0.469375,291.925,3.04565,1000.09,5.50E+06,1000.09,3.04565,0,0
0.470625,291.925,3.04565,1000.09,5.50E+06,1000.09,3.04565,0,0
0.471875,291.925,3.04565,1000.09,5.50E+06,1000.09,3.04565,0,0
0.473125,291.925,3.04565,1000.09,5.50E+06,1000.09,3.04565,0,0
0.474375,291.925,3.04565,1000.09,5.50E+06,1000.09,3.04565,0,0
0.475625,291.925,3.04565,1000.09,5.50E+06,1000.09,3.04565,0,0
0.476875,291.925,3.04565,1000.09,5.50E+06,1000.09,3.04565,0,0
0.478125,291.925,3.04565,1000.09,5.50E+06,1000.09,3.04565,0,0
0.479375,291.925,3.04564,1000.09,5.50E+06,1000.09,3.04564,0,0
0.480625,291.925,3.04564,1000.09,5.50E+06,1000.09,3.04564,0,0
0.481875,291.925,3.04564,1000.09,5.50E+06,1000.09,3.04564,0,0
0.483125,291.925,3.04564,1000.09,5.50E+06,1000.09,3.04564,0,0
0.484375,291.925,3.04564,1000.09,5.50E+06,1000.09,3.04564,0,0
0.485625,291.925,3.04564,1000.09,5.50E+06,1000.09,3.04564,0,0
0.486875,291.925,3.04564,1000.09,5.50E+06,1000.09,3.04564,0,0
0.488125,291.925,3.04564,1000.09,5.50E+06,1000.09,3.04564,0,0
0.489375,291.925,3.04564,1000.09,5.50E+06,1000.09,3.04564,0,0
0.490625,291.925,3.04564,1000.09,5.50E+06,1000.09,3.04564,0,0
0.491875,291.925,3.04564,1000.09,5.50E+06,1000.09,3.04564,0,0
0.493125,291.925,3.04564,1000.09,5.50E+06,1000.09,3.04564,0,0
0.494375,291.925,3.04564,1000.09,5.50E+06,1000.09,3.04564,0,0
0.495625,291.924,3.04564,1000.09,5.50E+06,1000.09,3.04564,0,0
0.496875,291.925,3.04564,1000.09,5.50E+06,1000.09,3.04564,0,0
0.498125,291.921,3.04564,1000.09,5.50E+06,1000.09,3.04564,0,0
0.499375,291.96,3.04564,1000.09,5.50E+06,1000.09,3.04564,0,0
0.500625,293.574,3.04564,1000.07,5.50E+06,1000.07,3.04564,0,0
0.501875,294.017,3.04564,1000.07,5.50E+06,1000.07,3.04564,0,0
0.503125,294.077,3.04564,1000.07,5.50E+06,1000.07,3.04564,0,0
0.504375,294.08,3.04564,1000.07,5.50E+06,1000.07,3.04564,0,0
0.505625,294.076,3.04564,1000.07,5.50E+06,1000.07,3.04564,0,0
0.506875,294.077,3.04564,1000.07,5.50E+06,1000.07,3.04564,0,0
0.508125,294.075,3.04564,1000.07,5.50E+06,1000.07,3.04564,0,0
0.509375,294.076,3.04564,1000.07,5.50E+06,1000.07,3.04564,0,0
0.510625,294.075,3.04564,1000.07,5.50E+06,1000.07,3.04564,0,0
0.511875,294.076,3.04564,1000.07,5.50E+06,1000.07,3.04564,0,0
0.513125,294.075,3.04564,1000.07,5.50E+06,1000.07,3.04564,0,0
0.514375,294.075,3.04564,1000.07,5.50E+06,1000.07,3.04564,0,0
0.515625,294.075,3.04564,1000.07,5.50E+06,1000.07,3.04564,0,0
0.516875,294.075,3.04564,1000.07,5.50E+06,1000.07,3.04564,0,0
0.518125,294.075,3.04564,1000.07,5.50E+06,1000.07,3.04564,0,0
0.519375,294.075,3.04563,1000.07,5.50E+06,1000.07,3.04563,0,0
0.520625,294.075,3.04563,1000.07,5.50E+06,1000.07,3.04563,0,0
0.521875,294.075,3.04563,1000.07,5.50E+06,1000.07,3.04563,0,0
0.523125,294.075,3.04563,1000.07,5.50E+06,1000.07,3.04563,0,0
0.524375,294.075,3.04563,1000.07,5.50E+06,1000.07,3.04563,0,0
0.525625,294.075,3.04563,1000.07,5.50E+06,1000.07,3.04563,0,0
0.526875,294.075,3.04563,1000.07,5.50E+06,1000.07,3.04563,0,0
0.528125,294.075,3.04563,1000.07,5.50E+06,1000.07,3.04563,0,0
0.529375,294.075,3.04563,1000.07,5.50E+06,1000.07,3.04563,0,0
0.530625,294.075,3.04563,1000.07,5.50E+06,1000.07,3.04563,0,0
0.531875,294.075,3.04563,1000.07,5.50E+06,1000.07,3.04563,0,0
0.533125,294.075,3.04563,1000.07,5.50E+06,1000.07,3.04563,0,0
0.534375,294.075,3.04563,1000.07,5.50E+06,1000.07,3.04563,0,0
0.535625,294.075,3.04563,1000.07,5.50E+06,1000.07,3.04563,0,0
0.536875,294.075,3.04563,1000.07,5.50E+06,1000.07,3.04563,0,0
0.538125,294.075,3.04563,1000.07,5.50E+06,1000.07,3.04563,0,0
0.539375,294.075,3.04563,1000.07,5.50E+06,1000.07,3.04563,0,0
0.540625,294.075,3.04563,1000.07,5.50E+06,1000.07,3.04563,0,0
0.541875,294.075,3.04562,1000.07,5.50E+06,1000.07,3.04562,0,0
0.543125,294.075,3.04562,1000.07,5.50E+06,1000.07,3.04562,0,0
0.544375,294.075,3.04562,1000.07,5.50E+06,1000.07,3.04562,0,0
0.545625,294.075,3.04562,1000.07,5.50E+06,1000.07,3.04562,0,0
0.546875,294.075,3.04562,1000.07,5.50E+06,1000.07,3.04562,0,0
0.548125,294.075,3.04562,1000.07,5.50E+06,1000.07,3.04562,0,0
0.549375,294.075,3.04562,1000.07,5.50E+06,1000.07,3.04562,0,0
0.550625,294.075,3.04562,1000.07,5.50E+06,1000.07,3.04562,0,0
0.551875,294.075,3.04562,1000.07,5.50E+06,1000.07,3.04562,0,0
0.553125,294.075,3.04562,1000.07,5.50E+06,1000.07,3.04562,0,0
0.554375,294.075,3.04562,1000.07,5.50E+06,1000.07,3.04562,0,0
0.555625,294.075,3.04562,1000.07,5.50E+06,1000.07,3.04562,0,0
0.556875,294.075,3.04562,1000.07,5.50E+06,1000.07,3.04562,0,0
0.558125,294.075,3.04561,1000.07,5.50E+06,1000.07,3.04561,0,0
0.559375,294.075,3.04561,1000.07,5.50E+06,1000.07,3.04561,0,0
0.560625,294.075,3.04561,1000.07,5.50E+06,1000.07,3.04561,0,0
0.561875,294.075,3.04561,1000.07,5.50E+06,1000.07,3.04561,0,0
0.563125,294.075,3.04561,1000.07,5.50E+06,1000.07,3.04561,0,0
0.564375,294.075,3.04561,1000.07,5.50E+06,1000.07,3.04561,0,0
0.565625,294.075,3.04561,1000.07,5.50E+06,1000.07,3.04561,0,0
0.566875,294.075,3.04561,1000.07,5.50E+06,1000.07,3.04561,0,0
0.568125,294.075,3.04561,1000.07,5.50E+06,1000.07,3.04561,0,0
0.569375,294.075,3.0456,1000.07,5.50E+06,1000.07,3.0456,0,0
0.570625,294.075,3.0456,1000.07,5.50E+06,1000.07,3.0456,0,0
0.571875,294.075,3.0456,1000.07,5.50E+06,1000.07,3.0456,0,0
0.573125,294.075,3.0456,1000.07,5.50E+06,1000.07,3.0456,0,0
0.574375,294.075,3.0456,1000.07,5.50E+06,1000.07,3.0456,0,0
0.575625,294.075,3.0456,1000.07,5.50E+06,1000.07,3.0456,0,0
0.576875,294.075,3.0456,1000.07,5.50E+06,1000.07,3.0456,0,0
0.578125,294.075,3.04559,1000.07,5.50E+06,1000.07,3.04559,0,0
0.579375,294.075,3.04559,1000.07,5.50E+06,1000.07,3.04559,0,0
0.580625,294.075,3.04559,1000.07,5.50E+06,1000.07,3.04559,0,0
0.581875,294.075,3.04559,1000.07,5.50E+06,1000.07,3.04559,0,0
0.583125,294.075,3.04559,1000.07,5.50E+06,1000.07,3.04559,0,0
0.584375,294.075,3.04559,1000.07,5.50E+06,1000.07,3.04559,0,0
0.585625,294.075,3.04558,1000.07,5.50E+06,1000.07,3.04558,0,0
0.586875,294.075,3.04558,1000.07,5.50E+06,1000.07,3.04558,0,0
0.588125,294.075,3.04558,1000.07,5.50E+06,1000.07,3.04558,0,0
0.589375,294.075,3.04558,1000.07,5.50E+06,1000.07,3.04558,0,0
0.590625,294.075,3.04558,1000.07,5.50E+06,1000.07,3.04558,0,0
0.591875,294.075,3.04557,1000.07,5.50E+06,1000.07,3.04557,0,0
0.593125,294.075,3.04557,1000.07,5.50E+06,1000.07,3.04557,0,0
0.594375,294.075,3.04557,1000.07,5.50E+06,1000.07,3.04557,0,0
0.595625,294.075,3.04557,1000.07,5.50E+06,1000.07,3.04557,0,0
0.596875,294.075,3.04556,1000.07,5.50E+06,1000.07,3.04556,0,0
0.598125,294.075,3.04556,1000.07,5.50E+06,1000.07,3.04556,0,0
0.599375,294.075,3.04556,1000.07,5.50E+06,1000.07,3.04556,0,0
0.600625,294.075,3.04555,1000.07,5.50E+06,1000.07,3.04555,0,0
0.601875,294.075,3.04555,1000.07,5.50E+06,1000.07,3.04555,0,0
0.603125,294.075,3.04555,1000.07,5.50E+06,1000.07,3.04555,0,0
0.604375,294.075,3.04554,1000.07,5.50E+06,1000.07,3.04554,0,0
0.605625,294.075,3.04554,1000.07,5.50E+06,1000.07,3.04554,0,0
0.606875,294.075,3.04553,1000.07,5.50E+06,1000.07,3.04553,0,0