/*--------------------------------*- C++ -*----------------------------------*\
| =========                 |                                                 |
| \\      /  F ield         | OpenFOAM: The Open Source CFD Toolbox           |
|  \\    /   O peration     | Version:  2312                                  |
|   \\  /    A nd           | Website:  www.openfoam.com                      |
|    \\/     M anipulation  |                                                 |
\*---------------------------------------------------------------------------*/
FoamFile
{
    version     2.0;
    format      ascii;
    arch        "LSB;label=32;scalar=64";
    class       volScalarField;
    location    "0.0002";
    object      maxKappa;
}
// * * * * * * * * * * * * * * * * * * * * * * * * * * * * * * * * * * * * * //

dimensions      [0 0 0 0 0 0 0];

internalField   nonuniform List<scalar> 
800
(
0.828937
0.828937
0.828937
0.828937
0.828937
0.828937
0.828937
0.828937
0.828937
0.828937
0.828937
0.828937
0.828937
0.828937
0.828937
0.828937
0.828937
0.828937
0.828937
0.828937
0.828937
0.828937
0.828937
0.828937
0.828937
0.828937
0.828937
0.828937
0.828937
0.828937
0.828937
0.828937
0.828937
0.828937
0.828937
0.828937
0.828937
0.828937
0.828937
0.828937
0.828937
0.828937
0.828937
0.828937
0.828937
0.828937
0.828937
0.828937
0.828937
0.828937
0.828937
0.828937
0.828937
0.828937
0.828937
0.828937
0.828937
0.828937
0.828937
0.828937
0.828937
0.828937
0.828937
0.828937
0.828937
0.828937
0.828937
0.828937
0.828937
0.828937
0.828937
0.828937
0.828937
0.828937
0.828937
0.828937
0.828937
0.828937
0.828937
0.828937
0.828937
0.828937
0.828937
0.828937
0.828937
0.828937
0.828937
0.828937
0.828937
0.828937
0.828937
0.828937
0.828937
0.828937
0.828937
0.828937
0.828937
0.828937
0.828937
0.828937
0.828937
0.828937
0.828937
0.828937
0.828937
0.828937
0.828937
0.828937
0.828937
0.828937
0.828937
0.828937
0.828937
0.828937
0.828937
0.828937
0.828937
0.828937
0.828937
0.828937
0.828937
0.828937
0.828937
0.828937
0.828937
0.828937
0.828938
0.828938
0.828938
0.828938
0.828938
0.828938
0.828938
0.828939
0.828939
0.82894
0.828941
0.828942
0.828943
0.828945
0.828948
0.828951
0.828955
0.82896
0.828966
0.828974
0.828984
0.828995
0.82901
0.829027
0.829047
0.829071
0.829099
0.829131
0.829168
0.82921
0.829256
0.829309
0.829366
0.829428
0.829495
0.829566
0.82964
0.829715
0.829788
0.829859
0.829926
0.82999
0.830049
0.830103
0.830153
0.830198
0.830238
0.830273
0.830304
0.830331
0.830354
0.830374
0.830391
0.830405
0.830416
0.830426
0.830433
0.83044
0.830445
0.830449
0.830452
0.830454
0.830456
0.830457
0.830459
0.830459
0.83046
0.830461
0.830461
0.830461
0.830461
0.830461
0.830462
0.830462
0.830462
0.830462
0.830462
0.830462
0.830462
0.830462
0.830462
0.830462
0.830462
0.830462
0.830462
0.830462
0.830462
0.830462
0.830462
0.830462
0.830462
0.830462
0.830462
0.830462
0.830462
0.830462
0.830462
0.830462
0.830462
0.830462
0.830462
0.830462
0.830462
0.830462
0.830462
0.830462
0.830462
0.830462
0.830462
0.830462
0.830462
0.830462
0.830462
0.830462
0.830462
0.830462
0.830462
0.830462
0.830462
0.830462
0.830462
0.830462
0.830462
0.830462
0.830462
0.830462
0.830462
0.830462
0.830462
0.830462
0.830462
0.830462
0.830462
0.830462
0.830462
0.830462
0.830462
0.830462
0.830462
0.830462
0.830462
0.830462
0.830462
0.830462
0.830462
0.830462
0.830462
0.830462
0.830462
0.830462
0.830462
0.830462
0.830462
0.830462
0.830462
0.830462
0.830462
0.830462
0.830462
0.830462
0.830462
0.830462
0.830462
0.830462
0.830462
0.830462
0.830462
0.830462
0.830462
0.830462
0.830462
0.830462
0.830462
0.830462
0.830462
0.830462
0.830462
0.830462
0.830462
0.830462
0.830462
0.830462
0.830462
0.830462
0.830462
0.830462
0.830462
0.830462
0.830462
0.830462
0.830462
0.830462
0.830462
0.830462
0.830462
0.830462
0.830462
0.830462
0.830462
0.830462
0.830462
0.830462
0.830462
0.830462
0.830462
0.830462
0.830462
0.830462
0.830462
0.830462
0.830462
0.830462
0.830462
0.830462
0.830462
0.830462
0.830462
0.830462
0.830462
0.830462
0.830462
0.830462
0.830462
0.830462
0.830462
0.830463
0.830463
0.830463
0.830463
0.830463
0.830463
0.830463
0.830463
0.830463
0.830463
0.830463
0.830463
0.830463
0.830463
0.830463
0.830463
0.830463
0.830463
0.830463
0.830463
0.830463
0.830463
0.830463
0.830463
0.830463
0.830463
0.830463
0.830463
0.830463
0.830462
0.830462
0.83046
0.830458
0.830456
0.830451
0.830445
0.830436
0.830423
0.830406
0.830381
0.830347
0.830302
0.830241
0.830163
0.830062
0.829935
0.829777
0.829583
0.829352
0.8291
0.828766
0.828496
0.828268
0.828079
0.827924
0.827801
0.827704
0.827629
0.827571
0.827528
0.827496
0.827473
0.827456
0.827444
0.827436
0.82743
0.827426
0.827424
0.827422
0.827421
0.82742
0.82742
0.82742
0.82742
0.827419
0.827419
0.827419
0.82742
0.82742
0.82742
0.82742
0.82742
0.82742
0.82742
0.82742
0.82742
0.82742
0.82742
0.82742
0.82742
0.82742
0.82742
0.82742
0.82742
0.82742
0.82742
0.82742
0.82742
0.82742
0.82742
0.82742
0.82742
0.82742
0.82742
0.82742
0.82742
0.82742
0.82742
0.82742
0.827421
0.827421
0.827421
0.827421
0.827421
0.827421
0.827421
0.827421
0.827421
0.827421
0.827421
0.827421
0.827421
0.827421
0.827421
0.827421
0.827421
0.827421
0.827421
0.827421
0.827421
0.827421
0.827421
0.827421
0.827421
0.827421
0.827421
0.827421
0.827421
0.827421
0.827421
0.827421
0.827421
0.827421
0.827421
0.827421
0.827421
0.827421
0.827421
0.827421
0.827421
0.827421
0.827421
0.827421
0.827421
0.827421
0.827421
0.827421
0.827421
0.827421
0.827421
0.827421
0.827421
0.827421
0.827421
0.827421
0.827421
0.827421
0.827421
0.827421
0.827421
0.827421
0.827421
0.827421
0.827421
0.827421
0.827421
0.827421
0.827421
0.827421
0.827421
0.827421
0.827421
0.827421
0.827421
0.827421
0.827421
0.827421
0.827421
0.827421
0.827421
0.827421
0.827421
0.827421
0.827421
0.827421
0.827421
0.827421
0.827421
0.827421
0.827421
0.827421
0.827421
0.827421
0.827421
0.827421
0.827421
0.827421
0.827421
0.827421
0.827421
0.827421
0.827421
0.827421
0.827421
0.827421
0.827421
0.827421
0.827421
0.827421
0.827421
0.827421
0.827421
0.827421
0.827421
0.827421
0.827421
0.827421
0.827421
0.827421
0.827421
0.827421
0.827421
0.827421
0.827421
0.827421
0.827421
0.827421
0.827421
0.827421
0.827421
0.827421
0.827421
0.827421
0.827421
0.827421
0.827421
0.827421
0.827421
0.827421
0.827421
0.827421
0.827422
0.827422
0.827422
0.827422
0.827422
0.827423
0.827423
0.827424
0.827425
0.827426
0.827428
0.82743
0.827433
0.827437
0.827442
0.827448
0.827455
0.827464
0.827476
0.827489
0.827506
0.827526
0.827549
0.827576
0.827608
0.827645
0.827687
0.827734
0.827786
0.827844
0.827907
0.827975
0.828048
0.828124
0.828203
0.828284
0.828362
0.828435
0.828502
0.828564
0.82862
0.828669
0.828713
0.828751
0.828784
0.828812
0.828836
0.828855
0.828872
0.828885
0.828896
0.828905
0.828912
0.828918
0.828923
0.828926
0.828929
0.828931
0.828933
0.828934
0.828935
0.828935
0.828936
0.828936
0.828937
0.828937
0.828937
0.828937
0.828937
0.828937
0.828937
0.828937
0.828937
0.828937
0.828937
0.828937
0.828937
0.828937
0.828937
0.828937
0.828937
0.828937
0.828937
0.828937
0.828937
0.828937
0.828937
0.828937
0.828937
0.828937
0.828937
0.828937
0.828937
0.828937
0.828937
0.828937
0.828937
0.828937
0.828937
0.828937
0.828937
0.828937
0.828937
0.828937
0.828937
0.828937
0.828937
0.828937
0.828937
0.828937
0.828937
0.828937
0.828937
0.828937
0.828937
0.828937
0.828937
0.828937
0.828937
0.828937
0.828937
0.828937
0.828937
0.828937
0.828937
0.828937
0.828937
0.828937
0.828937
0.828937
0.828937
0.828937
0.828937
0.828937
0.828937
0.828937
0.828937
0.828937
0.828937
0.828937
0.828937
0.828937
0.828937
0.828937
0.828937
0.828937
0.828937
0.828937
0.828937
0.828937
0.828937
0.828937
0.828937
0.828937
0.828937
0.828937
0.828937
0.828937
0.828937
0.828937
0.828937
0.828937
0.828937
0.828937
0.828937
0.828937
0.828937
0.828937
0.828937
0.828937
0.828937
0.828937
0.828937
0.828937
0.828937
0.828937
0.828937
0.828937
0.828937
0.828937
0.828937
0.828937
0.828937
0.828937
0.828937
0.828937
0.828937
0.828937
0.828937
0.828937
0.828937
0.828937
0.828937
0.828937
0.828937
0.828937
0.828937
0.828937
)
;

boundaryField
{
    sides
    {
        type            calculated;
        value           uniform 0;
    }
    empty1
    {
        type            empty;
    }
    empty2
    {
        type            empty;
    }
}


// ************************************************************************* //
