/*--------------------------------*- C++ -*----------------------------------*\
| =========                 |                                                 |
| \\      /  F ield         | OpenFOAM: The Open Source CFD Toolbox           |
|  \\    /   O peration     | Version:  2312                                  |
|   \\  /    A nd           | Website:  www.openfoam.com                      |
|    \\/     M anipulation  |                                                 |
\*---------------------------------------------------------------------------*/
FoamFile
{
    version     2.0;
    format      ascii;
    arch        "LSB;label=32;scalar=64";
    class       volScalarField;
    location    "0.0002";
    object      p;
}
// * * * * * * * * * * * * * * * * * * * * * * * * * * * * * * * * * * * * * //

dimensions      [1 -1 -2 0 0 0 0];

internalField   nonuniform List<scalar> 
800
(
1e+07
1e+07
1e+07
1e+07
1e+07
1e+07
1e+07
1e+07
1e+07
1e+07
1e+07
1e+07
1e+07
1e+07
1e+07
1e+07
1e+07
1e+07
1e+07
1e+07
1e+07
1e+07
1e+07
1e+07
1e+07
1e+07
1e+07
1e+07
1e+07
1e+07
1e+07
1e+07
1e+07
1e+07
1e+07
1e+07
1e+07
1e+07
1e+07
1e+07
1e+07
1e+07
1e+07
1e+07
1e+07
1e+07
1e+07
1e+07
1e+07
1e+07
1e+07
1e+07
1e+07
1e+07
1e+07
1e+07
1e+07
1e+07
1e+07
1e+07
1e+07
1e+07
1e+07
1e+07
1e+07
1e+07
1e+07
1e+07
1e+07
1e+07
1e+07
1e+07
1e+07
1e+07
1e+07
1e+07
1e+07
1e+07
1e+07
1e+07
1e+07
1e+07
1e+07
1e+07
1e+07
1e+07
1e+07
1e+07
1e+07
1e+07
1e+07
1e+07
1e+07
1e+07
1e+07
1e+07
1e+07
1e+07
1e+07
1e+07
1e+07
1e+07
1e+07
1e+07
1e+07
1e+07
1e+07
1e+07
1e+07
1e+07
1e+07
1e+07
1e+07
1e+07
1e+07
1e+07
9.99999e+06
9.99999e+06
9.99999e+06
9.99998e+06
9.99997e+06
9.99995e+06
9.99993e+06
9.9999e+06
9.99986e+06
9.99979e+06
9.9997e+06
9.99957e+06
9.99939e+06
9.99914e+06
9.99879e+06
9.99832e+06
9.99766e+06
9.99677e+06
9.99557e+06
9.99396e+06
9.99181e+06
9.98897e+06
9.98523e+06
9.98035e+06
9.97403e+06
9.9659e+06
9.95552e+06
9.94238e+06
9.92585e+06
9.90524e+06
9.87975e+06
9.84848e+06
9.81044e+06
9.76457e+06
9.70974e+06
9.64479e+06
9.56857e+06
9.47996e+06
9.37793e+06
9.26162e+06
9.13037e+06
8.98379e+06
8.82184e+06
8.64488e+06
8.45371e+06
8.24959e+06
8.03431e+06
7.81198e+06
7.59297e+06
7.38127e+06
7.1784e+06
6.98618e+06
6.80601e+06
6.63894e+06
6.48561e+06
6.34633e+06
6.22108e+06
6.10956e+06
6.01121e+06
5.92532e+06
5.85101e+06
5.78733e+06
5.73326e+06
5.68777e+06
5.64984e+06
5.61851e+06
5.59284e+06
5.57201e+06
5.55523e+06
5.54185e+06
5.53126e+06
5.52294e+06
5.51647e+06
5.51148e+06
5.50765e+06
5.50474e+06
5.50254e+06
5.50089e+06
5.49965e+06
5.49874e+06
5.49807e+06
5.49757e+06
5.49721e+06
5.49694e+06
5.49675e+06
5.4966e+06
5.49649e+06
5.4964e+06
5.49634e+06
5.49629e+06
5.49625e+06
5.49621e+06
5.49618e+06
5.49615e+06
5.49613e+06
5.49611e+06
5.49608e+06
5.49607e+06
5.49605e+06
5.49603e+06
5.49601e+06
5.496e+06
5.49598e+06
5.49597e+06
5.49595e+06
5.49594e+06
5.49593e+06
5.49591e+06
5.4959e+06
5.49589e+06
5.49588e+06
5.49587e+06
5.49585e+06
5.49584e+06
5.49583e+06
5.49582e+06
5.49581e+06
5.49581e+06
5.4958e+06
5.49579e+06
5.49578e+06
5.49577e+06
5.49576e+06
5.49575e+06
5.49574e+06
5.49574e+06
5.49573e+06
5.49572e+06
5.49571e+06
5.49571e+06
5.4957e+06
5.49569e+06
5.49569e+06
5.49568e+06
5.49567e+06
5.49567e+06
5.49566e+06
5.49565e+06
5.49565e+06
5.49564e+06
5.49564e+06
5.49563e+06
5.49563e+06
5.49562e+06
5.49561e+06
5.49561e+06
5.4956e+06
5.4956e+06
5.49559e+06
5.49559e+06
5.49559e+06
5.49558e+06
5.49558e+06
5.49557e+06
5.49557e+06
5.49556e+06
5.49556e+06
5.49555e+06
5.49555e+06
5.49555e+06
5.49554e+06
5.49554e+06
5.49553e+06
5.49553e+06
5.49552e+06
5.49552e+06
5.49552e+06
5.49551e+06
5.49551e+06
5.49551e+06
5.4955e+06
5.4955e+06
5.4955e+06
5.49549e+06
5.49549e+06
5.49549e+06
5.49548e+06
5.49548e+06
5.49548e+06
5.49547e+06
5.49547e+06
5.49547e+06
5.49546e+06
5.49546e+06
5.49546e+06
5.49545e+06
5.49545e+06
5.49545e+06
5.49544e+06
5.49544e+06
5.49544e+06
5.49544e+06
5.49543e+06
5.49543e+06
5.49543e+06
5.49542e+06
5.49542e+06
5.49542e+06
5.49542e+06
5.49541e+06
5.49541e+06
5.49541e+06
5.49541e+06
5.4954e+06
5.4954e+06
5.4954e+06
5.4954e+06
5.49539e+06
5.49539e+06
5.49539e+06
5.49539e+06
5.49538e+06
5.49538e+06
5.49538e+06
5.49538e+06
5.49537e+06
5.49537e+06
5.49537e+06
5.49537e+06
5.49536e+06
5.49536e+06
5.49536e+06
5.49536e+06
5.49535e+06
5.49535e+06
5.49535e+06
5.49535e+06
5.49535e+06
5.49534e+06
5.49534e+06
5.49534e+06
5.49534e+06
5.49533e+06
5.49533e+06
5.49533e+06
5.49533e+06
5.49533e+06
5.49532e+06
5.49532e+06
5.49532e+06
5.49532e+06
5.49532e+06
5.49531e+06
5.49531e+06
5.49531e+06
5.49531e+06
5.49531e+06
5.4953e+06
5.4953e+06
5.4953e+06
5.4953e+06
5.4953e+06
5.49529e+06
5.49529e+06
5.49529e+06
5.49529e+06
5.49529e+06
5.49528e+06
5.49528e+06
5.49528e+06
5.49528e+06
5.49528e+06
5.49527e+06
5.49527e+06
5.49527e+06
5.49527e+06
5.49527e+06
5.49526e+06
5.49526e+06
5.49526e+06
5.49526e+06
5.49526e+06
5.49525e+06
5.49525e+06
5.49525e+06
5.49525e+06
5.49525e+06
5.49524e+06
5.49524e+06
5.49524e+06
5.49524e+06
5.49524e+06
5.49523e+06
5.49523e+06
5.49523e+06
5.49523e+06
5.49523e+06
5.49522e+06
5.49522e+06
5.49522e+06
5.49522e+06
5.49522e+06
5.49521e+06
5.49521e+06
5.49521e+06
5.49521e+06
5.49521e+06
5.4952e+06
5.4952e+06
5.4952e+06
5.4952e+06
5.4952e+06
5.49519e+06
5.49519e+06
5.49519e+06
5.49519e+06
5.49519e+06
5.49518e+06
5.49518e+06
5.49518e+06
5.49518e+06
5.49518e+06
5.49517e+06
5.49517e+06
5.49517e+06
5.49517e+06
5.49517e+06
5.49516e+06
5.49516e+06
5.49516e+06
5.49516e+06
5.49516e+06
5.49515e+06
5.49515e+06
5.49515e+06
5.49515e+06
5.49514e+06
5.49514e+06
5.49514e+06
5.49514e+06
5.49514e+06
5.49513e+06
5.49513e+06
5.49513e+06
5.49513e+06
5.49512e+06
5.49512e+06
5.49512e+06
5.49512e+06
5.49512e+06
5.49511e+06
5.49511e+06
5.49511e+06
5.49511e+06
5.4951e+06
5.4951e+06
5.4951e+06
5.4951e+06
5.49509e+06
5.49509e+06
5.49509e+06
5.49509e+06
5.49508e+06
5.49508e+06
5.49508e+06
5.49508e+06
5.49507e+06
5.49507e+06
5.49507e+06
5.49507e+06
5.49506e+06
5.49506e+06
5.49506e+06
5.49505e+06
5.49505e+06
5.49505e+06
5.49505e+06
5.49504e+06
5.49504e+06
5.49504e+06
5.49504e+06
5.49503e+06
5.49503e+06
5.49503e+06
5.49502e+06
5.49502e+06
5.49502e+06
5.49501e+06
5.49501e+06
5.49501e+06
5.495e+06
5.495e+06
5.495e+06
5.49499e+06
5.49499e+06
5.49499e+06
5.49498e+06
5.49498e+06
5.49498e+06
5.49497e+06
5.49497e+06
5.49497e+06
5.49496e+06
5.49496e+06
5.49496e+06
5.49495e+06
5.49495e+06
5.49494e+06
5.49494e+06
5.49494e+06
5.49493e+06
5.49493e+06
5.49492e+06
5.49492e+06
5.49492e+06
5.49491e+06
5.49491e+06
5.4949e+06
5.4949e+06
5.49489e+06
5.49489e+06
5.49488e+06
5.49488e+06
5.49487e+06
5.49487e+06
5.49486e+06
5.49486e+06
5.49485e+06
5.49485e+06
5.49484e+06
5.49484e+06
5.49483e+06
5.49483e+06
5.49482e+06
5.49482e+06
5.49481e+06
5.4948e+06
5.4948e+06
5.49479e+06
5.49478e+06
5.49478e+06
5.49477e+06
5.49476e+06
5.49476e+06
5.49475e+06
5.49474e+06
5.49474e+06
5.49473e+06
5.49472e+06
5.49471e+06
5.4947e+06
5.4947e+06
5.49469e+06
5.49468e+06
5.49467e+06
5.49466e+06
5.49465e+06
5.49464e+06
5.49463e+06
5.49462e+06
5.49462e+06
5.49461e+06
5.49459e+06
5.49458e+06
5.49457e+06
5.49456e+06
5.49455e+06
5.49454e+06
5.49452e+06
5.49451e+06
5.4945e+06
5.49448e+06
5.49447e+06
5.49445e+06
5.49444e+06
5.49442e+06
5.49441e+06
5.49439e+06
5.49437e+06
5.49436e+06
5.49434e+06
5.49432e+06
5.49429e+06
5.49427e+06
5.49425e+06
5.49422e+06
5.4942e+06
5.49417e+06
5.49413e+06
5.49409e+06
5.49404e+06
5.49398e+06
5.4939e+06
5.4938e+06
5.49367e+06
5.4935e+06
5.49326e+06
5.49295e+06
5.49251e+06
5.49192e+06
5.49112e+06
5.49003e+06
5.48857e+06
5.48662e+06
5.48402e+06
5.48057e+06
5.47604e+06
5.47013e+06
5.46248e+06
5.45266e+06
5.44015e+06
5.42435e+06
5.40454e+06
5.37992e+06
5.34958e+06
5.31251e+06
5.26762e+06
5.21375e+06
5.1497e+06
5.07424e+06
4.98617e+06
4.88439e+06
4.76793e+06
4.63603e+06
4.4882e+06
4.32431e+06
4.14464e+06
3.94994e+06
3.74149e+06
3.52109e+06
3.29089e+06
3.05295e+06
2.81776e+06
2.59497e+06
2.38719e+06
2.19603e+06
2.02244e+06
1.86673e+06
1.7287e+06
1.60771e+06
1.5028e+06
1.41276e+06
1.33626e+06
1.27188e+06
1.2182e+06
1.17385e+06
1.13752e+06
1.10802e+06
1.08426e+06
1.06528e+06
1.05023e+06
1.0384e+06
1.02916e+06
1.022e+06
1.01649e+06
1.01229e+06
1.0091e+06
1.00669e+06
1.00489e+06
1.00356e+06
1.00257e+06
1.00185e+06
1.00132e+06
1.00094e+06
1.00066e+06
1.00046e+06
1.00032e+06
1.00023e+06
1.00016e+06
1.00011e+06
1.00007e+06
1.00005e+06
1.00003e+06
1.00002e+06
1.00002e+06
1.00001e+06
1.00001e+06
1e+06
1e+06
1e+06
1e+06
1e+06
1e+06
1e+06
1e+06
1e+06
1e+06
1e+06
1e+06
1e+06
1e+06
1e+06
1e+06
1e+06
1e+06
1e+06
1e+06
1e+06
1e+06
1e+06
1e+06
1e+06
1e+06
1e+06
1e+06
1e+06
1e+06
1e+06
1e+06
1e+06
1e+06
1e+06
1e+06
1e+06
1e+06
1e+06
1e+06
1e+06
1e+06
1e+06
1e+06
1e+06
1e+06
1e+06
1e+06
1e+06
1e+06
1e+06
1e+06
1e+06
1e+06
1e+06
1e+06
1e+06
1e+06
1e+06
1e+06
1e+06
1e+06
1e+06
1e+06
1e+06
1e+06
1e+06
1e+06
1e+06
1e+06
1e+06
1e+06
1e+06
1e+06
1e+06
1e+06
1e+06
1e+06
1e+06
1e+06
1e+06
1e+06
1e+06
1e+06
1e+06
1e+06
1e+06
1e+06
1e+06
1e+06
1e+06
1e+06
1e+06
1e+06
1e+06
1e+06
1e+06
1e+06
1e+06
1e+06
1e+06
1e+06
1e+06
1e+06
1e+06
1e+06
1e+06
1e+06
1e+06
1e+06
1e+06
1e+06
1e+06
1e+06
1e+06
1e+06
1e+06
)
;

boundaryField
{
    sides
    {
        type            zeroGradient;
    }
    empty1
    {
        type            empty;
    }
    empty2
    {
        type            empty;
    }
}


// ************************************************************************* //
