/*--------------------------------*- C++ -*----------------------------------*\
| =========                 |                                                 |
| \\      /  F ield         | OpenFOAM: The Open Source CFD Toolbox           |
|  \\    /   O peration     | Version:  2312                                  |
|   \\  /    A nd           | Website:  www.openfoam.com                      |
|    \\/     M anipulation  |                                                 |
\*---------------------------------------------------------------------------*/
FoamFile
{
    version     2.0;
    format      ascii;
    arch        "LSB;label=32;scalar=64";
    class       surfaceScalarField;
    location    "0.0002";
    object      phi;
}
// * * * * * * * * * * * * * * * * * * * * * * * * * * * * * * * * * * * * * //

dimensions      [1 0 -1 0 0 0 0];

oriented        oriented;

internalField   nonuniform List<scalar> 
799
(
-1.7053e-13
-8.81073e-13
-1.02318e-12
-1.3074e-12
-4.83169e-13
0
1.0516e-12
7.38964e-13
-8.81073e-13
-1.93268e-12
-1.79057e-12
-2.6148e-12
-3.49587e-12
-5.05906e-12
-6.9349e-12
-7.92966e-12
-7.95808e-12
-7.81597e-12
-7.78755e-12
-7.67386e-12
-7.27596e-12
-8.98126e-12
-1.02034e-11
-9.6918e-12
-8.61178e-12
-6.84963e-12
-6.16751e-12
-4.9738e-12
-4.03588e-12
-2.75691e-12
-2.70006e-12
-2.16005e-12
-1.56319e-12
2.27374e-13
1.13687e-13
-6.82121e-13
2.27374e-13
1.33582e-12
2.10321e-12
2.30216e-12
1.87583e-12
2.13163e-12
1.59162e-12
8.52651e-14
-1.47793e-12
-2.6148e-12
-3.24007e-12
-3.09797e-12
-2.359e-12
-1.7053e-13
1.16529e-12
7.10543e-13
0
3.12639e-13
1.3074e-12
2.16005e-12
3.09797e-12
3.21165e-12
2.55795e-12
2.64322e-12
3.49587e-12
3.80851e-12
4.03588e-12
3.18323e-12
3.24007e-12
4.26326e-12
5.40012e-12
4.80327e-12
4.43379e-12
3.60956e-12
2.52953e-12
2.21689e-12
4.77485e-12
4.88853e-12
5.59908e-12
4.94538e-12
5.71276e-12
5.85487e-12
5.6275e-12
6.87805e-12
7.5886e-12
8.3844e-12
8.44125e-12
8.86757e-12
1.07434e-11
1.21076e-11
1.34719e-11
1.4154e-11
1.50351e-11
1.65983e-11
1.89004e-11
2.53806e-11
3.71188e-11
5.7355e-11
8.85336e-11
1.40147e-10
2.27203e-10
3.74371e-10
6.13255e-10
1.00269e-09
1.64005e-09
2.67599e-09
4.33405e-09
6.98535e-09
1.11712e-08
1.77562e-08
2.81026e-08
4.42373e-08
6.93376e-08
1.08168e-07
1.6798e-07
2.5965e-07
3.99429e-07
6.11489e-07
9.31626e-07
1.41247e-06
2.13099e-06
3.19909e-06
4.77851e-06
7.10157e-06
1.05e-05
1.54446e-05
2.25991e-05
3.28931e-05
4.76206e-05
6.85701e-05
9.81971e-05
0.000139849
0.000198055
0.000278904
0.000390511
0.000543615
0.000752313
0.00103496
0.00141525
0.00192352
0.00259823
0.00348772
0.00465214
0.00616562
0.00811847
0.0106196
0.0137989
0.017809
0.0228273
0.0290573
0.0367281
0.0460944
0.0574335
0.0710414
0.0872271
0.106304
0.128579
0.154343
0.18385
0.217308
0.254858
0.296558
0.342367
0.39213
0.445568
0.50227
0.561714
0.621991
0.680446
0.736747
0.790367
0.84087
0.887925
0.931309
0.970893
1.00665
1.03862
1.06693
1.09175
1.1133
1.13185
1.14765
1.16099
1.17216
1.18142
1.18902
1.19522
1.20022
1.20423
1.20741
1.20991
1.21186
1.21338
1.21454
1.21543
1.2161
1.2166
1.21698
1.21726
1.21746
1.21762
1.21773
1.21781
1.21787
1.21791
1.21795
1.21797
1.21799
1.21801
1.21802
1.21803
1.21804
1.21805
1.21805
1.21806
1.21806
1.21807
1.21807
1.21808
1.21808
1.21809
1.21809
1.21809
1.2181
1.2181
1.21811
1.21811
1.21811
1.21812
1.21812
1.21812
1.21812
1.21813
1.21813
1.21813
1.21813
1.21814
1.21814
1.21814
1.21814
1.21815
1.21815
1.21815
1.21815
1.21815
1.21816
1.21816
1.21816
1.21816
1.21816
1.21816
1.21817
1.21817
1.21817
1.21817
1.21817
1.21817
1.21817
1.21818
1.21818
1.21818
1.21818
1.21818
1.21818
1.21818
1.21818
1.21819
1.21819
1.21819
1.21819
1.21819
1.21819
1.21819
1.21819
1.21819
1.21819
1.2182
1.2182
1.2182
1.2182
1.2182
1.2182
1.2182
1.2182
1.2182
1.2182
1.2182
1.2182
1.21821
1.21821
1.21821
1.21821
1.21821
1.21821
1.21821
1.21821
1.21821
1.21821
1.21821
1.21821
1.21821
1.21821
1.21821
1.21821
1.21822
1.21822
1.21822
1.21822
1.21822
1.21822
1.21822
1.21822
1.21822
1.21822
1.21822
1.21822
1.21822
1.21822
1.21822
1.21822
1.21822
1.21822
1.21822
1.21822
1.21822
1.21822
1.21822
1.21822
1.21823
1.21823
1.21823
1.21823
1.21823
1.21823
1.21823
1.21823
1.21823
1.21823
1.21823
1.21823
1.21823
1.21823
1.21823
1.21823
1.21823
1.21823
1.21823
1.21823
1.21823
1.21823
1.21823
1.21823
1.21823
1.21823
1.21823
1.21823
1.21823
1.21823
1.21823
1.21823
1.21823
1.21823
1.21823
1.21823
1.21823
1.21823
1.21823
1.21823
1.21823
1.21823
1.21823
1.21823
1.21823
1.21823
1.21823
1.21823
1.21823
1.21823
1.21823
1.21823
1.21823
1.21823
1.21823
1.21823
1.21823
1.21823
1.21824
1.21824
1.21824
1.21824
1.21824
1.21824
1.21824
1.21824
1.21824
1.21824
1.21825
1.21825
1.21825
1.21825
1.21825
1.21826
1.21826
1.21826
1.21825
1.21825
1.21825
1.21824
1.21824
1.21823
1.21823
1.21823
1.21822
1.21822
1.21822
1.21822
1.21821
1.21821
1.21821
1.21821
1.21821
1.21821
1.21821
1.21821
1.21821
1.21821
1.21821
1.21821
1.21821
1.21821
1.21821
1.21821
1.21821
1.21821
1.21821
1.21821
1.21821
1.21821
1.21821
1.21821
1.21821
1.21821
1.21821
1.21821
1.21821
1.21821
1.21821
1.21821
1.21821
1.21821
1.21821
1.21821
1.2182
1.2182
1.2182
1.2182
1.2182
1.2182
1.2182
1.2182
1.2182
1.2182
1.2182
1.2182
1.2182
1.2182
1.2182
1.2182
1.2182
1.2182
1.2182
1.2182
1.2182
1.2182
1.2182
1.2182
1.2182
1.2182
1.2182
1.2182
1.2182
1.21819
1.21819
1.21819
1.21819
1.21819
1.21819
1.21819
1.21819
1.21819
1.21819
1.21819
1.21819
1.21819
1.21819
1.21819
1.21819
1.21819
1.21819
1.21819
1.21818
1.21818
1.21818
1.21818
1.21818
1.21818
1.21818
1.21818
1.21818
1.21818
1.21818
1.21818
1.21818
1.21818
1.21817
1.21817
1.21817
1.21817
1.21817
1.21817
1.21817
1.21817
1.21817
1.21817
1.21817
1.21816
1.21816
1.21816
1.21816
1.21816
1.21816
1.21816
1.21816
1.21816
1.21816
1.21815
1.21815
1.21815
1.21815
1.21815
1.21815
1.21815
1.21815
1.21814
1.21814
1.21814
1.21814
1.21814
1.21814
1.21814
1.21813
1.21813
1.21813
1.21813
1.21813
1.21813
1.21812
1.21812
1.21812
1.21812
1.21812
1.21811
1.21811
1.21811
1.21811
1.21811
1.2181
1.2181
1.2181
1.2181
1.21809
1.21809
1.21809
1.21808
1.21808
1.21808
1.21808
1.21807
1.21807
1.21807
1.21806
1.21806
1.21806
1.21805
1.21805
1.21804
1.21804
1.21803
1.21803
1.21802
1.21802
1.21801
1.21801
1.218
1.218
1.21799
1.21798
1.21797
1.21796
1.21795
1.21794
1.21792
1.2179
1.21787
1.21783
1.21777
1.2177
1.2176
1.21747
1.21729
1.21704
1.21671
1.21626
1.21567
1.21487
1.21382
1.21245
1.21066
1.20835
1.20539
1.20164
1.1969
1.19099
1.18366
1.17466
1.1637
1.15048
1.13466
1.11592
1.09393
1.06836
1.03892
1.00538
0.967549
0.925343
0.878767
0.827955
0.773173
0.714833
0.65351
0.589607
0.524766
0.462681
0.404325
0.350252
0.30081
0.25617
0.216348
0.181231
0.150602
0.124168
0.101585
0.0824802
0.0664701
0.0531757
0.042234
0.0333061
0.0260822
0.0202847
0.015669
0.0120228
0.00916426
0.00694001
0.00522191
0.00390429
0.00290091
0.0021421
0.00157214
0.00114689
0.000831694
0.000599579
0.000429735
0.000306236
0.000216991
0.000152892
0.00010713
7.46535e-05
5.17401e-05
3.5667e-05
2.44565e-05
1.66815e-05
1.13191e-05
7.64094e-06
5.13174e-06
3.42914e-06
2.28e-06
1.50845e-06
9.9309e-07
6.50635e-07
4.24243e-07
2.75299e-07
1.77795e-07
1.14258e-07
7.30635e-08
4.64952e-08
2.94418e-08
1.85582e-08
1.16228e-08
7.24413e-09
4.48171e-09
2.76455e-09
1.70644e-09
1.04313e-09
6.29996e-10
3.64167e-10
1.99464e-10
9.61791e-11
3.28839e-11
-8.52651e-14
-6.76437e-12
-7.67386e-12
-8.41283e-12
-1.50635e-11
-2.09752e-11
-2.41016e-11
-1.56888e-11
4.00746e-12
1.73657e-11
2.08047e-11
3.03544e-11
2.45279e-11
2.19984e-11
3.82556e-11
5.24949e-11
5.46549e-11
6.19877e-11
5.82361e-11
5.45697e-11
5.08464e-11
5.88329e-11
5.1017e-11
4.87148e-11
5.04201e-11
5.48255e-11
3.76019e-11
1.42961e-11
8.83915e-12
1.40119e-11
2.01226e-11
1.98384e-11
2.89049e-11
2.55227e-11
2.09468e-11
1.6513e-11
1.33298e-11
8.04334e-12
-3.89377e-12
-2.64322e-12
9.57812e-12
2.00657e-11
3.3765e-11
3.66072e-11
2.89333e-11
3.22302e-11
3.92788e-11
3.68345e-11
2.87343e-11
1.79057e-11
1.90994e-11
3.15481e-11
2.305e-11
1.3074e-11
6.9349e-12
-1.00897e-11
-1.85025e-11
-5.40012e-12
5.96856e-13
-8.75389e-12
-1.94973e-11
-2.93596e-11
-2.54374e-11
-1.52909e-11
-6.45173e-12
3.12639e-12
1.94404e-11
2.14868e-11
1.95541e-11
2.78533e-11
3.44471e-11
3.54703e-11
3.41345e-11
3.49019e-11
3.54134e-11
3.51861e-11
2.5409e-11
1.9412e-11
1.81899e-11
2.13731e-11
1.08855e-11
-8.52651e-14
2.01794e-12
4.37694e-12
3.0127e-12
5.71276e-12
9.9476e-12
9.20863e-12
-3.43903e-12
-1.86162e-11
-2.03784e-11
-2.467e-11
-1.83604e-11
-8.86757e-12
-8.58336e-12
)
;

boundaryField
{
    sides
    {
        type            calculated;
        value           uniform 0;
    }
    empty1
    {
        type            empty;
        value           nonuniform List<scalar> 0();
    }
    empty2
    {
        type            empty;
        value           nonuniform List<scalar> 0();
    }
}


// ************************************************************************* //
