/*--------------------------------*- C++ -*----------------------------------*\
| =========                 |                                                 |
| \\      /  F ield         | OpenFOAM: The Open Source CFD Toolbox           |
|  \\    /   O peration     | Version:  2312                                  |
|   \\  /    A nd           | Website:  www.openfoam.com                      |
|    \\/     M anipulation  |                                                 |
\*---------------------------------------------------------------------------*/
FoamFile
{
    version     2.0;
    format      ascii;
    arch        "LSB;label=32;scalar=64";
    class       volScalarField;
    location    "0.0002";
    object      T;
}
// * * * * * * * * * * * * * * * * * * * * * * * * * * * * * * * * * * * * * //

dimensions      [0 0 0 1 0 0 0];

internalField   nonuniform List<scalar> 
800
(
293
293
293
293
293
293
293
293
293
293
293
293
293
293
293
293
293
293
293
293
293
293
293
293
293
293
293
293
293
293
293
293
293
293
293
293
293
293
293
293
293
293
293
293
293
293
293
293
293
293
293
293
293
293
293
293
293
293
293
293
293
293
293
293
293
293
293
293
293
293
293
293
293
293
293
293
293
293
293
293
293
293
293
293
293
293
293
293
293
293
293
293
293
293
293
293
293
293
293
293
293
293
293
293
293
293
293
293
293
293
293
293
293
293
293
293
293
293
293
293
293
293
293
293
293
293
293
293
293
293
293
293
292.999
292.999
292.999
292.999
292.998
292.997
292.996
292.995
292.994
292.992
292.989
292.986
292.982
292.977
292.971
292.964
292.954
292.944
292.93
292.915
292.897
292.875
292.851
292.823
292.792
292.757
292.718
292.676
292.631
292.582
292.531
292.478
292.426
292.375
292.327
292.281
292.238
292.198
292.161
292.128
292.098
292.071
292.048
292.027
292.01
291.994
291.982
291.971
291.962
291.954
291.948
291.943
291.939
291.936
291.934
291.932
291.93
291.929
291.928
291.927
291.927
291.926
291.926
291.926
291.926
291.926
291.926
291.925
291.925
291.925
291.925
291.925
291.925
291.925
291.925
291.925
291.925
291.925
291.925
291.925
291.925
291.925
291.925
291.925
291.925
291.925
291.925
291.925
291.925
291.925
291.925
291.925
291.925
291.925
291.925
291.925
291.925
291.925
291.925
291.925
291.925
291.925
291.925
291.925
291.925
291.925
291.925
291.925
291.925
291.925
291.925
291.925
291.925
291.925
291.925
291.925
291.925
291.925
291.925
291.925
291.925
291.925
291.925
291.925
291.925
291.925
291.925
291.925
291.925
291.925
291.925
291.925
291.925
291.925
291.925
291.925
291.925
291.925
291.925
291.925
291.925
291.925
291.925
291.925
291.925
291.925
291.925
291.925
291.925
291.925
291.925
291.925
291.925
291.925
291.925
291.925
291.925
291.925
291.925
291.925
291.925
291.925
291.925
291.925
291.925
291.925
291.925
291.925
291.925
291.925
291.925
291.925
291.925
291.925
291.925
291.925
291.925
291.925
291.925
291.925
291.925
291.925
291.925
291.925
291.925
291.925
291.925
291.925
291.925
291.925
291.925
291.925
291.925
291.925
291.925
291.925
291.925
291.925
291.925
291.925
291.925
291.925
291.925
291.925
291.925
291.925
291.925
291.925
291.925
291.925
291.925
291.925
291.925
291.925
291.925
291.925
291.925
291.925
291.925
291.925
291.925
291.925
291.925
291.925
291.925
291.925
291.925
291.925
291.925
291.925
291.925
291.925
291.925
291.925
291.925
291.925
291.924
291.924
291.924
291.924
291.924
291.924
291.924
291.924
291.924
291.924
291.925
291.925
291.925
291.926
291.927
291.928
291.931
291.934
291.94
291.947
291.957
291.972
291.992
292.02
292.056
292.104
292.167
292.246
292.346
292.469
292.619
292.796
293.003
293.209
293.386
293.535
293.658
293.757
293.836
293.898
293.946
293.982
294.009
294.029
294.043
294.054
294.061
294.066
294.07
294.072
294.074
294.075
294.075
294.076
294.076
294.076
294.076
294.076
294.076
294.076
294.076
294.076
294.076
294.076
294.076
294.076
294.076
294.076
294.076
294.076
294.076
294.076
294.076
294.076
294.076
294.075
294.075
294.075
294.075
294.075
294.075
294.075
294.075
294.075
294.075
294.075
294.075
294.075
294.075
294.075
294.075
294.075
294.075
294.075
294.075
294.075
294.075
294.075
294.075
294.075
294.075
294.075
294.075
294.075
294.075
294.075
294.075
294.075
294.075
294.075
294.075
294.075
294.075
294.075
294.075
294.075
294.075
294.075
294.075
294.075
294.075
294.075
294.075
294.075
294.075
294.075
294.075
294.075
294.075
294.075
294.075
294.075
294.075
294.075
294.075
294.075
294.075
294.075
294.075
294.075
294.075
294.075
294.075
294.075
294.075
294.075
294.075
294.075
294.075
294.075
294.075
294.075
294.075
294.075
294.075
294.075
294.075
294.075
294.075
294.075
294.075
294.075
294.075
294.075
294.075
294.075
294.075
294.075
294.075
294.075
294.075
294.075
294.075
294.075
294.075
294.075
294.075
294.075
294.075
294.075
294.075
294.075
294.075
294.075
294.075
294.075
294.075
294.075
294.075
294.075
294.075
294.075
294.075
294.075
294.075
294.075
294.075
294.075
294.075
294.075
294.075
294.075
294.075
294.075
294.075
294.075
294.075
294.075
294.075
294.075
294.075
294.075
294.075
294.075
294.075
294.075
294.075
294.075
294.075
294.075
294.075
294.075
294.075
294.075
294.075
294.075
294.075
294.075
294.075
294.075
294.075
294.075
294.075
294.075
294.075
294.074
294.074
294.074
294.074
294.074
294.073
294.073
294.072
294.072
294.07
294.069
294.067
294.065
294.062
294.058
294.054
294.048
294.04
294.032
294.021
294.008
293.993
293.975
293.954
293.93
293.902
293.87
293.835
293.796
293.753
293.706
293.656
293.604
293.548
293.492
293.436
293.382
293.333
293.287
293.245
293.208
293.175
293.146
293.121
293.099
293.081
293.066
293.053
293.042
293.033
293.026
293.02
293.016
293.012
293.009
293.007
293.005
293.004
293.003
293.002
293.002
293.001
293.001
293.001
293
293
293
293
293
293
293
293
293
293
293
293
293
293
293
293
293
293
293
293
293
293
293
293
293
293
293
293
293
293
293
293
293
293
293
293
293
293
293
293
293
293
293
293
293
293
293
293
293
293
293
293
293
293
293
293
293
293
293
293
293
293
293
293
293
293
293
293
293
293
293
293
293
293
293
293
293
293
293
293
293
293
293
293
293
293
293
293
293
293
293
293
293
293
293
293
293
293
293
293
293
293
293
293
293
293
293
293
293
293
293
293
293
293
293
293
293
293
293
293
293
293
293
293
293
293
293
293
293
293
293
293
293
)
;

boundaryField
{
    sides
    {
        type            zeroGradient;
    }
    empty1
    {
        type            empty;
    }
    empty2
    {
        type            empty;
    }
}


// ************************************************************************* //
