/*--------------------------------*- C++ -*----------------------------------*\
| =========                 |                                                 |
| \\      /  F ield         | OpenFOAM: The Open Source CFD Toolbox           |
|  \\    /   O peration     | Version:  2312                                  |
|   \\  /    A nd           | Website:  www.openfoam.com                      |
|    \\/     M anipulation  |                                                 |
\*---------------------------------------------------------------------------*/
FoamFile
{
    version     2.0;
    format      ascii;
    arch        "LSB;label=32;scalar=64";
    class       volScalarField;
    location    "0.0002";
    object      thermo:psiGasEff;
}
// * * * * * * * * * * * * * * * * * * * * * * * * * * * * * * * * * * * * * //

dimensions      [-2 4 2 0 0 0 0];

internalField   nonuniform List<scalar> 
800
(
8.4091e-10
8.4091e-10
8.4091e-10
8.4091e-10
8.4091e-10
8.4091e-10
8.4091e-10
8.4091e-10
8.4091e-10
8.4091e-10
8.4091e-10
8.4091e-10
8.4091e-10
8.4091e-10
8.4091e-10
8.4091e-10
8.4091e-10
8.4091e-10
8.4091e-10
8.4091e-10
8.4091e-10
8.4091e-10
8.4091e-10
8.4091e-10
8.4091e-10
8.4091e-10
8.4091e-10
8.4091e-10
8.4091e-10
8.4091e-10
8.4091e-10
8.4091e-10
8.4091e-10
8.4091e-10
8.4091e-10
8.4091e-10
8.4091e-10
8.4091e-10
8.4091e-10
8.4091e-10
8.4091e-10
8.4091e-10
8.4091e-10
8.4091e-10
8.4091e-10
8.4091e-10
8.4091e-10
8.4091e-10
8.4091e-10
8.4091e-10
8.4091e-10
8.4091e-10
8.4091e-10
8.4091e-10
8.4091e-10
8.4091e-10
8.4091e-10
8.4091e-10
8.4091e-10
8.4091e-10
8.4091e-10
8.4091e-10
8.4091e-10
8.4091e-10
8.4091e-10
8.4091e-10
8.4091e-10
8.4091e-10
8.4091e-10
8.4091e-10
8.4091e-10
8.4091e-10
8.4091e-10
8.4091e-10
8.4091e-10
8.4091e-10
8.4091e-10
8.4091e-10
8.4091e-10
8.4091e-10
8.4091e-10
8.4091e-10
8.4091e-10
8.4091e-10
8.4091e-10
8.4091e-10
8.4091e-10
8.4091e-10
8.4091e-10
8.4091e-10
8.4091e-10
8.4091e-10
8.4091e-10
8.4091e-10
8.4091e-10
8.4091e-10
8.4091e-10
8.4091e-10
8.4091e-10
8.4091e-10
8.4091e-10
8.4091e-10
8.4091e-10
8.4091e-10
8.4091e-10
8.4091e-10
8.4091e-10
8.4091e-10
8.4091e-10
8.4091e-10
8.4091e-10
8.4091e-10
8.4091e-10
8.4091e-10
8.4091e-10
8.40911e-10
8.40911e-10
8.40912e-10
8.40912e-10
8.40914e-10
8.40915e-10
8.40918e-10
8.40921e-10
8.40927e-10
8.40934e-10
8.40945e-10
8.4096e-10
8.40982e-10
8.41012e-10
8.41054e-10
8.41112e-10
8.41192e-10
8.41302e-10
8.41451e-10
8.41652e-10
8.41923e-10
8.42283e-10
8.42761e-10
8.43389e-10
8.4421e-10
8.45276e-10
8.4665e-10
8.48409e-10
8.50645e-10
8.53468e-10
8.57009e-10
8.61419e-10
8.66876e-10
8.73584e-10
8.81778e-10
8.91724e-10
9.03726e-10
9.18124e-10
9.35301e-10
9.55683e-10
9.79745e-10
1.00801e-09
1.04105e-09
1.07948e-09
1.12396e-09
1.17519e-09
1.23386e-09
1.30062e-09
1.37549e-09
1.4557e-09
1.54014e-09
1.62815e-09
1.71871e-09
1.81064e-09
1.90266e-09
1.99344e-09
2.08166e-09
2.1661e-09
2.24571e-09
2.3196e-09
2.38717e-09
2.44804e-09
2.50208e-09
2.54938e-09
2.59023e-09
2.62504e-09
2.65434e-09
2.67869e-09
2.69872e-09
2.715e-09
2.7281e-09
2.73854e-09
2.74677e-09
2.7532e-09
2.75818e-09
2.76201e-09
2.76493e-09
2.76713e-09
2.76879e-09
2.77003e-09
2.77095e-09
2.77162e-09
2.77212e-09
2.77249e-09
2.77275e-09
2.77295e-09
2.7731e-09
2.77321e-09
2.7733e-09
2.77336e-09
2.77341e-09
2.77346e-09
2.77349e-09
2.77352e-09
2.77355e-09
2.77357e-09
2.7736e-09
2.77362e-09
2.77364e-09
2.77366e-09
2.77367e-09
2.77369e-09
2.77371e-09
2.77372e-09
2.77374e-09
2.77375e-09
2.77377e-09
2.77378e-09
2.77379e-09
2.7738e-09
2.77381e-09
2.77383e-09
2.77384e-09
2.77385e-09
2.77386e-09
2.77387e-09
2.77388e-09
2.77389e-09
2.7739e-09
2.77391e-09
2.77392e-09
2.77393e-09
2.77394e-09
2.77395e-09
2.77395e-09
2.77396e-09
2.77397e-09
2.77398e-09
2.77398e-09
2.77399e-09
2.774e-09
2.77401e-09
2.77401e-09
2.77402e-09
2.77403e-09
2.77403e-09
2.77404e-09
2.77405e-09
2.77405e-09
2.77406e-09
2.77406e-09
2.77407e-09
2.77408e-09
2.77408e-09
2.77409e-09
2.77409e-09
2.7741e-09
2.7741e-09
2.77411e-09
2.77411e-09
2.77412e-09
2.77412e-09
2.77413e-09
2.77413e-09
2.77414e-09
2.77414e-09
2.77414e-09
2.77415e-09
2.77415e-09
2.77416e-09
2.77416e-09
2.77417e-09
2.77417e-09
2.77417e-09
2.77418e-09
2.77418e-09
2.77419e-09
2.77419e-09
2.77419e-09
2.7742e-09
2.7742e-09
2.7742e-09
2.77421e-09
2.77421e-09
2.77422e-09
2.77422e-09
2.77422e-09
2.77423e-09
2.77423e-09
2.77423e-09
2.77424e-09
2.77424e-09
2.77424e-09
2.77424e-09
2.77425e-09
2.77425e-09
2.77425e-09
2.77426e-09
2.77426e-09
2.77426e-09
2.77427e-09
2.77427e-09
2.77427e-09
2.77427e-09
2.77428e-09
2.77428e-09
2.77428e-09
2.77429e-09
2.77429e-09
2.77429e-09
2.77429e-09
2.7743e-09
2.7743e-09
2.7743e-09
2.7743e-09
2.77431e-09
2.77431e-09
2.77431e-09
2.77431e-09
2.77432e-09
2.77432e-09
2.77432e-09
2.77432e-09
2.77433e-09
2.77433e-09
2.77433e-09
2.77433e-09
2.77434e-09
2.77434e-09
2.77434e-09
2.77434e-09
2.77435e-09
2.77435e-09
2.77435e-09
2.77435e-09
2.77435e-09
2.77436e-09
2.77436e-09
2.77436e-09
2.77436e-09
2.77437e-09
2.77437e-09
2.77437e-09
2.77437e-09
2.77437e-09
2.77438e-09
2.77438e-09
2.77438e-09
2.77438e-09
2.77438e-09
2.77439e-09
2.77439e-09
2.77439e-09
2.77439e-09
2.77439e-09
2.7744e-09
2.7744e-09
2.7744e-09
2.7744e-09
2.7744e-09
2.7744e-09
2.77441e-09
2.77441e-09
2.77441e-09
2.77441e-09
2.77441e-09
2.77441e-09
2.77442e-09
2.77442e-09
2.77442e-09
2.77442e-09
2.77442e-09
2.77443e-09
2.77443e-09
2.77443e-09
2.77444e-09
2.77445e-09
2.77446e-09
2.77448e-09
2.7745e-09
2.77454e-09
2.77459e-09
2.77466e-09
2.77476e-09
2.77491e-09
2.7751e-09
2.77536e-09
2.77571e-09
2.77617e-09
2.77676e-09
2.77752e-09
2.77847e-09
2.77964e-09
2.78107e-09
2.78276e-09
2.78472e-09
2.78669e-09
2.78837e-09
2.78979e-09
2.79096e-09
2.7919e-09
2.79265e-09
2.79324e-09
2.7937e-09
2.79404e-09
2.7943e-09
2.7945e-09
2.79464e-09
2.79474e-09
2.79481e-09
2.79486e-09
2.79489e-09
2.79492e-09
2.79494e-09
2.79495e-09
2.79495e-09
2.79496e-09
2.79496e-09
2.79497e-09
2.79497e-09
2.79497e-09
2.79498e-09
2.79498e-09
2.79498e-09
2.79498e-09
2.79498e-09
2.79498e-09
2.79499e-09
2.79499e-09
2.79499e-09
2.79499e-09
2.79499e-09
2.79499e-09
2.795e-09
2.795e-09
2.795e-09
2.795e-09
2.795e-09
2.79501e-09
2.79501e-09
2.79501e-09
2.79501e-09
2.79502e-09
2.79502e-09
2.79502e-09
2.79502e-09
2.79502e-09
2.79503e-09
2.79503e-09
2.79503e-09
2.79503e-09
2.79503e-09
2.79504e-09
2.79504e-09
2.79504e-09
2.79504e-09
2.79505e-09
2.79505e-09
2.79505e-09
2.79505e-09
2.79506e-09
2.79506e-09
2.79506e-09
2.79506e-09
2.79507e-09
2.79507e-09
2.79507e-09
2.79507e-09
2.79508e-09
2.79508e-09
2.79508e-09
2.79508e-09
2.79509e-09
2.79509e-09
2.79509e-09
2.7951e-09
2.7951e-09
2.7951e-09
2.7951e-09
2.79511e-09
2.79511e-09
2.79511e-09
2.79512e-09
2.79512e-09
2.79512e-09
2.79512e-09
2.79513e-09
2.79513e-09
2.79513e-09
2.79514e-09
2.79514e-09
2.79514e-09
2.79515e-09
2.79515e-09
2.79515e-09
2.79516e-09
2.79516e-09
2.79516e-09
2.79517e-09
2.79517e-09
2.79517e-09
2.79518e-09
2.79518e-09
2.79518e-09
2.79519e-09
2.79519e-09
2.7952e-09
2.7952e-09
2.7952e-09
2.79521e-09
2.79521e-09
2.79522e-09
2.79522e-09
2.79522e-09
2.79523e-09
2.79523e-09
2.79524e-09
2.79524e-09
2.79525e-09
2.79525e-09
2.79526e-09
2.79526e-09
2.79527e-09
2.79527e-09
2.79528e-09
2.79528e-09
2.79528e-09
2.79529e-09
2.7953e-09
2.7953e-09
2.79531e-09
2.79531e-09
2.79532e-09
2.79532e-09
2.79533e-09
2.79533e-09
2.79534e-09
2.79535e-09
2.79535e-09
2.79536e-09
2.79537e-09
2.79537e-09
2.79538e-09
2.79539e-09
2.79539e-09
2.7954e-09
2.79541e-09
2.79541e-09
2.79542e-09
2.79543e-09
2.79544e-09
2.79545e-09
2.79545e-09
2.79546e-09
2.79547e-09
2.79548e-09
2.79549e-09
2.7955e-09
2.79551e-09
2.79552e-09
2.79553e-09
2.79554e-09
2.79555e-09
2.79556e-09
2.79557e-09
2.79558e-09
2.79559e-09
2.79561e-09
2.79562e-09
2.79563e-09
2.79564e-09
2.79566e-09
2.79567e-09
2.79568e-09
2.7957e-09
2.79572e-09
2.79573e-09
2.79575e-09
2.79576e-09
2.79578e-09
2.7958e-09
2.79582e-09
2.79584e-09
2.79586e-09
2.79589e-09
2.79591e-09
2.79594e-09
2.79596e-09
2.79599e-09
2.79603e-09
2.79607e-09
2.79612e-09
2.79619e-09
2.79626e-09
2.79636e-09
2.7965e-09
2.79667e-09
2.79691e-09
2.79723e-09
2.79767e-09
2.79828e-09
2.79909e-09
2.80019e-09
2.80168e-09
2.80367e-09
2.80633e-09
2.80985e-09
2.81449e-09
2.82056e-09
2.82845e-09
2.83862e-09
2.85166e-09
2.86827e-09
2.88928e-09
2.91573e-09
2.94883e-09
2.99003e-09
3.04109e-09
3.10412e-09
3.18166e-09
3.27679e-09
3.39332e-09
3.53592e-09
3.71041e-09
3.92413e-09
4.18639e-09
4.50914e-09
4.90784e-09
5.40273e-09
6.0205e-09
6.79655e-09
7.77978e-09
9.03699e-09
1.06067e-08
1.25039e-08
1.4773e-08
1.74541e-08
2.05761e-08
2.41488e-08
2.8156e-08
3.25501e-08
3.72504e-08
4.21467e-08
4.7108e-08
5.1995e-08
5.66756e-08
6.1037e-08
6.49956e-08
6.8501e-08
7.15347e-08
7.41056e-08
7.62432e-08
7.79902e-08
7.9396e-08
8.05116e-08
8.13858e-08
8.20632e-08
8.25827e-08
8.29772e-08
8.32743e-08
8.34961e-08
8.36604e-08
8.37813e-08
8.38696e-08
8.39337e-08
8.39799e-08
8.40129e-08
8.40365e-08
8.40531e-08
8.40648e-08
8.4073e-08
8.40787e-08
8.40826e-08
8.40853e-08
8.40872e-08
8.40885e-08
8.40893e-08
8.40899e-08
8.40903e-08
8.40905e-08
8.40907e-08
8.40908e-08
8.40909e-08
8.40909e-08
8.40909e-08
8.4091e-08
8.4091e-08
8.4091e-08
8.4091e-08
8.4091e-08
8.4091e-08
8.4091e-08
8.4091e-08
8.4091e-08
8.4091e-08
8.4091e-08
8.4091e-08
8.4091e-08
8.4091e-08
8.4091e-08
8.4091e-08
8.4091e-08
8.4091e-08
8.4091e-08
8.4091e-08
8.4091e-08
8.4091e-08
8.4091e-08
8.4091e-08
8.4091e-08
8.4091e-08
8.4091e-08
8.4091e-08
8.4091e-08
8.4091e-08
8.4091e-08
8.4091e-08
8.4091e-08
8.4091e-08
8.4091e-08
8.4091e-08
8.4091e-08
8.4091e-08
8.4091e-08
8.4091e-08
8.4091e-08
8.4091e-08
8.4091e-08
8.4091e-08
8.4091e-08
8.4091e-08
8.4091e-08
8.4091e-08
8.4091e-08
8.4091e-08
8.4091e-08
8.4091e-08
8.4091e-08
8.4091e-08
8.4091e-08
8.4091e-08
8.4091e-08
8.4091e-08
8.4091e-08
8.4091e-08
8.4091e-08
8.4091e-08
8.4091e-08
8.4091e-08
8.4091e-08
8.4091e-08
8.4091e-08
8.4091e-08
8.4091e-08
8.4091e-08
8.4091e-08
8.4091e-08
8.4091e-08
8.4091e-08
8.4091e-08
8.4091e-08
8.4091e-08
8.4091e-08
8.4091e-08
8.4091e-08
8.4091e-08
8.4091e-08
8.4091e-08
8.4091e-08
8.4091e-08
8.4091e-08
8.4091e-08
8.4091e-08
8.4091e-08
8.4091e-08
8.4091e-08
8.4091e-08
8.4091e-08
8.4091e-08
8.4091e-08
8.4091e-08
8.4091e-08
8.4091e-08
8.4091e-08
8.4091e-08
8.4091e-08
8.4091e-08
8.4091e-08
8.4091e-08
8.4091e-08
8.4091e-08
8.4091e-08
8.4091e-08
8.4091e-08
8.4091e-08
)
;

boundaryField
{
    sides
    {
        type            calculated;
        value           nonuniform List<scalar> 2(8.4091e-08 8.4091e-10);
    }
    empty1
    {
        type            empty;
    }
    empty2
    {
        type            empty;
    }
}


// ************************************************************************* //
