/*--------------------------------*- C++ -*----------------------------------*\
| =========                 |                                                 |
| \\      /  F ield         | OpenFOAM: The Open Source CFD Toolbox           |
|  \\    /   O peration     | Version:  2312                                  |
|   \\  /    A nd           | Website:  www.openfoam.com                      |
|    \\/     M anipulation  |                                                 |
\*---------------------------------------------------------------------------*/
FoamFile
{
    version     2.0;
    format      ascii;
    arch        "LSB;label=32;scalar=64";
    class       volScalarField;
    location    "0.0002";
    object      thermo:psiLiqEff;
}
// * * * * * * * * * * * * * * * * * * * * * * * * * * * * * * * * * * * * * //

dimensions      [-2 4 2 0 0 0 0];

internalField   nonuniform List<scalar> 
800
(
4.58242e-13
4.58242e-13
4.58242e-13
4.58242e-13
4.58242e-13
4.58242e-13
4.58242e-13
4.58242e-13
4.58242e-13
4.58242e-13
4.58242e-13
4.58242e-13
4.58242e-13
4.58242e-13
4.58242e-13
4.58242e-13
4.58242e-13
4.58242e-13
4.58242e-13
4.58242e-13
4.58242e-13
4.58242e-13
4.58242e-13
4.58242e-13
4.58242e-13
4.58242e-13
4.58242e-13
4.58242e-13
4.58242e-13
4.58242e-13
4.58242e-13
4.58242e-13
4.58242e-13
4.58242e-13
4.58242e-13
4.58242e-13
4.58242e-13
4.58242e-13
4.58242e-13
4.58242e-13
4.58242e-13
4.58242e-13
4.58242e-13
4.58242e-13
4.58242e-13
4.58242e-13
4.58242e-13
4.58242e-13
4.58242e-13
4.58242e-13
4.58242e-13
4.58242e-13
4.58242e-13
4.58242e-13
4.58242e-13
4.58242e-13
4.58242e-13
4.58242e-13
4.58242e-13
4.58242e-13
4.58242e-13
4.58242e-13
4.58242e-13
4.58242e-13
4.58242e-13
4.58242e-13
4.58242e-13
4.58242e-13
4.58242e-13
4.58242e-13
4.58242e-13
4.58242e-13
4.58242e-13
4.58242e-13
4.58242e-13
4.58242e-13
4.58242e-13
4.58242e-13
4.58242e-13
4.58242e-13
4.58242e-13
4.58242e-13
4.58242e-13
4.58242e-13
4.58242e-13
4.58242e-13
4.58242e-13
4.58242e-13
4.58242e-13
4.58242e-13
4.58242e-13
4.58242e-13
4.58242e-13
4.58242e-13
4.58242e-13
4.58242e-13
4.58242e-13
4.58242e-13
4.58242e-13
4.58242e-13
4.58242e-13
4.58242e-13
4.58242e-13
4.58242e-13
4.58242e-13
4.58242e-13
4.58242e-13
4.58242e-13
4.58242e-13
4.58242e-13
4.58242e-13
4.58242e-13
4.58242e-13
4.58242e-13
4.58242e-13
4.58242e-13
4.58242e-13
4.58242e-13
4.58242e-13
4.58242e-13
4.58242e-13
4.58242e-13
4.58243e-13
4.58243e-13
4.58243e-13
4.58243e-13
4.58243e-13
4.58243e-13
4.58243e-13
4.58243e-13
4.58243e-13
4.58244e-13
4.58244e-13
4.58245e-13
4.58246e-13
4.58247e-13
4.58249e-13
4.58251e-13
4.58254e-13
4.58258e-13
4.58263e-13
4.5827e-13
4.58278e-13
4.58288e-13
4.58301e-13
4.58318e-13
4.58338e-13
4.58363e-13
4.58393e-13
4.58429e-13
4.58473e-13
4.58524e-13
4.58584e-13
4.58655e-13
4.58735e-13
4.58828e-13
4.58932e-13
4.59048e-13
4.59176e-13
4.59317e-13
4.59469e-13
4.59631e-13
4.59802e-13
4.59979e-13
4.60153e-13
4.60322e-13
4.60484e-13
4.60637e-13
4.60781e-13
4.60915e-13
4.61037e-13
4.61149e-13
4.61249e-13
4.61338e-13
4.61417e-13
4.61486e-13
4.61545e-13
4.61596e-13
4.6164e-13
4.61676e-13
4.61706e-13
4.61731e-13
4.61752e-13
4.61769e-13
4.61782e-13
4.61793e-13
4.61801e-13
4.61808e-13
4.61813e-13
4.61817e-13
4.6182e-13
4.61822e-13
4.61824e-13
4.61826e-13
4.61827e-13
4.61827e-13
4.61828e-13
4.61828e-13
4.61828e-13
4.61829e-13
4.61829e-13
4.61829e-13
4.61829e-13
4.61829e-13
4.61829e-13
4.61829e-13
4.61829e-13
4.61829e-13
4.61829e-13
4.61829e-13
4.61829e-13
4.61829e-13
4.61829e-13
4.61829e-13
4.61829e-13
4.61829e-13
4.61829e-13
4.61829e-13
4.61829e-13
4.61829e-13
4.61829e-13
4.61829e-13
4.6183e-13
4.6183e-13
4.6183e-13
4.6183e-13
4.6183e-13
4.6183e-13
4.6183e-13
4.6183e-13
4.6183e-13
4.6183e-13
4.6183e-13
4.6183e-13
4.6183e-13
4.6183e-13
4.6183e-13
4.6183e-13
4.6183e-13
4.6183e-13
4.6183e-13
4.6183e-13
4.6183e-13
4.6183e-13
4.6183e-13
4.6183e-13
4.6183e-13
4.6183e-13
4.6183e-13
4.6183e-13
4.6183e-13
4.6183e-13
4.6183e-13
4.6183e-13
4.6183e-13
4.6183e-13
4.6183e-13
4.6183e-13
4.6183e-13
4.6183e-13
4.6183e-13
4.6183e-13
4.6183e-13
4.6183e-13
4.6183e-13
4.6183e-13
4.6183e-13
4.6183e-13
4.6183e-13
4.6183e-13
4.6183e-13
4.6183e-13
4.6183e-13
4.6183e-13
4.6183e-13
4.6183e-13
4.6183e-13
4.6183e-13
4.6183e-13
4.6183e-13
4.6183e-13
4.6183e-13
4.6183e-13
4.6183e-13
4.6183e-13
4.6183e-13
4.6183e-13
4.6183e-13
4.6183e-13
4.6183e-13
4.6183e-13
4.6183e-13
4.6183e-13
4.6183e-13
4.6183e-13
4.6183e-13
4.6183e-13
4.6183e-13
4.6183e-13
4.6183e-13
4.6183e-13
4.6183e-13
4.6183e-13
4.6183e-13
4.6183e-13
4.6183e-13
4.6183e-13
4.6183e-13
4.6183e-13
4.6183e-13
4.6183e-13
4.6183e-13
4.6183e-13
4.6183e-13
4.6183e-13
4.6183e-13
4.6183e-13
4.6183e-13
4.6183e-13
4.6183e-13
4.6183e-13
4.6183e-13
4.6183e-13
4.6183e-13
4.6183e-13
4.6183e-13
4.6183e-13
4.6183e-13
4.6183e-13
4.6183e-13
4.6183e-13
4.6183e-13
4.6183e-13
4.6183e-13
4.6183e-13
4.6183e-13
4.6183e-13
4.6183e-13
4.6183e-13
4.6183e-13
4.6183e-13
4.6183e-13
4.6183e-13
4.6183e-13
4.6183e-13
4.6183e-13
4.6183e-13
4.6183e-13
4.6183e-13
4.6183e-13
4.6183e-13
4.6183e-13
4.6183e-13
4.6183e-13
4.6183e-13
4.6183e-13
4.61831e-13
4.61831e-13
4.61831e-13
4.61831e-13
4.61831e-13
4.61831e-13
4.61831e-13
4.61831e-13
4.61831e-13
4.61831e-13
4.61831e-13
4.61831e-13
4.61831e-13
4.61831e-13
4.61831e-13
4.61831e-13
4.61831e-13
4.61831e-13
4.61831e-13
4.61831e-13
4.61831e-13
4.61831e-13
4.61831e-13
4.6183e-13
4.6183e-13
4.61829e-13
4.61827e-13
4.61825e-13
4.61821e-13
4.61815e-13
4.61807e-13
4.61796e-13
4.61779e-13
4.61756e-13
4.61724e-13
4.61681e-13
4.61624e-13
4.61548e-13
4.6145e-13
4.61325e-13
4.61168e-13
4.60975e-13
4.60741e-13
4.60463e-13
4.6014e-13
4.59817e-13
4.59541e-13
4.5931e-13
4.59119e-13
4.58965e-13
4.58842e-13
4.58746e-13
4.58672e-13
4.58615e-13
4.58573e-13
4.58542e-13
4.5852e-13
4.58504e-13
4.58492e-13
4.58484e-13
4.58479e-13
4.58475e-13
4.58473e-13
4.58471e-13
4.5847e-13
4.5847e-13
4.58469e-13
4.58469e-13
4.58469e-13
4.58469e-13
4.58469e-13
4.58469e-13
4.58469e-13
4.58469e-13
4.58469e-13
4.58469e-13
4.5847e-13
4.5847e-13
4.5847e-13
4.5847e-13
4.5847e-13
4.5847e-13
4.5847e-13
4.5847e-13
4.5847e-13
4.5847e-13
4.5847e-13
4.5847e-13
4.5847e-13
4.5847e-13
4.5847e-13
4.5847e-13
4.5847e-13
4.5847e-13
4.5847e-13
4.5847e-13
4.5847e-13
4.5847e-13
4.5847e-13
4.5847e-13
4.5847e-13
4.5847e-13
4.5847e-13
4.5847e-13
4.5847e-13
4.5847e-13
4.5847e-13
4.5847e-13
4.5847e-13
4.5847e-13
4.5847e-13
4.5847e-13
4.5847e-13
4.5847e-13
4.5847e-13
4.5847e-13
4.5847e-13
4.5847e-13
4.5847e-13
4.5847e-13
4.5847e-13
4.58471e-13
4.58471e-13
4.58471e-13
4.58471e-13
4.58471e-13
4.58471e-13
4.58471e-13
4.58471e-13
4.58471e-13
4.58471e-13
4.58471e-13
4.58471e-13
4.58471e-13
4.58471e-13
4.58471e-13
4.58471e-13
4.58471e-13
4.58471e-13
4.58471e-13
4.58471e-13
4.58471e-13
4.58471e-13
4.58471e-13
4.58471e-13
4.58471e-13
4.58471e-13
4.58471e-13
4.58471e-13
4.58471e-13
4.58471e-13
4.58471e-13
4.58471e-13
4.58471e-13
4.58471e-13
4.58471e-13
4.58471e-13
4.58471e-13
4.58471e-13
4.58471e-13
4.58471e-13
4.58471e-13
4.58471e-13
4.58471e-13
4.58471e-13
4.58471e-13
4.58471e-13
4.58471e-13
4.58471e-13
4.58471e-13
4.58471e-13
4.58471e-13
4.58471e-13
4.58471e-13
4.58471e-13
4.58471e-13
4.58471e-13
4.58471e-13
4.58471e-13
4.58471e-13
4.58471e-13
4.58471e-13
4.58471e-13
4.58471e-13
4.58471e-13
4.58471e-13
4.58471e-13
4.58471e-13
4.58471e-13
4.58471e-13
4.58471e-13
4.58471e-13
4.58471e-13
4.58471e-13
4.58471e-13
4.58471e-13
4.58471e-13
4.58471e-13
4.58471e-13
4.58471e-13
4.58471e-13
4.58471e-13
4.58471e-13
4.58471e-13
4.58471e-13
4.58471e-13
4.58471e-13
4.58471e-13
4.58471e-13
4.58471e-13
4.58471e-13
4.58471e-13
4.58471e-13
4.58471e-13
4.58471e-13
4.58471e-13
4.58471e-13
4.58471e-13
4.58471e-13
4.58471e-13
4.58471e-13
4.58471e-13
4.58471e-13
4.58471e-13
4.58471e-13
4.58471e-13
4.58471e-13
4.58471e-13
4.58471e-13
4.58471e-13
4.58471e-13
4.58471e-13
4.58471e-13
4.58471e-13
4.58471e-13
4.58471e-13
4.58471e-13
4.58471e-13
4.58472e-13
4.58472e-13
4.58472e-13
4.58472e-13
4.58472e-13
4.58472e-13
4.58472e-13
4.58472e-13
4.58472e-13
4.58472e-13
4.58473e-13
4.58473e-13
4.58474e-13
4.58475e-13
4.58476e-13
4.58477e-13
4.58479e-13
4.58482e-13
4.58486e-13
4.5849e-13
4.58496e-13
4.58504e-13
4.58514e-13
4.58526e-13
4.58542e-13
4.58562e-13
4.58585e-13
4.58615e-13
4.5865e-13
4.58693e-13
4.58743e-13
4.58803e-13
4.58873e-13
4.58953e-13
4.59046e-13
4.5915e-13
4.59268e-13
4.59398e-13
4.5954e-13
4.59695e-13
4.59861e-13
4.60037e-13
4.6022e-13
4.6041e-13
4.60597e-13
4.60775e-13
4.60941e-13
4.61094e-13
4.61233e-13
4.61358e-13
4.61468e-13
4.61565e-13
4.61649e-13
4.61722e-13
4.61783e-13
4.61835e-13
4.61878e-13
4.61914e-13
4.61943e-13
4.61967e-13
4.61986e-13
4.62001e-13
4.62013e-13
4.62023e-13
4.6203e-13
4.62036e-13
4.62041e-13
4.62044e-13
4.62047e-13
4.62049e-13
4.6205e-13
4.62051e-13
4.62052e-13
4.62052e-13
4.62053e-13
4.62053e-13
4.62053e-13
4.62054e-13
4.62054e-13
4.62054e-13
4.62054e-13
4.62054e-13
4.62054e-13
4.62054e-13
4.62054e-13
4.62054e-13
4.62054e-13
4.62054e-13
4.62054e-13
4.62054e-13
4.62054e-13
4.62054e-13
4.62054e-13
4.62054e-13
4.62054e-13
4.62054e-13
4.62054e-13
4.62054e-13
4.62054e-13
4.62054e-13
4.62054e-13
4.62054e-13
4.62054e-13
4.62054e-13
4.62054e-13
4.62054e-13
4.62054e-13
4.62054e-13
4.62054e-13
4.62054e-13
4.62054e-13
4.62054e-13
4.62054e-13
4.62054e-13
4.62054e-13
4.62054e-13
4.62054e-13
4.62054e-13
4.62054e-13
4.62054e-13
4.62054e-13
4.62054e-13
4.62054e-13
4.62054e-13
4.62054e-13
4.62054e-13
4.62054e-13
4.62054e-13
4.62054e-13
4.62054e-13
4.62054e-13
4.62054e-13
4.62054e-13
4.62054e-13
4.62054e-13
4.62054e-13
4.62054e-13
4.62054e-13
4.62054e-13
4.62054e-13
4.62054e-13
4.62054e-13
4.62054e-13
4.62054e-13
4.62054e-13
4.62054e-13
4.62054e-13
4.62054e-13
4.62054e-13
4.62054e-13
4.62054e-13
4.62054e-13
4.62054e-13
4.62054e-13
4.62054e-13
4.62054e-13
4.62054e-13
4.62054e-13
4.62054e-13
4.62054e-13
4.62054e-13
4.62054e-13
4.62054e-13
4.62054e-13
4.62054e-13
4.62054e-13
4.62054e-13
4.62054e-13
4.62054e-13
4.62054e-13
4.62054e-13
4.62054e-13
4.62054e-13
4.62054e-13
4.62054e-13
4.62054e-13
4.62054e-13
4.62054e-13
4.62054e-13
4.62054e-13
4.62054e-13
4.62054e-13
4.62054e-13
4.62054e-13
4.62054e-13
4.62054e-13
4.62054e-13
4.62054e-13
4.62054e-13
4.62054e-13
4.62054e-13
4.62054e-13
4.62054e-13
4.62054e-13
4.62054e-13
4.62054e-13
4.62054e-13
4.62054e-13
4.62054e-13
4.62054e-13
4.62054e-13
4.62054e-13
4.62054e-13
4.62054e-13
4.62054e-13
4.62054e-13
)
;

boundaryField
{
    sides
    {
        type            calculated;
        value           nonuniform List<scalar> 2(4.62054e-13 4.58242e-13);
    }
    empty1
    {
        type            empty;
    }
    empty2
    {
        type            empty;
    }
}


// ************************************************************************* //
