/*--------------------------------*- C++ -*----------------------------------*\
| =========                 |                                                 |
| \\      /  F ield         | OpenFOAM: The Open Source CFD Toolbox           |
|  \\    /   O peration     | Version:  2312                                  |
|   \\  /    A nd           | Website:  www.openfoam.com                      |
|    \\/     M anipulation  |                                                 |
\*---------------------------------------------------------------------------*/
FoamFile
{
    version     2.0;
    format      ascii;
    arch        "LSB;label=32;scalar=64";
    class       volVectorField;
    location    "0.0002";
    object      U;
}
// * * * * * * * * * * * * * * * * * * * * * * * * * * * * * * * * * * * * * //

dimensions      [0 1 -1 0 0 0 0];

internalField   nonuniform List<vector> 
800
(
(6.08537e-13 0 0)
(-5.16812e-13 0 0)
(-2.9307e-12 0 0)
(-3.8456e-12 0 0)
(-2.73291e-12 0 0)
(-2.40652e-12 0 0)
(-1.43069e-13 0 0)
(2.95156e-12 0 0)
(-6.55326e-13 0 0)
(-3.24278e-12 0 0)
(-4.60346e-12 0 0)
(-5.88129e-12 0 0)
(-8.47061e-12 0 0)
(-8.61155e-12 0 0)
(-1.20226e-11 0 0)
(-1.95112e-11 0 0)
(-2.08084e-11 0 0)
(-1.88962e-11 0 0)
(-2.11019e-11 0 0)
(-2.08143e-11 0 0)
(-1.75486e-11 0 0)
(-2.00823e-11 0 0)
(-2.60817e-11 0 0)
(-2.67815e-11 0 0)
(-2.33119e-11 0 0)
(-1.88434e-11 0 0)
(-1.57019e-11 0 0)
(-1.34208e-11 0 0)
(-1.15549e-11 0 0)
(-8.20861e-12 0 0)
(-5.35635e-12 0 0)
(-6.23973e-12 0 0)
(-6.07444e-12 0 0)
(-1.19825e-12 0 0)
(2.36834e-12 0 0)
(-1.12961e-14 0 0)
(-3.45491e-13 0 0)
(1.08581e-12 0 0)
(3.27228e-12 0 0)
(6.20954e-12 0 0)
(5.50681e-12 0 0)
(4.77028e-12 0 0)
(4.44414e-12 0 0)
(5.02513e-13 0 0)
(-3.65561e-13 0 0)
(-2.45423e-12 0 0)
(-7.12562e-12 0 0)
(-6.46905e-12 0 0)
(-6.48017e-12 0 0)
(-3.43452e-12 0 0)
(3.7116e-12 0 0)
(3.76658e-12 0 0)
(1.43743e-12 0 0)
(4.7741e-14 0 0)
(1.64658e-12 0 0)
(4.42985e-12 0 0)
(6.2304e-12 0 0)
(6.698e-12 0 0)
(6.11057e-12 0 0)
(5.34071e-12 0 0)
(6.13202e-12 0 0)
(9.35342e-12 0 0)
(1.11829e-11 0 0)
(1.00549e-11 0 0)
(7.74346e-12 0 0)
(9.51074e-12 0 0)
(1.24548e-11 0 0)
(1.3655e-11 0 0)
(1.3886e-11 0 0)
(1.1563e-11 0 0)
(7.06108e-12 0 0)
(4.99373e-12 0 0)
(1.07765e-11 0 0)
(1.42755e-11 0 0)
(1.2765e-11 0 0)
(1.26054e-11 0 0)
(1.48385e-11 0 0)
(1.55481e-11 0 0)
(1.49335e-11 0 0)
(1.27743e-11 0 0)
(1.35112e-11 0 0)
(1.91926e-11 0 0)
(2.00457e-11 0 0)
(2.11413e-11 0 0)
(2.56953e-11 0 0)
(2.96598e-11 0 0)
(3.32496e-11 0 0)
(3.45778e-11 0 0)
(3.38509e-11 0 0)
(3.64685e-11 0 0)
(4.13831e-11 0 0)
(5.36348e-11 0 0)
(7.24025e-11 0 0)
(1.14178e-10 0 0)
(1.72093e-10 0 0)
(2.66845e-10 0 0)
(4.28058e-10 0 0)
(7.00909e-10 0 0)
(1.15854e-09 0 0)
(1.89228e-09 0 0)
(3.09348e-09 0 0)
(5.05935e-09 0 0)
(8.25687e-09 0 0)
(1.33376e-08 0 0)
(2.14242e-08 0 0)
(3.41439e-08 0 0)
(5.41954e-08 0 0)
(8.55823e-08 0 0)
(1.3451e-07 0 0)
(2.10457e-07 0 0)
(3.2774e-07 0 0)
(5.08101e-07 0 0)
(7.83969e-07 0 0)
(1.20378e-06 0 0)
(1.83947e-06 0 0)
(2.79731e-06 0 0)
(4.23314e-06 0 0)
(6.37438e-06 0 0)
(9.55089e-06 0 0)
(1.42383e-05 0 0)
(2.11183e-05 0 0)
(3.11616e-05 0 0)
(4.57424e-05 0 0)
(6.6793e-05 0 0)
(9.70134e-05 0 0)
(0.000140151 0 0)
(0.00020137 0 0)
(0.000287742 0 0)
(0.000408877 0 0)
(0.000577745 0 0)
(0.000811715 0 0)
(0.00113387 0 0)
(0.00157467 0 0)
(0.00217394 0 0)
(0.00298336 0 0)
(0.00406941 0 0)
(0.00551685 0 0)
(0.00743275 0 0)
(0.00995111 0 0)
(0.013238 0 0)
(0.017497 0 0)
(0.0229752 0 0)
(0.029969 0 0)
(0.0388295 0 0)
(0.0499678 0 0)
(0.0638586 0 0)
(0.0810419 0 0)
(0.102123 0 0)
(0.127767 0 0)
(0.158693 0 0)
(0.195663 0 0)
(0.239459 0 0)
(0.290865 0 0)
(0.350635 0 0)
(0.419463 0 0)
(0.49794 0 0)
(0.586515 0 0)
(0.685451 0 0)
(0.794783 0 0)
(0.914279 0 0)
(1.04341 0 0)
(1.18131 0 0)
(1.32688 0 0)
(1.47708 0 0)
(1.62493 0 0)
(1.76805 0 0)
(1.90524 0 0)
(2.03526 0 0)
(2.15716 0 0)
(2.27024 0 0)
(2.37404 0 0)
(2.46836 0 0)
(2.55321 0 0)
(2.62878 0 0)
(2.69543 0 0)
(2.75365 0 0)
(2.80403 0 0)
(2.84722 0 0)
(2.88389 0 0)
(2.91475 0 0)
(2.94049 0 0)
(2.96176 0 0)
(2.97918 0 0)
(2.99333 0 0)
(3.00471 0 0)
(3.0138 0 0)
(3.021 0 0)
(3.02664 0 0)
(3.03104 0 0)
(3.03444 0 0)
(3.03704 0 0)
(3.03902 0 0)
(3.04052 0 0)
(3.04164 0 0)
(3.04247 0 0)
(3.04309 0 0)
(3.04355 0 0)
(3.04389 0 0)
(3.04414 0 0)
(3.04432 0 0)
(3.04445 0 0)
(3.04455 0 0)
(3.04462 0 0)
(3.04468 0 0)
(3.04472 0 0)
(3.04476 0 0)
(3.04479 0 0)
(3.04481 0 0)
(3.04483 0 0)
(3.04485 0 0)
(3.04487 0 0)
(3.04488 0 0)
(3.04489 0 0)
(3.04491 0 0)
(3.04492 0 0)
(3.04493 0 0)
(3.04494 0 0)
(3.04495 0 0)
(3.04496 0 0)
(3.04497 0 0)
(3.04498 0 0)
(3.04499 0 0)
(3.045 0 0)
(3.04501 0 0)
(3.04501 0 0)
(3.04502 0 0)
(3.04503 0 0)
(3.04504 0 0)
(3.04504 0 0)
(3.04505 0 0)
(3.04506 0 0)
(3.04506 0 0)
(3.04507 0 0)
(3.04507 0 0)
(3.04508 0 0)
(3.04509 0 0)
(3.04509 0 0)
(3.0451 0 0)
(3.0451 0 0)
(3.04511 0 0)
(3.04511 0 0)
(3.04512 0 0)
(3.04512 0 0)
(3.04513 0 0)
(3.04513 0 0)
(3.04513 0 0)
(3.04514 0 0)
(3.04514 0 0)
(3.04515 0 0)
(3.04515 0 0)
(3.04515 0 0)
(3.04516 0 0)
(3.04516 0 0)
(3.04516 0 0)
(3.04517 0 0)
(3.04517 0 0)
(3.04517 0 0)
(3.04518 0 0)
(3.04518 0 0)
(3.04518 0 0)
(3.04519 0 0)
(3.04519 0 0)
(3.04519 0 0)
(3.0452 0 0)
(3.0452 0 0)
(3.0452 0 0)
(3.0452 0 0)
(3.04521 0 0)
(3.04521 0 0)
(3.04521 0 0)
(3.04521 0 0)
(3.04522 0 0)
(3.04522 0 0)
(3.04522 0 0)
(3.04522 0 0)
(3.04523 0 0)
(3.04523 0 0)
(3.04523 0 0)
(3.04523 0 0)
(3.04523 0 0)
(3.04524 0 0)
(3.04524 0 0)
(3.04524 0 0)
(3.04524 0 0)
(3.04524 0 0)
(3.04524 0 0)
(3.04525 0 0)
(3.04525 0 0)
(3.04525 0 0)
(3.04525 0 0)
(3.04525 0 0)
(3.04525 0 0)
(3.04526 0 0)
(3.04526 0 0)
(3.04526 0 0)
(3.04526 0 0)
(3.04526 0 0)
(3.04526 0 0)
(3.04526 0 0)
(3.04527 0 0)
(3.04527 0 0)
(3.04527 0 0)
(3.04527 0 0)
(3.04527 0 0)
(3.04527 0 0)
(3.04527 0 0)
(3.04528 0 0)
(3.04528 0 0)
(3.04528 0 0)
(3.04528 0 0)
(3.04528 0 0)
(3.04528 0 0)
(3.04528 0 0)
(3.04528 0 0)
(3.04528 0 0)
(3.04529 0 0)
(3.04529 0 0)
(3.04529 0 0)
(3.04529 0 0)
(3.04529 0 0)
(3.04529 0 0)
(3.04529 0 0)
(3.04529 0 0)
(3.04529 0 0)
(3.04529 0 0)
(3.04529 0 0)
(3.04529 0 0)
(3.0453 0 0)
(3.0453 0 0)
(3.0453 0 0)
(3.0453 0 0)
(3.0453 0 0)
(3.0453 0 0)
(3.0453 0 0)
(3.0453 0 0)
(3.0453 0 0)
(3.0453 0 0)
(3.0453 0 0)
(3.0453 0 0)
(3.0453 0 0)
(3.0453 0 0)
(3.0453 0 0)
(3.04531 0 0)
(3.04531 0 0)
(3.04531 0 0)
(3.04531 0 0)
(3.04531 0 0)
(3.04531 0 0)
(3.04531 0 0)
(3.04531 0 0)
(3.04531 0 0)
(3.04531 0 0)
(3.04531 0 0)
(3.04531 0 0)
(3.04531 0 0)
(3.04531 0 0)
(3.04531 0 0)
(3.04531 0 0)
(3.04531 0 0)
(3.04531 0 0)
(3.04531 0 0)
(3.04531 0 0)
(3.04531 0 0)
(3.04531 0 0)
(3.04531 0 0)
(3.04531 0 0)
(3.04531 0 0)
(3.04531 0 0)
(3.04532 0 0)
(3.04532 0 0)
(3.04532 0 0)
(3.04532 0 0)
(3.04532 0 0)
(3.04532 0 0)
(3.04532 0 0)
(3.04532 0 0)
(3.04532 0 0)
(3.04532 0 0)
(3.04532 0 0)
(3.04532 0 0)
(3.04532 0 0)
(3.04532 0 0)
(3.04532 0 0)
(3.04532 0 0)
(3.04532 0 0)
(3.04532 0 0)
(3.04532 0 0)
(3.04532 0 0)
(3.04532 0 0)
(3.04532 0 0)
(3.04532 0 0)
(3.04532 0 0)
(3.04532 0 0)
(3.04532 0 0)
(3.04532 0 0)
(3.04532 0 0)
(3.04532 0 0)
(3.04532 0 0)
(3.04532 0 0)
(3.04532 0 0)
(3.04532 0 0)
(3.04532 0 0)
(3.04532 0 0)
(3.04532 0 0)
(3.04532 0 0)
(3.04532 0 0)
(3.04532 0 0)
(3.04532 0 0)
(3.04532 0 0)
(3.04532 0 0)
(3.04532 0 0)
(3.04532 0 0)
(3.04532 0 0)
(3.04532 0 0)
(3.04532 0 0)
(3.04531 0 0)
(3.04531 0 0)
(3.04531 0 0)
(3.04531 0 0)
(3.04531 0 0)
(3.04531 0 0)
(3.04531 0 0)
(3.04531 0 0)
(3.04531 0 0)
(3.04531 0 0)
(3.04531 0 0)
(3.04531 0 0)
(3.04531 0 0)
(3.04531 0 0)
(3.04531 0 0)
(3.04531 0 0)
(3.04531 0 0)
(3.04531 0 0)
(3.04531 0 0)
(3.04531 0 0)
(3.04531 0 0)
(3.04531 0 0)
(3.04531 0 0)
(3.04531 0 0)
(3.04531 0 0)
(3.0453 0 0)
(3.0453 0 0)
(3.0453 0 0)
(3.0453 0 0)
(3.0453 0 0)
(3.0453 0 0)
(3.0453 0 0)
(3.0453 0 0)
(3.0453 0 0)
(3.0453 0 0)
(3.0453 0 0)
(3.0453 0 0)
(3.0453 0 0)
(3.0453 0 0)
(3.0453 0 0)
(3.0453 0 0)
(3.04529 0 0)
(3.04529 0 0)
(3.04529 0 0)
(3.04529 0 0)
(3.04529 0 0)
(3.04529 0 0)
(3.04529 0 0)
(3.04529 0 0)
(3.04529 0 0)
(3.04529 0 0)
(3.04529 0 0)
(3.04528 0 0)
(3.04528 0 0)
(3.04528 0 0)
(3.04528 0 0)
(3.04528 0 0)
(3.04528 0 0)
(3.04528 0 0)
(3.04528 0 0)
(3.04528 0 0)
(3.04528 0 0)
(3.04527 0 0)
(3.04527 0 0)
(3.04527 0 0)
(3.04527 0 0)
(3.04527 0 0)
(3.04527 0 0)
(3.04527 0 0)
(3.04527 0 0)
(3.04527 0 0)
(3.04526 0 0)
(3.04526 0 0)
(3.04526 0 0)
(3.04526 0 0)
(3.04526 0 0)
(3.04526 0 0)
(3.04526 0 0)
(3.04525 0 0)
(3.04525 0 0)
(3.04525 0 0)
(3.04525 0 0)
(3.04525 0 0)
(3.04525 0 0)
(3.04524 0 0)
(3.04524 0 0)
(3.04524 0 0)
(3.04524 0 0)
(3.04524 0 0)
(3.04524 0 0)
(3.04523 0 0)
(3.04523 0 0)
(3.04523 0 0)
(3.04523 0 0)
(3.04523 0 0)
(3.04523 0 0)
(3.04522 0 0)
(3.04522 0 0)
(3.04522 0 0)
(3.04522 0 0)
(3.04522 0 0)
(3.04521 0 0)
(3.04521 0 0)
(3.04521 0 0)
(3.04521 0 0)
(3.0452 0 0)
(3.0452 0 0)
(3.0452 0 0)
(3.0452 0 0)
(3.04519 0 0)
(3.04519 0 0)
(3.04519 0 0)
(3.04519 0 0)
(3.04518 0 0)
(3.04518 0 0)
(3.04518 0 0)
(3.04518 0 0)
(3.04517 0 0)
(3.04517 0 0)
(3.04517 0 0)
(3.04516 0 0)
(3.04516 0 0)
(3.04516 0 0)
(3.04515 0 0)
(3.04515 0 0)
(3.04515 0 0)
(3.04514 0 0)
(3.04514 0 0)
(3.04514 0 0)
(3.04513 0 0)
(3.04513 0 0)
(3.04513 0 0)
(3.04512 0 0)
(3.04512 0 0)
(3.04511 0 0)
(3.04511 0 0)
(3.0451 0 0)
(3.0451 0 0)
(3.0451 0 0)
(3.04509 0 0)
(3.04509 0 0)
(3.04508 0 0)
(3.04508 0 0)
(3.04507 0 0)
(3.04506 0 0)
(3.04506 0 0)
(3.04505 0 0)
(3.04505 0 0)
(3.04504 0 0)
(3.04504 0 0)
(3.04503 0 0)
(3.04502 0 0)
(3.04502 0 0)
(3.04501 0 0)
(3.045 0 0)
(3.045 0 0)
(3.04499 0 0)
(3.04498 0 0)
(3.04497 0 0)
(3.04497 0 0)
(3.04496 0 0)
(3.04495 0 0)
(3.04494 0 0)
(3.04493 0 0)
(3.04492 0 0)
(3.04491 0 0)
(3.0449 0 0)
(3.04489 0 0)
(3.04488 0 0)
(3.04487 0 0)
(3.04486 0 0)
(3.04484 0 0)
(3.04483 0 0)
(3.04482 0 0)
(3.0448 0 0)
(3.04479 0 0)
(3.04477 0 0)
(3.04475 0 0)
(3.04473 0 0)
(3.04471 0 0)
(3.04468 0 0)
(3.04465 0 0)
(3.04461 0 0)
(3.04456 0 0)
(3.04449 0 0)
(3.0444 0 0)
(3.04428 0 0)
(3.04412 0 0)
(3.04391 0 0)
(3.04361 0 0)
(3.04321 0 0)
(3.04267 0 0)
(3.04194 0 0)
(3.04095 0 0)
(3.03962 0 0)
(3.03785 0 0)
(3.03552 0 0)
(3.03245 0 0)
(3.02845 0 0)
(3.02328 0 0)
(3.01663 0 0)
(3.00816 0 0)
(2.99746 0 0)
(2.98405 0 0)
(2.96739 0 0)
(2.94686 0 0)
(2.92179 0 0)
(2.89143 0 0)
(2.855 0 0)
(2.81167 0 0)
(2.76063 0 0)
(2.70107 0 0)
(2.63224 0 0)
(2.55347 0 0)
(2.46427 0 0)
(2.36428 0 0)
(2.25343 0 0)
(2.13188 0 0)
(2.00015 0 0)
(1.85907 0 0)
(1.70989 0 0)
(1.5541 0 0)
(1.3932 0 0)
(1.23361 0 0)
(1.08255 0 0)
(0.941625 0 0)
(0.811948 0 0)
(0.694163 0 0)
(0.588494 0 0)
(0.494806 0 0)
(0.412673 0 0)
(0.341443 0 0)
(0.280308 0 0)
(0.228359 0 0)
(0.184638 0 0)
(0.148185 0 0)
(0.118065 0 0)
(0.0933935 0 0)
(0.0733577 0 0)
(0.0572207 0 0)
(0.0443285 0 0)
(0.0341098 0 0)
(0.0260725 0 0)
(0.0197986 0 0)
(0.0149373 0 0)
(0.0111978 0 0)
(0.00834164 0 0)
(0.0061754 0 0)
(0.00454367 0 0)
(0.00332285 0 0)
(0.0024155 0 0)
(0.00174553 0 0)
(0.00125402 0 0)
(0.000895709 0 0)
(0.000636126 0 0)
(0.000449223 0 0)
(0.000315464 0 0)
(0.000220311 0 0)
(0.000153019 0 0)
(0.000105708 0 0)
(7.26342e-05 0 0)
(4.9645e-05 0 0)
(3.37546e-05 0 0)
(2.28318e-05 0 0)
(1.53644e-05 0 0)
(1.02869e-05 0 0)
(6.85277e-06 0 0)
(4.54244e-06 0 0)
(2.99617e-06 0 0)
(1.96652e-06 0 0)
(1.28463e-06 0 0)
(8.35149e-07 0 0)
(5.40363e-07 0 0)
(3.47911e-07 0 0)
(2.22854e-07 0 0)
(1.42084e-07 0 0)
(9.01675e-08 0 0)
(5.69146e-08 0 0)
(3.57441e-08 0 0)
(2.23186e-08 0 0)
(1.38653e-08 0 0)
(8.51518e-09 0 0)
(5.25563e-09 0 0)
(3.25041e-09 0 0)
(1.97006e-09 0 0)
(1.15988e-09 0 0)
(6.59778e-10 0 0)
(3.25174e-10 0 0)
(1.43883e-10 0 0)
(2.45239e-11 0 0)
(-2.52304e-11 0 0)
(-2.21173e-11 0 0)
(-1.45968e-11 0 0)
(-3.1553e-11 0 0)
(-5.08662e-11 0 0)
(-5.33892e-11 0 0)
(-5.59877e-11 0 0)
(-3.92424e-11 0 0)
(1.04541e-11 0 0)
(5.90971e-11 0 0)
(7.5846e-11 0 0)
(7.2187e-11 0 0)
(5.41254e-11 0 0)
(8.18317e-11 0 0)
(1.20178e-10 0 0)
(1.44905e-10 0 0)
(1.60017e-10 0 0)
(1.68242e-10 0 0)
(1.54776e-10 0 0)
(1.47854e-10 0 0)
(1.43607e-10 0 0)
(1.36579e-10 0 0)
(1.21485e-10 0 0)
(1.1877e-10 0 0)
(1.35513e-10 0 0)
(9.98504e-11 0 0)
(4.16831e-11 0 0)
(2.33257e-11 0 0)
(2.36206e-11 0 0)
(4.0956e-11 0 0)
(3.89179e-11 0 0)
(5.81459e-11 0 0)
(6.66188e-11 0 0)
(5.28558e-11 0 0)
(4.72853e-11 0 0)
(3.77953e-11 0 0)
(2.97533e-11 0 0)
(-2.21223e-11 0 0)
(-4.39133e-11 0 0)
(3.02003e-11 0 0)
(5.17944e-11 0 0)
(7.58347e-11 0 0)
(1.05435e-10 0 0)
(8.7983e-11 0 0)
(7.68161e-11 0 0)
(9.26988e-11 0 0)
(9.91229e-11 0 0)
(8.3017e-11 0 0)
(4.7716e-11 0 0)
(3.08767e-11 0 0)
(6.02001e-11 0 0)
(5.99349e-11 0 0)
(5.00104e-11 0 0)
(4.18318e-11 0 0)
(-7.6683e-13 0 0)
(-4.06269e-11 0 0)
(-3.68584e-11 0 0)
(1.08142e-11 0 0)
(-4.586e-12 0 0)
(-3.89199e-11 0 0)
(-4.76716e-11 0 0)
(-6.3133e-11 0 0)
(-5.09784e-11 0 0)
(-2.41383e-11 0 0)
(-4.02443e-12 0 0)
(2.22508e-11 0 0)
(5.20406e-11 0 0)
(4.41536e-11 0 0)
(5.97673e-11 0 0)
(7.10583e-11 0 0)
(8.74719e-11 0 0)
(8.07632e-11 0 0)
(7.66889e-11 0 0)
(8.74471e-11 0 0)
(8.78365e-11 0 0)
(7.94065e-11 0 0)
(4.64857e-11 0 0)
(3.98876e-11 0 0)
(5.25726e-11 0 0)
(1.961e-11 0 0)
(5.03824e-12 0 0)
(1.27519e-11 0 0)
(8.82497e-13 0 0)
(6.06108e-12 0 0)
(2.94093e-12 0 0)
(7.47864e-12 0 0)
(1.82934e-11 0 0)
(-1.12064e-11 0 0)
(-3.75163e-11 0 0)
(-5.2997e-11 0 0)
(-1.00044e-10 0 0)
(-8.87461e-11 0 0)
(-2.30307e-11 0 0)
(-2.47958e-11 0 0)
(-3.05996e-11 0 0)
)
;

boundaryField
{
    sides
    {
        type            fixedValue;
        value           uniform (0 0 0);
    }
    empty1
    {
        type            empty;
    }
    empty2
    {
        type            empty;
    }
}


// ************************************************************************* //
