/*--------------------------------*- C++ -*----------------------------------*\
| =========                 |                                                 |
| \\      /  F ield         | OpenFOAM: The Open Source CFD Toolbox           |
|  \\    /   O peration     | Version:  2312                                  |
|   \\  /    A nd           | Website:  www.openfoam.com                      |
|    \\/     M anipulation  |                                                 |
\*---------------------------------------------------------------------------*/
FoamFile
{
    version     2.0;
    format      ascii;
    arch        "LSB;label=32;scalar=64";
    class       volScalarField;
    location    "0.0001";
    object      p;
}
// * * * * * * * * * * * * * * * * * * * * * * * * * * * * * * * * * * * * * //

dimensions      [1 -1 -2 0 0 0 0];

internalField   nonuniform List<scalar> 
800
(
1e+07
1e+07
1e+07
1e+07
1e+07
1e+07
1e+07
1e+07
1e+07
1e+07
1e+07
1e+07
1e+07
1e+07
1e+07
1e+07
1e+07
1e+07
1e+07
1e+07
1e+07
1e+07
1e+07
1e+07
1e+07
1e+07
1e+07
1e+07
1e+07
1e+07
1e+07
1e+07
1e+07
1e+07
1e+07
1e+07
1e+07
1e+07
1e+07
1e+07
1e+07
1e+07
1e+07
1e+07
1e+07
1e+07
1e+07
1e+07
1e+07
1e+07
1e+07
1e+07
1e+07
1e+07
1e+07
1e+07
1e+07
1e+07
1e+07
1e+07
1e+07
1e+07
1e+07
1e+07
1e+07
1e+07
1e+07
1e+07
1e+07
1e+07
1e+07
1e+07
1e+07
1e+07
1e+07
1e+07
1e+07
1e+07
1e+07
1e+07
1e+07
1e+07
1e+07
1e+07
1e+07
1e+07
1e+07
1e+07
1e+07
1e+07
1e+07
1e+07
1e+07
1e+07
1e+07
1e+07
1e+07
1e+07
1e+07
1e+07
1e+07
1e+07
1e+07
1e+07
1e+07
1e+07
1e+07
1e+07
1e+07
1e+07
1e+07
1e+07
1e+07
1e+07
1e+07
1e+07
1e+07
1e+07
1e+07
1e+07
1e+07
1e+07
1e+07
1e+07
1e+07
1e+07
1e+07
1e+07
1e+07
1e+07
1e+07
1e+07
1e+07
1e+07
1e+07
1e+07
1e+07
1e+07
1e+07
1e+07
1e+07
1e+07
1e+07
1e+07
1e+07
1e+07
1e+07
1e+07
1e+07
1e+07
1e+07
1e+07
1e+07
1e+07
1e+07
1e+07
1e+07
1e+07
1e+07
1e+07
1e+07
1e+07
1e+07
1e+07
1e+07
1e+07
1e+07
1e+07
1e+07
1e+07
1e+07
1e+07
1e+07
1e+07
1e+07
1e+07
1e+07
1e+07
1e+07
1e+07
1e+07
1e+07
1e+07
1e+07
1e+07
1e+07
1e+07
1e+07
1e+07
1e+07
1e+07
1e+07
1e+07
1e+07
1e+07
1e+07
1e+07
1e+07
1e+07
1e+07
1e+07
1e+07
1e+07
1e+07
1e+07
1e+07
1e+07
1e+07
1e+07
1e+07
1e+07
1e+07
1e+07
1e+07
1e+07
1e+07
1e+07
1e+07
1e+07
1e+07
1e+07
1e+07
1e+07
1e+07
1e+07
1e+07
1e+07
1e+07
1e+07
1e+07
1e+07
1e+07
1e+07
1e+07
1e+07
1e+07
1e+07
1e+07
1e+07
1e+07
1e+07
1e+07
1e+07
1e+07
1e+07
1e+07
9.99999e+06
9.99999e+06
9.99998e+06
9.99996e+06
9.99994e+06
9.9999e+06
9.99984e+06
9.99974e+06
9.99959e+06
9.99935e+06
9.99899e+06
9.99843e+06
9.9976e+06
9.99636e+06
9.99452e+06
9.99185e+06
9.988e+06
9.98247e+06
9.97472e+06
9.96385e+06
9.94895e+06
9.92857e+06
9.90131e+06
9.86503e+06
9.81761e+06
9.75671e+06
9.6792e+06
9.58182e+06
9.46262e+06
9.31728e+06
9.14497e+06
8.94301e+06
8.71035e+06
8.44968e+06
8.16061e+06
7.85424e+06
7.55355e+06
7.27037e+06
7.00675e+06
6.76519e+06
6.54953e+06
6.35808e+06
6.19313e+06
6.0526e+06
5.93433e+06
5.83659e+06
5.75752e+06
5.69446e+06
5.6445e+06
5.60591e+06
5.57652e+06
5.55408e+06
5.53739e+06
5.52544e+06
5.51682e+06
5.51057e+06
5.50614e+06
5.50306e+06
5.50093e+06
5.49945e+06
5.49852e+06
5.49793e+06
5.49748e+06
5.49716e+06
5.49695e+06
5.49684e+06
5.49674e+06
5.49666e+06
5.49661e+06
5.49658e+06
5.49655e+06
5.49651e+06
5.49644e+06
5.49638e+06
5.49633e+06
5.4963e+06
5.49628e+06
5.49625e+06
5.49622e+06
5.49619e+06
5.49617e+06
5.49617e+06
5.49615e+06
5.49614e+06
5.49612e+06
5.4961e+06
5.49608e+06
5.49606e+06
5.49604e+06
5.49601e+06
5.49598e+06
5.49594e+06
5.4959e+06
5.49586e+06
5.49584e+06
5.49582e+06
5.4958e+06
5.49579e+06
5.49579e+06
5.49578e+06
5.49577e+06
5.49578e+06
5.49578e+06
5.49578e+06
5.49578e+06
5.49578e+06
5.49577e+06
5.49575e+06
5.49572e+06
5.49569e+06
5.49566e+06
5.49562e+06
5.4956e+06
5.49557e+06
5.49555e+06
5.49553e+06
5.49552e+06
5.49552e+06
5.49552e+06
5.49553e+06
5.49553e+06
5.49553e+06
5.49553e+06
5.49552e+06
5.4955e+06
5.49548e+06
5.49547e+06
5.49545e+06
5.49545e+06
5.49543e+06
5.49542e+06
5.49542e+06
5.49539e+06
5.49539e+06
5.4954e+06
5.49534e+06
5.49532e+06
5.49526e+06
5.49535e+06
5.4953e+06
5.49525e+06
5.49542e+06
5.49531e+06
5.49518e+06
5.49538e+06
5.49515e+06
5.49528e+06
5.49538e+06
5.49527e+06
5.49507e+06
5.49545e+06
5.49502e+06
5.49545e+06
5.495e+06
5.49548e+06
5.49523e+06
5.49499e+06
5.49547e+06
5.49521e+06
5.49501e+06
5.49537e+06
5.49501e+06
5.49532e+06
5.49515e+06
5.49503e+06
5.49524e+06
5.49503e+06
5.49518e+06
5.49502e+06
5.49512e+06
5.49505e+06
5.49503e+06
5.49499e+06
5.49503e+06
5.49498e+06
5.495e+06
5.49498e+06
5.49499e+06
5.49498e+06
5.49498e+06
5.49497e+06
5.49496e+06
5.49495e+06
5.49494e+06
5.49493e+06
5.49492e+06
5.49491e+06
5.4949e+06
5.49488e+06
5.49486e+06
5.49484e+06
5.49482e+06
5.4948e+06
5.49478e+06
5.49476e+06
5.49474e+06
5.49473e+06
5.49471e+06
5.4947e+06
5.49469e+06
5.49468e+06
5.49467e+06
5.49467e+06
5.49467e+06
5.49467e+06
5.49467e+06
5.49467e+06
5.49466e+06
5.49465e+06
5.49463e+06
5.4946e+06
5.49457e+06
5.49454e+06
5.49451e+06
5.49448e+06
5.49446e+06
5.49444e+06
5.49444e+06
5.49444e+06
5.49444e+06
5.49443e+06
5.49441e+06
5.49439e+06
5.49436e+06
5.49432e+06
5.49429e+06
5.49425e+06
5.49421e+06
5.49416e+06
5.49412e+06
5.49409e+06
5.49406e+06
5.49403e+06
5.494e+06
5.49396e+06
5.4939e+06
5.49383e+06
5.49377e+06
5.49372e+06
5.49368e+06
5.49364e+06
5.4936e+06
5.49353e+06
5.49345e+06
5.49331e+06
5.49304e+06
5.49264e+06
5.49213e+06
5.49145e+06
5.49038e+06
5.48873e+06
5.4863e+06
5.48286e+06
5.47796e+06
5.47096e+06
5.46112e+06
5.44753e+06
5.42898e+06
5.40389e+06
5.37079e+06
5.32756e+06
5.27188e+06
5.2009e+06
5.11193e+06
5.0033e+06
4.87111e+06
4.71346e+06
4.52888e+06
4.3167e+06
4.07631e+06
3.81036e+06
3.5211e+06
3.21174e+06
2.88993e+06
2.58304e+06
2.30622e+06
2.06183e+06
1.85109e+06
1.6728e+06
1.52468e+06
1.40386e+06
1.30694e+06
1.23042e+06
1.17086e+06
1.12523e+06
1.09072e+06
1.065e+06
1.04605e+06
1.03228e+06
1.02239e+06
1.01537e+06
1.01044e+06
1.00703e+06
1.00468e+06
1.00309e+06
1.00202e+06
1.00131e+06
1.00084e+06
1.00053e+06
1.00034e+06
1.00021e+06
1.00013e+06
1.00008e+06
1.00005e+06
1.00003e+06
1.00002e+06
1.00001e+06
1.00001e+06
1e+06
1e+06
1e+06
1e+06
1e+06
1e+06
1e+06
1e+06
1e+06
1e+06
1e+06
1e+06
1e+06
1e+06
1e+06
1e+06
1e+06
1e+06
1e+06
1e+06
1e+06
1e+06
1e+06
1e+06
1e+06
1e+06
1e+06
1e+06
1e+06
1e+06
1e+06
1e+06
1e+06
1e+06
1e+06
1e+06
1e+06
1e+06
1e+06
1e+06
1e+06
1e+06
1e+06
1e+06
1e+06
1e+06
1e+06
1e+06
1e+06
1e+06
1e+06
1e+06
1e+06
1e+06
1e+06
1e+06
1e+06
1e+06
1e+06
1e+06
1e+06
1e+06
1e+06
1e+06
1e+06
1e+06
1e+06
1e+06
1e+06
1e+06
1e+06
1e+06
1e+06
1e+06
1e+06
1e+06
1e+06
1e+06
1e+06
1e+06
1e+06
1e+06
1e+06
1e+06
1e+06
1e+06
1e+06
1e+06
1e+06
1e+06
1e+06
1e+06
1e+06
1e+06
1e+06
1e+06
1e+06
1e+06
1e+06
1e+06
1e+06
1e+06
1e+06
1e+06
1e+06
1e+06
1e+06
1e+06
1e+06
1e+06
1e+06
1e+06
1e+06
1e+06
1e+06
1e+06
1e+06
1e+06
1e+06
1e+06
1e+06
1e+06
1e+06
1e+06
1e+06
1e+06
1e+06
1e+06
1e+06
1e+06
1e+06
1e+06
1e+06
1e+06
1e+06
1e+06
1e+06
1e+06
1e+06
1e+06
1e+06
1e+06
1e+06
1e+06
1e+06
1e+06
1e+06
1e+06
1e+06
1e+06
1e+06
1e+06
1e+06
1e+06
1e+06
1e+06
1e+06
1e+06
1e+06
1e+06
1e+06
1e+06
1e+06
1e+06
1e+06
1e+06
1e+06
1e+06
1e+06
1e+06
1e+06
1e+06
1e+06
1e+06
1e+06
1e+06
1e+06
1e+06
1e+06
1e+06
1e+06
1e+06
1e+06
1e+06
1e+06
1e+06
1e+06
1e+06
1e+06
1e+06
1e+06
1e+06
1e+06
1e+06
1e+06
1e+06
1e+06
1e+06
1e+06
1e+06
1e+06
1e+06
1e+06
1e+06
1e+06
1e+06
1e+06
1e+06
1e+06
1e+06
1e+06
1e+06
1e+06
1e+06
1e+06
1e+06
1e+06
1e+06
1e+06
1e+06
1e+06
1e+06
1e+06
1e+06
1e+06
1e+06
1e+06
1e+06
1e+06
1e+06
1e+06
1e+06
1e+06
1e+06
1e+06
1e+06
1e+06
1e+06
1e+06
1e+06
1e+06
1e+06
1e+06
1e+06
1e+06
1e+06
)
;

boundaryField
{
    sides
    {
        type            zeroGradient;
    }
    empty1
    {
        type            empty;
    }
    empty2
    {
        type            empty;
    }
}


// ************************************************************************* //
