/*--------------------------------*- C++ -*----------------------------------*\
| =========                 |                                                 |
| \\      /  F ield         | OpenFOAM: The Open Source CFD Toolbox           |
|  \\    /   O peration     | Version:  2312                                  |
|   \\  /    A nd           | Website:  www.openfoam.com                      |
|    \\/     M anipulation  |                                                 |
\*---------------------------------------------------------------------------*/
FoamFile
{
    version     2.0;
    format      ascii;
    arch        "LSB;label=32;scalar=64";
    class       surfaceScalarField;
    location    "0.0001";
    object      phi;
}
// * * * * * * * * * * * * * * * * * * * * * * * * * * * * * * * * * * * * * //

dimensions      [1 0 -1 0 0 0 0];

oriented        oriented;

internalField   nonuniform List<scalar> 
799
(
-1.59162e-12
-1.02318e-12
1.53477e-12
3.46745e-12
5.85487e-12
6.76437e-12
6.42331e-12
4.20641e-12
1.08002e-12
8.52651e-13
1.7053e-13
-4.54747e-13
-1.08002e-12
-2.84217e-12
-3.24007e-12
-9.66338e-13
-5.11591e-13
-1.76215e-12
-2.55795e-12
-2.84217e-12
-1.59162e-12
-4.54747e-13
5.68434e-14
4.54747e-13
-5.68434e-14
-9.09495e-13
-8.52651e-13
6.82121e-13
1.42109e-12
-5.68434e-14
-3.41061e-13
-2.84217e-13
-2.84217e-13
0
-8.52651e-13
-1.98952e-12
-1.87583e-12
-2.21689e-12
-3.12639e-12
-2.50111e-12
-1.7053e-12
-3.18323e-12
-1.76215e-12
-1.3074e-12
-2.27374e-13
0
7.38964e-13
1.13687e-13
1.36424e-12
2.72848e-12
5.28644e-12
8.35598e-12
8.69704e-12
7.50333e-12
6.19593e-12
6.13909e-12
7.44649e-12
6.48015e-12
7.16227e-12
6.82121e-12
6.30962e-12
6.82121e-12
6.9349e-12
6.36646e-12
6.30962e-12
5.79803e-12
4.43379e-12
2.72848e-12
9.66338e-13
-1.13687e-13
-2.84217e-13
-5.68434e-13
-1.87583e-12
-3.18323e-12
-3.0127e-12
-2.67164e-12
-5.11591e-13
5.68434e-14
5.11591e-13
6.82121e-13
3.0127e-12
3.46745e-12
2.95586e-12
2.55795e-12
3.80851e-12
2.55795e-12
1.93268e-12
2.6148e-12
3.24007e-12
3.63798e-12
3.52429e-12
3.06954e-12
1.42109e-12
1.13687e-13
-1.59162e-12
-2.21689e-12
-2.44427e-12
-2.89901e-12
-2.50111e-12
-1.47793e-12
-2.27374e-13
1.7053e-12
2.55795e-12
4.09273e-12
5.34328e-12
3.9222e-12
3.06954e-12
3.86535e-12
6.48015e-12
6.9349e-12
4.26326e-12
3.0127e-12
3.52429e-12
4.54747e-12
3.58114e-12
4.20641e-12
4.60432e-12
4.94538e-12
4.88853e-12
4.49063e-12
4.88853e-12
6.13909e-12
5.11591e-12
3.29692e-12
1.76215e-12
9.66338e-13
-1.02318e-12
-1.47793e-12
-1.7053e-13
-1.25056e-12
-3.18323e-12
-1.59162e-12
0
-1.3074e-12
-2.38742e-12
-3.06954e-12
-3.58114e-12
-3.52429e-12
-1.87583e-12
-2.33058e-12
-3.12639e-12
-3.0127e-12
-5.68434e-13
-5.68434e-14
-6.82121e-13
-2.44427e-12
-5.22959e-12
-6.87805e-12
-3.97904e-12
-3.41061e-13
2.6148e-12
4.03588e-12
2.21689e-12
1.87583e-12
1.98952e-12
4.14957e-12
3.86535e-12
2.95586e-12
1.25056e-12
-7.38964e-13
-7.95808e-13
-5.68434e-13
1.81899e-12
2.6148e-12
3.63798e-12
5.11591e-12
5.22959e-12
5.51381e-12
4.54747e-12
5.6275e-12
6.13909e-12
7.84439e-12
7.95808e-12
8.75389e-12
7.95808e-12
3.97904e-12
1.7053e-12
1.19371e-12
1.13687e-12
1.47793e-12
2.16005e-12
2.67164e-12
2.16005e-12
1.76215e-12
1.25056e-12
4.54747e-13
9.09495e-13
1.47793e-12
1.87583e-12
1.87583e-12
2.21689e-12
3.29692e-12
3.18323e-12
4.60432e-12
5.17275e-12
4.03588e-12
3.52429e-12
2.84217e-12
2.33058e-12
2.50111e-12
1.42109e-12
2.84217e-13
5.11591e-13
-3.41061e-13
-1.19371e-12
-2.78533e-12
-3.29692e-12
-1.98952e-12
-1.7053e-12
-4.54747e-13
1.59162e-12
2.67164e-12
1.87583e-12
1.47793e-12
2.38742e-12
1.98952e-12
1.36424e-12
7.38964e-13
9.66338e-13
1.7053e-12
7.95808e-13
8.52651e-13
4.54747e-12
6.82121e-12
1.2335e-11
2.15437e-11
2.78533e-11
4.4281e-11
7.88418e-11
1.5126e-10
2.77339e-10
5.21595e-10
9.85608e-10
1.84201e-09
3.41947e-09
6.26898e-09
1.13957e-08
2.05429e-08
3.67277e-08
6.52065e-08
1.14894e-07
2.01013e-07
3.49112e-07
6.02014e-07
1.03058e-06
1.74922e-06
2.94754e-06
4.93064e-06
8.18324e-06
1.34692e-05
2.19939e-05
3.56318e-05
5.72256e-05
9.11212e-05
0.000143865
0.000225107
0.000349133
0.000536538
0.000816901
0.00123236
0.00184096
0.00272332
0.00398935
0.005784
0.00829908
0.0117822
0.0165479
0.0229871
0.0315758
0.0428654
0.0574949
0.0762082
0.0998108
0.129082
0.164807
0.207702
0.25832
0.316986
0.38368
0.457976
0.539047
0.622742
0.702099
0.776607
0.845192
0.907218
0.962254
1.01026
1.0515
1.08628
1.11509
1.13861
1.15757
1.17257
1.18427
1.19326
1.20005
1.20507
1.20879
1.21151
1.21346
1.21481
1.21575
1.2164
1.21685
1.21715
1.21737
1.21752
1.21761
1.21767
1.21771
1.21775
1.21777
1.21779
1.21781
1.21783
1.21784
1.21785
1.21785
1.21785
1.21785
1.21786
1.21787
1.21787
1.21787
1.21788
1.21788
1.21789
1.2179
1.2179
1.21791
1.21791
1.21792
1.21793
1.21793
1.21794
1.21794
1.21794
1.21794
1.21795
1.21795
1.21796
1.21797
1.21798
1.21799
1.21799
1.218
1.218
1.21801
1.21801
1.21801
1.21801
1.218
1.21799
1.21799
1.21798
1.21798
1.21798
1.21798
1.21798
1.21799
1.21799
1.218
1.218
1.21801
1.21801
1.21802
1.21802
1.21802
1.21802
1.21803
1.21803
1.21803
1.21803
1.21803
1.21803
1.21803
1.21803
1.21803
1.21803
1.21805
1.21805
1.21806
1.21806
1.21806
1.21807
1.21807
1.21809
1.2181
1.2181
1.2181
1.21812
1.21813
1.21816
1.21818
1.21819
1.21819
1.2182
1.21821
1.21821
1.21822
1.21821
1.21821
1.2182
1.21818
1.21817
1.21816
1.21814
1.21812
1.21811
1.21809
1.21808
1.21807
1.21806
1.21805
1.21804
1.21803
1.21802
1.21802
1.21802
1.21801
1.21801
1.21801
1.218
1.218
1.218
1.218
1.21799
1.21799
1.21799
1.21799
1.21798
1.21798
1.21798
1.21798
1.21798
1.21798
1.21797
1.21797
1.21796
1.21796
1.21795
1.21795
1.21795
1.21795
1.21795
1.21795
1.21795
1.21795
1.21795
1.21794
1.21794
1.21794
1.21793
1.21793
1.21793
1.21793
1.21793
1.21793
1.21793
1.21793
1.21792
1.21792
1.21791
1.2179
1.2179
1.21789
1.21789
1.21788
1.21788
1.21788
1.21787
1.21786
1.21785
1.21784
1.21783
1.21782
1.2178
1.21778
1.21777
1.21776
1.21776
1.21776
1.21775
1.21774
1.21773
1.21771
1.21769
1.21766
1.21762
1.21758
1.21752
1.21743
1.21727
1.21702
1.21668
1.21618
1.21544
1.21436
1.21281
1.21062
1.20758
1.2034
1.19772
1.19012
1.18004
1.1669
1.1501
1.12892
1.10251
1.07015
1.03125
0.985211
0.931545
0.870192
0.801385
0.725672
0.644093
0.557291
0.470793
0.391656
0.321031
0.259366
0.206637
0.162386
0.125932
0.0964071
0.0728852
0.0544314
0.0401675
0.0292979
0.0211277
0.0150673
0.010629
0.00741864
0.00512411
0.00350321
0.00237112
0.0015892
0.0010549
0.000693608
0.000451829
0.000291646
0.000186568
0.000118297
7.43593e-05
4.63418e-05
2.86397e-05
1.75538e-05
1.06716e-05
6.43573e-06
3.85042e-06
2.2858e-06
1.34658e-06
7.87209e-07
4.56751e-07
2.63064e-07
1.50413e-07
8.53679e-08
4.80717e-08
2.68719e-08
1.49406e-08
8.23798e-09
4.48534e-09
2.40988e-09
1.29324e-09
7.12532e-10
3.80624e-10
2.42153e-10
1.7684e-10
1.35344e-10
8.73683e-11
6.79279e-11
4.08136e-11
2.25668e-11
2.37605e-11
2.57501e-11
1.9611e-11
1.0516e-11
1.32445e-11
-3.75167e-12
-1.73372e-11
-4.34852e-11
-4.71232e-11
-4.84306e-11
-5.41149e-11
-6.70184e-11
-6.29257e-11
-6.37215e-11
-7.37259e-11
-8.14566e-11
-8.48104e-11
-8.91873e-11
-8.30482e-11
-5.05906e-11
-4.45084e-11
-4.21778e-11
-3.18323e-11
-4.02451e-11
-3.98472e-11
-4.28599e-11
-4.45084e-11
-4.95675e-11
-4.00178e-11
-4.98517e-11
-5.31486e-11
-6.66773e-11
-5.12159e-11
-3.56977e-11
-1.45519e-11
-1.18803e-11
-2.58069e-11
-2.33626e-11
-1.57456e-11
-2.31353e-11
-2.42721e-11
-3.1946e-11
-2.86491e-11
-1.55183e-11
3.9222e-12
1.7792e-11
4.45652e-11
5.7355e-11
4.50768e-11
4.78053e-11
3.85967e-11
4.2462e-11
3.57545e-11
3.67777e-11
3.02975e-11
1.98384e-11
2.9388e-11
4.57021e-11
6.2812e-11
7.31006e-11
7.36122e-11
6.66773e-11
4.49063e-11
3.25713e-11
2.75122e-11
1.44382e-11
-1.89857e-11
-2.47269e-11
-2.76259e-11
-4.06999e-11
-2.7967e-11
-4.13252e-11
-2.62617e-11
1.02887e-11
3.78009e-11
5.79234e-11
7.09406e-11
8.19114e-11
7.78186e-11
5.86624e-11
3.22871e-11
2.20552e-11
1.86446e-11
2.23395e-11
2.359e-11
3.13207e-11
3.18323e-11
4.92832e-11
4.88285e-11
6.05951e-11
8.31619e-11
8.10587e-11
1.02204e-10
1.08344e-10
6.13909e-11
-2.27374e-13
-2.86491e-11
-2.467e-11
2.21689e-12
1.89289e-11
3.22302e-11
5.07612e-11
6.89511e-11
8.44125e-11
8.85052e-11
9.48148e-11
1.13801e-10
1.22213e-10
1.29432e-10
1.06979e-10
1.00499e-10
8.11724e-11
6.2073e-11
5.0818e-11
4.91127e-11
3.0127e-11
3.46745e-11
3.5584e-11
2.00657e-11
2.50111e-11
4.91127e-11
5.79803e-11
4.73506e-11
3.58114e-11
2.46132e-11
1.64846e-11
2.16573e-11
8.07177e-12
-5.6275e-12
-1.47793e-12
-1.52909e-11
-2.58638e-11
-4.41673e-11
-4.75779e-11
-3.43334e-11
-3.25144e-11
-3.00702e-11
-1.95541e-11
-3.69482e-12
4.26326e-12
7.95808e-13
2.01794e-11
1.11413e-11
1.04592e-11
2.33058e-12
-1.18803e-11
-1.06297e-11
-2.42153e-11
-3.00702e-11
-2.62617e-11
-1.36424e-11
-6.19593e-12
-4.26326e-12
-1.47793e-12
-1.30171e-11
-1.48361e-11
-5.05906e-12
-1.47224e-11
-2.85922e-11
-2.33058e-11
-1.31308e-11
1.25056e-12
1.92131e-11
2.74554e-11
2.251e-11
3.5925e-11
3.16049e-11
3.42197e-11
6.41762e-11
5.86056e-11
4.05862e-11
1.73372e-11
4.94538e-12
1.53477e-11
2.77964e-11
3.86535e-12
-1.7053e-11
-5.11591e-13
1.74509e-11
1.68257e-11
8.41283e-12
2.6148e-12
8.98126e-12
2.83649e-11
1.95541e-11
1.75078e-11
1.43245e-11
4.87148e-11
6.21299e-11
6.55405e-11
7.03722e-11
6.30962e-11
6.55405e-11
8.48672e-11
8.1684e-11
7.94103e-11
8.5322e-11
6.39488e-11
4.54747e-11
4.09841e-11
4.57021e-11
5.6616e-11
4.24052e-11
2.85922e-11
3.13776e-11
3.68345e-11
5.12728e-11
5.89466e-11
6.29257e-11
6.03109e-11
5.57066e-11
3.87672e-11
4.75779e-11
4.52474e-11
5.24665e-11
6.15614e-11
6.49152e-11
8.0604e-11
9.44738e-11
6.90079e-11
2.77964e-11
1.66551e-11
1.23919e-11
1.08002e-11
)
;

boundaryField
{
    sides
    {
        type            calculated;
        value           uniform 0;
    }
    empty1
    {
        type            empty;
        value           nonuniform List<scalar> 0();
    }
    empty2
    {
        type            empty;
        value           nonuniform List<scalar> 0();
    }
}


// ************************************************************************* //
