/*--------------------------------*- C++ -*----------------------------------*\
| =========                 |                                                 |
| \\      /  F ield         | OpenFOAM: The Open Source CFD Toolbox           |
|  \\    /   O peration     | Version:  2312                                  |
|   \\  /    A nd           | Website:  www.openfoam.com                      |
|    \\/     M anipulation  |                                                 |
\*---------------------------------------------------------------------------*/
FoamFile
{
    version     2.0;
    format      ascii;
    arch        "LSB;label=32;scalar=64";
    class       volScalarField;
    location    "0.0001";
    object      T;
}
// * * * * * * * * * * * * * * * * * * * * * * * * * * * * * * * * * * * * * //

dimensions      [0 0 0 1 0 0 0];

internalField   nonuniform List<scalar> 
800
(
293
293
293
293
293
293
293
293
293
293
293
293
293
293
293
293
293
293
293
293
293
293
293
293
293
293
293
293
293
293
293
293
293
293
293
293
293
293
293
293
293
293
293
293
293
293
293
293
293
293
293
293
293
293
293
293
293
293
293
293
293
293
293
293
293
293
293
293
293
293
293
293
293
293
293
293
293
293
293
293
293
293
293
293
293
293
293
293
293
293
293
293
293
293
293
293
293
293
293
293
293
293
293
293
293
293
293
293
293
293
293
293
293
293
293
293
293
293
293
293
293
293
293
293
293
293
293
293
293
293
293
293
293
293
293
293
293
293
293
293
293
293
293
293
293
293
293
293
293
293
293
293
293
293
293
293
293
293
293
293
293
293
293
293
293
293
293
293
293
293
293
293
293
293
293
293
293
293
293
293
293
293
293
293
293
293
293
293
293
293
293
293
293
293
293
293
293
293
293
293
293
293
293
293
293
293
293
293
293
293
293
293
293
293
293
293
293
293
293
293
293
293
293
293
293
293
293
293
293
293
293
293
293
293
293
293
293
293
293
293
293
293
293
293
293
293
293
293
293
293
293
293
293
293
293
293
293
293
292.999
292.999
292.998
292.998
292.997
292.995
292.994
292.99
292.987
292.981
292.977
292.965
292.947
292.935
292.92
292.886
292.865
292.813
292.78
292.743
292.663
292.618
292.523
292.472
292.374
292.328
292.286
292.207
292.174
292.118
292.097
292.048
292.006
291.988
291.978
291.969
291.953
291.946
291.944
291.94
291.938
291.936
291.932
291.929
291.927
291.924
291.923
291.923
291.925
291.927
291.928
291.931
291.931
291.932
291.932
291.931
291.929
291.927
291.926
291.924
291.922
291.921
291.921
291.92
291.92
291.921
291.921
291.922
291.922
291.923
291.924
291.924
291.925
291.925
291.926
291.926
291.927
291.927
291.927
291.927
291.927
291.927
291.927
291.927
291.927
291.926
291.926
291.926
291.926
291.926
291.926
291.926
291.926
291.926
291.926
291.926
291.926
291.926
291.926
291.926
291.926
291.926
291.926
291.926
291.926
291.926
291.926
291.926
291.926
291.926
291.926
291.926
291.927
291.927
291.928
291.929
291.93
291.932
291.934
291.938
291.941
291.949
291.961
291.969
291.978
291.99
292.019
292.035
292.053
292.094
292.118
292.145
292.203
292.233
292.331
292.444
292.493
292.545
292.66
292.722
292.853
292.921
293.061
293.13
293.198
293.331
293.394
293.454
293.565
293.617
293.711
293.753
293.791
293.857
293.886
293.936
293.957
293.992
294.007
294.018
294.028
294.043
294.049
294.058
294.061
294.066
294.068
294.071
294.072
294.073
294.074
294.074
294.075
294.075
294.075
294.075
294.075
294.075
294.075
294.075
294.075
294.075
294.075
294.075
294.074
294.074
294.074
294.074
294.074
294.074
294.074
294.074
294.074
294.074
294.074
294.074
294.074
294.074
294.074
294.074
294.074
294.075
294.075
294.075
294.075
294.075
294.076
294.076
294.076
294.076
294.076
294.076
294.076
294.076
294.076
294.076
294.076
294.075
294.075
294.075
294.075
294.075
294.075
294.075
294.075
294.075
294.075
294.075
294.075
294.074
294.074
294.074
294.073
294.073
294.073
294.073
294.073
294.073
294.072
294.072
294.071
294.07
294.068
294.066
294.064
294.061
294.054
294.05
294.036
294.021
294.011
293.986
293.972
293.925
293.89
293.856
293.823
293.742
293.696
293.646
293.535
293.474
293.414
293.36
293.267
293.225
293.185
293.133
293.098
293.081
293.065
293.044
293.035
293.023
293.018
293.012
293.009
293.006
293.004
293.003
293.002
293.001
293.001
293.001
293
293
293
293
293
293
293
293
293
293
293
293
293
293
293
293
293
293
293
293
293
293
293
293
293
293
293
293
293
293
293
293
293
293
293
293
293
293
293
293
293
293
293
293
293
293
293
293
293
293
293
293
293
293
293
293
293
293
293
293
293
293
293
293
293
293
293
293
293
293
293
293
293
293
293
293
293
293
293
293
293
293
293
293
293
293
293
293
293
293
293
293
293
293
293
293
293
293
293
293
293
293
293
293
293
293
293
293
293
293
293
293
293
293
293
293
293
293
293
293
293
293
293
293
293
293
293
293
293
293
293
293
293
293
293
293
293
293
293
293
293
293
293
293
293
293
293
293
293
293
293
293
293
293
293
293
293
293
293
293
293
293
293
293
293
293
293
293
293
293
293
293
293
293
293
293
293
293
293
293
293
293
293
293
293
293
293
293
293
293
293
293
293
293
293
293
293
293
293
293
293
293
293
293
293
293
293
293
293
293
293
293
293
293
293
293
293
293
293
293
293
293
293
293
293
293
293
293
293
293
293
293
293
293
293
293
293
293
293
293
293
293
293
293
293
293
293
293
293
293
293
293
293
293
293
293
293
293
)
;

boundaryField
{
    sides
    {
        type            zeroGradient;
    }
    empty1
    {
        type            empty;
    }
    empty2
    {
        type            empty;
    }
}


// ************************************************************************* //
