/*--------------------------------*- C++ -*----------------------------------*\
| =========                 |                                                 |
| \\      /  F ield         | OpenFOAM: The Open Source CFD Toolbox           |
|  \\    /   O peration     | Version:  2312                                  |
|   \\  /    A nd           | Website:  www.openfoam.com                      |
|    \\/     M anipulation  |                                                 |
\*---------------------------------------------------------------------------*/
FoamFile
{
    version     2.0;
    format      ascii;
    arch        "LSB;label=32;scalar=64";
    class       volVectorField;
    location    "0.0001";
    object      U;
}
// * * * * * * * * * * * * * * * * * * * * * * * * * * * * * * * * * * * * * //

dimensions      [0 1 -1 0 0 0 0];

internalField   nonuniform List<vector> 
800
(
(-7.54149e-11 0 0)
(-3.6001e-11 0 0)
(3.51088e-11 0 0)
(3.51641e-11 0 0)
(1.19735e-11 0 0)
(4.57291e-12 0 0)
(5.55869e-12 0 0)
(2.82188e-11 0 0)
(2.06316e-11 0 0)
(-2.30384e-11 0 0)
(-1.50072e-11 0 0)
(9.38053e-12 0 0)
(1.83679e-11 0 0)
(7.03453e-12 0 0)
(-2.7458e-11 0 0)
(1.10829e-11 0 0)
(1.0858e-11 0 0)
(-1.14614e-11 0 0)
(-1.45588e-11 0 0)
(2.62521e-12 0 0)
(1.13063e-11 0 0)
(-1.35145e-11 0 0)
(-1.05511e-11 0 0)
(3.0614e-13 0 0)
(-3.04548e-12 0 0)
(6.56888e-12 0 0)
(-2.5955e-11 0 0)
(-2.69287e-11 0 0)
(3.00767e-11 0 0)
(9.22171e-12 0 0)
(-1.41958e-11 0 0)
(1.19535e-11 0 0)
(1.21186e-11 0 0)
(-3.01323e-11 0 0)
(-7.08068e-12 0 0)
(1.81112e-11 0 0)
(-2.9531e-12 0 0)
(-1.3861e-11 0 0)
(-2.26469e-11 0 0)
(-1.03413e-12 0 0)
(1.98007e-11 0 0)
(-5.49224e-12 0 0)
(-2.0406e-11 0 0)
(-3.38157e-12 0 0)
(1.30286e-11 0 0)
(-4.06126e-12 0 0)
(-6.84387e-12 0 0)
(1.45482e-12 0 0)
(4.07724e-12 0 0)
(3.7792e-12 0 0)
(2.18736e-11 0 0)
(2.22472e-11 0 0)
(-2.48295e-12 0 0)
(3.80896e-11 0 0)
(3.86263e-11 0 0)
(1.2961e-11 0 0)
(5.54667e-12 0 0)
(8.38132e-12 0 0)
(3.45087e-11 0 0)
(1.48534e-11 0 0)
(1.73487e-11 0 0)
(1.04142e-11 0 0)
(-7.71853e-12 0 0)
(1.6577e-11 0 0)
(2.85903e-11 0 0)
(1.7187e-11 0 0)
(-6.84532e-12 0 0)
(3.33599e-11 0 0)
(2.94902e-11 0 0)
(2.11694e-13 0 0)
(4.38468e-12 0 0)
(-1.65262e-11 0 0)
(-3.02124e-12 0 0)
(8.38492e-12 0 0)
(-1.2582e-11 0 0)
(-1.57442e-11 0 0)
(1.52211e-11 0 0)
(2.06914e-11 0 0)
(-1.62239e-11 0 0)
(-7.08128e-12 0 0)
(1.07467e-11 0 0)
(9.91844e-12 0 0)
(1.40987e-11 0 0)
(-1.08849e-11 0 0)
(5.60842e-12 0 0)
(3.05173e-11 0 0)
(-1.51161e-11 0 0)
(-3.34037e-12 0 0)
(2.1961e-11 0 0)
(-9.13144e-12 0 0)
(-1.04024e-11 0 0)
(1.05138e-11 0 0)
(3.57302e-11 0 0)
(3.10489e-11 0 0)
(-1.94022e-11 0 0)
(-1.66085e-11 0 0)
(-1.39619e-11 0 0)
(-1.51516e-11 0 0)
(-2.12361e-11 0 0)
(5.85068e-12 0 0)
(2.58551e-11 0 0)
(4.87392e-12 0 0)
(4.1516e-12 0 0)
(1.33874e-12 0 0)
(1.11544e-12 0 0)
(3.85006e-11 0 0)
(3.56759e-11 0 0)
(-1.78992e-11 0 0)
(5.90035e-12 0 0)
(3.119e-11 0 0)
(9.46658e-12 0 0)
(2.01198e-12 0 0)
(2.0016e-11 0 0)
(1.29104e-11 0 0)
(5.03504e-12 0 0)
(-3.06754e-12 0 0)
(-8.15431e-12 0 0)
(2.98435e-11 0 0)
(1.13342e-11 0 0)
(-1.09222e-11 0 0)
(2.60234e-11 0 0)
(3.54261e-11 0 0)
(-4.72229e-12 0 0)
(-7.50749e-12 0 0)
(2.01274e-11 0 0)
(4.41512e-12 0 0)
(1.0333e-11 0 0)
(-1.64587e-11 0 0)
(-5.05947e-12 0 0)
(4.24138e-12 0 0)
(-2.38664e-12 0 0)
(7.67558e-12 0 0)
(-8.26585e-12 0 0)
(7.89444e-12 0 0)
(-4.25754e-12 0 0)
(-1.13096e-11 0 0)
(-7.67483e-12 0 0)
(-1.71405e-11 0 0)
(-8.56323e-12 0 0)
(7.92672e-13 0 0)
(4.89105e-12 0 0)
(4.34084e-12 0 0)
(-8.93604e-12 0 0)
(-2.38293e-11 0 0)
(2.76768e-12 0 0)
(4.06778e-12 0 0)
(-1.99274e-11 0 0)
(-9.54693e-12 0 0)
(-1.17223e-11 0 0)
(-2.67801e-11 0 0)
(-1.64074e-11 0 0)
(1.02792e-11 0 0)
(1.66263e-11 0 0)
(3.86248e-12 0 0)
(-5.96915e-12 0 0)
(8.67138e-12 0 0)
(7.25119e-12 0 0)
(1.04235e-12 0 0)
(1.32337e-11 0 0)
(1.04437e-11 0 0)
(-2.18852e-12 0 0)
(4.31494e-13 0 0)
(7.66972e-12 0 0)
(5.72268e-12 0 0)
(-1.42594e-13 0 0)
(1.31993e-11 0 0)
(2.30467e-11 0 0)
(4.15578e-12 0 0)
(4.8283e-12 0 0)
(2.43324e-11 0 0)
(4.87835e-13 0 0)
(3.93502e-12 0 0)
(3.21149e-11 0 0)
(1.93565e-11 0 0)
(1.36849e-11 0 0)
(1.54231e-11 0 0)
(1.4931e-11 0 0)
(-4.13966e-12 0 0)
(-1.4248e-11 0 0)
(1.67069e-11 0 0)
(2.41123e-11 0 0)
(-1.92607e-11 0 0)
(4.32695e-12 0 0)
(1.96536e-11 0 0)
(-3.33685e-12 0 0)
(1.14558e-11 0 0)
(4.10105e-13 0 0)
(-1.25659e-11 0 0)
(2.11365e-11 0 0)
(9.21782e-13 0 0)
(4.32694e-12 0 0)
(2.77916e-11 0 0)
(-9.13208e-12 0 0)
(6.06621e-12 0 0)
(1.79568e-11 0 0)
(1.88098e-11 0 0)
(-1.13539e-11 0 0)
(3.87905e-12 0 0)
(7.92891e-12 0 0)
(8.04516e-12 0 0)
(1.8988e-11 0 0)
(-1.00836e-12 0 0)
(7.37412e-12 0 0)
(-6.143e-13 0 0)
(-3.27718e-12 0 0)
(5.95484e-12 0 0)
(-2.18658e-12 0 0)
(-2.06349e-11 0 0)
(-1.02559e-11 0 0)
(7.60277e-12 0 0)
(-5.59573e-12 0 0)
(-4.91826e-12 0 0)
(2.6719e-11 0 0)
(-1.41679e-11 0 0)
(-1.68034e-12 0 0)
(1.64617e-11 0 0)
(1.66267e-12 0 0)
(-1.01513e-11 0 0)
(-1.42107e-11 0 0)
(1.86576e-11 0 0)
(1.83599e-11 0 0)
(-6.50752e-12 0 0)
(1.61848e-11 0 0)
(2.18571e-11 0 0)
(8.17762e-12 0 0)
(3.78837e-11 0 0)
(7.57651e-11 0 0)
(5.20581e-11 0 0)
(1.10067e-10 0 0)
(2.94555e-10 0 0)
(4.59578e-10 0 0)
(8.59186e-10 0 0)
(1.72681e-09 0 0)
(3.17547e-09 0 0)
(5.93921e-09 0 0)
(1.10016e-08 0 0)
(2.00156e-08 0 0)
(3.63918e-08 0 0)
(6.54121e-08 0 0)
(1.16549e-07 0 0)
(2.0667e-07 0 0)
(3.62885e-07 0 0)
(6.33949e-07 0 0)
(1.0974e-06 0 0)
(1.88924e-06 0 0)
(3.22273e-06 0 0)
(5.45634e-06 0 0)
(9.17101e-06 0 0)
(1.53053e-05 0 0)
(2.53367e-05 0 0)
(4.15412e-05 0 0)
(6.76956e-05 0 0)
(0.000109374 0 0)
(0.000174935 0 0)
(0.0002779 0 0)
(0.000437484 0 0)
(0.000681795 0 0)
(0.00105466 0 0)
(0.00161371 0 0)
(0.00244985 0 0)
(0.00368385 0 0)
(0.00547686 0 0)
(0.00807686 0 0)
(0.0117898 0 0)
(0.0170124 0 0)
(0.0243255 0 0)
(0.0343677 0 0)
(0.0480851 0 0)
(0.0664586 0 0)
(0.0909184 0 0)
(0.122799 0 0)
(0.16381 0 0)
(0.216147 0 0)
(0.28175 0 0)
(0.362172 0 0)
(0.460138 0 0)
(0.576269 0 0)
(0.712817 0 0)
(0.869805 0 0)
(1.04591 0 0)
(1.24151 0 0)
(1.44889 0 0)
(1.65127 0 0)
(1.84283 0 0)
(2.02172 0 0)
(2.18456 0 0)
(2.33147 0 0)
(2.46005 0 0)
(2.57215 0 0)
(2.66787 0 0)
(2.74772 0 0)
(2.81352 0 0)
(2.86717 0 0)
(2.91022 0 0)
(2.94392 0 0)
(2.97014 0 0)
(2.99029 0 0)
(3.00524 0 0)
(3.0163 0 0)
(3.02461 0 0)
(3.03062 0 0)
(3.03481 0 0)
(3.03775 0 0)
(3.0398 0 0)
(3.04121 0 0)
(3.04214 0 0)
(3.04283 0 0)
(3.04332 0 0)
(3.04362 0 0)
(3.0438 0 0)
(3.04394 0 0)
(3.04406 0 0)
(3.04413 0 0)
(3.04417 0 0)
(3.04423 0 0)
(3.04428 0 0)
(3.04432 0 0)
(3.04434 0 0)
(3.04435 0 0)
(3.04434 0 0)
(3.04435 0 0)
(3.04437 0 0)
(3.04439 0 0)
(3.0444 0 0)
(3.04441 0 0)
(3.04442 0 0)
(3.04443 0 0)
(3.04445 0 0)
(3.04446 0 0)
(3.04448 0 0)
(3.04449 0 0)
(3.04451 0 0)
(3.04452 0 0)
(3.04454 0 0)
(3.04455 0 0)
(3.04456 0 0)
(3.04457 0 0)
(3.04457 0 0)
(3.04458 0 0)
(3.04459 0 0)
(3.0446 0 0)
(3.04462 0 0)
(3.04465 0 0)
(3.04467 0 0)
(3.04469 0 0)
(3.0447 0 0)
(3.04472 0 0)
(3.04473 0 0)
(3.04474 0 0)
(3.04475 0 0)
(3.04475 0 0)
(3.04475 0 0)
(3.04474 0 0)
(3.04472 0 0)
(3.04471 0 0)
(3.04469 0 0)
(3.04468 0 0)
(3.04467 0 0)
(3.04467 0 0)
(3.04468 0 0)
(3.04469 0 0)
(3.0447 0 0)
(3.04471 0 0)
(3.04473 0 0)
(3.04475 0 0)
(3.04476 0 0)
(3.04477 0 0)
(3.04478 0 0)
(3.04478 0 0)
(3.04479 0 0)
(3.04479 0 0)
(3.04479 0 0)
(3.0448 0 0)
(3.04479 0 0)
(3.0448 0 0)
(3.04481 0 0)
(3.0448 0 0)
(3.0448 0 0)
(3.0448 0 0)
(3.04479 0 0)
(3.04481 0 0)
(3.04485 0 0)
(3.04486 0 0)
(3.04483 0 0)
(3.04485 0 0)
(3.04491 0 0)
(3.04485 0 0)
(3.04488 0 0)
(3.04499 0 0)
(3.04489 0 0)
(3.0449 0 0)
(3.0449 0 0)
(3.04479 0 0)
(3.04499 0 0)
(3.04518 0 0)
(3.04502 0 0)
(3.04503 0 0)
(3.04503 0 0)
(3.04505 0 0)
(3.04505 0 0)
(3.04509 0 0)
(3.04535 0 0)
(3.04508 0 0)
(3.04506 0 0)
(3.04528 0 0)
(3.04505 0 0)
(3.045 0 0)
(3.04498 0 0)
(3.04496 0 0)
(3.04509 0 0)
(3.04493 0 0)
(3.04489 0 0)
(3.04488 0 0)
(3.04485 0 0)
(3.04485 0 0)
(3.04483 0 0)
(3.04486 0 0)
(3.04485 0 0)
(3.04481 0 0)
(3.0448 0 0)
(3.0448 0 0)
(3.0448 0 0)
(3.0448 0 0)
(3.04479 0 0)
(3.04478 0 0)
(3.04478 0 0)
(3.04478 0 0)
(3.04477 0 0)
(3.04477 0 0)
(3.04476 0 0)
(3.04476 0 0)
(3.04475 0 0)
(3.04475 0 0)
(3.04474 0 0)
(3.04474 0 0)
(3.04473 0 0)
(3.04473 0 0)
(3.04472 0 0)
(3.04471 0 0)
(3.0447 0 0)
(3.04469 0 0)
(3.04468 0 0)
(3.04467 0 0)
(3.04467 0 0)
(3.04466 0 0)
(3.04466 0 0)
(3.04466 0 0)
(3.04466 0 0)
(3.04466 0 0)
(3.04466 0 0)
(3.04465 0 0)
(3.04464 0 0)
(3.04463 0 0)
(3.04463 0 0)
(3.04462 0 0)
(3.04462 0 0)
(3.04462 0 0)
(3.04462 0 0)
(3.04462 0 0)
(3.04462 0 0)
(3.04461 0 0)
(3.0446 0 0)
(3.04459 0 0)
(3.04457 0 0)
(3.04456 0 0)
(3.04454 0 0)
(3.04452 0 0)
(3.04451 0 0)
(3.0445 0 0)
(3.04449 0 0)
(3.04448 0 0)
(3.04447 0 0)
(3.04445 0 0)
(3.04443 0 0)
(3.04441 0 0)
(3.04438 0 0)
(3.04435 0 0)
(3.04431 0 0)
(3.04427 0 0)
(3.04423 0 0)
(3.0442 0 0)
(3.04419 0 0)
(3.04419 0 0)
(3.04418 0 0)
(3.04416 0 0)
(3.04413 0 0)
(3.04408 0 0)
(3.04403 0 0)
(3.04397 0 0)
(3.04387 0 0)
(3.04376 0 0)
(3.04364 0 0)
(3.04347 0 0)
(3.04314 0 0)
(3.0426 0 0)
(3.04183 0 0)
(3.04076 0 0)
(3.03919 0 0)
(3.03685 0 0)
(3.03348 0 0)
(3.02872 0 0)
(3.02208 0 0)
(3.01288 0 0)
(3.00035 0 0)
(2.98358 0 0)
(2.9612 0 0)
(2.93188 0 0)
(2.89403 0 0)
(2.84624 0 0)
(2.78661 0 0)
(2.71255 0 0)
(2.62322 0 0)
(2.51686 0 0)
(2.39214 0 0)
(2.24838 0 0)
(2.08612 0 0)
(1.90565 0 0)
(1.70985 0 0)
(1.50099 0 0)
(1.28283 0 0)
(1.07422 0 0)
(0.886503 0 0)
(0.720749 0 0)
(0.577682 0 0)
(0.456703 0 0)
(0.356181 0 0)
(0.274149 0 0)
(0.208341 0 0)
(0.156392 0 0)
(0.115967 0 0)
(0.0849904 0 0)
(0.0615657 0 0)
(0.0441032 0 0)
(0.0312438 0 0)
(0.0218992 0 0)
(0.0151863 0 0)
(0.010424 0 0)
(0.00708225 0 0)
(0.00476413 0 0)
(0.00317418 0 0)
(0.00209434 0 0)
(0.00136909 0 0)
(0.000886639 0 0)
(0.000569089 0 0)
(0.000361974 0 0)
(0.000228261 0 0)
(0.000142688 0 0)
(8.84382e-05 0 0)
(5.43697e-05 0 0)
(3.31453e-05 0 0)
(2.00472e-05 0 0)
(1.20264e-05 0 0)
(7.15794e-06 0 0)
(4.22889e-06 0 0)
(2.47833e-06 0 0)
(1.44212e-06 0 0)
(8.3199e-07 0 0)
(4.77033e-07 0 0)
(2.71595e-07 0 0)
(1.53058e-07 0 0)
(8.62543e-08 0 0)
(4.70579e-08 0 0)
(2.69003e-08 0 0)
(1.45616e-08 0 0)
(7.54086e-09 0 0)
(4.20993e-09 0 0)
(2.18679e-09 0 0)
(1.55619e-09 0 0)
(6.14567e-10 0 0)
(4.12645e-10 0 0)
(5.43598e-10 0 0)
(1.57676e-10 0 0)
(8.5168e-11 0 0)
(1.11893e-10 0 0)
(1.89691e-10 0 0)
(2.5394e-11 0 0)
(-1.09796e-10 0 0)
(1.23018e-10 0 0)
(-1.47434e-10 0 0)
(-2.0662e-10 0 0)
(8.74635e-11 0 0)
(2.66575e-11 0 0)
(-4.04859e-10 0 0)
(-4.02128e-11 0 0)
(1.64078e-10 0 0)
(-2.31925e-10 0 0)
(-2.3858e-10 0 0)
(-6.35986e-11 0 0)
(-6.04547e-11 0 0)
(-5.11904e-10 0 0)
(-4.06917e-11 0 0)
(9.44939e-11 0 0)
(-2.38541e-10 0 0)
(-1.47055e-10 0 0)
(-2.52266e-10 0 0)
(-7.6674e-11 0 0)
(-1.86542e-10 0 0)
(-1.35553e-10 0 0)
(-1.47399e-11 0 0)
(-2.01953e-10 0 0)
(-1.05111e-10 0 0)
(4.01291e-11 0 0)
(-1.19443e-10 0 0)
(-2.46436e-10 0 0)
(-1.48376e-10 0 0)
(-2.35758e-10 0 0)
(-4.71776e-11 0 0)
(5.63799e-11 0 0)
(-1.01822e-10 0 0)
(-7.8033e-11 0 0)
(-1.19127e-10 0 0)
(-5.62829e-11 0 0)
(1.447e-11 0 0)
(-1.20165e-10 0 0)
(3.5894e-11 0 0)
(-3.89381e-11 0 0)
(-2.72726e-10 0 0)
(1.31085e-11 0 0)
(-2.6731e-11 0 0)
(1.98293e-11 0 0)
(2.12865e-10 0 0)
(1.20972e-11 0 0)
(-4.13031e-11 0 0)
(8.94882e-11 0 0)
(1.09298e-10 0 0)
(3.57127e-10 0 0)
(2.35782e-10 0 0)
(-4.47589e-11 0 0)
(2.05866e-10 0 0)
(1.97403e-10 0 0)
(-2.77069e-12 0 0)
(-7.75127e-11 0 0)
(1.40192e-10 0 0)
(5.0617e-11 0 0)
(5.58132e-11 0 0)
(3.21997e-10 0 0)
(1.78595e-11 0 0)
(-1.8101e-11 0 0)
(2.82808e-10 0 0)
(1.45877e-10 0 0)
(2.67097e-10 0 0)
(-2.2938e-11 0 0)
(-6.34986e-10 0 0)
(4.72054e-10 0 0)
(3.46893e-10 0 0)
(-1.75612e-10 0 0)
(-3.87244e-11 0 0)
(-3.0721e-10 0 0)
(1.34072e-10 0 0)
(2.89181e-10 0 0)
(7.92304e-12 0 0)
(3.04238e-10 0 0)
(1.62992e-10 0 0)
(2.98101e-11 0 0)
(3.43482e-10 0 0)
(1.72368e-10 0 0)
(6.1878e-11 0 0)
(2.90027e-11 0 0)
(-1.18668e-10 0 0)
(2.03409e-11 0 0)
(-1.21546e-10 0 0)
(9.1752e-11 0 0)
(1.6361e-10 0 0)
(3.97662e-11 0 0)
(4.19001e-10 0 0)
(2.84671e-10 0 0)
(-9.87505e-12 0 0)
(1.05371e-10 0 0)
(2.80423e-10 0 0)
(4.34065e-10 0 0)
(1.17826e-10 0 0)
(-2.488e-10 0 0)
(-2.16042e-10 0 0)
(3.14296e-12 0 0)
(1.55916e-10 0 0)
(1.94029e-10 0 0)
(2.39425e-10 0 0)
(-3.95217e-11 0 0)
(1.73078e-10 0 0)
(1.88962e-10 0 0)
(2.89705e-10 0 0)
(4.97238e-10 0 0)
(2.90429e-10 0 0)
(-3.91719e-11 0 0)
(4.91875e-11 0 0)
(5.65158e-10 0 0)
(2.12797e-10 0 0)
(6.06492e-11 0 0)
(-1.72708e-10 0 0)
(3.50297e-11 0 0)
(5.05249e-10 0 0)
(-2.4758e-10 0 0)
(-2.0722e-10 0 0)
(2.98257e-10 0 0)
(-5.40218e-11 0 0)
(3.72828e-11 0 0)
(1.64006e-10 0 0)
(-1.08414e-10 0 0)
(1.06709e-10 0 0)
(3.85196e-10 0 0)
(-1.13643e-10 0 0)
(-4.0116e-11 0 0)
(1.6358e-10 0 0)
(-1.2612e-10 0 0)
(1.93704e-10 0 0)
(-2.18036e-10 0 0)
(-4.25365e-10 0 0)
(2.6072e-10 0 0)
(-2.49631e-11 0 0)
(-2.55284e-11 0 0)
(3.47356e-11 0 0)
(-1.9312e-10 0 0)
(-8.86597e-11 0 0)
(5.12861e-11 0 0)
(-2.89212e-11 0 0)
(-9.59921e-11 0 0)
(1.03545e-10 0 0)
(5.97198e-11 0 0)
(-1.42778e-10 0 0)
(-7.80759e-11 0 0)
(-8.93668e-11 0 0)
(2.54382e-11 0 0)
(1.05007e-10 0 0)
(-6.24468e-11 0 0)
(-1.27526e-10 0 0)
(9.37372e-11 0 0)
(3.61086e-11 0 0)
(-8.74744e-11 0 0)
(-2.84116e-11 0 0)
(-1.4146e-10 0 0)
(7.30786e-11 0 0)
(-1.16369e-11 0 0)
(-2.4575e-12 0 0)
(-1.90511e-10 0 0)
(-2.67747e-10 0 0)
(2.28874e-10 0 0)
(1.68163e-10 0 0)
(-2.2562e-10 0 0)
(8.79138e-11 0 0)
(7.9057e-11 0 0)
(2.89014e-10 0 0)
(2.68644e-10 0 0)
(-1.17469e-10 0 0)
(9.00057e-11 0 0)
(3.4973e-10 0 0)
(2.80123e-10 0 0)
(-8.07822e-11 0 0)
(-1.11509e-10 0 0)
(-1.74082e-12 0 0)
(4.26207e-11 0 0)
(2.00108e-10 0 0)
(1.1968e-10 0 0)
(-1.76338e-10 0 0)
(-1.1613e-10 0 0)
(6.56888e-11 0 0)
(1.57045e-11 0 0)
(-8.16579e-11 0 0)
(5.44111e-11 0 0)
(-4.43547e-11 0 0)
(1.49192e-10 0 0)
(2.45343e-10 0 0)
(-2.44844e-10 0 0)
(2.4798e-10 0 0)
(2.94346e-10 0 0)
(7.49594e-11 0 0)
(3.19121e-10 0 0)
(1.23803e-10 0 0)
(-1.74862e-11 0 0)
(3.17205e-10 0 0)
(1.85421e-10 0 0)
(6.95223e-12 0 0)
(3.47144e-10 0 0)
(2.49511e-10 0 0)
(2.81339e-10 0 0)
(3.00951e-10 0 0)
(1.60828e-10 0 0)
(1.31106e-10 0 0)
(1.41196e-10 0 0)
(8.53707e-11 0 0)
(-1.79666e-10 0 0)
(3.32068e-10 0 0)
(2.51581e-10 0 0)
(3.43083e-12 0 0)
(-2.73165e-11 0 0)
(2.52709e-10 0 0)
(3.69782e-10 0 0)
(-1.36686e-10 0 0)
(1.52477e-10 0 0)
(1.72712e-10 0 0)
(2.48985e-10 0 0)
(3.21604e-10 0 0)
(-5.72561e-11 0 0)
(1.46119e-10 0 0)
(4.04961e-10 0 0)
(1.76367e-10 0 0)
(7.03126e-11 0 0)
(4.90579e-11 0 0)
(4.81122e-11 0 0)
(-1.44101e-10 0 0)
(-3.85863e-10 0 0)
)
;

boundaryField
{
    sides
    {
        type            fixedValue;
        value           uniform (0 0 0);
    }
    empty1
    {
        type            empty;
    }
    empty2
    {
        type            empty;
    }
}


// ************************************************************************* //
