/*--------------------------------*- C++ -*----------------------------------*\
| =========                 |                                                 |
| \\      /  F ield         | OpenFOAM: The Open Source CFD Toolbox           |
|  \\    /   O peration     | Version:  2312                                  |
|   \\  /    A nd           | Website:  www.openfoam.com                      |
|    \\/     M anipulation  |                                                 |
\*---------------------------------------------------------------------------*/
FoamFile
{
    version     2.0;
    format      ascii;
    arch        "LSB;label=32;scalar=64";
    class       volScalarField;
    location    "1e-05";
    object      alphat;
}
// * * * * * * * * * * * * * * * * * * * * * * * * * * * * * * * * * * * * * //

dimensions      [1 -1 -1 0 0 0 0];

internalField   nonuniform List<scalar> 
109340
(
0.50740589461599
0.33365547251801
0.17972355946725
0.14811007696186
0.13910119533437
0.13590042611738
0.13116008711826
0.12338111533348
0.11165646413604
0.096672845482102
0.07830469142274
0.058053623562211
0.038388465261153
0.022295389832459
0.011309954208859
0.0051309294188438
0.0023056114968836
0.0010981122165046
0.00063415098426166
0.00037997878701447
0.0002626608268531
0.00019708066795993
0.00015240471467365
0.0001223957031481
0.00010144221938885
8.6570662789758e-05
7.5576837755513e-05
6.7207378661266e-05
6.0758929694972e-05
5.5610167608663e-05
5.1260331678391e-05
4.7207062214969e-05
4.3494642354208e-05
4.0252094913361e-05
3.7874558876622e-05
3.5503831236806e-05
0.50207038145502
0.23385467026735
0.16973110549324
0.15228638918512
0.14555498397138
0.14032783436925
0.1329480742097
0.12222472095624
0.10852390295233
0.091860289762022
0.072690566869658
0.052239359837091
0.033578030611352
0.018788796209742
0.0092438980423432
0.0041461066893012
0.0019011983094776
0.00095536172161093
0.00056196122005802
0.00034824155122335
0.00024875454417056
0.0001880423888739
0.00014690311981702
0.00011850349846772
9.8016752111263e-05
8.2674502212582e-05
7.0965943798261e-05
6.1859713144444e-05
5.4662985651634e-05
4.8706277514678e-05
4.3633911433953e-05
3.9214945686286e-05
3.5361152070264e-05
3.201025205446e-05
2.9542998948003e-05
2.687320830497e-05
0.28807181620077
0.19984606161132
0.16954488993224
0.15645635416136
0.13424094992276
0.11175313556253
0.095496366965323
0.083080877426139
0.073303259830487
0.065320165990477
0.058430335393346
0.051345109716446
0.032794950601156
0.018265719672598
0.0090077742201479
0.0040547014647162
0.0018879814051855
0.0009724476170682
0.00057665643952795
0.00035943029079098
0.0002571187120046
0.00019469844243684
0.00015234533322747
0.00012282809947235
0.00010140212024745
8.5112512051193e-05
7.2569807578404e-05
6.2720752924596e-05
5.4812048809317e-05
4.8248781843746e-05
4.2671528043759e-05
3.7791749160429e-05
3.3587727712388e-05
3.0063914346578e-05
2.7102766138296e-05
2.4462850202057e-05
0.16826495861263
0.17064062948639
0.10765289691677
0.078376206788176
0.061615106950634
0.050747921848495
0.043131255849433
0.03747502830968
0.033082914993813
0.029531924351499
0.02652313021991
0.023860003077185
0.021241576117131
0.017560018855172
0.0085435531051166
0.0038188424213161
0.0017903505058467
0.00094831727436371
0.00057780507756756
0.00036853511970625
0.00026770827331226
0.00020505390053931
0.000161637681338
0.00013085096652784
0.00010792404182848
9.0467334004289e-05
7.6744317119057e-05
6.5949380751169e-05
5.7272146012561e-05
5.0227080604657e-05
4.4102658635956e-05
3.8817263669937e-05
3.4272806664503e-05
3.0498188600169e-05
2.7338030707815e-05
2.4658956568749e-05
0.099969720523441
0.033737864241465
0.020500505787058
0.014853542363323
0.011731642023002
0.0097593186593559
0.0084011287784409
0.0074037711546305
0.0066325528534528
0.0060027618748568
0.005455052175806
0.0049512913090378
0.0044643269105848
0.0039184238259053
0.0032385405148996
0.002385379485909
0.0015411682634222
0.00084125469195564
0.00052549810856519
0.0003466341205113
0.00025726373826779
0.00020252987079347
0.00014439452858754
0.00010541642724476
7.8703728641899e-05
6.0064266722442e-05
4.6978229090342e-05
3.785060265193e-05
3.1516047510383e-05
2.7074109052859e-05
2.3882278817747e-05
2.1465739066036e-05
1.9512103575446e-05
1.7817429614942e-05
1.6263681687627e-05
1.4798587744445e-05
0.00025568075997141
0.00037904294924619
0.00048591737303086
0.00056915823502738
0.00062849690291809
0.00066735168895905
0.00069015882365153
0.00070105204470153
0.00070312369181543
0.00069855075467854
0.00068765882249709
0.0006689055421448
0.00063738870469538
0.00058229260448081
0.00049709715217239
0.00040341558325457
0.00032422433736794
0.000261654565153
0.00021487097001552
0.00017765862245931
0.00015001577833064
0.0001289061097935
0.00011195305811207
9.7990133482662e-05
8.631862059198e-05
7.6513356434459e-05
6.8200254995196e-05
6.1069413047738e-05
5.4867471883241e-05
4.9395968538106e-05
4.4502094633189e-05
4.0081915115858e-05
3.6086831512886e-05
3.2461887308518e-05
2.9152268668814e-05
2.6163242137796e-05
3.1347210662128e-05
3.0981299756385e-05
3.3119262106471e-05
2.9946439566221e-05
2.7224966302799e-05
2.4413672208558e-05
2.0955663430739e-05
1.0974726693248e-05
5.9383252814101e-06
3.3140694144252e-06
1.9457981354826e-06
9.8602679110289e-07
7.5348482698749e-07
3.6887700500528e-06
1.3713526443857e-05
1.2077837843248e-05
1.0589376876482e-05
9.5556115884231e-06
8.1490141678725e-06
6.4408160465998e-06
4.8067779642781e-06
3.7765450329202e-06
3.1590940627975e-06
2.7131000302637e-06
2.209065779819e-06
1.7787705788888e-06
1.6220748257139e-06
2.295225344975e-06
1.0586709469221e-05
1.074938934195e-05
3.53339923875e-07
2.1612927957891e-07
3.2142677914408e-07
4.6605944061791e-07
6.6030612595999e-07
9.1738279643124e-07
1.2566424709089e-06
1.7083187506389e-06
2.3422526176838e-06
3.3102987350906e-06
4.7853844962107e-06
6.6348508107672e-06
8.1630420555624e-06
9.0013322167613e-06
9.0643673215607e-06
8.8791538289409e-06
9.2460601479384e-06
1.0363906078993e-05
1.1959382356704e-05
1.3957141762058e-05
1.6418066436921e-05
1.9226898863408e-05
2.1066180028479e-05
2.0429781837878e-05
1.6398858474891e-05
1.1428423907985e-05
8.1826219079342e-06
6.8456239073115e-06
7.6805726920038e-06
1.1094697036306e-05
1.9986581202455e-05
5.3895706002329e-05
9.8477795550218e-05
9.8498809669529e-05
9.8528690971197e-05
9.8563138048522e-05
9.8599511503593e-05
9.8636569840547e-05
9.8673848825876e-05
9.8711288782761e-05
9.8749008545018e-05
9.8787162643012e-05
9.882586544571e-05
9.7875143084156e-05
8.5285128644522e-05
7.1617897514679e-05
5.9120562180748e-05
4.8263522597772e-05
3.9324206234545e-05
3.2516140257413e-05
2.8075097100801e-05
2.6958956383593e-05
3.6609130291685e-05
9.9622231268741e-05
9.9622879669045e-05
4.0282146541424e-05
1.9218348866421e-05
1.2554557251296e-05
1.0307079753362e-05
1.1286898422471e-05
1.5039558261869e-05
2.2833140510483e-05
3.8917838816917e-05
7.1051190614783e-05
9.9281448593735e-05
9.9263778191639e-05
9.9252483814631e-05
9.9245408246455e-05
9.9241073999427e-05
9.9238488064704e-05
9.9236992789568e-05
9.9236161230486e-05
9.923572357521e-05
9.9235514902613e-05
9.9235427739888e-05
9.9235442249125e-05
9.9235495194536e-05
9.9235575066869e-05
9.923567649772e-05
9.9235797373854e-05
9.9235937262249e-05
9.9236096553294e-05
9.923627601015e-05
9.9236476511599e-05
9.9236698931971e-05
9.9236944069073e-05
9.9237212602716e-05
9.9237505072127e-05
9.9237821861446e-05
9.9238163192626e-05
9.923852912141e-05
9.9238919536772e-05
9.9239334163563e-05
9.9239772567613e-05
9.9240234162534e-05
9.9240718216963e-05
9.9241223859732e-05
9.9241750077692e-05
9.9242295695754e-05
9.9242859319495e-05
9.9243439206042e-05
9.9244033008509e-05
9.9244637315574e-05
9.9245246888442e-05
9.9245853495466e-05
9.9246444276606e-05
9.9246999647741e-05
9.9247490876019e-05
9.9247877596363e-05
9.9248105649168e-05
2.4161625166583e-05
2.4869115053226e-05
2.928012541997e-05
2.6312251271082e-05
2.3252978214976e-05
1.4457461665937e-05
9.6115937150947e-06
6.5182465985989e-06
4.4171059713448e-06
2.8447769832391e-06
1.752604110391e-06
1.078308751188e-06
1.2903981906577e-06
9.8963214377253e-06
1.1492502435597e-05
9.8346716130941e-06
7.4117799532737e-06
5.2566888052894e-06
3.6182303939368e-06
2.438507158839e-06
1.6823464292187e-06
1.2564580509053e-06
1.0104747958462e-06
8.5173092542717e-07
7.0655138621033e-07
6.1648081423673e-07
6.3388410601407e-07
1.8238690792185e-06
1.3259101555506e-05
8.3049524145371e-06
1.8275848531344e-07
2.560531227457e-07
3.7611290650011e-07
5.3883762317353e-07
7.5571966352975e-07
1.0422084378888e-06
1.4210486019584e-06
1.9321617535528e-06
2.6749501971671e-06
3.8524510317936e-06
5.6588676706595e-06
7.7109405937488e-06
9.2779498943598e-06
9.8633479962858e-06
9.5043820501744e-06
9.234663929623e-06
9.7750173479398e-06
1.105019628735e-05
1.2800460563222e-05
1.4990644422031e-05
1.7721028094586e-05
2.0649052544596e-05
2.2022479509057e-05
2.036244582521e-05
1.5362596771113e-05
1.0490024264867e-05
7.6924745572312e-06
6.8107226540822e-06
8.2715574872182e-06
1.2626145854936e-05
2.4334168010972e-05
7.6692676907031e-05
9.8481431128923e-05
9.8505275079682e-05
9.8536707517862e-05
9.8571877313885e-05
9.860856458298e-05
9.8645762895567e-05
9.8683131811765e-05
9.8720671271657e-05
9.8758518218524e-05
9.8796819919616e-05
9.8835674579307e-05
9.5069798654479e-05
8.1761349401537e-05
6.8320421395331e-05
5.6221226877692e-05
4.5835118307944e-05
3.7418942820782e-05
3.1174328253917e-05
2.7370645123799e-05
2.7862222998855e-05
4.4291949040303e-05
9.9625578035237e-05
9.9624350123337e-05
4.2051223328663e-05
1.9175945538687e-05
1.2524722122976e-05
1.0305990831989e-05
1.1269320902639e-05
1.5033395821992e-05
2.2832012048781e-05
3.891788049096e-05
7.1051283545018e-05
9.9281453557999e-05
9.9263782141132e-05
9.9252486517641e-05
9.9245410026419e-05
9.9241075140804e-05
9.9238488774485e-05
9.9236993213706e-05
9.9236161469935e-05
9.9235723698071e-05
9.9235514952832e-05
9.9235427736515e-05
9.923544222194e-05
9.9235495148497e-05
9.9235575009826e-05
9.9235676428985e-05
9.9235797293943e-05
9.9235937171188e-05
9.923609645086e-05
9.9236275896043e-05
9.9236476385514e-05
9.9236698793592e-05
9.9236943918362e-05
9.9237212439545e-05
9.9237504896517e-05
9.9237821673525e-05
9.9238162992678e-05
9.923852890976e-05
9.9238919313856e-05
9.9239333929908e-05
9.9239772323826e-05
9.9240233909286e-05
9.9240717954985e-05
9.92412235898e-05
9.924174980062e-05
9.9242295412379e-05
9.9242859030672e-05
9.9243438912635e-05
9.9244032711384e-05
9.9244637015601e-05
9.924524658649e-05
9.9245853192404e-05
9.9246443973303e-05
9.9246999345044e-05
9.9247490574711e-05
9.924787729704e-05
9.9248105351873e-05
2.1970837445357e-05
2.1721060608235e-05
1.9406909951636e-05
1.1742096638471e-05
8.1344318409107e-06
6.3679503003337e-06
5.3142836340333e-06
4.5050193152597e-06
3.541003361166e-06
2.630822229082e-06
2.2505829526921e-06
1.858506401813e-06
3.244514778289e-06
8.3375910259678e-06
8.8021253870493e-06
5.9635964365462e-06
3.5906170603997e-06
2.2657340454414e-06
1.4729347710478e-06
9.9894512650544e-07
7.2314535803044e-07
5.779024394349e-07
5.0775674994467e-07
4.7107615014726e-07
4.2377100382908e-07
3.8587186916335e-07
3.8746840569018e-07
1.3146367479906e-06
1.3028023054333e-05
7.7364281505145e-06
1.8043889381297e-07
2.6356282938719e-07
3.8577964665975e-07
5.5052638732907e-07
7.6947342126226e-07
1.0582787889572e-06
1.4399130745411e-06
1.955337203179e-06
2.7055930111621e-06
3.8935954085647e-06
5.7080523809224e-06
7.7402948735295e-06
9.2874286409641e-06
9.8603653181026e-06
9.5027979443607e-06
9.2476464054097e-06
9.8025851039561e-06
1.1089134689401e-05
1.2850543615324e-05
1.5051205074136e-05
1.7788000757392e-05
2.0712051971194e-05
2.2058041743505e-05
2.0338711788423e-05
1.5303686672447e-05
1.0444715835637e-05
7.6709149120711e-06
6.8097263896993e-06
8.2911412454278e-06
1.2677198493976e-05
2.4487565985709e-05
7.7261107946445e-05
9.8481011938452e-05
9.8504915897373e-05
9.8536404915589e-05
9.8571639876339e-05
9.8608400652828e-05
9.8645672989201e-05
9.8683109090539e-05
9.8720703772739e-05
9.8758591540416e-05
9.8796918646999e-05
9.8835782611765e-05
9.4937674282701e-05
8.1695109023038e-05
6.82852820549e-05
5.6200266361713e-05
4.5820820385744e-05
3.7407859802574e-05
3.1166656785408e-05
2.7370329284511e-05
2.7870592998915e-05
4.4598906697852e-05
9.9625109998054e-05
9.9626890787972e-05
4.6002673065189e-05
1.9703099341283e-05
1.2525462436181e-05
1.0194329983822e-05
1.1169484740739e-05
1.502189748491e-05
2.2830023180617e-05
3.891654380345e-05
7.1048630821153e-05
9.9281457130222e-05
9.9263785014962e-05
9.9252488492295e-05
9.9245411320254e-05
9.9241075962332e-05
9.9238489277083e-05
9.923699350471e-05
9.9236161622514e-05
9.9235723761198e-05
9.9235514957875e-05
9.9235427695211e-05
9.9235442157257e-05
9.9235495064146e-05
9.9235574907387e-05
9.923567630883e-05
9.9235797155823e-05
9.9235937014552e-05
9.9236096275042e-05
9.9236275700383e-05
9.9236476169389e-05
9.923669855662e-05
9.923694366016e-05
9.9237212160026e-05
9.9237504595712e-05
9.9237821351672e-05
9.923816265021e-05
9.9238528547253e-05
9.9238918932049e-05
9.9239333529698e-05
9.9239771906244e-05
9.9240233475477e-05
9.9240717506193e-05
9.924122312735e-05
9.9241749325897e-05
9.9242294926813e-05
9.9242858535723e-05
9.9243438409777e-05
9.92440322021e-05
9.9244636501374e-05
9.9245246068806e-05
9.9245852672749e-05
9.9246443453149e-05
9.9246998825824e-05
9.9247490057725e-05
9.9247876783228e-05
9.9248104841174e-05
2.1997817352016e-05
1.2132860058087e-05
5.7665563546476e-06
4.6143566919424e-06
4.2621195176727e-06
4.1634058329197e-06
3.9504545251594e-06
3.5473609868178e-06
3.1800831627748e-06
3.1067991804174e-06
2.7525704977215e-06
2.6203457147092e-06
5.8901383003764e-06
6.166294533308e-06
4.5205518899229e-06
2.6989251082844e-06
1.6658929177715e-06
1.1422039015039e-06
8.748556269148e-07
7.4502515989124e-07
6.8890578847381e-07
6.7269827592156e-07
6.6032208454297e-07
6.326017689138e-07
5.809120626503e-07
5.2716532816116e-07
4.7910628816155e-07
1.460456898022e-06
1.2349466936735e-05
7.1502343209899e-06
1.8454694999946e-07
2.7511442255116e-07
4.0021320886286e-07
5.6783237514498e-07
7.8979173970778e-07
1.0820193652107e-06
1.4678305188431e-06
1.9897427852799e-06
2.751356695566e-06
3.9555697836715e-06
5.7835958958356e-06
7.7887655560627e-06
9.3050093142268e-06
9.8595134595461e-06
9.502755547206e-06
9.2662365507997e-06
9.8425615868728e-06
1.1144298259422e-05
1.2919791316774e-05
1.5134728317976e-05
1.7884907421641e-05
2.0802684086361e-05
2.2106897745443e-05
2.0308185599794e-05
1.5222633319582e-05
1.0382946425011e-05
7.6410922638604e-06
6.8089527117214e-06
8.3204446370593e-06
1.2753707123047e-05
2.4719795777103e-05
7.8246113962857e-05
9.8480416026975e-05
9.8504410041871e-05
9.8535982971159e-05
9.8571311430289e-05
9.8608177860829e-05
9.8645558154548e-05
9.8683094187219e-05
9.8720772819152e-05
9.8758723819356e-05
9.8797092428133e-05
9.8835977032987e-05
9.4765607614499e-05
8.1612375752188e-05
6.8247375710475e-05
5.6179829484718e-05
4.5808897135536e-05
3.7400768291387e-05
3.1163717586223e-05
2.7373538382134e-05
2.7884014087022e-05
4.476461000317e-05
9.9625099004454e-05
9.9627688007543e-05
4.6607915822146e-05
1.9668851657154e-05
1.2529133285147e-05
1.0204778995618e-05
1.1154832602784e-05
1.5017007544269e-05
2.2828748514898e-05
3.8915034673623e-05
7.10457041171e-05
9.9281460833571e-05
9.9263787903328e-05
9.9252490494683e-05
9.9245412639549e-05
9.9241076798939e-05
9.9238489785123e-05
9.9236993794634e-05
9.9236161770325e-05
9.9235723817092e-05
9.9235514953728e-05
9.9235427643214e-05
9.9235442081048e-05
9.9235494966453e-05
9.9235574789333e-05
9.9235676170646e-05
9.9235796997116e-05
9.9235936834668e-05
9.9236096073194e-05
9.9236275475798e-05
9.92364759213e-05
9.9236698284631e-05
9.9236943363923e-05
9.9237211839346e-05
9.9237504250638e-05
9.9237820982471e-05
9.923816225735e-05
9.9238528131406e-05
9.9238918494052e-05
9.923933307057e-05
9.9239771427156e-05
9.9240232977736e-05
9.9240716991216e-05
9.9241222596648e-05
9.9241748781051e-05
9.9242294369458e-05
9.9242857967525e-05
9.9243437832423e-05
9.9244031617284e-05
9.9244635910795e-05
9.9245245474163e-05
9.9245852075736e-05
9.9246442855444e-05
9.9246998229044e-05
9.9247489463312e-05
9.9247876192178e-05
9.9248104253336e-05
1.3193669527615e-05
1.020697693392e-05
7.5034187525685e-06
5.8685392777648e-06
4.8991788410163e-06
4.3020217185152e-06
3.819958627059e-06
3.3362443460523e-06
3.0126108921674e-06
3.0092901374048e-06
3.8920511214796e-06
5.2319769584495e-06
5.1961136804105e-06
3.4712142598054e-06
2.4875851450231e-06
1.8522329320003e-06
1.4591887186596e-06
1.3024371718955e-06
1.2741513996255e-06
1.2648257914058e-06
1.1708044424534e-06
1.0596755348935e-06
9.6631797713651e-07
8.8811067734126e-07
8.0972315868504e-07
7.3599671448634e-07
6.4888484594774e-07
2.2570589278501e-06
1.0662874614373e-05
3.0389737661931e-06
1.9508008967509e-07
2.9105740266952e-07
4.1962721297771e-07
5.9088126252379e-07
8.1674769429124e-07
1.1134838751681e-06
1.5048481259781e-06
2.0353730996312e-06
2.8120965973466e-06
4.0383305967499e-06
5.8849218089088e-06
7.8581947230362e-06
9.3301762369671e-06
9.8605557659502e-06
9.5049646467053e-06
9.2915637486875e-06
9.8957825740215e-06
1.121693794203e-05
1.3010249022084e-05
1.5243488770753e-05
1.8011512276494e-05
2.0917866994491e-05
2.2170749894968e-05
2.0268846314854e-05
1.5118883468989e-05
1.0304170954761e-05
7.6029535113474e-06
6.809153824433e-06
8.3599503131494e-06
1.2856477750122e-05
2.5032320657408e-05
7.9597353210406e-05
9.8479673338574e-05
9.8503778486301e-05
9.8535458202981e-05
9.8570905008088e-05
9.8607906438066e-05
9.8645426598384e-05
9.8683093977096e-05
9.8720884900532e-05
9.8758923184141e-05
9.8797352226723e-05
9.883627046609e-05
9.456530732916e-05
8.1522712102172e-05
6.8213153264576e-05
5.6165574431599e-05
4.5802951529375e-05
3.7398521185322e-05
3.1164243323258e-05
2.7378691061737e-05
2.7897281674212e-05
4.4825220837019e-05
9.9625291175301e-05
9.9627893362203e-05
4.6259025098052e-05
1.9657406798196e-05
1.2545883815407e-05
1.0215280688994e-05
1.1148613831256e-05
1.5014886281525e-05
2.2828120764681e-05
3.8913638992363e-05
7.1042643816416e-05
9.928146487406e-05
9.9263790984612e-05
9.9252492642427e-05
9.9245414063038e-05
9.9241077704293e-05
9.9238490335388e-05
9.9236994109192e-05
9.9236161931954e-05
9.9235723880237e-05
9.9235514952381e-05
9.9235427593546e-05
9.9235442008412e-05
9.9235494872424e-05
9.9235574674986e-05
9.923567603638e-05
9.9235796842674e-05
9.9235936659498e-05
9.923609587665e-05
9.9236275257119e-05
9.9236475679815e-05
9.9236698019874e-05
9.923694307556e-05
9.9237211527204e-05
9.9237503914773e-05
9.923782062313e-05
9.923816187498e-05
9.9238527726649e-05
9.9238918067718e-05
9.9239332623636e-05
9.9239770960751e-05
9.9240232493119e-05
9.9240716489756e-05
9.9241222079805e-05
9.9241748250355e-05
9.9242293826489e-05
9.9242857413898e-05
9.9243437269772e-05
9.9244031047252e-05
9.924463533503e-05
9.9245244894309e-05
9.9245851493434e-05
9.9246442272311e-05
9.9246997646624e-05
9.9247488882958e-05
9.9247875614782e-05
9.9248103678707e-05
3.5274923516737e-05
1.5538841577417e-05
7.5306131359215e-06
4.4883913617264e-06
3.1569273240707e-06
2.5139849801971e-06
2.2876112857912e-06
2.3593073734029e-06
2.8190670236272e-06
3.67914312648e-06
4.4691002830603e-06
4.1707507880776e-06
3.2269905749421e-06
2.820771920528e-06
2.5529242618627e-06
2.2256138401494e-06
2.0070864774319e-06
2.0224218940533e-06
1.9077791620881e-06
1.6847512112518e-06
1.4372898685438e-06
1.2436277373527e-06
1.123468590499e-06
1.0452157975329e-06
9.7813355852026e-07
8.8694378003713e-07
8.8422191825598e-07
4.1250871845065e-06
8.7428037234743e-06
6.389298882079e-07
2.117939841497e-07
3.1174643335332e-07
4.4433087178127e-07
6.1992619267386e-07
8.5057910546437e-07
1.1529154354973e-06
1.551262025952e-06
2.0926730239488e-06
2.8885327618503e-06
4.1424335275004e-06
6.0123130732753e-06
7.9479482830265e-06
9.3636063409763e-06
9.8645019940832e-06
9.5104165632901e-06
9.324433005444e-06
9.9624776632891e-06
1.1306866426176e-05
1.3121659983586e-05
1.5377066465161e-05
1.8167790417898e-05
2.1056336807929e-05
2.2248088067772e-05
2.0216658220773e-05
1.4991536895762e-05
1.0209277648372e-05
7.557248470827e-06
6.811347693168e-06
8.4102823833725e-06
1.2986651081494e-05
2.5429407577255e-05
8.1285146671399e-05
9.8478813207063e-05
9.8503044348931e-05
9.8534846155699e-05
9.8570430519863e-05
9.8607591509642e-05
9.8645279863719e-05
9.868310773675e-05
9.8721038079401e-05
9.8759186667783e-05
9.8797694070713e-05
9.8836658654079e-05
9.4336926672207e-05
8.1426542379398e-05
6.818225528952e-05
5.6156410815014e-05
4.5801214791923e-05
3.7399309720903e-05
3.1166539683891e-05
2.7384181940902e-05
2.7908650549883e-05
4.4849243832182e-05
9.9625528328102e-05
9.9628005750976e-05
4.5977305268845e-05
1.9655167529035e-05
1.2558038643421e-05
1.0221115201576e-05
1.1146525308054e-05
1.5014535957802e-05
2.2828003860249e-05
3.8912291350844e-05
7.1039004113872e-05
9.928146935863e-05
9.9263794352883e-05
9.9252494993085e-05
9.9245415626392e-05
9.9241078701967e-05
9.9238490944702e-05
9.9236994460988e-05
9.9236162117464e-05
9.923572395936e-05
9.9235514960019e-05
9.9235427554026e-05
9.9235441951756e-05
9.9235494794631e-05
9.9235574577642e-05
9.9235675920574e-05
9.9235796708698e-05
9.9235936507194e-05
9.9236095705614e-05
9.9236275066788e-05
9.9236475469649e-05
9.9236697789464e-05
9.9236942824633e-05
9.9237211255611e-05
9.9237503622553e-05
9.923782031049e-05
9.9238161542296e-05
9.9238527374469e-05
9.9238917696735e-05
9.9239332234686e-05
9.9239770554801e-05
9.9240232071252e-05
9.924071605315e-05
9.9241221629715e-05
9.9241747788101e-05
9.9242293353434e-05
9.9242856931436e-05
9.9243436779317e-05
9.9244030550227e-05
9.9244634832859e-05
9.9245244388418e-05
9.9245850985237e-05
9.9246441763197e-05
9.9246997137903e-05
9.9247488375755e-05
9.9247875109802e-05
9.9248103175763e-05
7.52398925633e-08
3.6406744857716e-06
6.478163476831e-06
5.8236723813017e-06
4.2433983603388e-06
3.2548196791127e-06
2.9882128470801e-06
3.2077539494014e-06
3.5872527383695e-06
3.8579091689491e-06
3.7971553607987e-06
3.4529697230263e-06
3.3588830957953e-06
3.3867822703848e-06
2.7058521105846e-06
2.3342621487099e-06
2.5267373293979e-06
2.5832497652695e-06
2.3540126439303e-06
1.9824834824449e-06
1.6352970325697e-06
1.3972064049046e-06
1.2623288541921e-06
1.1959426302462e-06
1.1401433285685e-06
1.0451938254895e-06
1.2372636588808e-06
4.9823266196597e-06
7.6496636864079e-06
5.265605443706e-07
2.1245277104708e-07
3.0899503119208e-07
4.3673824343718e-07
6.0540889545828e-07
8.2647810427833e-07
1.1153868987769e-06
1.4946312344857e-06
2.0048794452148e-06
2.7420448032144e-06
3.8912524713423e-06
5.6379797251763e-06
7.5836454063745e-06
9.1754520341732e-06
9.8220564604681e-06
9.628697599032e-06
9.3455808466104e-06
9.7831593060193e-06
1.102465607624e-05
1.275355518913e-05
1.4918052490833e-05
1.7599420390405e-05
2.0587902895045e-05
2.2291165294504e-05
2.1088055208771e-05
1.6258129650739e-05
1.1087985084567e-05
7.96464029226e-06
6.7833388100442e-06
7.8495383754547e-06
1.1546197578087e-05
2.1224823123229e-05
5.9672465203673e-05
9.8473628495262e-05
9.8495238900127e-05
9.8525703221861e-05
9.8560749534929e-05
9.8597821520358e-05
9.8635623755892e-05
9.8673619303943e-05
9.8711687670985e-05
9.874990877768e-05
9.8788419504602e-05
9.8827331799985e-05
9.6703267439841e-05
8.4664685719968e-05
7.1362120817968e-05
5.9008469261689e-05
4.821528368074e-05
3.9306778790771e-05
3.2511187023109e-05
2.8083609662597e-05
2.6958870423522e-05
3.7039635511422e-05
9.9621781679667e-05
9.9628160738364e-05
4.5836667931415e-05
1.9655954680899e-05
1.2565695355875e-05
1.0224662303109e-05
1.1146699764455e-05
1.5015144280704e-05
2.2828268987642e-05
3.8910892252318e-05
7.103449758537e-05
9.9281474467615e-05
9.9263798132565e-05
9.9252497622915e-05
9.9245417375143e-05
9.9241079819124e-05
9.92384916293e-05
9.9236994859995e-05
9.923616233347e-05
9.9235724059672e-05
9.9235514981746e-05
9.9235427516679e-05
9.923544189465e-05
9.9235494707931e-05
9.9235574462087e-05
9.9235675780691e-05
9.9235796545705e-05
9.9235936321415e-05
9.9236095496804e-05
9.9236274834342e-05
9.923647521302e-05
9.9236697508156e-05
9.9236942518286e-05
9.9237210924068e-05
9.9237503265847e-05
9.923781992886e-05
9.9238161136183e-05
9.9238526944513e-05
9.9238917243768e-05
9.9239331759701e-05
9.9239770058955e-05
9.9240231555838e-05
9.9240715519583e-05
9.9241221079505e-05
9.9241747222836e-05
9.9242292774758e-05
9.9242856341034e-05
9.9243436178899e-05
9.9244029941515e-05
9.9244634217579e-05
9.9245243768295e-05
9.9245850361981e-05
9.9246441138471e-05
9.9246996513256e-05
9.9247487752476e-05
9.9247874488648e-05
9.9248102556489e-05
1.139742644868e-09
1.2619023395234e-07
7.522757458055e-07
1.6510918772717e-06
2.5527057401845e-06
3.2054737562755e-06
3.5124050598108e-06
3.7039615006705e-06
3.8757061572993e-06
4.0824526790484e-06
4.2658534950267e-06
3.2916336023243e-06
2.4812283771613e-06
2.8590735559427e-06
3.4187609634645e-06
3.5189285530934e-06
3.1547797855945e-06
2.6310848756359e-06
2.1862294838261e-06
1.8663771280127e-06
1.6554489859903e-06
1.5375059920993e-06
1.48129584725e-06
1.4756860327545e-06
1.6195820288698e-06
2.7294855126575e-06
5.0405622966654e-06
5.7997824118584e-06
5.1651916335394e-07
2.1099855635468e-07
2.9456213783081e-07
4.0638342208996e-07
5.5385914267299e-07
7.4638496478084e-07
9.9662835781259e-07
1.3226150185233e-06
1.7514944277018e-06
2.341786462696e-06
3.2232064028694e-06
4.5914923881484e-06
6.495975799817e-06
8.3334778996855e-06
9.5178242393902e-06
9.9047706046081e-06
9.5594573968292e-06
9.478215134339e-06
1.0248212190281e-05
1.1681473200663e-05
1.3577012405383e-05
1.5918672255787e-05
1.8792846350482e-05
2.1595424602305e-05
2.2523924746685e-05
1.9963493884879e-05
1.4467044704703e-05
9.8378524770081e-06
7.3841594929196e-06
6.8406913790863e-06
8.6359455401998e-06
1.3560414852837e-05
2.7196715399312e-05
8.8484418690173e-05
9.847582899409e-05
9.8500460412773e-05
9.8532635704588e-05
9.8568671874594e-05
9.8606392298258e-05
9.8644703278662e-05
9.8683152116457e-05
9.8721642457829e-05
9.8760249002012e-05
9.8799092251503e-05
9.8838263378478e-05
9.3413880932736e-05
8.1049755998875e-05
6.8069200487955e-05
5.6131636580136e-05
4.5802834369722e-05
3.7408446134455e-05
3.1177299583581e-05
2.7398647379903e-05
2.7940647346493e-05
4.4946931377919e-05
9.9626421388774e-05
9.9628643935306e-05
4.5716612924416e-05
1.9660893367477e-05
1.2575185890642e-05
1.0230454128132e-05
1.1149788256907e-05
1.5018015252163e-05
2.2829511135709e-05
3.8907554553046e-05
7.1022536116507e-05
9.9281486736318e-05
9.9263807057589e-05
9.925250378679e-05
9.9245421460301e-05
9.9241082426593e-05
9.9238493230996e-05
9.9236995802332e-05
9.9236162857562e-05
9.9235724324912e-05
9.9235515087141e-05
9.9235427532923e-05
9.9235441868783e-05
9.9235494651144e-05
9.9235574381932e-05
9.9235675681281e-05
9.9235796428764e-05
9.9235936187644e-05
9.9236095346283e-05
9.9236274666798e-05
9.9236475028124e-05
9.9236697305542e-05
9.9236942297684e-05
9.9237210685336e-05
9.9237503008981e-05
9.9237819653992e-05
9.9238160843586e-05
9.9238526634599e-05
9.9238916917081e-05
9.9239331416907e-05
9.9239769700827e-05
9.9240231183255e-05
9.924071513351e-05
9.924122068098e-05
9.9241746812954e-05
9.9242292354663e-05
9.9242855911901e-05
9.9243435741926e-05
9.9244029497913e-05
9.9244633768569e-05
9.9245243315089e-05
9.9245849905777e-05
9.9246440680416e-05
9.9246996054387e-05
9.924748729362e-05
9.9247874030268e-05
9.9248102098543e-05
1.059511567454e-10
3.2516098640201e-08
2.6863540956402e-07
5.3100611981573e-07
8.0485065588583e-07
1.1117159081555e-06
1.402559604562e-06
1.5958142843058e-06
1.6946839830157e-06
1.7913838857531e-06
2.1520635870261e-06
2.8678594494224e-06
3.5723563343228e-06
3.8875162528787e-06
3.8309682467622e-06
3.5014238751029e-06
2.9733732621647e-06
2.4286041178657e-06
2.0830124056408e-06
1.9642462851815e-06
1.9233855306039e-06
1.9444014679843e-06
2.1026022499713e-06
2.5454685552551e-06
3.350132079603e-06
4.4911092020711e-06
4.5572347603058e-06
4.633559303583e-07
2.2041268885847e-07
2.8584982131189e-07
3.7823019417545e-07
4.9997483250512e-07
6.5982827862298e-07
8.6757407624284e-07
1.1357365038531e-06
1.4836620445531e-06
1.9424026027184e-06
2.5824995468003e-06
3.5482050795228e-06
5.0307620362181e-06
6.85877448812e-06
8.6661839441285e-06
9.6702907959674e-06
9.9684059778577e-06
9.6330522048829e-06
9.6399667011769e-06
1.0516766418501e-05
1.2020991701664e-05
1.397940226563e-05
1.6390080160214e-05
1.9322419539642e-05
2.2018013895813e-05
2.270072630634e-05
1.9668720083593e-05
1.4002775334757e-05
9.5308048789286e-06
7.2499588381581e-06
6.8929476608571e-06
8.8616238126946e-06
1.4123537115564e-05
2.8969933259864e-05
9.5002000293844e-05
9.8473826025883e-05
9.8498675912806e-05
9.8531023625372e-05
9.8567309350076e-05
9.8605393069345e-05
9.864415574167e-05
9.8683092542963e-05
9.8722051221067e-05
9.876106103726e-05
9.8800213889145e-05
9.8839582392377e-05
9.2522678588633e-05
8.0679979060418e-05
6.7948920300665e-05
5.6101856333807e-05
4.580265887656e-05
3.741702869972e-05
3.1187442854258e-05
2.7409653983499e-05
2.7967276964604e-05
4.5058196386153e-05
9.9627195410955e-05
9.9629314673158e-05
4.5675648699283e-05
1.9665669255316e-05
1.2582272626695e-05
1.0236623651928e-05
1.1154927885724e-05
1.5022257955421e-05
2.2831254842158e-05
3.8903124853442e-05
7.1006509307878e-05
9.9281501783272e-05
9.9263817833345e-05
9.9252511157459e-05
9.9245426316297e-05
9.9241085516051e-05
9.9238495128547e-05
9.9236996924699e-05
9.9236163492888e-05
9.9235724663865e-05
9.9235515251242e-05
9.9235427585334e-05
9.9235441874124e-05
9.9235494627656e-05
9.9235574339378e-05
9.9235675624782e-05
9.9235796360643e-05
9.9235936108944e-05
9.923609525736e-05
9.9236274567706e-05
9.9236474918702e-05
9.9236697185591e-05
9.9236942167043e-05
9.923721054391e-05
9.9237502856744e-05
9.9237819490997e-05
9.9238160669963e-05
9.9238526450559e-05
9.9238916722911e-05
9.9239331212968e-05
9.9239769487543e-05
9.924023096111e-05
9.9240714903041e-05
9.9241220442771e-05
9.9241746567626e-05
9.9242292102866e-05
9.9242855654309e-05
9.924343547923e-05
9.9244029230816e-05
9.9244633497777e-05
9.9245243041312e-05
9.9245849629709e-05