/*--------------------------------*- C++ -*----------------------------------*\
| =========                 |                                                 |
| \\      /  F ield         | OpenFOAM: The Open Source CFD Toolbox           |
|  \\    /   O peration     | Version:  2312                                  |
|   \\  /    A nd           | Website:  www.openfoam.com                      |
|    \\/     M anipulation  |                                                 |
\*---------------------------------------------------------------------------*/
FoamFile
{
    version     2.0;
    format      ascii;
    arch        "LSB;label=32;scalar=64";
    class       volScalarField;
    location    "1e-05";
    object      cSound;
}
// * * * * * * * * * * * * * * * * * * * * * * * * * * * * * * * * * * * * * //

dimensions      [0 1 -1 0 0 0 0];

internalField   nonuniform List<scalar> 
109340
(
487.07992706154
465.7025686145
437.43164615198
404.29302090885
368.30691860855
330.40289054264
291.50195036294
252.50896998892
214.35897480073
178.10587240322
144.66582981341
114.92007998896
89.203126174034
67.805080773835
51.158203013938
39.794601495837
33.514079671448
30.977552596525
30.52550534704
30.990293226025
31.804281920794
32.742960521639
33.688424184221
34.599556723982
35.463065527652
36.275814105397
37.039322331175
37.754528309059
38.424457911556
39.052466806321
39.64116033196
40.19312458614
40.711560430512
41.200212479365
41.662172213827
42.100571535247
482.36140073812
459.1795593253
429.56785553253
396.04638430285
359.80606366644
321.73957295847
282.83512919831
243.91721012449
205.98139086358
170.11726123048
137.258450925
108.26364972805
83.461384096408
63.135804072393
47.757891854007
37.75349077894
32.609710641597
30.740128531641
30.625984357043
31.182809753902
32.031064704687
32.975089885367
33.912957757828
34.812088234225
35.662100517808
36.461087497614
37.21045130289
37.912973482669
38.571422257445
39.188467773482
39.767097713062
40.309861092691
40.819883659746
41.300747362728
41.755329365111
42.184003362846
483.05318157427
459.09422066408
429.93595694033
396.96350075528
361.25806930204
323.44392235312
284.65763284733
245.73284072336
207.62590681442
171.36233401058
137.9228493031
108.48135912267
83.47760185584
63.068708534218
47.674664989792
37.707117437383
32.600986129807
30.744718447908
30.629541526147
31.182322123259
32.027533299348
32.970335885487
33.908706190407
34.808272069881
35.65894802948
36.45816810646
37.207733717046
37.910356763109
38.568863411675
39.185875004994
39.76449062326
40.307567783959
40.817744802026
41.298451625456
41.752082166615
42.180265432152
484.12769268313
460.08694700201
431.5940086211
399.06727041297
363.52174481291
325.96013473928
287.28424281501
248.43194959155
210.30308759858
173.81143917172
139.78973051653
109.43212164763
83.626327173969
62.912832207063
47.537032556731
37.64669599117
32.596115194431
30.763374858247
30.633843037777
31.178257393795
32.01818458578
32.95862277665
33.897579766155
34.799282701946
35.651922720381
36.452945732171
37.203493236095
37.906481976814
38.565137495914
39.182890132064
39.762155282172
40.305577363507
40.816328154746
41.29761808986
41.752083747526
42.181160038468
486.91385965818
462.86534400374
433.88747184783
401.42543231876
366.17575014642
328.93188254791
290.55630374303
251.92853079641
213.9026925472
177.30903368016
142.89576673841
111.75183123883
84.824275941489
63.042913481182
47.224687139683
37.46132236085
32.574409327847
30.790893655764
30.656523298955
31.191323548027
32.023646448942
32.96059314487
33.901181748394
34.80743623423
35.666534069119
36.476336017381
37.239081760892
37.958528444512
38.639249107214
39.284830521165
39.898976170689
40.486659192958
41.048970357977
41.589601948018
42.112032141797
42.616133266898
492.41973418381
465.96831495312
435.81199720025
401.68472593025
364.30113034949
324.62156255196
283.74856670514
242.79205714664
202.79946601819
164.6908686219
129.43194106597
98.222628969559
72.227012399167
52.747743843154
40.865690209681
34.950679124795
32.442512752002
31.805174058139
32.179661870446
33.04725158427
34.158823382855
35.400169897611
36.679985838922
37.962088749473
39.230633046611
40.482589626868
41.717466425778
42.939157383872
44.159458215532
45.388346604794
46.636526081286
47.912641589621
49.223013607389
50.569633541069
51.933941526354
53.294105090977
42.512326861161
42.904403771863
43.294053976511
43.686030023376
44.08636340346
44.507031349893
44.965623003433
45.480662735237
46.069754450221
46.754551188398
47.562218945356
48.50056199522
49.577779946835
51.828310747771
55.804880589662
59.781498206244
63.748654443379
67.843493799612
72.038407412757
76.134266686748
79.989313987065
83.683192203331
87.421808064972
91.346777838173
95.453526292807
99.771424695399
104.7278105918
111.58656118339
129.55930025754
197.29708132009
206.95107719224
206.25027946351
205.90920572989
205.65352704983
205.464940226
205.32635067762
205.22478028377
205.15100487397
205.09913312637
205.06623337252
205.04995295164
205.04593976853
205.04744993586
205.04868005616
205.04606288344
205.03834777968
205.02729154649
205.01591232212
205.0056816935
204.99701789183
204.99000587313
204.98462616437
204.9804137005
204.97619495625
204.97009391487
204.95907262792
204.9403535719
204.91397051588
204.88547240942
204.8631133872
204.84924212248
204.84279711338
204.84123072216
204.84126887724
204.84211094991
204.84342596181
204.84498543403
204.84666711413
204.84841889833
204.85022917059
204.85210658749
204.85406675768
204.8561237148
204.85828517801
204.86065216162
204.86341117015
204.86671394432
204.87072779115
204.87564436621
204.8816371213
204.88874953164
204.89669320297
204.90391706938
204.90778557518
204.90863897794
204.90652253652
204.8992305678
204.88521724396
204.86577867564
204.84507137272
204.82844831243
204.81678389431
204.80954416104
204.80548344202
204.8031880839
204.80166504838
204.80066278363
204.8000216961
204.79962261193
204.7993811295
204.79923926356
204.79915839586
204.79911367402
204.7990896982
204.79907492168
204.79906987108
204.79906733928
204.7990660844
204.79906547677
204.79906518735
204.79906505186
204.79906498913
204.79906496094
204.7990649468
204.79906494189
204.79906493927
204.79906493927
204.79906493927
204.79906493927
204.79906493927
204.79906493927
204.79906493927
204.79906493927
204.79906493927
204.79906493927
204.79906493927
204.79906493927
204.79906493927
204.79906493927
204.79906493927
204.79906493927
204.79906493927
204.79906493927
204.79906493927
204.79906493927
204.79906493927
204.79906493927
204.79906493927
204.79906493927
204.79906493927
42.588043375325
42.975200705236
43.358597706715
43.741153488674
44.125858166723
44.530809418102
44.987442307022
45.522483662513
46.150575754427
46.886039832313
47.742053237683
48.731749403453
49.993404522735
52.575534449898
56.169855749213
60.091973204441
64.178186582363
68.528366149004
73.073638875811
77.615466861494
82.074943673935
86.654914227715
91.61548157568
97.002277224426
102.53631256988
108.13831182592
113.81771539941
119.97196020814
143.62634269711
207.03491650912
206.59432980282
206.12306491853
205.81811092169
205.58853766359
205.41838656356
205.29279305201
205.20058427277
205.13378997651
205.08760653069
205.05964427649
205.04728071375
205.04548748793
205.04752530777
205.04807916212
205.04418818962
205.03543495274
205.02409995606
205.01300612564
205.00321822787
204.9950269207
204.98848071912
204.98350126086
204.97943184829
204.97496313978
204.96790805206
204.95510128716
204.93422297244
204.90644751227
204.87896278542
204.85872962359
204.84691465712
204.84206630188
204.84108824491
204.84137376431
204.84236634599
204.84376481383
204.84536910239
204.84707735217
204.84884944441
204.85068011106
204.85258072995
204.85456710452
204.85665179743
204.85884836874
204.86130017922
204.86418141322
204.86764552129
204.87186672767
204.87703867014
204.88331579388
204.89068493626
204.89867422896
204.90529299527
204.90822189519
204.90864284967
204.90652879305
204.89921089046
204.88519406447
204.86581792709
204.84508802985
204.82845029429
204.81678449662
204.80954459808
204.80548375835
204.80318851838
204.80166539497
204.80066302962
204.80002186295
204.79962272141
204.79938119905
204.7992393063
204.79915842123
204.79911368857
204.79908970609
204.79907492547
204.7990698732
204.79906734021
204.79906608497
204.79906547706
204.79906518748
204.79906505193
204.79906498916
204.79906496096
204.79906494681
204.7990649419
204.79906493927
204.79906493927
204.79906493927
204.79906493927
204.79906493927
204.79906493927
204.79906493927
204.79906493927
204.79906493927
204.79906493927
204.79906493927
204.79906493927
204.79906493927
204.79906493927
204.79906493927
204.79906493927
204.79906493927
204.79906493927
204.79906493927
204.79906493927
204.79906493927
204.79906493927
204.79906493927
204.79906493927
204.79906493927
42.584809076796
42.972917382125
43.349885054857
43.710938845298
44.066023518789
44.449631549556
44.90008396682
45.443157430521
46.08329714701
46.829623781503
47.697783591386
48.729792765081
50.23095787238
52.698111972441
56.190004731073
60.252698435245
64.817827114303
70.159813158314
76.276842802646
82.78295382257
89.499059416185
96.779920144846
104.78814888668
112.99323495451
120.54540617477
127.20760949668
131.9729338077
131.393110893
149.53022345442
207.64650940182
206.48593378534
206.07569780456
205.7892153395
205.57055892012
205.40689047842
205.28522912635
205.19547275737
205.13027996221
205.08520463327
205.05802014147
205.04617134774
205.04466880903
205.04685696292
205.04746447568
205.04360901069
205.03491108451
205.02366914984
205.01268369148
205.00300009376
204.99490016508
204.98842887926
204.98350683001
204.97946606034
204.97499352256
204.96788983853
204.95499006658
204.93400422266
204.90616304861
204.87870421845
204.85853211203
204.84677594289
204.84197414851
204.8410106999
204.84130420803
204.84230502249
204.84371213194
204.84532570094
204.84704321894
204.84882391711
204.85066208257
204.85256880954
204.85455984341
204.85664777338
204.8588468433
204.86130053011
204.86418246587
204.86764672337
204.8718678483
204.87703960559
204.88331655737
204.89068594536
204.89867719369
204.90530162543
204.90823450836
204.90864728717
204.90653608865
204.89912950463
204.88514911589
204.86589166
204.84511879885
204.82845329469
204.81678526108
204.80954507879
204.80548409652
204.80318887472
204.80166568854
204.80066324048
204.80002200605
204.79962281487
204.79938125802
204.79923934229
204.79915844248
204.79911370067
204.79908971264
204.79907492842
204.79906987486
204.79906734112
204.79906608546
204.7990654773
204.7990651876
204.79906505199
204.79906498918
204.79906496097
204.79906494682
204.79906494177
204.79906493927
204.79906493927
204.79906493927
204.79906493927
204.79906493927
204.79906493927
204.79906493927
204.79906493927
204.79906493927
204.79906493927
204.79906493927
204.79906493927
204.79906493927
204.79906493927
204.79906493927
204.79906493927
204.79906493927
204.79906493927
204.79906493927
204.79906493927
204.79906493927
204.79906493927
204.79906493927
204.79906493927
204.79906493927
42.587513700691
42.9679383612
43.309528387292
43.627851368704
43.962753550249
44.354069572621
44.824217603625
45.381908491731
46.029610665023
46.779214393436
47.670132732232
48.833434777242
50.52787463107
53.167755218505
57.441509760068
63.232461378533
70.77005995797
81.052854477613
93.742577223306
106.91964516812
119.21727470393
130.56787165991
141.08841101146
149.8616275886
156.13885548892
160.35355048137
159.55269166616
146.65886696076
159.8176232753
207.88826732375
206.35153206839
206.01141992247
205.74962784637
205.5457008981
205.39087477614
205.27462915774
205.18827946318
205.12532414899
205.08181334291
205.05573435031
205.04461562584
205.04351523426
205.0459100969
205.04659351553
205.04278723708
205.03416529976
205.02305455811
205.01222310093
205.00268771417
204.99471765591
204.98835405569
204.98351224569
204.97951171753
204.97503408881
204.96786057681
204.95482776048
204.93368893705
204.90575083718
204.87833275124
204.85824968961
204.84657938262
204.84184354896
204.840899706
204.84120442668
204.84221686926
204.84363619341
204.8452629029
204.84699362997
204.84878668557
204.85063563536
204.8525511609
204.8545489028
204.85664154168
204.85884402876
204.86130033656
204.86418327891
204.86764778512
204.87186885003
204.87704038968
204.88331715186
204.89068701927
204.89868018274
204.90530687625
204.90824159809
204.90865639422
204.90652277008
204.89909181711
204.88513186352
204.86591808026
204.84513304524
204.82845540283
204.81678601018
204.80954557153
204.80548444207
204.80318919872
204.80166595388
204.80066343245
204.80002213686
204.79962290032
204.79938131183
204.79923937502
204.7991584617
204.79911371152
204.79908971843
204.79907493096
204.79906987638
204.799067342
204.79906608593
204.79906547755
204.79906518773
204.79906505205
204.79906498921
204.79906496099
204.79906494681
204.79906494177
204.79906493927
204.79906493927
204.79906493927
204.79906493927
204.79906493927
204.79906493927
204.79906493927
204.79906493927
204.79906493927
204.79906493927
204.79906493927
204.79906493927
204.79906493927
204.79906493927
204.79906493927
204.79906493927
204.79906493927
204.79906493927
204.79906493927
204.79906493927
204.79906493927
204.79906493927
204.79906493927
204.79906493927
204.79906493927
43.093094755233
43.394748549244
43.536402241609
43.708667666963
43.978033647455
44.342891172603
44.802661701588
45.357306274857
46.011063225944
46.787069460496
47.76734071979
49.087332546666
51.1733431759
55.644850962373
65.065344752788
79.319010104339
98.419745829592
122.96741382724
148.4337928123
166.09539962917
176.62622548881
183.47979473961
188.16441220755
191.22312650902
192.65074604343
192.06100159344
185.72474435866
159.19756459811
175.27705824161
207.44680876694
206.2104568144
205.93413436343
205.70129821656
205.51496639005
205.37087064035
205.26128793924
205.17917595993
205.11902672757
205.07749649714
205.05283326724
205.04264941825
205.04205128536
205.04470070524
205.04547583058
205.04173017845
205.03320357195
205.02226074315
205.0116264369
205.00228049731
204.99447662103
204.98825172104
204.98351157529
204.97956244568
204.97507844784
204.9678136815
204.9546089046
204.93327354203
204.90521232981
204.87785155978
204.85788628352
204.84632845787
204.84167712784
204.84075744527
204.84107589835
204.84210281272
204.84353749221
204.8451808403
204.84692845225
204.84873743378
204.85060038332
204.85252742315
204.85453402417
204.85663289871
204.85883989693
204.86129967958
204.86418407028
204.86764903216
204.87187013501
204.87704149253
204.88331800945
204.8906882243
204.89868263339
204.90530824293
204.90824093302
204.90865572432
204.90649882255
204.8990668133
204.88511905806
204.86593147385
204.84514033114
204.82845674195
204.81678673289
204.80954611054
204.80548483788
204.80318954077
204.80166622748
204.8006636303
204.80002227195
204.79962298868
204.79938136746
204.79923940879
204.79915848147
204.79911372263
204.79908972416
204.79907493345
204.79906987808
204.79906734301
204.79906608648
204.79906547784
204.79906518787
204.79906505212
204.79906498923
204.79906496101
204.79906494682
204.79906494177
204.79906493927
204.79906493927
204.79906493927
204.79906493927
204.79906493927
204.79906493927
204.79906493927
204.79906493927
204.79906493927
204.79906493927
204.79906493927
204.79906493927
204.79906493927
204.79906493927
204.79906493927
204.79906493927
204.79906493927
204.79906493927
204.79906493927
204.79906493927
204.79906493927
204.79906493927
204.79906493927
204.79906493927
204.79906493927
52.904895501761
48.581725568193
46.07486150701
44.983528887367
44.629048584262
44.685720208937
45.00401357807
45.494470439818
46.152396963824
47.012257982561
48.209782093781
50.315472398
55.36726133254
68.891886133416
96.768863919683
135.22632717207
171.01242160052
195.44073025346
207.73730825937
212.53062295935
214.24527743487
214.87579788707
215.0284680075
214.7988016372
213.69271113336
210.93684504867
198.96546175195
166.42623945049
195.17626117797
206.7087467724
206.06860208589
205.84821393173
205.64651216334
205.47955059085
205.34752743576
205.24557301051
205.168380847
205.11152594203
205.07234300892
205.04937535035
205.04031961021
205.04030714613
205.04324835749
205.04412507956
205.04044884913
205.03203510917
205.02129447518
205.01089729827
205.00177890881
204.99417492762
204.98811733687
204.98349927711
204.97961166901
204.97511867246
204.96774191875
204.95432736225
204.93275420467
204.90454841509
204.8772641949
204.85744640377
204.84602726381
204.84147812826
204.84058651325
204.84092062031
204.84196411781
204.84341671488
204.84507972311
204.84684755614
204.84867584125
204.85055594039
204.85249721424
204.85451485302
204.85662155204
204.85883435092
204.86129857933
204.86418493146
204.86765057998
204.87187180487
204.87704296752
204.88331911184
204.89068936089
204.8986842205
204.90530709216
204.90823578687
204.90864826185
204.90647847939
204.89904736469
204.88511064776
204.86593651321
204.84514321726
204.82845753519
204.81678747827
204.80954673676
204.8054853057
204.80318992204
204.80166652572
204.80066384463
204.8000224179
204.7996230839
204.79938142728
204.79923944504
204.79915850266
204.79911373447
204.79908973007
204.79907493621
204.79906988054
204.7990673445
204.79906608727
204.79906547824
204.79906518807
204.7990650522
204.79906498926
204.79906496102
204.79906494682
204.79906494177
204.79906493927
204.79906493927
204.79906493927
204.79906493927
204.79906493927
204.79906493927
204.79906493927
204.79906493927
204.79906493927
204.79906493927
204.79906493927
204.79906493927
204.79906493927
204.79906493927
204.79906493927
204.79906493927
204.79906493927
204.79906493927
204.79906493927
204.79906493927
204.79906493927
204.79906493927
204.79906493927
204.79906493927
204.79906493927
153.13689900582
59.743572534597
52.716589086997
49.046775628348
47.099753454948
46.226412023617
46.076249757979
46.364472432805
47.065167881344
48.35492114469
50.893420760855
56.891883310242
72.410090802436
106.90232741369
162.29866037841
202.98948570698
216.63877882868
218.57773237488
217.69025175023
217.08621027993
217.11327129395
217.73039111947
218.77662540071
219.80259478676
220.35099948058
218.96424457402
203.54497271775
174.07655836979
200.86347700989
206.48504760773
205.96702748923
205.80236881343
205.62835319981
205.47482485912
205.34882497243
205.2491066536
205.17222634842
205.11466106087
205.07409050879
205.04932108499
205.0385665718
205.03772404731
205.04084655278
205.04264746234
205.04036145385
205.03306634512
205.02281937947
205.01247090625
205.00326148665
204.9955128806
204.98927081552
204.98448469361
204.9806107351
204.97644046387
204.96996738405
204.95812361329
204.9383491935
204.91117879757
204.88278868257
204.86102785639
204.84777988659
204.84184045675
204.84046127955
204.84057171042
204.84148841907
204.84288075728
204.84452574961
204.84629645968
204.84813425196
204.85002184988
204.85196429541
204.85397564248
204.8560697427
204.85825649525
204.86064631843
204.86341582135
204.86672237689
204.87073708689
204.87565290263
204.88164410439
204.8887574499
204.89670640357
204.90393709328
204.90779832437
204.9086377282
204.90646155183
204.89903151533
204.8851021081
204.86593593897
204.84514344557
204.82845799359
204.8167882854
204.80954747569
204.80548585233
204.8031903503
204.80166685576
204.800664081
204.80002257875
204.79962318879
204.79938149309
204.79923948486
204.79915852589
204.79911374744
204.79908973656
204.79907494042
204.79906988494
204.79906734473
204.79906608872
204.79906547895
204.79906518842
204.79906505237
204.79906498932
204.79906496105
204.79906494684
204.79906494177
204.79906493927
204.79906493927
204.79906493927
204.79906493927
204.79906493927
204.79906493927
204.79906493927
204.79906493927
204.79906493927
204.79906493927
204.79906493927
204.79906493927
204.79906493927
204.79906493927
204.79906493927
204.79906493927
204.79906493927
204.79906493927
204.79906493927
204.79906493927
204.79906493927
204.79906493927
204.79906493927
204.79906493927
204.79906493927
228.62948685004
206.63865163393
139.0208829212
104.96486376609
88.654470171822
81.305369480092
79.379448578005
80.990593695463
87.786646013876
102.42856657727
128.44027163096
167.09702770864
208.66818900383
219.06831104321
213.46519976691
210.87747093811
210.44057025428
210.75273371556
211.66807305423
213.22418999998
214.96944675561
216.32308982633
217.72990957329
219.35592921308
216.43270923839
196.52183987648
187.21649677507
205.81757606015
206.0181298737
205.69526589578
205.67194426584
205.57850782635
205.46529536312
205.35755038112
205.26452502506
205.18834738019
205.12840014428
205.0834682941
205.05299182464
205.03641289299
205.03168852149
205.03377573068
205.03767999189
205.03885609273
205.03540132637
205.02740996616
205.01745364452
205.00796781379
204.99972115908
204.99288452555
204.98747151357
204.98332838292
204.97967068796
204.97512732609
204.96728958991
204.95303100859
204.93052551011
204.90181464633
204.87490806907
204.85572233725
204.84487449879
204.84072656077
204.83993371112
204.84031979661
204.84141763381
204.84293194935
204.84466580273
204.84650968693
204.84841332197
204.85036251906
204.85236270976
204.85442709608
204.85656762035
204.85880721206
204.86129147175
204.86418735938
204.86765674739
204.87187884766
204.87704925027
204.88332351088
204.89069171965
204.89868351814
204.90529389422
204.90820791229
204.90861184681
204.90642917815
204.89900127194
204.88508149951
204.8659262574
204.84514030542
204.8284584333
204.81679021937
204.8095493383
204.80548720653
204.80319137432
204.80166763114
204.80066463131
204.80002295125
204.79962343078
204.79938164444
204.79923957615
204.79915857902
204.79911377715
204.79908975201
204.79907494752
204.79906988924
204.79906734708
204.79906608991
204.79906547947
204.7990651887
204.79906505253
204.79906498944
204.7990649611
204.79906494685
204.79906494178
204.79906493927
204.79906493927
204.79906493927
204.79906493927
204.79906493927
204.79906493927
204.79906493927
204.79906493927
204.79906493927
204.79906493927
204.79906493927
204.79906493927
204.79906493927
204.79906493927
204.79906493927
204.79906493927
204.79906493927
204.79906493927
204.79906493927
204.79906493927
204.79906493927
204.79906493927
204.79906493927
204.79906493927
204.79906493927
225.5279897137
216.2972048583
217.62131473687
221.03005797809
219.75056979518
215.01667514932
210.35959051988
209.58783402538
212.55137880209
216.78257532579
216.66390821377
212.60272515166
208.7449796843
207.58095026165
207.57315854585
207.77517414975
207.88974696952
207.78887068077
207.87952455618
208.89218257641
210.61048775508
211.05843893836
208.33685429816
201.13976281309
196.20672320189
200.5299265034
206.50922925079
205.39801691392
205.29795908798
205.43400970882
205.45663143011
205.41592257412
205.34768157997
205.27375713216
205.20497885498
205.14593043346
205.09808597073
205.06194594721
205.0381211857
205.02649547621
205.02493896259
205.02874137268
205.03322998212
205.03453868937
205.0312004917
205.0235389126
205.01422195731
205.005464867
204.99791112213
204.99168626265
204.98679130444
204.98302472858
204.97955121182
204.97494578623
204.9666891651
204.95169925519
204.92842487215
204.89938787456
204.87289061857
204.85429704343
204.84395840162
204.84014365198
204.83941930463
204.83983764494
204.84096735947
204.84252097857
204.84430426016
204.84620557064
204.84816989851
204.85017776778
204.85223021001
204.8543375887
204.8565100141
204.85877745115
204.86128151804
204.86418754475
204.86766143561
204.87188482978
204.87705469033
204.88332715276
204.89069261128
204.89867956189
204.90527927348
204.90818312221
204.90858240719
204.90639565886
204.89896793456
204.88505435161
204.86590963976
204.84513442385
204.82845874594
204.81679269678
204.8095517314
204.80548890738
204.80319262688
204.80166856499
204.80066528735
204.80002339222
204.79962371574
204.79938182191
204.79923968282
204.79915864092
204.79911381185
204.79908977077
204.79907495597
204.7990698937
204.79906734943
204.7990660911
204.79906548003
204.79906518898
204.79906505268
204.79906498952
204.79906496114
204.79906494687
204.79906494178
204.79906493927
204.79906493927
204.79906493927
204.79906493927
204.79906493927
204.79906493927
204.79906493927
204.79906493927
204.79906493927
204.79906493927
204.79906493927
204.79906493927
204.79906493927
204.79906493927
204.79906493927
204.79906493927
204.79906493927
204.79906493927
204.79906493927
204.79906493927
204.79906493927
204.79906493927
204.79906493927
204.79906493927
204.79906493927
225.97405076152
213.87617007906
208.04632191929
206.74895235911
207.23632451017
208.03429573252
208.48706516825
208.33701810143
207.65236330813
206.81827900197
206.25537926662
206.0576913516
206.05651129016
206.11845598659
206.2130178809
206.32159122072
206.35910529743
206.15351376219
205.55692104357
204.51799745872
203.3610865075
202.50924701779
202.54064856072
204.33237244509
205.56691963091
205.14708091305
204.72593179748
204.91491497769
205.12563842167
205.2458903453
205.28782072308
205.27839553229
205.2421349793
205.19503717035
205.14697494814
205.10345640435
205.06716224069
205.0398252879
205.02286469254
205.01650222489
205.01796759258
205.02350198848
205.02843318872
205.02977536227
205.02649898229
205.01918991688
205.01057378341
205.00259874717
204.99578378721
204.99021357139
204.98587722087
204.9825112613
204.97922933963
204.97451955886
204.96574605907
204.9498980613
204.92577411664
204.89648992276
204.87056347463
204.85270930843
204.84298176202
204.83953795661
204.83887914963
204.83932305766
204.84047438679
204.84205791728
204.84388435528
204.84584140056
204.84786950519
204.84994296333
204.85205677607
204.85421667379
204.85642933503
204.85873479392
204.86126465561
204.86418485996
204.86766556507
204.87189133793
204.87706082664
204.88333109032
204.89069293457
204.89867367451
204.90526096365
204.90815376335
204.90854884381
204.90635757924
204.89892877119
204.88502105424
204.86588881169
204.84512731041
204.82845929306
204.8167958002
204.8095546597
204.80549094679
204.80319410269
204.80166965267
204.80066604465
204.80002389784
204.79962404083
204.79938202356
204.79923980361
204.79915871085
204.79911385099
204.79908979198
204.79907496541
204.79906989863
204.79906735197
204.79906609238
204.79906548065
204.79906518927
204.79906505282
204.79906498959
204.79906496117
204.79906494688
204.79906494179
204.79906493927
204.79906493927
204.79906493927
204.79906493927
204.79906493927
204.79906493927
204.79906493927
204.79906493927
204.79906493927
204.79906493927
204.79906493927
204.79906493927
204.79906493927
204.79906493927
204.79906493927
204.79906493927
204.79906493927
204.79906493927
204.79906493927
204.79906493927
204.79906493927
204.79906493927
204.79906493927
204.79906493927
204.79906493927
226.30525735233
214.69149982072
208.0474479697
205.72467938606
205.21511807286
205.16338609855
205.19875234407
205.24388798723
205.29268912599
205.34775546611
205.40217560277
205.44589188546
205.47253937509
205.48119052566
205.47318394492
205.44793347649
205.39852282794
205.3191241849
205.19957405612
205.04798855342
204.89951004077
204.74327318935
204.55563607588
204.35281564407
204.27359572394
204.41614899363
204.6400862144
204.8499682403
205.00940408363
205.1101330395
205.15791917348
205.16652113001
205.15166990182
205.12451147581
205.0932278077
205.06305062391
205.03726666192
205.01836251608
205.00817789463
205.00679774387
205.01128120252
205.01827378437
205.0234601222
205.02471606934
205.02143778273
205.01449944111
205.00661907762
204.99944533758
204.99338171664
204.98848136312
204.98471959498
204.98175532972
204.97865054991
204.97377362288
204.96436936444
204.94754144597
204.92252235885
204.89313592649
204.86796829669
204.85100622818
204.84198877984
204.83893944678
204.83834362049
204.83880531495
204.83996434278
204.84156278346
204.8434194899
204.84542373376
204.84751272679
204.84965444827
204.85183650307
204.85405770132
204.85632294645
204.85867513921
204.86123769877
204.86417720348
204.86766781823
204.87189765067
204.87706725533
204.88333496992
204.89069232311
204.89866559926
204.9052387754
204.90811924518
204.90850978677
204.9063133029
204.89888319006
204.88498245182
204.86586511683
204.84511963502
204.82846029443
204.81679958389
204.80955812141
204.80549331131
204.80319578895
204.80167088308
204.80066689436
204.8000244616
204.79962440153
204.79938224645
204.79923993672
204.79915878771
204.79911389392
204.79908981522
204.79907497566
204.79906990393
204.79906735468
204.79906609374
204.79906548131
204.79906518957
204.79906505296
204.79906498966
204.7990649612
204.79906494689
204.79906494179
204.79906493927
204.79906493927
204.79906493927
204.79906493927
204.79906493927
204.79906493927
204.79906493927
204.79906493927
204.79906493927
204.79906493927
204.79906493927
204.79906493927
204.79906493927
204.79906493927
204.79906493927
204.79906493927
204.79906493927
204.79906493927
204.79906493927
204.79906493927
204.79906493927
204.79906493927
204.79906493927
204.79906493927
204.79906493927
226.46708394422
215.22269407561
208.36272342552
205.76818335952
205.14524664721
205.04228283329
205.05339904823
205.08999830706
205.13406419171
205.1783144965
205.2161131289
205.240457884
205.24423572784
205.22211772268
205.1682613688
205.0781766891
204.9487502181
204.77942956059
204.58250178415
204.38008515016
204.20867731732
204.10792073385
204.09800087395
204.17569757292
204.31691836021
204.48443815196
204.65438900316
204.80692906378
204.92850514971
205.01201028207
205.05932112378
205.07779968187
205.07638696222
205.06351123655
205.04526403204
205.02615706824
205.00965625075
204.9985684758
204.99495907952
204.99785158514
205.00519305661
205.01321484187
205.01842989318
205.01947723137
205.0161436488
205.00959912382
205.00246847326
204.99608786168
204.99076132554
204.98652307942
204.98332741999
204.98074460116
204.97777734181
204.97264105954
204.96247087571
204.94454534816
204.91862509606
204.88934781456
204.86514724653
204.8492297967
204.84101727289
204.83836828033
204.8378365941
204.83831035176
204.83946343019
204.84105850588
204.84292735507
204.84496380299
204.84710394437
204.84931070815
204.85156404269
204.85385631065
204.85618682486