/*--------------------------------*- C++ -*----------------------------------*\
| =========                 |                                                 |
| \\      /  F ield         | OpenFOAM: The Open Source CFD Toolbox           |
|  \\    /   O peration     | Version:  2312                                  |
|   \\  /    A nd           | Website:  www.openfoam.com                      |
|    \\/     M anipulation  |                                                 |
\*---------------------------------------------------------------------------*/
FoamFile
{
    version     2.0;
    format      ascii;
    arch        "LSB;label=32;scalar=64";
    class       volScalarField;
    location    "1e-05";
    object      dydt;
}
// * * * * * * * * * * * * * * * * * * * * * * * * * * * * * * * * * * * * * //

dimensions      [0 0 -1 0 0 0 0];

internalField   nonuniform List<scalar> 
109340
(
3.0600661149008
3.5649932150696
4.4801260585356
5.8676505297872
7.8562852189955
10.66324844548
14.646051189095
20.386196777475
28.851758371782
41.683953241088
62.000728494235
94.952559797085
151.03964776082
250.9171211658
432.07071495865
739.21808579578
1169.6800835308
1626.71676072
2001.4238810979
2277.9889028257
2482.7916647081
2617.8609629602
2709.4538939191
2770.426204992
2807.3532005772
2824.0614007894
2823.999591504
2811.8114090888
2790.3262909052
2761.6087936178
2728.4968086631
2693.2451029329
2657.6877704792
2622.5578527504
2587.8393475677
2550.7908422657
3.0958258759658
3.6723716328326
4.7152476824002
6.2446878233975
8.4059558234219
11.442926342879
15.752301648835
22.000606928626
31.309889810643
45.55917456051
68.499218252059
106.13165305817
171.06451580942
287.73887018983
497.60700640995
839.31758160918
1282.0086259263
1723.1451492984
2053.9838993109
2325.2157102116
2518.4120308939
2642.6062102573
2725.9704640062
2780.2517548828
2811.5917111332
2824.3971540274
2822.310494346
2808.0682924102
2784.7707320285
2754.9404313434
2721.320454307
2685.9413073298
2650.0805937827
2614.4680616093
2578.4133545765
2543.4965165866
2.9590984413088
3.5774655497919
4.6650526744584
6.2016538194583
8.3287004521946
11.302300093957
15.522789316878
21.65791922813
30.835430815161
45.010831814887
68.028153807809
105.99159913049
171.54585273986
289.21806117656
500.6527950071
842.34745695082
1281.3904815328
1718.6385625509
2047.9140440399
2319.4310274772
2513.8295178078
2638.9591882093
2722.3655450039
2776.3893828098
2807.991859993
2821.3114260263
2820.1852178695
2807.0686019167
2784.3128205433
2755.292804641
2722.0783733396
2686.9039363627
2651.1484232223
2615.7383053672
2581.0650095834
2546.2482548874
2.7730596392806
3.4437709277766
4.5306294846279
6.0417378333764
8.1363786190049
11.060586913928
15.214110806155
21.239044318294
30.234865252952
44.160963247611
66.914164594462
105.07545625153
171.4618327464
291.12082709873
504.40201421178
844.89888271684
1278.1763359234
1706.2767360217
2037.788159024
2310.467930037
2506.7625571388
2633.9258042697
2717.8933751265
2771.9796395073
2803.3013734333
2816.9918124467
2816.32951897
2804.3085125631
2783.0159667896
2754.4077140898
2721.6177762589
2686.9518889532
2651.8757660861
2616.7230577965
2581.771119364
2546.6964839615
2.4827580563089
3.2358876616805
4.3894484256481
5.9290976485475
8.013444609352
10.89340684927
14.957024060997
20.828284812089
29.569684942825
43.081945762591
65.136811566116
102.4484966537
168.96081596097
291.33797619727
509.12997731518
845.82288293569
1267.1450610979
1686.0527907566
2015.2746369382
2287.3819436335
2485.367893938
2615.1485693
2700.1393048527
2754.142170587
2785.2156281636
2798.4768861811
2797.8207119094
2786.0592932126
2765.4968201445
2738.9418708546
2708.7791815858
2678.3941757489
2648.5452150152
2619.9633752713
2592.9518603929
2566.5616245621
1.9798539769033
3.1378040895995
4.4049642240857
6.0470559085479
8.2819325055872
11.415499437773
15.913130933019
22.536562403414
32.606604819542
48.6076500974
75.408880708993
122.17015971046
207.36158625378
361.84882050457
600.43990204097
906.46730562231
1269.0704262
1653.7231948017
2029.614465877
2388.1353055623
2715.1316255381
3012.8150132469
3292.7267095373
3575.7552130079
3858.3322896586
4153.9207025732
4468.2491295822
4804.2666469058
5164.461105122
5553.152385581
5974.0629760046
6430.2817458081
6923.1223107397
7452.1461506978
8002.8419855307
8559.1738825139
2521.4357925621
2499.8500646636
2472.8110436268
2440.7067769383
2407.0736362801
2396.167704623
2435.5881893056
2535.3436327938
2671.2009477944
2810.6955195191
2923.3286435639
3015.3777658077
2954.4999251209
2365.2016589523
2251.7894747121
2308.5240593781
2300.8851705487
2191.1390766985
2001.0066476493
1731.5330333932
1403.7062654011
1054.4617151139
727.25709074718
453.63707812297
255.98814704172
128.13617590525
51.28079062076
9.2283982644647
0
3105.8577497133
1303.6556478951
1051.8349080329
969.62899125581
912.09652886524
871.71624968463
843.10103404759
822.67908810285
808.12833493101
798.03195698133
791.67668731293
788.53692547187
787.75596209478
788.04321219528
788.28911232206
787.80869969525
786.35464969349
784.26008415863
782.10310884164
780.16622043778
778.52805131266
777.2032038702
776.18721663317
775.39401300438
774.60461120716
773.4703355633
771.42435965788
767.95121710421
763.06531264664
757.79689470073
753.67530429584
751.12233333519
749.933194816
749.63748783335
749.63833487325
749.7885402822
750.02672848654
750.31058682881
750.61725121486
750.93687529218
751.26717631431
751.6096809862
751.96725960467
752.3425513637
752.73707052569
753.16952244987
753.67367627178
754.27740704051
755.01154395819
755.91162026228
757.01022526868
758.31663671932
759.78017392503
761.11891289167
761.84403810609
762.02788206413
761.64428080342
760.31392536359
757.74527051914
754.18347148964
750.38986093559
747.35293484175
745.22594707879
743.90712281726
743.16782867952
742.74957428339
742.47023478571
742.28624282736
742.16846862442
742.09509257836
742.0506533491
742.02452153591
742.00961136063
742.00135782203
741.99692907808
741.9941955553
741.99326052926
741.99279206959
741.99256000491
741.99244733731
741.99239364302
741.99236849417
741.99235682277
741.9923515929
741.99234891781
741.99234802331
741.99234752879
741.99234755802
741.99234756851
741.99234757227
741.99234757374
741.99234757429
741.99234757445
741.99234757449
741.9923475745
741.9923475745
741.9923475745
741.9923475745
741.9923475745
741.9923475745
741.9923475745
741.9923475745
741.9923475745
741.9923475745
741.9923475745
741.9923475745
741.9923475745
741.99234757451
741.99234757451
741.99234757451
741.99234757451
2512.7349957435
2486.2328342659
2458.8846045194
2433.3372133482
2428.7650468055
2470.4337995007
2562.8909460551
2681.8299398442
2798.0688523206
2895.4855237893
2974.0501569911
2983.7917896058
2747.8475672565
2296.931826861
2221.0195398549
2151.0784584458
1986.4942193116
1703.5921161055
1356.7734005896
1010.9269820675
701.67908318303
443.46261794437
255.93271189802
138.17458871253
72.106696092873
34.933389633936
13.9555758701
0.74896174060169
0
4062.9203524912
1152.2890928302
1020.3998630604
948.7736759569
898.00739321902
862.02070952525
836.31515390059
817.89102340147
804.77430701835
795.8093669808
790.41379607961
788.02698957908
787.67280021441
788.06392152444
788.18275080422
787.45889708384
785.80577449789
783.65718934899
781.55479167095
779.70226386598
778.15379033808
776.91705059497
775.97692267593
775.21160888487
774.37685876066
773.06588368651
770.68829555774
766.81557953773
761.67413490558
756.59660949365
752.86906623834
750.69448300154
749.79812599077
749.61017628319
749.65693016656
749.83491469811
750.08857476499
750.38071052591
750.69223552258
751.01553639305
751.34951487283
751.6962213005
752.05858128393
752.43896631466
752.84000499526
753.28797681816
753.81451135169
754.44781634242
755.22002970868
756.16712885914
757.31835628646
758.67277284403
760.14649983446
761.37571245527
761.92800164072
762.02699990651
761.64426584358
760.31019801557
757.74079661555
754.19051211557
750.3929258202
747.35330198076
745.22606681494
743.90721039306
743.16789089488
742.7496521058
742.47029681991
742.28628689702
742.16849853673
742.09511221664
742.05066583292
742.02452921295
742.00961592131
742.00136043915
741.99693049457
741.9941962415
741.99326091758
741.99279218959
741.99256011648
741.9924473935
741.9923936699
741.99236850717
741.99235682874
741.99235159578
741.99234891882
741.9923480262
741.99234752873
741.99234755796
741.99234756851
741.99234757231
741.99234757372
741.99234757427
741.99234757445
741.99234757449
741.9923475745
741.9923475745
741.9923475745
741.9923475745
741.9923475745
741.9923475745
741.9923475745
741.9923475745
741.9923475745
741.9923475745
741.9923475745
741.9923475745
741.9923475745
741.99234757451
741.99234757451
741.99234757451
741.99234757451
2513.3352588448
2483.3380286074
2465.8668554871
2481.7339877606
2541.1673386798
2636.5563129709
2747.864349021
2843.3702509431
2914.8006745187
2967.7309708653
2986.8311342755
2893.7082233445
2611.0477884794
2299.4034230605
2085.5977490624
1849.2091642379
1514.5133068683
1090.4831724951
689.15990505679
404.04072386021
229.6355210196
129.37163005476
76.25500498929
50.607258262672
40.665790112192
37.37673559313
32.54129897309
3.9070927844222
0
3452.9618463155
1118.8690372208
1008.9412949927
942.23444788151
894.13700696944
859.63620204863
834.78890633401
816.88036788984
804.09035101698
795.3459265445
790.10225756495
787.8147444272
787.51629976327
787.93631863385
788.06539079385
787.34834803721
785.7058143452
783.57502576466
781.49331204564
779.66062706826
778.12950113662
776.90693616568
775.97769319893
775.21789232512
774.38258215864
773.06266010062
770.66781545909
766.7751761433
761.62162684673
756.54905470233
752.83286395272
750.66910027137
749.78125377747
749.59599271751
749.64416895128
749.82365431488
750.07887784689
750.37270140942
750.68592139016
751.01080358379
751.34616644331
751.69400264808
752.05722622495
752.43821466252
752.83973058571
753.28805760581
753.81472529421
754.44805831113
755.22025502985
756.16731686432
757.31850727504
758.67296533317
760.14707392404
761.3774117041
761.92966198387
762.02391429834
761.64888471936
760.29538549686
757.73167334306
754.20300222903
750.39854572493
747.35385988947
745.22621573514
743.90730645214
743.16795905781
742.7497207808
742.47035299946
742.28632712328
742.16852578204
742.09512998154
742.05067702806
742.02453603982
742.00961995098
742.00136273299
741.99693173286
741.9941968033
741.99326123491
741.99279236457
741.99256020996
741.99244744138
741.99239369299
741.99236851856
741.99235683381
741.99235159852
741.99234892056
741.99234799859
741.99234752867
741.99234755791
741.99234756853
741.99234757235
741.99234757371
741.99234757426
741.99234757445
741.99234757449
741.9923475745
741.9923475745
741.9923475745
741.9923475745
741.9923475745
741.9923475745
741.9923475745
741.9923475745
741.9923475745
741.9923475745
741.9923475745
741.9923475745
741.9923475745
741.99234757451
741.99234757451
741.99234757451
741.99234757451
2511.9899609136
2497.9869239918
2554.0812930066
2672.8830954839
2799.7788324194
2893.9294719974
2956.7900706684
3001.2627277807
3022.5564471789
3015.3618654377
2943.2707842346
2714.6588488445
2487.6538820365
2183.7843193224
1769.7082116645
1302.3835412011
820.03384221843
434.09677916915
227.17244182831
151.17370867509
145.98176823962
188.07175897038
297.76335203302
488.62967470301
695.2234713877
855.34162040088
650.71020007364
39.181177967289
0
2606.8583130448
1080.257136994
993.59160119593
933.34566268477
888.81208771535
856.32491247237
832.65463954865
815.46013669587
803.12555134514
794.69197484005
789.66402570992
787.51725364464
787.2960635267
787.75564368549
787.89916406372
787.19159616175
785.56362077446
783.45789623657
781.40556595137
779.60107068135
778.09458027326
776.89241509076
775.97839691448
775.22633428301
774.39028372276
773.05748971038
770.63792716886
766.71693001115
761.5455045242
756.48072232344
752.7810894954
750.63313635027
749.75736879589
749.57571200011
749.62588798809
749.80747877028
750.06490847796
750.36111837891
750.67674993175
751.00389878007
751.34124794493
751.69071181643
752.05518042735
752.43704687293
752.83921346844
753.28802774984
753.81488084275
754.44825713609
755.22043902884
756.16745618536
757.31860882744
758.67315978783
760.14764270671
761.37841757533
761.93087784243
762.02537923876
761.6467954788
760.28838064394
757.7285599799
754.20787942829
750.40120617649
747.35425298053
745.22635737891
743.90740046567
743.16802476197
742.74978160072
742.47040276208
742.28636309637
742.16855028121
742.09514598021
742.05068710086
742.02454216469
742.00962354612
742.00136476435
741.996932814
741.994197279
741.993261523
741.9927925319
741.9925603006
741.99244748846
741.99239371634
741.99236852978
741.9923568385
741.99235160151
741.99234891979
741.99234799798
741.9923475286
741.99234755789
741.99234756853
741.99234757237
741.99234757373
741.99234757424
741.99234757444
741.99234757449
741.9923475745
741.9923475745
741.9923475745
741.9923475745
741.9923475745
741.9923475745
741.9923475745
741.9923475745
741.9923475745
741.9923475745
741.9923475745
741.9923475745
741.9923475745
741.99234757451
741.99234757451
741.99234757451
741.99234757451
2561.9339243721
2735.3269442842
2981.1979635264
3107.5494454094
3144.1303184931
3143.757842362
3133.1765435876
3119.9992833058
3071.9310271837
2980.089440643
2766.2350128503
2547.5910516117
2288.9262454002
1813.6451117132
1147.0997227806
606.0095923552
343.82262735191
409.51379450412
1382.7246057916
4073.7978591157
7429.036902595
10829.366040926
13939.183814833
16196.905170394
16872.979950506
15344.802561459
8926.1986411369
124.44266080252
81.019649026957
1780.1368680075
1042.7809033418
975.42822480857
922.60066450852
882.26950372089
852.2058935093
829.9758029634
813.66619084662
801.90125663085
793.86034249318
789.10817465723
787.14137424921
787.01658023111
787.52499063715
787.68596434786
786.99006222664
785.38033653167
783.3066792226
781.29195556058
779.52348945051
778.04851730589
776.87261835264
775.97789294755
775.23569916697
774.39873403485
773.04910754888
770.59759845238
766.64018197128
761.4460515396
756.39220751844
752.71447014096
750.58723381872
749.72694815951
749.54972535508
749.60235568088
749.78655688523
750.0467569572
750.345985764
750.66469780607
750.99476586799
751.33469142188
751.68628167946
752.05239231931
752.43542281555
752.83844524718
753.28790362328
753.81502410904
754.44848345693
755.22067118886
756.16765387389
757.31876253103
758.67338423623
760.14811089944
761.37866915344
761.93074590838
762.0254852303
761.64249521729
760.28367053101
757.72615088044
754.21032510255
750.40256650036
747.35450171126
745.22649158715
743.9075005708
743.1680979645
742.74984478562
742.47045340048
742.28639973266
742.16857530956
742.09516236083
742.05069741953
742.02454843269
742.00962721931
742.00136682901
741.9969338743
741.9941977442
741.99326184725
741.99279272498
741.99256040561
741.99244754269
741.99239374356
741.99236854214
741.99235684206
741.99235160485
741.99234891997
741.99234799648
741.99234752853
741.99234755788
741.99234756854
741.99234757238
741.99234757374
741.99234757424
741.99234757443
741.99234757449
741.9923475745
741.9923475745
741.9923475745
741.9923475745
741.9923475745
741.9923475745
741.9923475745
741.9923475745
741.9923475745
741.9923475745
741.9923475745
741.9923475745
741.9923475745
741.99234757451
741.99234757451
741.99234757451
741.99234757451
8863.4252472308
5586.226244872
4245.284179045
3758.3747121703
3524.2541261726
3393.2375359993
3285.2380813828
3172.9530718712
3008.7184049965
2797.9652346646
2589.8330273086
2335.8042890111
1854.8186234479
1109.9673975318
637.95703298948
1521.3557505218
11239.275010698
42439.85101817
68489.921381674
70526.503931005
67096.580897315
65950.569337208
66982.267868649
68576.714325773
67574.263225801
62365.709282966
26471.219563367
75.931798637871
1596.8031722274
1270.6948022587
1007.4628355738
955.60194571823
910.5598238159
874.78618885208
847.42272537664
826.83068528854
811.54370078532
800.44532008223
792.8685844949
788.4460778407
786.69609385888
786.68375699164
787.24810348264
787.42842170874
786.74586280408
785.15772462225
783.12267586777
781.15317332867
779.42797356489
777.99090954595
776.84668883398
775.97513801461
775.24475475821
774.4064511169
773.03615970294
770.54567983906
766.54421826926
761.32341827468
756.28416689007
752.6338365098
750.53214125204
749.69058319289
749.51850965723
749.57394111281
749.76112475304
750.0245533953
750.32734557614
750.64974360511
750.98334747883
751.32642726432
751.68064506126
752.04880073225
752.43328940289
752.83740914028
753.28769193205
753.81517663164
754.4487637656
755.22097488893
756.16792251548
757.31896442678
758.67359820108
760.14841652112
761.37845208515
761.92979723472
762.02422552987
761.63867991483
760.28002105195
757.72458632753
754.21125268876
750.40310954033
747.35464819227
745.22662855796
743.90761573037
743.1681838529
742.74991486789
742.47050833983
742.28643923998
742.16860222447
742.09517993107
742.05070846342
742.02455513037
742.00963113689
742.00136902101
741.99693496175
741.99419825966
741.99326231834
741.99279301095
741.99256055951
741.9924476196
741.9923937817
741.99236855905
741.9923568466
741.9923516078
741.99234892148
741.99234799712
741.99234752847
741.99234755785
741.99234756853
741.99234757239
741.99234757375
741.99234757424
741.99234757442
741.99234757448
741.9923475745
741.9923475745
741.9923475745
741.9923475745
741.9923475745
741.9923475745
741.9923475745
741.9923475745
741.9923475745
741.9923475745
741.9923475745
741.9923475745
741.99234757451
741.99234757451
741.99234757451
741.99234757451
741.99234757451
82092.15878129
10204.850123217
7046.6409450729
5085.0197435003
4143.7603939948
3659.4435139619
3362.7067709158
3128.8366330052
2937.9775581316
2726.6852092473
2456.986415303
1994.7138505643
1300.2627011464
1135.496217962
11398.360210481
98847.435296698
106990.53847914
53696.150572556
29641.025391659
22641.239337508
22037.20934926
25465.157346284
33416.50385642
46344.480393856
65397.883323856
86227.41426203
27959.92946648
120.04862761984
2716.3621232256
1189.378193145
983.3084986778
945.17783029834
906.5937873236
873.78638398552
847.68441988087
827.53530430087
812.29910524361
801.0549222181
793.2077350988
788.44009505344
786.36580036498
786.1928160368
786.78808155197
787.14258930199
786.72497014422
785.35081373392
783.4106665269
781.45026869495
779.70755446442
778.24297907883
777.06391343193
776.1603925463
775.43177870231
774.65264241166
773.44977608729
771.25078954518
767.58165410648
762.55073513008
757.3034730076
753.29336346184
750.85538802042
749.75897769309
749.49744917568
749.51129922814
749.67484054557
749.92687758436
750.22615631471
750.54898031438
750.88430232366
751.22877684488
751.58324758891
751.95028464228
752.33248049914
752.73178097944
753.16848767575
753.67459819849
754.27903605158
755.01333170592
755.91325484665
757.01156235299
758.31818396213
759.7827983535
761.1229797781
761.84558656663
762.02235726517
761.63550459119
760.27705926689
757.7230016327
754.2111517622
750.40315225205
747.35473158479
745.22677559551
743.90775044744
743.1682834265
742.74999315031
742.4705688522
742.28648262916
742.1686317813
742.09519922435
742.0507205814
742.02456246866
742.0096354219
742.00137141576
741.9969361586
741.99419904047
741.99326315596
741.99279363052
741.99256084218
741.9924477573
741.99239385046
741.99236859119
741.99235685732
741.99235161344
741.99234892405
741.99234799814
741.99234752837
741.99234755782
741.99234756852
741.99234757239
741.99234757376
741.99234757424
741.99234757441
741.99234757448
741.9923475745
741.9923475745
741.9923475745
741.9923475745
741.9923475745
741.9923475745
741.9923475745
741.9923475745
741.9923475745
741.9923475745
741.9923475745
741.9923475745
741.99234757451
741.99234757451
741.99234757451
741.99234757451
741.99234757451
142656.98449968
394250.84823648
20816.642312599
8448.2291217594
5923.4952943365
4661.0897891039
3779.9163790598
3164.785622694
2675.609806856
2495.3663809109
3818.4114245335
17997.453497624
130062.87911846
49040.013441474
7896.8012780111
3865.7925591438
3517.0455833614
4024.1452909169
5299.1372574553
7523.1750109309
10532.486165662
13528.26662427
18545.866238126
31306.58881014
37058.400555609
3064.7080044858
310.14717669611
3053.9455729244
1060.0277928126
921.5827606584
916.10971129392
895.7915335495
871.76660145968
849.45730868321
830.61649367297
815.47118476149
803.7274413646
795.02069376786
789.15452477052
785.96826980037
785.05016136188
785.43875902801
786.18772813435
786.42485002066
785.78469112201
784.27725315872
782.39184435934
780.5960390041
779.03652635472
777.74494127793
776.72274788418
775.9414090438
775.25523912632
774.40881004883
772.95344780188
770.30624323593
766.13225715871
760.81856071072
755.85081736602
752.31783104554
750.32131809175
749.55331319608
749.39938341446
749.46412058219
749.66102084674
749.93552562354
750.25111751431
750.58734433289
750.93472333159
751.29049236263
751.65557231001
752.03238012796
752.42316607637
752.83233666276
753.28633508188
753.81559360795
754.44988069836
755.22226047073
756.16907383498
757.31977421389
758.67404215558
760.14831597518
761.37603831817
761.92468980147
762.01764453013
761.62948116387
760.27144846492
757.7191916658
754.20936521749
750.40257503902
747.35480773695
745.22712612996
743.90808889062
743.16852941759
742.75017989941
742.47071072231
742.28658345529
742.16870011114
742.09524366344
742.05074840669
742.02457927116
742.00964521055
742.0013768967
741.99693900185
741.99420034701
741.99326395586
741.99279407025
741.99256106397
741.99244785046
741.99239390002
741.99236862169
741.99235688241
741.99235162356
741.99234892714
741.99234799905
741.99234752827
741.99234755778
741.99234756851
741.99234757239
741.99234757377
741.99234757425
741.99234757441
741.99234757447
741.99234757449
741.9923475745
741.9923475745
741.9923475745
741.9923475745
741.9923475745
741.9923475745
741.9923475745
741.9923475745
741.9923475745
741.9923475745
741.9923475745
741.99234757451
741.99234757451
741.99234757451
741.99234757451
741.99234757451
64665.700342454
13282.981027194
24223.847660279
86313.228941586
171925.91277609
195462.68290494
172063.51931999
154933.25670325
138951.19858286
94016.655464471
31331.856285886
7114.2565151515
2240.6145778266
1580.0808969511
1601.6479967821
1778.3172163828
2018.4393224347
2276.9250740608
2748.4866773426
3956.0201643605
6212.9807652532
7681.9089855131
5951.2515493384
2008.6361929831
814.89292427137
1331.502010938
1882.0844003982
901.0434584457
837.81834298212
865.19911202986
869.91423611311
861.44627602645
847.41876350139
832.45704062535
818.75074810281
807.14475223307
797.84720016831
790.8821090902
786.31071609979
784.0765453205
783.7650670524
784.48078156629
785.34157585189
785.60372828573
784.98569447245
783.54107316455
781.77761070254
780.12059075775
778.6927056486
777.51705369655
776.59292234473
775.8831404671
775.2323904111
774.37550617567
772.84277138133
770.05986094537
765.74381687208
760.37067162889
755.47980016716
752.05660586978
750.15379401031
749.44694629737
749.30561455937
749.37612769872
749.57867207965
749.86017018122
750.18463721673
750.53125989506
750.88969791921
751.25621416315
751.63090770902
752.01565917333
752.41237174701
752.82678615312
753.28445396687
753.81559662544
754.4507255652
755.22335163232
756.17007122619
757.32044523748
758.6742110644
760.14760280498
761.37336393337
761.92014537022
762.01222661823
761.6232774754
760.26528640477
757.71418067305
754.20629768315
750.40148700653
747.35485776765
745.2275743259
743.90852322797
743.16883806566
742.750408169
742.47088148935
742.28670358537
742.16878095829
742.09529597065
742.05078102072
742.0245988952
742.00965661276
742.00138329301
741.99694246213
741.99420191168
741.99326478311
741.99279450612
741.9925612843
741.99244795346
741.99239395148
741.99236864841
741.99235689827
741.99235163058
741.99234892972
741.99234799991
741.99234752818
741.99234755775
741.9923475685
741.99234757238
741.99234757377
741.99234757425
741.99234757441
741.99234757447
741.99234757449
741.9923475745
741.9923475745
741.9923475745
741.9923475745
741.9923475745
741.9923475745
741.9923475745
741.9923475745
741.9923475745
741.9923475745
741.99234757451
741.99234757451
741.99234757451
741.99234757451
741.99234757451
741.99234757451
68857.735113182
6993.3769133199
1822.1611741006
1324.3315947151
1565.0302446289
2001.118907867
2292.3848394709
2183.1351399628
1757.8454831878
1341.0579246748
1111.0507313064
1036.9099118235
1034.5639077565
1059.2824048736
1106.8378862803
1181.9303523303
1272.5044719401
1337.6973823777
1337.7132486271
1244.3564131343
1125.6666667051
1053.4870387147
1095.763160271
1402.0886650843
1347.4451694357
918.81068914772
737.99720928645
763.42775185114
803.14832196192
826.81082086652
835.2346089476
833.35601341186
826.1094817839
816.7749307016
807.34372396589
798.88588269452
791.88920007022
786.6484407687
783.40232303455
782.17440022171
782.43918518413
783.48557993178
784.43075217221
784.69902572834
784.09250191888
782.71490644817
781.08499029288
779.5768035809
778.28918235307
777.23752184842
776.41910110027
775.78545123591
775.1716823701
774.2965753436
772.66830647415
769.72627645699
765.25353802536
759.83566386807
755.05186919748
751.76559955514
749.97518044876
749.33636833862
749.20723658342
749.28235590883
749.48866053896
749.77540248559
750.10754763798
750.46420075077
750.83421235616
751.21270660793
751.59866535515
751.99310414866
752.39732249993
752.81884852847
753.28128733833
753.81506214814
754.45146108272
755.22453647365
756.17119594256
757.32117176522
758.6742771475
760.14653558171
761.37001203709
761.91476518527
762.00604901354
761.61624665752
760.25805432375
757.7080333111
754.20244933272
750.40016944232
747.35494871606
745.22813572266
743.90905463192
743.16920810496
742.75067713776
742.4710804023
742.28684226265
742.16887366069
742.09535564193
742.0508180766
742.02462111839
742.00966949169
742.00139050927
741.99694637647
741.99420365586
741.99326569325
741.99279497802
741.99256152212
741.99244806883
741.99239400624
741.99236867468
741.9923569111
741.99235163651
741.99234893193
741.99234800073
741.9923475281
741.99234755772
741.99234756848
741.99234757237
741.99234757376
741.99234757425
741.99234757441
741.99234757447
741.99234757449
741.9923475745
741.9923475745
741.9923475745
741.9923475745
741.9923475745
741.9923475745
741.9923475745
741.9923475745
741.9923475745
741.99234757451
741.99234757451
741.99234757451
741.99234757451
741.99234757451
741.99234757451
741.99234757451
72827.619235823
8279.1026708544
1801.5684028067
963.69861268972
831.73848651209
818.60993087097
825.74208124431
834.30307413831
843.08214736121
853.33840002311
864.06701480716
873.23620909968
879.8123105507
884.3674450903
888.4006764386
893.19862668592
898.60263676557
904.79632681287
908.67266900099
906.37038980219
893.51882032398
853.66732325173
780.64712202649
700.47286566559
660.79551797041
676.66227118896
713.81565259123
751.18629053832
780.82115144372
800.11259951517
809.43131039074
811.13582472642
808.24204633382
802.95844306181
796.90543485767
791.10154354128
786.16765206229
782.55972534267
780.61029459497
780.33226619106
781.16923791988
782.49409266391
783.48792609043
783.73951612733
783.13220962825
781.82494404069
780.33512812691
778.97931444391
777.83423953908
776.90936412701
776.19965859705
775.64236810029
775.06299427939
774.15804280246
772.41309672043
769.28950005475
764.65200754774
759.21661826987
754.57468865973
751.45340954491
749.79350967502
749.22717543511
749.10976816254
749.18816318039
749.39570844653
749.68493600903
750.02236228425
750.38742551609
750.76841871803
751.15932628714
751.55777287072
751.96349820379
752.3776136627
752.80776910965
753.27624774195
753.81360073587
754.45184331719
755.22568109306
756.17237323117
757.32188843771
758.67417368482
760.1450684285
761.36594887181
761.90844059926
761.9988649849
761.60807468884
760.24963670815
757.70090428959
754.19806884122
750.39874635226
747.35512112994
745.22882040036
743.9096828916
743.16963716959
742.75098453238
742.47130547408
742.28699789176
742.1689770343
742.09542185717
742.05085903864
742.02464560738
742.00968364695
742.00139842522
741.99695066515
741.99420554817
741.99326667342
741.99279547983
741.99256177303
741.99244818995
741.99239406146
741.99236870062
741.99235692348
741.99235164207
741.99234893397
741.99234800136
741.99234752802
741.99234755768
741.99234756847
741.99234757237
741.99234757376
741.99234757425
741.99234757441
741.99234757447
741.99234757449
741.9923475745
741.9923475745
741.9923475745
741.9923475745
741.9923475745
741.9923475745
741.9923475745
741.9923475745
741.9923475745
741.99234757451
741.99234757451
741.99234757451
741.99234757451
741.99234757451
741.99234757451
741.99234757451
74863.141531323
9243.6712625028
1951.6142369307
975.27928241322
814.10397259843
788.83777931614
790.16117390822
797.13497252526
805.68597945544
814.35125971125
821.82270866152
826.70700556201
827.59950250547
823.50671464193
813.4189403495
796.70752445604
773.14805317357
743.0553727231
709.09235328378
675.03246082492
646.49479246148
629.159861767
625.98637285185
637.17831342466
659.48898339689
687.09854015104
716.22483506116
743.34355071199
765.64113209774
781.32252507351
790.34690325533
793.90702626868
793.64700861368
791.1829475184
787.69565918668
784.05452249473
780.91627586133
778.80477224112
778.10569199901
778.63618019908
780.01494337877
781.5364610098
782.5358348066
782.74748377353
782.12907757087
780.89636455558
779.54921499062
778.34409454524
777.33874076948
776.53907392233
775.93647264125
775.45177038875
774.89943046653
773.94747468275
772.06072860923
768.73395134347
763.93109418094
758.51759318184
754.05600889229
751.12768494892
749.61566566394
749.12279304119
749.01755811752
749.09824886165
749.3046056101
749.59299892075
749.93236807073
750.30305002539
750.69317394766
751.09583231278
751.50726549447
751.92617473617
752.35246012903
752.7925966004
753.26859407898
753.81070088342
754.45155535083
755.22658889903
756.17348742338
757.32250638566
758.67381019631
760.14309748323
761.36107956034
761.90108304759
761.99055261396
761.59868403355