/*--------------------------------*- C++ -*----------------------------------*\
| =========                 |                                                 |
| \\      /  F ield         | OpenFOAM: The Open Source CFD Toolbox           |
|  \\    /   O peration     | Version:  2312                                  |
|   \\  /    A nd           | Website:  www.openfoam.com                      |
|    \\/     M anipulation  |                                                 |
\*---------------------------------------------------------------------------*/
FoamFile
{
    version     2.0;
    format      ascii;
    arch        "LSB;label=32;scalar=64";
    class       volScalarField;
    location    "1e-05";
    object      k;
}
// * * * * * * * * * * * * * * * * * * * * * * * * * * * * * * * * * * * * * //

dimensions      [0 2 -2 0 0 0 0];

internalField   nonuniform List<scalar> 
109340
(
7.8489885570739
7.8440875451665
7.8407137365132
7.83168249518
7.8108601562735
7.7734519697086
7.7152456269596
7.6310478541961
7.5134409005246
7.3521315441855
7.1346673956308
6.8454091045778
6.4613459685673
5.9480151000834
5.2696178105943
4.4147103797802
3.4355171456781
2.6629547659692
2.174858711788
1.8679163292711
1.6636912809632
1.5210270699807
1.4173189351901
1.3386651034936
1.2767311051292
1.2256935740859
1.182784487524
1.1459301354944
1.1140956153851
1.0869939272925
1.0643384540884
1.044601581357
1.0266968473331
1.0116917379953
0.99891610555772
0.9872551809537
7.843785404979
7.8408174573098
7.8355384950455
7.8216135680899
7.794113815042
7.7490825355908
7.6822728824976
7.5875541062886
7.4563522070836
7.2772876492988
7.0371053819229
6.7188587555253
6.29859241345
5.7421829597113
5.0210898632141
4.1561534854364
3.2389139412754
2.5565807528064
2.1199725015869
1.8419096782931
1.6548942095405
1.5225006872291
1.4242450584539
1.3475854911714
1.2846455491154
1.2302903961998
1.18192609637
1.1384407144417
1.0991178716414
1.063736722057
1.0319976714022
1.0031843153683
0.97658152868331
0.95283029873617
0.93186766089116
0.9116270877322
7.8374411699235
7.8360901203543
7.8295322628235
7.8123120532113
7.7804976885238
7.7303055564571
7.6573222062191
7.5554961326933
7.4165878537932
7.2290563672904
6.9781951593487
6.6453014035484
6.2080161804454
5.6374059376273
4.9097261017978
4.0532877080045
3.2059316857033
2.5890835928085
2.173317993616
1.8990957477061
1.7110377527297
1.5764961055379
1.4755436958057
1.3955780522428
1.327850567035
1.2681559624921
1.2135930014267
1.1638032829968
1.1185293999021
1.0770633052806
1.0391167727995
1.0045039826283
0.97266482923619
0.94392724474735
0.91781215476442
0.89328598807331
7.82477279961
7.8295131885815
7.8214802312657
7.7973041314074
7.7546451704261
7.6905365379053
7.6012948835617
7.4817268983329
7.3244733515547
7.1188664030662
6.8498875996845
6.4975873785869
6.0352539141116
5.4333005846126
4.6776156267084
3.80312662923
3.0283446037621
2.5123976472256
2.1726937965046
1.9444952202903
1.7816084157737
1.6597632768316
1.564044473773
1.483473601099
1.4116429314749
1.3448677081321
1.2827063564026
1.2248291225865
1.1713913003942
1.1223862360598
1.0780081455655
1.0375745082467
1.0012972068215
0.96954782812213
0.94051621640678
0.9137468804296
7.8108363165609
7.8407351851213
7.84206065885
7.813751400268
7.7525558205488
7.6579197054044
7.5299436576006
7.3686461187008
7.1719704807156
6.9336271852182
6.6414456172636
6.2728051055561
5.7894328524561
5.1418598018461
4.3190990764164
3.3857171070367
2.693677705418
2.2617758087093
2.004277707667
1.8373820818661
1.725521543093
1.651340297006
1.5977487177831
1.5589537233822
1.5327687151406
1.5251121014285
1.5442206572202
1.5966062351173
1.6872049210859
1.8164654100777
1.97974732468
2.1663223877524
2.3617766598883
2.5487033385319
2.7135518583004
2.8442035227123
9.433542854521
13.90880272769
17.722400744715
20.631054251667
22.647893803972
23.918163981508
24.620855510689
24.922744401138
24.957027429248
24.837394907719
24.642137245559
24.447779549868
24.356895783853
24.502229557107
25.023231394824
26.437826879638
29.353249747638
33.636986533383
39.171900589571
45.426792968124
52.569672182008
60.330634305838
68.390883385475
76.651991568727
85.051513261688
93.624446979664
102.34489016753
111.13495180232
119.91132830218
128.58941737539
137.13186554189
145.56728247603
153.99895266346
162.42132252338
170.52317926113
178.27950278901
0.97332921873603
0.95670016524594
0.94399711441816
0.93648560741665
0.93118878305638
0.92085221592
0.89823647119492
0.86700744058958
0.80012078975495
0.70228259197172
0.59654262232902
0.49183526069368
0.46038937288933
1.110096503672
2.1110159865923
2.704456964317
3.4507360842263
4.2248401330744
4.8398011212558
5.2340839045843
5.2927757192032
5.1916902508364
5.0865715178424
4.9637148230271
4.7063954758148
4.3882144076858
4.551738759897
8.4484713723641
86.149889692181
167.44857535702
7.2264446317376
5.5998199773887
5.4702577749558
5.3779966498094
5.3105972986212
5.2607633779503
5.2234505576974
5.1951691510433
5.1737480714899
5.1581613131065
5.1476230539981
5.1407719940863
5.1355681727274
5.130276518385
5.1238554045223
5.1159534052877
5.1071135730215
5.0982925931028
5.0904215363658
5.0837771794524
5.0782667467098
5.0737827216961
5.0700438003184
5.0664701718861
5.0622160417503
5.0560284434365
5.0468428589804
5.0351128092226
5.0228503186046
5.0128445597692
5.0065502381929
5.0034701040811
5.0025272062939
5.0023816046298
5.0025377750754
5.0028108477623
5.0031170517812
5.0034252097292
5.0037261798818
5.0040196298157
5.0043082929507
5.0045952371973
5.0048827233351
5.0051718024904
5.0054831370131
5.0058566888916
5.0063176886845
5.0068929404492
5.007612870934
5.0085051048161
5.009578311995
5.0107905823613
5.0118899607489
5.0124670806696
5.0126958491571
5.0118677961877
5.0084894981627
5.0026679063104
4.9947618446975
4.9863468769702
4.979535606313
4.9747557282685
4.9717894073628
4.9701251476225
4.969189533544
4.9686207894956
4.9682786576952
4.9680739979788
4.9679525669453
4.9678814789988
4.967840624333
4.9678176654161
4.9678050843067
4.9677983786633
4.9677942730417
4.967792881241
4.9677921905722
4.967791858567
4.9677917080279
4.9677916483914
4.9677916342479
4.9677916433673
4.9677916651008
4.9677916945183
4.9677917293727
4.9677917687221
4.9677918121821
4.9677918596203
4.9677919109902
4.9677919662843
4.9677920254979
4.9677920886082
4.9677921555691
4.9677922263104
4.9677923007371
4.967792378729
4.9677924601373
4.9677925447791
4.9677926324242
4.9677927227698
4.9677928153978
4.9677929097056
4.967793004803
4.9677930993748
4.9677931915167
4.9677932785735
4.9677933570373
4.9677934225921
4.967793470424
4.9677934959265
0.89101571859966
0.87057814574926
0.85630957299002
0.84514768717737
0.82923317990004
0.81024804698107
0.7818755269392
0.73128533309583
0.66427302652401
0.58875218528731
0.50692990478507
0.45101724280648
0.57374008657287
1.3235836970601
2.0484529722058
2.7951915727954
3.2827549257517
3.3652644018139
3.3625541570423
3.2857849194889
3.1453843437178
3.0276924026336
2.9968301488832
3.0293784381039
2.9957403392564
2.9606094899124
3.298211689635
11.102917847058
158.73515940938
65.131181126154
5.9083550916909
5.5511243055829
5.4377401640296
5.3551046619309
5.2941587183696
5.2487362132362
5.214496790276
5.1884192483388
5.1687523395369
5.1546696293627
5.1453096608265
5.139118160028
5.1340422850433
5.1285439266749
5.1217402915391
5.1135087294661
5.104533807542
5.0958615306992
5.0883739784664
5.0820804411952
5.0768843750925
5.0726601773729
5.0690454542273
5.0654126346639
5.0608093251969
5.0539589607287
5.044012136516
5.031894615038
5.0199408703483
5.0108737063594
5.0054796775702
5.0030911716306
5.0024326833016
5.0023911139231
5.0025900264481
5.0028777999441
5.0031877128576
5.0034959260684
5.0037962234806
5.0040893753192
5.0043783944927
5.0046662095499
5.0049547694418
5.0052458956919
5.0055707058386
5.0059641561423
5.0064513197872
5.0070601352355
5.0078214563658
5.0087603216341
5.0098765665282
5.0110956379837
5.0120973359172
5.0125508068639
5.0126922158242
5.0117787685204
5.0085030603999
5.0026905618454
4.9947878647452
4.9863556673408
4.9795369625894
4.9747561845459
4.9717897152919
4.9701253907581
4.9691897998835
4.9686209735058
4.9682787710598
4.9680740671797
4.9679526091402
4.9678815045282
4.9678406395333
4.9678176742585
4.967805089311
4.96779838134
4.9677942743468
4.9677928819794
4.9677921909554
4.9677918587589
4.9677917081224
4.9677916484349
4.9677916342673
4.9677916433746
4.9677916651021
4.9677916945162
4.9677917293671
4.9677917687176
4.9677918121771
4.9677918596148
4.9677919109836
4.9677919662778
4.967792025491
4.9677920886009
4.9677921555614
4.9677922263023
4.9677923007288
4.9677923787204
4.9677924601284
4.96779254477
4.9677926324149
4.9677927227603
4.9677928153882
4.9677929096959
4.9677930047932
4.967793099365
4.9677931915068
4.9677932785637
4.9677933570274
4.9677934225823
4.9677934704143
4.9677934959168
0.86936285837982
0.84732510878124
0.82625392569685
0.80083453158435
0.77522763872551
0.737295617011
0.6882823934646
0.63865223970227
0.5888204250795
0.53583865230094
0.48877955413225
0.50861798049618
0.77419689347204
1.4240650984089
2.3230004428886
2.7108540271333
2.6777812282597
2.6443183824263
2.6735545960861
2.711492695209
2.7516126205712
2.895801211886
3.2014846129604
3.5478677870279
3.6377947189007
3.5630860206166
3.6337858668727
12.346335621882
187.13849397121
48.180358711546
5.7952478625151
5.5352174073423
5.4283307105502
5.3493141822995
5.2904745082643
5.246310208576
5.2128422720952
5.1872567138434
5.1679247167976
5.1540750283845
5.1448668079583
5.1387580553703
5.1337207326212
5.1282365758259
5.1214429362149
5.1132318502494
5.1042919733607
5.0956693412595
5.0882312284949
5.0819808527599
5.0768210905171
5.0726261131234
5.0690295200362
5.0654015473675
5.0607836104178
5.053900642574
5.0439184349646
5.0317840063978
5.0198405941379
5.0108037421691
5.0054371078583
5.0030690115137
5.0024163506055
5.0023760833766
5.0025763094004
5.002865697859
5.0031775620038
5.003487859074
5.0037901776444
5.0040851568021
5.0043757218687
5.0046647607814
5.0049542002263
5.0052459905842
5.0055714073077
5.0059652144668
5.0064526509709
5.007061724067
5.0078232547674
5.0087621565811
5.0098782386941
5.0110966978166
5.0120976877556
5.0125633712977
5.0126988534427
5.0116131557175
5.0084771815836
5.0027365933094
4.9948593069358
4.9863742185988
4.9795386874098
4.9747566388026
4.9717900368528
4.9701256513457
4.9691900320889
4.9686211291125
4.9682788653005
4.9680741234869
4.9679526427505
4.9678815244904
4.9678406512483
4.9678176810034
4.9678050930896
4.967798383355
4.9677942752508
4.9677928824834
4.9677921912216
4.9677918588952
4.9677917081899
4.967791648464
4.9677916342786
4.9677916433762
4.9677916650986
4.9677916945085
4.9677917293598
4.9677917687077
4.9677918121665
4.9677918596029
4.9677919109707
4.9677919662643
4.9677920254769
4.9677920885859
4.9677921555457
4.967792226286
4.9677923007118
4.9677923787028
4.9677924601103
4.9677925447515
4.9677926323959
4.967792722741
4.9677928153686
4.9677929096761
4.9677930047732
4.9677930993448
4.9677931914866
4.9677932785435
4.9677933570073
4.9677934225623
4.9677934703944
4.967793495897
0.88934340444537
0.86055540835623
0.81844515051748
0.7699062173039
0.7000499084401
0.63200329035963
0.58131451797101
0.54516086330382
0.51398492696431
0.49066462062393
0.51409118848509
0.67715818478357
1.0550489225143
1.744750602095
2.3477648960016
2.619145714915
2.7865884083489
3.2251806357349
4.1100224036551
5.4499265466298
7.1685773427806
9.0268036481377
10.43886903026
10.919236356933
10.422468752601
9.552921609841
8.2481613966676
21.269080307705
220.37351644616
29.57389398701
5.6923725667524
5.5137273521194
5.4154573637081
5.3413172939737
5.2853488132784
5.2429150303349
5.2105174203129
5.1856211877793
5.1667655907066
5.1532497099989
5.1442593884566
5.1382680401243
5.1332863032094
5.1278264354139
5.1210489160453
5.1128647028381
5.1039689566446
5.0954140281457
5.0880433880704
5.081851045106
5.0767398195272
5.0725822770621
5.0690066646487
5.0653811563029
5.0607402835789
5.0538112953215
5.0437792217108
5.0316191358857
5.0196917838374
5.0107000964799
5.0053742801835
5.0030360939143
5.0023924627565
5.0023547314725
5.0025569244432
5.0028485561137
5.0031631397165
5.0034763719806
5.0037815483574
5.0040790725984
5.0043717247437
5.004662341772
5.0049528659996
5.0052454056946
5.0055715486844
5.0059657315862
5.0064533563987
5.0070624777127
5.007823924915
5.0087626720373
5.0098786210216
5.0110967081475
5.0120978330024
5.012568690202
5.0126976360769
5.0115778682075
5.0084724853092
5.0027440876486
4.9948754520968
4.9863811295709
4.9795397922601
4.9747570461239
4.9717903227987
4.9701258648809
4.9691902065903
4.9686212486978
4.9682789403174
4.9680741694889
4.967952670674
4.9678815412375
4.9678406611175
4.9678176866818
4.9678050962574
4.9677983850274
4.967794275974
4.9677928829112
4.9677921914616
4.9677918590212
4.9677917082526
4.9677916484909
4.9677916342875
4.9677916433759
4.9677916650916
4.9677916945007
4.9677917293511
4.9677917686941
4.9677918121519
4.967791859587
4.9677919109535
4.9677919662461
4.9677920254578
4.9677920885659
4.9677921555246
4.967792226264
4.967792300689
4.9677923786792
4.967792460086
4.9677925447265
4.9677926323704
4.967792722715
4.9677928153422
4.9677929096493
4.9677930047462
4.9677930993177
4.9677931914594
4.9677932785162
4.9677933569801
4.9677934225352
4.9677934703674
4.9677934958701
2.8858845197701
2.5086373246104
1.9521352323789
1.3677804185091
0.93800437642455
0.7024450263053
0.58494825342616
0.52451932046366
0.50408923674595
0.53578288276618
0.68453992387335
1.0263502712804
1.6813724307885
2.3057237606707
3.7035237604635
5.9029867262526
9.135544277674
14.976169709474
23.911571187428
32.3510068983
35.379513568243
34.39000981692
31.727861368704
28.704626348636
25.660968916074
22.804388359675
18.662124801708
47.568171632687
226.46094274051
15.216816239833
5.6151234202216
5.487978457969
5.3997482588857
5.3314280747133
5.2789440858134
5.2386382325171
5.2075710346699
5.18353986606
5.1652887307928
5.1522009581324
5.1434900916053
5.1376455820399
5.1327317405416
5.1273019209585
5.120544030979
5.1123927531148
5.103552078951
5.095084309397
5.0877995935245
5.081681143627
5.0766317837128
5.0725211980363
5.0689718122136
5.0653492818958
5.0606784136605
5.0536901538043
5.0435940959056
5.0314014072423
5.0194966030545
5.0105647723101
5.0052926845603
5.0029933572189
5.0023615725611
5.0023272899537
5.0025319783649
5.0028263824682
5.0031443374908
5.0034612286275
5.0037699671091
5.0040706475992
5.0043658662832
5.0046583948333
5.0049501840159
5.005243587259
5.0055705549868
5.0059650912656
5.006452811615
5.0070618928592
5.007823233818
5.0087618745177
5.009877799793
5.0110958660747
5.0120972448252
5.0125677563983
5.0126924507248
5.0115825937182
5.0084631983442
5.0027338143905
4.9948777996374
4.9863840493782
4.9795404541624
4.9747574222875
4.9717906062098
4.9701260702053
4.9691903652501
4.9686213587279
4.9682790113298
4.9680742140682
4.9679526981842
4.9678815579011
4.9678406709865
4.9678176923718
4.9678050994212
4.9677983866379
4.9677942766672
4.9677928833836
4.9677921917334
4.9677918591658
4.9677917083252
4.9677916485228
4.9677916342974
4.9677916433746
4.9677916650857
4.9677916944848
4.9677917293328
4.9677917686794
4.9677918121351
4.9677918595687
4.9677919109339
4.9677919662252
4.9677920254359
4.9677920885428
4.9677921555005
4.9677922262388
4.9677923006628
4.9677923786521
4.9677924600581
4.9677925446978
4.967792632341
4.9677927226851
4.9677928153118
4.9677929096185
4.9677930047152
4.9677930992864
4.967793191428
4.9677932784848
4.9677933569488
4.967793422504
4.9677934703363
4.9677934958391
101.54666076405
31.550775204034
10.538834411542
4.4099639008405
2.1913614374971
1.2439576696803
0.83260829742391
0.70900557032516
0.74087802705771
0.93589324281264
1.4303888718057
2.0745918549879
3.0359363756747
6.9110387827881
19.81756704287
39.208773939964
57.709198143091
76.409989493228
83.397289278064
79.315445319304
69.563760730505
59.667846683595
52.414190706399
47.36687421586
43.261198336518
38.508069519846
35.064414450832
105.75714752851
181.00954712479
8.1111489354968
5.5565470623435
5.4594325694804
5.3819409111624
5.3200263303207
5.2714635578132
5.2335930206679
5.2040688232375
5.181052414066
5.1635174128465
5.1509418416517
5.1425677711432
5.1368942395401
5.1320576923858
5.1266623666732
5.1199278134079
5.1118158781738
5.1030410328235
5.0946803637818
5.0874993152833
5.0814702121072
5.0764958015062
5.072441909892
5.0689240456839
5.0653045618616
5.0605967745154
5.0535354989627
5.0433623376324
5.0311315435043
5.0192567837311
5.0103995194369
5.0051937173126
5.0029416450474
5.0023242139029
5.0022940913123
5.0025016384071
5.0027992104144
5.0031210561687
5.00344221552
5.0037551405565
5.0040595464496
5.0043577956488
5.0046525732376
5.0049458472525
5.0052403161106
5.00556828307
5.0059632543943
5.0064511184826
5.007060222473
5.0078215358343
5.008760140011
5.0098761043334
5.0110943299551
5.0120957785408
5.0125646417861
5.0126878743269
5.0115865610345
5.0084548001644
5.0027267696135
4.9948778967879
4.986385069629
4.9795408388541
4.9747577855946
4.9717909064209
4.9701262878478
4.9691905280957
4.968621471698
4.9682790850939
4.9680742608184
4.9679527271892
4.9678815755202
4.9678406814369
4.9678176983974
4.9678051027596
4.9677983882715
4.9677942774389
4.9677928841202
4.9677921921605
4.9677918593913
4.9677917084378
4.9677916485735
4.9677916343152
4.9677916433769
4.9677916650801
4.9677916944753
4.9677917293199
4.9677917686637
4.9677918121176
4.9677918595497
4.9677919109135
4.9677919662034
4.967792025413
4.9677920885188
4.9677921554752
4.9677922262124
4.9677923006354
4.9677923786238
4.9677924600289
4.9677925446679
4.9677926323104
4.9677927226539
4.9677928152801
4.9677929095864
4.9677930046827
4.9677930992537
4.9677931913952
4.967793278452
4.9677933569159
4.9677934224712
4.9677934703036
4.9677934958065
30.466942833866
49.337330475326
32.053799199294
16.356241904437
7.8195493917361
4.2169160502089
2.8372022510739
2.4229306191863
2.4819109193628
2.7973536760189
3.4334149353532
5.1285827450042
12.13756799428
42.015619982827
84.969541648998
96.671765246586
109.89773902943
117.3094360482
113.6378207568
102.40420028765
88.647158360984
77.132454090845
69.49966112252
65.046984289141
61.388694991335
56.294993507932
59.371251408707
145.82737627192
145.35607756111
7.4850594619236
5.5283192301532
5.4478317290118
5.378396145609
5.3202557883443
5.2732960837514
5.2359506343732
5.2064372650538
5.1831736603088
5.1652023773243
5.1520748265364
5.1431877716985
5.1372647390012
5.132486856696
5.1273441952656
5.1210305341689
5.1132466522322
5.1046228685573
5.0961563024975
5.0887994748488
5.0825994810603
5.0774612608567
5.0732720074045
5.0697174706219
5.0662083107847
5.0618574512429
5.0554168036033
5.0459109769491
5.0339651614267
5.0217406195125
5.0120403414862
5.006053249464
5.0032090454521
5.0023556977547
5.0022311944382
5.0024010920935
5.0026879413563
5.0030111917923
5.0033383728935
5.0036583667009
5.0039691597402
5.0042724033002
5.0045706798265
5.0048661879122
5.0051603891024
5.0054773505311
5.0058538906987
5.0063163505253
5.0068924145942
5.0076129133221
5.0085057558829
5.00957996779
5.0107913746225
5.0118869438345
5.0124784783525
5.0126837440804
5.011585415642
5.0084477190201
5.0027214598559
4.9948767457918
4.9863850834107
4.979541074467
4.9747581648135
4.9717912434053
4.9701265302741
4.9691907049375
4.9686215936501
4.9682791650695
4.9680743117725
4.9679527589137
4.9678815948183
4.9678406928797
4.9678177049883
4.9678051064073
4.9677983900663
4.9677942785755
4.9677928854859
4.9677921929667
4.9677918598176
4.9677917086503
4.967791648671
4.9677916343545
4.967791643386
4.9677916650733
4.9677916944604
4.9677917293001
4.9677917686403
4.9677918120914
4.9677918595212
4.9677919108829
4.9677919661708
4.9677920253785
4.9677920884826
4.9677921554373
4.9677922261728
4.9677923005943
4.9677923785812
4.967792459985
4.9677925446229
4.9677926322643
4.9677927226068
4.9677928152323
4.967792909538
4.9677930046337
4.9677930992044
4.9677931913456
4.9677932784023
4.9677933568663
4.9677934224216
4.9677934702541
4.9677934957571
1.1290799200893
13.240204521294
37.920385600804
41.878478333009
39.316126804606
35.106771647138
32.182253992167
32.655434965069
40.338154869168
62.861120431363
113.27625688053
136.8721355887
114.93295433329
96.550510420936
102.65166880357
112.49859287569
116.1749495498
116.97428951155
119.73147328456
123.3710570317
123.3080766962
118.4924684365
111.91552089735
107.67851808422
112.25817898264
136.22391583796
153.87993738291
77.248662254362
7.0218855408318
5.458362995957
5.4168491712542
5.370078335611
5.3229672955432
5.2806829694135
5.244784875068
5.2151357155456
5.1910025409463
5.1716473318484
5.1567615538011
5.1461108713074
5.1390250398166
5.1339663984117
5.1293826863563
5.124106756016
5.1174587867186
5.1094987992983
5.1009783339934
5.0930555336175
5.0862803987058
5.0805999135227
5.0759182950397
5.0720861788525
5.0686876643448
5.0650723700495
5.0602077971502
5.052848718092
5.0423727006788
5.0300103549032
5.0182844222913
5.0097411796222
5.0048072986719
5.002742008805
5.0021791857859
5.0021644695285
5.0023813279355
5.0026894147335
5.0030247768947
5.0033613967483
5.0036900191733
5.0040088147179
5.0043190913094
5.0046230555319
5.0049226764583
5.0052223376188
5.0055550502813
5.005952478832
5.0064415206415
5.0070511871716
5.0078127319315
5.0087513615307
5.0098673147559
5.0110855828435
5.0120857260044
5.0125507003301
5.0126734445774
5.0115752342643
5.0084347241224
5.0027112820786
4.9948719694118
4.9863837527462
4.97954135523
4.9747590511154
4.9717920693194
4.9701271172395
4.9691911217189
4.9686218770006
4.9682793498563
4.9680744291959
4.9679528318723
4.9678816391024
4.9678407190767
4.9678177200459
4.9678051147605
4.9677983943379
4.967794280534
4.9677928866904
4.9677921936219
4.9677918601561
4.9677917088163
4.967791648746
4.9677916343809
4.967791643389
4.9677916650619
4.9677916944425
4.9677917292779
4.9677917686147
4.9677918120632
4.9677918594906
4.9677919108501
4.9677919661359
4.9677920253415
4.9677920884437
4.9677921553966
4.9677922261303
4.96779230055
4.9677923785354
4.9677924599377
4.9677925445742
4.9677926322146
4.9677927225561
4.9677928151806
4.9677929094855
4.9677930045807
4.9677930991509
4.9677931912918
4.9677932783483
4.9677933568122
4.9677934223675
4.9677934702001
4.9677934957031
0.10259629590963
1.2315746324627
4.7507970179295
12.434421165429
28.43828477316
50.828933169695
71.939705714606
81.817660757122
78.754800815619
65.857017712065
57.449260502561
59.854443378813
67.051381742821
71.525534050372
72.831680707787
72.59381855826
71.449106147587
73.094836152526
84.686391502595
107.92077443569
129.97084866092
140.33604903994
141.56103941622
137.14412316146
122.71947455393
94.624900144588
30.651832983009
6.3874638845885
5.357652963051
5.3578552797808
5.3432180947121
5.3161724056897
5.2845652793547
5.2535551301983
5.2255337734587
5.2013359922223
5.1809627873025
5.164295316952
5.1514265551756
5.14226331437
5.1361192023268
5.1315624062615
5.1271398145643
5.1219423130957
5.1153566431422
5.1075177119632
5.0992218770701
5.0916683157001
5.0852263849077
5.0798317429384
5.0753906190646
5.0717368274761
5.0684330214435
5.0648093575305
5.059796128548
5.0521726900672
5.0414480615195
5.0290041035591
5.0174413883985
5.00918500601
5.004491036988
5.0025815887484
5.0020619711996
5.0020588537058
5.002281313683
5.0025959310293
5.0029405435077
5.0032885895127
5.0036295351839
5.0039602203594
5.0042809003691
5.0045931707514
5.0048987969234
5.0052041013883
5.0055416697835
5.00594184027
5.006432339211
5.0070427199471
5.0078045654987
5.0087432252684
5.0098589842501
5.0110766196933
5.0120750852461
5.0125382169005
5.0126603780072
5.0115611152507
5.0084204333783
5.0026995460841
4.9948649257838
4.9863813901445
4.9795416007966
4.974760167481
4.9717931164895
4.9701278486087
4.969191629616
4.9686222170165
4.9682795695154
4.9680745679259
4.9679529176768
4.9678816909864
4.9678407496681
4.9678177375869
4.967805124514
4.9677983995793
4.9677942828865
4.967792887925
4.9677921942625
4.9677918604795
4.9677917089748
4.9677916488189
4.9677916344074
4.9677916433925
4.9677916650547
4.9677916944297
4.9677917292614
4.9677917685955
4.9677918120418
4.9677918594675
4.9677919108253
4.9677919661095
4.9677920253136
4.9677920884142
4.9677921553657
4.967792226098
4.9677923005164
4.9677923785006
4.9677924599018
4.9677925445373
4.9677926321766
4.9677927225173
4.9677928151412
4.9677929094454
4.9677930045401
4.9677930991099
4.9677931912505
4.9677932783067
4.9677933567705
4.9677934223258
4.9677934701583
4.9677934956613
0.014961362497338
0.73526913752516
3.2535909694417
6.0621968983929
8.2414786747254
10.573422509677
13.727670292839
17.692568662576
22.13121163103
26.60355396032
30.502050568469
33.242355035455
35.058491721027
36.331979679842
37.225566408012
37.659304419973
37.461608477412
37.271115446667
38.821358498664
43.715609175333
51.013307584202
56.320241008766
54.969480808802
43.689377173997
23.933707868378
9.0211636793641
5.4183091055509
5.250678334566
5.2755511976029
5.2885261561823
5.2852006885949
5.2703647938249
5.2499752886136
5.2279202680493
5.2066344873929
5.1873578350148
5.1705491443341
5.1565640485154
5.1457714234506
5.1381874557939
5.1329473057322
5.1288157873009
5.1246123960203
5.1194787534388
5.1129493195333
5.1052355147695
5.0972212152154
5.090079504537
5.0840045960514
5.0789243822126
5.0747478975055
5.0712859855581
5.0680807128091
5.0644300356972
5.0592267459299
5.051287143926
5.0402908461471
5.0277906638628
5.0164591697632
5.0085531623625
5.0041438432573
5.0024086489785
5.0019355657985
5.0019441715429
5.0021707285803
5.0024902839938
5.0028430276254
5.0032021479826
5.0035558779595
5.003899574335
5.004232151399
5.004554274937
5.0048671586617
5.0051804626765
5.0055243910979
5.0059283570225
5.0064209592236
5.0070324056803
5.007794689184
5.0087333820946
5.0098488450215
5.0110656207282
5.0120620670534
5.0125233456232
5.0126448185185
5.0115442435779
5.0084036390116
5.0026855680145
4.9948563691132
4.986378576255
4.9795419612473
4.9747615518794
4.9717943906443
4.9701287233272
4.9691922276475
4.9686226125579
4.9682798227813
4.9680747268529
4.9679530154991
4.9678817499124
4.9678407843035
4.967817757399
4.9678051355204
4.9677984055117
4.9677942855134
4.9677928892872
4.9677921949575
4.9677918608255
4.9677917091423
4.9677916488953
4.9677916344387
4.9677916434011
4.9677916650526
4.9677916944219
4.9677917292503
4.9677917685821
4.9677918120268
4.9677918594511
4.9677919108078
4.9677919660908
4.9677920252938
4.9677920883933
4.9677921553438
4.9677922260751
4.9677923004926
4.9677923784758
4.9677924598762
4.9677925445109
4.9677926321496
4.9677927224896
4.9677928151129
4.9677929094167
4.967793004511
4.9677930990805
4.9677931912208
4.9677932782769
4.9677933567405
4.9677934222957
4.9677934701282
4.9677934956312
0.0044829624261741
0.52826606923128
2.6456389264711
5.3084221968766
6.9423871730399
7.8145638950864
8.6788025543565
9.74402184933
10.898719927084
11.975799167563
12.850801758541
13.514705600735
14.020496961073
14.392397820016
14.535730062989
14.258242759196
13.754857169699
13.520171044813
13.591188671199
13.638042414328
13.089144110705
11.387886168443
8.7210493301807
6.3750351099894
5.3493115932501
5.1600707197054
5.1686697655313
5.1985303293563
5.2240060431225
5.2381526573233
5.2402233082169
5.2328748845279
5.2201016384501
5.2047491697595
5.1889141476261
5.1738275626835
5.1602405089155
5.1488199747601
5.1400765518819
5.1339918517361
5.1296601071639
5.1258611377249
5.1218636253005
5.1167673551235
5.110280130895
5.1026784622731
5.0950275854468
5.0883256056092
5.0826384186703
5.0778906170421
5.0739933210855
5.0707271236012
5.0676143644254
5.0639083447729
5.0584664261661
5.0501599619405
5.0388841633425
5.0263728939083
5.0153547319611
5.007862543978
5.0037796633257
5.0022314162234
5.0018061683888
5.0018260019753
5.0020544128689
5.0023763563253
5.0027349817115
5.0031036074492
5.0034694382993
5.0038263340005
5.0041716363982
5.0045047187558
5.0048265330684
5.0051504993658
5.0055025350512
5.0059115963534
5.0064071236212
5.0070201222174
5.0077830545292
5.0087217999522
5.0098368742387
5.0110526170605
5.0120467750311
5.0125059935093
5.012626662688
5.0115245921712
5.0083841619245
5.0026694694912
4.9948466820262
4.9863755538145
4.9795425244534
4.9747632265906
4.9717958906395
4.9701297354237
4.9691929105236
4.9686230595574
4.9682801066887
4.9680749039215
4.9679531239806
4.9678818150195
4.967840822457
4.9678177791698
4.9678051475928
4.9677984120122
4.9677942883676
4.9677928907615
4.9677921957047
4.9677918611959
4.9677917093213
4.9677916489783
4.9677916344749
4.9677916434143
4.9677916650544
4.9677916944181
4.9677917292434
4.9677917685734
4.9677918120169
4.9677918594403
4.9677919107961
4.9677919660783
4.9677920252805
4.9677920883793
4.967792155329
4.9677922260597
4.9677923004765
4.9677923784591
4.967792459859
4.9677925444931
4.9677926321313
4.9677927224709
4.9677928150938
4.9677929093973
4.9677930044913
4.9677930990605
4.9677931912006
4.9677932782565
4.96779335672
4.9677934222751
4.9677934701076
4.9677934956105
0.0040995342836227
0.41998752999606
2.2211087417123
4.6290750674821
6.0048918037709
6.3838632011991
6.4772105914675
6.5880256525189
6.7021717166943
6.7773418326524
6.8045741033216
6.792020226195
6.7498433160425
6.6799395356009
6.5726388324719
6.4245730951029
6.238850913373
6.0201384060057
5.8028533729897
5.5961923077095
5.4073346414469
5.2533333042665
5.1508902488282
5.1054634333544
5.1001063746957
5.1159064550672
5.1411600133601
5.1673561497848
5.1886494006398
5.2015708097277
5.2057563025724
5.2028034283128
5.1949421944868
5.1844323750286
5.1728040350441
5.1611538260042
5.1504043188409
5.1413634268451
5.1346123207547
5.1298283321153
5.1261963193065
5.1227939736322
5.1189354527902
5.1138385195184
5.1073702788263
5.0998685518223
5.0926884246236
5.0864418376717
5.0811522106048
5.0767459510278
5.0731327219555
5.0700573573405
5.0670208122111
5.0632196240505
5.0574827338167
5.0487606729536
5.0372152489715
5.0247574961223
5.0141477619452
5.0071305738722
5.0034122838132
5.0020550992285
5.0016789987256
5.0017093461773
5.001937096878
5.0022580402341
5.0026192690097
5.0029945792615
5.0033704460814
5.0037393932608