/*--------------------------------*- C++ -*----------------------------------*\
| =========                 |                                                 |
| \\      /  F ield         | OpenFOAM: The Open Source CFD Toolbox           |
|  \\    /   O peration     | Version:  2312                                  |
|   \\  /    A nd           | Website:  www.openfoam.com                      |
|    \\/     M anipulation  |                                                 |
\*---------------------------------------------------------------------------*/
FoamFile
{
    version     2.0;
    format      ascii;
    arch        "LSB;label=32;scalar=64";
    class       volScalarField;
    location    "1e-05";
    object      maxKappa;
}
// * * * * * * * * * * * * * * * * * * * * * * * * * * * * * * * * * * * * * //

dimensions      [0 0 0 0 0 0 0];

internalField   nonuniform List<scalar> 
109340
(
0.15455694023499
0.1617867508967
0.17267222961297
0.18714926533741
0.20578959560267
0.22981915573639
0.2610080851928
0.30196494329852
0.35654144287756
0.4301484166533
0.53088810011742
0.66994607172124
0.86523260867624
1
1
1
1
1
1
1
1
1
1
1
1
1
1
1
1
1
1
1
1
1
1
1
0.15606919623905
0.16424270959387
0.17589041424172
0.19110154470147
0.2107227434411
0.23610024649591
0.26912463718762
0.31277019896259
0.37127261879236
0.45073349000618
0.5599446890426
0.71169179526912
0.92537326880263
1
1
1
1
1
1
1
1
1
1
1
1
1
1
1
1
1
1
1
1
1
1
1
0.15586421500236
0.16427782181363
0.1757062431194
0.19063035642736
0.20983748154971
0.23482517268441
0.26736734406757
0.31042905111653
0.36832284314533
0.44750535268198
0.55743868849
0.71037778017583
0.92536478927296
1
1
1
1
1
1
1
1
1
1
1
1
1
1
1
1
1
1
1
1
1
1
1
0.15555154437904
0.1638829580325
0.17500462772482
0.18959307443041
0.20850241895498
0.23297072737067
0.26487753061928
0.30699290724108
0.36356103477566
0.44112922096106
0.55012382883119
0.70471897511122
0.92433264150841
1
1
1
1
1
1
1
1
1
1
1
1
1
1
1
1
1
1
1
1
1
1
1
0.15460353761315
0.16293154813791
0.17407742262458
0.18845648906093
0.20695374419901
0.2308128836773
0.2618227691118
0.30263669594734
0.35732135451556
0.43230490079916
0.53809302794721
0.6902888577603
0.91215981920828
1
1
1
1
1
1
1
1
1
1
1
1
1
1
1
1
1
1
1
1
1
1
1
0.15293661727956
0.16187701523997
0.17336310449642
0.18843374071011
0.20817877319243
0.23411901025919
0.26845458384962
0.31452782676102
0.37762010821275
0.4665298333578
0.59578026601913
0.78782718804781
1
1
1
1
1
1
1
1
1
1
1
1
1
1
1
1
1
1
1
1
1
1
1
1
1
1
1
1
1
1
1
1
1
1
1
1
1
1
1
1
1
1
1
0.99890543682591
0.95107891172428
0.9097165943968
0.87177712896621
0.83625839808085
0.80098834737417
0.7678837333715
0.73382114750892
0.69385529092304
0.61879191866355
0.43235354037297
0.39761833145332
0.39883119874001
0.39946954033408
0.39994826715339
0.40030180534091
0.40056197271298
0.40075272784931
0.40089109448261
0.40098765732943
0.40104766788164
0.40107601239257
0.40108197644566
0.40107965379812
0.40107667875523
0.40108285930797
0.40109912168066
0.40112129909198
0.40114335407005
0.40116300720982
0.40117956166086
0.40119287669378
0.40120304714921
0.40121116933961
0.40121955869549
0.40123220653442
0.40125528885737
0.40129397457126
0.40134727331627
0.40140231801849
0.40144408551427
0.40146929132039
0.40148038827174
0.40148288977703
0.4014828907407
0.40148136872516
0.40147886559232
0.40147584563045
0.40147256885139
0.40146914948229
0.40146561666592
0.40146195607531
0.40145813731238
0.40145413153895
0.40144992391334
0.40144536942431
0.40144008205417
0.40143376754054
0.40142610520435
0.40141672271867
0.40140526254325
0.40139158461332
0.40137610976154
0.40136153209069
0.40135296911608
0.80270144972638
0.80271269597286
0.80274705677782
0.80277477119267
0.80288946993414
0.80296802345849
0.80302833974908
0.80306948549067
0.80309441575253
0.80310826268358
0.80311639456219
0.80312181312052
0.80312535526797
0.8031276075016
0.80312900092223
0.8031298386935
0.80313032767395
0.80313060460191
0.8031307567666
0.80313083776587
1
1
1
1
1
1
1
1
1
1
1
1
1
1
1
1
1
1
1
1
1
1
1
1
1
1
1
1
1
1
1
1
1
1
1
1
1
1
1
1
1
1
1
1
1
1
1
1
1
1
1
1
1
1
1
0.98106474726033
0.92853460974364
0.8807206289735
0.8347323177855
0.79054554485529
0.75139405874161
0.72034050271118
0.68586460173377
0.64716106071423
0.56917044032087
0.40072899985626
0.39823358954069
0.39906743314619
0.39963923337973
0.40006961085515
0.40038895253665
0.40062489001944
0.40079810688384
0.40092326477961
0.40100892149212
0.40105947953746
0.40108051168973
0.40108310721288
0.40107940997753
0.40107795852183
0.401086845439
0.40110501693343
0.40112749802581
0.40114893975086
0.40116771288621
0.4011833429931
0.40119575213118
0.40120518248683
0.40121308878344
0.40122208184949
0.40123679792996
0.40126356538808
0.40130648949026
0.40136218403972
0.40141459630756
0.40145213698197
0.40147341760748
0.40148158136142
0.40148309779135
0.40148271103877
0.40148089309808
0.40147821464109
0.40147510103061
0.40147176993023
0.40146831044493
0.40146473827608
0.40146103305146
0.40145716354271
0.4014531034203
0.40144883786616
0.40144412622606
0.401438608345
0.40143198830128
0.40142393196187
0.40141405970344
0.40140204346953
0.40138784165639
0.40137218002908
0.40135861825214
0.40135196043974
0.80270143455933
0.80271267942845
0.80274718418596
0.80277490269582
0.80288923521498
0.80296797978369
0.80302833409197
0.80306948332845
0.80309441416844
0.80310826127101
0.8031163929296
0.8031218118641
0.80312535438665
0.80312760690844
0.80312900053583
0.80312983844983
0.80313032752519
0.80313060451434
0.80313075671688
0.80313083774144
1
1
1
1
1
1
1
1
1
1
1
1
1
1
1
1
1
1
1
1
1
1
1
1
1
1
1
1
1
1
1
1
1
1
1
1
1
1
1
1
1
1
1
1
1
1
1
1
1
1
1
1
1
1
1
0.93325572466124
0.87170061946784
0.8159479161591
0.76288088570155
0.71274857067134
0.6689000905855
0.63991037358105
0.61413980386421
0.60539148048725
0.54927237531508
0.39728335871767
0.39841422151296
0.39915378494964
0.39969216321853
0.40010271067464
0.40041022342153
0.40063894790203
0.40080764028526
0.4009298177789
0.40101340126699
0.4010625076733
0.4010825863687
0.40108479929695
0.40108073969514
0.40107914988816
0.40108797018011
0.4011060242714
0.40112831476602
0.40114954435182
0.40116811594681
0.40118357123627
0.40119583780701
0.4012051616398
0.40121301763914
0.40122202713281
0.40123684989896
0.40126380891147
0.40130694267549
0.40136274101284
0.40141508927448
0.40145250877821
0.40147367623154
0.40148175654111
0.40148324797474
0.40148285059435
0.40148101529533
0.40147832013957
0.4014751884017
0.40147183902672
0.40146836243021
0.40146477523727
0.40146105768892
0.40145717869515
0.40145311188855
0.40144884165271
0.4014441257676
0.40143860634748
0.40143198593492
0.40142392972819
0.40141405781282
0.40140204197949
0.40138783978001
0.40137217505564
0.40135860311647
0.40135193883495
0.8027014171761
0.80271271389201
0.80274754533301
0.80277516442228
0.80288879121711
0.8029679017231
0.80302832573394
0.80306948067808
0.80309441245022
0.80310825992552
0.80311639157872
0.80312181079597
0.8031253536309
0.80312760640005
0.8031290002064
0.80312983824343
0.80313032740024
0.80313060444118
0.80313075667551
0.80313083771964
1
1
1
1
1
1
1
1
1
1
1
1
1
1
1
1
1
1
1
1
1
1
1
1
1
1
1
1
1
1
1
1
1
1
1
1
1
1
1
1
1
1
1
1
1
1
1
1
1
1
1
1
1
0.98131744275208
0.8730757355848
0.77445014859517
0.69239762409447
0.63025762902613
0.58181664316841
0.54660101607399
0.52395366932551
0.52150146410802
0.51756744748754
0.54748163462666
0.5185217145242
0.39541795777489
0.39864154300344
0.39927115623666
0.39976478244783
0.40014852919914
0.40043988346012
0.40065866101965
0.40082106293176
0.40093907273221
0.40101972444847
0.40106676709914
0.40108549205529
0.40108719305099
0.40108262279781
0.40108083898966
0.40108956634918
0.40110745935572
0.40112948001839
0.4011504081771
0.40116869355259
0.40118389986898
0.40119596190101
0.40120513706097
0.40121292236249
0.40122195427192
0.40123693073287
0.40126416348772
0.40130759537964
0.40136354689601
0.40141579711153
0.40145303990833
0.40147404265073
0.40148200494622
0.40148346301144
0.40148305012266
0.40148119091719
0.40147847214531
0.40147531476138
0.40147193936517
0.40146843821551
0.40146482942057
0.40146109410569
0.4014572014651
0.40145312495166
0.40144884821102
0.40144412648778
0.40143860484916
0.40143198385504
0.40142392772237
0.40141405620827
0.40140204082524
0.40138783797598
0.40137216974859
0.40135859337553
0.40135192633519
0.80270138150045
0.80271279889566
0.80274769069925
0.80277525384611
0.80288863645683
0.80296786329525
0.80302831949216
0.8030694780274
0.80309441069494
0.80310825859779
0.80311639035477
0.80312180982889
0.80312535294193
0.80312760593526
0.80312899990525
0.80312983805533
0.80313032728664
0.80313060437493
0.80313075663844
0.80313083770025
1
1
1
1
1
1
1
1
1
1
1
1
1
1
1
1
1
1
1
1
1
1
1
1
1
1
1
1
1
1
1
1
1
1
1
1
1
1
1
1
1
1
1
1
1
1
1
1
1
1
1
1
0.85281564656014
0.67998549729485
0.56095539291914
0.50108387840049
0.47007546008113
0.45061024135197
0.43796347495203
0.42990192301468
0.43353533157961
0.43204016463694
0.44245684875193
0.50246376482279
0.48084929481294
0.39682632072991
0.39888897520055
0.39941263823052
0.39985361628433
0.40020526839054
0.40047697349026
0.40068349317378
0.40083806049032
0.40095083795926
0.40102777264173
0.40107217043901
0.40108915977608
0.40109017125069
0.4010850262956
0.40108300812708
0.40109161994128
0.40110931067736
0.40113098550302
0.40115152779769
0.40116944739858
0.40118433497641
0.40119613338514
0.40120512062186
0.4012128154031
0.40122187594363
0.40123705310548
0.40126463947118
0.40130845421718
0.40136459826338
0.40141671330156
0.40145372270341
0.40147451015802
0.40148232172712
0.40148373857409
0.40148330638456
0.40148141804026
0.40147866959274
0.40147547977613
0.40147207115556
0.4014685383887
0.40146490157466
0.4014611430414
0.40145723239189
0.4014531430057
0.40144885762698
0.40144412825371
0.40143860345573
0.40143198144191
0.40142392517522
0.40141405397811
0.40140203912016
0.40138783589
0.4013721651833
0.4013585900641
0.40135192734094
0.8027013841247
0.80271293376461
0.80274778427903
0.8027753451821
0.80288855915227
0.80296784329288
0.80302831516442
0.80306947537221
0.80309440874573
0.80310825710667
0.80311638907343
0.80312180883217
0.80312535223156
0.80312760545519
0.80312899959387
0.80312983786071
0.80313032716951
0.80313060430684
0.8031307566007
0.80313083768176
1
1
1
1
1
1
1
1
1
1
1
1
1
1
1
1
1
1
1
1
1
1
1
1
1
1
1
1
1
1
1
1
1
1
1
1
1
1
1
1
1
1
1
1
1
1
1
1
1
1
0.87154747374932
0.62004780979213
0.48970335311438
0.4214223552976
0.39398828244658
0.3854716622684
0.38244183270156
0.3811872600397
0.38067767560802
0.38501041090463
0.3861875282105
0.38994796574687
0.40804349549315
0.48069682190849
0.43415671774316
0.39811234844115
0.39914504117981
0.39957043857174
0.39995457385507
0.40027077796408
0.40052031712821
0.40071277409696
0.40085823085591
0.40096485767237
0.40103738120761
0.40107860957314
0.40109350698289
0.40109371101725
0.40108790985908
0.40108563181422
0.40109410985588
0.40111156066341
0.40113281873005
0.40115289699735
0.4011703772276
0.40118488136166
0.40119636140286
0.40120512392595
0.40121270962319
0.40122180814843
0.40123723104754
0.40126524842792
0.40130952600307
0.40136589237996
0.40141783052614
0.40145454833588
0.40147507079107
0.40148270085687
0.40148406972362
0.40148361527893
0.40148169404103
0.40147891100792
0.40147568293758
0.40147223459111
0.40146866355334
0.40146499245514
0.40146120524492
0.40145727217451
0.40145316665641
0.40144887011984
0.40144413104539
0.4014386019964
0.4014319784691
0.40142392187872
0.40141405100115
0.40140203687951
0.40138783382056
0.40137216203925
0.40135859123119
0.40135193650085
0.80270141335787
0.80271303084855
0.80274785769567
0.80277539902872
0.80288852755644
0.80296783529965
0.80302831214186
0.80306947253133
0.803094406457
0.80310825537022
0.80311638765522
0.80312180774784
0.80312535146238
0.80312760493662
0.80312899925857
0.80312983765178
0.80313032704384
0.80313060423412
0.80313075656062
0.80313083766605
1
1
1
1
1
1
1
1
1
1
1
1
1
1
1
1
1
1
1
1
1
1
1
1
1
1
1
1
1
1
1
1
1
1
1
1
0.74475530651205
1
1
1
1
1
1
1
1
1
1
1
1
0.78711990457233
0.51626253185971
0.40344287935054
0.3788526625193
0.37555339998869
0.3795851102992
0.38098672457223
0.38049273844499
0.37871143521272
0.37557807981143
0.37291417106051
0.37137752757016
0.37364003855931
0.40169217272663
0.46164542150502
0.41679202722884
0.3985235427445
0.39932470641188
0.39965053273924
0.39998565929439
0.40027802152843
0.40051698629616
0.40070567028547
0.40085081620611
0.40095901381508
0.40103438047105
0.40107916648504
0.40109726206164
0.40109864820081
0.40109277241345
0.40108856421149
0.40109394115874
0.40110931812429
0.40112980372673
0.40114983202144
0.40116750772153
0.40118230460462
0.40119415152024
0.40120321526363
0.40121072631867
0.4012190992934
0.4012325886067
0.40125738319187
0.40129815550576
0.4013528790326
0.40140745086829
0.40144801151682
0.4014720208506
0.40148218281087
0.40148437761527
0.40148426766773
0.40148260663873
0.40147995450616
0.401476768395
0.40147331698453
0.4014697273346
0.40146604016717
0.4014622487765
0.40145832625619
0.40145424424371
0.4014499874134
0.40144538427458
0.4014400742149
0.40143375137016
0.40142608692102
0.40141670561222
0.40140524858786
0.40139157010776
0.4013760881577
0.40136149391752
0.40135294641989
0.80270145462206
0.80271310400472
0.8027479162889
0.80277544526025
0.80288852332859
0.80296783439386
0.80302830989487
0.80306946936065
0.80309440375139
0.80310825336262
0.80311638606949
0.80312180654904
0.80312535061442
0.80312760436534
0.80312899888917
0.8031298374219
0.8031303269059
0.80313060415425
0.80313075651687
0.80313083765247
1
1
1
1
1
1
1
1
1
1
1
1
1
1
1
1
1
1
1
1
1
1
1
1
1
1
1
1
1
1
1
1
1
1
1
1
0.36136343819382
0.46055023137345
0.68567501989206
0.87122880327072
1
1
1
1
1
0.87254879491257
0.70323478157213
0.54089946073765
0.41476932391475
0.37658827073163
0.38927548300219
0.39159477957659
0.39144260059814
0.39036636855751
0.38842728312699
0.38569267222163
0.38256802465175
0.38054804051179
0.37773253621254
0.37433721672854
0.37988312725341
0.41708491344944
0.43589980279581
0.401590931206
0.39938652242761
0.3998287832221
0.39987553662879
0.40006892776599
0.40029064280525
0.40049754820601
0.40067499890687
0.4008196847305
0.4009330627635
0.40101734648078
0.40107346578416
0.4011027394125
0.40110985466471
0.4011068770219
0.4010989379907
0.4010958886245
0.401103925478
0.40112047321645
0.40114011302445
0.40115840880742
0.40117420582361
0.4011872371506
0.40119749009019
0.40120538029468
0.40121255914957
0.40122183722391
0.40123826995562
0.40126801694081
0.40131410181832
0.40137120127261
0.40142229948334
0.40145777534152
0.40147721047009
0.40148413522603
0.40148534172294
0.40148480636637
0.40148277925409
0.40147987774607
0.40147651263284
0.40147291562166
0.40146919581172
0.40146538704666
0.40146148146967
0.40145745365875
0.40145327857209
0.40144892986511
0.40144414798123
0.40143859849727
0.40143196675868
0.40142390800966
0.40141403830664
0.40140202769691
0.4013878288017
0.40137216207793
0.40135861287829
0.4013519880877
0.80270155600882
0.80271323706115
0.80274802950589
0.80277554183975
0.80288855089934
0.80296784275309
0.80302830618289
0.80306946161794
0.80309439693889
0.80310824843471
0.80311638229583
0.80312180373961
0.80312534864276
0.80312760304327
0.80312899803768
0.80312983689374
0.80313032658979
0.80313060397189
0.80313075641584
0.80313083760321
1
1
1
1
1
1
1
1
1
1
1
1
1
1
1
1
1
1
1
1
1
1
1
1
1
1
1
1
1
1
1
1
1
1
1
1
0.36787194865369
0.38252507801993
0.38344428824119
0.37546247091916
0.37705087416629
0.39267859509786
0.40568681536912
0.4074055425549
0.39824986225339
0.38201367548864
0.38134452541653
0.38941891830537
0.39512331946141
0.39659183528628
0.39650224143311
0.39601960467752
0.3956796367211
0.39581914443783
0.39602428570362
0.39496877141914
0.3928761640338
0.39111832720732
0.39692734200687
0.40749899094751
0.41496924343893
0.41446660246266
0.39759253345862
0.40057351132559
0.40065817129557
0.40034579266274
0.40028230751216
0.40037315621125
0.40051037754502
0.40065434548994
0.40078652528717
0.40089921858545
0.40098992792836
0.40105764295763
0.40110119069217
0.40112114944621
0.40112352959099
0.4011169774656
0.40110772228332
0.40110431695903
0.40111210411798
0.4011279391775
0.4011462593722
0.40116313113352
0.40117759035458
0.40118944620903
0.40119871298939
0.40120591267246
0.40121276481563
0.40122223830564
0.40123958166136
0.40127082134156
0.40131838456425
0.40137589265748
0.40142611016645
0.40146043146119
0.40147890210322
0.40148525094707
0.40148634995988
0.4014857587577
0.40148367042782
0.40148069441533
0.40147723476946
0.40147352650953
0.40146968771342
0.40146576270861
0.40146175262898
0.40145763800457
0.4014533972523
0.40144899425574
0.40144417062118
0.40143859956486
0.40143195807843
0.40142389628221
0.40141402730083
0.40140201996742
0.40138782623212
0.40137216815023
0.40135863831521
0.40135203501938
0.80270167134393
0.80271337200066
0.80274815794937
0.80277565881868
0.80288860493227
0.80296785861404
0.8030283020416
0.80306945167094
0.80309438822206
0.80310824228791
0.80311637769806
0.80312180036461
0.80312534629643
0.80312760148027
0.80312899703604
0.80312983627474
0.8031303262205
0.80313060375901
0.80313075629769
0.80313083753992
1
1
1
1
1
1
1
1
1
1
1
1
1
1
1
1
1
1
1
1
1
1
1
1
1
1
1
1
1
1
1
1
1
1
1
1
0.36683046199808
0.38675402355275
0.39609178425638
0.39829793766917
0.39781992028128
0.39667740780245
0.39600332045382
0.39621430489419
0.39718990294747
0.39833889776971
0.39906810125447
0.39929016191112
0.39925548579988
0.39917309567558
0.39899393050354
0.39876723688151
0.39860337206034
0.39873428729415
0.39963291739744
0.40137939119839
0.40339983463681
0.40512843319852
0.40633103849717
0.40365990096547
0.39958856157788
0.4011439129341
0.40172244472902
0.40140314170969
0.40096965617748
0.40071251299795
0.40061372681636
0.4006332485802
0.40070892270806
0.40080242026703
0.40089562327873
0.40097910395337
0.40104803532169
0.40109907161827
0.40112962471222
0.40113972656775
0.4011378934089
0.40112740023537
0.40111715847991
0.40111363795527
0.40112126765289
0.40113633002377
0.4011532072451
0.40116855243343
0.40118158536203
0.40119218194685
0.40120038567368
0.40120685068004
0.40121336860897
0.40122313358098
0.40124159283951
0.40127457516285
0.40132375540324
0.40138147012284
0.4014304882467
0.40146337672323
0.40148069456212
0.40148641337627
0.40148740866938
0.40148677209477
0.40148464279539
0.40148161125072
0.40147807041466
0.40147425543871
0.40147029268645
0.40146623859424
0.4014621064016
0.40145788611616
0.40145356369203
0.40144908546862
0.40144420797626
0.40143860695612
0.40143195086549
0.40142388362227
0.40141401487456
0.40140201149045
0.40138782449493
0.40137217761555
0.40135867053204
0.4013520909381
0.80270180721352
0.80271352546648
0.80274831093032
0.80277580052437
0.80288867305923
0.80296787751428
0.8030282964145
0.80306943929617
0.80309437760355
0.80310823495112
0.80311637229615
0.8031217964423
0.80312534359235
0.80312759969037
0.80312899589443
0.80312983557206
0.80313032580266
0.80313060351899
0.80313075616417
0.80313083746808
1
1
1
1
1
1
1
1
1
1
1
1
1
1
1
1
1
1
1
1
1
1
1
1
1
1
1
1
1
1
1
1
1
1
1
1
0.36607662028072
0.3853400808828
0.39636125720762
0.40004286735765
0.40079680248857
0.40087598515909
0.40081688852328
0.40072857630576
0.40062860637226
0.40051831406189
0.40041324504186
0.40033144783147
0.40028512504134
0.40029340590996
0.40032648271854
0.40040008902246
0.40052269596044
0.40070320605391
0.4009295809124
0.40120190352422
0.40153123410385
0.40180753005206
0.40220355292576
0.40254737112037
0.40259382024566
0.40236343516342
0.4019305229772
0.40151305756098
0.40118713574989
0.40097579191181
0.40087057606762
0.40084685492896
0.4008804107387
0.40093561360586
0.40099712711218
0.40105531635944
0.40110428291563
0.40113926296208
0.40115690158401
0.40115910214958
0.40115149575221
0.40113778466579
0.40112689887146
0.4011235605745
0.40113114201657
0.40114537725607
0.40116074953104
0.40117453276898
0.40118611491279
0.40119542121313
0.40120253339858
0.40120825893433
0.4012144824646
0.40122467522474
0.40124448396453
0.4012794429858
0.40133030286684
0.40138789515557
0.40143534935999
0.40146651920141
0.40148250277232
0.40148756313469
0.40148845831761
0.40148778846284
0.40148564480288
0.40148258747868
0.40147899158824
0.40147508795909
0.40147100835502
0.40146682114392
0.40146255409018
0.40145821094769
0.40145378552027
0.40144921179287
0.40144426657701
0.4014386250218
0.40143194789704
0.40142387155553
0.40141400184871
0.40140200294098
0.4013878243314
0.40137219101965
0.40135870988786
0.40135215680548
0.80270196498343
0.80271370398439
0.80274848912371
0.8027759652056
0.80288874979403
0.80296789737292
0.80302828864506
0.80306942435192
0.80309436510788
0.80310822647702
0.80311636613876
0.80312179201407
0.80312534056284
0.80312759769689
0.80312899462882
0.80312983479581
0.80313032534258
0.8031306032552
0.80313075601782
0.80313083738946
1
1
1
1
1
1
1
1
1
1
1
1
1
1
1
1
1
1
1
1
1
1
1
1
1
1
1
1
1
1
1
1
1
1
1
1
0.36571008204806
0.38436756972644
0.39584446183079
0.40000749343828
0.40095355110471
0.40109333151074
0.40107385119958
0.40100569151461
0.40092094593445
0.40083366917809
0.40075763586952
0.40070615085799
0.40069744670055
0.40074859774494
0.40085813202047
0.40104262763153
0.40130724946927
0.40164624019591
0.40203582475477
0.40243209278604
0.40275721873928
0.402937488059
0.40294886290309
0.40282627066567
0.4025514556051
0.40222547051272
0.40188849901254
0.40158527535797
0.40133817740396
0.4011652684669
0.40106439010726
0.40102202438087
0.40102406684753
0.40105146137429
0.40108798129175
0.40112506714391
0.40115626427531
0.40117627416816
0.40118172248628
0.40117761837139
0.40116383824295
0.40114780067877
0.40113670314947
0.40113385692031
0.40114147649923
0.40115482399398
0.40116867614676
0.40118091617341
0.40119107456138
0.40119910410245
0.40120514515754
0.40121016268294
0.40121618656318
0.40122700137137
0.40124843124576
0.40128558538019
0.4013381011694
0.4013951172266
0.40144060974656
0.40146977765911
0.40148425610523
0.40148865923155
0.40148945210487
0.40148875743767
0.4014866246578
0.40148357691488
0.40147996214546
0.40147600034582
0.40147182452764
0.40146751215983
0.40146310560627
0.40145862305868
0.40145406625165
0.40144938368318
0.40144435461902
0.40143865948068
0.40143195256242
0.40142386230253
0.40141398950534
0.40140199526808
0.40138782665955
0.40137220945868
0.40135875740964
0.4013522335088
0.80270214730115
0.80271390873545
0.80274869119506
0.80277615059294
0.80288883247487
0.80296791688996
0.80302827821498
0.80306940673724
0.8030943507867
0.80310821694137
0.80311635929445
0.80312178713557
0.80312533724919
0.80312759552873
0.80312899325839
0.80312983395841
0.80313032484757
0.80313060297215
0.80313075586096
0.80313083730523
1
1
1
1
1
1
1
1
1
1
1
1
1
1
1
1
1
1
1
1
1
1
1
1
1
1
1
1
1
1
1
1
1
1
1
1
0.36550345199322
0.38380075057729
0.39546759773296
0.39990965883854
0.40095417919765
0.40113080127305
0.40112589213918
0.40107997422985
0.40102281923137
0.40096734143422
0.40092254829324
0.40089861405548
0.4009137853624
0.40097563123733
0.40108859800625
0.40125598953014
0.4014811254209
0.40174930243637
0.40203894357085
0.40231128856184
0.40251777197953
0.40262611405188
0.40261675773281
0.40250878728421
0.4023274664983
0.40209960185237
0.40185826667019
0.40163359968901
0.40144343553057
0.40130214058663
0.4012100055248
0.40116039529833
0.40114298462483
0.40114954878687
0.40116690850614
0.40118663652545
0.40120229736051
0.40120834847637
0.40120598595767
0.40119333932106
0.40117460875784
0.40115725371676
0.40114644967301
0.40114436897794
0.40115205645262
0.40116444088065
0.40117678841986
0.40118753780769
0.4011963318756
0.40120313287686
0.40120816832985
0.40121256520357
0.40121853332656
0.40123023486205
0.40125360116448
0.40129314797859
0.40134720086725
0.40140306646018
0.40144618509418
0.40147308042641
0.40148590527571
0.40148967926213
0.40149035889756
0.40148964180917
0.40148753913967
0.40148453340258
0.40148094024936
0.40147696004052
0.40147272138625
0.40146830725525
0.40146376123222
0.40145911888188
0.40145442291842
0.40144961308731
0.40144448207952
0.40143871770507
0.40143196969548
0.40142385904395
0.40141397973638
0.40140198973879
0.40138783276073
0.40137223427722
0.40135881415936
0.40135232162092
0.80270235497244
0.80271413952959
0.80274891576655
0.80280959743479
0.80288891892826
0.80296793478137
0.80302826464895
0.80306938639538
0.80309433472566
0.80310820644154
0.80311635184688
0.8031217818713
0.8031253336981
0.80312759321766
0.803128991804
0.80312983307275
0.80313032432562
0.8031306026744
0.80313075569635
0.80313083721702
1
1
1
1
1
1
1
1
1
1
1
1
1
1
1
1
1
1
1
1
1
1
1
1
1
1
1
1
1
1
1
1
1
1
1
1
0.36538109455906
0.38346491269148
0.39521533197742
0.39983202560185
0.40095282468785
0.40115419861434
0.40116509192041
0.40113853469936
0.40110154762982
0.4010677769636
0.40104392592698
0.40104019606022
0.40106770577459
0.40113008398711
0.40122981136515
0.40136883019126
0.40154422035226
0.40174459011875
0.40195363650195
0.40214530229184
0.40228926175676
0.4023637536004
0.4023624107471
0.40229499745933
0.40217042118203
0.402008635001
0.40183275623977
0.40166325137871
0.40151717052505
0.40140145784758
0.40131929630153
0.40126777251972
0.40124090408958
0.40123152596202
0.40123364454278
0.40123912600544
0.40124116761136
0.4012379670557
0.40122580600303
0.40120608787111
0.40118402118065
0.40116614918342
0.40115612217476
0.40115500207457
0.40116270279034
0.40117401353836
0.40118489878694
0.40119423075445
0.40120173859394
0.40120738108892
0.40121151652817
0.40121541920029
0.40122155490693
0.40123448694731
0.40126014753564
0.40130224858939
0.40135762107365
0.40141164726596
0.40145198667142
0.40147636617034
0.40148742605013
0.4014906163618
0.401491165432
0.40149042015705
0.40148835753081
0.4014854194359
0.40148188448609
0.40147792925649
0.40147366976412
0.40146918819899
0.40146450908704
0.4014597183345
0.40145486871479
0.40144991298102
0.4014446605273
0.40143880894081
0.40143200576436
0.40142386525239
0.40141397524783
0.40140198820728
0.40138784426335
0.401372267133
0.40135888134038
0.40135242169268
0.80270258845857
0.80271439591736
0.80272845989514
0.80280978234581
0.80288900675384
0.80296794977473
0.80302824752935
0.80306936332621
0.80309431704319
0.80310819509293
0.8031163438888
0.80312177629142
0.80312532995866
0.80312759079712
0.80312899028733
0.80312983215247
0.80313032378502
0.8031306023666
0.80313075552689
0.80313083712641
1
1
1
1
1
1
1
1
1
1
1
1
1
1
1
1
1
1
1
1
1
1
1
1
1
1
1
1
1
1
1
1
1
1
1
1
0.3653029827311
0.3832590616897
0.39504734365238
0.39977880825585
0.40096376033857
0.40118039421316
0.40120575233507
0.40119397906189
0.40117155557765
0.40115263612992
0.40114348733181
0.40115393609389
0.40118649873699
0.40124618255978
0.40133250376949
0.40144810508861
0.4015857880919
0.40173807870344
0.40189272197014
0.40203232484145
0.40213593783094
0.40219066945653
0.40219014631323
0.40214685809177
0.40205917932019
0.40194227081261
0.40181236664388
0.40168359273746
0.40156923546616
0.4014738067489
0.40140125644417
0.40135055244534
0.40131835412605
0.40129997918871
0.40129028529637
0.40128381472546
0.40127554001983
0.40126168064909
0.40124109290225
0.40121597957325
0.40119216820475
0.40117463064625
0.40116577564724
0.40116569285021
0.40117327138697
0.40118339674801
0.40119285241078
0.40120083675675
0.40120713560817
0.40121171192428
0.40121508204976
0.40121866455171
0.40122527638235
0.40123986455197
0.40126820798744
0.40131296296578
0.40136911968125
0.40142073303526
0.40145791772315
0.40147958319452
0.40148882164227
0.40149148032113
0.40149190235679
0.40149108763681
0.40148906388849
0.40148620864607
0.40148276011784
0.40147886637146
0.40147462600972
0.40147011859409
0.40146535408028
0.40146042598455
0.40145541453838
0.40145029635268
0.40144490252988
0.40143894397783
0.40143206913633
0.40142388693333
0.40141397917816
0.40140199301579
0.40138786325451
0.40137231006862
0.40135896028451
0.40135253431457
0.80270284799567
0.80271467721755
0.80272873923107
0.80280997653125
0.80288909336701
0.80296796064358
0.80302822651899
0.80306933758839
0.80309429788719
0.80310818302211
0.80311633551941
0.80312177046869
0.80312532608135
0.80312758830041
0.80312898872958
0.80312983121088
0.80313032323366
0.80313060205385
0.80313075535502
0.80313083703484
1
1
1
1
1
1
1
1
1
1
1
1
1
1
1
1
1
1
1
1
1
1
1
1
1
1
1
1
1
1
1
1
1
1
1
1
0.36525241880424
0.38312975925151
0.39493425569539
0.39974589290334
0.40095856883075
0.40120678862846
0.40124919760929
0.40124688116061
0.40123501134495
0.40122676725442
0.40122914361362
0.40124628801218
0.40128139488114
0.40133691655316
0.40141278166271
0.40150751736435
0.40161704938795
0.40173487513304
0.40185169705505
0.40195500076211
0.40203230051894
0.40207324328641
0.40207366862971
0.40204327778846
0.40197990132591
0.40189374720294
0.4017962157595
0.40169735341997
0.40160632009246
0.40152661356476
0.40146255543238
0.40141387619343
0.40137880010154
0.40135421228366
0.40133613609338
0.40132002512229
0.40130195378887
0.40127930423549
0.40125210427385
0.40122370928416
0.40119939025654
0.4011829299932
0.40117549580453
0.40117638727094
0.40118362475986
0.40119246746476
0.40120052397991
0.40120722500077
0.40121238085039
0.40121599242031
0.40121874393505
0.40122225068182
0.40122973321588
0.40124647859838
0.40127789875732
0.40132530852313
0.40138146487016
0.40143016368422
0.40146387170116
0.40148268639641
0.40149012317895
0.40149229140376
0.40149257103636
0.40149165356905
0.40148965594112
0.40148688565682
0.40148353914498
0.40147973364162
0.4014755497603
0.40147107121416
0.40146627566343
0.40146123702618
0.40145606687741
0.40145077486148
0.40144522099865
0.40143913470571
0.40143216941516
0.40142393119765
0.40141399674197
0.40140200759769
0.40138789239606
0.4013723654871
0.40135905250678
0.40135266008626
0.80270313377444
0.80271498235942
0.80272903936702
0.80281017697794
0.80288917604752
0.80296796621644
0.80302820137387
0.80306930929772
0.80309427743049
0.80310817036497
0.80311632684104
0.80312176447704
0.80312532211677
0.80312758576071
0.80312898715199
0.80312983026082
0.80313032267935
0.80313060174054
0.80313075518351
0.80313083694357
1
1
1
1
1
1
1
1
1
1
1
1
1
1
1
1
1
1
1
1
1
1
1
1
1
1
1
1
1
1
1
1
1
1
1
1
0.36522154431445
0.38278495565218
0.39463260452149