/*--------------------------------*- C++ -*----------------------------------*\
| =========                 |                                                 |
| \\      /  F ield         | OpenFOAM: The Open Source CFD Toolbox           |
|  \\    /   O peration     | Version:  2312                                  |
|   \\  /    A nd           | Website:  www.openfoam.com                      |
|    \\/     M anipulation  |                                                 |
\*---------------------------------------------------------------------------*/
FoamFile
{
    version     2.0;
    format      ascii;
    arch        "LSB;label=32;scalar=64";
    class       volScalarField;
    location    "1e-05";
    object      minKappa;
}
// * * * * * * * * * * * * * * * * * * * * * * * * * * * * * * * * * * * * * //

dimensions      [0 0 0 0 0 0 0];

internalField   nonuniform List<scalar> 
109340
(
0.12299180771666
0.12862896773308
0.13694280856273
0.14813008919623
0.16258531019986
0.18121975706221
0.20538892424334
0.23709315597345
0.27929046410607
0.33616129077095
0.41392677028787
0.52118784851868
0.67159421663055
0.88365445165373
1
1
1
1
1
1
1
1
1
1
1
1
1
1
1
1
1
1
1
1
1
1
0.15382966110416
0.16152197403212
0.17266654044592
0.18692901979305
0.20533831999436
0.22912791130222
0.26000523989913
0.3006592855246
0.35495714022021
0.42844895337827
0.52929308943876
0.6688361081293
0.86480116697185
1
1
1
1
1
1
1
1
1
1
1
1
1
1
1
1
1
1
1
1
1
1
1
0.15415830425086
0.16188586426293
0.17255796556781
0.18652471057869
0.2045467643537
0.22795351073893
0.25837972981408
0.29847138677408
0.3521505111483
0.42523656808795
0.52649317690973
0.66745247402683
0.86443643988369
1
1
1
1
1
1
1
1
1
1
1
1
1
1
1
1
1
1
1
1
1
1
1
0.15379336524501
0.16160592658962
0.17192112630173
0.18557688443076
0.20331333856003
0.22624101373282
0.25607270488101
0.29530570735103
0.34775453741228
0.4192732903205
0.51926176017729
0.66086751632243
0.86213586038731
1
1
1
1
1
1
1
1
1
1
1
1
1
1
1
1
1
1
1
1
1
1
1
0.15297659079886
0.16057701323954
0.17101718836122
0.18451563550826
0.20188264049242
0.22425933014656
0.25327433132861
0.29132226258298
0.34205038810582
0.41116274864516
0.50803438980325
0.64684720209492
0.84865564077863
1
1
1
1
1
1
1
1
1
1
1
1
1
1
1
1
1
1
1
1
1
1
1
0.15128220499617
0.15946721556581
0.17019310006443
0.18427684892413
0.20273006046433
0.22694774305775
0.25892710021318
0.30166574373239
0.35985279599823
0.44120329843124
0.55857346534398
0.73257328515009
0.9921743883328
1
1
1
1
1
1
1
1
1
1
1
1
1
1
1
1
1
1
1
1
1
1
1
1
1
1
1
1
1
1
1
1
1
1
1
1
1
1
1
0.9475812299372
0.89067709336273
0.83925142054232
0.79419847110539
0.75626353890405
0.7231771207617
0.6925216477583
0.66300633207181
0.6348325260841
0.60792210994584
0.58211099070866
0.54867212804523
0.47834926333527
0.32826938988864
0.31786648748043
0.31899399141179
0.31952162727652
0.31991838934144
0.32021174132835
0.32042770227094
0.32058618209842
0.32070140102667
0.32078246264932
0.32083389491091
0.32085934681464
0.32086561442267
0.32086324685215
0.32086131949172
0.32086541270694
0.32087748337226
0.32089478228547
0.32091258935371
0.32092860002593
0.32094215946641
0.32095313505858
0.3209615564806
0.32096815152228
0.32097475805247
0.32098431395851
0.32100157706654
0.32103090101518
0.32107223621379
0.32111689447984
0.32115193928579
0.32117368364753
0.3211837869915
0.32118624273516
0.32118618255582
0.32118486190378
0.32118279971155
0.32118035421572
0.32117771714795
0.321174970232
0.32117213169201
0.32116918798151
0.32116611464058
0.32116288967592
0.32115950100357
0.32115579018337
0.32115146495857
0.32114628747215
0.32113999550068
0.32113228883264
0.32112289581783
0.32111174838288
0.3210992988157
0.32108797835953
0.32108191552775
0.61870785776494
0.7135197667705
0.71354517085282
0.71359399617749
0.71366162356926
0.71373379544838
0.71379173841386
0.71383239101266
0.71385762414284
0.71387177809416
0.71387977846814
0.71388508754118
0.71388858140461
0.7138908162586
0.71389220750263
0.71389304934588
0.71389354391951
0.7138938258457
0.71389398176056
0.71389406535
0.71389411686655
0.71389413447582
0.7138941433043
0.71389414767904
0.71389414979774
0.71389415080693
0.71389415127934
0.7138941514981
0.71389415159639
0.71389415164569
0.71389415166278
0.71389415167195
0.71389415167195
0.71389415167195
0.71389415167195
0.71389415167195
0.71389415167195
0.71389415167195
0.71389415167195
0.71389415167195
0.71389415167195
0.71389415167195
0.71389415167195
0.71389415167195
0.71389415167195
0.71389415167195
0.71389415167195
0.71389415167195
0.71389415167195
0.71389415167195
0.71389415167195
0.71389415167195
0.71389415167195
0.71389415167195
0.71389415167195
0.71389415167195
1
1
1
1
1
1
1
1
1
1
1
1
1
1
1
1
1
1
1
0.96039239096685
0.90604749172583
0.85578779364013
0.80770923716295
0.76247889658023
0.72210695923077
0.68970377238153
0.65753385521784
0.63061693489915
0.52682162724809
0.39148349658151
0.39422539593527
0.39516545019499
0.39575902167425
0.3962057611179
0.39653680807762
0.3967811283231
0.39696050557894
0.39709046916389
0.39718038224602
0.39723488560146
0.39725906288067
0.39726266463322
0.39725878259572
0.39725773103328
0.39726528433688
0.39728226897239
0.39730427451182
0.39732582168763
0.39734483790726
0.39736075432633
0.39737347850101
0.39738315683161
0.39739105899896
0.3973997211392
0.39741337707326
0.3974381680602
0.39747860891918
0.39753245908263
0.3975858001279
0.39762509637696
0.39764805730095
0.39765749079773
0.39765939690531
0.39765884605731
0.39765692285772
0.39765421200855
0.39765110184567
0.39764778978696
0.39764435350611
0.39764080300813
0.39763711624634
0.39763326257383
0.39762921750547
0.3976249551589
0.39762019721496
0.39761460539744
0.39760788223759
0.39759968991062
0.39758965295738
0.39757747191463
0.39756317263583
0.3975476716972
0.39753483373852
0.39752915264521
0.62439647316488
0.7135197667705
0.71354517085282
0.71359399617749
0.71366162356926
0.71373379544838
0.71379173841386
0.71383239101266
0.71385762414284
0.71387177809416
0.71387977846814
0.71388508754118
0.71388858140461
0.7138908162586
0.71389220750263
0.71389304934588
0.71389354391951
0.7138938258457
0.71389398176056
0.71389406535
0.71389411686655
0.71389413447582
0.7138941433043
0.71389414767904
0.71389414979774
0.71389415080693
0.71389415127934
0.7138941514981
0.71389415159639
0.71389415164569
0.71389415166278
0.71389415167195
0.71389415167195
0.71389415167195
0.71389415167195
0.71389415167195
0.71389415167195
0.71389415167195
0.71389415167195
0.71389415167195
0.71389415167195
0.71389415167195
0.71389415167195
0.71389415167195
0.71389415167195
0.71389415167195
0.71389415167195
0.71389415167195
0.71389415167195
0.71389415167195
0.71389415167195
0.71389415167195
0.71389415167195
0.71389415167195
0.71389415167195
0.71389415167195
1
1
1
1
1
1
1
1
1
1
1
1
1
1
1
1
1
1
0.95690409372598
0.87649932919316
0.80913255262171
0.74571989907308
0.68181638215109
0.63085122420052
0.59490732111883
0.57992407836767
0.56456356446766
0.57478285205446
0.51001639482981
0.39324192581219
0.39687086387177
0.39770404773757
0.39826932829816
0.39869986564311
0.39902168562945
0.39926068514328
0.39943691285863
0.39956489536436
0.39965343475517
0.39970692557909
0.39973035968638
0.39973347612457
0.39972930743341
0.39972815910969
0.39973569751301
0.39975269085011
0.39977467098134
0.39979616373659
0.39981511705616
0.39983097435233
0.39984364566201
0.39985328425821
0.39986118520662
0.39986990778729
0.3998837345665
0.39990884187462
0.39994972311817
0.40000402050911
0.4000576487534
0.40009708229157
0.40012008316008
0.40012949302752
0.40013138420724
0.40013081619487
0.40012886664852
0.40012612376609
0.40012297806088
0.4001196293793
0.40011615695538
0.40011257159419
0.40010885141612
0.40010496571291
0.40010088993349
0.40009659658407
0.40009180582337
0.40008617789344
0.40007941261956
0.40007116944276
0.40006107024141
0.40004881357977
0.40003442503423
0.40001882442257
0.40000589462988
0.40000016977863
0.62835920631237
0.78487171125006
0.78489980805329
0.78495359741968
0.7850274478357
0.78510704065922
0.78517089995906
0.78521562723746
0.78524338473631
0.78525895462562
0.78526775493847
0.78527359515049
0.7852774387242
0.78527989732853
0.78528142789019
0.78528235405163
0.78528289817167
0.78528320834757
0.78528337988941
0.78528347185929
0.78528352854161
0.7852835479171
0.78528355763121
0.78528356244516
0.7852835647766
0.78528356588719
0.78528356640706
0.78528356664781
0.78528356675597
0.78528356681021
0.78528356682954
0.78528356683915
0.78528356683915
0.78528356683915
0.78528356683915
0.78528356683915
0.78528356683915
0.78528356683915
0.78528356683915
0.78528356683915
0.78528356683915
0.78528356683915
0.78528356683915
0.78528356683915
0.78528356683915
0.78528356683915
0.78528356683915
0.78528356683915
0.78528356683915
0.78528356683915
0.78528356683915
0.78528356683915
0.78528356683915
0.78528356683915
0.78528356683915
0.78528356683915
1
1
1
1
1
1
1
1
1
1
1
1
1
1
1
1
1
0.86496400143841
0.72270196159818
0.62310641524226
0.56422775928041
0.52540273478924
0.49828122986575
0.47946768174691
0.47897156851158
0.47012987157989
0.47538703121024
0.5214450198208
0.48179766182814
0.39379147058324
0.39778849168191
0.398482698211
0.39900383114651
0.39940819918196
0.39971443551733
0.39994397761942
0.40011430508606
0.40023843637189
0.40032428848902
0.400375870291
0.40039802061498
0.40040040860028
0.40039585383192
0.40039456456903
0.40040202593522
0.40041890859443
0.40044068743698
0.40046193686955
0.40048065297488
0.40049630160957
0.40050879994371
0.40051830889065
0.40052614913543
0.40053489545782
0.40054887102138
0.40057426074922
0.40061548737487
0.40067005103387
0.4007236970611
0.40076303625677
0.40078592067697
0.40079522643432
0.40079708470784
0.40079649511481
0.40079452111933
0.40079175141614
0.40078857656877
0.40078519833672
0.40078169772863
0.40077808689349
0.40077434469986
0.40077044047055
0.40076634942473
0.40076204275752
0.40075723917797
0.40075160020584
0.40074482327886
0.40073656655821
0.40072645100963
0.40071417434606
0.40069976100405
0.40068413041696
0.40067117282769
0.40066543467069
0.63011100261154
0.79506483342325
0.7950936419042
0.79514786849133
0.7952224922536
0.79530317010985
0.79536791498162
0.79541322981164
0.79544134886546
0.79545712153088
0.79546603622899
0.79547195251318
0.79547584628384
0.79547833705223
0.79547988766515
0.79548082597596
0.79548137724334
0.79548169149931
0.79548186530099
0.79548195848433
0.79548201591543
0.79548203554656
0.79548204538927
0.79548205026729
0.79548205262989
0.79548205375538
0.79548205428224
0.79548205452625
0.79548205463586
0.79548205469088
0.79548205471046
0.79548205472017
0.79548205472017
0.79548205472018
0.79548205472017
0.79548205472017
0.79548205472017
0.79548205472017
0.79548205472017
0.79548205472017
0.79548205472018
0.79548205472017
0.79548205472018
0.79548205472018
0.79548205472017
0.79548205472017
0.79548205472017
0.79548205472017
0.79548205472017
0.79548205472017
0.79548205472017
0.79548205472017
0.79548205472018
0.79548205472017
0.79548205472017
0.79548205472018
1
1
1
1
1
1
1
1
1
1
1
1
1
1
1
0.84145023284716
0.64490127425485
0.51812662469567
0.453079148968
0.42235811357499
0.40908616630465
0.40275927568488
0.3994086841214
0.40504172586816
0.40407985521037
0.40638634219844
0.42067440086873
0.48139749646406
0.44186430153984
0.39442983020773
0.39833455384981
0.3988979716651
0.39936491689475
0.39973653376006
0.40002289741692
0.40024015938538
0.40040271011204
0.40052170883299
0.40060394416023
0.40065293841818
0.40067337432839
0.4006748261385
0.40066979141176
0.40066832709268
0.40067568031422
0.40069239707017
0.40071387989021
0.40073477868799
0.40075315655947
0.40076850810981
0.40078075808777
0.4007900846523
0.40079783514556
0.40080659914052
0.4008207519982
0.40084647657138
0.40088809502642
0.40094292559202
0.40099650508958
0.40103565505179
0.40105834782201
0.40106750329167
0.40106931757465
0.40106870170644
0.4010666991852
0.40106389889527
0.40106069088206
0.40105727899679
0.40105374652759
0.40105010739724
0.40104634145067
0.40104241829214
0.40103831305029
0.40103399524791
0.40102918206152
0.40102353665638
0.40101675438381
0.40100849203868
0.40099836998569
0.40098608540314
0.40097166143683
0.40095601748344
0.40094305171831
0.40093731094629
0.63109559434419
0.79846262464123
0.79849160229814
0.79854599497992
0.79862081120039
0.79870186501928
0.7987669169028
0.79881242884118
0.79884066884634
0.79885650948725
0.79886546242716
0.79887140424343
0.79887531494693
0.79887781660298
0.79887937402328
0.79888031647036
0.79888087017791
0.79888118583086
0.79888136040871
0.79888145401112
0.79888151170022
0.79888153141865
0.79888154130604
0.7988815462066
0.79888154858026
0.79888154971107
0.79888155024047
0.79888155048568
0.79888155059577
0.7988815506511
0.79888155067079
0.79888155068052
0.79888155068052
0.79888155068052
0.79888155068052
0.79888155068052
0.79888155068052
0.79888155068052
0.79888155068052
0.79888155068052
0.79888155068052
0.79888155068052
0.79888155068052
0.79888155068052
0.79888155068052
0.79888155068052
0.79888155068052
0.79888155068052
0.79888155068052
0.79888155068052
0.79888155068052
0.79888155068052
0.79888155068052
0.79888155068052
0.79888155068052
0.79888155068052
1
1
1
1
1
1
1
1
1
1
1
1
1
0.96385993530472
0.63513806873912
0.46960043912537
0.40236168163528
0.38234264670993
0.37705331012396
0.37497607064178
0.37448583159256
0.37422579467641
0.37394635286251
0.37519466096041
0.37646695653573
0.38027184359713
0.39747559189999
0.47084075239351
0.40651038171494
0.39693462929213
0.39874624285525
0.39919846705279
0.39960572139295
0.399940425548
0.40020390051243
0.40040676599485
0.40056006691816
0.40067289077291
0.40075073328628
0.40079655727413
0.40081488591688
0.40081522759513
0.40080963397491
0.4008079731248
0.40081519634698
0.40083170622514
0.40085281717142
0.400873277978
0.40089123470397
0.40090621604655
0.40091815608003
0.40092725632727
0.40093489519721
0.40094367869347
0.40095804369478
0.40098416938667
0.40102624819511
0.40108137202718
0.40113483090356
0.40117372062874
0.40119616238011
0.40120512918217
0.4012068907614
0.4012062447406
0.40120420980302
0.40120137447911
0.40119812814771
0.40119467698755
0.40119110708016
0.40118743463251
0.40118364085951
0.40117969583268
0.4011755746674
0.40117124471369
0.40116642169428
0.40116077078963
0.40115398497063
0.40114571959366
0.40113559444
0.40112330630981
0.40110887717717
0.40109322659536
0.4010802606627
0.40107452568295
0.6317258954172
0.80000714523708
0.80003616106
0.80009060348353
0.80016550379793
0.80024672662813
0.80031191687591
0.80035751770045
0.80038581292743
0.80040168479858
0.80041065532851
0.80041660893384
0.80042052751432
0.80042303426613
0.80042459488981
0.80042553929335
0.80042609416093
0.80042641048137
0.8004265854322
0.80042667923783
0.80042673705099
0.80042675680979
0.80042676671669
0.80042677163184
0.80042677401138
0.80042677514505
0.80042677567583
0.80042677592172
0.80042677603206
0.80042677608754
0.80042677610728
0.80042677611703
0.80042677611704
0.80042677611703
0.80042677611703
0.80042677611704
0.80042677611704
0.80042677611704
0.80042677611704
0.80042677611703
0.80042677611703
0.80042677611703
0.80042677611704
0.80042677611704
0.80042677611704
0.80042677611703
0.80042677611704
0.80042677611704
0.80042677611703
0.80042677611704
0.80042677611704
0.80042677611703
0.80042677611704
0.80042677611704
0.80042677611704
0.80042677611704
0.37453417792682
1
1
1
1
1
1
1
1
1
1
1
0.92709391072794
0.63905226357065
0.44521271144457
0.37591596843227
0.37121328348439
0.37323368113856
0.37350298252187
0.37523327972082
0.37570059309578
0.37492561806954
0.37269928344079
0.37141441444519
0.37050784405744
0.37150768778533
0.38894487192536
0.45509643385004
0.40042899431876
0.39749614603536
0.39901396826987
0.39936046085992
0.39971506831966
0.40002487001331
0.40027759084852
0.40047681244339
0.4006300235356
0.40074459705393
0.40082540957463
0.40087495889885
0.4008967671712
0.40089883596972
0.40089294314216
0.40088948853387
0.40089399522172
0.40090831512569
0.40092846581938
0.4009488501374
0.40096700654831
0.40098229178707
0.40099461164041
0.40100406013984
0.40101168877895
0.40101985338644
0.40103245885454
0.40105551072575
0.40109405519149
0.40114712646584
0.40120274172258
0.40124545382632
0.40127149888276
0.40128320798067
0.40128593503508
0.40128572785511
0.40128394101917
0.40128122344954
0.40127801241415
0.40127455608854
0.4012709684185
0.40126728233709
0.40126348730033
0.40125955543016
0.40125545948735
0.40125118048986
0.40124650327414
0.40124108074463
0.40123460540596
0.40122674289774
0.40121711573538
0.40120538297695
0.40119145358313
0.40117588925871
0.40116173077166
0.40115416872611
0.63216382616493
0.80083882674457
0.80086786887946
0.80092233141072
0.80099727776202
0.80107858292144
0.80114383978564
0.80118948713056
0.80121781214086
0.80123370119665
0.80124268145149
0.80124864160023
0.80125256460185
0.80125507424132
0.80125663669625
0.80125758222739
0.80125813776883
0.8012584544801
0.80125862965119
0.80125872357864
1
1
1
1
1
1
1
1
1
1
1
1
1
1
1
1
1
1
1
1
1
1
1
1
1
1
1
1
1
1
1
1
1
1
1
1
0.35742234011888
0.36478094575006
0.49768197047214
0.63659588662845
0.74698553097623
0.81456650127243
0.83839151881377
0.82430744358162
0.76463039780911
0.66499767683146
0.54552849021915
0.43659907779094
0.37679096466801
0.36806613136525
0.38183666714524
0.38844149866137
0.38981896534769
0.38936652338235
0.38768601517645
0.3848820660783
0.38133766020926
0.37938316753045
0.37694036615117
0.37354743487294
0.37291754524917
0.40070865358065
0.42856541417659
0.39569848844013
0.3983971830226
0.39961785493087
0.39968594632657
0.39988441979832
0.40011782223877
0.4003368550979
0.40052454822972
0.400677586565
0.4007976908607
0.4008876496398
0.40094883859035
0.40098245028254
0.40099248424549
0.40098879847741
0.40098131842834
0.40097905949592
0.4009858491305
0.40100155732432
0.40102118210549
0.40103991097492
0.40105620916353
0.40106973046088
0.40108044457098
0.40108864081533
0.40109584450143
0.40110472035753
0.40111996341813
0.40114770086516
0.40119157395259
0.40124770306109
0.40130048698232
0.40133820347522
0.4013595731421
0.40136777872806
0.40136934944878
0.40136860146074
0.40136645900555
0.40136350223193
0.40136011752793
0.40135651885265
0.40135280358258
0.4013489983297
0.40134509152434
0.40134105675426
0.40133687034208
0.40133248875686
0.40132762634257
0.40132195554595
0.40131516010866
0.40130688985115
0.40129676208398
0.40128447253418
0.4012700411115
0.40125438902087
0.40124144183791
0.40123573330778
0.63273233908716
0.80166078010966
0.80168984282467
0.80174431513241
0.80181929225392
0.80190066188219
0.80196597555345
0.80201166454474
0.80204001897671
0.80205592616355
0.80206491680491
0.80207088397537
0.80207481183483
0.80207732471116
0.80207888925646
0.80207983609669
0.80208039243301
0.80208070961233
0.80208088505117
0.80208097912944
1
1
1
1
1
1
1
1
1
1
1
1
1
1
1
1
1
1
1
1
1
1
1
1
1
1
1
1
1
1
1
1
1
1
1
1
0.36184697002786
0.37824314710634
0.37250523730244
0.36395503510223
0.36685946192189
0.36933529903233
0.37458834968762
0.37574408776175
0.37302034390152
0.37203402314636
0.37072733550249
0.38160564819564
0.39080200221833
0.39512930829967
0.39568065458194
0.39519057777181
0.39475291301799
0.39455069883922
0.39364051372288
0.39066017212398
0.38672717206351
0.38350255117395
0.3856664672691
0.39869319734428
0.41398119204099
0.40343077943092
0.39686035458593
0.39969939319309
0.40044881005738
0.40019224647656
0.40015604882632
0.40024611991784
0.40038890658693
0.40054079085989
0.40068071266087
0.40080010453437
0.4008965290928
0.40096937521529
0.40101765807822
0.4010416718807
0.4010454834725
0.40103849496807
0.40102984111509
0.40102730057101
0.40103385119755
0.40104892274578
0.40106731700726
0.4010846388806
0.40109959778131
0.40111193672747
0.40112165024451
0.40112911854216
0.40113596374591
0.4011449556298
0.40116099729998
0.40119013766633
0.40123549827399
0.40129228686639
0.40134431191419
0.40138090809211
0.40140130742156
0.40140887158876
0.4014103075743
0.40140949486007
0.40140728763791
0.40140425179865
0.40140076898465
0.40139705760753
0.40139322428251
0.40138930569894
0.40138529850604
0.40138118145656
0.40137693398787
0.40137249983376
0.40136759952861
0.40136190913645
0.40135510478628
0.40134683136771
0.40133670367565
0.40132441632576
0.40130998863879
0.40129434412421
0.40128141608625
0.40127572677185
0.63308523311312
0.80203960034858
0.80206867366265
0.80212314656685
0.80219811641687
0.80227948866738
0.80234481119338
0.80239051379982
0.80241888191893
0.80243479914757
0.80244379567741
0.80244976684671
0.80245369759829
0.80245621246789
0.80245777833875
0.80245872603115
0.80245928289737
0.80245960039556
0.80245977602025
0.80245987020347
1
1
1
1
1
1
1
1
1
1
1
1
1
1
1
1
1
1
1
1
1
1
1
1
1
1
1
1
1
1
1
1
1
1
1
1
0.36128704557841
0.38269938252579
0.39468962414342
0.39621500615756
0.39421736231222
0.39183129112113
0.39062456460211
0.39106728170317
0.39295905012507
0.39562661692057
0.39773230980476
0.39865073356381
0.3987987303147
0.39871817434332
0.39848011555297
0.39817971285997
0.39799169866623
0.39828137163804
0.39930182561834
0.40073151922839
0.40215755528046
0.40385856611245
0.40302879351273
0.40025810887049
0.39896972122169
0.39998584053988
0.40141335956556
0.40125796293406
0.40083686309905
0.40059708776948
0.40051852139615
0.40054300783828
0.40062053801074
0.40071841314537
0.40081701979766
0.40090569208003
0.40097940396953
0.40103500774339
0.40106987239007
0.4010836338305
0.40108148780636
0.40107106759129
0.40106150401176
0.40105886920881
0.40106528371614
0.40107967151294
0.40109670713225
0.40111250780141
0.4011260279891
0.40113709271045
0.40114571989755
0.40115240706127
0.40115887607501
0.40116805975915
0.40118508796584
0.40121587985239
0.40126289282527
0.40132019944618
0.40137115475651
0.40140634213237
0.40142557007325
0.40143241472692
0.4014337215618
0.40143285668143
0.40143060371748
0.40142750581187
0.40142393559231
0.40142011330671
0.40141615467289
0.40141210845852
0.40140798273755
0.40140376481934
0.40139944068275
0.40139493432206
0.40138998479252
0.40138426745591
0.40137745012433
0.40136917186726
0.40135904442048
0.40134676060069
0.40133233899928
0.40131670546128
0.40130380062218
0.40129813232767
0.63332561685805
0.8022450056168
0.80227409022584
0.80232855537463
0.80240349819709
0.80248483938849
0.80255014988586
0.80259585450166
0.80262423046106
0.80264015505027
0.80264915597824
0.80265513012903
0.80265906313028
0.80266157959451
0.80266314655015
0.80266409495365
0.80266465226973
0.80266497004276
0.80266514582969
0.80266524010537
1
1
1
1
1
1
1
1
1
1
1
1
1
1
1
1
1
1
1
1
1
1
1
1
1
1
1
1
1
1
1
1
1
1
1
1
0.36092400702203
0.3811458750212
0.39445987942942
0.39954643571028
0.40061396717414
0.40066709758784
0.40057690378601
0.40049908333711
0.40043441810843
0.40035429082618
0.40025910335198
0.40017297526106
0.40011252134111
0.40010171464818
0.40009197651291
0.40010054318982
0.40014025733575
0.40021836892376
0.4003723023761
0.40059358051796
0.40081146290358
0.40099461070183
0.40144333858223
0.40197891330987
0.40238607689882
0.40226384216709
0.40182426591044
0.40141248306629
0.4010888837493
0.40088730465043
0.40079456925041
0.40078128685948
0.40081474085126
0.40087213011059
0.40093703691723
0.40099910386886
0.40105200367999
0.40109100745162
0.40111258801795
0.40111643528245
0.40110842187328
0.40109506524594
0.40108495721059
0.40108245995164
0.40108886376999
0.40110253184867
0.40111813406352
0.40113236790102
0.40114441717652
0.40115417147277
0.40116167456334
0.40116757271865
0.40117368817192
0.40118317984706
0.40120141249561
0.40123409507087
0.40128285820861
0.40134041492759
0.40138993656692
0.40142341566822
0.40144127592216
0.40144735041288
0.40144853353939
0.40144763245125
0.40144536152195
0.40144223002752
0.40143859627559
0.40143467818626
0.40143059833378
0.40142641803465
0.40142215963117
0.40141782336216
0.40141339996772
0.40140880346617
0.40140379156425
0.4013980376571
0.40139120167442
0.40138291565151
0.40137278776532
0.40136050846414
0.40134609487558
0.40133047515124
0.40131759709826
0.4013119524425
0.63349991303289
0.80236878737435
0.80239788195393
0.80245232983008
0.80252722949959
0.80260852102997
0.80267380851943
0.80271950945906
0.80274789089364
0.80276382202915
0.80277282689002
0.80277880368233
0.80278273873336
0.80278525667346
0.80278682464511
0.80278777372141
0.80278833146691
0.80278864950436
0.80278882544842
0.80278891981419
1
1
1
1
1
1
1
1
1
1
1
1
1
1
1
1
1
1
1
1
1
1
1
1
1
1
1
1
1
1
1
1
1
1
1
1
0.36075338542297
0.38019668941103
0.39378811195035
0.39942377651593
0.40084045958962
0.40104906560148
0.401023975497
0.40094922734649
0.40085888742852
0.40076741928011
0.40068865010964
0.40063647271589
0.40062467107954
0.40067142441758
0.40077397926919
0.40094834129721
0.40120163698936
0.40153698767677
0.4019314414271
0.40233657482716
0.40267919047999
0.40287774595548
0.40290129234403
0.40272747363001
0.40245395660623
0.40213839877966
0.40180812138684
0.40151020005206
0.40126379858952
0.40109637031841
0.40100336978442
0.40096906597773
0.40097458403766
0.40100282212799
0.40104139094042
0.40108128571898
0.40111573412172
0.40113928863463
0.40114790382941
0.40114326517657
0.40112955961956
0.40111407236315
0.40110385395701
0.40110173618937
0.40110823853295
0.4011211443824
0.40113528152406
0.40114795900929
0.40115855958309
0.40116701350852
0.40117340329146
0.40117854665845
0.40118437913878
0.40119435091196
0.40121404667118
0.40124885141486
0.40129938717327
0.40135679550692
0.40140447859035
0.40143594901228
0.40145225271762
0.40145754244086
0.40145860074753
0.40145767484188
0.40145541236555
0.40145228377473
0.40144862154328
0.40144463568694
0.40144045201133
0.40143614225707
0.40143174400021
0.40142727237729
0.40142272197516
0.40141802118163
0.40141293145505
0.40140712887738
0.40140026623071
0.40139196842536
0.4013818385496
0.4013695643398
0.40135516071249
0.40133955751322
0.40132670963401
0.40132109115529
0.6336321000655
0.80244915000337
0.80247825186808
0.8025326734076
0.80260751463769
0.80268874571041
0.80275400322034
0.80279969749482
0.80282808359508
0.80284402126293
0.80285303001594
0.80285900938328
0.80286294645809
0.80286546586279
0.80286703484632
0.80286798459487
0.8028685427708
0.80286886107404
0.80286903717644
0.8028691316332
1
1
1
1
1
1
1
1
1
1
1
1
1
1
1
1
1
1
1
1
1
1
1
1
1
1
1
1
1
1
1
1
1
1
1
1
0.36065445497258
0.37966150253635
0.39333288359311
0.3992722678652
0.4008282180663
0.40109408233267
0.40109203682556
0.40104055216052
0.4009798069962
0.40092163652975
0.40087545155022
0.40085201498956
0.40086301350699
0.40092025091778
0.40102797662816
0.40119229479868
0.40141493361244
0.40167915120858
0.40196622027597
0.40223137847232
0.40243979927237
0.4025504201464
0.40254352921076
0.4024377396569
0.40225687026359
0.40203493225904
0.40179874624625
0.40157687632325
0.40138606667529
0.40124773929467
0.40116053122432
0.40111640286393
0.40110412073707
0.40111197706623
0.40113054899392
0.40115231835635
0.40117072009235
0.40117992936474
0.40117754537518
0.40116487136259
0.40114652902364
0.40112983311478
0.40111997048558
0.40111844669716
0.40112510893294
0.40113718799495
0.40114985835959
0.40116102562527
0.40117023548836
0.40117743489421
0.40118276685741
0.40118723457692
0.40119291048888
0.40120360355234
0.40122506901304
0.40126221691156
0.40131446101054
0.40137119508586
0.40141661142682
0.40144578347672
0.40146036149942
0.40146488487156
0.40146580580039
0.40146486039838
0.40146262833761
0.40145953589065
0.40145588620825
0.40145187124657
0.40144761451344
0.4014431948298
0.40143865369611
0.40143402403347
0.40142933762153
0.40142451455087
0.40141932937449
0.40141346336441
0.40140656387387
0.40139824842793
0.40138811378941
0.40137584469412
0.40136145289132
0.40134586896995
0.40133305427287
0.40132746405245
0.6337358106348
0.80250430521953
0.80253341118897
0.80258779776918
0.80266256829561
0.80274372902667
0.80280895200248
0.80285463816214
0.80288302895841
0.80289897353751
0.80290798633537
0.8029139683301
0.80291790747402
0.80292042837398
0.80292199838925
0.80292294882276
0.80292350743716
0.80292382601113
0.80292400227476
0.80292409682423
1
1
1
1
1
1
1
1
1
1
1
1
1
1
1
1
1
1
1
1
1
1
1
1
1
1
1
1
1
1
1
1
1
1
1
1
0.36059435054871
0.37934934405585
0.39303916750462
0.39915776391426
0.40081977911809
0.40111890635865
0.40113855930993
0.40110645418201
0.40106740582341
0.40103209509708
0.40100772561751
0.40100334291661
0.40102611913276
0.40108514896088
0.40118162134708
0.40131689024098
0.40149390208178
0.40169293464771
0.40190004010457
0.40208609501212
0.40223276425034
0.40231300545266
0.40231285220533
0.40224327012985
0.40211808727009
0.40195965325618
0.40178920807642
0.40162087519436
0.40147217092713
0.40135793079641
0.40127880646815
0.40123099450947
0.40120780423706
0.40120163805495
0.40120521538693
0.40121230564764
0.40121658257279
0.40121353297243
0.40120144909909
0.40118194128843
0.40116043063473
0.40114336441204
0.40113430318442
0.40113352276615
0.40114032646428
0.40115147828355
0.40116269697429
0.40117242545114
0.40118032446417
0.40118633566776
0.40119070634854
0.40119461799588
0.40120033512631
0.40121206938728
0.40123566043328
0.40127534976421
0.40132914618612
0.40138455352916
0.40142727394185
0.4014538806752
0.40146659793553
0.4014703983653
0.40147116261416
0.40147019383466
0.40146800555482
0.4014649774107
0.40146137776255
0.40145737758524
0.40145308921234
0.40144858933271
0.40144390738101
0.40143912792328
0.4014342898754
0.40142932568105
0.40142402579058
0.40141807910407
0.40141112964808
0.40140278796067
0.40139264518809
0.40138038029238
0.4013660022111
0.40135044026228
0.40133766122665
0.40133210073113
0.63381937046534
0.80254383165732
0.80257293789153
0.80262728071018
0.80270196888001
0.80278305104087
0.80284823675394
0.80289391440821
0.8029223104463
0.80293826251935
0.80294727960266
0.80295326432659
0.80295720561076
0.80295972804968
0.80296129912274
0.80296225025649
0.80296280931815
0.80296312816781
0.80296330459547
0.80296339923918
1
1
1
1
1
1
1
1
1
1
1
1
1
1
1
1
1
1
1
1
1
1
1
1
1
1
1
1
1
1
1
1
1
1
1
1
0.36055417651919
0.37916038910135
0.39284801173615
0.39907823944263
0.40082121314756
0.40114541235832
0.40118382022698
0.4011674936312
0.40114369316541
0.4011239520815
0.40111485360369
0.40112243503173
0.40115159721722
0.40120892677739