/*--------------------------------*- C++ -*----------------------------------*\
| =========                 |                                                 |
| \\      /  F ield         | OpenFOAM: The Open Source CFD Toolbox           |
|  \\    /   O peration     | Version:  2312                                  |
|   \\  /    A nd           | Website:  www.openfoam.com                      |
|    \\/     M anipulation  |                                                 |
\*---------------------------------------------------------------------------*/
FoamFile
{
    version     2.0;
    format      ascii;
    arch        "LSB;label=32;scalar=64";
    class       volScalarField;
    location    "1e-05";
    object      nut;
}
// * * * * * * * * * * * * * * * * * * * * * * * * * * * * * * * * * * * * * //

dimensions      [0 2 -1 0 0 0 0];

internalField   nonuniform List<scalar> 
109340
(
0.000766278291855
0.0005039729269963
0.00027153943516168
0.00022386267698826
0.00021035906689803
0.00020567331353338
0.00019871346086608
0.00018722612254641
0.00016984803698206
0.0001476244854881
0.00012033711090013
9.0187681207097e-05
6.0808800935716e-05
3.6642401544141e-05
1.9980402536955e-05
1.0382740996789e-05
5.8014364146484e-06
3.6474769660024e-06
2.8203378408041e-06
2.2283163134766e-06
1.9884504263574e-06
1.877625717432e-06
1.7890274082455e-06
1.7397919848462e-06
1.7204877248148e-06
1.7293447355652e-06
1.7577627709089e-06
1.8020809258821e-06
1.86206076224e-06
1.9328259926593e-06
2.0073431175981e-06
2.0718191002292e-06
2.1305512746275e-06
2.1934288846623e-06
2.2895269428099e-06
2.3710104840439e-06
0.00075824977802846
0.00035324917527877
0.00025646415618651
0.00023020072314294
0.00022015187239408
0.00021241799372084
0.00020148270974211
0.00018555542293768
0.00016520140429103
0.00014044233170107
0.00011193899494399
8.1456662987482e-05
5.3563218657537e-05
3.1309508935867e-05
1.6780242222489e-05
8.7979750271577e-06
5.1083168369948e-06
3.4128633522955e-06
2.6741792131033e-06
2.178068794315e-06
1.9972863845116e-06
1.8895393087307e-06
1.8102198387381e-06
1.7610235984567e-06
1.7317526737035e-06
1.7153406928503e-06
1.7104689864427e-06
1.7153847978088e-06
1.7292260004686e-06
1.7447599617586e-06
1.7589229152479e-06
1.7699703390581e-06
1.7798473283394e-06
1.790906891081e-06
1.8313585526608e-06
1.8416658014904e-06
0.0004350573854342
0.00030187808955561
0.00025618188267126
0.00023650114823121
0.00020303397841295
0.0001691564902694
0.00014471518357336
0.00012611658234314
0.00011156988291724
9.9845998600554e-05
8.9960631702224e-05
8.0050394726524e-05
5.2310756117609e-05
3.0441909226742e-05
1.6360772053399e-05
8.6122586582927e-06
5.0768373537031e-06
3.4741650655708e-06
2.7424198022033e-06
2.2460132349011e-06
2.0626248468182e-06
1.9549526275143e-06
1.8758554491077e-06
1.8237405555735e-06
1.7899910008283e-06
1.7644848008475e-06
1.7480431920645e-06
1.7387588491587e-06
1.7338271355969e-06
1.7287086421825e-06
1.7208314342935e-06
1.7065700413518e-06
1.69156586233e-06
1.6832723178693e-06
1.6826318108639e-06
1.6793983086252e-06
0.00025411856367243
0.0002577597159495
0.00016266045442797
0.00011847104356157
9.3186669006899e-05
7.6810527905464e-05
6.5355030031905e-05
5.6878623259762e-05
5.0341142309641e-05
4.5123849433297e-05
4.0812364964346e-05
3.7176457874667e-05
3.3873965994142e-05
2.9279025948852e-05
1.5534470706405e-05
8.123041223786e-06
4.8181567221011e-06
3.3850623126472e-06
2.7444275966332e-06
2.2990069514807e-06
2.1439099501575e-06
2.0560460779155e-06
1.9878284951721e-06
1.9405990870453e-06
1.9029313457878e-06
1.8735272023527e-06
1.8470014219779e-06
1.8272573234399e-06
1.8115148697919e-06
1.7998739852258e-06
1.7793241083878e-06
1.7544057079465e-06
1.7282619146108e-06
1.7102424889567e-06
1.6999659321486e-06
1.6956781658294e-06
0.00015097411371619
5.096122297019e-05
3.0974931171132e-05
2.2451436706343e-05
1.7742087678225e-05
1.4770331121536e-05
1.2728414187804e-05
1.1235139918275e-05
1.0089365604471e-05
9.1671554493984e-06
8.386413006076e-06
7.7038184792764e-06
7.1070123978602e-06
6.5294855324038e-06
5.9063259429357e-06
5.1064688136962e-06
4.172451482081e-06
3.0119401218899e-06
2.4978129960629e-06
2.1612017542855e-06
2.0583811501603e-06
2.0294900570288e-06
1.7751652884654e-06
1.5632393581291e-06
1.3879722297458e-06
1.2446411198404e-06
1.1320568245084e-06
1.0510633541132e-06
1.000334531208e-06
9.7538118624067e-07
9.7072414788541e-07
9.7989867036911e-07
9.9665729496741e-07
1.0151209417854e-06
1.0306160311637e-06
1.0401758500959e-06
3.8611347035153e-07
5.7253068854894e-07
7.3417429908946e-07
8.6029173379731e-07
9.505262730012e-07
1.0101195177948e-06
1.045908981125e-06
1.0643869672589e-06
1.0706910052288e-06
1.0690449306148e-06
1.0618909694911e-06
1.051112237965e-06
1.0385663710512e-06
1.0248781844111e-06
1.0085574941855e-06
1.0062188928247e-06
1.0417882110048e-06
1.1078487284217e-06
1.202030290049e-06
1.2995131495798e-06
1.4102670164282e-06
1.5289075818576e-06
1.6464382163433e-06
1.7610958970378e-06
1.8723271132151e-06
1.9819348239061e-06
2.0903413416766e-06
2.1969435491371e-06
2.3009626981805e-06
2.4012952633409e-06
2.4971011808903e-06
2.5883515725646e-06
2.6763326389965e-06
2.7605895684422e-06
2.835617010312e-06
2.9007632590747e-06
2.3163223620526e-06
2.5414911518039e-06
3.0067243946703e-06
3.0015734201645e-06
3.0149551530888e-06
3.0364065914364e-06
3.0521895607029e-06
2.0023440995654e-06
1.4692118416855e-06
1.2001771705996e-06
1.0840857320943e-06
8.9006903742619e-07
9.7319932472449e-07
1.8992747127015e-06
5.4995077037752e-06
6.2218375952439e-06
6.840356647917e-06
7.1619635293372e-06
7.0651063480107e-06
6.6814664277074e-06
6.0555127078961e-06
5.4045954733709e-06
4.8000689346625e-06
4.2380540315859e-06
3.6871157146792e-06
3.184431797615e-06
2.9565169376685e-06
4.2504446963275e-06
2.4369103582096e-05
5.7089351733529e-05
2.1146704086744e-06
1.3350438619351e-06
2.0427724448715e-06
3.0270634781804e-06
4.3585242311973e-06
6.1279886566747e-06
8.4679696014832e-06
1.1585159065e-05
1.5955735430074e-05
2.2614858425379e-05
3.2738973582486e-05
4.5408459764462e-05
5.586016202937e-05
6.158971132811e-05
6.2034161353018e-05
6.0806159144169e-05
6.337861891454e-05
7.1110590726522e-05
8.2130102543627e-05
9.5921206882724e-05
0.00011290235561557
0.00013227929407946
0.00014498590037109
0.00014065671570196
0.00011296270225103
7.8797331283154e-05
5.6507346831609e-05
4.7380631326854e-05
5.3290236166885e-05
7.7128221899624e-05
0.00013911181875169
0.00037534282715197
0.00068591196412117
0.00068605089316554
0.00068620688670105
0.0006863680667441
0.00068652907167569
0.00068668793238014
0.00068684417307847
0.00068699790964503
0.0006871493979686
0.00068729878921599
0.00068744609386358
0.00068070594089675
0.00059302461339121
0.0004978733547539
0.00041087874540755
0.00033530932607824
0.0002730892888939
0.00022569495378087
0.00019475132347196
0.00018688152969343
0.00025361825467417
0.00068992207779576
0.00068990290705096
0.00027900685786725
0.00013319328799187
8.7112753233172e-05
7.1636643249488e-05
7.8586762118447e-05
0.000104866297895
0.00015937047161502
0.00027181034990612
0.00049641306030876
0.00069378623197
0.00069375002701806
0.00069372824435735
0.00069371525507816
0.00069370760092554
0.00069370318868703
0.00069370074173877
0.00069369947987411
0.00069369893067384
0.00069369881455199
0.00069369902888063
0.00069369941090066
0.00069369992246242
0.00069370055071621
0.0006937012936537
0.00069370215476046
0.00069370314018528
0.0006937042571822
0.00069370551322895
0.00069370691551793
0.00069370847064004
0.00069371018438691
0.00069371206160877
0.0006937141061185
0.0006937163206229
0.00069371870668164
0.00069372126468688
0.00069372399386346
0.00069372689228841
0.00069372995692688
0.00069373318367979
0.0006937365674346
0.00069374010210147
0.00069374378059804
0.00069374759470991
0.00069375153468945
0.00069375558835321
0.00069375973929541
0.00069376396366941
0.00069376822485369
0.00069377246530541
0.0006937765951272
0.00069378047741738
0.00069378391132058
0.00069378661466704
0.00069378820885713
1.8304391641666e-06
2.0854909956447e-06
2.7177097667691e-06
2.7133440750714e-06
2.7172915234413e-06
1.9943120625184e-06
1.6514115872123e-06
1.4723808101868e-06
1.3769348439933e-06
1.2779987704497e-06
1.1892000917982e-06
1.0738217141127e-06
1.2549733481241e-06
4.1060295815618e-06
4.9333129203272e-06
5.272377730082e-06
4.9098228050589e-06
4.0551466991644e-06
3.2918140765634e-06
2.7007584165522e-06
2.2585993008641e-06
1.9168682973822e-06
1.6699910732669e-06
1.4988924944023e-06
1.3675360375649e-06
1.281115620956e-06
1.339947954234e-06
3.8479838137938e-06
3.7490806955371e-05
4.901836678866e-05
1.1062700273195e-06
1.5984631453051e-06
2.4089938400642e-06
3.5194204145129e-06
5.008481345093e-06
6.9821376446741e-06
9.5960450661834e-06
1.312292407105e-05
1.824063300976e-05
2.6334177635868e-05
3.8724485562944e-05
5.2775845391842e-05
6.3489622081893e-05
6.749170057298e-05
6.5056221900824e-05
6.3256844678096e-05
6.7023197861321e-05
7.5838868058604e-05
8.7925262838205e-05
0.00010304221683417
0.00012187908335382
0.0001420780044583
0.00015158094165285
0.00014020832833101
0.00010584430191474
7.2351595379878e-05
5.3150232551715e-05
4.716955624156e-05
5.7423148041502e-05
8.7808301437516e-05
0.00016940716732871
0.00053414176772415
0.00068594489666826
0.00068608982748107
0.00068624784325337
0.00068640927307907
0.00068656982676239
0.00068672802659049
0.00068688359458868
0.00068703670836503
0.00068718761142202
0.00068733641179703
0.000687483092667
0.00066116345870997
0.00056849091798671
0.00047491885825311
0.00039069786472974
0.00031840721517725
0.00025982723515724
0.00021635046195929
0.00018983328991188
0.00019311010352126
0.00030680573604575
0.00068992100293785
0.00068991041198329
0.00029125904217522
0.00013289959249501
8.6905897114656e-05
7.1628835561871e-05
7.8464253938173e-05
0.00010482331058682
0.00015936259086338
0.00027181063620286
0.00049641370155615
0.00069378624255997
0.00069375003478347
0.0006937282491441
0.0006937152579672
0.00069370760265091
0.00069370318968714
0.00069370074227736
0.00069369948011338
0.00069369893071474
0.00069369881445276
0.0006936990286672
0.00069369941061389
0.00069369992210575
0.00069370055029143
0.00069370129315999
0.00069370215419528
0.00069370313954551
0.00069370425646462
0.00069370551243053
0.00069370691463612
0.00069370846967284
0.00069371018333326
0.00069371206046803
0.00069371410489089
0.00069371631930933
0.00069371870528389
0.00069372126320733
0.00069372399230517
0.00069372689065506
0.0006937299552227
0.00069373318190948
0.00069373656560326
0.00069374010021453
0.00069374377866118
0.000693747592729
0.00069375153267045
0.00069375558630216
0.00069375973721838
0.00069376396157246
0.00069376822274291
0.00069377246318688
0.00069377659300698
0.00069378047530139
0.0006937839092143
0.00069378661257464
0.00069378820677891
1.6654151805569e-06
1.8182382245203e-06
1.810469731047e-06
1.2572349907213e-06
1.0467177111892e-06
1.0320571356851e-06
1.1254638721876e-06
1.265910280018e-06
1.3406195461589e-06
1.3789386398961e-06
1.648141719209e-06
1.6392800056389e-06
2.0447916162025e-06
3.6649570455954e-06
3.8951504965793e-06
3.2253941215763e-06
2.41616696013e-06
1.8353865805856e-06
1.4715604370777e-06
1.2623656724528e-06
1.1441084788871e-06
1.0923093048292e-06
1.1015703710149e-06
1.138651575758e-06
1.1392732624613e-06
1.1135591897313e-06
1.1186778572012e-06
3.40865767641e-06
4.0437770977377e-05
4.6378167624167e-05
1.0989278648955e-06
1.6519454860874e-06
2.4770194214435e-06
3.6013214135341e-06
5.1046813645688e-06
7.0944207237049e-06
9.7277195332639e-06
1.3284352071051e-05
1.8453416552922e-05
2.6619159243417e-05
3.9064795753358e-05
5.298047584689e-05
6.3558112046643e-05
6.7474831068638e-05
6.504859451285e-05
6.3348612883527e-05
6.7214700731096e-05
7.6108211192293e-05
8.8270927048084e-05
0.00010345961379019
0.00012234022457671
0.00014251138020202
0.00015182523850556
0.00014004450554181
0.00010543855788825
7.2039755275055e-05
5.3002247666573e-05
4.7163807937315e-05
5.7560391146951e-05
8.8164860656651e-05
0.00017047714167261
0.00053810497032234
0.00068594648343413
0.00068609133266652
0.00068624926964163
0.00068641064047206
0.00068657115975006
0.00068672933585079
0.00068688487663756
0.00068703794970002
0.00068718879176417
0.00068733750606078
0.0006874840717722
0.00066024470598629
0.00056803035412231
0.00047467457352938
0.00039055218258469
0.00031830787328532
0.00025975026551662
0.00021629721172751
0.00018983108305958
0.00019316807813769
0.00030893183329298
0.00068991604667859
0.00068992174750813
0.00031862979515406
0.00013655414490826
8.691126129846e-05
7.0852222667531e-05
7.7768889500051e-05
0.00010474310860281
0.00015934870198035
0.00027180129496556
0.00049639516208989
0.00069378625458256
0.00069375004315977
0.00069372825424489
0.00069371526098528
0.00069370760439641
0.00069370319064458
0.00069370074273473
0.0006936994802436
0.00069369893062096
0.00069369881419346
0.00069369902825336
0.00069369941009401
0.00069369992147923
0.00069370054955548
0.00069370129230962
0.00069370215322444
0.00069370313844789
0.00069370425523425
0.00069370551106206
0.00069370691312504
0.00069370846801598
0.00069371018152823
0.00069371205851399
0.00069371410278814
0.0006937163170595
0.00069371870288988
0.00069372126067322
0.00069372398963616
0.00069372688785742
0.00069372995230362
0.00069373317887696
0.00069373656246601
0.0006937400969818
0.00069374377534266
0.00069374758933468
0.00069375152921054
0.00069375558278696
0.00069375973365825
0.00069376395797779
0.00069376821912408
0.00069377245955426
0.00069377658937087
0.00069378047167181
0.00069378390560034
0.00069378660898286
0.0006937882032089
1.6688766753064e-06
1.0276598939834e-06
5.748372151546e-07
5.7804840161977e-07
6.9849879864098e-07
8.9438528451815e-07
1.100358984153e-06
1.2784307735243e-06
1.4906934244118e-06
1.8849434166169e-06
1.9700411991368e-06
1.6129248474737e-06
2.9184196524622e-06
2.8201058463414e-06
2.1555188817863e-06
1.6215175478391e-06
1.3270616538356e-06
1.236090599153e-06
1.330861836074e-06
1.5758940973646e-06
1.9209286466003e-06
2.3034642939538e-06
2.6031239718689e-06
2.7205734854439e-06
2.634146773491e-06
2.4304544319262e-06
2.0587932921105e-06
4.8360238816614e-06
4.4680540984939e-05
4.3551073364001e-05
1.133501259928e-06
1.7337721309924e-06
2.5784157327041e-06
3.7224736159069e-06
5.2467034522197e-06
7.26020149166e-06
9.9224766234157e-06
1.3523882376325e-05
1.8771043874959e-05
2.7048197034401e-05
3.9587109742926e-05
5.3317529789833e-05
6.3683585044883e-05
6.7474028652063e-05
6.5052876615466e-05
6.3480018781827e-05
6.7492378450646e-05
7.648984709652e-05
8.8748976525452e-05
0.00010403536803242
0.00012300749908067
0.00014313489826185
0.00015216089498093
0.00013983379894437
0.0001048803470637
7.1614676930834e-05
5.2797591025826e-05
4.7160115315499e-05
5.7765680851225e-05
8.869912393257e-05
0.00017209682643596
0.00054497142507342
0.00068594881820516
0.00068609359358786
0.00068625142938177
0.00068641272147731
0.00068657319932995
0.00068673135468121
0.00068688687599705
0.00068703991510055
0.00068719069853348
0.00068733932425912
0.00068748577038753
0.00065904824386584
0.00056745513044866
0.00047441105020067
0.00039041012956595
0.00031822501764078
0.00025970100337561
0.00021627679792116
0.00018985331922222
0.00019326105500867
0.00031007951222386
0.00068991538526247
0.00068992633507347
0.00032282245409084
0.00013631723092791
8.6936894091502e-05
7.0924709969201e-05
7.7666774520906e-05
0.0001047089940225
0.00015933979683726
0.00027179074630703
0.00049637470332566
0.00069378626507267
0.00069375005044578
0.00069372825879493
0.00069371526372312
0.00069370760598423
0.00069370319149979
0.00069370074311489
0.00069369948030653
0.0006936989304617
0.0006936988138654
0.0006936990277624
0.00069369940948936
0.00069369992075617
0.00069370054870844
0.0006937012913321
0.00069370215210909
0.00069370313718744
0.00069370425382179
0.00069370550949133
0.00069370691139112
0.00069370846611493
0.00069371017945729
0.00069371205627225
0.00069371410037593
0.00069371631447865
0.00069371870014364
0.00069372125776624
0.00069372398657436
0.00069372688464791
0.00069372994895458
0.00069373317539753
0.00069373655886609
0.00069374009327196
0.00069374377153395
0.00069374758543852
0.00069375152523858
0.00069375557875101
0.00069375972957013
0.00069376395384938
0.00069376821496725
0.00069377245538087
0.00069377658519265
0.00069378046750005
0.00069378390144513
0.00069378660485116
0.00069378819909965
1.0401411147696e-06
1.0187754917875e-06
1.0431932942303e-06
1.0940148703151e-06
1.1685221736877e-06
1.2885634056134e-06
1.4245935507101e-06
1.541915012435e-06
1.6606108774214e-06
1.8344521575135e-06
2.082641992788e-06
2.4176988909195e-06
2.3222771466855e-06
1.6948814419753e-06
1.5677019844239e-06
1.7715321129574e-06
2.2341499439731e-06
3.2459799868618e-06
4.8928121493618e-06
6.4859163311025e-06
7.1634285263138e-06
7.1583699152782e-06
6.7970472690321e-06
6.260487847157e-06
5.6144336431548e-06
4.8884508532848e-06
3.8335487985592e-06
9.0220421888949e-06
4.7544616270977e-05
1.8735097313955e-05
1.2105979784457e-06
1.8463282824598e-06
2.7147068477245e-06
3.8838209045387e-06
5.4351324195145e-06
7.4799229124776e-06
1.0180706484774e-05
1.3841546372074e-05
1.9192600173662e-05
2.7621044081069e-05
4.0287491878759e-05
5.3799573380093e-05
6.3862444270105e-05
6.7487620479429e-05
6.5073888998883e-05
6.3658781048395e-05
6.786196050929e-05
7.6992372996611e-05
8.9373486553769e-05
0.00010478515538621
0.00012387933645949
0.00014392741630589
0.00015259969772225
0.00013956235845373
0.00010416590726383
7.1072623265758e-05
5.2535904213364e-05
4.7163685908027e-05
5.8042367500394e-05
8.941669436985e-05
0.00017427641296291
0.00055439053937049
0.00068595196555955
0.00068609666627389
0.00068625437769736
0.00068641557307169
0.00068657600442135
0.00068673414426308
0.00068688965625829
0.00068704267184893
0.00068719340521781
0.00068734194938527
0.00068748828260072
0.00065765549483698
0.00056683173281639
0.00047417312789885
0.00039031102420907
0.0003181836769848
0.00025968537216161
0.00021628042766657
0.00018988903559067
0.00019335297431438
0.00031049930694761
0.00068991671414041
0.00068992811157828
0.00032040667537807
0.00013623817770435
8.7053224971916e-05
7.0997622285469e-05
7.7623425291377e-05
0.00010469419133078
0.00015933540640569
0.00027178098738234
0.00049635330684157
0.00069378627501948
0.00069375005736431
0.0006937282632186
0.00069371526644023
0.00069370760758444
0.00069370319237216
0.00069370074350911
0.00069369948038025
0.00069369893031091
0.00069369881354202
0.00069369902728203
0.00069369940890311
0.00069369992005359
0.00069370054788398
0.00069370129037998
0.00069370215102251
0.00069370313595952
0.00069370425244599
0.0006937055079618
0.00069370690970246
0.00069370846426377
0.00069371017744139
0.00069371205409022
0.00069371409802808
0.00069371631196671
0.00069371869747073
0.0006937212549368
0.00069372398359408
0.00069372688152363
0.0006937299456942
0.00069373317200984
0.00069373655536067
0.000693740089659
0.00069374376782415
0.00069374758164293
0.00069375152136848
0.00069375557481782
0.00069375972558536
0.00069376394982452
0.00069376821091382
0.00069377245131033
0.0006937765811163
0.00069378046342868
0.0006937838973882
0.0006937866008149
0.00069378819508274
6.5576526180023e-06
3.9093305815229e-06
2.1364501989756e-06
1.4188085175645e-06
1.131713866867e-06
1.0375424776465e-06
1.0666636529389e-06
1.2203580191346e-06
1.4494507464203e-06
1.688646888954e-06
1.9050198711353e-06
1.7847540163396e-06
1.5664929437816e-06
2.0395069203405e-06
3.6029247471799e-06
6.2271297301744e-06
9.2657240809272e-06
1.2763666695233e-05
1.4418749137578e-05
1.4200747603175e-05
1.2969715361e-05
1.1546006201644e-05
1.0352448802246e-05
9.3457539899469e-06
8.3736287305708e-06
7.1429952329524e-06
6.0589684358596e-06
1.838736086167e-05
4.969817587597e-05
3.9814585121166e-06
1.329286820986e-06
1.9920818657891e-06
2.8880504457203e-06
4.0871596640976e-06
5.6716603924995e-06
7.7553096138306e-06
1.0504488587807e-05
1.4240435266294e-05
1.9723064370557e-05
2.8341556051167e-05
4.1167877928935e-05
5.4422216228038e-05
6.4099240701348e-05
6.7522439575227e-05
6.5118359967938e-05
6.3890383827895e-05
6.8325014984769e-05
7.7614512454466e-05
9.0142716813672e-05
0.00010570612620225
0.0001249556220663
0.00014488030482292
0.00015313133669036
0.00013920249416249
0.00010328909680215
7.0419745416797e-05
5.2222374414799e-05
4.718156971436e-05
5.8394784253542e-05
9.0325504246239e-05
0.0001770456140228
0.00056615562923033
0.00068595597853489
0.00068610059498269
0.00068625815212725
0.00068641922743172
0.0006865796011269
0.00068673772460565
0.00068689323211885
0.00068704623026764
0.00068719691760573
0.00068734538092161
0.00068749159849819
0.00065606753180432
0.00056616311453101
0.00047395830973582
0.00039024729003981
0.00031817156468284
0.00025969081274894
0.00021629634250723
0.00018992709951835
0.00019343174539189
0.00031066572703536
0.00068991864443708
0.0006899294899247
0.00031845590082851
0.0001362228746589
8.713763309243e-05
7.1038144685078e-05
7.7608864010542e-05
0.00010469174186182
0.00015933458092467
0.00027177156144251
0.00049632785862136
0.00069378628530934
0.00069375006451534
0.00069372826785174
0.00069371526932526
0.00069370760930747
0.00069370319333318
0.00069370074397083
0.00069369948051077
0.00069369893021343
0.0006936988132688
0.00069369902687016
0.00069369940840733
0.00069369991945037
0.00069370054717015
0.00069370128955254
0.00069370215007687
0.00069370313489038
0.00069370425124809
0.00069370550663019
0.00069370690823292
0.00069370846265297
0.00069371017568719
0.00069371205219162
0.00069371409598533
0.00069371630978123
0.00069371869514515
0.00069372125247491
0.00069372398100073
0.00069372687880469
0.00069372994285643
0.0006937331690608
0.00069373655230859
0.00069374008651267
0.00069374376459279
0.00069374757833606
0.00069375151799587
0.00069375557138933
0.00069375972211093
0.00069376394631413
0.00069376820737741
0.00069377244775781
0.00069377657755736
0.0006937804598725
0.00069378389384262
0.00069378659728487
0.00069378819156694
3.1177137787519e-07
2.1083285617975e-06
3.2262175136631e-06
2.6790022020598e-06
1.9061562246193e-06
1.481875821962e-06
1.3471712756957e-06
1.4006150840125e-06
1.5329122627716e-06
1.6204870593648e-06
1.6411279072726e-06
1.7715457192774e-06
2.6870517667153e-06
5.796981525966e-06
1.0740933202536e-05
1.4711410934194e-05
1.8573440957599e-05
2.0117211595875e-05
1.9238586719807e-05
1.7218807743952e-05
1.5066125808418e-05
1.3355129548315e-05
1.2171383948525e-05
1.1351263307164e-05
1.051514425129e-05
9.1968201802372e-06
9.0587986870093e-06
2.5039588161539e-05
4.7404804873861e-05
3.3354004995041e-06
1.3450601681697e-06
1.9823996887897e-06
2.8432231933687e-06
3.9931404983524e-06
5.5103888298724e-06
7.5006109778737e-06
1.0117661004959e-05
1.363929633804e-05
1.8719939791666e-05
2.6623021097734e-05
3.8610396200432e-05
5.1939189077936e-05
6.2824276430437e-05
6.7240608262489e-05
6.592892784074e-05
6.4029746159234e-05
6.7086440865161e-05
7.5667070341515e-05
8.7602725343414e-05
0.00010253889608562
0.00012103438850858
0.00014164516660228
0.00015341467085974
0.00014518618151589
0.00011199463547457
7.6456212307629e-05
5.501139020334e-05
4.6960783382794e-05
5.4475277492966e-05
8.0281627912609e-05
0.00014774936775131
0.00041560877492865
0.00068592878063553
0.00068606752041309
0.00068622284093685
0.00068638341447866
0.00068654408254614
0.00068670279558818
0.00068685894697966
0.00068701253739395
0.00068716374644692
0.00068731268467175
0.00068745934820947
0.00067255746574028
0.00058871082246812
0.00049609515216253
0.00041009950319091
0.00033497398253165
0.00027296810129429
0.00022566045852973
0.00019481026428866
0.00018688079068558
0.00025660040229137
0.00068991699809373
0.00068993129032251
0.00031748221800602
0.00013622850898235
8.7190827881266e-05
7.1062803042599e-05
7.7610077370985e-05
0.00010469597979307
0.00015933642079699
0.00027176177289988
0.00049629634991718
0.00069378629648375
0.00069375007223952
0.00069372827288573
0.00069371527248997
0.00069370761122333
0.00069370319442915
0.00069370074453274
0.00069369948072421
0.00069369893019374
0.00069369881307379
0.00069369902638048
0.00069369940782357
0.00069369991872626
0.00069370054630399
0.00069370128854382
0.00069370214892206
0.00069370313358424
0.0006937042497845
0.00069370550500347
0.00069370690643809
0.00069370846068605
0.00069371017354551
0.00069371204987391
0.00069371409349177
0.00069371630711347
0.00069371869230625
0.00069372124946934
0.00069372397783427
0.00069372687548432
0.00069372993939024
0.00069373316545783
0.00069373654857872
0.00069374008266646
0.00069374376064133
0.00069374757429086
0.00069375151386869
0.00069375556719214
0.00069375971785576
0.00069376394201305
0.00069376820304249
0.00069377244340097
0.00069377657319025
0.00069378045550594
0.00069378388948562
0.00069378659294273
0.00069378818723793
9.9684020862693e-09
8.9952373013443e-07
2.4179074156912e-06
3.0080532176768e-06
3.3148249516786e-06
3.4922563308363e-06
3.6413678137071e-06
3.9781117779785e-06
4.8120951672508e-06
6.7570692561413e-06
1.0899720717953e-05
1.4021168401659e-05
1.6338315786512e-05
2.0697645963644e-05
2.3636449541408e-05
2.4091682043271e-05
2.2104914392182e-05
1.9369132905473e-05
1.7337338319089e-05
1.6143738985213e-05
1.5364056253087e-05
1.4749464309857e-05
1.4241817918993e-05
1.3972072579728e-05
1.4398410772029e-05
1.9250832554894e-05
3.063350687067e-05
4.011363744041e-05
3.4155556746709e-06
1.3678617679416e-06
1.9114819615696e-06
2.6572769549644e-06
3.6563497850947e-06
4.9728106115971e-06
6.6932070355859e-06
8.9408386173058e-06
1.1901365772785e-05
1.5974293192412e-05
2.2045100031015e-05
3.1449159234332e-05
4.4512733188391e-05
5.7094103865438e-05
6.5186023504437e-05
6.7828655520648e-05
6.5482437323921e-05
6.4969869000065e-05
7.0307877912121e-05
8.0206183262391e-05
9.3287411135741e-05
0.00010944142052877
0.00012926182412424
0.00014859166085498
0.00015502901367371
0.00013745908265338
9.967909783703e-05
6.7865135304991e-05
5.1035911004907e-05
4.7395965329149e-05
5.9973857105107e-05
9.4330343103535e-05
0.00018936914421172
0.00061633889566288
0.00068597346747247
0.00068611768655634
0.00068627450641942
0.00068643498045486
0.00068659500764339
0.00068675297446737
0.00068690840570031
0.00068706130634831
0.00068721180228509
0.00068735994405929
0.00068750570247397
0.00064964969871542
0.00056354363863025
0.00047317232341566
0.00039007491548404
0.0003181826189078
0.00025975410933237
0.00021637093101894
0.0001900273854298
0.00019365351771539
0.00031134272622792
0.00068992651059472
0.00068993626479913
0.00031665152011412
0.00013626308796485
8.725683759514e-05
7.110311810934e-05
7.7631603384897e-05
0.00010471599526392
0.00015934506478753
0.00027173841824343
0.0004962127208941
0.0006937863227352
0.00069375009017268
0.00069372828454679
0.00069371527984598
0.00069370761572113
0.00069370319706476
0.00069370074597154
0.00069369948140039
0.00069369893038195
0.00069369881293396
0.0006936990260873
0.00069369940741556
0.00069369991820675
0.00069370054567891
0.00069370128781489
0.00069370214808783
0.00069370313264118
0.0006937042487287
0.00069370550383063
0.00069370690514474
0.00069370845926928
0.00069371017200322
0.00069371204820501
0.00069371409169614
0.00069371630519202
0.00069371869026087
0.00069372124730291
0.00069372397555059
0.00069372687308803
0.00069372993688677
0.00069373316285331
0.0006937365458799
0.00069374007988059
0.00069374375777608
0.00069374757135421
0.00069375151086887
0.00069375556413751
0.00069375971475479
0.00069376393887427
0.00069376819987438
0.0006937724402119
0.00069377656998824
0.00069378045229824
0.00069378388627802
0.00069378658973845
0.00069378818403669
8.9041724975656e-10
2.5118296566308e-07
2.0966836256184e-06
4.2685972791386e-06
6.3853209541237e-06
8.4318229536181e-06
1.0163078355702e-05
1.1410507011657e-05
1.2338143205085e-05
1.3368226987778e-05
1.5810186515677e-05
2.0018516057251e-05
2.3845885209306e-05
2.5632435230419e-05
2.5406125745328e-05
2.3588758356461e-05
2.0566156651213e-05
1.7497427636624e-05
1.5945094798623e-05
1.6239781270931e-05
1.701765824111e-05
1.7611595356933e-05
1.835737439512e-05
2.0090917958084e-05
2.4157778424634e-05
3.2415599780761e-05
3.329398652949e-05
3.2059791929965e-06
1.4790233180048e-06
1.893587362524e-06
2.4996654406816e-06
3.3150398120698e-06
4.4001243131408e-06
5.8220535559063e-06
7.6666649203943e-06
1.0066263480281e-05
1.3233156145008e-05
1.764908237205e-05
2.4299162542241e-05
3.4487494844953e-05
4.7026105915142e-05
5.9399175674559e-05
6.625544778069e-05
6.8289631196452e-05
6.6010286088928e-05
6.6100568236788e-05
7.2170344946737e-05
8.2555130475292e-05
9.606718655926e-05
0.00011269397705355
0.00013291211083026
0.00015150327584636
0.00015624745758197
0.00013543141905899
9.6485051575938e-05
6.5754359018551e-05
5.0117311962601e-05
4.7767999860339e-05
6.1551892887594e-05
9.82598158295e-05
0.00020173218309274
0.00066177037716917
0.00068598975791309
0.00068613352117603
0.00068628954222945
0.00068644932348152
0.00068660888034787
0.000686766565993
0.00068692182318631
0.00068707457012255
0.0006872248609173
0.00068737270142654
0.00068751804090739
0.00064345343726111
0.00056097303172453
0.00047233620272626
0.00038986780341007
0.00031818123301733
0.00025981357960375
0.00021644125446736
0.00019010370543935
0.00019383814439278
0.00031211382416825
0.00068993337099504
0.00068994267813185
0.00031636868448218
0.0001362965779805
8.7306216778747e-05
7.1146101299446e-05
7.7667429843651e-05
0.00010474557680476
0.00015935720199688
0.00027170742404841
0.00049610067322183
0.0006937863547201
0.0006937501117201
0.00069372829845453
0.00069371528860108
0.00069370762109493
0.00069370320025912
0.000693700747784
0.0006936994823505
0.00069369893080072
0.00069369881302736
0.00069369902598763
0.00069369940720532
0.00069369991791344
0.00069370054531531
0.00069370128738624
0.00069370214759515
0.00069370313208321
0.00069370424810361
0.00069370550313627
0.00069370690437903
0.00069370845843039
0.00069371017108983
0.00069371204721632
0.00069371409063192
0.0006937163040526
0.00069371868904717
0.00069372124601639
0.00069372397419326
0.0006937268716624
0.00069372993539581
0.00069373316130042
0.00069373654426882
0.00069374007821541