/*--------------------------------*- C++ -*----------------------------------*\
| =========                 |                                                 |
| \\      /  F ield         | OpenFOAM: The Open Source CFD Toolbox           |
|  \\    /   O peration     | Version:  2312                                  |
|   \\  /    A nd           | Website:  www.openfoam.com                      |
|    \\/     M anipulation  |                                                 |
\*---------------------------------------------------------------------------*/
FoamFile
{
    version     2.0;
    format      ascii;
    arch        "LSB;label=32;scalar=64";
    class       volScalarField;
    location    "1e-05";
    object      omega;
}
// * * * * * * * * * * * * * * * * * * * * * * * * * * * * * * * * * * * * * //

dimensions      [0 0 -1 0 0 0 0];

internalField   nonuniform List<scalar> 
109340
(
10243.000017752
10510.994040115
11264.069677704
12880.791990835
15544.432688061
19106.084988752
23149.105030763
27219.465719255
30919.69899133
33949.067365588
35868.459010887
35694.013900029
33240.759927801
28632.885554727
24041.425042243
25271.096024782
32322.181897662
50465.660453094
76853.037715888
106757.25479719
137094.41710623
163603.18161574
186385.83540947
205590.66534465
222086.55241172
236262.79485588
248621.78730462
259512.57053536
269183.29961805
277837.69698941
285655.36733826
292522.41869965
298253.56922743
303195.58368967
307731.63474009
311880.14015181
10344.593077724
11421.209754501
14243.989608456
18545.757731866
23612.691678857
28845.797731643
33899.045215081
38645.694028276
43051.676437021
46951.531302987
49887.13330722
50500.156272144
47938.771459179
41772.102923039
34285.105088689
35619.772582746
45971.838747704
65975.461935515
91241.699815939
120703.94383562
149944.70919001
175319.20904659
197628.95151296
217000.08442221
233606.78925038
247653.72895585
259694.01099814
270176.19587088
279361.93247883
287473.93440162
294525.6942769
300479.68752747
305284.76324076
309405.46597409
313305.62199177
316639.51168607
10590.881810134
14669.526484202
22454.895265862
30558.861326852
38321.160572932
45699.13660508
52913.053192774
59908.8239811
66474.819726169
72402.063864483
77569.432620782
81871.231954531
82722.237203331
76897.147024133
63994.814618419
56874.381894399
63221.020208184
82331.982894499
106861.94720332
134528.71702878
161813.57152135
185772.74752685
206981.85784723
225675.38103802
241680.89243792
255636.40089332
267606.72311473
278178.37215562
287551.52723593
295727.06742273
302632.8468954
308330.44376188
312861.26826217
316703.59875841
320267.20068415
323322.22326279
12616.505991603
30096.612118087
48084.706628736
65816.117567624
83216.250275584
100123.4693683
116307.72535566
131538.46681844
145496.76498207
157762.83478628
167838.53632762
174776.93545986
178167.91559498
177751.36976734
164604.60931814
135244.32870007
121391.79658671
125989.71883957
142043.57344045
166584.62918579
192753.30330038
216237.49539365
237027.32341093
254905.61729589
270299.10097331
283561.61973454
295547.65126825
306708.69654823
317505.47311301
327947.6476282
338194.35990165
347978.59135684
357060.92748601
365381.17823134
372917.02850439
379366.01871437
48743.528014138
153856.88820121
253174.43372267
348029.01491201
436958.48882899
518466.35274404
591585.37320506
655857.08520775
710844.54284594
756355.3627394
791929.23273059
814246.22379542
814608.5201989
787483.14493212
731266.63142969
663025.12177411
599425.00537472
577652.63783907
609923.04668188
663854.91905005
731177.53929708
811281.57182631
900056.30921519
997258.49101439
1104322.3216515
1225342.8535481
1364084.0493063
1519039.0083235
1686640.6871395
1862313.3557443
2039454.0807423
2210761.6361357
2369697.8608535
2510738.6062288
2632941.6351466
2734348.737716
4950971.9611066
5819686.5426648
6468535.6044532
6922660.131454
7220810.0295548
7402452.0982398
7501068.0688349
7543089.1336805
7547942.6757046
7531541.1733704
7504723.9889196
7478273.083831
7466994.9940519
7490427.0115686
7569364.5077391
7773987.51118
8174221.7352794
8728756.3466071
9398946.4681367
10109056.807249
10869013.409931
11646263.217718
12412988.344523
13166030.030981
13906202.194245
14641731.66575
15375746.34199
16108291.991952
16840438.577579
17574643.129198
18318213.872157
19084281.486944
19891174.884247
20752457.964045
21664366.936915
22638016.118215
314905.52841409
314941.49033369
313961.97007331
311998.2343678
308856.59513124
303270.39155991
294292.49177697
284260.20118437
270851.99864238
253318.22199946
233533.30481609
213311.08852288
209555.23848046
299806.35199187
383855.44675992
434671.73852052
504467.27588058
589899.69940065
685028.77138126
783373.52454232
874042.5418151
960606.63123013
1059687.1809717
1171224.9976128
1276443.6594918
1378021.1625108
1539561.1984846
1987667.6385565
3535209.6314071
2933096.457963
105922.32751445
26636.044276501
17641.787172111
13966.211064464
11898.866058022
10588.995783635
9766.6963074551
9219.0739117294
8839.4757913378
8572.0375752695
8382.69417084
8245.1502260107
8137.8797562171
8047.0343701866
7964.8531608359
7887.2763729923
7814.7080651266
7750.2060130059
7698.110034416
7657.5506895833
7625.6791813326
7600.3037193081
7579.2045160972
7559.848507172
7539.1350761524
7511.4373257738
7469.1830474641
7414.2826085141
7358.9234343917
7319.9978768275
7302.184334433
7295.6677141376
7293.2496704638
7291.5605160838
7290.130530641
7288.8164385239
7287.5530814296
7286.3159141108
7285.0966434712
7283.8935309152
7282.7078183359
7281.5423447874
7280.4002641236
7279.2828027539
7278.1824412458
7277.1043286748
7276.0261824066
7274.8950658793
7273.6150814251
7272.0509969324
7270.0858608881
7267.7934662456
7265.9171700962
7265.2655161928
7265.7989956648
7263.0408184203
7255.0108549202
7241.1620257903
7219.2775829145
7195.2686689092
7178.3593215214
7169.1585013356
7164.9495030225
7163.2022835717
7162.4216575097
7161.9756338637
7161.7073372841
7161.5464149179
7161.4503867581
7161.3934605109
7161.3598276989
7161.3397581292
7161.3272914823
7161.3188237487
7161.3106927047
7161.3047426277
7161.298465968
7161.2915016977
7161.2836151172
7161.2746397002
7161.2644465196
7161.2529286562
7161.2399935782
7161.2255599461
7161.2095565003
7161.1919221173
7161.1726061984
7161.1515692197
7161.1287832028
7161.1042320704
7161.0779118039
7161.0498304113
7161.0200077176
7160.9884749924
7160.9552744563
7160.9204587551
7160.8840905821
7160.8462428256
7160.8069999888
7160.7664622948
7160.7247549386
7160.6820464257
7160.6385816405
7160.5947366968
7160.5511027737
7160.5086038722
7160.4686478496
7160.4333013953
7160.4054696388
7160.3890531808
317612.27440162
316990.14394467
315084.99673533
311478.25848631
305169.01581832
296967.36621597
287699.63107137
274240.91305413
256815.99772557
236961.76998468
216054.0698231
200390.16211205
220621.92680432
322351.23268561
415228.67194688
530157.6851839
668609.6537678
829874.88529264
1021489.6949929
1216615.6363158
1392626.1034945
1579499.4401903
1794518.6635164
2021077.8620997
2190611.6233622
2310961.9783599
2461447.6101204
2885385.797949
4233975.534278
1328709.7345973
51201.910436809
22533.817637618
16143.693645037
13194.494690618
11404.393241809
10285.412310311
9567.7099163731
9081.657053741
8741.607470019
8501.3865586047
8330.791582185
8205.4899071161
8105.3563697602
8019.0567227907
7939.5441903379
7863.7670857287
7793.1140716989
7731.9885555385
7684.0765385644
7646.6255847674
7617.0514069149
7593.2883695674
7573.0384769005
7553.8257764475
7532.1647362877
7501.8076658644
7455.7867470792
7399.3873417594
7346.4078071664
7313.7537430988
7299.7687234172
7294.8752108227
7292.7617183234
7291.1605937798
7289.7715827153
7288.4764180157
7287.2234080702
7285.9934826165
7284.78051143
7283.583707234
7282.4048503101
7281.2470336983
7280.1132461683
7279.0020367766
7277.9097700808
7276.8368438553
7275.7538664982
7274.5985571139
7273.2638188771
7271.6111109529
7269.5454078989
7267.2457358715
7265.647775313
7265.3981912702
7265.7146910048
7262.5219069446
7255.2146521629
7241.4257743922
7219.4351096627
7195.3106566864
7178.3641849163
7169.1593279247
7164.9498863807
7163.2025596807
7162.4219320751
7161.9758189369
7161.7074512816
7161.5464848469
7161.4504297717
7161.3934869879
7161.3598440508
7161.339768406
7161.3272982741
7161.3188286316
7161.3106967894
7161.3047466526
7161.2984702023
7161.2915063595
7161.2836203502
7161.2746455974
7161.2644531521
7161.2529360744
7161.2400018222
7161.225569046
7161.2095664767
7161.1919329878
7161.1726179669
7161.1515818842
7161.128796753
7161.1042464896
7161.0779270669
7161.0498464864
7161.0200245669
7160.9884925721
7160.9552927181
7160.9204776462
7160.8841100466
7160.8462628048
7160.8070204223
7160.7664831209
7160.724776095
7160.6820678499
7160.6386032699
7160.5947584686
7160.5511246252
7160.508625741
7160.4686696744
7160.4333231197
7160.4054912199
7160.3890746156
324063.5865927
323354.89800389
320253.54796035
314871.62701951
312243.511875
306157.70439402
293773.37944236
277538.7046025
259235.29061779
239898.64747084
222347.01241673
219632.56277641
267704.52842059
388562.56176874
596382.7186982
840472.17950794
1108276.5688161
1440741.9180228
1816816.0333227
2147945.5235348
2405027.732377
2651081.7028504
2906291.5063798
3115850.2412524
3193083.5548985
3199727.5524046
3248286.218844
3622052.078543
4627814.2797709
1038858.6091194
45381.659825771
21917.004405635
15932.134287453
13089.825938943
11340.811711837
10249.691394083
9546.1329349374
9067.8916758419
8732.5233838945
8495.2290425525
8326.4057366716
8202.0848106196
8102.4846168607
8016.5290349346
7937.2880942113
7861.8037229911
7791.480553188
7730.7458549711
7683.1672441736
7645.9744790451
7616.5978950076
7592.9836361647
7572.8377915335
7553.683835026
7532.0025373473
7501.5222664578
7455.3338323147
7398.8826386212
7346.0046803695
7313.5525279351
7299.6778728974
7294.8277801158
7292.7210378882
7291.1226905239
7289.7364422884
7288.4442677322
7287.1944749692
7285.9678447771
7284.7581127991
7283.5644071584
7282.3884525552
7281.2333339174
7280.1020499639
7278.9930433882
7277.9029074167
7276.8320126378
7275.7509965367
7274.5974726913
7273.2641320755
7271.6119463161
7269.5455388036
7267.2436812826
7265.6530977827
7265.4685964028
7265.6049349765
7261.2973730043
7255.3180240567
7242.1437264078
7220.1093983816
7195.4230182967
7178.3704935809
7169.1600463432
7164.9502558947
7163.2028192467
7162.4221426508
7161.9759567615
7161.7075344701
7161.5465348576
7161.4504602023
7161.3935058801
7161.3598562169
7161.3397767848
7161.3273046892
7161.3188342132
7161.3107023648
7161.3047527461
7161.2984770539
7161.2915141534
7161.2836292261
7161.2746556615
7161.2644644995
7161.2529487782
7161.2400159441
7161.2255846339
7161.2095835701
7161.1919516068
7161.1726381232
7161.1516035737
7161.1288199591
7161.1042711831
7161.0779532055
7161.049874016
7161.020053423
7160.9885226806
7160.9553239963
7160.9205100045
7160.8841433893
7160.846297032
7160.8070554309
7160.7665188056
7160.7248123496
7160.6821045673
7160.6386403432
7160.5947957907
7160.5511620891
7160.5086632404
7160.4687071061
7160.43336039
7160.405528261
7160.389111432
385034.42455923
387107.18906356
385931.62525468
387130.11315703
368431.7045812
339943.76409732
312711.59398225
288827.49634411
267228.84828319
249125.22712319
242625.4131014
272445.23609677
361513.78079715
618682.66553133
1089187.8126607
1615243.5219745
2099818.3470187
2609178.1928806
3088241.2375575
3458307.6081977
3731829.0585481
3918794.6919045
4010131.3433662
4013578.9072983
3956677.3034398
3930508.4202999
4006308.6606487
4398051.1321211
4932203.4064101
679062.34456796
39364.868497793
21125.083350267
15651.389990364
12946.138453421
11255.412787538
10201.800286228
9517.3400087922
9049.674117654
8720.6545073364
8487.3161533158
8320.8802580592
8197.8406459628
8098.9223857488
8013.4075880408
7934.495890112
7859.3505471025
7789.4108092443
7729.1828390802
7682.0347088277
7645.1646710279
7616.0294497668
7592.5866459504
7572.545089447
7553.4364965925
7531.709244293
7501.060434728
7454.6463931589
7398.1188192591
7345.3994693201
7313.2509304369
7299.5425517697
7294.7576035261
7292.6613910433
7291.067542714
7289.6852527505
7288.3971983306
7287.1518209555
7285.9296985257
7284.7243457581
7283.5347155427
7282.3624292695
7281.210553705
7280.0821218137
7278.9753991789
7277.8874010948
7276.8183346044
7275.7388357393
7274.5863920566
7273.253670297
7271.6017598664
7269.5350522325
7267.2322642402
7265.648442279
7265.4832712494
7265.5548589012
7261.1479047289
7255.3589420439
7242.2308248236
7220.1968452915
7195.4542561672
7178.3737807186
7169.1606374123
7164.9505614725
7163.2030092213
7162.4222858748
7161.9760539191
7161.7075956337
7161.546572906
7161.450484063
7161.3935211929
7161.3598665192
7161.3397843208
7161.3273108999
7161.3188400108
7161.3107084756
7161.3047596047
7161.2984848642
7161.2915230793
7161.2836394077
7161.2746672144
7161.2644775242
7161.2529633587
7161.2400321489
7161.2256025222
7161.2096031824
7161.1919729656
7161.1726612435
7161.1516284517
7161.1288465761
7161.1042995056
7161.0779831858
7161.0499055929
7161.0200865229
7160.9885572191
7160.9553598793
7160.9205471296
7160.8841816478
7160.8463363097
7160.8070956099
7160.7665597658
7160.7248539693
7160.6821467245
7160.6386829154
7160.5948386554
7160.551205124
7160.5087063247
7160.4687501234
7160.4334032362
7160.4055708645
7160.3891538036
2774512.4952678
2462404.4697119
1871307.3053439
1250239.3300332
802727.06632887
545138.11524151
410607.11887584
340173.9500774
303556.50658431
292066.96973357
320483.6793327
424515.34189605
724018.85071652
1360404.1578174
2362390.1718952
3332136.4501816
4089047.0679098
4613759.1020555
4887081.3874485
4987885.3267292
4938907.8760655
4804167.7398539
4667888.8806995
4585046.2534914
4570535.6135717
4664951.9539204
4868106.754953
5272439.5028033
4763124.83941
352604.87418186
34212.396106704
20218.09636016
15313.64098921
12764.12037714
11149.36732849
10141.76091654
9481.0100286154
9026.6009401388
8705.59546167
8477.2450696025
8313.8612426351
8192.4265077446
8094.3708309483
8009.4171209064
7930.9215951544
7856.2029790129
7786.7450360654
7727.1700221661
7680.5679320683
7644.1065804864
7615.2753339036
7592.0465016067
7572.1350739116
7553.0836856951
7531.2986854824
7500.4289964183
7453.7280205552
7397.1042366149
7344.6033657973
7312.855670889
7299.3656087044
7294.6653979047
7292.582897522
7290.9948930676
7289.6175834249
7288.3346164201
7287.0946628953
7285.8780511003
7284.6779996167
7283.4932277678
7282.3252206517
7281.1770026684
7280.0516178727
7278.9471601791
7277.8611776981
7276.7936531111
7275.7153511821
7274.563831543
7273.231886686
7271.5807814345
7269.5146602582
7267.2126429342
7265.6341342736
7265.4679233908
7265.5286349439
7261.2203260653
7255.3026764894
7242.1455178707
7220.1858091356
7195.4644567553
7178.3752709816
7169.1611451966
7164.9508604434
7163.2031856579
7162.4224118739
7161.976141097
7161.7076523295
7161.5466091177
7161.4505072001
7161.3935362084
7161.3598766761
7161.339791762
7161.3273170174
7161.3188456707
7161.310714434
7161.3047663379
7161.298492509
7161.2915317988
7161.2836493415
7161.2746784773
7161.2644902145
7161.2529775596
7161.2400479302
7161.2256199315
7161.2096222656
7161.1919937546
7161.1726837444
7161.151652662
7161.1288724782
7161.1043270674
7161.0780123617
7161.049936324
7161.0201187385
7160.9885908379
7160.9553948104
7160.9205832744
7160.8842189009
7160.846374561
7160.8071347454
7160.7665996691
7160.7248945226
7160.6821878093
7160.6387244129
7160.5948804471
7160.5512470917
7160.5087483518
7160.4687920986
7160.4334450621
7160.4056124769
7160.3891952163
15485215.012042
8070633.717485
4932871.5532873
3108216.3986516
1936321.098162
1198946.256641
780572.48424085
580981.61294334
511143.98256544
554226.72965829
750852.4679867
1162396.5185089
1938046.6332301
3388583.1491243
5500411.0364453
6296444.0502937
6228244.8343008
5986523.4119415
5783947.5867372
5585300.6852661
5363553.3852718
5167834.2832605
5062975.1189907
5068277.451644
5166362.126682
5391025.5101667
5787192.1304797
5751621.9061636
3642176.8794198
152047.42836047
30101.513376696
19263.154685822
14934.383610752
12547.432029201
11026.014467271
10071.014680692
9437.7968484725
8998.9658601771
8687.4615293228
8465.0562994693
8305.3297269938
8185.7999302693
8088.7863762484
8004.5271757007
7926.549719244
7852.3564959967
7783.4835582644
7724.7156519265
7678.7717194632
7642.8042105373
7614.3401510442
7591.3693517611
7571.614218899
7552.6296516422
7530.7705089911
7499.6257430391
7452.5750940975
7395.842277026
7343.6249770449
7312.3720037073
7299.1494152066
7294.5518792787
7292.4857723192
7290.9047563768
7289.5332797147
7288.2562295533
7287.0225796935
7285.8123796724
7284.6184917582
7283.4393465782
7282.2762550864
7281.1321820876
7280.0101967583
7278.9082301667
7277.8244818794
7276.7586976032
7275.6818664599
7274.5316929303
7273.2010808206
7271.5514160219
7269.4866768535
7267.1865958438
7265.6121563637
7265.4430811563
7265.5074866766
7261.2558619718
7255.2538539267
7242.0883724908
7220.1719374153
7195.4663333785
7178.3756907675
7169.1615872137
7164.9511734125
7163.2033721007
7162.4225403649
7161.9762301126
7161.707710829
7161.5466467252
7161.4505312241
7161.3935516859
7161.3598869744
7161.3397991008
7161.3273228361
7161.3188508461
7161.3107197982
7161.3047725178
7161.298499352
7161.291539493
7161.2836580457
7161.2746883126
7161.2645012773
7161.2529899291
7161.2400616685
7161.2256350881
7161.2096388754
7161.1920118407
7161.1727033184
7161.1516737218
7161.1288950092
7161.1043510425
7161.0780377421
7161.0499630595
7161.0201467685
7160.9886200926
7160.9554252119
7160.9206147379
7160.8842513357
7160.8464078721
7160.8071688345
7160.7666344356
7160.7249298647
7160.6822236244
7160.6387605984
7160.5949169003
7160.5512837106
7160.5087850364
7160.4688287544
7160.4334816082
7160.4056488624
7160.3892314549
97722064.935871
23401158.324803
9935411.6898646
6105348.4360188
4102260.50244
2845660.8763788
2106044.1996202
1729904.7017579
1619082.1742631
1726242.5268088
2092106.8492822
2894976.2284973
4517057.745083
7247844.3815337
7910815.5731694
6571209.6330537
5916929.4090584
5831297.0209178
5906765.5234679
5947229.4371609
5883872.1704724
5775492.7656676
5710086.988994
5730374.014678
5838122.0004473
6121136.6977581
6553987.2846327
5823872.7941985
3066273.0908372
136529.96042484
30837.352420068
19766.555136724
15265.143093366
12772.339283678
11181.91001962
10181.949797142
9518.9977688662
9059.4891935559
8732.5684555125
8498.2754371958
8329.8063540765
8204.8419728993
8104.763052259
8018.8087075726
7940.4071149764
7865.8285645925
7796.0541285977
7735.0122494655
7686.9379478384
7649.3498471341
7619.6621796888
7595.8427802529
7575.7193329782
7556.8994095276
7536.1978624696
7507.8454340016
7464.4127953971
7408.7792629257
7353.9716023365
7317.3929283138
7301.0307755194
7295.1205349595
7292.8208277248
7291.1645655901
7289.7618582093
7288.4743946736
7287.2395509374
7286.0317520741
7284.8412162404
7283.664980441
7282.5035214323
7281.3594037138
7280.2358436869
7279.133278123
7278.0465693903
7276.9802757793
7275.9125518958
7274.7907559918
7273.5195510736
7271.9642286915
7270.0063791923
7267.7115687099
7265.8486655624
7265.3355290597
7265.4825406414
7261.2526470749
7255.2143904073
7242.0498542089
7220.1584707107
7195.4642971752
7178.3755414141
7169.1620170808
7164.9515252431
7163.2035811819
7162.4226798977
7161.9763261584
7161.7077741443
7161.5466875055
7161.4505571776
7161.3935681909
7161.3598976688
7161.3398063985
7161.3273282977
7161.3188554467
7161.3107264919
7161.3047805129
7161.2985079894
7161.2915490492
7161.2836687652
7161.2747003745
7161.2645148175
7161.2530050511
7161.2400784515
7161.225653595
7161.2096591516
7161.1920339156
7161.1727272062
7161.1516994214
7161.128922504
7161.1043803008
7161.0780687179
7161.0499956935
7161.0201809885
7160.9886558151
7160.9554623438
7160.9206531771
7160.8842909737
7160.8464485942
7160.8072105223
7160.7666769677
7160.7249731179
7160.6822674746
7160.6388049212
7160.5949615714
7160.5513286068
7160.508830038
7160.4688737499
7160.4335265046
7160.4056936053
7160.3892760621
113265888.58655
12502859.921814
15683142.106565
13922120.156289
11860694.720756
10052747.656909
8837957.5035032
8208777.6280794
8382659.4169818
9303015.5602194
10392583.425918
9761820.9601205
7034565.6085416
4664806.3548158
4342939.4344417
4669603.0884698
5255616.3524834
6039211.4650883
6905989.3209058
7642037.3957174
8025750.1446876
8033679.4575865
7858232.8136704
7706696.159055
7796567.326772
7076261.0110246
5023255.6798857
1925745.6362345
132931.58242753
34685.478965662
21901.476651093
16576.304280688
13637.553783254
11768.323628051
10589.850196852
9812.5156020412
9276.0074956785
8893.6156048906
8617.2898433397
8417.3711869625
8271.4468469961
8159.1177504187
8066.1733560267
7984.80018445
7909.0065333164
7836.9771928645
7770.4651293058
7715.0090109522
7671.6444807717
7637.5903024846
7610.5442663705
7588.5624899723
7569.3971956208
7550.6388283417
7528.4162306125
7496.0911850423
7447.6421945283
7390.5658014263
7339.6751648736
7310.4456428756
7298.2931680275
7294.0930694967
7292.0884304999
7290.534215252
7289.1842566541
7287.9290204857
7286.7188389072
7285.5329103289
7284.3627733337
7283.2056884617
7282.062203631
7280.9349726964
7279.8271468124
7278.7359433837
7277.6622459836
7276.6047339086
7275.5351608708
7274.3917631294
7273.0677891081
7271.4249206945
7269.3670953952
7267.0754295073
7265.5105042674
7265.3400374618
7265.4152279367
7261.1986804606
7255.1446859336
7241.9855071476
7220.1257298702
7195.4547502111
7178.3743280717
7169.1629855021
7164.9523960172
7163.2040927092
7162.4230096209
7161.9765494572
7161.7079201291
7161.5467808334
7161.4506159168
7161.3936048195
7161.3599205795
7161.3398211242
7161.3273383962
7161.3188630478
7161.3107323417
7161.3047864612
7161.2985142969
7161.2915559902
7161.2836765295
7161.2747090946
7161.2645245909
7161.2530159548
7161.2400905426
7161.2256669205
7161.2096737451
7161.1920497998
7161.1727443936
7161.1517179134
7161.1289422915
7161.1044013644
7161.0780910281
7161.0500192111
7161.0202056656
7160.9886815958
7160.9554891647
7160.920680969
7160.8843196617
7160.8464780994
7160.8072407624
7160.7667078581
7160.7250045723
7160.6822994059
7160.6388372415
7160.5949941933
7160.5513614442
7160.5088630082
7160.4689067783
7160.4335595318
7160.405726598
7160.3893090234
115222718.26796
4903097.7447517
2265862.6031519
2912999.3654351
4453696.9993331
6028225.859259
7078534.9868174
7170379.0789958
6383035.073151
4926383.863191
3633686.4492771
2989954.0609121
2811863.8144183
2790430.6948366
2866697.6396895
3077475.1880222
3474110.7616416
4177461.8344203
5311124.9931174
6645457.3885715
7637410.906922
7968389.3591558
7711399.0470146
6826175.0631599
5079915.5616389
2919116.1287951
920641.71876379
117485.15947874
39576.884260783
25220.687782948
18693.554415557
15008.053265228
12697.010384595
11236.913835019
10277.958090143
9619.2888843936
9150.9142532603
8810.1850096188
8560.6775609492
8378.0998067494
8242.6739143011
8136.264433067
8046.7146648768
7967.8871087268
7894.0498023797
7823.9094705241
7759.5733766434
7706.9140009885
7665.6678315975
7633.1730059587
7607.2736477968
7586.0727648395
7567.3646195845
7548.7372959347
7526.1116332046
7492.6631716863
7443.0409635098
7385.815936164
7336.2960427576
7308.8309043464
7297.5814140999
7293.7013167388
7291.7443934103
7290.2120350166
7288.878827197
7287.6405583113
7286.448932867
7285.2827106958
7284.1324387897
7282.9943618302
7281.8682573407
7280.7563645823
7279.6617675922
7278.5805451884
7277.5163500009
7276.4667020493
7275.4039489923
7274.2667930009
7272.9488483115
7271.3120403244
7269.2604005703
7266.9754898876
7265.417778139
7265.2497003751
7265.328753948
7261.11882528
7255.0672944212
7241.9191371485
7220.0852592199
7195.4407753893
7178.3725318614
7169.1642150561
7164.9535122779
7163.2047343144
7162.4234114848
7161.9768171238
7161.708093188
7161.5468904316
7161.4506841304
7161.3936466354
7161.3599459676
7161.3398366021
7161.3273481332
7161.3188696394
7161.3107367619
7161.3047904115
7161.2985182483
7161.2915602099
7161.2836811832
7161.2747142858
7161.2645303892
7161.2530224127
7161.2400977002
7161.2256748066
7161.2096823812
7161.1920592011
7161.1727545691
7161.151728866
7161.1289540179
7161.1044138552
7161.0781042681
7161.0500331797
7161.0202203371
7160.9886969396
7160.9555051458
7160.9206975487
7160.8843367981
7160.8464957478
7160.8072588761
7160.7667263885
7160.7250234698
7160.6823186198
7160.6388567209
7160.5950138873
7160.5513813029
7160.5088829837
7160.4689268274
7160.4335796193
7160.4057467005
7160.3893291305
117200622.74872
5697369.9526636
1700191.4108635
1062722.3670484
1040359.8949646
1182400.9154658
1348099.4970705
1468436.9717804
1526099.1164291
1532810.5193235
1506946.1200084
1461579.3576057
1416297.618407
1391822.5227551
1400625.9108146
1448175.6499936
1551745.8393055
1747485.2383747
2066988.3110107
2481311.0497151
2823368.8247979
2846890.0937164
2425451.3672119
1662083.3123124
819362.82421244
250258.20240907
72947.675505509
40984.335889581
27867.168879143
20412.313091141
16142.315042358
13525.77928736
11856.371645603
10743.822880575
9973.4021031878
9423.1592718276
9020.2341530694
8721.1608932932
8499.1593196925
8334.823257794
8209.947933786
8109.2785867924
8024.305186087
7948.4239904168
7876.8882789101
7808.9120595329
7747.3471057094
7697.8192404073
7658.9107357864
7628.1244693856
7603.4709660822
7583.0990589699
7564.866578651
7546.3151727024
7523.1100064253
7488.2323773856
7437.3163255005
7380.1087706171
7332.4376073849
7307.0230531093
7296.7910948829
7293.2530572299
7291.3470523278
7289.8387804986
7288.5232341662
7287.3027332187
7286.1307990701
7284.9859866529
7283.8578910302
7282.7416242711
7281.6359734062
7280.5425355279
7279.4637010995
7278.3946275813
7277.3420072165
7276.3019340111
7275.2474103109
7274.1177201617
7272.8069603627
7271.1773695053
7269.1331519106
7266.8563417242
7265.3072133899
7265.1426333395
7265.2256047187
7261.0221970705
7254.9761501058
7241.8423938292
7220.0378751569
7195.4243545967
7178.3705934385
7169.1657906778
7164.9548844797
7163.2055047313
7162.4238844173
7161.977128156
7161.7082923528
7161.5470155495
7161.450761367
7161.3936934743
7161.3599739124
7161.3398531131
7161.3273579541
7161.3188757116
7161.3107403076
7161.3047932103
7161.2985207951
7161.2915627807
7161.2836839387
7161.274717319
7161.2645337588
7161.2530261566
7161.2401018455
7161.2256793727
7161.2096873823
7161.1920646474
7161.172760467
7161.1517352187
7161.1289608248
7161.1044211125
7161.0781119687
7161.0500413133
7161.0202288905
7160.9887058967
7160.9555144881
7160.9207072554
7160.8843468464
7160.8465061133
7160.8072695328
7160.7667373095
7160.7250346272
7160.6823299851
7160.6388682652
7160.5950255816
7160.5513931185
7160.5088948931
7160.4689388052
7160.4335916438
7160.4057587543
7160.3893411996
121435207.1131
6231529.3140937
1702377.6473905
738403.98272738
504802.62266948
482850.43658478
526046.07869122
577324.12847907
612357.54256748
624424.42215509
617901.10017355
601361.04356392
582249.52077232
564941.56424343
548816.45620598
529761.09958476
514237.0171969
513491.46486808
525507.96153653
531806.82177878
502430.22869539
414086.66662524
280349.22278537
155764.94101251
83491.521919815
52574.057492062
37462.849506351
27077.814517449
20677.475200317
16672.03679824
14080.617642486
12348.859547627
11152.547327312
10304.189835987
9688.6412634244
9232.7369709462
8889.6609194586
8630.3379023895
8435.2798480874
8288.6689978957
8174.4255330934
8079.4320553473
7999.4534885063
7926.7876618188
7857.8121245989
7792.129510557
7734.1204499703
7687.9503914023
7651.5199684288
7622.5368193536
7599.1863632578
7579.6575131916
7561.8872722461
7543.3185581607
7519.3097851734
7482.6717137884
7430.4277646993
7373.505889918
7328.2241309892
7305.0912200679
7295.9524360273
7292.7579379273
7290.9053791245
7289.4226109089
7288.1247568613
7286.9218157252
7285.7696007662
7284.6467788058
7283.5421702148
7282.4497690668
7281.3672337858
7280.2953143129
7279.232854199
7278.1791158035
7277.1401485536
7276.1113614228
7275.0664388347
7273.9453824695
7272.6429043932
7271.021669037
7268.9861447709
7266.7188191259
7265.1795727276
7265.019126393
7265.1062978173
7260.9102443949
7254.8707949959
7241.7543992466
7219.9841789789
7195.4062496305
7178.3687721567
7169.167770963
7164.9565158854
7163.2063990412
7162.4244241827
7161.9774793631
7161.7085153518
7161.5471546729
7161.4508466995
7161.3937448423
7161.3600042314
7161.3398706981
7161.3273680625
7161.3188815893
7161.3107433722
7161.3047953391
7161.298522509
7161.291564369
7161.2836855607
7161.2747190631
7161.2645356763
7161.2530282778
7161.2401041901
7161.2256819543
7161.2096902104
7161.1920677289
7161.1727638066
7161.151738819
7161.1289646864
7161.1044252342
7161.0781163475
7161.0500459444
7161.0202337675
7160.9887110116
7160.9555198316
7160.9207128166
7160.8843526134
7160.8465120732
7160.8072756718
7160.766743613
7160.72504108
7160.6823365715
7160.6388749694
7160.5950323873
7160.5514000097
7160.5089018541
7160.468945821
7160.4335987007
7160.4057658397
7160.3893483006
121621675.53297
6515520.2078088
1752041.8702076
625928.55581179
290349.29931186
195426.45877435
178555.30379876
186046.02032704
195847.39181427
201156.12085825
201812.55497806
199324.88596437
195069.61824066
189654.98223106
182854.5723629
174392.55154806
163897.0789827
150344.32391304
135471.1468711
119032.14922614
100658.01860073
81621.914769486
64320.209972041
50553.779758597
39739.419206305
30784.8445341
24319.133559114
19765.292245908
16550.349324255
14268.057863452
12631.834401682
11444.68039294
10572.592756676
9921.6087781112
9429.7696228434
9053.4152317775
8763.4993192649
8540.812028456
8371.4497226512
8240.7907321544
8135.4123624978
8047.6128027706
7972.5993777447
7903.2597598481
7836.9840093824
7773.7702852247
7720.1829983254
7677.5002276648
7643.6226029902
7616.4934420598
7594.4656138742
7575.7688223291
7558.4198276589
7539.7006391282
7514.6092336416
7475.8531907777
7422.3650761367
7366.0958955057
7323.7933572326
7303.1048361793
7295.0947156516
7292.2245184226
7290.4283604829
7288.9720161883
7287.691369562
7286.5048759786
7285.3714576245
7284.2701879079
7283.189425909
7282.1223056074
7281.0655800391
7280.0162563969
7278.9708044385