/*--------------------------------*- C++ -*----------------------------------*\
| =========                 |                                                 |
| \\      /  F ield         | OpenFOAM: The Open Source CFD Toolbox           |
|  \\    /   O peration     | Version:  2312                                  |
|   \\  /    A nd           | Website:  www.openfoam.com                      |
|    \\/     M anipulation  |                                                 |
\*---------------------------------------------------------------------------*/
FoamFile
{
    version     2.0;
    format      ascii;
    arch        "LSB;label=32;scalar=64";
    class       volScalarField;
    location    "1e-05";
    object      p;
}
// * * * * * * * * * * * * * * * * * * * * * * * * * * * * * * * * * * * * * //

dimensions      [1 -1 -2 0 0 0 0];

internalField   nonuniform List<scalar> 
109340
(
307297.02440761
305419.46088441
302192.36843097
298186.15046072
293698.83949864
288921.52717698
283912.61578331
278663.66794228
273111.411027
267130.4704191
260387.87607249
252745.50734432
243690.8068302
232530.54250823
218367.90865561
200581.47179103
179776.66301049
158405.66017532
138953.04115288
121985.10274883
107227.47054724
94878.851709408
84371.368997005
75358.3061249
67606.243976775
60931.522259818
55177.739550656
50175.613233479
45804.346683717
41969.115239411
38572.995812361
35531.399214881
32778.666628596
30270.904157897
27978.733597087
25922.438963995
307395.87956364
305234.64349215
301577.31521572
297289.84683486
292654.80996936
287800.86754837
282744.20408389
277436.95246752
271775.60209782
265643.70663714
258605.47715495
250601.79922079
241025.94918548
229146.75918043
214095.05215034
195474.54673664
174499.26232238
153470.9519367
135078.92846363
118283.8072271
103992.41484743
92117.484143088
82010.387657889
73341.75615966
65881.649383984
59442.242427138
53865.281101443
49019.792724336
44785.120107577
41058.939925015
37751.880550215
34783.64419301
32096.390845279
29648.450856137
27422.793238943
25374.707686783
308368.05319093
305855.36368118
301808.95893053
297384.35427296
292762.64503194
287970.47041065
282963.42832831
277674.57299901
271999.88376725
265796.81363478
258669.43098057
250557.29902287
240868.32185987
228915.44539506
213812.75215232
195264.02566748
174443.98888479
153514.01998804
135155.41324065
118353.50359384
104039.95163965
92147.941285005
82043.584239352
73381.131842388
65922.752430652
59477.600516101
53888.658689502
49026.418826898
44781.957624856
41045.815596441
37731.978661095
34763.09417696
32074.891932388
29623.553594788
27377.758126238
25326.950759945
309731.78061176
306660.03294623
302388.62064247
297874.81083647
293181.79905201
288318.75129349
283242.29965906
277897.13800388
272179.17332131
265921.36420381
258744.55133813
250520.71398835
240776.81272584
228657.86404507
213473.06577834
195043.07820035
174430.04832995
153736.92840585
135285.46605651
118459.91497509
104115.85332469
92188.799138383
82076.558745833
73419.267200475
65965.597279747
59518.341967688
53920.010798091
49041.994807197
44776.471699543
41033.406308787
37711.657240387
34730.379402534
32033.046310731
29577.375377555
27334.60996386
25286.697622122
311913.47030289
307860.65165101
302958.06286009
298132.09899203
293313.8185284
288404.15558037
283319.65715885
277976.96463632
272260.42080107
266001.35251459
258851.88515531
250630.71204083
240730.75556978
228419.54600397
213112.7671629
194873.59004932
174474.87313734
153887.85425529
135433.60453715
118604.05972992
104224.77517566
92246.462339056
82118.187456102
73460.043190187
66008.745962729
59562.073509637
53959.474577414
49073.779114815
44800.136012509
41037.416842137
37701.127293546
34707.269279785
31997.879356276
29537.606310111
27299.983947161
25263.518186459
316190.06078023
308542.67801924
303133.36326992
298209.45602455
293389.16179059
288494.01604322
283424.25825789
278091.22607276
272380.51561121
266098.96040745
258953.56434229
250713.34756505
240720.36975397
228072.04374107
212682.60230525
194742.22360098
174665.09566174
154428.59369538
135637.51998751
118820.66084325
104413.75267735
92365.771080896
82200.433950913
73521.971976323
66061.102652057
59608.152510138
53998.452929942
49105.642523627
44823.390201369
41053.603900706
37706.497409639
34702.826031575
31987.246461703
29518.178200309
27277.850141649
25247.778026078
23937.771991768
22004.186061269
20280.750847235
18731.878773676
17289.376943308
15710.039183933
13713.153154595
11218.204997011
8502.1705852394
5990.8041023705
4033.0950536873
2584.8757130506
1908.9870327898
5351.235153219
7726.7670570544
6901.0602012775
6270.3985929047
6126.9690148821
5969.8875072575
5569.2875772916
5063.9867477154
4887.6810071034
5030.2889156279
5342.9601422442
5456.8066328296
5563.7840876858
6032.1141244627
6739.0646091676
7296.1461120337
7326.9769799743
7148.3245602337
6879.9523561421
6666.3111171654
6508.0001575482
6392.956694041
6309.4471073532
6248.8286293516
6205.1196236596
6174.5683061967
6155.2979229521
6145.8278107684
6143.5343687175
6144.4264756316
6145.0926538578
6143.4657499538
6138.8624632295
6132.3408151133
6125.6660388542
6119.6811258897
6114.6244068457
6110.5426041443
6107.4201607387
6104.9703671383
6102.4942872428
6098.8867637244
6092.3923936354
6081.4274985624
6066.0594240577
6049.5719988038
6036.7048419195
6028.7556240367
6025.0865406678
6024.2783219886
6024.3671302645
6024.8868161809
6025.6608887754
6026.5647359306
6027.5346042415
6028.5444609933
6029.5895946858
6030.6757279273
6031.8118634516
6033.0055467849
6034.2595408905
6035.6259748361
6037.2194798413
6039.1288173559
6041.4512504959
6044.2976977891
6047.7683981597
6051.888512149
6056.4900616624
6060.660476254
6062.8468728959
6063.0431966367
6061.805721784
6057.5190066528
6049.3630232247
6038.1058997127
6026.1866435566
6016.648354529
6009.9718272629
6005.8363217447
6003.5214594223
6002.2297504912
6001.4004414006
6000.8577614494
6000.5118649788
6000.2973167616
6000.1679806783
6000.0922878673
6000.0493051358
6000.0256239027
6000.0129721025
6000.0052188117
6000.0025806522
6000.0012529063
6000.0005973071
6000.0002798704
6000.0001289407
6000.0000584212
6000.0000259996
6000.000011337
6000.0000047333
6000.0000019121
6000.0000006803
6000.0000002456
6000.0000000892
6000.0000000334
6000.0000000115
6000.0000000034
6000.0000000009
6000.0000000003
6000.0000000002
6000.0000000001
6000.0000000001
6000.0000000002
6000.0000000002
6000.0000000002
6000.0000000002
6000.0000000002
6000.0000000002
6000.0000000001
6000.0000000001
6000.0000000001
6000.0000000001
6000.0000000001
6000
6000
6000
23443.122002616
21604.943391218
19902.798193544
18260.075761652
16424.486013234
14195.012332312
11652.610397377
9090.7491248503
6778.957672606
4858.9996236036
3336.6458223804
2373.8112908717
2608.89529554
6695.9449603175
7318.6849074747
6700.7967830437
6199.5953775323
6073.375949386
5852.3819070007
5421.8525575094
5006.127218591
4917.53196988
5079.8872818449
5346.9433653653
5432.2487480942
5633.0997291338
6143.9097065222
6839.4598985414
7294.4650459606
7258.8049512991
7043.6644382589
6799.8452433465
6609.286798021
6467.9141168281
6364.5979115869
6289.2001944759
6234.3299705058
6194.8511851526
6167.7083330539
6151.3679640508
6144.2047533254
6143.2111460336
6144.4042317095
6144.6691707936
6142.3011560236
6137.1030895871
6130.4327828085
6123.9329960838
6118.21250527
6113.4355653458
6109.6283795302
6106.7401505933
6104.3707211057
6101.7439095038
6097.5771405657
6090.0465740524
6077.8376188203
6061.6847002001
6045.809955527
6034.1799468516
6027.4164763372
6024.6731029914
6024.2094815112
6024.4309825369
6025.0345568509
6025.8543360754
6026.7833462328
6027.7688739973
6028.7912574374
6029.8491485062
6030.9495806149
6032.1014478222
6033.3114401426
6034.5841887761
6035.999386952
6037.6637620567
6039.6667494132
6042.1095519773
6045.1043006933
6048.7400612348
6053.0086232256
6057.6332678431
6061.4478375376
6063.0711076675
6063.0675401494
6061.8263087515
6057.509354479
6049.3513433586
6038.1298580968
6026.1961810764
6016.6494496793
6009.9720111025
6005.836437227
6003.5215724611
6002.2299559964
6001.4006114588
6000.8578823123
6000.511946712
6000.297370162
6000.1680144365
6000.0923084965
6000.0493173057
6000.0256308241
6000.0129758824
6000.0052203724
6000.0025814429
6000.0012533027
6000.0005975193
6000.0002799784
6000.0001289942
6000.0000584475
6000.0000260122
6000.0000113432
6000.0000047368
6000.000001912
6000.0000006812
6000.0000002465
6000.0000000893
6000.0000000327
6000.0000000118
6000.0000000036
6000.000000001
6000.0000000003
6000.0000000002
6000.0000000001
6000.0000000001
6000.0000000002
6000.0000000002
6000.0000000002
6000.0000000002
6000.0000000002
6000.0000000002
6000.0000000001
6000.0000000001
6000.0000000001
6000.0000000001
6000.0000000001
6000.0000000001
6000
6000
23427.02884966
21641.474083818
19796.039404307
17571.650889556
14892.320958527
12056.342903601
9431.3820526736
7291.3063535715
5570.6799439429
4157.3875514151
3094.0227289339
2699.0427764682
4038.8399344238
6338.3184648953
7110.0654392652
6680.5429302577
6225.4054282986
6061.7481916739
5807.6875837662
5407.5626709893
5052.5506034189
4951.5409218929
5062.7319145756
5283.2981746758
5407.1004982861
5613.3710697411
6049.4527608036
6675.7364328905
7204.2176333768
7189.4303005941
6993.9759898474
6769.9425310658
6591.3574372718
6456.9379118045
6357.6697408011
6284.6865937835
6231.3018920038
6192.7832055152
6166.2993555215
6150.4185687112
6143.5578459187
6142.7338283538
6144.0140302432
6144.3102719778
6141.9633465904
6136.7986050221
6130.1835661835
6123.7476116137
6118.0882611989
6113.3645653525
6109.6010923466
6106.7460541105
6104.392391926
6101.7622682975
6097.5662095449
6089.980827312
6077.7093000266
6061.5189564259
6045.6601189283
6034.065762688
6027.3364342461
6024.6206310833
6024.1654569644
6024.3919214886
6025.0001769124
6025.8250220351
6026.759396539
6027.7501936454
6028.7773971525
6029.8394078326
6030.9431703993
6032.097568032
6033.3092851165
6034.5831951399
6035.999344422
6037.6640800091
6039.6671569381
6042.1099479795
6045.1046421373
6048.7403896545
6053.0091799153
6057.6346349544
6061.4515538007
6063.0872910783
6063.1239488986
6061.7877706329
6057.4576621532
6049.3349898998
6038.1844775285
6026.2147731337
6016.6510567654
6009.9723036905
6005.8365803219
6003.5216594997
6002.2300838196
6001.4007249746
6000.8579661065
6000.5120045138
6000.2974083811
6000.1680388022
6000.0923234875
6000.0493261831
6000.0256358834
6000.0129786539
6000.0052215509
6000.0025820836
6000.0012536532
6000.0005977073
6000.0002800769
6000.0001290442
6000.0000584725
6000.0000260244
6000.0000113498
6000.0000047405
6000.0000019071
6000.000000682
6000.0000002471
6000.0000000892
6000.0000000322
6000.0000000119
6000.0000000038
6000.000000001
6000.0000000003
6000.0000000002
6000.0000000001
6000.0000000001
6000.0000000002
6000.0000000002
6000.0000000002
6000.0000000002
6000.0000000002
6000.0000000001
6000.0000000001
6000.0000000001
6000.0000000001
6000.0000000001
6000.0000000001
6000.0000000001
6000
6000
23410.750115881
21388.195005553
18511.309953157
14991.963171799
11666.390725866
9076.4232380739
7158.8380716985
5676.1288895631
4492.9613238094
3592.8235988041
3176.4568550123
3902.4691639914
5157.950269144
6187.657350623
6898.4394037201
6629.6100432686
6271.172867091
6057.2788693802
5763.7403167395
5392.8689111751
5089.3772200549
4976.4398633798
5051.2492681282
5224.8460876656
5379.7988901934
5582.6852622204
5935.6305788432
6508.3003224708
7061.2120858219
7093.1098152056
6926.8332382763
6729.4554022328
6566.8390770772
6441.7796586736
6348.0243700801
6278.3638167445
6227.0423804349
6189.8651874165
6164.3109917095
6149.0819395831
6142.6499228386
6142.060227695
6143.4601270345
6143.8007242338
6141.4831043579
6136.364165551
6129.8271521634
6123.4819478392
6117.9095213583
6113.2616781425
6109.5607669184
6106.7519241418
6104.4205119057
6101.7860181701
6097.5481019799
6089.8848304182
6077.5246956036
6061.2793712523
6045.4452927324
6033.9027679598
6027.2230803832
6024.5459634834
6024.1021393786
6024.3355489996
6024.9505750855
6025.7826183148
6026.7246169139
6027.7229584326
6028.7571212578
6029.8251289589
6030.9337147695
6032.091751886
6033.3059912095
6034.581514408
6035.999114073
6037.6644415085
6039.6677072246
6042.1105251695
6045.1051652107
6048.7408539038
6053.0098819966
6057.6361521028
6061.454273758
6063.0927958443
6063.1324896199
6061.7756694083
6057.4361109661
6049.3233828476
6038.1985358563
6026.2225585549
6016.6521572778
6009.9726475512
6005.8367930945
6003.5218091107
6002.2302343398
6001.4008499194
6000.8580571623
6000.5120668345
6000.2974492307
6000.1680645997
6000.0923392094
6000.0493354309
6000.0256411151
6000.0129814868
6000.0052227595
6000.0025827691
6000.0012540359
6000.0005979146
6000.0002801865
6000.0001291
6000.0000585006
6000.0000260377
6000.0000113578
6000.0000047356
6000.0000019037
6000.000000683
6000.0000002475
6000.0000000891
6000.000000032
6000.0000000117
6000.000000004
6000.0000000011
6000.0000000003
6000.0000000002
6000.0000000001
6000.0000000001
6000.0000000001
6000.0000000002
6000.0000000002
6000.0000000002
6000.0000000002
6000.0000000001
6000.0000000001
6000.0000000001
6000.0000000001
6000.0000000001
6000.0000000001
6000.0000000001
6000
6000
23084.235244526
18562.402181648
13469.113415434
10151.021754277
8043.8794667196
6518.67429928
5349.7500397407
4428.3885288448
3827.204134282
3591.3252350688
4281.2467604404
5217.1004505418
5852.5934509171
6336.250403967
6702.6453557393
6563.3115403679
6316.0917750967
6057.7362019096
5727.5798143554
5370.9690152215
5092.9756702252
4982.1496178552
5035.6529352121
5190.2614841646
5357.2508180353
5559.0808120447
5848.131791379
6353.2656616692
6886.0274708828
6978.794805199
6847.5066073128
6680.991827858
6536.9979043572
6423.0749271451
6335.9916232244
6270.4115820342
6221.6534552784
6186.1570914201
6161.779346329
6147.3850070731
6141.5023027237
6141.2048312064
6142.7519133715
6143.1461083205
6140.8647371607
6135.8033968224
6129.3663087089
6123.1373043566
6117.6759763583
6113.1252159247
6109.5049807228
6106.7546966236
6104.4518605456
6101.8119098833
6097.5193924716
6089.7555026742
6077.2815522962
6060.9664451635
6045.1670379351
6033.6930293098
6027.0782797791
6024.45064819
6024.0209062002
6024.2627360894
6024.88632526
6025.7274512863
6026.6791317698
6027.6871395719
6028.7302930861
6029.8061110526
6030.921055102
6032.0839306888
6033.3014929314
6034.5791922234
6035.9987322614
6037.6648997477
6039.6684519738
6042.1113183474
6045.1058758024
6048.7414189186
6053.0105803522
6057.6374046183
6061.4551989536
6063.0926701375
6063.1290942369
6061.7598028735
6057.4228470415
6049.3161505923
6038.2061575994
6026.2265633496
6016.6528701076
6009.9730193361
6005.8370679138
6003.5220133807
6002.2304110413
6001.4009904232
6000.858158608
6000.512135974
6000.29749434
6000.1680929201
6000.092356364
6000.0493454537
6000.0256467259
6000.0129844492
6000.0052240219
6000.0025835282
6000.0012544753
6000.0005981575
6000.0002803166
6000.0001291666
6000.0000585329
6000.0000260546
6000.000011366
6000.0000047413
6000.0000019071
6000.0000006839
6000.0000002477
6000.0000000891
6000.0000000318
6000.0000000115
6000.0000000041
6000.0000000013
6000.0000000004
6000.0000000002
6000.0000000001
6000.0000000001
6000.0000000001
6000.0000000001
6000.0000000002
6000.0000000002
6000.0000000001
6000.0000000001
6000.0000000001
6000.0000000001
6000.0000000001
6000.0000000001
6000.0000000001
6000.0000000001
6000.0000000001
6000
14917.966764277
9314.9621315017
7434.6953628616
6362.6859616763
5525.6942464908
4814.8403130969
4328.1301277189
3993.4996664521
4148.5523959868
4819.0076430187
5446.3522074143
5909.3520449534
6304.9163913092
6554.6419991077
6629.1398202929
6529.4448717749
6328.01007641
6044.2473341567
5700.9635347364
5350.5204900898
5081.3261842714
4971.6861243934
5019.7402107621
5163.5553576598
5338.1654806426
5529.6922863435
5784.875236535
6228.798253361
6710.1528851495
6855.7049395639
6762.0828888251
6627.4141862225
6503.3023842069
6401.5750339964
6321.9736187017
6261.0545545208
6215.2675622029
6181.742246612
6158.7578696922
6145.3627150824
6140.1429627318
6140.185620232
6141.9011222122
6142.3547381875
6140.1149803299
6135.1218751809
6128.8051403443
6122.7159013796
6117.3880427578
6112.9540726398
6109.4311897551
6106.751121006
6104.4825918267
6101.8352120229
6097.4758134371
6089.589234585
6076.9776144117
6060.5807730412
6044.8273878713
6033.4391116554
6026.9044040958
6024.3365987862
6023.9232202565
6024.1745969485
6024.8081026343
6025.6598673325
6026.6230245623
6027.6426399543
6028.6967166531
6029.7821209893
6030.9049360232
6032.0738476148
6033.2956059427
6034.5761556513
6035.9981678083
6037.6654401204
6039.6693835373
6042.1123204892
6045.1067666771
6048.742082397
6053.0112107538
6057.6382219621
6061.4547066903
6063.0897469774
6063.1232269262
6061.7487570631
6057.4122544096
6049.311208543
6038.2089619397
6026.2281064731
6016.6532949148
6009.9734203341
6005.8374043136
6003.5222646685
6002.2306134342
6001.4011474925
6000.8582713596
6000.5122126949
6000.2975443459
6000.1681242831
6000.0923753287
6000.0493565099
6000.0256528844
6000.0129874962
6000.0052252821
6000.002584459
6000.001255038
6000.000598471
6000.0002804839
6000.0001292514
6000.0000585742
6000.0000260748
6000.0000113761
6000.0000047449
6000.0000019083
6000.0000006849
6000.000000248
6000.0000000891
6000.0000000317
6000.0000000113
6000.0000000041
6000.0000000014
6000.0000000004
6000.0000000002
6000.0000000001
6000.0000000001
6000.0000000001
6000.0000000001
6000.0000000001
6000.0000000002
6000.0000000001
6000.0000000001
6000.0000000001
6000.0000000001
6000.0000000001
6000.0000000001
6000.0000000001
6000.0000000001
6000.0000000001
6000
5658.7590129228
6147.7746199233
5564.8691542675
5213.358275606
4923.6608129839
4683.3304878325
4701.4468719525
4915.7016686245
5172.8052261556
5562.8159891419
5981.8930891728
6298.8729393317
6547.1184423987
6672.7226573962
6632.9118151623
6534.562568076
6379.5860753076
6127.7696537307
5789.5546276961
5416.9009345436
5110.1060927595
4957.3115098234
4965.4231475897
5093.4544616118
5268.6830116468
5453.0449214812
5664.5327730693
6043.7181559774
6520.1545646521
6731.5901316504
6698.1732394666
6598.6855397062
6492.1053088237
6398.6962895769
6322.7498515847
6263.1576419152
6217.540391173
6183.582729858
6159.7729487705
6145.3156682776
6139.1003764607
6138.6665155958
6140.5041482974
6141.5072195994
6140.0850650114
6135.7415544269
6129.7061290187
6123.6423232193
6118.2591501959
6113.7387670103
6110.1060314418
6107.3275094292
6105.0703216279
6102.6163979281
6098.7880653182
6091.8152139262
6080.2406202769
6064.4243156334
6048.0087800587
6035.4915238592
6027.9028155154
6024.5276192796
6023.8316352449
6023.9636327426
6024.5295659035
6025.3507271174
6026.3055792595
6027.3274697382
6028.3867302634
6029.4756871055
6030.598247629
6031.7626662571
6032.9764841622
6034.2430850218
6035.6217741217
6037.2210748928
6039.1325240799
6041.4554873558
6044.3017346026
6047.7718399793
6051.8922023684
6056.4952720839
6060.6676127529
6062.8652795978
6063.1161079412
6061.7396300163
6057.4034770509
6049.3062897464
6038.2085264699
6026.2282009095
6016.6535452004
6009.9738727671
6005.837818351
6003.5225710426
6002.2308485311
6001.4013262722
6000.8583987253
6000.5122989749
6000.2976003807
6000.1681593101
6000.0923964427
6000.0493687832
6000.0256596988
6000.0129906733
6000.0052274261
6000.002586159
6000.0012558886
6000.0005990141
6000.0002807684
6000.0001293933
6000.0000586421
6000.0000261093
6000.0000113923
6000.0000047528
6000.0000019123
6000.0000006863
6000.0000002486
6000.0000000893
6000.0000000317
6000.0000000112
6000.000000004
6000.0000000015
6000.0000000005
6000.0000000002
6000.0000000001
6000.0000000001
6000.0000000001
6000.0000000001
6000.0000000001
6000.0000000001
6000.0000000001
6000.0000000001
6000.0000000001
6000.0000000001
6000.0000000001
6000.0000000001
6000.0000000001
6000.0000000001
6000.0000000001
6000
5976.5683883533
5990.2258583793
6011.6237337867
6043.9511992218
6048.5283470713
6061.0116418564
6070.2075880456
6102.5886698187
6203.4198141452
6336.5006595998
6455.6823089574
6554.2892418073
6612.1430165533
6628.4525161544
6588.8360273063
6491.9719633028
6314.6183332801
6025.1620615191
5639.6973730499
5247.3838634606
4974.1238620648
4877.1079190894
4932.794877279
5085.6782582123
5273.1047410924
5480.3738892367
5775.6158501891
6133.7018472812
6423.214309842
6527.0518698568
6517.3126306431
6461.3482426611
6392.8632727946
6327.974459133
6272.3407814696
6227.080487948
6191.6651685947
6165.2519911728
6147.4241033641
6137.7900159923
6135.1065812508
6136.3708038603
6138.6393730436
6139.267671113
6137.1618411428
6132.4242628811
6126.5742013729
6121.021880633
6116.2051918569
6112.2195362878
6109.0717187784
6106.6646666163
6104.5236737178
6101.8387553697
6097.2046332815
6088.8248369034
6075.6739680588
6058.9935369294
6043.4650648497
6032.4437234961
6026.2384605758
6023.9055737685
6023.5493005754
6023.8322868506
6024.4988560876
6025.3876937955
6026.3925955049
6027.4561951189
6028.5531686826
6029.6773902034
6030.832919643
6032.0274841706
6033.2674325687
6034.5613578318
6035.9945043817
6037.6670800178
6039.6730809672
6042.1164774801
6045.1104652201
6048.7446716783
6053.0125521624
6057.6377035156
6061.4471020461
6063.0731294252
6063.1001758129
6061.7214348144
6057.3862293931
6049.2944214096
6038.2029440131
6026.2263866037
6016.6537998683
6009.9749775321
6005.8388788544
6003.5233406108
6002.2314171856
6001.4017505949
6000.8586981485
6000.5125006563
6000.2977308001
6000.1682405203
6000.0924452174
6000.0493970477
6000.0256754403
6000.0129989264
6000.0052312539
6000.0025883028
6000.0012570465
6000.0005996226
6000.0002810817
6000.0001295483
6000.0000587171
6000.0000261465
6000.0000114088
6000.0000047607
6000.000001916
6000.0000006878
6000.0000002492
6000.0000000895
6000.0000000317
6000.0000000111
6000.0000000039
6000.0000000015
6000.0000000006
6000.0000000003
6000.0000000002
6000.0000000001
6000.0000000001
6000.0000000001
6000.0000000001
6000.0000000001
6000.0000000001
6000.0000000001
6000.0000000001
6000.0000000001
6000.0000000001
6000.0000000001
6000.0000000001
6000.0000000001
6000.0000000001
6000
6052.1279642258
6056.3905878847
6067.937781634
6077.3440495354
6086.7224477425
6095.6658955976
6106.7987408
6143.7768461816
6206.7428549389
6298.7051950162
6391.4741362471
6476.2421531836
6527.8044001121
6534.1763606844
6494.9566372307
6404.7583976607
6243.0823191163
5985.1647297305
5636.1763698841
5269.6601521937
5008.5680252454
4917.2292358297
4973.5385714779
5129.8722502999
5344.0892019457
5577.5843156021
5843.99281128
6103.045114493
6284.1836405003
6371.7657442239
6386.7796803546
6362.8245064636
6322.0081928521
6277.8436092786
6236.9412789169
6202.0014962355
6173.8225874274
6152.6312534465
6138.7310176022
6132.0068220421
6131.1664901175
6133.4320615868
6136.0333612629
6136.7384517412
6134.7047876012
6130.166827302
6124.6967471779
6119.5733858948
6115.1627439388
6111.5344169276
6108.6879508457
6106.4969849005
6104.4583790926
6101.7302980586
6096.8475323482
6088.0409264907
6074.446182815
6057.5855066125
6042.2988424327
6031.6207315011
6025.7087979432
6023.5709835268
6023.2536688449
6023.5562417042
6024.2427338167
6025.155743846
6026.1902897418
6027.2875432807
6028.4194229609
6029.5768739364
6030.7616131491
6031.9799061111
6033.2370535089
6034.545028792
6035.9892320156
6037.6674443912
6039.6759243352
6042.1200124423
6045.113662378
6048.7468159342
6053.013089004
6057.6353898815
6061.4385724634
6063.058338032
6063.0828259899
6061.7021683455
6057.3669816546
6049.2787477499
6038.1933967762
6026.2230378105
6016.6540003594
6009.9764044987
6005.8402497613
6003.5243128342
6002.2321158024
6001.4022635018
6000.8590563264
6000.5127401718
6000.2978848409
6000.1683360152
6000.0925023566
6000.0494300682
6000.0256938671
6000.0130088651
6000.0052356448
6000.0025906344
6000.0012582621
6000.0006002436
6000.0002813953
6000.0001297018
6000.0000587905
6000.0000261801
6000.0000114247
6000.0000047682
6000.0000019194
6000.0000006891
6000.0000002496
6000.0000000896
6000.0000000318
6000.0000000111
6000.0000000039
6000.0000000015
6000.0000000007
6000.0000000003
6000.0000000002
6000.0000000002
6000.0000000001
6000.0000000001
6000.0000000001
6000.0000000001
6000.0000000001
6000.0000000001
6000.0000000001
6000.0000000001
6000.0000000001
6000.0000000001
6000.0000000001
6000.0000000001
6000.0000000001
6000
6073.2316667531
6074.059208334
6081.4333161335
6089.0532662181
6100.15001638
6113.3932116488
6131.8812244481
6164.8683971698
6215.0403969645
6277.478093052
6340.1617993874
6389.8291013527
6416.7163979729
6413.3582998851
6375.4436020303
6295.519190488
6161.7656088752
5964.5473216663
5711.1555183544
5448.352052121
5248.2764498745
5168.0453531011
5208.9837639828
5334.1873641282
5504.1953926116
5698.0668118061
5889.3692728503
6060.9752492222
6187.6736968752
6260.165514033
6285.7921476344
6280.4428356768
6258.9741122674
6231.0477417338
6202.6224422854
6176.9777423798
6155.6701778734
6139.6872832692
6129.8272574787
6126.1918457676
6127.1074321779
6130.3732154529
6133.2246064506
6133.9482554231
6131.9553893993
6127.6309222918
6122.5766232142
6117.9131493045
6113.935149436
6110.6891291915
6108.1675837022
6106.2063268069
6104.2735952586
6101.4771240522
6096.2886785937
6086.9820742182
6072.8980332729
6055.905002971
6040.9540798848
6030.7040686178
6025.1438923368
6023.2233031118
6022.9423368936
6023.2602375578
6023.9608549831
6024.8929871325
6025.9540798684
6027.0845586538
6028.2535750212
6029.4485271821
6030.6678348191
6031.9152807827
6033.1937278499
6034.521460515
6035.9801340385
6037.6662465168
6039.6784987995
6042.1238768321
6045.1172731163
6048.7491323037
6053.0132962845
6057.6319558614
6061.4278924125
6063.0408025811
6063.0630955631
6061.6800805768
6057.3443026133
6049.259534778
6038.1814541106
6026.2190018693
6016.6543452051
6009.9781950593
6005.8419295462
6003.5254801101
6002.2329392512
6001.4028609465
6000.8594698782
6000.5130148953
6000.2980606389
6000.1684445669
6000.0925670989
6000.0494673899
6000.0257146727
6000.0130201001
6000.00524061
6000.0025932135
6000.0012595811
6000.0006009063
6000.0002817229
6000.0001298593
6000.0000588654
6000.0000262145
6000.0000114412
6000.0000047759
6000.0000019228
6000.0000006903
6000.0000002501
6000.0000000898
6000.0000000319
6000.0000000112
6000.000000004
6000.0000000015
6000.0000000007
6000.0000000004
6000.0000000002
6000.0000000002
6000.0000000001
6000.0000000001
6000.0000000001
6000.0000000001
6000.0000000001
6000.0000000001
6000.0000000001
6000.0000000001
6000.0000000001
6000.0000000001
6000.0000000001
6000.0000000001
6000.0000000001
6000
6080.9745955036
6081.7458497072
6087.3727183701
6094.2938210205
6103.7367383222
6117.5592933172
6137.7112125305
6166.1318955336
6202.7151592779
6243.8254879503
6281.8846095276
6309.6631135263
6320.7630450819
6310.0481210164
6272.8610916681
6203.9319855706
6098.9100293395
5955.1664612446
5783.9517730056
5612.7450146644
5481.7728109169
5421.9743069732
5441.1501546621
5521.7521261742
5638.98966984
5772.5455705195
5906.323656118
6027.5229084579
6120.7974576753
6180.3822073887
6208.8727538024
6214.0814800057
6205.3723437175
6189.3742255909
6170.966746054
6153.2544200945
6138.1685439157
6127.1558011338
6121.2752775415
6120.5409309113
6123.2199790119
6127.3204261875
6130.3123822316
6130.9846694233
6128.9957795597
6124.8958318797
6120.2770328681
6116.0842054165
6112.5459006659
6109.6910462347
6107.5035645902
6105.7723848744
6103.9364579966
6101.0348131524
6095.4749114965
6085.5984867998
6071.0006765134
6053.9613211187
6039.4553257885
6029.7212827048
6024.5696542019
6022.8801773779
6022.6329411036
6022.9608927179
6023.6674272831
6024.6102839784
6025.690964825
6026.8503741936
6028.0554970066
6029.2899993234
6030.5481318942
6031.8298028094
6033.1346655802
6034.4883253178
6035.9654014119
6037.6622986855
6039.680060083
6042.1276635493
6045.1210680765
6048.7514205482
6053.0129521011
6057.6272412509
6061.4149410695
6063.0201732486
6063.0400848604
6061.6543621615
6057.3179050774
6049.2372725862
6038.1678814911
6026.2146544357
6016.6549570432
6009.9803786683
6005.8439160118
6003.5268338312
6002.2338796239
6001.403536305
6000.8599336442
6000.5133210829
6000.2982556422
6000.1685645269
6000.0926384272
6000.0495084056
6000.0257374947
6000.0130324077
6000.0052460083
6000.0025960076
6000.0012609997
6000.0006016133
6000.0002820684
6000.0001300249
6000.000058944
6000.0000262513
6000.000011458
6000.0000047834
6000.000001926
6000.0000006916
6000.0000002506
6000.00000009
6000.000000032
6000.0000000112
6000.000000004
6000.0000000015
6000.0000000006
6000.0000000004
6000.0000000002
6000.0000000002
6000.0000000001
6000.0000000001
6000.0000000001
6000.0000000001
6000.0000000001
6000.0000000001
6000.0000000001
6000.0000000001
6000.0000000001
6000.0000000001
6000.0000000001
6000.0000000001
6000.0000000001
6000
6083.0949210012
6083.9109922722
6087.9733736257
6094.6974768321
6104.1016974015
6117.0819696206
6134.5189994931
6156.6233570096
6182.3266086599
6208.4127347873
6230.886113208
6245.2231220725
6246.6604633072
6231.5058868754
6195.977436744
6137.5464413229
6055.2763381466
5950.8393562245
5833.6988401337
5720.3557505687
5632.5717220207
5590.2578295093
5598.707043922
5648.1736760495
5726.7497076516
5820.2246849069
5916.3868890265
6003.807675978
6074.3015847611
6123.1366711114
6150.9617550735
6161.8724063537
6161.0651313702
6153.5236282528
6142.8365831624
6131.665095396
6122.0483701757
6115.6256985448
6113.5924376227
6115.3483366582
6119.6842683684
6124.365900686
6127.3656508827
6127.9153901762
6125.8997285051
6122.0376987856
6117.8614552715
6114.13381609
6111.0265981652
6108.5584362768
6106.6998505729
6105.1867522132
6103.4241191565
6100.3638853859
6094.3548884298
6083.8418041691
6068.7291890169
6051.7680308052
6037.8275730672
6028.6971300552
6024.0084252356
6022.5538693951
6022.339659041
6022.6734262755
6023.3774008669
6024.3203217563
6025.4105058542
6026.5907768012
6027.8271316836
6029.1000717405
6030.3993286761
6031.7191589707
6033.058231215
6034.4426655809
6035.9427422206
6037.6540299555
6039.6796245332
6042.130771107
6045.1246928332
6048.7534096084
6053.0117641581
6057.6209154013
6061.3994287306