/*--------------------------------*- C++ -*----------------------------------*\
| =========                 |                                                 |
| \\      /  F ield         | OpenFOAM: The Open Source CFD Toolbox           |
|  \\    /   O peration     | Version:  2312                                  |
|   \\  /    A nd           | Website:  www.openfoam.com                      |
|    \\/     M anipulation  |                                                 |
\*---------------------------------------------------------------------------*/
FoamFile
{
    version     2.0;
    format      ascii;
    arch        "LSB;label=32;scalar=64";
    class       volScalarField;
    location    "1e-05";
    object      pTsat;
}
// * * * * * * * * * * * * * * * * * * * * * * * * * * * * * * * * * * * * * //

dimensions      [1 -1 -2 0 0 0 0];

internalField   nonuniform List<scalar> 
109340
(
307296.79516055
305419.61811693
302192.39728795
298186.14589547
293698.81794379
288921.49476241
283912.5632369
278663.60023373
273111.32938551
267130.36076371
260387.74684579
252745.32624363
243690.64383456
232530.43481438
218367.86530309
200581.5072464
179776.78669342
158405.87652468
138953.31683574
121985.47296854
107227.8720325
94879.274320054
84371.81493704
75358.769087493
67606.718811521
60932.003281047
55178.222247669
50176.094673229
45804.823936182
41969.586604602
38573.461998746
35531.861295798
32779.125894802
30271.359501312
27979.18150095
25922.880345084
307395.89616244
305234.69947006
301577.32087505
297289.83777863
292654.78995166
287800.83841975
282744.15310356
277436.87788438
271775.51261121
265643.55914522
258605.3185404
250601.64636159
241025.78168492
229146.64430017
214095.03700619
195474.7420711
174499.40839658
153471.19883674
135079.22353639
118284.18068115
103992.82312554
92117.913887824
82010.838983707
73342.222720107
65882.125531587
59442.723750744
53865.763733827
49020.273651048
44785.596699528
41059.411237316
37752.346641664
34784.106334783
32096.849686441
29648.906056494
27423.240520795
25375.151965365
308368.04043601
305855.3833052
301808.960122
297384.34135151
292762.63730476
287970.45756775
282963.41187155
277674.55078504
271999.85575187
265796.795475
258669.34531722
250556.72041912
240868.13994161
228915.34991343
213812.73759991
195264.18206414
174444.11070883
153514.2647521
135155.70887748
118353.87739178
104040.36046724
92148.371694746
82044.035508752
73381.597988553
65923.227859961
59478.081341602
53889.141057353
49026.899555437
44782.434196139
41046.286649089
37732.445243925
34763.55711339
32075.351327995
29624.008877882
27378.20816403
25327.396175319
309731.72201927
306660.04292582
302388.63171688
297874.81070657
293181.79626166
288318.74545776
283242.29317906
277897.13014433
272179.16189605
265921.36811537
258744.53759425
250520.72093673
240776.78914527
228657.4286726
213473.05737876
195043.21121767
174430.16684813
153737.17238805
135285.75818778
118460.28921028
104116.2627175
92189.230282106
82077.010360602
73419.733023557
65966.072600852
59518.822288144
53920.492456637
49042.474614616
44776.951413323
41033.876836777
37712.123534491
34730.842398286
32033.506406098
29577.832226525
27335.062322572
25287.144592641
311913.41904273
307860.6614164
302958.06307436
298132.09517976
293313.81273289
288404.14813678
283319.64839395
277976.95446596
272260.40776497
266001.32967094
258851.86123359
250630.68248577
240730.69544205
228419.47164972
213112.73786684
194873.50577434
174474.95361508
153888.08577783
135433.89509267
118604.43274863
104225.18516406
92246.89415362
82118.638942778
73460.508512693
66009.220339997
59562.552990517
53959.956590649
49074.259305149
44800.612160599
41037.887857533
37701.594069068
34707.733014922
31998.340536941
29538.06410647
27300.436646596
25263.964062587
316190.01200276
308542.68001449
303133.36273707
298209.45410885
293389.15896529
288494.01250281
283424.25371368
278091.22056637
272380.51238286
266098.95629259
258953.55570936
250713.26030806
240720.25177579
228071.88432762
212682.50609453
194742.37146937
174665.26075673
154428.83930445
135637.78340714
118820.98590947
104414.11075215
92366.137090235
82200.808457318
73522.347833422
66061.478198763
59608.524588893
53998.817750216
49105.99841073
44823.735169283
41053.937636296
37706.82099033
34703.140674057
31987.553410673
29518.472954482
27278.134936535
25248.052801649
23938.226106209
22004.646931237
20281.202055284
18732.320816097
17289.817982746
15710.493554997
13713.62455364
11218.680490799
8502.6347514416
5991.2147856523
4033.4571319678
2585.2638364799
1908.8422087797
5349.147904515
7726.8692743726
6901.3627573991
6270.5465393846
6127.0347755667
5970.0310984153
5569.5698655193
5064.2697749592
4887.7295286488
5030.138113222
5342.7589154356
5456.7376146745
5563.5421514991
6031.4984268271
6738.5048105262
7296.1565065464
7328.0903487848
7148.4169918746
6879.9923252517
6666.3263345174
6508.006009321
6392.9589322016
6309.4478799389
6248.8287734887
6205.1194427242
6174.5678624216
6155.297302722
6145.8272380979
6143.5341389544
6144.4266592468
6145.0931251331
6143.4663364628
6138.862913211
6132.3409861098
6125.6661007777
6119.6811233397
6114.6243632777
6110.5425267455
6107.4200866401
6104.9703756037
6102.4944355376
6098.8871595958
6092.3929988606
6081.4281290769
6066.0597166534
6049.5716854986
6036.7043594854
6028.7551674208
6025.0860697605
6024.2781209086
6024.367018742
6024.8867722044
6025.6608807894
6026.5647436519
6027.5346166576
6028.5444718045
6029.5895938816
6030.6757211115
6031.8118508782
6033.0055301982
6034.2595146902
6035.6259352128
6037.2194290158
6039.1287561913
6041.4511673906
6044.2975982633
6047.7683070446
6051.8884372716
6056.4900273795
6060.660674275
6062.8471642117
6063.0436479979
6061.80624275
6057.5196796887
6049.3635529672
6038.1059745985
6026.186249971
6016.6479234698
6009.9714342783
6005.8360308477
6003.5213041381
6002.2296379888
6001.4003557638
6000.8577021066
6000.5118250978
6000.2972907095
6000.1679641586
6000.0922777182
6000.0492991016
6000.0256204307
6000.0129702335
6000.0052178373
6000.0025801407
6000.0012526266
6000.0005972426
6000.0002798385
6000.000128925
6000.0000584138
6000.0000259962
6000.0000113352
6000.0000047327
6000.0000019117
6000.0000006802
6000.0000002456
6000.0000000892
6000.0000000334
6000.0000000115
6000.0000000034
6000.0000000009
6000.0000000003
6000.0000000002
6000.0000000001
6000.0000000001
6000.0000000002
6000.0000000002
6000.0000000002
6000.0000000002
6000.0000000002
6000.0000000002
6000.0000000001
6000.0000000001
6000.0000000001
6000.0000000001
6000.0000000001
6000
6000
6000
23443.572712881
21605.398103067
19903.246479157
18260.516063709
16424.921561388
14195.4479364
11653.042676788
9091.16735906
6779.3642619566
4859.3771433259
3336.9867995345
2373.9958593879
2607.9047185721
6694.9613458584
7318.7990069438
6701.1073913821
6199.6863628527
6073.4601782765
5852.5702870995
5422.1363735428
5006.3422598753
4917.5583665627
5079.7110551651
5346.781947676
5432.101704112
5632.7490967381
6143.1996898125
6838.78344323
7294.8495491413
7259.2073796322
7043.7348013755
6799.8735075165
6609.2979349037
6467.9185464555
6364.5996633799
6289.200807707
6234.3300835878
6194.8510075079
6167.7079072428
6151.3674089602
6144.20429774
6143.2110351962
6144.4045163414
6144.6696689509
6142.3016974272
6137.1034680112
6130.4329199974
6123.9330361836
6118.2124924253
6113.4355165599
6109.6283008685
6106.7400944796
6104.3707488883
6101.7441046239
6097.5775636991
6090.0471658311
6077.8381576712
6061.6847488592
6045.80957028
6034.1794761286
6027.4160674224
6024.6727800627
6024.2093324238
6024.4309010074
6025.0345295075
6025.8543370416
6026.7833598442
6027.7688901136
6028.7912707248
6029.849152345
6030.949573105
6032.1014337013
6033.3114224627
6034.5841616385
6035.9993477554
6037.6637128223
6039.6666899708
6042.1094810561
6045.1042201303
6048.7399797358
6053.0085606143
6057.6333345225
6061.4481105778
6063.0714215825
6063.0679484524
6061.8267870646
6057.5100095807
6049.3518502978
6038.1299376257
6026.1957929622
6016.6490099641
6009.9716214392
6005.8361529786
6003.521420821
6002.229857338
6001.4005353453
6000.8578295838
6000.5119113087
6000.2973470596
6000.1679998021
6000.0922995136
6000.0493119678
6000.0256277547
6000.0129742444
6000.0052195228
6000.0025810022
6000.0012530506
6000.0005974749
6000.0002799564
6000.0001289833
6000.0000584423
6000.0000260098
6000.0000113419
6000.0000047363
6000.0000019118
6000.0000006811
6000.0000002464
6000.0000000893
6000.0000000327
6000.0000000118
6000.0000000036
6000.000000001
6000.0000000003
6000.0000000002
6000.0000000001
6000.0000000001
6000.0000000002
6000.0000000002
6000.0000000002
6000.0000000002
6000.0000000002
6000.0000000002
6000.0000000001
6000.0000000001
6000.0000000001
6000.0000000001
6000.0000000001
6000.0000000001
6000
6000
23427.47417625
21641.922206692
19796.479413504
17572.072658382
14892.722813996
12056.730033773
9431.7578593993
7291.6596926767
5571.0065834373
4157.6982146603
3094.1908793161
2698.8062401815
4037.9858918432
6337.6608532244
7110.0773677316
6680.7749355844
6225.5289088929
6061.8558832611
5807.8934492723
5407.8608465223
5052.7915371023
4951.5864534791
5062.5636982404
5283.1147570579
5406.8948945617
5613.0037541672
6048.4547101248
6675.0094738019
7204.6211606608
7189.6510647194
6994.0367313494
6769.9676392314
6591.367692705
6456.9421222753
6357.671462105
6284.6872245866
6231.3020273239
6192.7830456421
6166.2989411171
6150.4180179941
6143.5573814388
6142.7337118316
6144.0143201636
6144.3107674267
6141.9638827532
6136.7989816332
6130.1837050708
6123.747655328
6118.0882526114
6113.3645206308
6109.6010180602
6106.746003161
6104.3924249372
6101.7624695998
6097.5666378708
6089.9814245877
6077.7098494211
6061.5190223738
6045.659756495
6034.0653111729
6027.3360363889
6024.6203152557
6024.1653076195
6024.3918381545
6025.000144695
6025.8250162899
6026.7594015429
6027.7501998353
6028.7773993333
6029.8394039196
6030.9431605529
6032.0975530608
6033.3092667255
6034.5831671659
6035.9993041771
6037.6640292598
6039.6670955916
6042.1098746679
6045.104558671
6048.7403046227
6053.0091131026
6057.6346966189
6061.4518196686
6063.0876301418
6063.1243587863
6061.7882745256
6057.4582885557
6049.3354893208
6038.1845612855
6026.2143901881
6016.6506196524
6009.9719161881
6005.8362977369
6003.5215094161
6002.22998776
6001.4006506675
6000.8579146197
6000.5119699375
6000.2973858138
6000.1680245038
6000.0923147091
6000.0493209678
6000.025632885
6000.012977056
6000.0052207215
6000.0025816536
6000.0012534061
6000.0005976658
6000.0002800563
6000.000129034
6000.0000584677
6000.0000260222
6000.0000113486
6000.0000047401
6000.0000019069
6000.0000006819
6000.0000002471
6000.0000000891
6000.0000000322
6000.0000000119
6000.0000000038
6000.000000001
6000.0000000003
6000.0000000002
6000.0000000001
6000.0000000001
6000.0000000002
6000.0000000002
6000.0000000002
6000.0000000002
6000.0000000002
6000.0000000001
6000.0000000001
6000.0000000001
6000.0000000001
6000.0000000001
6000.0000000001
6000.0000000001
6000
6000
23411.192391097
21388.625463714
18511.711363453
14992.32477774
11666.725151431
9076.7370566064
7159.1295863743
5676.4184882891
4493.2214676954
3592.9495249112
3176.2934805434
3901.7679187606
5157.5573130487
6187.2079179036
6898.422658672
6629.7935179559
6271.332119265
6057.4561557834
5763.9858251292
5393.1890725429
5089.639537079
4976.4940042118
5051.0861236954
5224.6451120138
5379.5958884423
5582.3920890805
5935.0278130123
6508.1564756628
7061.6043956342
7093.2089764972
6926.8846775559
6729.4765014342
6566.8480554234
6441.7834543153
6348.0259517501
6278.3643998935
6227.0424970565
6189.865016886
6164.3105733294
6149.0813910405
6142.6494802899
6142.0601129066
6143.460419083
6143.8012177252
6141.4836336733
6136.3645347279
6129.8272870011
6123.4819899908
6117.9095132671
6113.2616351458
6109.5606954036
6106.7518800433
6104.4205507963
6101.7862267941
6097.5485363635
6089.8854302551
6077.5252416007
6061.279425806
6045.4449260861
6033.9023153223
6027.2226813306
6024.5456491519
6024.1019881607
6024.3354660112
6024.9505420079
6025.7826121416
6026.7246219482
6027.722964997
6028.7571240478
6029.8251257249
6030.9337053425
6032.0917373638
6033.3059733361
6034.5814867071
6035.9990741125
6037.6643909237
6039.6676459354
6042.1104518767
6045.1050817368
6048.7407687855
6053.0098150235
6057.636213842
6061.4545379854
6063.0931383606
6063.1329042031
6061.7761574666
6057.436738441
6049.3238823281
6038.1986279839
6026.2221751243
6016.6517213506
6009.9722610344
6005.8365113628
6003.5216595068
6002.2301388626
6001.4007760039
6000.8580059444
6000.5120324375
6000.2974267793
6000.1680503725
6000.0923304737
6000.0493302396
6000.0256381296
6000.0129798963
6000.0052219336
6000.0025823414
6000.0012537906
6000.0005978741
6000.0002801664
6000.00012909
6000.0000584958
6000.0000260355
6000.0000113566
6000.0000047352
6000.0000019035
6000.0000006829
6000.0000002474
6000.0000000891
6000.0000000319
6000.0000000117
6000.000000004
6000.0000000011
6000.0000000003
6000.0000000002
6000.0000000001
6000.0000000001
6000.0000000001
6000.0000000002
6000.0000000002
6000.0000000002
6000.0000000002
6000.0000000001
6000.0000000001
6000.0000000001
6000.0000000001
6000.0000000001
6000.0000000001
6000.0000000001
6000
6000
23084.658460716
18562.773511364
13469.415376482
10151.279791637
8044.1287431108
6518.9191599319
5349.9627763031
4428.5691066185
3827.2737887261
3591.1642494194
4280.6830861769
5216.7317397099
5852.399864645
6336.026857569
6702.5819639048
6563.4132575696
6316.3160859789
6057.9982928961
5727.9151954054
5371.2879062873
5093.1980465531
4982.1657153923
5035.5396925188
5190.103275551
5357.0311766877
5558.8825714279
5847.7603863294
6352.8087084601
6886.7990735656
6978.7514661537
6847.5429676279
6681.0088368695
6537.0055227709
6423.0782634944
6335.993045783
6270.4121092157
6221.6535488252
6186.1569054057
6161.7789213678
6147.3844617507
6141.5018735283
6141.2047265115
6142.7522081822
6143.1465961865
6140.8652583997
6135.8037594538
6129.3664384531
6123.1373445178
6117.6759686971
6113.1251748093
6109.5049130944
6106.7546567598
6104.4519066375
6101.8121284411
6097.5198347106
6089.7561060026
6077.2820949096
6060.9664852548
6045.1666663847
6033.6925754679
6027.0778792603
6024.4503353082
6024.0207531952
6024.2626527264
6024.8862908816
6025.727444299
6026.679136545
6027.6871463484
6028.7302964095
6029.8061085164
6030.9210464136
6032.0839168924
6033.3014756854
6034.5791648343
6035.9986926099
6037.6648493181
6039.6683907621
6042.1112451063
6045.1057923708
6048.7413337814
6053.0105133134
6057.6374665448
6061.4554632629
6063.0930108994
6063.1295101191
6061.7602871346
6057.4234722754
6049.3166466009
6038.2062538012
6026.2261792229
6016.6524339482
6009.9726329789
6005.8367864624
6003.5218639123
6002.2303158114
6001.4009166726
6000.8581075053
6000.5121016583
6000.2974719442
6000.1680787316
6000.0923476529
6000.0493402771
6000.0256437492
6000.0129828625
6000.0052231954
6000.0025830988
6000.0012542287
6000.0005981163
6000.0002802963
6000.0001291565
6000.0000585282
6000.0000260524
6000.0000113648
6000.0000047409
6000.0000019069
6000.0000006838
6000.0000002477
6000.000000089
6000.0000000318
6000.0000000115
6000.0000000041
6000.0000000013
6000.0000000004
6000.0000000002
6000.0000000001
6000.0000000001
6000.0000000001
6000.0000000001
6000.0000000002
6000.0000000001
6000.0000000001
6000.0000000001
6000.0000000001
6000.0000000001
6000.0000000001
6000.0000000001
6000.0000000001
6000.0000000001
6000.0000000001
6000
14918.205257335
9315.1421345534
7434.8560076645
6362.8441388999
5525.8329062675
4814.9611081302
4328.1751076038
3993.4531800908
4148.231681085
4818.7150254879
5445.8155143852
5909.1159734857
6304.8529772782
6554.6219873012
6629.0815810236
6529.7128572839
6328.3045412156
6044.5106787579
5701.229354166
5350.8011780982
5081.5279990385
4971.7493930109
5019.6594888183
5163.4326438301
5338.0461212273
5529.5679558587
5784.6910502353
6228.5241098328
6710.6311355369
6855.7027669886
6762.1089423834
6627.4275079275
6503.3086833408
6401.5779086413
6321.9748754918
6261.0550222367
6215.2676307408
6181.7420428054
6158.7574358031
6145.3621726743
6140.1425635939
6140.1855134589
6141.9014122528
6142.3552197
6140.1154923575
6135.1222260124
6128.8052638011
6122.7159391762
6117.3880355801
6112.9540337825
6109.4311266713
6106.7510907651
6104.482646858
6101.8354421723
6097.4762657563
6089.589842449
6076.9781528385
6060.5807955696
6044.8270105006
6033.438656463
6026.9040019163
6024.3362879276
6023.923065686
6024.1745125906
6024.8080666239
6025.6598592684
6026.6230289288
6027.6426469068
6028.6967205653
6029.7821192627
6030.9049282032
6032.0738346486
6033.2955897562
6034.5761289735
6035.9981285296
6037.665389868
6039.6693224095
6042.1122473014
6045.1066832904
6048.7419972432
6053.0111436546
6057.638284074
6061.4549714021
6063.0900861122
6063.1236419229
6061.7492396063
6057.4128795105
6049.3117053815
6038.2090599507
6026.2277218953
6016.6528585463
6009.9730343006
6005.8371230011
6003.5221153627
6002.2305184316
6001.401073888
6000.8582203481
6000.5121784289
6000.2975219759
6000.168110107
6000.0923666242
6000.0493513371
6000.0256499099
6000.0129859298
6000.0052244739
6000.0025840527
6000.0012548021
6000.0005984356
6000.0002804662
6000.0001292426
6000.00005857
6000.0000260728
6000.000011375
6000.0000047445
6000.0000019081
6000.0000006848
6000.000000248
6000.0000000891
6000.0000000317
6000.0000000113
6000.0000000041
6000.0000000014
6000.0000000004
6000.0000000002
6000.0000000001
6000.0000000001
6000.0000000001
6000.0000000001
6000.0000000001
6000.0000000002
6000.0000000001
6000.0000000001
6000.0000000001
6000.0000000001
6000.0000000001
6000.0000000001
6000.0000000001
6000.0000000001
6000.0000000001
6000
5659.1211717743
6147.8123148264
5564.8714139133
5213.3587480675
4923.6505695924
4683.276709063
4701.3216306694
4915.5776885883
5172.5496205865
5562.8513698305
5981.7966811867
6298.874288857
6547.1767260041
6672.8086762028
6633.1729233491
6534.7369077748
6379.6761333745
6127.8926449638
5789.7724950548
5417.1873873221
5110.343567563
4957.4131966812
4965.3968973242
5093.3738718247
5268.6081925198
5452.9911733874
5664.5027789244
6043.5423983135
6520.4347424997
6731.5871849672
6698.1931751129
6598.6974011185
6492.1114186139
6398.6992287452
6322.7512006663
6263.1581802445
6217.5405090388
6183.5825699053
6159.7725520363
6145.315135236
6139.099908366
6138.6663437989
6140.504366635
6141.5076608121
6140.0855984735
6135.7419373715
6129.706272987
6123.642373936
6118.259151751
6113.7387380645
6110.1059759699
6107.3274692621
6105.0703698681
6102.6165897185
6098.7884754658
6091.8158041666
6080.2412029703
6064.4245054474
6048.0084556313
6035.4910647566
6027.9024030051
6024.5272224442
6023.831462802
6023.9635347808
6024.5295176921
6025.3507122342
6026.3055808497
6027.3274766531
6028.3867357844
6029.4756877502
6030.5982422767
6031.7626554168
6032.9764695151
6034.2430642606
6035.6217383698
6037.2210275564
6039.1324659015
6041.4554172777
6044.301653305
6047.7717540457
6051.8921283088
6056.495295214
6060.6678215744
6062.8655551941
6063.1165216248
6061.7401124191
6057.404102048
6049.3067866557
6038.2086252767
6026.2278161813
6016.6531088399
6009.9734867153
6005.8375370861
6003.5224217139
6002.2307535604
6001.4012526897
6000.858347731
6000.5122647247
6000.2975780235
6000.1681451429
6000.0923877437
6000.0493636135
6000.025656727
6000.012989165
6000.0052266269
6000.0025858021
6000.0012558483
6000.0005989936
6000.0002807582
6000.0001293881
6000.0000586396
6000.0000261083
6000.0000113916
6000.0000047526
6000.0000019122
6000.0000006863
6000.0000002486
6000.0000000893
6000.0000000317
6000.0000000112
6000.000000004
6000.0000000015
6000.0000000005
6000.0000000002
6000.0000000001
6000.0000000001
6000.0000000001
6000.0000000001
6000.0000000001
6000.0000000001
6000.0000000001
6000.0000000001
6000.0000000001
6000.0000000001
6000.0000000001
6000.0000000001
6000.0000000001
6000.0000000001
6000.0000000001
6000
5976.570045531
5990.3461085428
6011.7286486329
6044.1372099672
6048.6510982114
6061.1830464602
6070.3766217907
6102.7355319713
6203.5660703091
6336.5523872994
6455.7546642631
6554.5440141502
6612.3641656796
6628.4568856905
6588.8381715831
6491.989834301
6314.6621535349
6025.2512936767
5639.8386348092
5247.5336432107
4974.2212205074
4877.1302518727
4932.7799356804
5085.658284321
5273.1005310776
5480.3678348855
5775.4892410568
6133.6919876216
6423.1887011203
6527.0614877425
6517.3212035301
6461.3540015577
6392.8665265321
6327.9761482609
6272.3415790361
6227.080779932
6191.6651559404
6165.2517249256
6147.4236345537
6137.7894785865
6135.1062409019
6136.3707406735
6138.6396657259
6139.2681282113
6137.1623186248
6132.424565334
6126.5743012765
6121.0219092511
6116.205185807
6112.2195050222
6109.0716715184
6106.6646633475
6104.5237626831
6101.8390297242
6097.2051228374
6088.8254606426
6075.6744872545
6058.9934734575
6043.464666475
6032.4432651552
6026.2380536991
6023.9052761863
6023.5491418314
6023.8321965049
6024.4988132311
6025.387680703
6026.3925973329
6027.4562019287
6028.5531743069
6029.6773913226
6030.8329151268
6032.0274745129
6033.2674205011
6034.5613342674
6035.9944666298
6037.6670305705
6039.6730202051
6042.1164044865
6045.110381971
6048.744586555
6053.0124850002
6057.6377663283
6061.4473679364
6063.0734662472
6063.1005877408
6061.7219170643
6057.3868540195
6049.29491835
6038.2030429157
6026.2260019516
6016.6533636828
6009.9745916812
6005.838597698
6003.5231913104
6002.2313223072
6001.4016770689
6000.8586471889
6000.5124664269
6000.2977084549
6000.1682263599
6000.092436522
6000.0493918799
6000.0256724695
6000.0129974219
6000.005230451
6000.0025879491
6000.001257008
6000.0005996029
6000.0002810718
6000.0001295433
6000.0000587148
6000.0000261454
6000.0000114081
6000.0000047605
6000.0000019159
6000.0000006877
6000.0000002491
6000.0000000895
6000.0000000317
6000.0000000111
6000.0000000039
6000.0000000015
6000.0000000006
6000.0000000003
6000.0000000002
6000.0000000001
6000.0000000001
6000.0000000001
6000.0000000001
6000.0000000001
6000.0000000001
6000.0000000001
6000.0000000001
6000.0000000001
6000.0000000001
6000.0000000001
6000.0000000001
6000.0000000001
6000.0000000001
6000
6052.1282476508
6056.3921312127
6067.9381849779
6077.3411621575
6086.7281748292
6095.687364077
6106.8236725474
6143.8111761609
6206.7651115055
6298.7115715514
6391.4648655155
6476.238586724
6527.8041153166
6534.17743447
6494.9594325752
6404.7642900781
6243.0947980038
5985.1865227396
5636.2067886031
5269.6912122019
5008.5958825162
4917.2520879085
4973.5619256172
5129.8731123897
5344.079129782
5577.5556400214
5843.9543881381
6103.0237066534
6284.1838835665
6371.7700653764
6386.7840684928
6362.8277958271
6322.0102381798
6277.8447559347
6236.9418359139
6202.0016863597
6173.822517738
6152.6309408996
6138.7305280309
6132.0062609828
6131.1661950307
6133.4320697355
6136.0336648332
6136.7388915125
6134.7052348111
6130.1670751616
6124.6968275511
6119.5734071634
6115.1627377841
6111.5343900179
6108.6879154044
6106.4970006277
6104.4584970222
6101.7306083755
6096.848051253
6088.0415608149
6074.4466805165
6057.5854128928
6042.2984289872
6031.6202732817
6025.7083913548
6023.5707220354
6023.2535074677
6023.5561459282
6024.2426849771
6025.1557257351
6026.1902883348
6027.2875488709
6028.4194291528
6029.5768768995
6030.7616111673
6031.9798992364
6033.2370427075
6034.5450073907
6035.9891956647
6037.6673956741
6039.6758639859
6042.1199396494
6045.1135792561
6048.7467309092
6053.013021953
6057.6354529576
6061.438838684
6063.0586744506
6063.0832369042
6061.7026505279
6057.367605824
6049.2792442176
6038.1934954656
6026.2226533744
6016.6535645101
6009.9760188642
6005.8399686902
6003.5241635245
6002.2320209673
6001.4021899983
6000.859005378
6000.5127059477
6000.2978624978
6000.1683218552
6000.092493661
6000.0494248999
6000.0256908958
6000.0130073605
6000.0052348444
6000.0025902805
6000.0012582234
6000.0006002238
6000.0002813855
6000.0001296968
6000.0000587881
6000.0000261791
6000.000011424
6000.0000047681
6000.0000019193
6000.000000689
6000.0000002496
6000.0000000896
6000.0000000318
6000.0000000111
6000.0000000039
6000.0000000015
6000.0000000007
6000.0000000003
6000.0000000002
6000.0000000002
6000.0000000001
6000.0000000001
6000.0000000001
6000.0000000001
6000.0000000001
6000.0000000001
6000.0000000001
6000.0000000001
6000.0000000001
6000.0000000001
6000.0000000001
6000.0000000001
6000.0000000001
6000
6073.2315472708
6074.0597745021
6081.4339810869
6089.0535052664
6100.1500572818
6113.393754712
6131.8817815651
6164.8695549299
6215.0426389812
6277.4785590363
6340.1641632538
6389.8304769334
6416.7172759589
6413.3593517061
6375.4446287807
6295.5213463245
6161.7694562744
5964.5514819376
5711.1579636924
5448.3497643653
5248.2668788334
5168.0349333272
5208.9620968575
5334.1646801293
5504.1822514351
5698.0547862374
5889.3618960772
6060.9728394318
6187.6745694462
6260.1679521204
6285.7947618577
6280.4447841115
6258.9754211102
6231.0485176201
6202.6228203473
6176.97784624
6155.6700484656
6139.6869239473
6129.8267477803
6126.191425278
6127.1071497639
6130.3732818339
6133.2249243131
6133.9486788352
6131.9558003149
6127.6311233269
6122.5766851628
6117.9131626409
6113.9351419566
6110.6891048922
6108.1675595747
6106.2063643726
6104.2737470506
6101.4774729334
6096.2892285761
6086.9827166587
6072.8985025984
6055.9048568929
6040.9536521994
6030.7036132775
6025.1434838768
6023.223084687
6022.9421751742
6023.26013616
6023.9607995865
6024.8929627558
6025.9540736997
6027.0845615932
6028.2535807339
6029.4485314512
6030.6678353083
6031.915277054
6033.1937211109
6034.5214412287
6035.9800994156
6037.6661988625
6039.6784390356
6042.1238043457
6045.1171901751
6048.7490474157
6053.0132294288
6057.6320192908
6061.428158947
6063.0411386682
6063.0635058271
6061.6805626548
6057.3449261621
6049.2600304914
6038.1815528518
6026.2186179259
6016.6539097818
6009.9778096706
6005.8416485573
6003.5253307735
6002.2328444412
6001.4027874517
6000.8594189312
6000.5129806696
6000.2980382932
6000.1684304044
6000.0925584012
6000.04946222
6000.0257117003
6000.0130185949
6000.0052398094
6000.0025928595
6000.0012595425
6000.0006008866
6000.000281713
6000.0001298543
6000.000058863
6000.0000262134
6000.0000114405
6000.0000047757
6000.0000019226
6000.0000006903
6000.0000002501
6000.0000000898
6000.0000000319
6000.0000000112
6000.000000004
6000.0000000015
6000.0000000007
6000.0000000004
6000.0000000002
6000.0000000002
6000.0000000001
6000.0000000001
6000.0000000001
6000.0000000001
6000.0000000001
6000.0000000001
6000.0000000001
6000.0000000001
6000.0000000001
6000.0000000001
6000.0000000001
6000.0000000001
6000.0000000001
6000
6080.9746161903
6081.7461533673
6087.3731841668
6094.2939936653
6103.736526409
6117.5588600163
6137.7107117905
6166.1315322051
6202.7151493964
6243.8259804595
6281.8851230349
6309.6635545001
6320.7635451823
6310.0483857041
6272.8617913262
6203.9329426219
6098.9100409387
5955.1671899616
5783.9522039917
5612.7453154878
5481.7735693219
5421.9761807825
5441.1485259165
5521.7472001607
5638.9844664657
5772.5410970791
5906.3186342474
6027.5227873242
6120.7983658856
6180.3837354063
6208.8743024915
6214.0826422788
6205.3731997618
6189.3747450215
6170.9669938459
6153.2544464602
6138.1683521164
6127.1554013895
6121.2747120881
6120.5405442242
6123.2197688816
6127.3205613389
6130.3127198804
6130.9850782073
6128.9961485956
6124.8959856499
6120.2770769937
6116.0842105197
6112.5458902006
6109.691022425
6107.503552015
6105.7724437231
6103.936643386
6101.0352022727
6095.4754924656
6085.5991324872
6071.0011097749
6053.9611320241
6039.4548860276
6029.7208336775
6024.5692440276
6022.8799682069
6022.6327832938
6022.9607868722
6023.6673650747
6024.6102524912
6025.6909524134
6026.8503727372
6028.055500664
6029.2900038209
6030.5481344016
6031.8298028587
6033.1346630326
6034.4883083988
6035.9653688502
6037.6622523635
6039.6800010938
6042.1275915114
6045.1209854013
6048.75133585
6053.0128854382
6057.6273050895
6061.415207961
6063.020508934
6063.0404943673
6061.6548439956
6057.3185278115
6049.2377674166
6038.1679796311
6026.2142711333
6016.6545221231
6009.9799935521
6005.8436351061
6003.5266844543
6002.2337848301
6001.4034628113
6000.8598826927
6000.5132868515
6000.2982332912
6000.1685503601
6000.0926297263
6000.0495032335
6000.0257345208
6000.0130309017
6000.0052452072
6000.0025956534
6000.0012609611
6000.0006015935
6000.0002820585
6000.0001300198
6000.0000589416
6000.0000262503
6000.0000114573
6000.0000047832
6000.0000019259
6000.0000006915
6000.0000002506
6000.00000009
6000.000000032
6000.0000000112
6000.000000004
6000.0000000015
6000.0000000006
6000.0000000004
6000.0000000002
6000.0000000002
6000.0000000001
6000.0000000001
6000.0000000001
6000.0000000001
6000.0000000001
6000.0000000001
6000.0000000001
6000.0000000001
6000.0000000001
6000.0000000001
6000.0000000001
6000.0000000001
6000.0000000001
6000
6083.0949960522
6083.9111157218
6087.973444934
6094.6975040953
6104.1017475396
6117.082005197
6134.5190968784
6156.6233760184
6182.3272965358
6208.4132355695
6230.8866330395
6245.2236253194
6246.6609052916
6231.5064719172
6195.978061976
6137.5470086513
6055.2779216145
5950.8395819025
5833.6985149984
5720.3550426732
5632.5702737539
5590.2563614156
5598.704709336
5648.1710323309
5726.7472426402
5820.22276696
5916.3859541569
6003.8067667764
6074.3023150555
6123.1376653624
6150.962725438
6161.8731919091
6161.0656824359
6153.523967018
6142.8367276253
6131.6650473157
6122.0481177823
6115.6252287778
6113.5919655267
6115.3479627993
6119.6841691209
6124.3660924269
6127.3660051847
6127.915786106
6125.9000514005
6122.0378082513
6117.8614827263
6114.133812894
6111.0265826987
6108.5584109233
6106.6998490435
6105.1868325472
6103.4243405968
6100.3643153012
6094.3554984412
6083.8424455253
6068.7295757544
6051.7677929843
6037.827124579
6028.696690857
6024.0080150254
6022.553663909
6022.3395054692
6022.6733184681
6023.3773333693
6024.3202828578
6025.4104862281
6026.5907692314
6027.8271313016
6029.1000747603
6030.3993326536
6031.7191645546
6033.0582301209
6034.4426511588
6035.9427120325
6037.6539852955
6039.6795664889
6042.1306997119
6045.1246105411
6048.7533251747
6053.0116977602
6057.6209796829
6061.3996960072
6062.9965437523
6063.0138694033