/*--------------------------------*- C++ -*----------------------------------*\
| =========                 |                                                 |
| \\      /  F ield         | OpenFOAM: The Open Source CFD Toolbox           |
|  \\    /   O peration     | Version:  2312                                  |
|   \\  /    A nd           | Website:  www.openfoam.com                      |
|    \\/     M anipulation  |                                                 |
\*---------------------------------------------------------------------------*/
FoamFile
{
    version     2.0;
    format      ascii;
    arch        "LSB;label=32;scalar=64";
    class       volScalarField;
    location    "1e-05";
    object      rho;
}
// * * * * * * * * * * * * * * * * * * * * * * * * * * * * * * * * * * * * * //

dimensions      [1 -3 0 0 0 0 0];

internalField   nonuniform List<scalar> 
109340
(
662.16921559868
662.05038866618
661.8690921751
661.61130095774
661.25600085848
660.75867496824
660.04631262224
658.995195792
657.39037040935
654.85644152044
650.71107187057
643.69791712853
631.29780220367
608.45861808289
566.05205668483
494.17813968355
397.42024619862
301.06057118487
224.8490012907
170.52285933645
132.0934783011
104.96286128285
85.188722861052
70.350884067295
58.961416700682
50.059898855356
42.996119870913
37.294387951436
32.63000363225
28.771484351619
25.536453739435
22.785361919809
20.41476834565
18.351248157874
16.54256783234
14.974153088022
662.14378956174
662.01051994753
661.81219244145
661.53740570441
661.15714745884
660.62122095919
659.84855142155
658.6965711771
656.91876612785
654.0783465685
649.37661789736
641.31473425197
626.885917851
600.09856218011
550.87950648115
471.25618177096
372.17636221057
279.9295563002
210.14280865314
159.88563645547
124.54646711051
99.517738038906
81.152220903623
67.292512279341
56.599841233008
48.197220198531
41.489250721278
36.061781379757
31.611305155186
27.915799827697
24.807221019064
22.155746871728
19.867551732382
17.87379957837
16.131766808919
14.59181843197
662.14670959915
662.00916368243
661.81452085854
661.54585433598
661.17479920238
660.6494102984
659.89182725619
658.76251799377
657.01655065949
654.20914717411
649.51005413488
641.40980296576
626.9255138258
600.01869725281
550.5710766129
470.80508278252
371.88071535771
279.90819132073
210.27205328767
160.03051692612
124.65627979881
99.5925633772
81.213924817326
67.349662145691
56.649614960669
48.236554640768
41.514960009651
36.072209113136
31.613390458393
27.910353642262
24.797087153698
22.14489490225
19.856031689016
17.860428707798
16.107397889651
14.566460271516
662.15138424577
662.01434489721
661.82587089457
661.5642475151
661.2008734991
660.68966352958
659.95311761435
658.85962273039
657.17449736764
654.46376028101
649.87975794749
641.80407326559
627.07666815147
599.74720565518
549.97348996071
470.1239829883
371.58356829581
280.14750795619
210.53692175167
160.3020328126
124.8693825256
99.732307309628
81.313829841814
67.428245140967
56.714727481125
48.287262172915
41.550840604762
36.092074654523
31.615670970493
27.905940969234
24.786231012855
22.125630149691
19.830828023835
17.832700778806
16.081546661681
14.542264294566
662.16464604504
662.03011381013
661.84185124432
661.58538353191
661.23233272267
660.73797378392
660.02949381042
658.98343946729
657.38056242536
654.81183114723
650.46308920049
642.70609910183
628.15796900761
600.11201462332
548.31688892942
467.12816210354
369.36704823432
279.30650943972
210.38296482896
160.38967797698
124.9837279393
99.793635741943
81.34159200658
67.434721813518
56.704210831923
48.258390510262
41.498197127667
36.011792434797
31.505568233575
27.757517353643
24.602584044021
21.906118734633
19.577580271193
17.552057887043
15.780573699766
14.227033404333
662.19072816939
662.0482654752
661.85560251629
661.58747399841
661.2093960437
660.66606676227
659.86508923661
658.64395692128
656.70084651764
653.43441455771
647.57948717267
636.37876437588
613.71966188559
568.15763701966
492.87879481927
400.92174622994
311.21866682002
236.18242364353
178.75674884509
136.71183532017
106.37421000963
84.31271187243
67.997248153734
55.641675170527
46.102410922202
38.605464518692
32.626442399902
27.797504532497
23.845495434078
20.570598423081
17.821542337747
15.485534981648
13.483718127429
11.759071774629
10.280778152086
9.0194600361208
13.533194498956
12.190227353073
11.01508453007
9.9769321633095
9.0299840855604
8.0403137145115
6.8657743899181
5.4809340243806
4.0418424423921
2.7613210624159
1.7948543392891
1.1077320239593
0.77441019107249
1.940356567338
2.4934048887345
1.9412217850193
1.5481421885529
1.3342178998717
1.1533991851118
0.96398272841757
0.79382010391859
0.69877886722437
0.65814646635789
0.64017253702221
0.59913112975648
0.55860205849646
0.54865646670775
0.54000035219303
0.43439508235902
0.18830531874181
0.16709272404713
0.16189031975533
0.15734930997281
0.15396501316581
0.15149822877752
0.1497041801401
0.14839984578768
0.14745780668031
0.14679721009315
0.14637746900253
0.1461680614693
0.14611493053053
0.14613343097566
0.14614976160178
0.14611875475284
0.14602377060561
0.14588606795641
0.14574349479841
0.14561511129554
0.14550635095719
0.14541831982137
0.14535081607165
0.14529813365116
0.14524564968238
0.14517042903808
0.14503545526166
0.14480610240558
0.14448136538317
0.14412734880727
0.14384764667027
0.14367295896768
0.14359075097867
0.14357209309778
0.14357363478825
0.14358453364495
0.14360099725848
0.14362029901053
0.14364103960697
0.14366264096056
0.14368499120533
0.14370820875354
0.14373248638187
0.14375798765213
0.14378476863868
0.14381381967375
0.14384763515775
0.14388811916147
0.14393733462749
0.14399764390182
0.14407121930572
0.14415872239292
0.14425691822625
0.14434728922922
0.14439628397569
0.14440124082911
0.14437675931366
0.14428897996906
0.14411832275107
0.14387993816757
0.1436235176503
0.14341663665868
0.14327094967603
0.14318020443207
0.14312921886667
0.14310094201999
0.14308293274405
0.14307114021856
0.14306361622293
0.1430589444089
0.1430561249528
0.14305447296303
0.14305353374364
0.14305301565602
0.14305273852431
0.14305256849514
0.14305251056145
0.14305248135385
0.1430524669168
0.14305245991735
0.14305245658587
0.14305245502776
0.14305245431337
0.14305245398909
0.14305245384167
0.14305245377857
0.14305245375172
0.14305245374081
0.14305245373687
0.14305245373547
0.14305245373492
0.14305245373472
0.14305245373465
0.14305245373464
0.14305245373463
0.14305245373463
0.14305245373463
0.14305245373463
0.14305245373464
0.14305245373464
0.14305245373463
0.14305245373463
0.14305245373463
0.14305245373463
0.14305245373463
0.14305245373463
0.14305245373463
0.14305245373463
0.14305245373463
0.14305245373463
0.14305245373463
13.199915464939
11.924843572346
10.773839578455
9.6973659959363
8.5574115655756
7.2493383285561
5.8202229196376
4.4269969929447
3.2079085493885
2.2259967368461
1.4738160288778
1.004352946402
1.0290640742679
2.4091259236326
2.3294845074524
1.865354925644
1.5096287373562
1.2962985939122
1.0991501283692
0.90290251293482
0.74489206007938
0.65548504058113
0.60508473735457
0.56822864990048
0.5166695355003
0.48122069904057
0.47307323501477
0.47397124796916
0.35362732360757
0.16942428569076
0.16520263096581
0.16018806457414
0.15612953217427
0.15310479082903
0.15088851408273
0.14926822075301
0.14808722269636
0.14723589872691
0.14664818666459
0.1462912173966
0.14613171977703
0.14610743040903
0.14613321613296
0.1461414408126
0.1460946987944
0.14598666486956
0.14584525561663
0.145706245871
0.14558344452431
0.14548064157434
0.14539847514619
0.14533605352067
0.14528527715256
0.14522986969116
0.14514319909707
0.14498654071209
0.14473056221
0.14438810206797
0.14404587332101
0.14379237419441
0.1436432565698
0.14358122537874
0.14357049493599
0.14357490961736
0.14358764408031
0.14360510757477
0.14362495924073
0.14364603991339
0.14366791065275
0.14369053349401
0.14371405608089
0.14373866936534
0.14376451916797
0.1437916780477
0.1438217449972
0.14385705577672
0.14389951855327
0.1439512802838
0.14401473525548
0.14409183361905
0.14418255713455
0.14428150704535
0.1443646938755
0.14440136196887
0.14440180307698
0.14437725576806
0.14428878227413
0.14411805649131
0.1438804151143
0.14362374223402
0.14341666235901
0.14327095349865
0.14318020677232
0.14312922114258
0.14310094661177
0.14308293659424
0.14307114296126
0.14306361808056
0.14305894562452
0.14305612572259
0.14305447343427
0.14305353402214
0.1430530158147
0.14305273861145
0.14305256853114
0.1430525105796
0.14305248136244
0.1430524669217
0.14305245991985
0.14305245658712
0.14305245502837
0.14305245431367
0.14305245398924
0.14305245384175
0.14305245377855
0.14305245375174
0.14305245374083
0.14305245373688
0.14305245373545
0.14305245373493
0.14305245373472
0.14305245373466
0.14305245373464
0.14305245373463
0.14305245373463
0.14305245373463
0.14305245373463
0.14305245373463
0.14305245373464
0.14305245373463
0.14305245373463
0.14305245373463
0.14305245373463
0.14305245373463
0.14305245373463
0.14305245373463
0.14305245373463
0.14305245373463
0.14305245373463
0.14305245373463
13.192429127883
11.946228032193
10.719272079957
9.3396270475721
7.771364915731
6.1701295318814
4.7218451876259
3.5587235631184
2.6413170005496
1.9078336549785
1.3656801631064
1.134042142414
1.5866173830254
2.2744775856067
2.2596746373943
1.8489312294566
1.4861110878525
1.234469598549
1.0009304367062
0.79133822751314
0.63208332445455
0.52907462176818
0.46094615830527
0.41370907897744
0.37196987376964
0.34653091331181
0.34628393646069
0.38567241211019
0.32213527371699
0.16680419966352
0.1641955306409
0.15954778666098
0.15574430370902
0.15286854413632
0.15073927476631
0.1491709588439
0.14802195801247
0.14719129282955
0.14661775889734
0.14627070933637
0.14611775803934
0.14609716937698
0.14612487818254
0.14613377326207
0.14608747854676
0.14598012339841
0.14583987018327
0.14570221782653
0.14558072603667
0.14547907015037
0.14539784868399
0.14533615256464
0.14528573358044
0.1452302815547
0.14514301642806
0.14498521063728
0.14472788975374
0.14438458054572
0.14404265077487
0.14378990370297
0.14364151754666
0.14358009044358
0.14356955166424
0.14357407130637
0.14358690492182
0.1436044758285
0.14362444186319
0.14364563536591
0.14366760966511
0.14369032132454
0.14371391593489
0.14373858413665
0.14376447153001
0.1437916547215
0.1438217427379
0.14385706156991
0.14389952646669
0.14395128810276
0.14401474204421
0.14409184044683
0.14418256960096
0.14428153469679
0.1443647715738
0.14440172073006
0.14440311129875
0.14437641352238
0.14428762849207
0.14411768157429
0.14388151984044
0.14362419084778
0.14341670043762
0.14327095977554
0.14318020964624
0.14312922275876
0.14310094920422
0.14308293896102
0.14307114472329
0.1430636193018
0.14305894643503
0.14305612624106
0.14305447375425
0.14305353421214
0.14305301592326
0.1430527386712
0.14305256855645
0.1430525105933
0.1430524813699
0.14305246692573
0.14305245992198
0.1430524565882
0.14305245502892
0.14305245431394
0.14305245398938
0.14305245384181
0.14305245377861
0.14305245375176
0.14305245374084
0.14305245373687
0.14305245373544
0.14305245373493
0.14305245373473
0.14305245373466
0.14305245373464
0.14305245373463
0.14305245373463
0.14305245373463
0.14305245373463
0.14305245373463
0.14305245373464
0.14305245373463
0.14305245373463
0.14305245373463
0.14305245373463
0.14305245373463
0.14305245373463
0.14305245373463
0.14305245373463
0.14305245373463
0.14305245373463
0.14305245373463
13.181235711568
11.806319056192
10.031645728943
7.9826449214145
6.101815221759
4.6550436858895
3.5901382135801
2.7747663522369
2.1333108329906
1.6483394551565
1.3973085758916
1.6245892534519
2.0182453214515
2.186514070162
2.0971363642576
1.6644388030613
1.2553423733693
0.92404623087197
0.65736394947603
0.47277406396712
0.35864084317185
0.29204251463777
0.25366851498165
0.23252447323124
0.22053287961346
0.21691858548671
0.23272110087371
0.30207222490273
0.27632360084649
0.16417757858833
0.16281174673518
0.15868036780028
0.15521741719994
0.15254227382001
0.15053150492118
0.14903471145773
0.14793015384561
0.14712835354228
0.1465748157246
0.14624182535624
0.14609815797753
0.14608268394541
0.14611303667716
0.14612288707979
0.14607721306352
0.14597079121987
0.14583216675796
0.14569644450993
0.14557681483704
0.14547679196641
0.14539692407678
0.14533623736104
0.14528632260387
0.14523081392463
0.14514270047371
0.14498326498895
0.14472404448323
0.14437948765801
0.14403802951015
0.14378637608227
0.14363905443367
0.14357847502454
0.14356819438776
0.14357286083332
0.14358583836086
0.14360356207116
0.14362369072931
0.14364504582138
0.14366716970219
0.14369001066562
0.14371370956221
0.14373845665049
0.14376439902225
0.14379161610122
0.14382173631942
0.14385706859001
0.14389953793737
0.14395130043072
0.14401475344882
0.14409185092243
0.14418258556166
0.14428156687945
0.14436483186153
0.14440184272972
0.14440330609098
0.14437616963115
0.14428715979189
0.14411741412878
0.14388179220229
0.14362437226546
0.14341672598312
0.14327096718417
0.14318021414624
0.14312922585858
0.14310095235982
0.14308294161094
0.14307114666437
0.14306362063448
0.14305894731076
0.14305612679537
0.14305447409281
0.14305353441171
0.1430530160364
0.14305273873272
0.14305256858267
0.14305251060808
0.14305248137814
0.14305246693021
0.14305245992435
0.14305245658942
0.14305245502953
0.14305245431424
0.14305245398954
0.14305245384174
0.14305245377855
0.14305245375178
0.14305245374085
0.14305245373687
0.14305245373544
0.14305245373493
0.14305245373473
0.14305245373466
0.14305245373464
0.14305245373463
0.14305245373463
0.14305245373463
0.14305245373463
0.14305245373463
0.14305245373463
0.14305245373463
0.14305245373463
0.14305245373463
0.14305245373463
0.14305245373463
0.14305245373463
0.14305245373463
0.14305245373463
0.14305245373463
0.14305245373463
0.14305245373463
12.684528175915
10.018885010491
7.192754028403
5.3642189945996
4.1926186270949
3.3386324671212
2.6814603991682
2.163732482659
1.8141455305052
1.6406326720513
1.8687655457445
2.1639477409374
2.237535638248
2.0480950845572
1.5867289911767
1.0455574636347
0.65313455776891
0.40125067812858
0.26041376320531
0.19501391436303
0.16344518461821
0.14803537246137
0.14216887352734
0.14186038109064
0.14422346278133
0.15055974526774
0.16927114133043
0.25021666878978
0.22420131334968
0.16220270004814
0.16114350613108
0.15764167386232
0.15457610028984
0.15213968329539
0.15027232333891
0.14886335796773
0.14781400991346
0.14704837393398
0.14652012920171
0.146205137696
0.14607337271683
0.14606430188285
0.14609789877148
0.14610890416038
0.1460639951933
0.14595874673782
0.14582220728837
0.14568895650837
0.14557170699318
0.14547377356357
0.14539565040096
0.14533624409172
0.14528697640322
0.14523139978666
0.14514217856911
0.14498063729839
0.14471897650337
0.14437283063876
0.14403204154724
0.14378183505689
0.14363590720145
0.14357641322433
0.14356645309974
0.14357129743576
0.14358445703727
0.14360237355151
0.14362270865597
0.14364427071375
0.14366658778944
0.14368959712012
0.14371343349009
0.14373828552614
0.14376430034815
0.14379156325482
0.143821726493
0.14385707773892
0.14389955370403
0.14395131750048
0.14401476891977
0.1440918635095
0.14418260137103
0.14428159430454
0.14436485500662
0.14440184294061
0.14440323207655
0.14437582907964
0.14428687781813
0.14411724423902
0.1438819454184
0.14362446578541
0.14341674224551
0.14327097516369
0.14318022003781
0.1431292302106
0.14310095612416
0.14308294462103
0.14307114884522
0.1430636221243
0.14305894828467
0.14305612740791
0.14305447446449
0.14305353462923
0.14305301615838
0.14305273879741
0.14305256861016
0.14305251062433
0.14305248138753
0.14305246693541
0.14305245992715
0.14305245659086
0.14305245503023
0.14305245431463
0.14305245398972
0.14305245384186
0.14305245377864
0.1430524537518
0.14305245374086
0.14305245373687
0.14305245373543
0.14305245373492
0.14305245373474
0.14305245373466
0.14305245373464
0.14305245373463
0.14305245373463
0.14305245373463
0.14305245373463
0.14305245373463
0.14305245373463
0.14305245373463
0.14305245373463
0.14305245373463
0.14305245373463
0.14305245373463
0.14305245373463
0.14305245373463
0.14305245373463
0.14305245373463
0.14305245373463
0.14305245373463
5.3792143147451
3.974822225805
3.5248324489895
3.1634838899611
2.7895174432212
2.4230559370939
2.1446766474888
1.9334699773086
1.9450289106042
2.1786773460367
2.3460187718865
2.336786561398
2.0599273642655
1.3830227013956
0.70856878751212
0.35740835050355
0.21661479342538
0.15845121441393
0.1323125461771
0.11863914535899
0.11082080015504
0.10771279758692
0.1085198698162
0.11183883434642
0.11681144669848
0.12417087010193
0.14593767738184
0.2243588436668
0.17593300883939
0.16047174335145
0.15932866008041
0.15649305870081
0.15385194937586
0.15167696989118
0.14997040795982
0.14866174821047
0.14767638406795
0.14695315189922
0.14645485382115
0.14616140035784
0.14604399061552
0.14604239189499
0.14607971871794
0.14609200610982
0.14604797097612
0.14594411268115
0.14581008259153
0.14567980459032
0.14556541436203
0.14546999422639
0.14539397541888
0.14533610865528
0.1452876132556
0.14523193815969
0.14514135882841
0.14497724840337
0.14471263495323
0.14436461624649
0.14402472872764
0.14377633496985
0.1436321266983
0.14357394689727
0.14356435951656
0.14356940553942
0.14358277575637
0.14360091798461
0.14362149765673
0.14364330811296
0.14366585980489
0.14368907571134
0.14371308220251
0.14373806510739
0.1437641714031
0.14379149451231
0.14382171245516
0.14385708852623
0.14389957341605
0.14395133899981
0.14401478820722
0.14409187813555
0.14418261571858
0.14428161311351
0.14436484774935
0.14440178270488
0.14440310670535
0.14437559414331
0.1442866486509
0.14411713128232
0.14388200232968
0.14362450247741
0.14341675157916
0.14327098370992
0.14318022726717
0.143129235609
0.14310096045904
0.14308294799746
0.1430711512761
0.14306362378199
0.14305894936717
0.14305612808801
0.14305447487641
0.14305353486976
0.14305301629256
0.14305273886429
0.14305256863768
0.14305251064434
0.1430524813996
0.14305246694217
0.14305245993079
0.1430524565927
0.14305245503114
0.1430524543151
0.14305245398995
0.14305245384194
0.14305245377866
0.14305245375182
0.14305245374087
0.14305245373687
0.14305245373543
0.14305245373492
0.14305245373474
0.14305245373467
0.14305245373464
0.14305245373464
0.14305245373463
0.14305245373463
0.14305245373463
0.14305245373463
0.14305245373463
0.14305245373463
0.14305245373463
0.14305245373463
0.14305245373463
0.14305245373463
0.14305245373463
0.14305245373463
0.14305245373463
0.14305245373463
0.14305245373463
0.14305245373463
0.24133254721399
1.7268077005728
2.0079885483936
2.1738334572916
2.2261652528425
2.1965085935626
2.21813255673
2.2900947803417
2.3403577342988
2.3806179255082
2.3137174622069
1.9490931355749
1.25003772105
0.58422457030271
0.25192546845648
0.15867040697921
0.13603898907782
0.12840874123967
0.1223582968221
0.11513531338598
0.10854307146876
0.10462145294528
0.10371484916235
0.10535836458934
0.10842889576919
0.11364734967764
0.13657667891356
0.19900328649612
0.1613464813551
0.157865121454
0.15794952446038
0.15586915971545
0.15360704372623
0.15161258530366
0.14998577712731
0.14870643592669
0.14772523875665
0.14699313773391
0.1464775061356
0.14616147608645
0.14602253847295
0.14601015676037
0.14604936889719
0.1460731357567
0.14604643132817
0.14595673217786
0.14582912984811
0.14569952581135
0.14558401893661
0.14548679340973
0.14540846172845
0.14534845496315
0.14530008143792
0.14524830470912
0.14516867917017
0.14502376308533
0.14478142777332
0.14444679267151
0.14409375042531
0.14382138123201
0.14365442188538
0.14357858169361
0.14356249754518
0.14356495197149
0.14357684282329
0.14359430746855
0.1436146977985
0.14363655296794
0.14365921648491
0.14368251192974
0.14370651744816
0.14373140856314
0.14375734838809
0.14378439851881
0.1438137168856
0.14384766211763
0.14388819404159
0.14393742243957
0.14399772874993
0.14407129256664
0.14415880315163
0.1442570259326
0.14434744386309
0.14439669335326
0.1444029546924
0.14437540158549
0.1442864592775
0.14411702138891
0.14388199101281
0.14362450508
0.14341675668809
0.14327099328733
0.14318023619157
0.14312924223428
0.14310096551706
0.14308295185202
0.14307115402864
0.14306362565015
0.14305895058249
0.1430561288489
0.14305447533577
0.14305353513719
0.14305301644124
0.14305273893441
0.14305256868463
0.1430525106812
0.14305248141855
0.1430524669539
0.14305245993699
0.1430524565958
0.14305245503264
0.1430524543159
0.14305245399033
0.14305245384212
0.14305245377875
0.14305245375186
0.14305245374088
0.14305245373688
0.14305245373543
0.14305245373491
0.14305245373473
0.14305245373467
0.14305245373464
0.14305245373464
0.14305245373463
0.14305245373463
0.14305245373463
0.14305245373463
0.14305245373463
0.14305245373463
0.14305245373463
0.14305245373463
0.14305245373463
0.14305245373463
0.14305245373463
0.14305245373463
0.14305245373463
0.14305245373463
0.14305245373463
0.14305245373463
0.11433544034784
0.14028587526875
0.31112769717924
0.54888576994192
0.77007447155756
0.91789838088767
0.96460803667996
0.93108913573822
0.80540091295051
0.60416712387945
0.39137164655953
0.23475725298453
0.15186494627261
0.13813398653839
0.14463927018337
0.14606323107196
0.14271717393103
0.13583786498899
0.12609919491371
0.11561139989641
0.1077502978974
0.10424313699124
0.10401162162228
0.105617584748
0.11248319020082
0.14178804984294
0.16453724734029
0.14458214801533
0.15122113274229
0.15425235062365
0.15410074717461
0.15293215293976
0.15147884985575
0.15009340146144
0.14890170467221
0.14792986842446
0.14716774220156
0.14659744014114
0.14620993210882
0.14599756029931
0.14593534502699
0.14596041403897
0.14601008216444
0.14602616058242
0.1459848836849
0.14588621871433
0.14576191689824
0.14564305990961
0.14553961855302
0.14545384140274
0.14538592505266
0.14533403711623
0.14528842528476
0.14523217598141
0.14513601191699
0.14496155983608
0.14468535881792
0.14433072522807
0.14399535627685
0.14375474697765
0.14361763059628
0.14356463331652
0.14355635018995
0.1435620643378
0.14357613439673
0.14359506139036
0.14361652877682
0.1436392788386
0.1436627505564
0.14368680189074
0.14371151469538
0.14373705324372
0.14376355567466
0.14379116162921
0.14382162528384
0.14385711977354
0.14389965121331
0.14395142791043
0.14401486813372
0.14409193498737
0.14418264707299
0.1442816083224
0.14436469532426
0.14440143093373
0.1444026140774
0.14437501476013
0.14428608807964
0.14411676234957
0.14388186739184
0.1436244642387
0.14341676066146
0.14327101656751
0.14318025908236
0.14312925893704
0.14310097778423
0.14308296101715
0.14307116050884
0.14306363002233
0.14305895341418
0.14305613061476
0.14305447639786
0.14305353575352
0.14305301678497
0.1430527391152
0.14305256876866
0.14305251072801
0.14305248144383
0.14305246696726
0.14305245994401
0.14305245659926
0.14305245503428
0.14305245431665
0.14305245399067
0.14305245384229
0.14305245377884
0.1430524537519
0.14305245374089
0.14305245373688
0.14305245373543
0.14305245373491
0.14305245373473
0.14305245373467
0.14305245373465
0.14305245373464
0.14305245373464
0.14305245373463
0.14305245373463
0.14305245373463
0.14305245373463
0.14305245373463
0.14305245373463
0.14305245373463
0.14305245373463
0.14305245373463
0.14305245373463
0.14305245373463
0.14305245373463
0.14305245373463
0.14305245373463
0.14305245373463
0.11899048474382
0.12945174815583
0.12812398819945
0.12439824205827
0.12604660240098
0.13184693844963
0.13800538324606
0.13985512479075
0.13735418827771
0.13400227449253
0.1361197925481
0.1432593574676
0.14980963704748
0.15166359589561
0.15078863254843
0.14843532590576
0.14457487366375
0.1387962267879
0.13063629827347
0.1209539036365
0.11302489026208
0.11040674390224
0.11453875833898
0.12669840263642
0.13867965134463
0.13854748589891
0.13688066454328
0.14452723122345
0.14902426534325
0.15095560084342
0.15131177919211
0.15081994771268
0.14995674844745
0.14901524804217
0.14813974114844
0.14738973149005
0.14678321984792
0.14632510509165
0.14602197270178
0.14587231120134
0.14585049595169
0.14589736574934
0.14595453015051
0.14597229303131
0.14593243060096
0.14583779915357
0.14572142706903
0.14561169644199
0.1455169504858
0.14543885254536
0.1453774407151
0.14533028470249
0.14528698052178
0.14523000970369
0.14512876879321
0.14494534834121
0.14465957512266
0.14430059469413
0.14397016005698
0.14373686225642
0.14360607715077
0.14355741520534
0.14355002248193
0.14355615144085
0.1435706409122
0.14359007705992
0.14361217232328
0.14363563907505
0.14365985758562
0.14368462264509
0.14370996503603
0.14373601680333
0.14376289355355
0.14379079633077
0.1438215035153
0.1438571232084
0.14389971035695
0.14395150330023
0.14401493723216
0.14409198222448
0.14418266063577
0.14428156370699
0.14436452094177
0.14440111703209
0.1444022439925
0.14437460458933
0.14428567542216
0.14411642299576
0.14388165693577
0.14362438790899
0.14341676265383
0.14327104661513
0.14318028870954
0.143129280082
0.14310099287546
0.1430829721058
0.14307116826618
0.1430636352178
0.14305895676046
0.14305613269216
0.1430544776426
0.14305353647384
0.14305301718749
0.14305273933266
0.14305256886479
0.14305251077912
0.14305248147049
0.14305246698091
0.14305245995096
0.14305245660267
0.1430524550359
0.14305245431737
0.14305245399102
0.14305245384246
0.14305245377892
0.14305245375193
0.14305245374091
0.14305245373689
0.14305245373543
0.14305245373491
0.14305245373473
0.14305245373467
0.14305245373465
0.14305245373464
0.14305245373464
0.14305245373463
0.14305245373463
0.14305245373463
0.14305245373463
0.14305245373463
0.14305245373463
0.14305245373463
0.14305245373463
0.14305245373463
0.14305245373463
0.14305245373463
0.14305245373463
0.14305245373463
0.14305245373463
0.14305245373463
0.11893342829035
0.13278695212171
0.14050178773926
0.14245062792179
0.14204246965227
0.14125962312184
0.14106630076773
0.14201890067257
0.14411306080426
0.14673653795264
0.14901803307327
0.15048668291464
0.15113657767993
0.15098146718812
0.14997109808591
0.14795974606958
0.14479630765303
0.14047929352991
0.13532108144697
0.13040309410522
0.1270001957647
0.12603634737461
0.12693771563149
0.1276780153211
0.13015069755767
0.13528177685885
0.14040311936319
0.1442557759347
0.14700210777959
0.14858294975834
0.14915470182842
0.14905429279737
0.14860317742606
0.14800912571739
0.14740122362584
0.14685085871427
0.14639196529944
0.14604565555424
0.14582934181698
0.14574628171786
0.14576286623342
0.14583190951809
0.14589475256139
0.14591294074933
0.14587377500155
0.14578341994587
0.14567574973616
0.1455758057947
0.14549032253686
0.14542043291585
0.14536602830833
0.14532389754725
0.14528299435278
0.14522479012764
0.1451172846831
0.14492333154832
0.14462696138686
0.1442645591855
0.14394104921399
0.14371690033972
0.14359372368883
0.14354992869209
0.14354336255664
0.14354981819745
0.14356460267884
0.14358443843064
0.14360709283395
0.14363126437234
0.14365627506411
0.14368184375205
0.14370792986734
0.14373461129917
0.14376194939916
0.1437902715813
0.14382129667038
0.14385709133374
0.14389976262318
0.14395158534618
0.14401501522968
0.14409203351901
0.14418266768932
0.14428149579022
0.14436430167582
0.14440074508501
0.14440182416404
0.14437413482209
0.14428518993227
0.14411600708414
0.14388139309773
0.14362429538103
0.14341676720984
0.14327108438841
0.14318032504974
0.14312930549794
0.14310101067515
0.14308298502829
0.14307117722635
0.14306364117895
0.14305896058043
0.14305613505417
0.14305447905327
0.14305353728815
0.14305301764206
0.14305273957848
0.1430525689736
0.14305251083571
0.14305248149943
0.14305246699547
0.14305245995818
0.14305245660615
0.14305245503755
0.14305245431813
0.14305245399138
0.14305245384263
0.14305245377899
0.14305245375196
0.14305245374092
0.14305245373689
0.14305245373543
0.14305245373491
0.14305245373473
0.14305245373467
0.14305245373465
0.14305245373464
0.14305245373464
0.14305245373463
0.14305245373463
0.14305245373463
0.14305245373463
0.14305245373463
0.14305245373463
0.14305245373463
0.14305245373463
0.14305245373463
0.14305245373463
0.14305245373463
0.14305245373463
0.14305245373463
0.14305245373463
0.14305245373463
0.11873660725716
0.13194768352548
0.14063970244643
0.14399529857797
0.14493459850547
0.14533458857455
0.1457599362081
0.14636632522343
0.14716196731106
0.14805966767812
0.14888988561619
0.14949312836573
0.1497281033538
0.1494736169331
0.14861940247094
0.14704076523838
0.14464040730962
0.14136250756856
0.13746966643402
0.13358996306763
0.13063293862061
0.12935686727238
0.13001420455831
0.13217202202821
0.13506842335126
0.13807005161446
0.1409674285311
0.14357675081411
0.14559186195812
0.14688542131139
0.14751032157413
0.1476324117561
0.14745254388159
0.14711337338334
0.14672014458092
0.14633999825322
0.14601460523324
0.1457749122095
0.14564402573477
0.14562423935934
0.14567897923185
0.14576674464976
0.14583288501626
0.14584997645964
0.14581067341355
0.14572479045952
0.14562625679361
0.14553633191226
0.14546025854688
0.1453987579447
0.14535155496269
0.14531445415205
0.14527577509173
0.14521558016493
0.14510042747457
0.14489443185394
0.14458686757741
0.14422278312915
0.14390853598253
0.14369544709661
0.14358112340797
0.14354254943753
0.14353674703824
0.14354342110043
0.14355832619816
0.14357838121536
0.14360144382874
0.14362622528404
0.14365200296486
0.14367841656496
0.14370533603212
0.14373275560093
0.14376065597059
0.14378953720015
0.14382096528986
0.14385699794386
0.14389979163869
0.14395166501703
0.14401509710074
0.14409208458788
0.14418266360728
0.14428140138408
0.14436403508572
0.14440030756575
0.14440133487641
0.14437358804206
0.14428462475153
0.14411552469772
0.14388109252973
0.14362419525634
0.14341677714
0.14327113057131
0.14318036806998
0.1431293350005
0.14310103101285
0.14308299964177
0.14307118727782
0.14306364782466
0.14305896481869
0.14305613766492
0.14305448060771
0.14305353818321
0.14305301814076
0.14305273984779
0.14305256909193
0.14305251089704
0.14305248153059
0.14305246701102
0.1430524599658
0.14305245660982
0.1430524550393
0.14305245431895
0.14305245399176
0.1430524538428
0.14305245377907
0.14305245375199
0.14305245374093
0.1430524537369
0.14305245373544
0.14305245373491
0.14305245373473
0.14305245373467
0.14305245373465
0.14305245373464
0.14305245373464