/*--------------------------------*- C++ -*----------------------------------*\
| =========                 |                                                 |
| \\      /  F ield         | OpenFOAM: The Open Source CFD Toolbox           |
|  \\    /   O peration     | Version:  2312                                  |
|   \\  /    A nd           | Website:  www.openfoam.com                      |
|    \\/     M anipulation  |                                                 |
\*---------------------------------------------------------------------------*/
FoamFile
{
    version     2.0;
    format      ascii;
    arch        "LSB;label=32;scalar=64";
    class       volScalarField;
    location    "1e-05";
    object      rhoHat;
}
// * * * * * * * * * * * * * * * * * * * * * * * * * * * * * * * * * * * * * //

dimensions      [1 -3 0 0 0 0 0];

internalField   nonuniform List<scalar> 
109340
(
660.87393980285
660.64210905629
660.28974718221
659.78692706495
659.09075672316
658.1118653671
656.70483398663
654.62429120226
651.44594118745
646.43416125325
638.26680552599
624.55566888107
600.66322026969
557.86013384704
482.5660519684
367.41258212737
237.19556865118
135.78143805221
75.552723124375
43.327750840475
25.934432793217
16.336977830187
10.737800596755
7.3081646175386
5.1237103311754
3.6869444942665
2.715412525366
2.0398591146264
1.5592822819919
1.210680502031
0.95250437323013
0.75739536298291
0.60727331739399
0.49015680120465
0.39787469148735
0.32566822791283
660.82261933972
660.56281795197
660.17782303731
659.64197371136
658.89643887483
657.84077031622
656.3137432038
654.03291643159
650.51241007711
644.8976789164
635.64741803453
619.92881954879
592.27313892272
542.58632653128
456.95131119244
333.99043162185
207.89755473728
117.31448593388
65.935578082604
38.065724967049
23.041586460421
14.677770154457
9.7393467774254
6.6834143098511
4.719462379167
3.4163150017167
2.5274731647623
1.9065837253219
1.4629619210163
1.1393809176161
0.8986147448361
0.71591380395956
0.57500015152743
0.46486333901302
0.37826858930133
0.30917131412097
660.82515453117
660.5579784968
660.18169553376
659.65857026393
658.93140010501
657.89656246651
656.39942860447
654.16358412273
650.70606127992
645.15624799837
635.90940461721
620.11339025217
592.34872745378
542.44202144964
456.43880026577
333.350082837
207.56659404046
117.29710811743
66.017237273804
38.13497947925
23.082325302098
14.699937065814
9.7542455557098
6.6948478452294
4.7278224129997
3.4219287961089
2.5306262632473
1.9076968337101
1.4631588566597
1.1389391494438
0.89787808838387
0.71520925911597
0.57433192633452
0.4641687177781
0.37711809092984
0.30809576606008
660.82987072039
660.56561395954
660.20245486566
659.69372946582
658.98215516498
657.97587451188
656.52090996585
654.35647235564
651.01959849321
645.6600302379
636.63607751305
620.87909893596
592.6357532918
541.94963385027
455.44537918263
332.38436095467
207.23446789592
117.49741726282
66.184675426053
38.265040400172
23.161612895902
14.741427384267
9.7784116652251
6.7105890241282
4.7387665928527
3.4291738068618
2.5350354089404
1.9098219147983
1.4633849448409
1.1385867299483
0.89709438764499
0.71396368275974
0.57286983897234
0.46272046662334
0.37589976028296
0.30706736721805
660.84901068873
660.59311898216
660.23252737249
659.73518100831
659.04467553685
658.07220976383
656.67323721877
654.60316480668
651.42929482058
646.34945769956
637.78364575409
622.63198764532
594.6891428484
542.61233466304
452.69574045616
328.14244588962
204.75736884049
116.78974545753
66.0866510327
38.306655870972
23.203871635321
14.759459069623
9.7850233268236
6.7117952125517
4.7369130210963
3.4249574998716
2.5284772759505
1.9011786043412
1.4530363565644
1.1263125568362
0.88364148332873
0.69964334617956
0.55809641085994
0.44803138951733
0.36172216154712
0.2936645344164
660.88671235213
660.62720429347
660.2595377567
659.73918006481
658.9985989801
657.92818848281
656.34455458515
653.92587579801
650.07716079743
643.62202106067
632.1188431006
610.38540397792
567.55981539345
486.14658884844
365.4418138825
241.36244217427
145.08810499194
83.330531168465
47.595700882115
27.758097946839
16.758315540374
10.499255546698
6.8107193925589
4.5485539283814
3.1146318796396
2.1785159796349
1.5521022447714
1.1238768860969
0.82497752366331
0.61238786213791
0.45844937409586
0.34520284069886
0.26097988044921
0.19789799028227
0.15080501298097
0.11570968271017
0.2657008794701
0.21535006043057
0.17566257046839
0.14397183388582
0.11781468658232
0.093281509162614
0.067909272518943
0.043192766293019
0.023432633871188
0.010908527792775
0.0045949146091291
0.0017384161517104
0.00086497124841711
0.0056790104241018
0.008743995757615
0.005231230420752
0.0032971469695227
0.002420320410653
0.0017799186011835
0.0012210939297811
0.0008141466811068
0.00062148327784683
0.00054138192311448
0.00050020621168623
0.00042539344337744
0.00035836407834
0.00033274101062541
0.00030214715961829
0.00015704986225606
6.6163783369877e-06
5.2757367946521e-08
5.0973170129254e-11
1.2601031329496e-14
2.7755575615629e-17
0
0
0
2.7755575615629e-17
0
0
0
0
-2.7755575615629e-17
2.7755575615629e-17
-2.7755575615629e-17
0
0
-2.7755575615629e-17
-5.5511151231258e-17
0
-2.7755575615629e-17
0
-5.5511151231258e-17
0
0
2.7755575615629e-17
-2.7755575615629e-17
0
2.7755575615629e-17
0
0
-5.5511151231258e-17
0
0
2.7755575615629e-17
0
5.5511151231258e-17
0
0
0
0
0
-2.7755575615629e-17
0
0
2.7755575615629e-17
0
0
2.7755575615629e-17
2.7755575615629e-17
-2.7755575615629e-17
-2.7755575615629e-17
0
5.5511151231258e-17
0
0
-2.7755575615629e-17
0
0
0
0
-2.7755575615629e-17
0
-5.5511151231258e-17
0
0
0
0
0
-5.5511151231258e-17
-2.7755575615629e-17
0
2.7755575615629e-17
-2.7755575615629e-17
0
-2.7755575615629e-17
2.7755575615629e-17
-2.7755575615629e-17
-2.7755575615629e-17
-2.7755575615629e-17
-2.7755575615629e-17
0
2.7755575615629e-17
0
0
0
2.7755575615629e-17
2.7755575615629e-17
0
0
0
0
2.7755575615629e-17
2.7755575615629e-17
0
-2.7755575615629e-17
0
0
0
0
-2.7755575615629e-17
0
-5.5511151231258e-17
0
0
0
0
0
-2.7755575615629e-17
0
0.25272601037722
0.20604197661707
0.16802257019519
0.1359882872555
0.10577846531858
0.075806290049538
0.048780380742378
0.028166076853098
0.014752230167182
0.0070823079075217
0.0030936087105105
0.0014370454061079
0.0015612808379262
0.0083974864933198
0.0076312448414564
0.0048243057873059
0.003131334744666
0.0022764607154144
0.0016060441013583
0.0010615106059404
0.00070787877857981
0.00053590248958046
0.0004439267976919
0.00037719139026404
0.00029887322940658
0.00024765989761805
0.00022765011545678
0.00021372604581843
8.4413381227277e-05
1.8506969865217e-06
7.7822098487612e-09
4.794553642995e-12
8.604228440845e-16
2.7755575615629e-17
-2.7755575615629e-17
2.7755575615629e-17
2.7755575615629e-17
0
0
5.5511151231258e-17
-2.7755575615629e-17
2.7755575615629e-17
2.7755575615629e-17
-2.7755575615629e-17
-2.7755575615629e-17
-2.7755575615629e-17
0
-2.7755575615629e-17
2.7755575615629e-17
-2.7755575615629e-17
2.7755575615629e-17
0
0
5.5511151231258e-17
0
2.7755575615629e-17
0
0
0
2.7755575615629e-17
0
0
2.7755575615629e-17
0
0
5.5511151231258e-17
-2.7755575615629e-17
0
-2.7755575615629e-17
-2.7755575615629e-17
2.7755575615629e-17
2.7755575615629e-17
-2.7755575615629e-17
0
0
-2.7755575615629e-17
0
0
-2.7755575615629e-17
0
0
2.7755575615629e-17
0
2.7755575615629e-17
0
0
0
-2.7755575615629e-17
0
0
-2.7755575615629e-17
-2.7755575615629e-17
0
0
0
2.7755575615629e-17
0
0
0
2.7755575615629e-17
0
0
0
0
0
5.5511151231258e-17
-2.7755575615629e-17
0
0
2.7755575615629e-17
0
-2.7755575615629e-17
0
0
0
0
2.7755575615629e-17
-2.7755575615629e-17
-2.7755575615629e-17
0
0
0
0
0
0
0
2.7755575615629e-17
2.7755575615629e-17
2.7755575615629e-17
2.7755575615629e-17
0
0
0
0
0
2.7755575615629e-17
-2.7755575615629e-17
0
2.7755575615629e-17
0
0.25245157523603
0.20679783597356
0.16633341682043
0.12614535598054
0.087237317898887
0.05491270004011
0.032103045687781
0.018200586998546
0.010004289175684
0.0052051750208533
0.0026690608835533
0.0018582616925276
0.0036772734897565
0.007449607053537
0.0071885412919634
0.0047393345539544
0.0030252301281843
0.0020478533522159
0.0013105073241869
0.00079280563754092
0.0004874730673976
0.00032652946495115
0.00023411555847408
0.00017609490341103
0.00013260702137835
0.00010748406289168
0.00010196729602252
0.00012523005497761
6.322490954036e-05
1.2866650457022e-06
4.4755230355076e-09
2.5091595468041e-12
4.1633363423443e-16
-2.7755575615629e-17
0
0
0
2.7755575615629e-17
2.7755575615629e-17
0
0
2.7755575615629e-17
0
0
5.5511151231258e-17
2.7755575615629e-17
2.7755575615629e-17
2.7755575615629e-17
0
0
0
2.7755575615629e-17
0
0
5.5511151231258e-17
0
0
0
0
2.7755575615629e-17
0
0
-5.5511151231258e-17
2.7755575615629e-17
0
0
0
0
0
0
0
2.7755575615629e-17
-2.7755575615629e-17
0
0
2.7755575615629e-17
2.7755575615629e-17
0
-2.7755575615629e-17
0
0
0
2.7755575615629e-17
0
0
-2.7755575615629e-17
0
-2.7755575615629e-17
-5.5511151231258e-17
2.7755575615629e-17
-2.7755575615629e-17
0
-2.7755575615629e-17
2.7755575615629e-17
0
2.7755575615629e-17
0
0
0
0
-2.7755575615629e-17
0
-2.7755575615629e-17
0
0
2.7755575615629e-17
0
0
0
0
0
0
2.7755575615629e-17
0
0
-5.5511151231258e-17
-2.7755575615629e-17
-2.7755575615629e-17
5.5511151231258e-17
-2.7755575615629e-17
0
-5.5511151231258e-17
0
0
2.7755575615629e-17
-2.7755575615629e-17
0
2.7755575615629e-17
0
0
0
0
0
0
0
2.7755575615629e-17
-2.7755575615629e-17
0
-2.7755575615629e-17
0
0.25202660771742
0.20199411907878
0.14569094733311
0.092158308615724
0.053777315712179
0.031252397560445
0.018560162057475
0.011064547740049
0.0065287018585485
0.0039012201167163
0.0028195792632584
0.0038563155397091
0.0058628732163277
0.0068417369262548
0.0061694792298304
0.0038070707518472
0.0021099982218835
0.0010923494863352
0.0005150674485449
0.00024325746363224
0.00012650764031302
7.5245975841298e-05
5.0560994316884e-05
3.8055846540402e-05
3.1312484161911e-05
2.8346612241714e-05
3.277337287319e-05
6.3268484312817e-05
3.823704945155e-05
7.092592727298e-07
1.8955822744804e-09
9.4688146212718e-13
1.1102230246252e-16
2.7755575615629e-17
2.7755575615629e-17
-2.7755575615629e-17
5.5511151231258e-17
0
-5.5511151231258e-17
2.7755575615629e-17
0
0
-2.7755575615629e-17
0
0
0
0
-2.7755575615629e-17
0
-2.7755575615629e-17
0
5.5511151231258e-17
-2.7755575615629e-17
-2.7755575615629e-17
-2.7755575615629e-17
-2.7755575615629e-17
2.7755575615629e-17
-2.7755575615629e-17
0
2.7755575615629e-17
0
0
5.5511151231258e-17
0
2.7755575615629e-17
0
0
2.7755575615629e-17
-2.7755575615629e-17
-2.7755575615629e-17
2.7755575615629e-17
0
2.7755575615629e-17
0
-2.7755575615629e-17
0
2.7755575615629e-17
0
0
0
-2.7755575615629e-17
0
0
-2.7755575615629e-17
0
-2.7755575615629e-17
2.7755575615629e-17
-2.7755575615629e-17
0
0
0
0
0
-2.7755575615629e-17
-2.7755575615629e-17
-5.5511151231258e-17
2.7755575615629e-17
-2.7755575615629e-17
2.7755575615629e-17
-5.5511151231258e-17
0
-2.7755575615629e-17
0
0
0
2.7755575615629e-17
0
2.7755575615629e-17
0
2.7755575615629e-17
-2.7755575615629e-17
0
0
-2.7755575615629e-17
0
0
-2.7755575615629e-17
2.7755575615629e-17
0
0
0
2.7755575615629e-17
2.7755575615629e-17
-2.7755575615629e-17
0
2.7755575615629e-17
0
0
0
-2.7755575615629e-17
-2.7755575615629e-17
0
0
0
2.7755575615629e-17
-2.7755575615629e-17
0
0
0
0
0.23317429093789
0.14533435968361
0.074853146904212
0.041599398541183
0.025381218348709
0.016072146273324
0.010356321370085
0.0067368531115841
0.0047399945557061
0.00389458755287
0.0050860266003749
0.006759192025203
0.0071684292899334
0.0059373779499743
0.0034485256555903
0.0014127608624361
0.00049723304294047
0.00015603266205411
5.0678813192873e-05
2.2432470900252e-05
1.316912645416e-05
9.4067200571146e-06
7.7889255129249e-06
7.1575692812409e-06
7.0796861559863e-06
7.7701958922927e-06
1.12966414344e-05
3.540745015207e-05
1.7598830991672e-05
2.8755062900232e-07
5.7113563878275e-10
2.5332513864385e-13
2.7755575615629e-17
0
0
0
0
0
0
0
0
2.7755575615629e-17
-5.5511151231258e-17
2.7755575615629e-17
0
2.7755575615629e-17
0
-2.7755575615629e-17
-5.5511151231258e-17
0
0
0
0
0
2.7755575615629e-17
-2.7755575615629e-17
2.7755575615629e-17
0
0
0
0
0
0
0
-2.7755575615629e-17
-2.7755575615629e-17
5.5511151231258e-17
0
0
0
0
0
0
0
0
0
0
0
0
-2.7755575615629e-17
0
-2.7755575615629e-17
0
0
0
0
0
0
-2.7755575615629e-17
0
0
0
-2.7755575615629e-17
0
-2.7755575615629e-17
-2.7755575615629e-17
-2.7755575615629e-17
2.7755575615629e-17
0
0
0
-2.7755575615629e-17
0
-2.7755575615629e-17
0
-2.7755575615629e-17
-2.7755575615629e-17
-5.5511151231258e-17
0
0
0
0
2.7755575615629e-17
0
0
2.7755575615629e-17
0
0
0
0
2.7755575615629e-17
0
0
2.7755575615629e-17
2.7755575615629e-17
0
0
-2.7755575615629e-17
-2.7755575615629e-17
0
0
2.7755575615629e-17
-2.7755575615629e-17
-2.7755575615629e-17
0
-2.7755575615629e-17
0
-2.7755575615629e-17
0
0
0.041159886892168
0.022655035410818
0.017894761243254
0.014436558808753
0.011231406533964
0.0084729565957371
0.0066442832199396
0.005407086384031
0.0055011990459246
0.0068869429100427
0.0079370069380102
0.0078376452798969
0.0060027289430589
0.0025887257034449
0.00059571076894971
0.00011308364508239
2.7141630759342e-05
8.9918227133279e-06
4.0965838525309e-06
2.4631693097271e-06
1.8418634505912e-06
1.6355067379847e-06
1.653594320819e-06
1.8158903953014e-06
2.1601506894064e-06
2.893898440659e-06
6.1166923951139e-06
2.3331141167177e-05
5.6001978008813e-06
7.8670258890634e-08
1.2012391081839e-10
4.7739590058882e-14
0
0
0
-2.7755575615629e-17
-2.7755575615629e-17
0
2.7755575615629e-17
0
2.7755575615629e-17
0
0
2.7755575615629e-17
-2.7755575615629e-17
0
0
2.7755575615629e-17
2.7755575615629e-17
0
0
-2.7755575615629e-17
0
-2.7755575615629e-17
0
2.7755575615629e-17
0
-2.7755575615629e-17
0
0
0
2.7755575615629e-17
2.7755575615629e-17
0
2.7755575615629e-17
0
0
-2.7755575615629e-17
0
5.5511151231258e-17
0
0
0
-2.7755575615629e-17
-2.7755575615629e-17
2.7755575615629e-17
0
2.7755575615629e-17
2.7755575615629e-17
2.7755575615629e-17
0
0
-2.7755575615629e-17
0
0
0
-2.7755575615629e-17
0
0
0
-2.7755575615629e-17
0
2.7755575615629e-17
2.7755575615629e-17
-2.7755575615629e-17
-2.7755575615629e-17
0
0
0
2.7755575615629e-17
0
-2.7755575615629e-17
0
0
-2.7755575615629e-17
0
0
5.5511151231258e-17
2.7755575615629e-17
0
0
0
0
2.7755575615629e-17
5.5511151231258e-17
0
2.7755575615629e-17
0
-2.7755575615629e-17
0
2.7755575615629e-17
-2.7755575615629e-17
-5.5511151231258e-17
0
-2.7755575615629e-17
0
-2.7755575615629e-17
0
0
0
0
0
-2.7755575615629e-17
0
2.7755575615629e-17
-2.7755575615629e-17
0
2.7755575615629e-17
0
0
4.8910717778905e-05
0.0041799067054922
0.0057460837265131
0.0067835312107483
0.0071419912450845
0.0069740835117411
0.0071215486309582
0.0075899584559136
0.007903704792108
0.0081821340138477
0.0076631325378971
0.0053523320489914
0.0020906269805985
0.00038291784796318
4.2889117720268e-05
8.0160998748025e-06
2.8432062927353e-06
1.3013219814229e-06
7.0856799909425e-07
4.7441441794471e-07
3.9154580350198e-07
3.8566604994295e-07
4.415037013622e-07
5.7301630503048e-07
8.2445537745446e-07
1.4031706227907e-06
4.306528590764e-06
1.4743196883493e-05
3.3223991390829e-06
5.9517205303061e-08
1.0786907478355e-10
5.143108161576e-14
0
0
0
2.7755575615629e-17
2.7755575615629e-17
2.7755575615629e-17
-2.7755575615629e-17
0
-5.5511151231258e-17
2.7755575615629e-17
2.7755575615629e-17
2.7755575615629e-17
0
0
0
-2.7755575615629e-17
0
0
0
0
0
0
0
0
0
2.7755575615629e-17
0
0
-2.7755575615629e-17
0
0
0
0
2.7755575615629e-17
-2.7755575615629e-17
0
0
0
0
0
0
-2.7755575615629e-17
0
2.7755575615629e-17
-2.7755575615629e-17
0
0
0
0
-2.7755575615629e-17
0
0
5.5511151231258e-17
0
0
0
0
2.7755575615629e-17
0
0
0
0
0
0
0
0
2.7755575615629e-17
0
0
0
2.7755575615629e-17
2.7755575615629e-17
0
-2.7755575615629e-17
0
-2.7755575615629e-17
0
2.7755575615629e-17
-2.7755575615629e-17
0
2.7755575615629e-17
5.5511151231258e-17
0
5.5511151231258e-17
0
0
0
-2.7755575615629e-17
2.7755575615629e-17
0
2.7755575615629e-17
-2.7755575615629e-17
0
0
0
0
0
0
0
2.7755575615629e-17
0
0
-2.7755575615629e-17
2.7755575615629e-17
0
0
0
0
2.9105172355548e-07
7.1344709634824e-06
8.9246831032397e-05
0.0003514011820559
0.00074945570639307
0.0010962547705472
0.0012180507168901
0.0011272096582491
0.0008178334420339
0.00042565022213759
0.00014869087853064
3.545524880974e-05
6.1486092559349e-06
1.2673792677831e-06
3.1150144588765e-07
1.2007665539659e-07
1.1433523355864e-07
1.6160739027549e-07
1.9602642278849e-07
1.6914942443935e-07
1.2439358555716e-07
1.0094370708758e-07
1.346527029461e-07
3.1892320177807e-07
1.0138662437653e-06
3.8742067282049e-06
5.9132640026494e-06
1.308894843427e-06
4.6540142184526e-08
1.6777401690149e-10
1.5193402091995e-13
-2.7755575615629e-17
0
0
0
0
0
0
0
0
0
-5.5511151231258e-17
0
0
0
2.7755575615629e-17
0
0
-5.5511151231258e-17
0
0
0
-2.7755575615629e-17
5.5511151231258e-17
0
5.5511151231258e-17
2.7755575615629e-17
0
0
2.7755575615629e-17
0
-2.7755575615629e-17
0
5.5511151231258e-17
-2.7755575615629e-17
5.5511151231258e-17
0
0
-2.7755575615629e-17
0
2.7755575615629e-17
2.7755575615629e-17
-2.7755575615629e-17
2.7755575615629e-17
2.7755575615629e-17
0
-2.7755575615629e-17
0
0
0
2.7755575615629e-17
0
-2.7755575615629e-17
0
-2.7755575615629e-17
0
0
-5.5511151231258e-17
2.7755575615629e-17
-2.7755575615629e-17
-2.7755575615629e-17
0
0
2.7755575615629e-17
2.7755575615629e-17
0
0
0
-2.7755575615629e-17
0
-5.5511151231258e-17
0
0
0
2.7755575615629e-17
0
-2.7755575615629e-17
5.5511151231258e-17
-2.7755575615629e-17
0
2.7755575615629e-17
0
0
0
0
2.7755575615629e-17
0
-2.7755575615629e-17
0
2.7755575615629e-17
0
-2.7755575615629e-17
5.5511151231258e-17
-2.7755575615629e-17
0
0
0
0
0
0
0
0
-2.7755575615629e-17
0
0
2.7755575615629e-17
0
-5.5511151231258e-17
2.7755575615629e-17
0
1.5677939946279e-08
1.6639794295226e-07
5.6247025298495e-07
1.2727984111255e-06
2.3710780175101e-06
3.758129111936e-06
5.0309245030744e-06
5.2164234507768e-06
4.1990862764962e-06
2.5660914736159e-06
1.2202552303886e-06
4.0985671589944e-07
8.4403104172459e-08
2.1648765891058e-08
3.7786330647771e-08
9.3408457468858e-08
1.9255993080614e-07
3.2332337629448e-07
4.3531767041083e-07
4.7275947430425e-07
4.6378203109876e-07
5.3456910092953e-07
8.5716160481975e-07
1.6441260724254e-06
2.4599871472908e-06
1.7379183349098e-06
4.5036783438701e-07
3.0108392695682e-08
2.854799174834e-10
6.4401262100944e-13
4.7184478546569e-16
-2.7755575615629e-17
0
2.7755575615629e-17
0
2.7755575615629e-17
0
0
0
0
-2.7755575615629e-17
0
0
0
2.7755575615629e-17
0
-2.7755575615629e-17
0
2.7755575615629e-17
0
0
0
0
0
-2.7755575615629e-17
0
0
0
-2.7755575615629e-17
0
2.7755575615629e-17
-2.7755575615629e-17
2.7755575615629e-17
5.5511151231258e-17
-2.7755575615629e-17
0
5.5511151231258e-17
0
0
0
2.7755575615629e-17
0
0
-2.7755575615629e-17
0
0
0
0
0
0
0
-2.7755575615629e-17
0
-2.7755575615629e-17
0
0
0
0
0
-2.7755575615629e-17
-2.7755575615629e-17
0
2.7755575615629e-17
0
2.7755575615629e-17
2.7755575615629e-17
2.7755575615629e-17
0
0
0
0
0
0
0
0
2.7755575615629e-17
-2.7755575615629e-17
-2.7755575615629e-17
0
0
-2.7755575615629e-17
2.7755575615629e-17
0
-2.7755575615629e-17
-2.7755575615629e-17
0
0
2.7755575615629e-17
0
0
0
2.7755575615629e-17
0
-2.7755575615629e-17
0
2.7755575615629e-17
0
-2.7755575615629e-17
-2.7755575615629e-17
0
2.7755575615629e-17
0
-2.7755575615629e-17
-2.7755575615629e-17
0
0
0
2.7755575615629e-17
2.7755575615629e-17
0
6.1587655808548e-10
3.6137557113403e-09
1.2822100631249e-08
3.7189771928681e-08
7.9380135020735e-08
1.251443136896e-07
1.5211656159697e-07
1.4268190071109e-07
9.9206154235976e-08
4.7435692762665e-08
1.4465921044371e-08
3.3444287061979e-09
3.5313681701066e-09
1.0330335115105e-08
2.6993839108425e-08
6.011496292424e-08
1.1763359997197e-07
2.080671210325e-07
3.3418755585046e-07
4.8300194296913e-07
6.2978031498129e-07
7.5641321886644e-07
7.9676972855602e-07
6.0794357784055e-07
3.0261476874349e-07
7.9924210166782e-08
6.1702282727616e-09
1.224910173292e-10
6.435962873752e-13
1.0547118733939e-15
0
0
0
-2.7755575615629e-17
0
2.7755575615629e-17
-2.7755575615629e-17
0
0
0
0
0
0
-2.7755575615629e-17
0
2.7755575615629e-17
2.7755575615629e-17
0
0
0
0
-2.7755575615629e-17
-2.7755575615629e-17
-2.7755575615629e-17
0
0
-2.7755575615629e-17
0
0
5.5511151231258e-17
2.7755575615629e-17
0
0
2.7755575615629e-17
2.7755575615629e-17
2.7755575615629e-17
0
0
2.7755575615629e-17
-5.5511151231258e-17
0
-2.7755575615629e-17
0
-2.7755575615629e-17
2.7755575615629e-17
0
0
0
0
0
-2.7755575615629e-17
0
5.5511151231258e-17
0
0
2.7755575615629e-17
0
0
2.7755575615629e-17
2.7755575615629e-17
-2.7755575615629e-17
-2.7755575615629e-17
0
0
0
0
0
0
-2.7755575615629e-17
5.5511151231258e-17
2.7755575615629e-17
0
2.7755575615629e-17
2.7755575615629e-17
-2.7755575615629e-17
2.7755575615629e-17
0
0
0
0
0
0
-2.7755575615629e-17
5.5511151231258e-17
0
2.7755575615629e-17
2.7755575615629e-17
-5.5511151231258e-17
-2.7755575615629e-17
-2.7755575615629e-17
0
0
5.5511151231258e-17
2.7755575615629e-17
-2.7755575615629e-17
0
0
0
-2.7755575615629e-17
0
0
0
5.5511151231258e-17
0
0
0
0
0
2.7755575615629e-17
0
1.6426013327298e-11
4.9674819813106e-11
1.2773943014466e-10
4.172756862264e-10
9.778250709136e-10
1.506491043024e-09
1.6438129746277e-09
1.2681578287488e-09
6.6449895586018e-10
2.3300866791587e-10
1.2436679464045e-10
3.299099049503e-10
1.070910693457e-09
2.9623941077972e-09
6.9649237488534e-09
1.4179795670977e-08
2.5682169224606e-08
4.222901353601e-08
6.3063449184941e-08
8.3547429280406e-08
9.4712912040995e-08
8.7566758094626e-08
5.9396102286557e-08
2.5183956281483e-08
5.5947234067766e-09
5.3896290208577e-10
1.8030021919913e-11
1.9309553955793e-13
6.6613381477509e-16
2.7755575615629e-17
2.7755575615629e-17
-2.7755575615629e-17
-2.7755575615629e-17
-2.7755575615629e-17
0
0
0
0
0
-2.7755575615629e-17
-2.7755575615629e-17
-2.7755575615629e-17
0
2.7755575615629e-17
0
0
2.7755575615629e-17
2.7755575615629e-17
0
2.7755575615629e-17
0
0
0
0
-2.7755575615629e-17
0
-2.7755575615629e-17
0
2.7755575615629e-17
0
0
0
0
0
0
-2.7755575615629e-17
0
2.7755575615629e-17
-2.7755575615629e-17
0
0
0
0
2.7755575615629e-17
0
2.7755575615629e-17
0
2.7755575615629e-17
0
0
-2.7755575615629e-17
2.7755575615629e-17
0
0
0
0
0
0
-2.7755575615629e-17
2.7755575615629e-17
2.7755575615629e-17
0
0
-2.7755575615629e-17
0
0
0
0
2.7755575615629e-17
0
0
0
2.7755575615629e-17
0
2.7755575615629e-17
-2.7755575615629e-17
2.7755575615629e-17
2.7755575615629e-17
0
2.7755575615629e-17
0
0
-5.5511151231258e-17
0
2.7755575615629e-17
-2.7755575615629e-17
0
0
0
2.7755575615629e-17
0
-2.7755575615629e-17
-2.7755575615629e-17
0
0
0
2.7755575615629e-17
2.7755575615629e-17
0
2.7755575615629e-17
2.7755575615629e-17
0
0
0
2.7755575615629e-17
0
-5.5511151231258e-17
2.7755575615629e-17
0
-5.5511151231258e-17
3.0203617384927e-13
5.1947335322211e-13
7.1864736383986e-13
2.3961110873216e-12
5.6335769382798e-12
7.4353023737928e-12
6.4793725940149e-12
3.7917169404267e-12
1.807859417724e-12
2.6577906542258e-12
1.0250772453091e-11
3.6834424399501e-11
1.1117973208741e-10
2.8060259671392e-10
5.9396160212444e-10
1.0690745788633e-09
1.6737966013203e-09
2.3210236510529e-09
2.8318052625043e-09
2.9484357455534e-09
2.5075753695702e-09
1.6249471768148e-09
6.9753727793831e-10
1.7489956705141e-10
2.1984081222115e-11
1.1594614157673e-12
2.2204460492503e-14
1.3877787807814e-16
2.7755575615629e-17
0
0
0
0
-2.7755575615629e-17
0
-5.5511151231258e-17
0
-5.5511151231258e-17
0
0
-2.7755575615629e-17
0
2.7755575615629e-17
2.7755575615629e-17
2.7755575615629e-17
0
-2.7755575615629e-17
0
-2.7755575615629e-17
0
0
2.7755575615629e-17
0
-2.7755575615629e-17
0
0
0
0
0
0
0
2.7755575615629e-17
0
-2.7755575615629e-17
0
0
-5.5511151231258e-17
2.7755575615629e-17
0
-2.7755575615629e-17
-2.7755575615629e-17
0
-2.7755575615629e-17
0
0
2.7755575615629e-17
2.7755575615629e-17
-2.7755575615629e-17
0
0
0
-2.7755575615629e-17
-2.7755575615629e-17
0
0
0
0
-2.7755575615629e-17
-2.7755575615629e-17
0
-2.7755575615629e-17
2.7755575615629e-17
2.7755575615629e-17
-2.7755575615629e-17
2.7755575615629e-17
0
0
0
0
0
0
0
0
-2.7755575615629e-17
0
0
0
0
0
-2.7755575615629e-17
2.7755575615629e-17
0
0
0
0
-2.7755575615629e-17
0
0
0
2.7755575615629e-17
0
-2.7755575615629e-17
0
0
0
2.7755575615629e-17
0
2.7755575615629e-17
-2.7755575615629e-17
0
0
0
-2.7755575615629e-17
-2.7755575615629e-17
-2.7755575615629e-17
0
0
0
-2.7755575615629e-17
-2.7755575615629e-17
3.9135361618037e-15
4.7184478546569e-15
2.7478019859473e-15
8.1046280797636e-15
2.0178303472562e-14
2.1316282072803e-14
1.4377388168896e-14
1.0630385460786e-14
3.1197266991967e-14
1.4319101460103e-13
5.6368798517781e-13
1.8335055695928e-12
4.9302784077554e-12
1.0964729124652e-11
2.0108192888557e-11
3.0654478955228e-11
3.9461600653823e-11
4.3503506352849e-11
4.0982633953135e-11
3.2230884627893e-11
2.048408664912e-11
9.5601582206228e-12
2.7997049123485e-12
4.5433101725223e-13
3.5527136788005e-14
1.193489751472e-15
0
5.5511151231258e-17
0
2.7755575615629e-17
0
-2.7755575615629e-17
0
0
-2.7755575615629e-17
-2.7755575615629e-17
0
0
0
2.7755575615629e-17
-2.7755575615629e-17
-5.5511151231258e-17
0
-2.7755575615629e-17
-2.7755575615629e-17
-2.7755575615629e-17
2.7755575615629e-17
0
-2.7755575615629e-17
0
0
0
0
-2.7755575615629e-17
0
2.7755575615629e-17
0
2.7755575615629e-17
0
0
2.7755575615629e-17
-2.7755575615629e-17
0
0
0
2.7755575615629e-17
0
0
0
-2.7755575615629e-17
0
0
-2.7755575615629e-17
0
2.7755575615629e-17
0
2.7755575615629e-17
2.7755575615629e-17
0
0
2.7755575615629e-17
0
0
0
0
0
0
0
0
0
0
0
2.7755575615629e-17
0
2.7755575615629e-17
2.7755575615629e-17
2.7755575615629e-17
0
-2.7755575615629e-17
0
-2.7755575615629e-17
0
2.7755575615629e-17
-2.7755575615629e-17
-2.7755575615629e-17
2.7755575615629e-17
0
0
0
0
0
0
0
0
2.7755575615629e-17
0
-2.7755575615629e-17
0
0
0
0
0
0
-2.7755575615629e-17
0
2.7755575615629e-17
-2.7755575615629e-17
-2.7755575615629e-17
2.7755575615629e-17
0
0
5.5511151231258e-17
2.7755575615629e-17
-2.7755575615629e-17
5.5511151231258e-17
0
2.7755575615629e-17
0
0
2.7755575615629e-17
-1.3877787807814e-17
2.7755575615629e-17
2.7755575615629e-17
0
5.5511151231258e-17
2.7755575615629e-17
5.5511151231258e-17
2.2204460492503e-16
1.193489751472e-15
4.9682480351976e-15
1.7735812818387e-14
5.1403326040145e-14
1.2134737659153e-13
2.340627691666e-13
3.6529113067729e-13
4.6299075684431e-13
4.8297477128756e-13
4.1833203567876e-13
3.0034308373672e-13
1.7649770533978e-13
8.2600593032112e-14
2.7117197376469e-14
5.4123372450476e-15
5.8286708792821e-16
2.7755575615629e-17
-2.7755575615629e-17
-2.7755575615629e-17
-2.7755575615629e-17
0
-2.7755575615629e-17
0
0
-2.7755575615629e-17
2.7755575615629e-17
0
0
0
-2.7755575615629e-17
0
0
2.7755575615629e-17
0
0
0
0
0
0
2.7755575615629e-17
-2.7755575615629e-17
0
0
-2.7755575615629e-17
2.7755575615629e-17
2.7755575615629e-17
0
0
0
2.7755575615629e-17
0
0
0
-2.7755575615629e-17
0
-2.7755575615629e-17
0
0
0
0
2.7755575615629e-17
2.7755575615629e-17
2.7755575615629e-17
-2.7755575615629e-17
5.5511151231258e-17
2.7755575615629e-17
0
0
0
2.7755575615629e-17
0
0
-2.7755575615629e-17
5.5511151231258e-17
2.7755575615629e-17
0
0
0
0
0
0
0
-2.7755575615629e-17
0
0
0
0
0
5.5511151231258e-17
2.7755575615629e-17
0
0
0
0
0
0
0
2.7755575615629e-17
0
0
2.7755575615629e-17
-5.5511151231258e-17
0
0
0
0
0
0
0
2.7755575615629e-17
0
0
0
2.7755575615629e-17
-2.7755575615629e-17
2.7755575615629e-17
0
-2.7755575615629e-17
0
0
0
2.7755575615629e-17
0
-2.7755575615629e-17
-2.7755575615629e-17
0
0
2.7755575615629e-17
0
-2.7755575615629e-17
0
0
2.7755575615629e-17
0
2.7755575615629e-17
0
2.7755575615629e-17
0
2.7755575615629e-17
2.7755575615629e-17
2.7755575615629e-17
1.1102230246252e-16
3.3306690738755e-16
9.1593399531575e-16
1.8318679906315e-15
2.9976021664879e-15
3.9690473130349e-15
4.0800696154975e-15
3.4694469519536e-15
2.3592239273285e-15
1.3045120539346e-15
5.5511151231258e-16
1.6653345369377e-16
5.5511151231258e-17
-2.7755575615629e-17
2.7755575615629e-17
2.7755575615629e-17
0
0
0
0
5.5511151231258e-17
0
-2.7755575615629e-17
2.7755575615629e-17
-5.5511151231258e-17
0
-2.7755575615629e-17
-5.5511151231258e-17
2.7755575615629e-17
0
0
0
0
0
-2.7755575615629e-17
0
2.7755575615629e-17
0
0
-5.5511151231258e-17
2.7755575615629e-17
-2.7755575615629e-17
0
0
2.7755575615629e-17
0
2.7755575615629e-17
0
0
0
0
0
0
0
0
0
-2.7755575615629e-17
0
2.7755575615629e-17
0
0
2.7755575615629e-17
0
0
-5.5511151231258e-17
-2.7755575615629e-17
0
0
0
2.7755575615629e-17
0
-2.7755575615629e-17
0
-2.7755575615629e-17
0
0
-2.7755575615629e-17
0
0
0
-2.7755575615629e-17
0
0
0
-2.7755575615629e-17
0
2.7755575615629e-17
0
0
0
0
-2.7755575615629e-17
2.7755575615629e-17
0
2.7755575615629e-17
2.7755575615629e-17
5.5511151231258e-17
2.7755575615629e-17
0
0
0
0
0
0
2.7755575615629e-17
0
0
0
-2.7755575615629e-17
2.7755575615629e-17
0
0
0
0
0
-2.7755575615629e-17
0
-2.7755575615629e-17
0
0
0
0
5.5511151231258e-17
0
2.7755575615629e-17
-2.7755575615629e-17
0
0
2.7755575615629e-17
-2.7755575615629e-17
0
-1.3877787807814e-17
-2.7755575615629e-17
2.7755575615629e-17
-2.7755575615629e-17
2.7755575615629e-17
-2.7755575615629e-17
-5.5511151231258e-17
0
0
0
-2.7755575615629e-17
0
-2.7755575615629e-17
2.7755575615629e-17
5.5511151231258e-17
2.7755575615629e-17
0
0
0
0
0
-2.7755575615629e-17
0
0
2.7755575615629e-17
-2.7755575615629e-17
2.7755575615629e-17
-5.5511151231258e-17
0
2.7755575615629e-17
0
2.7755575615629e-17
0
0
-2.7755575615629e-17
-2.7755575615629e-17
0
0
0
-2.7755575615629e-17
0
0
2.7755575615629e-17
0
0
0
0
-2.7755575615629e-17
0
0
0
2.7755575615629e-17
0
0
-2.7755575615629e-17
2.7755575615629e-17
-2.7755575615629e-17
0
0
0
0
2.7755575615629e-17
0
0
0
5.5511151231258e-17
0
0
0
-2.7755575615629e-17
0
0
-2.7755575615629e-17
0
0
-2.7755575615629e-17
0
5.5511151231258e-17
-5.5511151231258e-17
0
-2.7755575615629e-17
0
-2.7755575615629e-17
2.7755575615629e-17
0
0
0
-2.7755575615629e-17
0
0
0
5.5511151231258e-17
0
0
0
-2.7755575615629e-17
-2.7755575615629e-17
0
2.7755575615629e-17
-2.7755575615629e-17
0
0
2.7755575615629e-17
-5.5511151231258e-17
0
2.7755575615629e-17
0
0
0
-5.5511151231258e-17
-2.7755575615629e-17