/*--------------------------------*- C++ -*----------------------------------*\
| =========                 |                                                 |
| \\      /  F ield         | OpenFOAM: The Open Source CFD Toolbox           |
|  \\    /   O peration     | Version:  2312                                  |
|   \\  /    A nd           | Website:  www.openfoam.com                      |
|    \\/     M anipulation  |                                                 |
\*---------------------------------------------------------------------------*/
FoamFile
{
    version     2.0;
    format      ascii;
    arch        "LSB;label=32;scalar=64";
    class       volScalarField;
    location    "1e-05";
    object      T;
}
// * * * * * * * * * * * * * * * * * * * * * * * * * * * * * * * * * * * * * //

dimensions      [0 0 0 1 0 0 0];

internalField   nonuniform List<scalar> 
109340
(
372.99977714521
372.99716924866
372.9925408559
372.98595617193
372.97750000916
372.96673312253
372.95273130595
372.93391043997
372.90763571467
372.8695951023
372.81261777996
372.72398606491
372.57852937772
372.32448001568
371.85650217554
371.00014188945
369.59415266283
367.67392405388
365.46025482307
363.18129544695
360.95402329821
358.84842569891
356.87868051117
355.03965323709
353.32239171803
351.71605012057
350.21165216014
348.79874594891
347.46859778489
346.21381448542
345.0274187698
343.90152664416
342.8300777759
341.80758018679
340.82891830388
339.8924701736
372.99928441626
372.99599745321
372.99069725092
372.9837352098
372.97491784615
372.96362095197
372.9487749987
372.92854152546
372.89995330429
372.85806281596
372.79463082023
372.69450229883
372.52765537279
372.23155194536
371.68253113893
370.69572602383
369.1465578102
367.12909970788
364.8865906432
362.61255351565
360.4133781209
358.34333853606
356.40844520231
354.6024195396
352.91497232588
351.33552119749
349.85439131156
348.46216561849
347.15075806552
345.91213759231
344.74045640037
343.62768253524
342.56745115699
341.55466711564
340.58522237644
339.65508566135
372.99931482672
372.99563472528
372.99026796592
372.98344610485
372.97483200264
372.96371605173
372.94906467045
372.92907869893
372.9007990043
372.85914208827
372.79542957522
372.69440074185
372.52633793613
372.22814197906
371.67533688205
370.68390230366
369.13129432932
367.11451052356
364.87540221782
362.60420091731
360.40686171074
358.3374562609
356.40336296415
354.59784476537
352.91180388892
351.33303162678
349.85265115363
348.46048096924
347.1485354822
345.91031532266
344.73820297248
343.62588527864
342.56565420616
341.55255470636
340.58241779635
339.65164474394
372.99926299338
372.99523820362
372.98981938151
372.98301227229
372.97444228826
372.96347346897
372.94904400205
372.929464233
372.90186507225
372.86123740057
372.79848422574
372.69697163646
372.52486210647
372.22017544488
371.66064041316
370.66240246
369.10696349543
367.09279496201
364.85779657207
362.59187241
360.39820912168
358.33017778157
356.39648940709
354.59198441609
352.90574724688
351.32765601993
349.84664268206
348.45457457242
347.14261969544
345.90380540087
344.73079896315
343.61653973806
342.55589045953
341.54196383765
340.5709663886
339.63943434187
372.99909120582
372.9943102326
372.98825465898
372.98106627622
372.97231237092
372.96132580925
372.94710784154
372.92805083345
372.90144025814
372.86247341957
372.80213846136
372.70307982697
372.53051800364
372.21374679225
371.62308047526
370.58793313311
369.01569683676
367.00913891658
364.78586840987
362.52863265608
360.34060608342
358.27439916818
356.34123383969
354.53531577585
352.84717211087
351.26551117058
349.78059980168
348.38382555542
347.06776445959
345.82589572392
344.65249396921
343.54408530944
342.49293229394
341.49638594566
340.55204006098
339.6533403722
373.00351510488
373.01797398242
373.03275424455
373.04611598385
373.05706027412
373.06457864106
373.06723995819
373.06296418306
373.04795518436
373.01622350142
372.95482767728
372.83498076559
372.58957735389
372.08637806753
371.17506599543
369.83409734831
368.15364729745
366.26157004111
364.31418674617
362.43016445061
360.68521516674
359.13223014818
357.77120984118
356.62071412146
355.63702877693
354.83005928131
354.18967145163
353.70142999485
353.34964744362
353.12206340564
353.00356804916
352.97791083907
353.02981953201
353.14435382758
353.29232738027
353.44783264715
338.99113511905
338.11928703628
337.27291714242
336.44283899643
335.62069558484
334.82478289715
334.05851806804
333.28333442511
332.42019378872
331.45524508784
330.4387432411
329.39376518923
328.37376900035
328.35057858627
328.26392074789
327.42816982732
326.35040221158
324.92882017007
322.90036739761
320.02025699248
316.29565211628
311.95999679948
306.97738048409
301.24987136856
294.76527136355
287.92894759227
281.12684741142
273.61159588169
260.41714047571
310.2708200279
299.56554191852
297.16751534402
296.18510096908
295.45000795001
294.90839378602
294.51068664532
294.2193828984
294.00788549553
293.85922646466
293.76495867657
293.71831591886
293.70681887795
293.71114520673
293.71466928009
293.70717157647
293.6850698239
293.65339805998
293.6208028367
293.59149925333
293.56668467501
293.54660184747
293.53119451584
293.51913042234
293.50704859094
293.48957659133
293.45801544193
293.40441443654
293.32887629381
293.24729341059
293.18329311903
293.14359162938
293.1251460313
293.12066311166
293.12077230884
293.12318226753
293.1269457682
293.13140893383
293.13622189304
293.14123553182
293.14641660957
293.15178990655
293.15740010172
293.16328736807
293.16947380754
293.17624855279
293.18414544474
293.19359885395
293.20508774546
293.2191608357
293.23631481535
293.25667440666
293.27941435506
293.30009451952
293.31116940617
293.31361258403
293.30755351423
293.28667812753
293.24656298754
293.19092185327
293.13165488893
293.08408188724
293.05070216913
293.029985396
293.01836581408
293.01179784233
293.00743984651
293.00457199573
293.00273761412
293.00159569393
293.00090472881
293.00049880147
293.00026741125
293.00013944676
293.00007084376
293.00002856307
293.00001411159
293.00000686725
293.00000327661
293.00000153797
293.00000070983
293.00000032217
293.00000014265
293.00000006201
293.00000002155
293.00000000749
293
293
293
293
293
293
293
293
293
293
293
293
293
293
293
293
293
293
293
293
293
293
293
293
293
338.75992952921
337.89353773339
337.04782227906
336.20666109097
335.35902900082
334.52504543179
333.71444577047
332.88538355148
331.99461189409
331.04303175887
330.05097475449
329.04222279159
328.27210551879
328.52924568323
327.78718998467
326.32491594888
324.3054108902
321.49335797368
317.64735670777
312.88931732578
307.43326450697
301.39144872404
294.99270284543
288.697984928
282.81593838701
277.72785663494
273.76326600878
268.8714238559
260.36274290647
312.79366448095
298.21578823205
296.80069826435
295.92309261241
295.26330479888
294.77476991369
294.41442747833
294.1500100307
293.95854522299
293.82619754582
293.74608073266
293.7106604175
293.70552319027
293.7113611331
293.71294782413
293.70180099295
293.67672555351
293.64425572511
293.61247847119
293.58444336869
293.5609823486
293.54223380906
293.52797287554
293.51631852718
293.50352090586
293.48331690224
293.44664331313
293.38686086049
293.30733873166
293.22865959264
293.1707458871
293.13693036307
293.12305448746
293.12025535183
293.12107248846
293.12391319693
293.12791555027
293.13250698708
293.13739599807
293.14246776923
293.14770722788
293.15314694285
293.15883215097
293.16479881558
293.17108575657
293.17810331278
293.18635006956
293.19626530005
293.20834778086
293.22315192035
293.24112002666
293.26221471088
293.28508547588
293.30403354181
293.31241853069
293.31362366831
293.30757142568
293.28662179639
293.24649663522
293.19103420167
293.13170256136
293.08408755885
293.05070389269
293.02998664659
293.01836671923
293.01179908554
293.00744083824
293.00457269959
293.00273809154
293.00159600718
293.00090492782
293.00049892376
293.00026748384
293.00013948838
293.00007086634
293.00002857393
293.00001411765
293.00000686991
293.00000327825
293.00000153879
293.00000071022
293.00000032236
293.00000014274
293.00000006205
293.00000002157
293.00000000752
293
293
293
293
293
293
293
293
293
293
293
293
293
293
293
293
293
293
293
293
293
293
293
293
293
338.75766430308
337.89411134328
337.04181853165
336.1694935716
335.26233431289
334.35632658751
333.48222666151
332.63131842299
331.76156279144
330.85272436925
329.93043625547
329.06786412682
328.74919818764
328.26971792712
326.84761951964
324.33082892446
320.73057335358
315.61367595485
308.89474640106
301.47176865633
294.19835814759
287.6439514846
282.40632598695
278.91597944324
277.03495523833
276.3661067194
276.10486118036
270.47661809197
261.57256061598
310.72286813447
297.87938216792
296.66428687062
295.8400069197
295.21166543063
294.74177714141
294.39273272925
294.13535574904
293.94848554564
293.81931525523
293.74142763373
293.70748230421
293.70317785666
293.70944645351
293.71118686058
293.70014178324
293.67522485965
293.64302168832
293.611554914
293.5838185907
293.56061931058
293.54208534037
293.52798882512
293.51641650577
293.50360791605
293.48326474413
293.44632483072
293.38623452998
293.30652435786
293.22791945616
293.17018057476
293.13653336171
293.12279074991
293.12003342361
293.12087342311
293.12373769237
293.12776477651
293.13238277268
293.13729830835
293.14239470916
293.14765562923
293.15311282557
293.15881136884
293.16478729818
293.17108139049
293.17810431711
293.18635308253
293.19626874077
293.2083509885
293.223154598
293.24112221216
293.26221759957
293.28509396311
293.30405824846
293.31245464049
293.3136363723
293.30759231187
293.28638880995
293.24636796792
293.1912452455
293.13179062177
293.08409614523
293.05070608027
293.02998802215
293.01836768689
293.01180010516
293.00744167826
293.00457330293
293.002738501
293.00159627459
293.00090509656
293.00049902676
293.00026754466
293.000139523
293.00007088507
293.00002858237
293.00001412239
293.00000687252
293.00000327962
293.0000015395
293.00000071056
293.00000032253
293.00000014282
293.00000006209
293.00000002159
293.00000000716
293
293
293
293
293
293
293
293
293
293
293
293
293
293
293
293
293
293
293
293
293
293
293
293
293
338.74510336096
337.87013077222
336.96573515688
336.0058342816
335.01074464116
334.05029853678
333.1642016449
332.33044959903
331.48412156097
330.64042289987
329.87543881267
329.34338635354
328.80361848835
327.39171022347
324.40199998967
319.3841083289
312.25263472211
303.12995813029
294.17213101322
288.09942531741
285.81560936525
286.48171439667
289.4955026516
293.45946591508
296.50666541566
298.40903813187
295.92909064012
276.82573040353
266.70374674569
307.26145970366
297.47308027846
296.47923629612
295.72619689345
295.14027452299
294.69581653597
294.36233138792
294.11473380226
293.93428251142
293.8095981391
293.73487897189
293.70302549894
293.69987313654
293.70673387496
293.70869172906
293.69778760557
293.67308846147
293.64126120572
293.61023563411
293.58292387675
293.56009659046
293.54187104668
293.5280043352
293.51654726163
293.50372408964
293.48318094736
293.44586006418
293.38533179657
293.30534426471
293.22685614939
293.16937223376
293.13597080496
293.12241698185
293.11971576724
293.12058785582
293.12348540272
293.12754744314
293.13220304548
293.13715638418
293.14228815116
293.14757993568
293.1530623136
293.15878005554
293.16476946215
293.17107333477
293.17810376312
293.18635540964
293.19627177981
293.2083538558
293.22315684242
293.24112391388
293.26222067376
293.28510251996
293.30407328064
293.31247493744
293.31366244461
293.30755418288
293.28628092042
293.24631858227
293.19132086753
293.13183139471
293.08410217821
293.05070822387
293.0299894321
293.01836867564
293.01180103227
293.00744243749
293.00457385223
293.0027388753
293.0015965191
293.00090525054
293.0004991204
293.00026759962
293.00013955406
293.00007090164
293.00002858962
293.00001412674
293.00000687504
293.00000328098
293.0000015402
293.00000071092
293.0000003227
293.00000014289
293.00000006214
293.00000002158
293.00000000715
293
293
293
293
293
293
293
293
293
293
293
293
293
293
293
293
293
293
293
293
293
293
293
293
293
338.78031929724
337.81377246207
336.72804269569
335.65153663171
334.62977518134
333.6599141415
332.77569901
331.97073939148
331.20619951284
330.53249949309
330.00935699954
329.37084678277
328.06236463586
324.66708569953
317.58101219328
307.4987856321
298.04496528698
295.92350507927
305.52680816352
316.82726654037
323.86693371201
328.61549771523
331.96977498739
334.01109830379
334.53781813353
333.15324818822
325.71749823963
282.33033691113
279.36863361711
302.81695287013
297.05672053445
296.25682318826
295.58728379537
295.05201859814
294.63841527063
294.32407020988
294.0886366485
293.91623501152
293.7972292474
293.72656763876
293.69739278972
293.69567929435
293.70326923207
293.70548979449
293.69475940855
293.67033347755
293.63898735047
293.60852660028
293.58175753304
293.55940624895
293.54157796175
293.52800241522
293.5166925401
293.50385112505
293.48304665329
293.4452333669
293.38414242958
293.30380261074
293.22547876513
293.16833210538
293.13525265752
293.12194069498
293.11930862773
293.12022001687
293.12315897937
293.12726496394
293.13196818347
293.13696984485
293.14214719077
293.14747904216
293.15299437407
293.15873747116
293.1647447247
293.17106150875
293.1781018827
293.18635767475
293.19627534921
293.20835753388
293.22315999925
293.24112636876
293.26222412329
293.28510953552
293.30407719321
293.31247303344
293.31366052677
293.30748562488
293.28620934103
293.24628192608
293.19135920368
293.13185224686
293.08410601043
293.05071029197
293.02999097447
293.01836980823
293.01180201099
293.00744322037
293.00457441834
293.00273926184
293.00159677194
293.00090540971
293.00049921704
293.00026765622
293.00013958584
293.00007091803
293.00002859677
293.00001413161
293.00000687792
293.00000328255
293.00000154102
293.00000071133
293.00000032289
293.00000014295
293.00000006219
293.00000002159
293.00000000713
293
293
293
293
293
293
293
293
293
293
293
293
293
293
293
293
293
293
293
293
293
293
293
293
293
350.83355084221
342.56210739883
338.091270299
335.92079223246
334.54099692248
333.51362355144
332.67149689397
331.87921046916
331.23289388207
330.63844451836
329.85877472016
328.49958270525
324.96915564633
316.41433635853
305.12679941525
309.12240862907
331.49194044649
350.05645115879
356.94255172796
357.03853612897
356.08890237458
355.77317915645
356.08343340598
356.5432198015
356.29643050099
354.85275006151
341.27335295259
278.53598807044
302.21472482902
299.09478682788
296.64476823575
296.00966289447
295.42985256589
294.95033643977
294.57143971651
294.27900467633
294.05769163165
293.89473956695
293.78246349725
293.7166611822
293.69071852306
293.69068281707
293.69910860006
293.70162019744
293.69108875544
293.66698629405
293.63621952146
293.60643812419
293.58032089486
293.55854217813
293.54119308773
293.52796719425
293.51683350898
293.50396632033
293.48284114643
293.4444271669
293.38265545629
293.30190194268
293.22379746968
293.16707309917
293.13439064027
293.12137117108
293.11881943355
293.11977562243
293.12276204264
293.12691930385
293.13167878761
293.13673831942
293.14197091083
293.14735184381
293.15290791352
293.1586826011
293.1647122489
293.17104563509
293.17809873355
293.18636013966
293.19627977955
293.2083623136
293.22316422131
293.24112952437
293.26222737695
293.28511407899
293.30407389874
293.31245830071
293.31363916269
293.30742738561
293.28615366478
293.24625785122
293.19137362771
293.13186050687
293.08410828049
293.05071242494
293.0299927664
293.01837114687
293.01180310195
293.00744407373
293.00457503162
293.00273967944
293.00159704441
293.00090558086
293.00049932076
293.00026771684
293.00013961974
293.00007093493
293.00002860465
293.00001413866
293.00000688218
293.00000328482
293.00000154216
293.0000007119
293.00000032314
293.00000014303
293.00000006223
293.00000002161
293.00000000714
293
293
293
293
293
293
293
293
293
293
293
293
293
293
293
293
293
293
293
293
293
293
293
293
293
368.9415335043
348.32709027238
343.4026330786
338.91845604691
336.07538307636
334.29101755171
333.1598178043
332.28985655163
331.51207761295
330.61788459036
329.12101741766
325.65734499387
317.73116409559
310.13067280976
333.13964353933
364.83378772647
365.05041402875
352.19892741541
341.78999067308
337.22952012045
336.72228708228
339.08788216592
343.69580926949
349.43249514225
355.68125365314
360.85391555962
341.5168036569
280.49778240875
307.76371399915
298.31553443089
296.35231767971
295.87782707997
295.37768087571
294.93676973564
294.5751623662
294.28913776626
294.06871486888
293.90372396675
293.78747038405
293.71650572071
293.68569659458
293.68328303028
293.69222806362
293.69738718652
293.69083839303
293.66994037598
293.64058754381
293.61094542809
293.5845672702
293.56237417782
293.54449663971
293.53078935309
293.51969470505
293.50775167999
293.48921424124
293.455297872
293.39867529747
293.32088380785
293.23961116283
293.17732386797
293.13940666343
293.12240813214
293.11846102465
293.11877706902
293.12140062271
293.12538541618
293.13009332642
293.13516107866
293.14042086572
293.14582324637
293.15138265506
293.15713932008
293.16313289249
293.16939171266
293.17623182841
293.18415875759
293.19362299039
293.20511435305
293.21918527044
293.23633480441
293.25669707343
293.27945214447
293.30015184407
293.31120590533
293.31360900619
293.3073789247
293.2861082922
293.24623340608
293.19137198408
293.13186116029
293.08410959231
293.05071473463
293.02999488084
293.01837271102
293.01180432738
293.00744501812
293.00457570796
293.00274013968
293.00159734453
293.00090576918
293.00049943469
293.00026778331
293.00013965684
293.00007095352
293.00002861671
293.00001415125
293.00000688283
293.00000328897
293.0000015442
293.00000071291
293.00000032362
293.0000001432
293.00000006232
293.00000002165
293.00000000716
293
293
293
293
293
293
293
293
293
293
293
293
293
293
293
293
293
293
293
293
293
293
293
293
293
370.61814665715
392.50423852574
346.55159330208
337.78332102197
335.25632637311
333.02458254378
330.36632616189
327.62212413014
324.1736273571
320.72394527103
322.22139381419
339.73210064586
369.38521258014
350.67746705804
321.49258868895
311.81355603776
310.52064671252
312.0977365405
315.56888434801
320.29573202954
325.13486680002
328.9259261483
333.91745664332
342.60925492033
345.53980217718
309.17646018316
286.09295003259
308.67942684089
296.89794393412
295.57132690436
295.50292937661
295.23449608567
294.90941325928
294.60019628873
294.33335359494
294.11492850536
293.94309807091
293.81434007599
293.72702188793
293.67952701048
293.66599346116
293.67197249284
293.68315682582
293.68652598214
293.67662922596
293.65373727676
293.62521777228
293.59804725942
293.57442717239
293.55484639156
293.539343464
293.52747776749
293.51700253123
293.50399110262
293.48154581473
293.4407150564
293.37627427261
293.29407572082
293.21705325438
293.16213857111
293.13109143915
293.11922023865
293.11695116819
293.11805611202
293.12119804
293.12553192551
293.13049415527
293.13577133557
293.14121957211
293.14679826049
293.15252295
293.15843143062
293.16455788858
293.17096795889
293.17807839016
293.18636708897
293.19629743251
293.20838247261
293.22318220524
293.2411421167
293.26223412918
293.2851120683
293.30403611536
293.3123784995
293.31353491107
293.30728624398
293.2860217133
293.24617441309
293.19134427276
293.13185217324
293.08411085068
293.05072026884
293.03000021068
293.01837658598
293.01180725753
293.00744723677
293.0045772826
293.00274120554
293.00159803693
293.00090620224
293.00049969591
293.00026793532
293.00013974186
293.00007099772
293.00002863702
293.00001416354
293.00000688955
293.00000329238
293.00000154568
293.00000071369
293.00000032408
293.00000014356
293.00000006247
293.0000000217
293.00000000718
293
293
293
293
293
293
293
293
293
293
293
293
293
293
293
293
293
293
293
293
293
293
293
293
293
355.5749341578
328.98652784616
338.51705625577
360.94101265071
374.33811535535
376.9218273175
374.66138897409
372.66504654747
370.12659597267
362.58780325944
342.87690392001
319.98383689744
305.15915115831
301.20170876943
301.32309971447
302.4271921054
303.76593897486
305.01491452544
307.08325641627
311.51459365572
317.51141280063
320.49342140715
316.90813938557
303.14690778055
293.75523322301
298.78009015165
302.72034768192
294.99728197305
294.43174805325
294.81961546636
294.88454267355
294.76769832117
294.57188195704
294.3598304365
294.16260921747
293.99334101818
293.85622581266
293.75267501454
293.68442070405
293.65111769735
293.64665905185
293.65755114508
293.67040913246
293.67415808397
293.66459545694
293.64264862657
293.61596102495
293.59087821317
293.56924298763
293.55141451778
293.53739536631
293.52660812774
293.51666036787
293.50347120879
293.4798263858
293.43690160315
293.37025980328
293.28712845615
293.21127853081
293.15805920516
293.12846959214
293.1175520008
293.11547898385
293.1166762353
293.11990938646
293.12435574721
293.12945942918
293.13490095416
293.14052288711
293.14626949188
293.15214372447
293.15817525031
293.16439301118
293.17088277794
293.17804990054
293.18636761953
293.19631085159
293.20839959556
293.22319777702
293.24115254165
293.26223668158
293.28510074261
293.30399425874
293.31230752882
293.31345062925
293.3071902836
293.28592627716
293.24609670107
293.1912967085
293.13183534026
293.08411174537
293.05072735819
293.0300070585
293.01838145283
293.0118108416
293.00744990888
293.00457915977
293.00274246731
293.00159885231
293.00090671005
293.00050000111
293.00026811246
293.00013984113
293.00007105138
293.0000286612
293.00001417632
293.00000689627
293.00000329578
293.00000154729
293.00000071449
293.00000032449
293.00000014379
293.00000006257
293.00000002174
293.00000000719
293
293
293
293
293
293
293
293
293
293
293
293
293
293
293
293
293
293
293
293
293
293
293
293
293
356.73140504732
319.59164246301
302.49524392232
298.9685897999
300.79883393518
303.59074245079
305.19203703503
304.63715238844
302.17641139402
299.24243485194
297.31001181979
296.64142513579
296.63939174402
296.87648122869
297.29611727
297.91472410594
298.59140852804
298.97920481701
298.79087854773
297.80891548796
296.57793659892
295.81264267473
296.26620003566
299.04000258139
298.72879365171
294.84768715592
292.8513633707
293.33272188971
293.93518897703
294.27991466908
294.40016582185
294.37313339466
294.2691459309
294.13410697485
293.99633480061
293.87161509345
293.76761995856
293.68930243378
293.64071734162
293.62249253944
293.62668992304
293.64254285829
293.65666833735
293.66051306752
293.65112774056
293.63019115869
293.60551148107
293.58266905876
293.56315007811
293.54719669745
293.5347774697
293.52513760479
293.51573857078
293.50225058075
293.47712563519
293.43174395446
293.36267034562
293.27883242404
293.20461741549
293.153514946
293.12567448711
293.11581855463
293.11393311358
293.11520353421
293.11849853653
293.12303049121
293.12825767388
293.13385870041
293.13966315388
293.14559746894
293.15164734219
293.15782917822
293.16416209612
293.17076068548
293.17800163674
293.186359935
293.19632267135
293.20841822422
293.22321534179
293.24116381299
293.26223760703
293.28508388863
293.30394184088
293.31222347835
293.31335454161
293.30708126772
293.28581416274
293.24600138594
293.19123709284
293.13181498171
293.08411331108
293.05073623888
293.03001543779
293.01838728845
293.01181506447
293.00745302112
293.00458132667
293.00274391409
293.0015997825
293.00090728704
293.00050034676
293.00026831255
293.00013995312
293.00007111208
293.00002868821
293.0000141904
293.00000690355
293.00000329944
293.00000154907
293.00000071534
293.00000032489
293.00000014399
293.00000006266
293.00000002177
293.0000000072
293
293
293
293
293
293
293
293
293
293
293
293
293
293
293
293
293
293
293
293
293
293
293
293
293
357.7678434172
321.9898648858
302.36973830566
295.65842273495
294.20074505002
294.05725784336
294.15982332971
294.28570341437
294.42010865464
294.57416636563
294.72934090436
294.85659693007
294.93953722551
294.9809452753
294.99367213161
294.98775052323
294.95772214131
294.90308297619
294.79938541111
294.62711571968
294.37015691688
293.85868529218
292.98518621445
292.00297140793
291.55751315547
291.91082866536
292.54545972664
293.14567162956
293.60216113017
293.89074793036
294.02770399787
294.05236077506
294.00979164023
293.93195347636
293.84230481933
293.7558399373
293.68197277095
293.62782114284
293.59864898585
293.59469588468
293.60753774247
293.62756697933
293.64242293331
293.64602057515
293.63663001836
293.61675583546
293.59418414127
293.57363718024
293.556270373
293.54223565346
293.53146209498
293.52297269315
293.51408100134
293.50011437874
293.47318324936
293.42499594652
293.35336027436
293.26923100957
293.19718918061
293.14864059614
293.12283262392
293.11410567788
293.11240048612
293.11372180633
293.11703883333
293.12161344872
293.12692724584
293.13266334143
293.13864204676
293.14477172439
293.15101690323
293.15737418142
293.16385759692
293.17058994329
293.17792448059
293.18633802025
293.19632912057
293.20843629356
293.22323374348
293.24117491841
293.26223585665
293.28506077134
293.30387831981
293.31212465749
293.31324272634
293.30695451163
293.285683676
293.24589088491
293.19116927164
293.13179301487
293.08411617676
293.05074706626
293.03002534344
293.01839405437
293.01181988955
293.00745654179
293.004583758
293.00274552718
293.00160081459
293.00090792479
293.00050072762
293.00026853246
293.00014007598
293.00007117858
293.00002871752
293.00001420558
293.0000069113
293.00000330332
293.00000155095
293.0000007162
293.0000003253
293.00000014418
293.00000006275
293.0000000218
293.00000000721
293
293
293
293
293
293
293
293
293
293
293
293
293
293
293
293
293
293
293
293
293
293
293
293
293
358.27942101825
323.58457948491
303.28556653381
295.77956202626
293.99143327892
293.69641090569
293.72824772889
293.83308534191
293.9593474277
294.08619092935
294.1946233841
294.26466326555
294.27615489355
294.21424505003
294.06268586316
293.80894191783
293.44410299834
292.96617265972
292.40888293603
291.83275585595
291.33964403158
291.04312509392
291.00488890172
291.22088470015
291.62226359782
292.10044850365
292.58617921936
293.02250237683
293.37048964991
293.60962605325
293.74515490675
293.7980979424
293.79405018182
293.75715960757
293.70488303772
293.65014832217
293.60288340156
293.57112573002
293.56078804612
293.56907246662
293.59009968758
293.6130763037
293.62801413816
293.63101414767
293.62146544247
293.60271977387
293.58229593033
293.5640209753
293.54876547392
293.53662718001
293.52747500976
293.52007808121
293.51158026943
293.49687097306
293.4677466659
293.41641693594
293.34220225961
293.25838705039
293.18911453341
293.14355635249
293.12005223502
293.11247105985
293.11094943418
293.11230527468
293.11560526703
293.12017024087
293.1255187769
293.13134702615
293.13747210527
293.14378792449
293.15023710075
293.15679777954
293.16346799782
293.1703557282
293.17780691659
293.1862939459
293.19632528194
293.20845076574
293.22325119406
293.24118448278
293.26223001328
293.28502977665
293.30380223941
293.31200973475
293.31311335553
293.30680886689
293.28553528454
293.24576702981
293.19109522697
293.13177057056
293.08412082737
293.05075996146
293.03003674935
293.01840169476
293.01182526463
293.00746042762
293.00458642111
293.00274728352
293.00160193309
293.00090861337
293.00050113757
293.00026876858
293.00014020764
293.00007124973
293.00002874865
293.00001422167
293.00000691947
293.00000330738
293.0000015529
293.00000071709
293.00000032571
293.00000014437
293.00000006283
293.00000002184
293.00000000723
293
293
293
293
293
293
293
293
293
293
293
293
293
293
293
293
293
293
293
293
293
293
293
293
293
358.57182476784
324.50488112837
303.92708192138
295.96873457427
294.00057562674
293.64924829175
293.64820169985
293.72000000604
293.80406075592
293.88427037109
293.94709410565
293.97721370896
293.95828919039
293.87626811168
293.72040713664
293.48537043553
293.16883264878
292.78390803694
292.36398321569
291.9625363986
291.64873966866
291.48155063375
291.49319955403
291.65472081951
291.92939798926
292.26561781369
292.61580463117
292.93809540148
293.20853705915
293.40585523088
293.5320731871
293.59778435818
293.61835614831
293.60989634091
293.5858845856
293.55701480249
293.53282317245
293.52189247233
293.52720403392
293.54713938165
293.57470932562
293.59929212204
293.61362194243
293.61572220791
293.60593947058
293.58842203012
293.57014364477
293.55406796656
293.54083501283
293.53052157685
293.52290138363
293.51647302794
293.50817214786
293.49235321343
293.46057820399
293.4057866396
293.32910334217
293.2463950089
293.18051803369
293.13836929707
293.11741128492
293.11094352562
293.10962541459
293.11100950948
293.1142616824
293.11876795636
293.12409169319
293.12995514192
293.13617951527
293.1426495108
293.14931013234
293.15609918643
293.16297117909
293.17004087106
293.17763483147
293.18621744379
293.1963047194
293.2084572692
293.22326506769
293.24119067439
293.26221820439
293.28498895104
293.30371214518
293.31187791981
293.31296582806
293.30664429365
293.28536978477
293.24563124979
293.19101654151
293.13174877337
293.08412771909
293.05077501217
293.03004960253
293.01841013632
293.01183112579
293.0074646279
293.00458927903
293.00274915758
293.00160312114
293.00090934205
293.00050157005
293.00026901703
293.00014034589
293.00007132432
293.00002878109
293.00001423844
293.00000692797
293.0000033116
293.00000155498
293.00000071812
293.00000032617
293.0000001445
293.00000006284
293.00000002185
293.00000000724
293
293
293
293
293
293
293
293
293
293
293
293
293
293
293
293
293
293
293
293
293
293
293
293
293
358.74683517855
325.04835536384
304.34779370221
296.11378031269
294.00801677964
293.61969437547
293.58720673906
293.631006648
293.68482036521
293.73312607191
293.76555422273
293.76917070771
293.73416919013
293.64944212503
293.51043512483
293.31640948032
293.06565880556
292.77667299052
292.47256586635
292.18955233814
291.96999417036
291.8490750452
291.85005442536
291.95607425608
292.14593982102
292.38570340658
292.64181204585
292.88460906764
293.09462843897
293.25751779337
293.37161821224
293.44184450109
293.47728069658
293.48846581941
293.48557788303
293.47764156176
293.47381060463
293.48030220547