/*--------------------------------*- C++ -*----------------------------------*\
| =========                 |                                                 |
| \\      /  F ield         | OpenFOAM: The Open Source CFD Toolbox           |
|  \\    /   O peration     | Version:  2312                                  |
|   \\  /    A nd           | Website:  www.openfoam.com                      |
|    \\/     M anipulation  |                                                 |
\*---------------------------------------------------------------------------*/
FoamFile
{
    version     2.0;
    format      ascii;
    arch        "LSB;label=32;scalar=64";
    class       volScalarField;
    location    "1e-05";
    object      TpSat;
}
// * * * * * * * * * * * * * * * * * * * * * * * * * * * * * * * * * * * * * //

dimensions      [0 0 0 1 0 0 0];

internalField   nonuniform List<scalar> 
109340
(
372.9997764424
372.99716900831
372.99254069514
372.98595605936
372.97749994676
372.96673310815
372.95273134902
372.93391055957
372.90763597048
372.86959554366
372.81261900463
372.72398896845
372.57853659058
372.3244992433
371.85655383797
371.0002764271
369.59444754997
367.6744727344
365.46095984054
363.18240523817
360.9554017401
358.85007525116
356.88061797933
355.04188570786
353.3249237299
351.71887740884
350.21476614302
348.80214193782
347.47226808858
346.21775072576
345.03163811445
343.90604815904
342.83492996902
341.81276782068
340.83442091846
339.89830316603
372.99928410089
372.99599728568
372.99069713235
372.98373513727
372.97491782682
372.96362098755
372.94877511181
372.92854174979
372.89995371173
372.85806384942
372.79463253865
372.69450617594
372.5276649059
372.23157702367
371.68259818242
370.69589353327
369.14691442871
367.12970279187
364.88746464678
362.6137429461
360.4148355438
358.34506257729
356.41045769506
354.60472630586
352.91757392425
351.33841678497
349.85757662456
348.46563411904
347.15450154662
345.91615592308
344.74475952955
343.63229455514
342.57239639159
341.55996095175
340.5908200965
339.66108237824
372.99931459023
372.99563455677
372.99026784378
372.98344603603
372.97483201066
372.96371614521
372.94906487201
372.92907904115
372.90079956143
372.8591428616
372.79543141285
372.69440529409
372.52634757653
372.22816723031
371.67540437483
370.68407005655
369.13165053915
367.1151104452
364.87627218604
362.60538955811
360.40832107337
358.33918150873
356.40537450145
354.60014767889
352.91440014952
351.33592224322
349.85583298742
348.46394775844
347.15227990472
345.91433467937
344.74251529712
343.6305098236
342.5706087931
341.55785078441
340.58806632642
339.6576667397
372.99926280512
372.995238075
372.98981934563
372.98301231669
372.97444241647
372.96347369389
372.94904435043
372.92946475113
372.90186585432
372.86123852738
372.79848644536
372.6969759304
372.52487192786
372.22020265964
371.66070878727
370.66257000998
369.10731859648
367.09339494451
364.85866018893
362.59305984911
360.39967062287
358.33190537811
356.39850175512
354.59428558462
352.9083406603
351.33054193969
349.84981791069
348.45803359841
347.14635704873
345.90781993888
344.73511023094
343.62116920612
342.56085891905
341.54728866739
340.57665378395
339.64548736814
372.99909112686
372.99431025644
372.98825473795
372.98106642156
372.97231259573
372.9613261348
372.94710829864
372.92805147597
372.90144119106
372.86247487812
372.80214089421
372.70308455797
372.53052859532
372.21377386779
371.62315078958
370.58810647485
369.01605289605
367.00973335849
364.78672778377
362.52981782822
360.34207026996
358.27613013509
356.343246952
354.53761635759
352.84976254
351.26839283657
349.78377028671
348.38727794584
347.0714925727
345.8299048482
344.6567990911
343.54871344299
342.49790991105
341.50172578893
340.55774287529
339.65940441664
373.00351510955
373.01797404004
373.03275434964
373.04611614808
373.05706051249
373.06457897166
373.06724041118
373.0629648015
373.04795608151
373.0162248581
372.95483002779
372.83498413595
372.58958882321
372.0864087502
371.17514278132
369.83426580497
368.15398214053
366.26211048217
364.31496669276
362.43119224068
360.68647058053
359.1336918576
357.77287799857
356.62258763321
355.63910265696
354.83232872139
354.19212756007
353.70406003058
353.35243791259
353.12501021053
353.00667971067
352.98120226473
353.03330717798
353.14804842354
353.29622767892
353.45193671888
338.99762015083
338.12642660728
337.28047672927
336.45083626837
335.62928008183
334.83454246206
334.07010333787
333.29761466467
332.43849878752
331.47839569584
330.46832578053
329.44444423577
328.34737331034
328.22556018806
328.26957457562
327.44252464496
326.35828793101
324.93213603664
322.90808072498
320.0364927866
316.313627925
311.9632231452
306.96809079856
301.23888802762
294.76161316342
287.91628752032
281.09699362919
273.587805481
260.41158069506
310.30808822932
299.56841200976
297.16921619837
296.18578376202
295.45028675186
294.90850939072
294.51073276356
294.21939807978
294.00788495776
293.85921422578
293.76493930173
293.71829821785
293.70681241573
293.7111509799
293.71468156589
293.70718895811
293.68508364573
293.65340339496
293.62080488815
293.5914993572
293.56668360117
293.54659989043
293.53119283694
293.51913103105
293.50705333221
293.48958909879
293.458035639
293.40443609612
293.32888703785
293.24728188205
293.183275677
293.14357602419
293.12513529474
293.12066091904
293.12077105861
293.12318157888
293.12694547269
293.13140880049
293.13622178488
293.14123536955
293.14641638628
293.15178961137
293.15739972077
293.16328692323
293.16947278195
293.17624727922
293.18414380096
293.19359678041
293.20508521408
293.21915784757
293.23631155211
293.25667155084
293.27941595768
293.3001031775
293.31117140803
293.31362107387
293.30757474225
293.28670590652
293.24658558075
293.19092973137
293.13163817448
293.08406235655
293.05068477381
293.02997289977
293.01835926022
293.01179569712
293.00743795167
293.0045706842
293.00273673374
293.00159511959
293.00090436513
293.00049857835
293.00026727878
293.00013937066
293.00007080132
293.00002853868
293.00001409858
293.00000685981
293.00000327661
293.00000153797
293.00000070983
293.00000032217
293.00000014265
293.00000006201
293.00000002155
293.00000000749
293
293
293
293
293
293
293
293
293
293
293
293
293
293
293
293
293
293
293
293
293
293
293
293
293
338.76650114398
337.90071054855
337.05547111512
336.21483171292
335.3679686673
334.53541779588
333.72702727144
332.90084726827
332.01456360654
331.06904200751
330.08590999346
329.07119223278
328.15570621739
328.48179504524
327.79166088448
326.34083389093
324.31155133081
321.49748270887
317.6578836611
312.90663808607
307.44637598578
301.39273724721
294.98227081875
288.6897280956
282.80868857043
277.71116097434
273.73236172929
268.84719169163
260.37281480182
312.81203812648
298.21864342356
296.8019322519
295.92360211668
295.26351908274
294.77486128356
294.41446452339
294.15002208967
293.95854302586
293.82618423739
293.74606191686
293.71064530247
293.70551845054
293.71136968969
293.71296516949
293.7018183695
293.67673775397
293.6442601991
293.61247992257
293.58444310558
293.56098099209
293.54223167521
293.52797155508
293.51631962594
293.5035272707
293.48333140559
293.44666464084
293.3868809303
293.30733906035
293.22864567946
293.17072863553
293.13691531871
293.12305066338
293.12025347684
293.12107133434
293.12391266729
293.12791536122
293.13250692255
293.13739592513
293.14246761934
293.14770698725
293.1531466193
293.15883175901
293.16479837376
293.17108475088
293.17810197874
293.1863483622
293.19626315528
293.20834513744
293.22314885092
293.24111687151
293.26221233841
293.2850882197
293.30404379304
293.31242347837
293.31363232797
293.30759257651
293.28664973888
293.24651893162
293.19104258377
293.13168545121
293.0840679917
293.050686479
293.02997413501
293.01836017178
293.01179689216
293.00743890823
293.00457136361
293.00273719457
293.00159542186
293.00090455707
293.00049869625
293.00026734873
293.00013941074
293.00007082303
293.00002854895
293.00001410431
293.00000686182
293.00000327825
293.00000153879
293.00000071022
293.00000032236
293.00000014274
293.00000006205
293.00000002157
293.00000000752
293
293
293
293
293
293
293
293
293
293
293
293
293
293
293
293
293
293
293
293
293
293
293
293
293
338.76415715926
337.90112997357
337.04936997897
336.17763210275
335.2714876069
334.3671698357
333.49559939051
332.64752500968
331.78127390642
330.8776539134
329.94844608105
329.03897688472
328.67447280635
328.23309479832
326.8485331332
324.34431066396
320.73695184356
315.6194477568
308.90614289347
301.48877385508
294.21172064566
287.64589871736
282.39727399314
278.9077190667
277.02604430451
276.34976504698
276.06788533543
270.44967300262
261.58457312558
310.73151434279
297.88183437406
296.66537832984
295.84046875147
295.21186296392
294.74186220114
294.3927672067
294.13536660496
293.94848269709
293.81930163659
293.74140873888
293.70746722821
293.70317271872
293.70945507314
293.71120436528
293.70015897918
293.67523691615
293.64302601878
293.61155628719
293.58381830468
293.56061795873
293.54208323333
293.52798760037
293.51641770346
293.50361442296
293.48327940319
293.44634620518
293.38625443435
293.3065241505
293.2279053051
293.17016320275
293.13651824438
293.12278696562
293.12003154728
293.12087226304
293.12373717073
293.12776460805
293.13238274283
293.13729828521
293.14239462042
293.1476554446
293.15311254247
293.15881100253
293.16478687157
293.17108040296
293.17810299739
293.18635139125
293.196266614
293.20834836789
293.22315155276
293.24111908334
293.26221525871
293.28509675099
293.30406859055
293.3124594619
293.31364524646
293.30761315419
293.28641663227
293.24638998219
293.19125474505
293.13177279215
293.08407650665
293.05068865602
293.02997550301
293.01836113382
293.0117978976
293.00743973781
293.00457195971
293.00273759919
293.00159568613
293.00090472384
293.00049879804
293.00026740883
293.00013944494
293.00007084153
293.00002855727
293.00001410899
293.0000068644
293.00000327962
293.0000015395
293.00000071056
293.00000032253
293.00000014282
293.00000006209
293.00000002159
293.00000000716
293
293
293
293
293
293
293
293
293
293
293
293
293
293
293
293
293
293
293
293
293
293
293
293
293
338.75155927515
337.87700544366
336.97314217811
336.01401797082
335.0204130584
334.06194674924
333.17790974236
332.34745647289
331.50323998881
330.65201908498
329.8595155436
329.27760564031
328.77880271205
327.36811699729
324.40226793143
319.39393723104
312.25919330056
303.13823556791
294.18560717887
288.11690064107
285.8298541952
286.48425789098
289.48727136833
293.4497767484
296.49623451136
298.3962075551
295.90500795319
276.81768209285
266.71700349249
307.26612282794
297.47517666588
296.48016241947
295.72660353383
295.1404531398
294.6958948242
294.36236332636
294.11474357085
293.93427905209
293.809584283
293.73486009052
293.70301062
293.69986906662
293.7067425461
293.70870893785
293.69780458076
293.67310040915
293.64126539728
293.61023694684
293.58292359669
293.56009527984
293.54186901769
293.52800325793
293.51654860949
293.50373081931
293.48319583165
293.44588155223
293.38535159883
293.30534343207
293.22684184951
293.16935482641
293.13595567117
293.12241328673
293.11971387644
293.12058668979
293.1234848658
293.1275472655
293.13220301274
293.13715636333
293.14228806831
293.14757975856
293.15306203849
293.15877969657
293.16476904332
293.17107235598
293.17810244836
293.18635372088
293.19626965497
293.20835123714
293.22315379914
293.24112078635
293.26221833555
293.28510531927
293.30408366226
293.31247977067
293.31367132784
293.3075748564
293.28630867566
293.24634046702
293.19133062193
293.13181343036
293.08408249338
293.0506907885
293.0299769081
293.01836211984
293.01179882136
293.00744049457
293.00457250725
293.0027379723
293.00159592988
293.00090487734
293.00049889139
293.00026746363
293.0001394759
293.00007085805
293.00002856451
293.00001411333
293.0000068669
293.00000328098
293.0000015402
293.00000071092
293.0000003227
293.00000014289
293.00000006214
293.00000002158
293.00000000715
293
293
293
293
293
293
293
293
293
293
293
293
293
293
293
293
293
293
293
293
293
293
293
293
293
338.78668288901
337.82063209168
336.73564688752
335.66010971371
334.64021218509
333.67250786348
332.78916429773
331.98425464556
331.21251370891
330.51733262435
329.96503923301
329.34746005522
328.05027794686
324.65436828255
317.58152216848
307.50588610836
298.05288116508
295.93538332066
305.54375655368
316.84618361608
323.8814502085
328.6175483542
331.96292360189
334.00331166077
334.5252811356
333.14246865621
325.70133310878
282.31753440916
279.39250032696
302.81333306948
297.05829279271
296.25757802783
295.58763118136
295.0521763667
294.63848596062
294.32409929252
294.08864519064
293.91623080179
293.79721507042
293.72654882638
293.69737787371
293.69567502483
293.70327787601
293.70550661437
293.69477612005
293.67034526082
293.63899137475
293.60852784221
293.58175726132
293.55940499082
293.5415760423
293.52800154166
293.51669407156
293.50385816032
293.4830618285
293.44525500432
293.38416211111
293.30380096171
293.22546428157
293.16831465765
293.13523750848
293.12193711988
293.11930672024
293.12021883469
293.12315842263
293.1272647736
293.13196814599
293.136969826
293.14214711455
293.14747887404
293.15299410858
293.15873712138
293.16474431556
293.17106054279
293.17810057335
293.18635598862
293.19627322581
293.20835491632
293.22315695691
293.24112324092
293.26222178578
293.28511234505
293.30408757256
293.312477896
293.3136693963
293.30750601765
293.28623704791
293.24630385446
293.19136907252
293.13183422325
293.08408630551
293.05069285416
293.02997844877
293.01836325158
293.01179979902
293.00744127664
293.00457307272
293.00273835837
293.00159618237
293.00090503627
293.00049898787
293.00026752012
293.00013950763
293.00007087441
293.00002857165
293.0000141182
293.00000686979
293.00000328255
293.00000154102
293.00000071133
293.00000032289
293.00000014295
293.00000006219
293.00000002159
293.00000000713
293
293
293
293
293
293
293
293
293
293
293
293
293
293
293
293
293
293
293
293
293
293
293
293
293
350.83876156029
342.56870583422
338.0985100343
335.92905191322
334.54931112868
333.5219081859
332.67485252018
331.87541198547
331.20753098831
330.61448069275
329.84548047554
328.48593004876
324.96083706419
316.41299745426
305.13119157304
309.1298188565
331.50319930408
350.06951104635
356.95869763455
357.05779430829
356.10392675117
355.77844090943
356.07814020804
356.53537579927
356.28914554443
354.84597749053
341.26489594935
278.52511755136
302.23709898215
299.09326962171
296.64590631962
296.01025783445
295.43014167441
294.95047289507
294.57150239133
294.27903068858
294.057698834
293.89473450478
293.78244891535
293.71664248801
293.69070339907
293.69067859566
293.69911688292
293.70163656835
293.6911051632
293.66699772657
293.63622334761
293.60643928282
293.58032063164
293.55854098292
293.54119129915
293.52796643163
293.51683526437
293.50397371291
293.48285667045
293.44444897104
293.38267498452
293.30189926004
293.22378277105
293.16705561013
293.13437548024
293.12136774983
293.11881750501
293.11977441587
293.12276146153
293.12691909711
293.13167874318
293.13673830191
293.14197084183
293.14735168613
293.15290765945
293.15868226237
293.1647118475
293.171044687
293.17809743069
293.18635845671
293.19627765775
293.2083596971
293.22316117981
293.24112639605
293.26222503945
293.28511689786
293.30408427611
293.31246317673
293.31364803064
293.30744778003
293.28618137643
293.24627975224
293.19138354674
293.13184245146
293.08408856721
293.05069498547
293.02998024019
293.01836458929
293.0118008889
293.00744212926
293.00457368552
293.00273877568
293.00159645466
293.00090520732
293.00049909153
293.00026758071
293.0001395415
293.0000708912
293.00002857944
293.00001412512
293.00000687399
293.00000328482
293.00000154216
293.0000007119
293.00000032314
293.00000014303
293.00000006223
293.00000002161
293.00000000714
293
293
293
293
293
293
293
293
293
293
293
293
293
293
293
293
293
293
293
293
293
293
293
293
293
368.94400136187
348.32768880386
343.40233044431
338.91843438111
336.07450500103
334.28573406754
333.15086386295
332.2793910664
331.50572165147
330.60039851758
329.11203145964
325.64999186451
317.72976386771
310.13787499329
333.15615459636
364.83997737928
365.053923929
352.20538142676
341.80293962968
337.2477275569
336.738415197
339.09542619051
343.69426011322
349.42744339322
355.6765415121
360.85078460137
341.51475190676
280.48935291192
307.77708224227
298.31455946702
296.35320427536
295.87836242827
295.37796070672
294.93690851883
294.57522880803
294.28916672604
294.06872415905
293.90372069419
293.78745723307
293.71648730837
293.68568042942
293.68327659966
293.69223506396
293.69739859167
293.69085528064
293.66995260953
293.64059175458
293.61094700074
293.5845672702
293.5623732632
293.54449502751
293.53078836425
293.51969619597
293.50775772182
293.4892281003
293.4553188966
293.39869644799
293.32089306742
293.23959844451
293.17730619818
293.13939094617
293.12239884363
293.11845881272
293.11877570675
293.12139987453
293.12538511616
293.13009324433
293.13516106151
293.14042082029
293.14582312335
293.15138243753
293.15713901366
293.16313251829
293.16939089244
293.17623062518
293.18415717902
293.19362098754
293.20511186252
293.21918231732
293.23633164578
293.2566943982
293.27945386891
293.30016062145
293.3112079213
293.31361787633
293.30739932164
293.28613600034
293.24625532342
293.19138192251
293.13184306731
293.08408987641
293.05069729677
293.02998235483
293.01836615319
293.01180211421
293.00744307353
293.00457436169
293.00273923576
293.00159675466
293.00090539555
293.0004992054
293.00026764713
293.00013957857
293.00007090953
293.00002859146
293.00001413748
293.00000688283
293.00000328897
293.0000015442
293.00000071291
293.00000032362
293.0000001432
293.00000006232
293.00000002165
293.00000000716
293
293
293
293
293
293
293
293
293
293
293
293
293
293
293
293
293
293
293
293
293
293
293
293
293
370.6183145922
392.50566068975
346.5522047237
337.78317431004
335.25510579112
333.02461430804
330.36700670308
327.62049122192
324.17278327815
320.72594529262
322.22814982391
339.74410775674
369.39030425203
350.67628170884
321.49220798097
311.81429626589
310.52272048411
312.10239764246
315.57692879065
320.30503219939
325.14132464444
328.92758515527
333.91647242482
342.60787464858
345.53952590947
309.17677614523
286.08769612968
308.67811147344
296.89643760163
295.57173865053
295.50331587351
295.23475671683
294.90956352539
294.60027683846
294.33339350771
294.11494524826
293.9431009088
293.8143320702
293.72700583333
293.67950879393
293.66598465747
293.67196988113
293.68316539418
293.68654098238
293.67664447706
293.65374727958
293.62522086191
293.5980481032
293.57442692649
293.55484541165
293.53934212854
293.52747784239
293.51700530728
293.50399985625
293.48156267088
293.44073747618
293.3762930806
293.29407056062
293.21703778249
293.16212100045
293.13107630452
293.11921748435
293.11694915289
293.11805479755
293.12119735848
293.12553164388
293.13049407083
293.13577131171
293.14121952303
293.14679813906
293.15252273915
293.15843113572
293.16455751297
293.17096706548
293.17807711473
293.18636542155
293.19629531817
293.20837986068
293.22317916722
293.24113898943
293.26223179225
293.28511490954
293.30404648544
293.31238339118
293.31354379498
293.30730663544
293.28604940682
293.2461963376
293.19135420895
293.13183408984
293.08409114042
293.05070283627
293.02998768596
293.018370027
293.01180504383
293.00744529183
293.004575936
293.00274030134
293.00159744685
293.00090582845
293.00049946651
293.00026779908
293.00013966355
293.00007095368
293.00002861177
293.00001414973
293.00000688955
293.00000329238
293.00000154568
293.00000071369
293.00000032408
293.00000014356
293.00000006247
293.0000000217
293.00000000718
293
293
293
293
293
293
293
293
293
293
293
293
293
293
293
293
293
293
293
293
293
293
293
293
293
355.57495037171
328.98664012278
338.51714140745
360.94082331607
374.33788173401
376.92171818215
374.66155668522
372.66520114078
370.1263318937
362.58688275434
342.87590085081
319.9836983068
305.15896374246
301.20166956285
301.32319809818
302.4274339556
303.76651567412
305.01609672529
307.08504629967
311.51657402175
317.5131803457
320.49475156694
316.90937216281
303.14725436825
293.75378968551
298.7791850577
302.71850992266
294.99609577726
294.43171730648
294.81979544552
294.88473951958
294.7678458411
294.57197619264
294.35988469584
294.16263711149
293.99335236065
293.856225675
293.75266491015
293.6844037924
293.65109926539
293.64664667972
293.65755103411
293.67041818052
293.67417236612
293.66460970886
293.64265672112
293.61596355663
293.59087881293
293.56924273034
293.55141366346
293.53739436573
293.52660871865
293.51666391389
293.50348109245
293.47984431075
293.43692443529
293.37027786297
293.28712390559
293.21126250145
293.15804166128
293.12845454955
293.11755002974
293.11547690087
293.11667483434
293.1199086184
293.12435539227
293.12945929612
293.13490090976
293.14052284259
293.14626939314
293.15214354638
293.15817499206
293.16439255165
293.17088192621
293.1780486506
293.18636596499
293.19630874591
293.20839698854
293.22319474252
293.24114941727
293.26223434846
293.28510359581
293.30400462939
293.31231242246
293.31345953518
293.30721067545
293.28595395179
293.24611860477
293.19130662923
293.13181726781
293.08409204868
293.05070993392
293.02999453592
293.01837489239
293.0118086275
293.00744796369
293.0045778129
293.00274156287
293.00159826204
293.00090633612
293.00049977161
293.00026797615
293.00013976277
293.00007100731
293.00002863592
293.00001416251
293.00000689627
293.00000329578
293.00000154729
293.00000071449
293.00000032449
293.00000014379
293.00000006257
293.00000002174
293.00000000719
293
293
293
293
293
293
293
293
293
293
293
293
293
293
293
293
293
293
293
293
293
293
293
293
293
356.73140033258
319.59166847775
302.49526755201
298.96859725825
300.79886125976
303.59079376356
305.19209338223
304.63720335368
302.17646653218
299.24246121839
297.31004005112
296.64145255036
296.63942490241
296.87649081228
297.29614201809
297.91478606955
298.59154390834
298.97945799457
298.79111630888
297.80901197758
296.57782033329
295.81235830408
296.26543340533
299.03924353905
298.72805380999
294.84684270016
292.85081901228
293.33257388115
293.93520592663
294.28001166638
294.40027267601
294.37321958612
294.26920482022
294.13414314874
293.9963535131
293.87162183701
293.7676168968
293.68929030198
293.64069974505
293.62248011951
293.62668054076
293.64254554058
293.65667779263
293.66052686753
293.65114079905
293.63019765688
293.60551340658
293.58266940254
293.56314977717
293.54719592231
293.53477679527
293.52513865302
293.51574300761
293.50226172024
293.47714471208
293.43176711077
293.36268735527
293.27882609954
293.20460085586
293.15349752831
293.12565963842
293.11581614345
293.11393085836
293.11520205098
293.11849767383
293.12303004586
293.12825747091
293.13385861525
293.13966309887
293.14559738486
293.1516471954
293.15782896088
293.16416164624
293.17075988044
293.1780004187
293.18635830147
293.19632057834
293.20841562456
293.22321231233
293.24116069282
293.26223528035
293.28508675629
293.30395221277
293.3122283716
293.31336347327
293.30710165621
293.28584180901
293.24602325713
293.19124699339
293.13179693202
293.08409363344
293.05071882493
293.03000291781
293.01838072615
293.01181284995
293.0074510757
293.00457997952
293.0027430094
293.00159919203
293.00090691296
293.00050011715
293.00026817617
293.00013987472
293.00007106798
293.00002866291
293.00001417658
293.00000690355
293.00000329944
293.00000154907
293.00000071534
293.00000032489
293.00000014399
293.00000006266
293.00000002177
293.0000000072
293
293
293
293
293
293
293
293
293
293
293
293
293
293
293
293
293
293
293
293
293
293
293
293
293
357.7678478178
321.98988135736
302.3697592994
295.65843138039
294.20073807226
294.05724204333
294.15980684975
294.28569641167
294.4201294322
294.57419436073
294.72937113416
294.85662619235
294.93956121958
294.98092967305
294.99370324627
294.98778842514
294.95773607226
294.90310983997
294.79942101487
294.6271871794
294.3703308172
293.85875613835
292.9850466249
292.0026355194
291.55728126115
291.91061816158
292.54532502089
293.14563433839
293.6021882733
293.89080717369
294.02776764826
294.05241286271
294.00982915463
293.93197696922
293.84231674582
293.75584276516
293.68196685653
293.62780735336
293.59863013121
293.59468019971
293.60753058404
293.62757076929
293.64243283172
293.64603416796
293.63664170474
293.61676086402
293.59418547846
293.57363726614
293.55626998455
293.54223490289
293.53146174168
293.52297424225
293.51408640963
293.50012687876
293.47320350038
293.42501924969
293.35337575175
293.26922324088
293.19717216757
293.1486234286
293.12281813572
293.11410364676
293.11239793045
293.11372025919
293.11703787662
293.12161290208
293.12692695271
293.13266319121
293.13864195902
293.14477163947
293.15101678082
293.15737400147
293.16385723033
293.17058918492
293.17792330132
293.18633641279
293.1963270454
293.20843370483
293.22323072133
293.24117180387
293.26223353581
293.28506365532
293.30388869305
293.31212954919
293.31325168473
293.30697489029
293.28571128518
293.24591271788
293.19117915323
293.13177499373
293.08409652147
293.05072966418
293.03001282634
293.01838748976
293.01181767456
293.00745459612
293.00458241054
293.00274462221
293.0016002239
293.00090755055
293.00050049789
293.000268396
293.00013999753
293.00007113445
293.0000286922
293.00001419175
293.0000069113
293.00000330332
293.00000155095
293.0000007162
293.0000003253
293.00000014418
293.00000006275
293.0000000218
293.00000000721
293
293
293
293
293
293
293
293
293
293
293
293
293
293
293
293
293
293
293
293
293
293
293
293
293
358.27942553547
323.58458614416
303.28557076368
295.77956538891
293.99143629935
293.69641264082
293.72825165275
293.83309936109
293.95936438018
294.08620869553
294.19464237512
294.26468407134
294.27617313676
294.21426383121
294.0627105738
293.8089643788
293.44419260668
292.96618475326
292.40886926646
291.83272140559
291.33957390309
291.04305678881
291.00478680107
291.22076522206
291.62215029445
292.10035875235
292.58615414691
293.02251351533
293.37051402257
293.60966410851
293.74519403983
293.79813222782
293.79407417905
293.75717454098
293.70489011302
293.65014766444
293.60287490431
293.57110955652
293.56077527631
293.56906012126
293.59009626065
293.61308174454
293.62802435722
293.63102781807
293.62147562967
293.60272329779
293.58229672884
293.56402080989
293.54876494697
293.53662640299
293.52747496938
293.52008033862
293.51158673206
293.49688491445
293.46776804724
293.41644010731
293.34221580767
293.25837756402
293.18909718901
293.14353955721
293.12003848162
293.11246790427
293.11094692441
293.11230369867
293.11560423419
293.12016958981
293.12551838082
293.1313467874
293.13747195712
293.14378781459
293.15023698718
293.15679763215
293.16346766073
293.1703550203
293.17780578283
293.18629237126
293.19632322571
293.20844819257
293.2232481824
293.24118137604
293.26222770052
293.28503267807
293.30381261347
293.31201462439
293.31312234073
293.3068292312
293.28556285066
293.24578882107
293.19110508959
293.13175258274
293.08410119707
293.05074257247
293.03002423524
293.01839512734
293.01182304909
293.00745848165
293.0045850733
293.00274637824
293.00160134215
293.00090823895
293.00050090772
293.00026863203
293.00014012913
293.00007120557
293.00002872331
293.00001420782
293.00000691947
293.00000330738
293.0000015529
293.00000071709
293.00000032571
293.00000014437
293.00000006283
293.00000002184
293.00000000723
293
293
293
293
293
293
293
293
293
293
293
293
293
293
293
293
293
293
293
293
293
293
293
293
293
358.57182794491
324.50488808545
303.92708616758
295.96873314944
294.0005735232
293.64924905085
293.64820756414
293.7200130145
293.80407052296
293.88428161661
293.94710661941
293.9772299096
293.95830913709
293.87628916871
293.72042465589
293.48538352022
293.16883345854
292.78390276322
292.3639655033
291.96251266357
291.64870797991
291.48148913971
291.49313855497
291.65465702207
291.92934188617
292.26557659008
292.61578111211
292.93806390509
293.20855583454
293.40587993397
293.5320979585
293.59780526606
293.61837066599
293.6099052926
293.58588752321
293.55701102369
293.53281153088
293.52187978038
293.52718895083
293.54712956482
293.57470946629
293.59929927915
293.61363227368
293.61573575416
293.605948053
293.58842432023
293.57014396651
293.55406756841
293.5408343118
293.53052074709
293.5229016241
293.51647557992
293.50817977602
293.49236865489
293.4606005986
293.40580928326
293.32911449367
293.24638383086
293.18050051365
293.13835297888
293.1173987907
293.11094043806
293.10962301089
293.11100794484
293.11426060444
293.11876721929
293.12409118749
293.12995479997
293.13617928047
293.14264931153
293.14931002768
293.156099057
293.16297087533
293.17004021541
293.17763374906
293.18621590948
293.1963026925
293.20845471753
293.22326207077
293.24118757839
293.26221590112
293.28499187069
293.30372251942
293.31188280763
293.31297483658
293.30666464049
293.28539730235
293.24565299569
293.19102638485
293.1317308233
293.08410811605
293.05075763723
293.03003709137
293.01840356558
293.01182890961
293.00746268158
293.00458793082
293.00274825196
293.00160252993
293.00090896743
293.00050134007
293.00026888039
293.00014026733
293.00007128012
293.00002875573
293.00001422457
293.00000692797
293.0000033116
293.00000155498
293.00000071812
293.00000032617
293.0000001445
293.00000006284
293.00000002185
293.00000000724
293
293
293
293
293
293
293
293
293
293
293
293
293
293
293
293
293
293
293
293
293
293
293
293
293
358.74683230277
325.04836064342
304.34779941911
296.11378368858
294.00801990576
293.61970002368
293.58721500515
293.63101426158
293.68482775311
293.73313481723
293.7655681537
293.76918592923
293.73418470594
293.64945640316
293.51044783643
293.31646825226
293.06566120473
292.7766672905
292.47255162224
292.1895329631
291.96996451585
291.84902711633
291.85001491006
291.95603653188
292.14590897802
292.38568274345
292.64180376061
292.88460858499
293.09464115122
293.25753357537
293.37163378255
293.44185749046
293.47728972559
293.48847015773
293.48557749277
293.47763414969
293.47379963465
293.48028737748
293.49964315081
293.52930954705