/*--------------------------------*- C++ -*----------------------------------*\
| =========                 |                                                 |
| \\      /  F ield         | OpenFOAM: The Open Source CFD Toolbox           |
|  \\    /   O peration     | Version:  2312                                  |
|   \\  /    A nd           | Website:  www.openfoam.com                      |
|    \\/     M anipulation  |                                                 |
\*---------------------------------------------------------------------------*/
FoamFile
{
    version     2.0;
    format      ascii;
    arch        "LSB;label=32;scalar=64";
    class       volScalarField;
    location    "1e-05";
    object      Y.Liq;
}
// * * * * * * * * * * * * * * * * * * * * * * * * * * * * * * * * * * * * * //

dimensions      [0 0 0 0 0 0 0];

internalField   nonuniform List<scalar> 
109340
(
0.99998981393823
0.99998835422064
0.99998618711773
0.99998314246351
0.99997898852869
0.99997322193789
0.99996503488777
0.99995307504392
0.9999350208482
0.99990687672739
0.99986152921591
0.99978582083925
0.99965317533854
0.99940785096695
0.99893503121893
0.99804323821913
0.99655599602716
0.99451298130218
0.99215499070283
0.98973034828422
0.98736403697794
0.98512792961246
0.98303888786856
0.98109124535776
0.97927426790719
0.97757660532519
0.97598649539034
0.97449399485267
0.97308994425636
0.97176640652931
0.97051628731947
0.96933290149709
0.96820949023181
0.96713931756578
0.96611719948194
0.96514087709177
0.99998947156462
0.99998784080651
0.99998548882966
0.99998226471399
0.9999778360622
0.99997163829552
0.99996277906534
0.99994970316308
0.99992976202426
0.99989831179705
0.99984708973788
0.99976035113784
0.99960623534376
0.99931726255112
0.99875840014727
0.99772679021291
0.99608631275846
0.99394037105372
0.99155216458763
0.98913378402225
0.98679904015656
0.98460142964954
0.9825505668648
0.98063868526387
0.97885460136288
0.9771864661473
0.97562321282878
0.97415489836698
0.97277276615676
0.97146935614494
0.97023745328076
0.96907057396618
0.96796241802357
0.96690657986407
0.96589900583452
0.96493793007311
0.99998945495349
0.99998778415132
0.99998550278945
0.99998236540667
0.99997804879542
0.99997196914661
0.99996327651761
0.99995045178789
0.99993086271498
0.99989978477587
0.99984859538048
0.99976148781123
0.99960695339342
0.99931699204481
0.99875591156111
0.9977216585723
0.99608031519646
0.99393765925572
0.99155474272047
0.98914007846001
0.986807038938
0.98460966562502
0.98255835551242
0.98064635238952
0.97886157396862
0.97719283165835
0.97562863575866
0.97415919064734
0.97277638732488
0.97147251356318
0.97024024578019
0.96907291581168
0.96796449773194
0.96690873327008
0.96590153496864
0.96494114442971
0.99998943955051
0.99998780224855
0.99998560995126
0.99998256188708
0.99997833841094
0.99997242979705
0.9999639870515
0.99995158130673
0.99993269335502
0.99990272091107
0.9998528293228
0.99976605505593
0.99960885120625
0.99931449095504
0.99874987882012
0.99771275212822
0.99607325227829
0.9939374207372
0.99156180147255
0.98915417883096
0.98682477496182
0.98462785799963
0.98257540475884
0.98066108454951
0.97887402216576
0.97720272365962
0.97563654373408
0.974165653449
0.9727813943341
0.97147595084534
0.97024212683306
0.96907332851674
0.96796337282669
0.96690627935407
0.96589773522138
0.96493585760621
0.9999894932155
0.99998793641254
0.99998577880598
0.999982812981
0.99997872426939
0.9999730223846
0.99996491346731
0.99995306235207
0.99993512340279
0.99990676929385
0.99985951145976
0.99977630195877
0.9996214116105
0.99931957336637
0.99872972322331
0.99766384892205
0.99601761459845
0.99389846991133
0.99154180461571
0.98914687373378
0.98682365142737
0.98462688996114
0.98257060060293
0.98064928789452
0.97885239435387
0.9771672063244
0.97558109748021
0.97408270860587
0.97266121200696
0.97130745943778
0.97001294015102
0.96876688960283
0.96756571454052
0.96640305780113
0.96527306834404
0.96417569625497
0.99998960493885
0.99998813626977
0.99998594799809
0.99998283655874
0.99997843114527
0.99997212199843
0.9999628895566
0.9999489516086
0.99992702306678
0.99989060413542
0.99982605478008
0.99970309829975
0.99945123568191
0.99891627799209
0.99790413915159
0.99635194292469
0.99431713519699
0.99192788619779
0.98931893507849
0.98663885584069
0.98396884036034
0.98132416971628
0.97873550569466
0.97620328898863
0.97372123390725
0.97127909115244
0.96886774009936
0.96647420726146
0.96407268475257
0.96163949072367
0.95914798798833
0.95657377488098
0.9538965738904
0.95110403218979
0.94822456695916
0.94529700175838
0.96420675473594
0.96330248668448
0.96240774764913
0.96151094219674
0.96059573974593
0.95962664813978
0.95855264867051
0.95732616903322
0.95591506216969
0.95429283433413
0.95242164774646
0.95027016432649
0.94782643904494
0.94317565348068
0.93419222154807
0.92416330193232
0.91338053657751
0.9014033817778
0.8880746456461
0.87379068433509
0.85897717222416
0.84346330006072
0.82636762615485
0.80680629020381
0.78437328039027
0.75879742286939
0.7277875371365
0.68244704814425
0.55004868505502
0.12364202656613
0.001254275636307
1.2906207894112e-06
3.3763300104172e-10
3.2575050283613e-14
1.5277992561371e-18
4.3122059194525e-23
8.698477916068e-28
1.4517878872092e-32
2.3041179354165e-37
4.0903404563455e-42
9.9561112844614e-47
3.9268767579467e-51
2.3662518944274e-55
1.7118460115757e-59
1.1333858337386e-63
5.9479065038112e-68
2.7610361493985e-72
1.4350353970083e-76
9.82421444548e-81
9.7644823112429e-85
1.5224846874726e-88
3.9558169228328e-92
1.5387413717056e-95
6.5092929414812e-99
1.0668487144461e-100
2.5631409193462e-101
6.4091119021058e-102
1.6357796225413e-102
4.233259505473e-103
1.1024339475828e-103
2.8709175489679e-104
7.5258614850607e-105
1.7526025910148e-105
2.5331721660216e-106
2.9234590522865e-107
2.9603066513867e-108
2.7294446580149e-109
2.3345200020798e-110
1.872162618848e-111
1.416706821424e-112
1.0146434871543e-113
6.8645995005627e-115
4.3254455858868e-116
2.3934938766751e-117
8.706595652318e-119
1.6274583427323e-120
1.4471923082989e-122
5.8541748748795e-125
1.062567353286e-127
9.0333572164948e-131
4.0900155916585e-134
1.2878548563765e-137
6.4893610444729e-141
4.9068400780332e-143
1.1236525707483e-144
2.0805610931894e-146
5.3690009817164e-149
5.142288407434e-152
3.0065413892112e-155
1.5265769313835e-158
9.2962532937853e-162
8.8399541618961e-165
1.751840371111e-167
9.3916057136493e-170
1.2321816703762e-171
1.8795552655915e-173
3.5322961125429e-175
1.5997974367356e-176
1.5019987344014e-177
1.5941955771639e-178
1.6520614088638e-179
1.6504630841937e-180
1.5941807885635e-181
1.500142767649e-182
7.2298864252805e-184
8.4920670099901e-185
9.8506849379199e-186
1.1291373666582e-186
1.2796035340419e-187
1.4343168825717e-188
1.5908367350394e-189
1.7464970682653e-190
1.8984847106428e-191
2.0439271914121e-192
2.1799862530265e-193
2.3039526258065e-194
2.4133375302196e-195
2.5059565263467e-196
2.5800017554691e-197
2.6340992836317e-198
2.6673491075001e-199
2.6793463576884e-200
2.6701832634753e-201
2.6404324553333e-202
2.5911131128256e-203
2.5236422595076e-204
2.4397741212901e-205
2.3415308736683e-206
2.2311282959402e-207
2.1108998326074e-208
1.9832223528775e-209
1.850446529099e-210
1.7148342624067e-211
1.578505011196e-212
1.4433922684685e-213
1.3112108283375e-214
1.1834349596713e-215
1.0612923329797e-216
9.4637933942131e-218
9.1120657494675e-219
0.96401882806459
0.9631275492266
0.96224335340932
0.96135469238757
0.96043931503006
0.95945340089728
0.95834267042156
0.95706514883453
0.95559636823626
0.95390690431511
0.95196039929978
0.94972682289706
0.94697209918524
0.94162878731052
0.93320044875234
0.92309771850663
0.91164578585154
0.89831594378744
0.88291100856493
0.86581817310234
0.84722402000357
0.82623726201772
0.80152708434721
0.77261835140941
0.74060542659642
0.70616404925644
0.6697526363522
0.62637500775637
0.44678527475718
0.042736647761114
0.00018924624871442
1.2396764598552e-07
2.3664963340407e-11
1.8369623201585e-15
7.4524087656305e-20
1.9241161687913e-24
3.7167944659134e-29
6.1890721060375e-34
1.0249841181649e-38
2.0174380421023e-43
5.855728459062e-48
2.8288536192067e-52
1.9659060408652e-56
1.4791294012361e-60
9.2809727343005e-65
4.5603316847907e-69
2.0992155294557e-73
1.150708150395e-77
8.6072867464927e-82
9.5971420877327e-86
1.7214695757837e-89
5.1610670262838e-93
2.1472536438377e-96
1.0955898484332e-99
7.3143628346182e-101
1.7881769166379e-101
4.4977686419393e-102
1.1526817631305e-102
2.9905068013545e-103
7.7923538266385e-104
2.0282165154999e-104
5.370932653938e-105
1.1010102848499e-105
1.4788411385044e-106
1.6421202364728e-107
1.6198225537742e-108
1.4634705550902e-109
1.2305751949557e-110
9.7209531841383e-112
7.2540299019048e-113
5.1239775673376e-114
3.4126576938512e-115
2.1002337145301e-116
1.0862651609389e-117
3.3769970322318e-119
5.2663696531983e-121
3.8571445106148e-123
1.2764177139356e-125
1.9039014693765e-128
1.3607861833953e-131
5.4373616992657e-135
1.706264321333e-138
1.3066224776624e-141
2.1433592101162e-143
1.1091116163948e-144
2.1151295962189e-146
5.4859303605337e-149
5.1565883984687e-152
2.9807091368224e-155
1.4989425477255e-158
9.0729626769624e-162
8.6120076897642e-165
1.7089535202629e-167
9.1941736746705e-170
1.2108903866687e-171
1.8524152429677e-173
3.4927973430559e-175
1.5876337462103e-176
1.4921404078968e-177
1.583945893546e-178
1.6414753065747e-179
1.6399026505698e-180
1.5839929264876e-181
1.4905675641278e-182
7.18381516474e-184
8.4379872499372e-185
9.78796956206e-186
1.1219485524705e-186
1.271455693155e-187
1.4251827025598e-188
1.580705252552e-189
1.7353750059827e-190
1.8863972343503e-191
2.0309180803316e-192
2.166117480537e-193
2.289303360117e-194
2.3980025836223e-195
2.4900443039241e-196
2.5636317764063e-197
2.617399367792e-198
2.650452334791e-199
2.6623879167536e-200
2.6532973087971e-201
2.6237490880292e-202
2.5747555907047e-203
2.5077245272494e-204
2.424398733089e-205
2.3267873596324e-206
2.2170920014118e-207
2.0976312376335e-208
1.9707668585509e-209
1.8388346794234e-210
1.7040823554117e-211
1.5686160417882e-212
1.4343571381037e-213
1.3030097530005e-214
1.1760390073407e-215
1.0546649919989e-216
9.4047424917229e-218
9.0552573813796e-219
0.96402329159957
0.96313391410313
0.96225182160696
0.96136323802811
0.96044418369287
0.95945314980638
0.9583424856806
0.95707406577736
0.95562212625209
0.95394923662144
0.95201751212327
0.94975459769556
0.94663010225376
0.94128619864049
0.93294731002394
0.922206672464
0.90886425767811
0.891410080239
0.86876580521642
0.8415199294014
0.81009456064844
0.77280926117904
0.72865573619312
0.68049798009279
0.63384165165077
0.59122533055628
0.55959486865055
0.55439930812685
0.40309248663591
0.030649068542794
0.00011015544566077
6.5390266282017e-08
1.1859334867792e-11
9.0111479761154e-16
3.6467169199688e-20
9.5065101806088e-25
1.8691365096395e-29
3.1867460159368e-34
5.4332851477236e-39
1.1076507232526e-43
3.3483818992631e-48
1.6836206007604e-52
1.2108810119162e-56
9.3592615424492e-61
6.0063813077204e-65
3.0159581459083e-69
1.4214819533938e-73
7.9938298446856e-78
6.1434158968973e-82
7.0466552462137e-86
1.3015364320035e-89
4.0178685905215e-93
1.712646417511e-96
9.3845140861941e-100
7.1776849437925e-101
1.7562583392485e-101
4.4194505374192e-102
1.1329657500558e-102
2.939998971765e-103
7.6616121564062e-104
1.9942972647265e-104
5.2808678166567e-105
1.0787654994839e-105
1.4466441780084e-106
1.6050524591217e-107
1.5824860022261e-108
1.4292900951078e-109
1.2015815070057e-110
9.4905386938845e-112
7.0813594580814e-113
5.0016158734815e-114
3.3308779184022e-115
2.0494619666447e-116
1.0579847644459e-117
3.2814029273867e-119
5.1124659895827e-121
3.742824352598e-123
1.2382682779952e-125
1.8465836397489e-128
1.3195048497775e-131
5.2722558110321e-135
1.6547974739437e-138
1.2722957507487e-141
2.1016280812886e-143
1.0808511732575e-144
2.1219557586228e-146
5.749670305648e-149
5.269118606972e-152
2.9522883209197e-155
1.4416985562779e-158
8.6383342824605e-162
8.1936153169328e-165
1.6323275721504e-167
8.839058552851e-170
1.1712002115997e-171
1.7996000916497e-173
3.4122894241254e-175
1.5616024472255e-176
1.4707010326604e-177
1.5616176326109e-178
1.6184107419096e-179
1.616893436907e-180
1.5617951623786e-181
1.4697050290549e-182
7.0834412186277e-184
8.3201365069753e-185
9.6512613884622e-186
1.106274925834e-186
1.2536892267273e-187
1.4052652355493e-188
1.5586142419946e-189
1.7111262075076e-190
1.8600462654968e-191
2.0025607963032e-192
2.1358891106879e-193
2.2573763959967e-194
2.3645834640779e-195
2.455369000259e-196
2.527960434528e-197
2.581010209604e-198
2.6136350547129e-199
2.6254368292134e-200
2.6165045080459e-201
2.58739787305e-202
2.5391143865146e-203
2.4730415015959e-204
2.3908972668976e-205
2.294662483579e-206
2.1865078625594e-207
2.0687196122057e-208
1.943626682134e-209
1.8135325264363e-210
1.6806537671342e-211
1.5470675776815e-212
1.4146690089895e-213
1.2851388868426e-214
1.1599223976256e-215
1.0402231138857e-216
9.2760611281184e-218
8.9314614128105e-219
0.96401619803502
0.96312463527985
0.96223722527461
0.96133761619264
0.96040696843843
0.959411496708
0.95830671829516
0.95705356555271
0.95562343665837
0.95398491695839
0.95207037489787
0.94965544833073
0.94607129878602
0.94005819974842
0.92936490981843
0.91294643865069
0.8883285205195
0.84896032817754
0.79164586490092
0.72309133189021
0.65286586494607
0.58450714956195
0.51984717519731
0.46555579753147
0.42578311768622
0.39821208020917
0.39922728795383
0.45744936483884
0.33117610780381
0.017438376406155
4.7440889725633e-05
2.4942787251709e-08
4.2581891429792e-12
3.164705464059e-16
1.2834919789254e-20
3.4059551080134e-25
6.8884586002747e-30
1.2174557845662e-34
2.1676809150356e-39
4.6535637306969e-44
1.4921501592347e-48
7.9330214982518e-53
5.970936977376e-57
4.7723295515756e-61
3.1471577003211e-65
1.6234648326403e-69
7.8948369915665e-74
4.6007109289998e-78
3.6761304186171e-82
4.39515681003e-86
8.4783155892887e-90
2.7306830767817e-93
1.2038580251836e-96
7.4846361662656e-100
6.9845973662342e-101
1.7110462313296e-101
4.3084683825878e-102
1.1050322490858e-102
2.8684595938003e-103
7.4765776007259e-104
1.9463729002948e-104
5.1552576386749e-105
1.0473898103905e-105
1.401233900038e-106
1.5528233621602e-107
1.5299149520335e-108
1.3811856034866e-109
1.1607899514636e-110
9.1664406776726e-112
6.8385249412919e-113
4.8295567090721e-114
3.2159014330818e-115
1.9781116936013e-116
1.0184645045101e-117
3.1491511741866e-119
4.9015043907068e-121
3.5873091998826e-123
1.1866957865061e-125
1.7696219444762e-128
1.2645420111919e-131
5.0538437598297e-135
1.5871666685465e-138
1.22461827996e-141
2.0314135042362e-143
1.0434842062917e-144
2.0822051497368e-146
5.6258811150348e-149
5.1266392136021e-152
2.8634977992484e-155
1.3925842561159e-158
8.3139175828409e-162
7.8706942256321e-165
1.5666217879422e-167
8.4847858373071e-170
1.1256118433162e-171
1.7329644202167e-173
3.3027466113908e-175
1.5236602200738e-176
1.4387741097373e-177
1.5282901816805e-178
1.583976637086e-179
1.5825404180203e-180
1.5286527403572e-181
1.4385579712545e-182
6.933594251026e-184
8.1440768074233e-185
9.4469136587363e-186
1.0828392631658e-186
1.2271224919211e-187
1.3754847619059e-188
1.525589722338e-189
1.6748834849847e-190
1.8206697361542e-191
1.9601941530286e-192
2.0907342607258e-193
2.209690495709e-194
2.3146741231814e-195
2.4035878073277e-196
2.4746950419653e-197
2.5266752859369e-198
2.5586624623023e-199
2.5702654144978e-200
2.5615698987336e-201
2.5331226629243e-202
2.4858990557378e-203
2.4212563715101e-204
2.3408757272345e-205
2.2466956609087e-206
2.1408408262906e-207
2.0255491427087e-208
1.9031005585949e-209
1.7757502329583e-210
1.6456684669384e-211
1.5148891684749e-212
1.3852680483941e-213
1.2584511649909e-214
1.1358539329107e-215
1.0186552509633e-216
9.0838813135032e-218
8.7465737863726e-219
0.96310506095345
0.96218223889995
0.96149332708804
0.96085426471197
0.96011273759774
0.95922865553791
0.9581881676266
0.95697783316375
0.95558155059219
0.95395424298144
0.95196077498362
0.94921238184635
0.94459343613327
0.93376206703069
0.90728142853823
0.85745651930283
0.77331004054739
0.64332384448642
0.49643142250928
0.39185902200184
0.32720092270191
0.28444186451164
0.25502697755104
0.23530577039034
0.22506504881182
0.2266052428943
0.26030573257452
0.3730913102401
0.23190312290366
0.0072418229091567
1.4587032513394e-05
6.7603044544356e-09
1.0878404848113e-12
7.9510959415798e-17
3.2588993871166e-21
8.8962288048387e-26
1.8732476593584e-30
3.4784407182709e-35
6.5662307039967e-40
1.5104740345756e-44
5.237047514831e-49
2.9935997334838e-53
2.3885537027751e-57
1.9911389188389e-61
1.3581776573537e-65
7.2440653113814e-70
3.6633387490061e-74
2.2326708128128e-78
1.8740626474116e-82
2.3620917797717e-86
4.8178024360875e-90
1.6383103902203e-93
7.5403705854332e-97
5.7361753707077e-100
6.7404437698579e-101
1.6535591208585e-101
4.1672910836121e-102
1.0695112624022e-102
2.7775037612312e-103
7.2415513609183e-104
1.8855882291445e-104
4.9961661419173e-105
1.0076684442238e-105
1.3438726908738e-106
1.4869470984887e-107
1.4636710947501e-108
1.3206084361878e-109
1.1094440717896e-110
8.7586105281426e-112
6.5330209894735e-113
4.6131314066426e-114
3.0713052821219e-115
1.888422143927e-116
9.6907378247746e-118
2.985748142021e-119
4.6428223255372e-121
3.3979127392331e-123
1.1242776434364e-125
1.6769796345976e-128
1.1986651132345e-131
4.7924281370912e-135
1.5061838900205e-138
1.1653362831239e-141
1.938220711643e-143
9.9795872092634e-145
1.9914415709632e-146
5.3604962515303e-149
4.8982496765298e-152
2.7426569336282e-155
1.3339101195099e-158
7.9567679263061e-162
7.5258989643151e-165
1.4964615761853e-167
8.0971505992003e-170
1.0738048765221e-171
1.6544899147215e-173
3.168563288429e-175
1.4750048521148e-176
1.3971725806826e-177
1.4847790712072e-178
1.5390107141371e-179
1.5376778107802e-180
1.4853694475664e-181
1.3978875882716e-182
6.7378424310996e-184
7.9137243376832e-185
9.1793699150884e-186
1.05215440203e-186
1.1923474176359e-187
1.3365181800973e-188
1.4823957541982e-189
1.6274974596244e-190
1.7692020453127e-191
1.9048317581212e-192
2.0317396554747e-193
2.1473980893457e-194
2.2494841470854e-195
2.3359579696272e-196
2.4051302597455e-197
2.4557159098372e-198
2.4868714698018e-199
2.4982150833471e-200
2.4898284797206e-201
2.4622415520344e-202
2.4164009221788e-203
2.3536246337356e-204
2.2755456889577e-205
2.1840475286376e-206
2.0811947349834e-207
1.9691622223431e-208
1.8501659867699e-209
1.7263981414131e-210
1.5999685061427e-211
1.472854486325e-212
1.3468604073447e-213
1.2235869065051e-214
1.1044104965448e-215
9.9047782875472e-217
8.8328000538784e-218
8.5050124079364e-219
0.94511920811662
0.95241757012077
0.95658108482647
0.95830316157507
0.9587438818555
0.95846742209576
0.95773292864347
0.95667704135873
0.95532993064608
0.95359752028491
0.95111037756398
0.94652285605931
0.9344844791055
0.89560851925898
0.78597130860765
0.58702033370454
0.38385194860836
0.23782553385498
0.15546933415059
0.11626601190441
0.099546466254034
0.093432201171139
0.092934593616095
0.096040207520446
0.10471032217841
0.12411281494273
0.18973266277484
0.30548144667141
0.11951403640291
0.0020239473701909
3.1373716584047e-06
1.2937718879751e-09
1.9812908536049e-13
1.4388535089112e-17
6.0265805663052e-22
1.7128194499182e-26
3.8035819143356e-31
7.5239893682518e-36
1.5291000609787e-40
3.8359226828483e-45
1.4657799190772e-49
9.1522626312857e-54
7.8346399028496e-58
6.8678166239189e-62
4.8769233062049e-66
2.7070676502951e-70
1.4349992572337e-74
9.2312655067991e-79
8.2225800945061e-83
1.1045878175458e-86
2.4102271937347e-90
8.7499474596529e-94
4.2411921610488e-97
4.3744180151973e-100
6.4508650952294e-101
1.5850198417137e-101
3.9988513492153e-102
1.0271300926999e-102
2.6689929177798e-103
6.9613228192407e-104
1.8131360050052e-104
4.8063064582547e-105
9.6054806020136e-106
1.2760972418432e-106
1.4092669820651e-107
1.3856531445818e-108
1.2493211183001e-109
1.0490527103573e-110
8.2791148393131e-112
6.1739306162159e-113
4.3587979381162e-114
2.9014180079812e-115
1.7830912577891e-116
9.1133028620211e-118
2.7966489738269e-119
4.3451777718048e-121
3.1809737217147e-123
1.0530427605007e-125
1.5715384611142e-128
1.123821660937e-131
4.4953969729445e-135
1.4139697076767e-138
1.0965794662251e-141
1.8282699586633e-143
9.4457622496868e-145
1.8770843891579e-146
5.0463342805334e-149
4.6236088567462e-152
2.5939951886003e-155
1.2622886806961e-158
7.5290241112334e-162
7.11953839788e-165
1.4150204882614e-167
7.6525319592072e-170
1.0145902620078e-171
1.5643706953639e-173
3.0121698028686e-175
1.4167570203351e-176
1.3468211070724e-177
1.4320358051792e-178
1.4844925664684e-179
1.4832813206887e-180
1.4328853927494e-181
1.3485919886842e-182
6.4996872100845e-184
7.6329760926493e-185
8.8534661452309e-186
1.0148151502516e-186
1.1500728984424e-187
1.2891860403529e-188
1.4299601958984e-189
1.5699980803467e-190
1.7067693042749e-191
1.8376891315205e-192
1.9602025015992e-193
2.0718692990329e-194
2.1704467565684e-195
2.253965030116e-196
2.3207923719541e-197
2.3696869290534e-198
2.3998329593997e-199
2.4108601366113e-200
2.4028455391842e-201
2.3762988325933e-202
2.3321319916182e-203
2.2716156265704e-204
2.1963245324188e-205
2.1080754500882e-206
2.0088602049418e-207
1.9007773734991e-208
1.7859654430353e-209
1.6665400972485e-210
1.544537819035e-211
1.421867486783e-212
1.3002710922378e-213
1.1812941626884e-214
1.0662659997315e-215
9.5629410882798e-217
8.528187161849e-218
8.2119377336847e-219
0.55614839033258
0.92876367957648
0.94378997614064
0.95072543080822
0.95418352183
0.95562812770352
0.95576923598689
0.95510613856384
0.9536364645679
0.9509335547973
0.94538625295174
0.9309496637135
0.88510608792166
0.74291789835721
0.44783698721184
0.21110389214183
0.10192404969791
0.052396465207516
0.031442815462097
0.023781605953627
0.022066274015103
0.023360436123891
0.027173065349091
0.034150851959515
0.046382625111121
0.07185474305821
0.15259112854949
0.24543157915264
0.084246972085
0.0015813126870608
2.865664146773e-06
1.404343256342e-09
2.5543754783083e-13
2.183618052057e-17
1.0612130595527e-21
3.4390155644628e-26
8.5411596848898e-31
1.8493446370823e-35
4.0045106367016e-40
1.0323836803361e-44
3.9104171257012e-49
2.4295000342412e-53
2.1522327379906e-57
2.0430278254953e-61
1.6304116824634e-65
9.9369408688045e-70
5.4726118991308e-74
3.5103964814164e-78
3.0560929783702e-82
3.9578799731716e-86
8.2139754407854e-90
2.8610092390132e-93
1.4258402403112e-96
1.0182183566184e-99
8.7428982773186e-101
2.1333905019639e-101
5.358819836306e-102
1.372614402622e-102
3.5619771474232e-103
9.2921499867832e-104
2.4223930975984e-104
6.3664738751416e-105
1.4355167035712e-105
2.0323575239379e-106
2.3230863695681e-107
2.3394856555453e-108
2.1495924163097e-109
1.8343529671684e-110
1.4687458261771e-111
1.1102091329649e-112
7.9448412463517e-114
5.3709608092909e-115
3.3789988606974e-116
1.8491252114233e-117
6.5680049195392e-119
1.2182350477537e-120
1.0821326819777e-122
4.381413194786e-125
7.964191054048e-128
6.7797509243981e-131
3.0726722206491e-134
9.6832186206886e-138
4.9374164418103e-141
3.9037606166546e-143
8.8453814148888e-145
1.7518615238557e-146
4.7069728054398e-149
4.3189883838325e-152
2.4256713534419e-155
1.1808020854026e-158
7.0434169696786e-162
6.659846191484e-165
1.3233786190136e-167
7.1552104878865e-170
9.4863599682758e-172
1.4640419714189e-173
2.8367666215854e-175
1.3501837850613e-176
1.28878115544e-177
1.3711598403489e-178
1.421555333969e-179
1.4204798829908e-180
1.3722882855633e-181
1.2916996671981e-182
6.0685648179972e-184
7.1298776253924e-185
8.2724225569418e-186
9.484216340952e-187
1.0750121734479e-187
1.2052121263083e-188
1.3369733935419e-189
1.4680562719187e-190
1.5960952018493e-191
1.7186727105423e-192
1.8333981892345e-193
1.9379877967518e-194
2.0303416685951e-195
2.1086147382281e-196
2.1712778327649e-197
2.2171662619136e-198
2.2455138326539e-199
2.2559710412904e-200
2.248607060115e-201
2.2238959890067e-202
2.1826886278646e-203
2.126171696811e-204
2.0558169518242e-205
1.9733229911579e-206
1.8805527136488e-207
1.7794693781656e-208
1.6720740401458e-209
1.5603468318731e-210
1.4461941400807e-211
1.3314032532854e-212
1.2176055382585e-213
1.1062486946756e-214
9.9857819645459e-216
8.9563202085416e-217
7.9876003451428e-218
7.6918032818724e-219
0.014748116762402
0.24011778854892
0.6106369917003
0.77243515741815
0.83654789706923
0.8616637639647
0.86709707162863
0.86047375893034
0.83426703699686
0.77180267558957
0.6426203909998
0.4260403413402
0.17660257935256
0.044006432171115
0.0098681910143773
0.0037316266818975
0.0037245171109516
0.0058167061670494
0.008193690536334
0.0084098513775575
0.0071112032271565
0.0061553847095737
0.0082376482303707
0.018910278021005
0.052996531057471
0.12742414857889
0.14422108043384
0.041347822837433
0.0013458630281398
4.669148526664e-06
4.2392758277665e-09
1.3615272733406e-12
1.9412007475915e-16
1.4803015737731e-20
7.0658909594925e-25
2.4225123949844e-29
6.7645851559187e-34
1.7439609530966e-38
4.8171987503017e-43
1.7297854421921e-47
9.792233031406e-52
8.6192263196157e-56
9.5968621973767e-60
1.0130903308744e-63
8.3545867302707e-68
5.3995101249242e-72
3.440370658503e-76
2.7364907797014e-80
3.0796930540892e-84
5.3216927714668e-88
1.5166658110561e-91
7.1101681466863e-95
4.2530862008778e-98
2.4125664403769e-100
5.3734549622585e-101
1.3280655918672e-101
3.3660281509371e-102
8.6774768247862e-103
2.2608302600357e-103
5.9076201780088e-104
1.5409374468548e-104
4.0895084578313e-105
7.8640709158548e-106
1.0285673034855e-106
1.1271808340278e-107
1.1032908648868e-108
9.9187289302422e-110
8.3126960885691e-111
6.5516978249446e-112
4.8812128037163e-113
3.4436939154134e-114
2.2904320391388e-115
1.4044659328438e-116
7.0456259918462e-118
2.129804771054e-119
3.3016931918056e-121
2.4226997790311e-123
8.045858753558e-126
1.204349874655e-128
8.6346038964221e-132
3.4616935647718e-135
1.0922102662823e-138
8.5426250404453e-142
1.4382116984214e-143
7.5094271198512e-145
1.4813187349661e-146
3.9779421456169e-149
3.6541092159641e-152
2.0538883708506e-155
1.0001008097636e-158
5.9656661146542e-162
5.6398454163583e-165
1.120285707565e-167
6.0549877975027e-170
8.029360810631e-172
1.2423134286777e-173
2.4453842788551e-175
1.1978389391406e-176
1.1544256010246e-177
1.2299816838366e-178
1.2755515544013e-179
1.2747726234047e-180
1.2316804508721e-181
1.1594787543005e-182
5.4077577875829e-184
6.353617586541e-185
7.3721836037639e-186
8.4527613615393e-187
9.5818508781319e-188
1.0743385411374e-188
1.1919099546889e-189
1.3089015067003e-190
1.4232025750943e-191
1.532655592397e-192
1.6351262685815e-193
1.7285748688976e-194
1.8111251334293e-195
1.881127538128e-196
1.9372139130281e-197
1.978340928709e-198
2.0038205977389e-199
2.0133366680948e-200
2.0069465577853e-201
1.985069241523e-202
1.9484602021922e-203
1.8981751599774e-204
1.8355247583639e-205
1.7620226983126e-206
1.6793299617324e-207
1.5891977566201e-208
1.4934116631911e-209
1.3937391856882e-210
1.291882546918e-211
1.1894381338095e-212
1.0878635447425e-213
9.8845273387104e-215
8.9231935421129e-216
8.0039197072303e-217
7.1387828140359e-218
6.8750073410603e-219
0.00073350422271434
0.0065768741371178
0.022694883973424
0.05448322775927
0.098861982415154
0.14319908786702
0.17497765328435
0.17663431193846
0.14736590782606
0.094620611590548
0.043601667671605
0.013223475075536
0.0024908847931622
0.00062353533436883
0.0011013525971289
0.0028107056572506
0.0061116733806361
0.011143790189326
0.016948942324234
0.021469742231666
0.02409226250776
0.029056857041444
0.043237829832615
0.067726920578228
0.084541952921334
0.059827522532164
0.015884335039507
0.00095286509540327
8.5048186418127e-06
1.8712172127254e-08
1.3470182211476e-11
3.9536948847822e-15
5.683843203654e-19
4.6870943116765e-23
2.5453250928134e-27
1.0310632444211e-31
3.5064820722477e-36
1.1347714589207e-40
4.0906099615519e-45
2.0069203899453e-49
1.5643688945888e-53
1.8143602837546e-57
2.4533061470438e-61
2.9691598363412e-65
2.7396674219581e-69
1.9979351474021e-73
1.4810093234514e-77
1.4047662827409e-81
1.921265483884e-85
4.100507139922e-89
1.4624485238437e-92
8.4445431333905e-96
6.5034442797822e-99
1.9099605819737e-100
4.5536281775232e-101
1.1313150161446e-101
2.8797860154019e-102
7.4502093529539e-103
1.9461744178409e-103
5.0951194337565e-104
1.3311485119212e-104
3.5313492024723e-105
6.5582204851043e-106
8.4638959728868e-107
9.2140315215806e-108
8.9836978700867e-109
8.0564414469033e-110
6.7407848684414e-111
5.3067776632242e-112
3.9505745816963e-113
2.7854115308338e-114
1.8511429035312e-115
1.1322452969315e-116
5.5599828011546e-118
1.6586878170927e-119
2.5670580528217e-121
1.8885716966984e-123
6.2947835910408e-126
9.4550018749395e-129
6.7992230184991e-132
2.7329685580281e-135
8.6504348322829e-139
6.8200726117026e-142
1.1592684028206e-143
6.0989422390227e-145
1.2009944028568e-146
3.2233852127722e-149
2.9614126109405e-152
1.6648315669887e-155
8.1071725051409e-159
4.8356724945966e-162
4.5704020731871e-165
9.0744169802449e-168
4.9026362744132e-170
6.5036492363027e-172
1.0097337851523e-173
2.0290985169114e-175
1.030125795934e-176
1.0042590912292e-177
1.0718091543936e-178
1.111902112661e-179
1.1114246544485e-180
1.0740248669611e-181
1.0112344292519e-182
4.6829816340267e-184
5.5025163760038e-185
6.3851596893782e-186
7.3216778387556e-187
8.3004007358442e-188
9.3074280365406e-189
1.0326947257478e-189
1.1341654053257e-190
1.233325843707e-191
1.3283055205262e-192
1.4172532560153e-193
1.4983990244659e-194
1.5701137604594e-195
1.6309642947581e-196
1.6797608282613e-197
1.7155947798604e-198
1.7378653936081e-199
1.746294122818e-200
1.7409264779179e-201
1.7221216855251e-202
1.6905311156344e-203
1.6470669554844e-204
1.5928630146575e-205
1.5292298184843e-206
1.457606278638e-207
1.3795102240897e-208
1.296489944555e-209
1.2100786617925e-210
1.1217535263706e-211
1.0329003663685e-212
9.4478501800251e-214
8.585316730638e-215
7.7510833655811e-216
6.9532259037862e-217
6.2022494437593e-218
5.9736897543083e-219
2.8841495223235e-05
0.00013574851109925
0.00043017769842454
0.0012138143480437
0.0026058651920504
0.0041538202294789
0.0050625489434412
0.0046843574987272
0.003162698597161
0.0014586342286864
0.00043133983286485
9.780275823657e-05
0.00010240358090038
0.00030023663547468
0.00079535563459247
0.0018203369482863
0.0037210820667356