/*--------------------------------*- C++ -*----------------------------------*\
| =========                 |                                                 |
| \\      /  F ield         | OpenFOAM: The Open Source CFD Toolbox           |
|  \\    /   O peration     | Version:  2312                                  |
|   \\  /    A nd           | Website:  www.openfoam.com                      |
|    \\/     M anipulation  |                                                 |
\*---------------------------------------------------------------------------*/
FoamFile
{
    version     2.0;
    format      ascii;
    arch        "LSB;label=32;scalar=64";
    class       volScalarField;
    location    "1e-05";
    object      Ybar.Liq;
}
// * * * * * * * * * * * * * * * * * * * * * * * * * * * * * * * * * * * * * //

dimensions      [0 0 0 0 0 0 0];

internalField   nonuniform List<scalar> 
109340
(
0.99882803634752
0.99865210361766
0.99838466981201
0.99800294370325
0.99747422439439
0.99673035608527
0.99566023064991
0.99407585367887
0.9916507633997
0.98781499915756
0.98153270943812
0.97089625872827
0.95208129526006
0.91741959074385
0.85306321139693
0.74402296383149
0.59736464681376
0.4515042179679
0.33639720123137
0.25443701292428
0.1966151634145
0.15587386708736
0.12623658678075
0.10404042532346
0.08703394846939
0.073765594820952
0.063253684720701
0.054781826608159
0.047861519546542
0.042144807497605
0.037358030168185
0.033292586543414
0.029793886047128
0.026752417980482
0.024090158991582
0.021783879538709
0.99878908297166
0.99859191710014
0.99829970292901
0.99789287309365
0.99732660063734
0.99652425866242
0.99536259309566
0.9936250688909
0.99093738718243
0.98663614039268
0.97950952730116
0.9672809766182
0.94538642245419
0.90473237865684
0.83004088382112
0.70926354102021
0.55912484108681
0.41955862633122
0.31416337249923
0.23841504038787
0.1852724406099
0.14770720678881
0.12019457318079
0.099471165783218
0.083512179963158
0.070992593754318
0.061014149673442
0.052952806849531
0.046352164436012
0.040878745754677
0.036280647099346
0.032363685740653
0.028987700893601
0.026049900300665
0.02348647016383
0.021222747519232
0.99879099052445
0.99858823125921
0.99830263832917
0.99790547705819
0.99735316568929
0.99656668063935
0.9954278132886
0.99372469229038
0.991085416898
0.98683464004254
0.97971209913782
0.96742550970578
0.94544708877935
0.90461194153341
0.82957424499355
0.70858147880093
0.55867794516388
0.41952698565563
0.314358266156
0.23863258264938
0.18543690748283
0.14781932049438
0.1202869494902
0.099556603495016
0.083586411829692
0.071051130075327
0.061052366119618
0.05296837895401
0.046355370582947
0.040870886619766
0.036265825478536
0.032347796117303
0.028970883447065
0.026030459579085
0.02345075688166
0.021185835801843
0.99879454698171
0.99859401214003
0.99831838797555
0.99793216897891
0.99739172106129
0.99662697870511
0.99552027580412
0.99387174838238
0.99132506740391
0.98722130595074
0.98027378461883
0.96802481642365
0.94567702119043
0.90420015635762
0.828668497129
0.70755120698425
0.5582288346746
0.41988500822175
0.31475779104931
0.23904087684277
0.1857567928808
0.14802915114415
0.12043690852102
0.099674324850428
0.083683633497906
0.071126666609062
0.061105777306873
0.052998049057679
0.046359071554389
0.040864635492747
0.036250030465209
0.032319623408091
0.028933967673742
0.025989786488124
0.023412800154076
0.021150390365782
0.99880903818939
0.99861487002786
0.99834121075879
0.99796364836073
0.99743922822264
0.99670023271475
0.995636223847
0.99405981341061
0.99163815159581
0.98775023456888
0.98116015737242
0.9693952957416
0.94731986081392
0.90475512704407
0.82615497016182
0.70300463036501
0.55486707951531
0.41861048184165
0.31452147118663
0.23916996265182
0.18592608145088
0.14811959567681
0.12047733232436
0.099682690170864
0.083666347579143
0.071081640669379
0.061024957106241
0.052875739876127
0.046192013533033
0.040640254106827
0.03597295390382
0.031988800250222
0.028552585409824
0.025567282099146
0.022959605669404
0.020675506795491
0.99883757958444
0.99864070499024
0.9983616640493
0.99796660842934
0.9974041144839
0.9965905915213
0.99538587337564
0.99354322559667
0.99060429101913
0.98565585345279
0.97677658198962
0.95977911613705
0.92538074033815
0.85621386609734
0.74197297981407
0.60252696098894
0.46667495686035
0.35324762598246
0.26661844285866
0.2033354666964
0.15777783063733
0.12471723634579
0.10031615913148
0.081874597547218
0.067664924968614
0.056519169429881
0.047647064547769
0.040494731072146
0.034651350263269
0.029816988427844
0.025765164195453
0.022327538275046
0.019386461890263
0.016856951428634
0.014692907298094
0.012850296573525
0.019666827696309
0.017697304044559
0.015976180990812
0.014456734442149
0.013071483565945
0.011625302753051
0.0099135306085528
0.0079011771085007
0.0058153663759719
0.0039644358992118
0.0025704638971082
0.0015792804537724
0.0011125633633065
0.0028437548075691
0.0035118234471702
0.002701695618557
0.0021323371839834
0.001814921420705
0.0015448559272684
0.0012692389723424
0.0010275664394963
0.00088964903817617
0.00082188889821811
0.00078061729773065
0.00070980813645382
0.00064078902487274
0.00060471584824925
0.0005580158809851
0.00036118967507673
3.5145146449163e-05
3.1609554299784e-07
3.1517545933649e-10
8.015611519219e-14
7.5686572232143e-18
3.4934288798944e-22
9.7445407832165e-27
1.9486899759175e-31
3.2319667189807e-36
5.1067520179045e-41
9.0402722337623e-46
2.1974153637529e-50
8.6641235305969e-55
5.2214968739562e-59
3.7778145024439e-63
2.5006322578311e-67
1.3114247004878e-71
6.0818622249537e-76
3.1579292400992e-80
2.1600136131227e-84
2.1452880942465e-88
3.3429437635077e-92
8.6818677956061e-96
3.3758742078246e-99
1.4275659236794e-102
2.3384833779862e-104
5.6129091265439e-105
1.4012334121258e-105
3.5682107400062e-106
9.2116939897503e-107
2.3943486179537e-107
6.2279075294207e-108
1.6317011809113e-108
3.79941090722e-109
5.4916616238722e-110
6.338258820519e-111
6.4188890470737e-112
5.9191041277628e-113
5.0633976204219e-114
4.0611901266758e-115
3.073670686282e-116
2.2017148682473e-117
1.4898285599702e-118
9.3892120708191e-120
5.1965091978726e-121
1.8906713297187e-122
3.5349272147482e-124
3.1442722833186e-126
1.2723586133128e-128
2.3103831545567e-131
1.9651721091996e-134
8.9031142902464e-138
2.805306250277e-141
1.4144369646381e-144
1.0698522284424e-146
2.4499904645838e-148
4.5355833895196e-150
1.1696876394071e-152
1.1189409859424e-155
6.5311777251669e-159
3.3103410666528e-162
2.0130039280654e-165
1.91229119378e-168
3.7873055836899e-171
2.0296703048814e-173
2.6624207455755e-175
4.0607243053837e-177
7.6308074186322e-179
3.4558594896335e-180
3.2444927927001e-181
3.4435826562924e-182
3.5685371520907e-183
3.5650619713797e-184
3.4434780248494e-185
3.2403470242968e-186
1.5616723011101e-187
1.8343055303234e-188
2.1277696333911e-189
2.4389613340515e-190
2.7639714068851e-191
3.0981555285517e-192
3.4362417637146e-193
3.7724714329571e-194
4.1007680181182e-195
4.4149269166365e-196
4.708817428899e-197
4.9765874728543e-198
5.2128612304194e-199
5.4129202639053e-200
5.5728595592676e-201
5.6897113894112e-202
5.761531727663e-203
5.7874460473911e-204
5.7676535658274e-205
5.7033911771689e-206
5.5968603313017e-207
5.4511218297343e-208
5.2699648383524e-209
5.0577572999355e-210
4.8192853456617e-211
4.5595892660928e-212
4.2838031500934e-213
3.9970045007472e-214
3.7040790733967e-215
3.4096049439885e-216
3.1177584991994e-217
2.8322437313794e-218
2.5562450931511e-219
2.2924143793519e-220
2.0441998293909e-221
1.9682258978572e-222
0.019178763509934
0.017309047491608
0.015623567656469
0.014049052817144
0.012384788596478
0.010479006146689
0.0084011560552976
0.006379556784911
0.0046134225532469
0.0031937297408823
0.0021086307805364
0.0014354685003694
0.0014940622155603
0.003455205858227
0.0032790275059113
0.0025929976331953
0.002076060648283
0.0017571497460555
0.0014632010879478
0.0011780012066319
0.00095159647532327
0.00081766264531972
0.00073299122939859
0.00066336513723431
0.00057813774096483
0.00051390118376872
0.00047983710775759
0.00044962798753595
0.00023865531601677
1.0927936754466e-05
4.7157036145418e-08
2.9957914149442e-11
5.5750814310421e-15
4.2444895752449e-19
1.6972606240648e-23
4.3355024193034e-28
8.3092484534915e-33
1.3757608835758e-37
2.2694640623324e-42
4.4562837426292e-47
1.2921114591109e-51
6.2411829967005e-56
4.3380536640363e-60
3.2640343807229e-64
2.0473455981674e-68
1.0052255597307e-72
4.6227446335935e-77
2.5315960616574e-81
1.8920436013081e-85
2.1081539592791e-89
3.7793488258968e-93
1.1325904616642e-96
4.7104834354014e-100
2.4024932721751e-103
1.6029647025966e-104
3.9144937954214e-105
9.828320540223e-106
2.5127756767001e-106
6.5037954496323e-107
1.6917664066944e-107
4.39895132309e-108
1.1644140184976e-108
2.3868209297497e-109
3.2060090614257e-110
3.5603072095942e-111
3.5123930874348e-112
3.1738017914229e-113
2.6691177184124e-114
2.108795930286e-115
1.5738867240141e-116
1.1119174110974e-117
7.4068328679697e-119
4.5591690825861e-120
2.3585017574982e-121
7.3336884953104e-123
1.1439594322357e-124
8.3809749059105e-127
2.7744643652516e-129
4.1402259649632e-132
2.9607650361729e-135
1.1837973621902e-138
3.7173481410155e-142
2.8482779486876e-145
4.6733796715683e-147
2.4182952479623e-148
4.6109574098902e-150
1.1951601323117e-152
1.1220506892346e-155
6.4750849529207e-159
3.2504212660608e-162
1.9646530569859e-165
1.8629810268447e-168
3.6945885140297e-171
1.9870022400171e-173
2.6164159617961e-175
4.0020891846509e-177
7.5454785018195e-179
3.4295837034067e-180
3.2231976822071e-181
3.4214425848028e-182
3.5456706410265e-183
3.5422510466229e-184
3.4214719427613e-185
3.2196643399217e-186
1.5517208019445e-187
1.8226241810212e-188
2.1142229742644e-189
2.4234333387264e-190
2.7463718937695e-191
3.0784255019379e-192
3.4143575423722e-193
3.7484475379354e-194
4.0746588080123e-195
4.3868269554895e-196
4.6788605805351e-197
4.9449447423143e-198
5.1797374142999e-199
5.3785495195252e-200
5.5375000506497e-201
5.6536392102245e-202
5.7250343333832e-203
5.7508154484109e-204
5.7311795387283e-205
5.6673547431768e-206
5.5615277299484e-207
5.4167391839907e-208
5.236753667495e-209
5.0259109909329e-210
4.7889666460821e-211
4.5309288141448e-212
4.2568990131192e-213
3.9719226544547e-214
3.6808547218821e-215
3.3882445563149e-216
3.0982424223145e-217
2.8145292313831e-218
2.5402696762515e-219
2.2780991795815e-220
2.0314447068129e-221
1.9559551675574e-222
0.019168392010969
0.017340824595413
0.015544904910019
0.013531124194254
0.011247144661721
0.0089187486189689
0.006815373855757
0.0051282856897044
0.0037992118946999
0.0027380299150306
0.001958665154568
0.0016323684496459
0.0022925160391914
0.0032537719135525
0.003182068055946
0.0025688279628898
0.0020374801503897
0.001660184881564
0.0013111254282177
0.001003677957993
0.00077219648000595
0.00061728752153361
0.00050754092253159
0.00042538747171029
0.00035626508220768
0.00030977672641693
0.00029354033726991
0.00032379598346416
0.00019618293894502
7.7163726468335e-06
2.7283906043393e-08
1.573989984157e-11
2.7870709930319e-15
2.0789486181332e-19
8.2971622749284e-24
2.1406689671425e-28
4.1768116667961e-33
7.0816547133586e-38
1.2027618239049e-42
2.446331571153e-47
7.3877639514176e-52
3.7142437337722e-56
2.6718303961372e-60
2.0652250228611e-64
1.3249184025068e-68
6.6477254738462e-73
3.1301733901999e-77
1.7586213560669e-81
1.350413877488e-85
1.5478858078975e-89
2.8574078686017e-93
8.8171763204282e-97
3.7570868972994e-100
2.0579136575437e-103
1.5730087914401e-104
3.8445835900971e-105
9.6570001330627e-106
2.4697353170924e-106
6.3938080437615e-107
1.6633533525541e-107
4.3253330877806e-108
1.1448790932576e-108
2.3385823394259e-109
3.1361904287949e-110
3.4799221935389e-111
3.4314182742362e-112
3.0996642468316e-113
2.6062231949305e-114
2.0588071910931e-115
1.5364206841613e-116
1.0853635549816e-117
7.2293338910185e-119
4.4489527991879e-120
2.2970989423959e-121
7.126090550599e-123
1.1105285656433e-124
8.1325754397228e-127
2.691541617284e-129
4.0155827457408e-132
2.8709462607994e-135
1.147851361599e-138
3.6052207395823e-142
2.7734513257441e-145
4.5824008180922e-147
2.3566983001105e-148
4.6258086444228e-150
1.2526085940144e-152
1.1465341646285e-155
6.4133989470292e-159
3.1262977395449e-162
1.8705393708992e-165
1.7724729309507e-168
3.5289308601492e-171
1.9102564261601e-173
2.5306559683139e-175
3.8879836519116e-177
7.3715576011551e-179
3.3733512920237e-180
3.1768861434811e-181
3.3732118692184e-182
3.4958500089765e-183
3.4925502892335e-184
3.373524113018e-185
3.1746007279684e-186
1.5300397961412e-187
1.7971681562477e-188
2.0846937079001e-189
2.3895779634749e-190
2.7079959407086e-191
3.0354033418757e-192
3.3666404816652e-193
3.6960696088901e-194
4.0177401456141e-195
4.3255746089964e-196
4.6135666482496e-197
4.8759818096975e-198
5.1075513937182e-199
5.3036501140915e-200
5.4604491811462e-201
5.575037841977e-202
5.6455082125994e-203
5.6710003006164e-204
5.6517062938194e-205
5.5888353330804e-206
5.4845419585037e-207
5.3418230988962e-208
5.1643897763785e-209
4.9565205642698e-210
4.7229042450766e-211
4.4684790782885e-212
4.1982756454166e-213
3.9172694570899e-214
3.6302484647875e-215
3.3416994080688e-216
3.0557156378638e-217
2.7759277741984e-218
2.5054574509021e-219
2.246904410692e-220
2.0036492541261e-221
1.9292149707582e-222
0.019152181418173
0.017138153805313
0.014548270004341
0.011565377426594
0.0088304418310272
0.006728216559837
0.0051820255067274
0.003998452022443
0.0030691229957554
0.002370440220709
0.0020131920370114
0.0023514090505781
0.0028938526336214
0.0031161669325671
0.0029422498340434
0.0022907817950508
0.0016822809553124
0.0011833195291157
0.00078466122833718
0.00051537034449013
0.00035315234102717
0.00025770788459444
0.00019922058800859
0.00016356177608068
0.00014188475892556
0.00013055365502819
0.00014055746392276
0.00020905715464671
0.00013828696144883
4.3214541795039e-06
1.1652784666578e-08
5.9717256333939e-12
9.9738170453592e-16
7.2858685682784e-20
2.916279313736e-24
7.6625809236997e-29
1.5383651826428e-33
2.7043121441923e-38
4.7971887712363e-43
1.0275748185162e-47
3.2917964171928e-52
1.7499355984849e-56
1.3173912241504e-60
1.0529891526576e-64
6.9416748048998e-69
3.5781872885279e-73
1.738391412402e-77
1.0121048413394e-81
8.080468151016e-86
9.6543654345876e-90
1.8613281119828e-93
5.9924647900499e-97
2.6409526148929e-100
1.6412984958829e-103
1.5306890275736e-104
3.7455577331978e-105
9.4142345941989e-106
2.4087579790133e-106
6.2380276560968e-107
1.6231425662011e-107
4.2213210153412e-108
1.1176346924665e-108
2.2705437155508e-109
3.0377196952055e-110
3.3666592136049e-111
3.3174038009204e-112
2.9953258404388e-113
2.5177363965276e-114
1.9884938035102e-115
1.4837304995128e-116
1.0480248099097e-117
6.9797830666745e-119
4.294064213809e-120
2.2112919086161e-121
6.8388844980296e-123
1.0647035959549e-124
7.7946658194133e-127
2.5794421346746e-129
3.8482220648793e-132
2.7513596609817e-135
1.1002998072863e-138
3.4578778048305e-142
2.6695212484616e-145
4.4293083054971e-147
2.2752260099155e-148
4.5391448631415e-150
1.225636285915e-152
1.1155294005997e-155
6.2205278802006e-159
3.0197977316013e-162
1.8002906791619e-165
1.702617540781e-168
3.3868815536706e-171
1.8336926861436e-173
2.4321515346112e-175
3.7440192905328e-177
7.1349127188839e-179
3.2913890651774e-180
3.1079202765925e-181
3.301222074029e-182
3.4214705886213e-183
3.4183464884093e-184
3.3019354959023e-185
3.1073222819476e-186
1.4976725025045e-187
1.7591388662344e-188
2.0405541485053e-189
2.3389564211388e-190
2.6506112169459e-191
2.97107687389e-192
3.2953068047701e-193
3.6177845445504e-194
3.9326859909617e-195
4.2340617436883e-196
4.5160311962665e-197
4.7729792343217e-198
4.9997461385741e-199
5.1918016180938e-200
5.3453947818642e-201
5.4576732323918e-202
5.5267662247455e-203
5.5518288522859e-204
5.5330463502787e-205
5.4715997060359e-206
5.3695956937621e-207
5.2299660985615e-208
5.0563421694774e-209
4.8529111904864e-210
4.624262459631e-211
4.3752299310337e-212
4.1107383425892e-213
3.8356588865031e-214
3.554679460148e-215
3.2721933486377e-216
2.9922089274681e-217
2.7182817181365e-218
2.4534690468716e-219
2.2003173605846e-220
1.9621379987675e-221
1.8892788438081e-222
0.018413232097717
0.014530022317429
0.010423949763092
0.0077683199497452
0.0060655866641656
0.0048245197804301
0.0038706580716513
0.003119871040326
0.0026150527772724
0.0023683866463327
0.0027036923817863
0.0031123465177332
0.0031973794481152
0.0028931932344463
0.0021734747746368
0.0013524293276333
0.00076197082718338
0.00038931919940297
0.00019490300723096
0.00011520488023862
8.0658151380661e-05
6.3558731092989e-05
5.4763223331322e-05
5.042604722003e-05
4.9047463612558e-05
5.1559341940961e-05
6.6631227197105e-05
0.0001412373932497
7.8504161195309e-05
1.7732047378178e-06
3.546789755648e-09
1.6080821029579e-12
2.5376274622993e-16
1.8257536441033e-20
7.3920963533146e-25
1.999162932885e-29
4.1801817916719e-34
7.7224424550186e-39
1.4526048834048e-43
3.3345212480048e-48
1.1551387359077e-52
6.6027201214348e-57
5.2694143615684e-61
4.3929220458218e-65
2.9954570300175e-69
1.5964926729562e-73
8.0658881551304e-78
4.9113777445112e-82
4.119218843814e-86
5.1884478462198e-90
1.0576910126069e-93
3.5952622771313e-97
1.6541696294371e-100
1.2578850439436e-103
1.4771759831481e-104
3.6196467157843e-105
9.1054272827117e-106
2.3312209569235e-106
6.0399767580602e-107
1.572070012126e-107
4.0894021454681e-108
1.0831290583939e-108
2.1844088606066e-109
2.9133354034078e-110
3.2238028276648e-111
3.1737373880636e-112
2.8639350735809e-113
2.4063551696999e-114
1.9000148758198e-115
1.4174424087874e-116
1.0010581572326e-117
6.6659443307206e-119
4.0993643660875e-120
2.104053962215e-121
6.4840283602175e-123
1.008512809213e-124
7.3831375422359e-127
2.4437682359929e-129
3.6467623728434e-132
2.6080265351396e-135
1.0433856985847e-138
3.2814454201998e-142
2.5402939459851e-145
4.2261100230847e-147
2.1759604686114e-148
4.341272629998e-150
1.1678181246298e-152
1.0658319117275e-155
5.9580256142815e-159
2.8925654766911e-162
1.7229538903016e-165
1.6280302501818e-168
3.2352022374605e-171
1.7499188035057e-173
2.3202103478852e-175
3.5744774751674e-177
6.8450370270952e-179
3.1862844661591e-180
3.0180561305265e-181
3.2072348067017e-182
3.3243419025535e-183
3.3214415838666e-184
3.2084422956406e-185
3.0194732081671e-186
1.4553896538795e-187
1.7093822160322e-188
1.9827641109813e-189
2.2726764520421e-190
2.5754963017539e-191
2.886908213332e-192
3.2020068991477e-193
3.5154297051254e-194
3.821514666074e-195
4.1144777739337e-196
4.3886015737055e-197
4.6384262900956e-198
4.8589343811024e-199
5.0457197068216e-200
5.1951333486072e-201
5.3043994462103e-202
5.371696129163e-203
5.3961985796135e-204
5.3780833345007e-205
5.3184949743997e-206
5.2194782230541e-207
5.0838800830907e-208
4.9152278746733e-209
4.7175898706249e-210
4.4954256131414e-211
4.2534329642258e-212
3.9963985232524e-213
3.7290573020069e-214
3.4559665570127e-215
3.181397526603e-216
2.9092475926102e-217
2.6429741662071e-218
2.385550544663e-219
2.1394535195516e-220
1.9079039039697e-221
1.8371010639245e-222
0.0076634801777727
0.0057075091869457
0.0050836675127345
0.0045702288815874
0.0040320313175082
0.003501566215062
0.0030995810123865
0.0027946122185672
0.002816845409032
0.0031488634293087
0.0033759995118585
0.0033467076859088
0.0029101956613819
0.0018709828807441
0.00084080844940108
0.00031659165064361
0.00012541726263367
5.6819736421893e-05
3.1008123490158e-05
2.0792928397375e-05
1.6637355914281e-05
1.518858460238e-05
1.5231611697823e-05
1.6226086053012e-05
1.84790365379e-05
2.3285915613307e-05
4.1858214742519e-05
0.000103742960971
3.1789915970165e-05
4.9032675287388e-07
7.5436294721765e-10
3.0553822552017e-13
4.6004261892392e-17
3.2940142337913e-21
1.3642833123309e-25
3.8438980113173e-30
8.4799348156491e-35
1.6693215466491e-39
3.3812408790565e-44
8.4656799223679e-49
3.2324375957433e-53
2.018333582405e-57
1.7281935713976e-61
1.5150271120166e-65
1.0754862066885e-69
5.9654113483429e-74
3.1593018906886e-78
2.0305471965143e-82
1.8072596837785e-86
2.4262193266205e-90
5.2913091253854e-94
1.9201698057781e-97
9.3041623628777e-101
9.5926876414624e-104
1.4137053741845e-104
3.4695288096949e-105
8.7369980136516e-106
2.2387144909653e-106
5.8037156248019e-107
1.5111780350483e-107
3.9321682635919e-108
1.0419512917615e-108
2.0822316967743e-109
2.7663710621398e-110
3.0553515048842e-111
3.0045377510823e-112
2.7093154164417e-113
2.2753528880349e-114
1.7959884352224e-115
1.3395273158201e-116
9.4586506950996e-118
6.2972125668421e-119
3.8707099823675e-120
1.9786803374016e-121
6.0733688501907e-123
9.4385860352928e-125
6.9117636547603e-127
2.2889300068515e-129
3.4174702967377e-132
2.4451842053554e-135
9.7871751295977e-139
3.0805434890904e-142
2.3904121282154e-145
3.9863709082259e-147
2.0595628282543e-148
4.0919713489921e-150
1.0993742321244e-152
1.0060708563477e-155
5.6350818101495e-159
2.7372560097368e-162
1.6303305962444e-165
1.540124923754e-168
3.0591347957211e-171
1.653829937508e-173
2.1922631820129e-175
3.3797775941781e-177
6.5071807946316e-179
3.0604583646323e-180
2.9092910820258e-181
3.093305387454e-182
3.2065799225844e-183
3.2039431359609e-184
3.0950751751512e-185
2.9129934442454e-186
1.4039475718679e-187
1.6487399653036e-188
1.9123681793366e-189
2.1920228540672e-190
2.4841824227965e-191
2.7846697664696e-192
3.0887449588505e-193
3.3912298025533e-194
3.686658595711e-195
3.9694482490688e-196
4.2340797749951e-197
4.475282470427e-198
4.6882119091646e-199
4.8686131851757e-200
5.0129616879909e-201
5.1185749881774e-202
5.1836910653338e-203
5.2075100064638e-204
5.1901983027829e-205
5.1328568427322e-206
5.0374555115479e-207
4.9067388549673e-208
4.7441084641628e-209
4.5534885388015e-210
4.3391814647213e-211
4.105720212566e-212
3.8577239610738e-213
3.5997626327636e-214
3.336235074711e-215
3.0712645054948e-216
2.8086136649388e-217
2.5516209253942e-218
2.3031576070429e-219
2.0656159456196e-220
1.8421068608625e-221
1.7737963007975e-222
0.00020264368682505
0.0024209343942649
0.0028613678601573
0.0031203854652993
0.003207599694638
0.0031720769413491
0.0032056798446534
0.0033082816546812
0.0033733720374259
0.0034274128513962
0.0033072484974007
0.0027428113504196
0.0016714858196259
0.00065538342464958
0.00017029031529378
5.0543762286902e-05
2.0916079879206e-05
1.014584561985e-05
5.7996594960262e-06
4.1271794843163e-06
3.6116855754151e-06
3.6880674102509e-06
4.2558504068629e-06
5.4353902428068e-06
7.5980848122635e-06
1.2337381546517e-05
3.1497747123567e-05
7.3919240879502e-05
2.0557819723516e-05
3.7697405020486e-07
6.8319389192036e-10
3.3036045828854e-13
5.9219258529517e-17
4.9970101410389e-21
2.4026140795959e-25
7.7201421692916e-30
1.9048424901805e-34
4.1041731097361e-39
8.8563306483099e-44
2.2784003364583e-48
8.6222011430218e-53
5.3565464406137e-57
4.7465052921483e-61
4.5063231562795e-65
3.5954599347936e-69
2.1899463942188e-73
1.2050122855211e-77
7.7226623975639e-82
6.7179158641244e-86
8.6944576764079e-90
1.8034397090481e-93
6.2789967569781e-97
3.1282234656525e-100
2.2331141826106e-103
1.9163745037201e-104
4.671418369471e-105
1.171400815233e-105
2.9934293700352e-106
7.749164735346e-107
2.0177742478713e-107
5.2542511626151e-108
1.3802162806505e-108
3.1118032626619e-109
4.4056809569146e-110
5.0363418526222e-111
5.0725170279545e-112
4.6614505711557e-113
3.9784507756965e-114
3.1860034571388e-115
2.408656235198e-116
1.7239626449629e-117
1.1656547001574e-118
7.3347358498905e-120
4.0146217883674e-121
1.4262670698505e-122
2.6460727477056e-124
2.3511191905513e-126
9.5226609232925e-129
1.7316872764172e-131
1.4749094704329e-134
6.6885726744375e-138
2.1092760342974e-141
1.0761723914644e-144
8.5115045057077e-147
1.9286531635767e-148
3.8189852286962e-150
1.0254409694459e-152
9.397864971022e-156
5.2694221153529e-159
2.5605534592547e-162
1.5251775587857e-165
1.4406826996117e-168
2.8610142855154e-171
1.5463511838586e-173
2.0497534025418e-175
3.1630203749371e-177
6.1282579788279e-179
2.9166478460309e-180
2.7839180227371e-181
2.9618087256679e-182
3.0706322887571e-183
3.0682896869785e-184
2.9641836196928e-185
2.7901045652386e-186
1.3108241317271e-187
1.540069567747e-188
1.7868614853366e-189
2.0486114115235e-190
2.3220496277233e-191
2.603284293603e-192
2.887891454116e-193
3.1710332920173e-194
3.4476001418277e-195
3.7123702070046e-196
3.9601797193005e-197
4.1860955315836e-198
4.3855818907216e-199
4.5546534129083e-200
4.690007051544e-201
4.78912705038e-202
4.8503584159135e-203
4.8729462126019e-204
4.8570398540878e-205
4.8036634063571e-206
4.7146546155822e-207
4.5925768228778e-208
4.4406090529698e-209
4.2624203148018e-210
4.062034510128e-211
3.8436923205411e-212
3.6117160690396e-213
3.3703828841573e-214
3.123810602445e-215
2.8758598057315e-216
2.6300542815056e-217
2.3895210923588e-218
2.1569504888749e-219
1.9345845243691e-220
1.7253389399612e-221
1.6614461349216e-222
2.5455886040521e-06
5.085307426387e-05
0.00028683762409708
0.00064015642229444
0.00097291177211537
0.0011942112286549
0.0012627714365202
0.0012101276148075
0.0010149561689494
0.0007042781948176
0.00037982457054707
0.0001510142415062
4.0487639273749e-05
9.1760786303649e-06
2.1543335641011e-06
8.2252553158027e-07
8.0185709945533e-07
1.1913516351901e-06
1.5572752288714e-06
1.4655289066552e-06
1.1556656449528e-06
9.6855964798631e-07
1.2940917719189e-06
3.0174670290225e-06
9.0066401918182e-06
2.7301732728002e-05
3.5885540897066e-05
9.0396583521059e-06
3.0753654754902e-07
1.087588737557e-09
9.8620844472748e-13
3.1430623281807e-16
4.4386232282267e-20
3.3539255642515e-24
1.5882873552928e-28
5.410106063194e-33
1.5029967128448e-37
3.8600016930626e-42
1.0634495336077e-46
3.8133241526994e-51
2.1578605009472e-55
1.8997242164147e-59
2.1159018741839e-63
2.2338494795463e-67
1.8416045130604e-71
1.1893899417415e-75
7.5718649928665e-80
6.0178046564528e-84
6.7677550043631e-88
1.1687803306785e-91
3.3294479988058e-95
1.5603019128162e-98
9.3303125072477e-102
5.2905341571696e-104
1.1775440681929e-104
2.9067407799308e-105
7.3529396541022e-106
1.8908825866125e-106
4.9151725963339e-107
1.2822481697163e-107
3.3415166129682e-108
8.8650091392025e-109
1.704642012845e-109
2.2296528483559e-110
2.4436642046278e-111
2.3921895916378e-112
2.1509318974615e-113
1.8029403371527e-114
1.4212296576555e-115
1.0590363077368e-116
7.4727831381925e-118
4.9710999593256e-119
3.048782706208e-120
1.5297429862258e-121
4.6252079277155e-123
7.1719327996292e-125
5.2641546226903e-127
1.7488766483195e-129
2.6189827935205e-132
1.8786971217155e-135
7.5366442817161e-139
2.3795424624533e-142
1.8621880265957e-145
3.1358777698197e-147
1.6373568638638e-148
3.2292045345987e-150
8.6661525559109e-153
7.9511129672448e-156
4.4617733589369e-159
2.1687045842541e-162
1.2918020424914e-165
1.220032539257e-168
2.4219477893926e-171
1.3085762663526e-173
1.7349342731653e-175
2.6839824347596e-177
5.2827561743572e-179
2.5875547500295e-180
2.4936943602038e-181
2.6568532860408e-182
2.7552566711059e-183
2.7535565669502e-184
2.6604665099146e-185
2.5045039894231e-186
1.1680882750897e-187
1.3723956577286e-188
1.592407889704e-189
1.825814886879e-190
2.0697005871252e-191
2.320594515413e-192
2.5745512879211e-193
2.8272555576594e-194
3.0741483302943e-195
3.3105692107166e-196
3.5319080848658e-197
3.7337590808518e-198
3.9120694363206e-199
4.0632761434886e-200
4.1844239255561e-201
4.2732591683839e-202
4.3282958042334e-203
4.3488507218928e-204
4.3350479454996e-205
4.2877924694889e-206
4.2087161532201e-207
4.1000993751116e-208
3.9647731534213e-209
3.8060071149439e-210
3.6273890165053e-211
3.4327015052311e-212
3.2258014729826e-213
3.0105067671293e-214
2.7904942257275e-215
2.5692120790497e-216
2.3498087711033e-217
2.1350792708299e-218
1.9274290928163e-219
1.7288639574468e-220
1.5419925185005e-221
1.48501644618e-222
1.317615710809e-07
1.285413474522e-06
4.3900229295473e-06
1.0231780454879e-05
1.8811374140936e-05
2.8502805864197e-05
3.6454233570148e-05
3.7295612900956e-05
3.0564057790529e-05
1.9145558267075e-05
8.9624603208625e-06
2.8605794285268e-06
5.6341966492355e-07
1.4276644227995e-07
2.5067411235188e-07
6.2962049775931e-07
1.3330304429127e-06
2.3324433091316e-06
3.337712773713e-06
3.9147565164456e-06
4.107359006247e-06
4.8427391197388e-06
7.4805001597866e-06
1.2966588822928e-05
1.7720973157745e-05
1.2529857574564e-05
3.2865939297253e-06
2.0813421897812e-07
1.9147176773829e-09
4.2657847280104e-12
3.0773335641174e-15
9.0021144349155e-19
1.2867004874525e-22
1.0544053348521e-26
5.6924566730204e-31
2.2943108758024e-35
7.7707636560777e-40
2.5070354207291e-44
9.019010513525e-49
4.4205295792518e-53
3.4453268529247e-57
3.9972299171137e-61
5.4069515706958e-65
6.5445331249067e-69
6.0368884862433e-73
4.3995454234671e-77
3.2586372653003e-81
3.0885597302122e-85
4.2214167322612e-89
9.0048621619383e-93
3.2102476118964e-96
1.853080526466e-99
1.4266955034687e-102
4.188299191865e-104
9.9783385541126e-105
2.4758256905879e-105
6.2896230457087e-106
1.6231136831814e-106
4.2303599614117e-107
1.1057595237308e-107
2.8863622966932e-108
7.654681004504e-109
1.4215189338312e-109
1.8346659314336e-110
1.997473713676e-111
1.9478061725314e-112
1.7470319551797e-113
1.4619720109488e-114
1.1511520564215e-115
8.5711070159051e-117
6.0442529719857e-118
4.0176489535404e-119
2.4578413493548e-120
1.2071779237359e-121
3.6021001513954e-123
5.5761598240622e-125
4.1035780574069e-127
1.3682574058489e-129
2.0560884776547e-132
1.4793596720488e-135
5.950097291177e-139
1.8846252019916e-142
1.4866907351922e-145
2.5276640632737e-147
1.3298110593123e-148
2.6181033318689e-150
7.0222912536403e-153
6.4438335194522e-156
3.616598983477e-159
1.7580281154413e-162
1.0471138804446e-165
9.8868675011422e-169
1.9618003246556e-171
1.0595354801762e-173
1.4052681654264e-175
2.1815009702489e-177
4.3834555502566e-179
2.2252632672088e-180
2.1693171799664e-181
2.3151887151331e-182
2.4017655177748e-183
2.4007188534869e-184
2.3199257527781e-185
2.1842924302327e-186
1.0115349388023e-187
1.188555886588e-188
1.37920855132e-189
1.5814983795693e-190
1.7929045750818e-191
2.0104246126946e-192
2.2306429489684e-193
2.4498218002753e-194
2.6640104855756e-195
2.8691686380802e-196
3.0612976682026e-197
3.236574281511e-198
3.3914796611594e-199
3.5229181304565e-200
3.6283196975402e-201
3.7057218075422e-202
3.753826814618e-203
3.7720330518992e-204
3.7604388228915e-205