/*--------------------------------*- C++ -*----------------------------------*\
| =========                 |                                                 |
| \\      /  F ield         | OpenFOAM: The Open Source CFD Toolbox           |
|  \\    /   O peration     | Version:  2312                                  |
|   \\  /    A nd           | Website:  www.openfoam.com                      |
|    \\/     M anipulation  |                                                 |
\*---------------------------------------------------------------------------*/
FoamFile
{
    version     2.0;
    format      ascii;
    arch        "LSB;label=32;scalar=64";
    class       volScalarField;
    location    "1e-05";
    object      yPlus;
}
// * * * * * * * * * * * * * * * * * * * * * * * * * * * * * * * * * * * * * //

dimensions      [0 0 0 0 0 0 0];

internalField   uniform 0;

boundaryField
{
    inlet
    {
        type            calculated;
        value           uniform 0;
    }
    outlet
    {
        type            calculated;
        value           uniform 0;
    }
    nozzleWalls
    {
        type            calculated;
        value           nonuniform List<scalar> 
144
(
37.052406943624
36.6305088244
36.193499484473
35.765808505448
35.355639942422
34.967318092547
34.604363877729
34.27212516027
33.979184017723
33.743735707414
33.595491467007
33.601119516734
33.858785374855
34.58580642812
35.917111672035
37.637411872351
39.313080146665
40.539839658085
41.273303351985
41.490833709649
41.121402240548
40.278098627864
39.090288307988
37.647480168637
36.026309800949
34.283277348743
32.469552870649
30.622961744604
28.776747742222
26.956884005515
25.183660295895
23.471941340305
21.831486380254
20.279991210931
18.840214990122
17.408729076196
37.293901639871
36.951640367541
36.521225166979
36.085256964401
35.661425186684
35.256366790405
34.874043637229
34.518149119018
34.19468406442
33.913705899988
33.696984701426
33.581059728149
33.635104544112
33.986748597108
34.862547842588
36.326628246595
38.077525163848
39.693763016947
40.75608047671
41.380217120508
41.450178975348
40.949280897529
40.010307804378
38.749715083737
37.256504505642
35.599953071099
33.834677049266
32.00945927906
30.160028431799
28.318591326726
26.508996078237
24.749973979863
23.055592182824
21.436000923083
19.91253958899
18.504441441835
37.145638313388
36.739174988524
36.302395987981
35.871303905417
35.45628204199
35.062157286439
34.692474422908
34.351912022333
34.04803867263
33.796229625027
33.621965094049
33.581918480147
33.760010640506
34.347194974369
35.534787820437
37.194699091095
38.922777332893
40.306510403467
41.131031248331
41.487140300921
41.264793955613
40.525216937697
39.41511176629
38.027312268226
36.445049552334
34.72765300615
32.927290053179
31.085542640367
29.236654080065
27.408470124635
25.62209563036
23.893952007961
22.235578269652
20.660910107756
19.193087935494
17.847194540264
37.227873777492
36.846569564502
36.411744139174
35.97781980089
35.558230411205
35.158521685542
34.782394687476
34.433952181676
34.11984624727
33.852827092668
33.656497204492
33.575937094585
33.686575374943
34.148450873032
35.179322291074
36.755629850368
38.509384151458
40.019168899983
40.956711946984
41.452125349333
41.376370189622
40.74989522866
39.722288558025
38.395045113336
36.855414428798
35.166801823137
33.382535047629
31.548121730314
29.697998469986
27.862216150877
26.063819002212
24.319440282723
22.642480380801
21.042898427076
19.545205399312
18.167758000479
)
;
    }
    tipWalls
    {
        type            calculated;
        value           nonuniform List<scalar> 
304
(
2.4029065985572
0.91478445574435
0.46385832351126
0.26260220073551
0.12718573576104
0.088185683139799
0.14478989857854
0.16808786835446
0.18122897622477
0.18956829733647
0.19277101065402
0.19174450120288
0.18806387197059
0.18311503978342
0.17705031262846
0.16914002081683
0.15840666688984
0.14473412932114
0.12820166976373
0.10892861597193
0.086335894152718
0.057762037311185
0.02007407443915
0.058997654592958
0.077647950838491
0.089761029580673
0.097491014502192
0.10284027220357
0.10612279797725
0.10756504325496
0.10671419660024
0.10391784882183
0.099546653178034
0.094169657363481
0.088886430292678
0.083647477409962
0.078929068651407
0.074891372265607
0.070951475633659
0.066692095067433
0.061495628144613
0.054361682742034
0.043822261112212
0.030735228222623
0.043896359525956
0.064835161405121
0.08413936532178
0.10208301627659
0.11850842062548
0.13252834605013
0.14313016641955
0.15055057145791
0.15340655312578
0.15033171415658
0.14095714764236
0.1258589474896
0.10754902914589
0.088524366416487
0.070590562287031
0.054894823890055
0.042038853066953
0.032297862111382
0.025023375422961
0.019342199034787
0.018093872181199
0.048621799148578
0.042648081329322
0.042336657765955
0.043881983675939
0.045466428874704
0.046625302685426
0.047451944878952
0.047963140933531
0.048285727117362
0.049105456209545
0.052729385577932
0.062333790527026
0.12588344885815
0.1211635145782
0.11663269598135
0.11425762854903
0.11295361873955
0.1121458660459
0.11160487184204
0.11129127668881
0.11131619034344
0.1116732064877
0.11240669490773
0.11345769207769
0.1156434868485
0.11873920029497
0.1227239710121
0.12670851506589
0.12856905822984
0.126610963836
0.12170772097252
0.096393152467599
1.3267033607756
0.63724534344945
0.34819191334178
0.19231324250419
0.057013246754738
0.12378200959987
0.15854166239359
0.17534345933505
0.1860134828029
0.19177202921886
0.19268605601728
0.19014171149074
0.1857026689191
0.18024700665233
0.1733943822975
0.16415928613231
0.15192367829546
0.13682382904457
0.11890844777971
0.098247184799284
0.07296795480909
0.038814958553437
0.044666303677047
0.069435668999113
0.084322375530714
0.094084329547125
0.10041282793028
0.10472574450923
0.10704257779031
0.10741471765258
0.10554520098264
0.10189373974961
0.096930230212223
0.091437627706857
0.086480457087985
0.081172260286637
0.076836206556994
0.073023595878675
0.068866969240209
0.064270135268099
0.058246225938271
0.049629300238361
0.036947607601092
0.033725376742599
0.054561371615428
0.074677270155204
0.093274255441077
0.11052059469462
0.12588588018655
0.13833016149198
0.1472701462573
0.1526714906075
0.1526395801135
0.14642452448023
0.13401031705743
0.11692742180593
0.097999983168202
0.079332891337751
0.062424912341047
0.048066614025326
0.03679019575486
0.028466152229224
0.021858412514284
0.017790005849253
0.019529816507851
0.044930820372978
0.042106316455544
0.043031966466091
0.044724514715963
0.046092842914115
0.047077652438605
0.04774591729925
0.048130847187328
0.048545727226806
0.050311244151422
0.056440549779505
0.064567734735061
6.5842767809027
1.1000749238186
0.54074525643406
0.30277177595038
0.1598706753802
0.058947520129231
0.13546226567767
0.1636961101868
0.17842953776079
0.18795628105563
0.19241413219348
0.19231023686959
0.18915070599757
0.18444380841705
0.17869703254176
0.17135062223523
0.16137685220039
0.14841712813355
0.13260123719859
0.11399341817072
0.092502574538349
0.065687921511727
0.025299059936852
0.052496544482222
0.073767428741964
0.087205547792793
0.095889184717916
0.10169740726132
0.10548557912649
0.10735748762536
0.10712373856332
0.10478590984578
0.10075803661141
0.095560254743115
0.090138582009642
0.085111442306047
0.080030053322701
0.075845116479217
0.072015692878897
0.067802833819862
0.062933850987364
0.056395644599839
0.046872066331329
0.033470786128562
0.03857797009615
0.059752018222735
0.07945177250234
0.097721209409551
0.11457635533177
0.12930074638768
0.14084941849072
0.14905056754094
0.1532284922999
0.15168497308969
0.14388159585943
0.13005400644372
0.11227593100751
0.093238997386363
0.074897296876171
0.058581326373494
0.04495436315958
0.034454446605247
0.026728776670627
0.020505820133919
0.017624368858867
1.3685092111403
0.76005794615694
0.40096107544136
0.22617127829605
0.092793436409028
0.10882099251975
0.15234600260297
0.17192453617924
0.18376049696235
0.19083562632847
0.1928547132608
0.1910139318392
0.18690651249647
0.18171667707506
0.17528840876912
0.166747040561
0.1552537750406
0.1408698083015
0.12365143737305
0.10369476250264
0.079801873200514
0.048965240784661
0.03469388874767
0.064563795688721
0.081138936341847
0.092041623789445
0.098995753780955
0.10384538961541
0.10663812711677
0.10758589430324
0.10618856519958
0.10295018702847
0.098264716162433
0.092786685505813
0.087672477787651
0.082367974692426
0.07786460936558
0.073962833238794
0.06990533380087
0.065518773675383
0.059939150371232
0.052115978628411
0.040486364336152
0.030522513145454
0.049265654051875
0.069807992203006
0.088746300755421
0.10635272981056
0.12228880059122
0.1355486150283
0.14525321102589
0.15176678397975
0.15320567543145
0.14857702933631
0.13766137285594
0.12146878596234
0.10277990876589
0.083881341588552
0.066428681922229
0.0513830116771
0.039316448094038
0.030308398425656
0.023374259475997
0.018414882177403
0.019954632199031
)
;
    }
    wedge1
    {
        type            wedge;
    }
    wedge2
    {
        type            wedge;
    }
    defaultFaces
    {
        type            empty;
    }
}


// ************************************************************************* //
