/*--------------------------------*- C++ -*----------------------------------*\
| =========                 |                                                 |
| \\      /  F ield         | OpenFOAM: The Open Source CFD Toolbox           |
|  \\    /   O peration     | Version:  2312                                  |
|   \\  /    A nd           | Website:  www.openfoam.com                      |
|    \\/     M anipulation  |                                                 |
\*---------------------------------------------------------------------------*/
FoamFile
{
    version     2.0;
    format      ascii;
    arch        "LSB;label=32;scalar=64";
    class       surfaceScalarField;
    location    "0.2";
    object      phi;
}
// * * * * * * * * * * * * * * * * * * * * * * * * * * * * * * * * * * * * * //

dimensions      [1 0 -1 0 0 0 0];

oriented        oriented;

internalField   nonuniform List<scalar> 
99
(
0.0084415
0.0084415
0.0084415
0.0084415
0.0084415
0.0084415
0.0084415
0.0084415
0.0084415
0.0084415
0.0084415
0.0084415
0.0084415
0.0084415
0.0084415
0.0084415
0.0084415
0.0084415
0.0084415
0.0084415
0.0084415
0.0084415
0.0084415
0.0084415
0.0084415
0.0084415
0.0084415
0.0084415
0.0084415
0.0084415
0.0084415
0.0084415
0.0084415
0.0084415
0.0084415
0.0084415
0.0084415
0.0084415
0.0084415
0.0084415
0.0084415
0.0084415
0.0084415
0.0084415
0.0084415
0.0084415
0.0084415
0.0084415
0.0084415
0.0084415
0.0084415
0.0084415
0.0084415
0.0084415
0.0084415
0.0084415
0.0084415
0.0084415
0.0084415
0.0084415
0.0084415
0.0084415
0.0084415
0.0084415
0.0084415
0.0084415
0.0084415
0.0084415
0.0084415
0.0084415
0.0084415
0.0084415
0.0084415
0.0084415
0.0084415
0.0084415
0.0084415
0.0084415
0.0084415
0.0084415
0.0084415
0.0084415
0.0084415
0.0084415
0.0084415
0.0084415
0.0084415
0.0084415
0.0084415
0.0084415
0.0084415
0.0084415
0.0084415
0.0084415
0.0084415
0.0084415
0.0084415
0.0084415
0.0084415
)
;

boundaryField
{
    inlet
    {
        type            calculated;
        value           uniform -0.0084415;
    }
    outlet
    {
        type            calculated;
        value           uniform 0.0084415;
    }
    upperWall
    {
        type            calculated;
        value           nonuniform List<scalar> 
100
(
0
1.42692e-20
3.03184e-36
7.12537e-21
7.12054e-21
7.11563e-21
7.11056e-21
1.40852e-36
7.09955e-21
7.09365e-21
0
1.41619e-20
1.41482e-20
5.11663e-36
1.41185e-20
1.41025e-20
1.40855e-20
-1.40676e-20
1.40486e-20
4.59679e-36
1.40071e-20
-2.79689e-20
-5.20266e-35
1.39346e-20
1.39072e-20
0
-2.76928e-20
1.38127e-20
1.37764e-20
0
2.73903e-20
1.36495e-20
-6.91025e-36
1.3546e-20
1.3487e-20
-7.4834e-35
1.33513e-20
2.65456e-20
1.31856e-20
-3.92647e-20
2.59577e-20
-9.86446e-35
-2.54272e-20
2.51007e-20
-4.9437e-20
-2.4263e-20
-1.03192e-34
-2.30011e-20
-1.10421e-34
7.04531e-36
3.44159e-20
1.09438e-34
2.67233e-20
1.02927e-34
-2.33229e-20
4.39941e-20
-1.01456e-49
9.06358e-35
8.79875e-35
0
-1.72966e-20
1.663e-20
-1.59785e-20
-1.54161e-20
7.47432e-35
-2.87477e-20
-1.38894e-20
1.3467e-20
-1.30431e-20
-1.26703e-20
1.22958e-20
-1.19641e-20
-2.32642e-20
-1.13292e-20
8.37783e-35
-2.20507e-20
-1.67732e-20
9.52741e-36
-1.57577e-20
0
-3.17488e-20
-1.5984e-20
-2.40994e-20
-8.07103e-21
-5.83858e-36
-8.1404e-21
-1.81911e-35
-8.20115e-21
-8.22895e-21
-8.25484e-21
-8.27956e-21
-8.30261e-21
-1.66494e-20
-2.5036e-20
-8.36511e-21
-1.67668e-20
4.50606e-35
-8.41414e-21
-8.43078e-21
-1.67846e-20
)
;
    }
    lowerWall
    {
        type            calculated;
        value           nonuniform List<scalar> 
100
(
7.15142e-21
-3.86628e-35
1.42584e-20
1.49453e-36
-7.12054e-21
7.11563e-21
1.42211e-20
1.42104e-20
-4.31264e-35
7.09365e-21
0
1.41619e-20
1.41482e-20
5.11663e-36
1.41185e-20
-5.46865e-35
1.40855e-20
2.81351e-20
1.40486e-20
2.8057e-20
1.40071e-20
-2.79689e-20
4.33563e-36
-2.78692e-20
1.39072e-20
2.77557e-20
-1.38464e-20
1.38127e-20
-2.75528e-20
0
2.73903e-20
1.36495e-20
-1.35999e-20
-2.70919e-20
1.3487e-20
1.51249e-51
1.33513e-20
0
-2.63712e-20
-2.61765e-20
2.59577e-20
-5.14201e-20
-2.54272e-20
2.51007e-20
-4.9437e-20
-2.4263e-20
-2.37066e-20
-2.30011e-20
-1.10421e-34
7.04531e-36
3.44159e-20
1.09438e-34
2.67233e-20
2.48911e-20
-2.33229e-20
4.39941e-20
-1.01456e-49
1.98048e-20
5.66278e-20
0
1.72966e-20
1.663e-20
-1.59785e-20
-1.54161e-20
4.70696e-35
-2.87477e-20
4.16682e-20
0
-1.30431e-20
-1.26703e-20
0
2.39283e-20
-2.32642e-20
-1.13292e-20
2.45179e-35
-2.20507e-20
3.35465e-20
9.52741e-36
1.57577e-20
0
4.27813e-35
-1.5984e-20
-8.03313e-21
-2.42131e-20
1.62142e-20
-1.62808e-20
-1.81911e-35
-8.20115e-21
-1.64579e-20
-8.25484e-21
-8.27956e-21
-8.30261e-21
-8.32471e-21
-8.34532e-21
-8.36511e-21
3.85315e-35
0
-1.68283e-20
4.03913e-35
-1.64935e-51
)
;
    }
    frontAndBack
    {
        type            empty;
        value           nonuniform List<scalar> 0();
    }
}


// ************************************************************************* //
