/*--------------------------------*- C++ -*----------------------------------*\
| =========                 |                                                 |
| \\      /  F ield         | OpenFOAM: The Open Source CFD Toolbox           |
|  \\    /   O peration     | Version:  2312                                  |
|   \\  /    A nd           | Website:  www.openfoam.com                      |
|    \\/     M anipulation  |                                                 |
\*---------------------------------------------------------------------------*/
FoamFile
{
    version     2.0;
    format      ascii;
    arch        "LSB;label=32;scalar=64";
    class       volScalarField;
    location    "0.2";
    object      rho;
}
// * * * * * * * * * * * * * * * * * * * * * * * * * * * * * * * * * * * * * //

dimensions      [1 -3 0 0 0 0 0];

internalField   nonuniform List<scalar> 
100
(
2.11073
2.10576
2.10417
2.10304
2.10161
2.10016
2.09867
2.09708
2.09542
2.09368
2.09185
2.08992
2.0879
2.08577
2.08352
2.08115
2.07865
2.07601
2.07321
2.07024
2.06709
2.06374
2.06018
2.05639
2.05234
2.04801
2.04337
2.03839
2.03304
2.02727
2.02105
2.01431
2.00699
1.99903
1.99033
1.9808
1.97031
1.95872
1.94585
1.93148
1.91534
1.89707
1.8762
1.8521
1.8239
1.7903
1.74924
1.69718
1.62766
1.53237
1.26972
1.08022
0.985915
0.918318
0.860463
0.811548
0.768313
0.730669
0.696399
0.666631
0.63813
0.613537
0.589501
0.568754
0.548138
0.530302
0.512428
0.496843
0.481206
0.467451
0.453637
0.441399
0.42915
0.417974
0.403052
0.406763
0.618823
1.05181
1.16271
1.16535
1.17133
1.17941
1.18548
1.19107
1.19639
1.20131
1.20596
1.21028
1.21438
1.2182
1.22185
1.22525
1.22851
1.23155
1.23447
1.23717
1.23982
1.24171
1.24416
1.23849
)
;

boundaryField
{
    inlet
    {
        type            calculated;
        value           uniform 2.10725;
    }
    outlet
    {
        type            calculated;
        value           uniform 1.24771;
    }
    upperWall
    {
        type            calculated;
        value           nonuniform List<scalar> 
100
(
2.11073
2.10576
2.10417
2.10304
2.10161
2.10016
2.09867
2.09708
2.09542
2.09368
2.09185
2.08992
2.0879
2.08577
2.08352
2.08115
2.07865
2.07601
2.07321
2.07024
2.06709
2.06374
2.06018
2.05639
2.05234
2.04801
2.04337
2.03839
2.03304
2.02727
2.02105
2.01431
2.00699
1.99903
1.99033
1.9808
1.97031
1.95872
1.94585
1.93148
1.91534
1.89707
1.8762
1.8521
1.8239
1.7903
1.74924
1.69718
1.62766
1.53237
1.26972
1.08022
0.985915
0.918318
0.860463
0.811548
0.768313
0.730669
0.696399
0.666631
0.63813
0.613537
0.589501
0.568754
0.548138
0.530302
0.512428
0.496843
0.481206
0.467451
0.453637
0.441399
0.42915
0.417974
0.403052
0.406763
0.618823
1.05181
1.16271
1.16535
1.17133
1.17941
1.18548
1.19107
1.19639
1.20131
1.20596
1.21028
1.21438
1.2182
1.22185
1.22525
1.22851
1.23155
1.23447
1.23717
1.23982
1.24171
1.24416
1.23849
)
;
    }
    lowerWall
    {
        type            calculated;
        value           nonuniform List<scalar> 
100
(
2.11073
2.10576
2.10417
2.10304
2.10161
2.10016
2.09867
2.09708
2.09542
2.09368
2.09185
2.08992
2.0879
2.08577
2.08352
2.08115
2.07865
2.07601
2.07321
2.07024
2.06709
2.06374
2.06018
2.05639
2.05234
2.04801
2.04337
2.03839
2.03304
2.02727
2.02105
2.01431
2.00699
1.99903
1.99033
1.9808
1.97031
1.95872
1.94585
1.93148
1.91534
1.89707
1.8762
1.8521
1.8239
1.7903
1.74924
1.69718
1.62766
1.53237
1.26972
1.08022
0.985915
0.918318
0.860463
0.811548
0.768313
0.730669
0.696399
0.666631
0.63813
0.613537
0.589501
0.568754
0.548138
0.530302
0.512428
0.496843
0.481206
0.467451
0.453637
0.441399
0.42915
0.417974
0.403052
0.406763
0.618823
1.05181
1.16271
1.16535
1.17133
1.17941
1.18548
1.19107
1.19639
1.20131
1.20596
1.21028
1.21438
1.2182
1.22185
1.22525
1.22851
1.23155
1.23447
1.23717
1.23982
1.24171
1.24416
1.23849
)
;
    }
    frontAndBack
    {
        type            empty;
    }
}


// ************************************************************************* //
