/*--------------------------------*- C++ -*----------------------------------*\
| =========                 |                                                 |
| \\      /  F ield         | OpenFOAM: The Open Source CFD Toolbox           |
|  \\    /   O peration     | Version:  2312                                  |
|   \\  /    A nd           | Website:  www.openfoam.com                      |
|    \\/     M anipulation  |                                                 |
\*---------------------------------------------------------------------------*/
FoamFile
{
    version     2.0;
    format      ascii;
    arch        "LSB;label=32;scalar=64";
    class       volScalarField;
    location    "0.2";
    object      T;
}
// * * * * * * * * * * * * * * * * * * * * * * * * * * * * * * * * * * * * * //

dimensions      [0 0 0 1 0 0 0];

internalField   nonuniform List<scalar> 
100
(
496.343
495.914
495.764
495.656
495.522
495.386
495.244
495.095
494.938
494.774
494.601
494.42
494.229
494.027
493.815
493.59
493.353
493.103
492.837
492.555
492.256
491.937
491.598
491.237
490.85
490.436
489.992
489.516
489.002
488.448
487.849
487.199
486.492
485.72
484.876
483.947
482.923
481.788
480.522
479.104
477.503
475.681
473.588
471.155
468.285
464.831
460.561
455.068
447.599
437.225
405.972
380.472
366.836
356.614
347.426
339.433
332.037
325.487
319.238
313.77
308.268
303.533
298.642
294.477
290.071
286.353
282.354
278.99
275.34
272.271
268.915
266.1
263.01
260.361
256.567
257.566
340.585
456.854
475.044
475.495
476.486
477.789
478.756
479.676
480.517
481.323
482.051
482.759
483.397
484.022
484.585
485.142
485.641
486.14
486.585
487.04
487.413
487.843
488.012
488.698
)
;

boundaryField
{
    inlet
    {
        type            totalTemperature;
        gamma           1.4;
        T0              uniform 500;
        value           uniform 496.047;
    }
    outlet
    {
        type            zeroGradient;
    }
    upperWall
    {
        type            zeroGradient;
    }
    lowerWall
    {
        type            zeroGradient;
    }
    frontAndBack
    {
        type            empty;
    }
}


// ************************************************************************* //
