/*--------------------------------*- C++ -*----------------------------------*\
| =========                 |                                                 |
| \\      /  F ield         | OpenFOAM: The Open Source CFD Toolbox           |
|  \\    /   O peration     | Version:  2312                                  |
|   \\  /    A nd           | Website:  www.openfoam.com                      |
|    \\/     M anipulation  |                                                 |
\*---------------------------------------------------------------------------*/
FoamFile
{
    version     2.0;
    format      ascii;
    arch        "LSB;label=32;scalar=64";
    class       volVectorField;
    location    "0.2";
    object      U;
}
// * * * * * * * * * * * * * * * * * * * * * * * * * * * * * * * * * * * * * //

dimensions      [0 1 -1 0 0 0 0];

internalField   nonuniform List<vector> 
100
(
(89.1161 2.42184e-14 0)
(90.9032 1.31137e-15 2.28174e-15)
(92.2408 4.74e-14 0)
(93.5644 -3.15234e-16 -2.38349e-15)
(94.972 1.99746e-14 0)
(96.4065 -3.94122e-15 -2.4507e-15)
(97.8822 2.56013e-14 0)
(99.4093 -8.81944e-15 -2.52072e-15)
(100.985 3.1644e-14 -2.5578e-15)
(102.612 -1.38459e-14 -2.59574e-15)
(104.295 3.85706e-15 0)
(106.035 -1.79381e-14 -2.6752e-15)
(107.837 7.61455e-15 0)
(109.703 -2.17598e-14 0)
(111.637 1.50315e-14 -2.80372e-15)
(113.643 -1.97327e-14 0)
(115.725 -1.37095e-14 -5.79266e-15)
(117.889 -1.83184e-14 0)
(120.138 -1.12394e-14 -2.9951e-15)
(122.479 -2.05808e-14 -3.04698e-15)
(124.917 -1.06546e-14 -3.10064e-15)
(127.46 -2.47568e-14 0)
(130.113 -9.25849e-15 -3.21363e-15)
(132.886 -2.57928e-14 0)
(135.786 -1.87871e-15 -3.33485e-15)
(138.823 -3.25018e-14 0)
(142.008 3.4062e-15 0)
(145.353 -4.79017e-15 0)
(148.872 5.8235e-15 -3.6055e-15)
(152.578 -9.02183e-15 0)
(156.488 7.73162e-15 -3.75699e-15)
(160.622 -1.22818e-14 0)
(165.002 1.74948e-14 0)
(169.653 1.86208e-14 0)
(174.603 1.361e-14 -4.09802e-15)
(179.886 1.89979e-14 -4.19213e-15)
(185.542 1.03135e-14 0)
(191.618 1.82309e-14 0)
(198.17 5.85242e-15 0)
(205.269 -9.79216e-15 0)
(212.998 9.39863e-15 0)
(221.468 -1.33607e-14 0)
(230.818 -1.21997e-14 0)
(241.237 -1.2482e-14 0)
(252.986 -1.12126e-14 5.21118e-15)
(266.447 -1.2353e-14 0)
(282.221 -1.12314e-14 -5.45112e-15)
(301.352 -1.12083e-14 0)
(325.838 -9.71639e-15 0)
(358.503 -1.14363e-14 0)
(434.753 -6.0605e-15 0)
(489.921 -1.54928e-14 0)
(517.337 -6.70362e-15 0)
(536.609 -6.13061e-15 4.30743e-15)
(553.748 -5.55566e-15 0)
(567.859 -6.42398e-15 3.83112e-15)
(580.994 -6.94294e-15 0)
(592.013 -7.17651e-15 0)
(602.718 -1.35104e-14 0)
(611.568 -1.3462e-14 0)
(620.732 -1.35303e-14 0)
(628.158 -1.86574e-14 0)
(636.118 -1.39912e-14 0)
(642.477 -1.82749e-14 0)
(649.511 -1.32758e-14 2.5284e-15)
(655.056 -1.34548e-14 0)
(661.336 -1.38373e-14 2.34174e-15)
(666.254 -1.25542e-14 0)
(671.905 -9.80666e-15 2.17737e-15)
(676.309 -1.18272e-14 0)
(681.44 -9.50858e-15 0)
(685.415 -9.04178e-15 0)
(690.088 -8.68731e-15 1.90399e-15)
(693.776 -8.91522e-15 0)
(699.325 -8.41852e-15 1.50984e-15)
(697.835 -7.96852e-15 0)
(538.795 -1.26965e-14 2.01368e-15)
(265.705 6.06617e-15 0)
(224.342 -1.82432e-14 -3.05981e-15)
(221.44 -9.28925e-15 0)
(216.605 -2.51604e-14 5.76323e-15)
(211.129 2.15195e-15 0)
(206.425 -2.50453e-14 2.86933e-15)
(201.947 -1.90272e-15 2.82573e-15)
(197.668 -2.52184e-14 -2.78314e-15)
(193.604 -1.49153e-14 2.74175e-15)
(189.721 -3.02397e-14 0)
(186.018 -1.21617e-14 0)
(182.469 -3.4026e-14 2.62353e-15)
(179.075 -9.97656e-15 0)
(175.814 -3.4219e-14 2.54971e-15)
(172.689 -2.85106e-14 2.51427e-15)
(169.679 -3.05493e-14 2.47959e-15)
(166.788 -3.31227e-14 0)
(164.001 -3.47606e-14 2.41279e-15)
(161.326 -2.91294e-14 2.38095e-15)
(158.766 -2.64433e-14 2.34856e-15)
(156.275 -3.0661e-14 0)
(154.156 -3.18322e-14 -2.25778e-15)
(150.683 -3.0683e-14 0)
)
;

boundaryField
{
    inlet
    {
        type            zeroGradient;
    }
    outlet
    {
        type            zeroGradient;
    }
    upperWall
    {
        type            slip;
    }
    lowerWall
    {
        type            slip;
    }
    frontAndBack
    {
        type            empty;
    }
}


// ************************************************************************* //
