/*--------------------------------*- C++ -*----------------------------------*\
| =========                 |                                                 |
| \\      /  F ield         | OpenFOAM: The Open Source CFD Toolbox           |
|  \\    /   O peration     | Version:  2312                                  |
|   \\  /    A nd           | Website:  www.openfoam.com                      |
|    \\/     M anipulation  |                                                 |
\*---------------------------------------------------------------------------*/
FoamFile
{
    version     2.0;
    format      ascii;
    arch        "LSB;label=32;scalar=64";
    class       volScalarField;
    location    "0.005";
    object      cSound;
}
// * * * * * * * * * * * * * * * * * * * * * * * * * * * * * * * * * * * * * //

dimensions      [0 1 -1 0 0 0 0];

internalField   nonuniform List<scalar> 
8000
(
1471.301902
1471.300693
1471.300579
1471.300946
1471.301214
1471.301449
1471.301779
1471.302277
1471.302788
1471.303111
1471.3033
1471.303394
1471.303403
1471.303391
1471.303349
1471.303271
1471.303156
1471.302997
1471.302777
1471.302495
1471.302163
1471.301823
1471.301543
1471.301307
1471.301138
1471.30101
1471.300907
1471.300812
1471.300743
1471.300681
1471.300627
1471.30058
1471.300536
1471.300482
1471.300444
1471.300403
1471.300357
1471.300314
1471.300261
1471.300216
1471.300163
1471.300119
1471.300077
1471.300039
1471.300001
1471.299961
1471.29993
1471.299893
1471.29985
1471.299824
1471.299791
1471.299756
1471.299728
1471.2997
1471.299669
1471.299641
1471.299613
1471.299585
1471.299563
1471.299538
1471.299513
1471.299492
1471.299473
1471.299447
1471.299415
1471.299385
1471.299358
1471.299334
1471.299304
1471.299269
1471.299242
1471.299204
1471.299164
1471.299126
1471.299094
1471.299059
1471.299024
1471.298985
1471.298949
1471.298915
1471.298875
1471.298835
1471.298794
1471.298761
1471.298723
1471.298691
1471.298656
1471.29862
1471.298586
1471.298554
1471.298524
1471.298486
1471.298455
1471.298422
1471.298387
1471.298356
1471.298324
1471.298291
1471.298256
1471.298218
1471.298193
1471.298157
1471.298136
1471.298095
1471.298065
1471.298029
1471.297995
1471.297963
1471.297927
1471.297892
1471.297866
1471.297832
1471.297791
1471.297747
1471.297709
1471.297666
1471.297633
1471.297594
1471.297555
1471.29752
1471.297477
1471.297438
1471.297396
1471.297362
1471.297316
1471.297276
1471.297232
1471.297187
1471.29715
1471.297113
1471.297066
1471.29701
1471.296964
1471.296927
1471.296891
1471.296852
1471.296814
1471.296781
1471.296751
1471.296735
1471.296699
1471.29667
1471.296631
1471.296598
1471.296558
1471.296526
1471.296493
1471.296456
1471.296415
1471.29638
1471.296344
1471.296313
1471.296267
1471.296215
1471.296167
1471.296127
1471.296077
1471.296032
1471.295977
1471.295931
1471.29589
1471.295841
1471.295794
1471.295748
1471.29571
1471.295666
1471.295631
1471.295598
1471.295564
1471.295531
1471.295488
1471.295459
1471.295442
1471.295429
1471.295418
1471.295406
1471.295407
1471.295412
1471.295409
1471.295429
1471.295442
1471.295453
1471.29548
1471.295505
1471.295522
1471.295556
1471.295589
1471.295629
1471.295661
1471.295705
1471.295748
1471.295793
1471.295838
1471.295878
1471.295925
1471.295965
1471.296012
1471.296049
1471.29608
1471.296125
1471.296159
1471.296194
1471.296233
1471.296262
1471.296275
1471.296299
1471.29633
1471.29634
1471.296361
1471.296363
1471.296377
1471.29638
1471.296377
1471.296379
1471.296375
1471.29638
1471.296369
1471.29636
1471.296333
1471.296313
1471.296299
1471.296279
1471.296253
1471.296224
1471.296201
1471.296167
1471.296136
1471.296096
1471.296066
1471.296023
1471.295983
1471.295949
1471.295903
1471.295867
1471.295821
1471.295778
1471.295736
1471.295693
1471.295654
1471.295614
1471.295568
1471.295521
1471.295495
1471.295458
1471.295408
1471.295367
1471.29533
1471.295288
1471.295254
1471.295217
1471.295183
1471.295148
1471.295111
1471.29508
1471.295043
1471.295018
1471.294982
1471.294962
1471.29494
1471.294913
1471.294886
1471.294866
1471.294855
1471.294833
1471.294806
1471.29479
1471.294771
1471.294763
1471.294743
1471.294722
1471.294711
1471.294696
1471.29468
1471.294663
1471.294652
1471.294638
1471.29462
1471.294619
1471.294615
1471.294588
1471.294575
1471.294566
1471.294553
1471.294545
1471.294535
1471.294522
1471.294513
1471.294511
1471.294485
1471.294484
1471.29448
1471.294464
1471.29445
1471.294444
1471.294431
1471.294421
1471.294413
1471.294406
1471.294399
1471.294399
1471.294391
1471.29438
1471.294365
1471.294349
1471.294344
1471.294334
1471.294339
1471.294336
1471.294331
1471.29432
1471.294298
1471.294288
1471.294286
1471.294285
1471.294279
1471.294274
1471.294262
1471.294267
1471.294262
1471.294266
1471.294254
1471.29424
1471.294239
1471.294238
1471.294234
1471.294222
1471.294226
1471.294221
1471.294219
1471.294209
1471.294215
1471.294207
1471.294206
1471.294202
1471.294199
1471.294197
1471.2942
1471.294204
1471.294202
1471.294205
1471.294197
1471.294205
1471.29421
1471.294196
1471.294199
1471.294195
1471.294205
1471.294214
1471.294212
1471.29422
1471.294224
1471.294224
1471.294229
1471.29423
1471.294252
1471.294257
1471.294259
1471.294274
1471.294283
1471.294292
1471.294301
1471.294299
1471.294313
1471.294316
1471.294328
1471.294337
1471.294352
1471.294379
1471.294387
1471.294392
1471.294414
1471.294425
1471.294435
1471.29444
1471.29446
1471.294452
1471.294467
1471.294486
1471.294499
1471.294511
1471.294512
1471.294535
1471.294542
1471.294552
1471.294563
1471.294569
1471.294577
1471.294598
1471.294609
1471.294617
1471.294626
1471.294629
1471.29464
1471.29464
1471.294647
1471.294656
1471.294661
1471.294666
1471.294687
1471.294697
1471.294704
1471.294708
1471.294711
1471.29472
1471.294739
1471.29475
1471.294746
1471.294764
1471.294768
1471.294774
1471.294779
1471.294789
1471.294796
1471.294805
1471.294818
1471.294834
1471.294847
1471.294876
1471.294903
1471.294902
1471.294917
1471.29493
1471.294936
1471.294957
1471.294975
1471.294982
1471.294998
1471.295011
1471.295034
1471.295044
1471.295057
1471.295077
1471.29509
1471.295104
1471.295123
1471.295145
1471.295163
1471.295182
1471.295194
1471.29521
1471.295229
1471.295243
1471.295262
1471.29527
1471.295293
1471.295318
1471.295349
1471.29537
1471.295385
1471.295403
1471.295427
1471.295444
1471.295461
1471.295462
1471.295447
1471.295458
1471.295478
1471.295498
1471.29552
1471.295566
1471.29562
1471.29566
1471.295687
1471.295712
1471.295734
1471.295754
1471.295781
1471.295812
1471.295833
1471.295854
1471.295873
1471.295904
1471.295934
1471.295952
1471.295977
1471.296006
1471.296028
1471.296052
1471.296083
1471.296105
1471.296127
1471.296151
1471.29618
1471.29621
1471.296234
1471.29626
1471.296296
1471.296325
1471.296348
1471.296378
1471.296409
1471.296424
1471.296438
1471.296471
1471.296503
1471.296534
1471.296582
1471.296612
1471.296643
1471.296671
1471.296701
1471.296726
1471.296758
1471.296785
1471.296821
1471.296853
1471.296884
1471.296915
1471.29695
1471.296978
1471.297009
1471.297042
1471.297071
1471.297103
1471.297145
1471.29717
1471.297199
1471.297233
1471.297263
1471.297309
1471.297333
1471.297373
1471.297396
1471.297428
1471.297466
1471.297495
1471.297524
1471.297562
1471.297598
1471.297635
1471.297664
1471.297694
1471.297729
1471.297769
1471.297802
1471.297836
1471.297871
1471.297909
1471.297941
1471.297983
1471.298009
1471.298048
1471.298085
1471.298119
1471.298154
1471.298181
1471.298207
1471.298234
1471.298273
1471.29832
1471.298364
1471.298403
1471.298437
1471.298468
1471.298511
1471.298542
1471.298591
1471.29863
1471.298655
1471.298692
1471.298727
1471.298766
1471.298798
1471.298835
1471.298873
1471.298906
1471.298949
1471.298982
1471.299016
1471.299046
1471.299065
1471.299079
1471.299104
1471.29913
1471.299179
1471.299223
1471.299262
1471.299294
1471.299346
1471.299393
1471.299436
1471.299476
1471.299525
1471.29956
1471.299593
1471.299632
1471.299656
1471.299687
1471.299722
1471.29976
1471.299793
1471.299833
1471.299888
1471.299931
1471.299963
1471.299997
1471.300028
1471.300069
1471.300105
1471.300146
1471.300181
1471.300218
1471.300253
1471.300286
1471.300317
1471.300364
1471.300402
1471.30044
1471.300474
1471.300507
1471.300546
1471.300579
1471.300617
1471.300655
1471.300687
1471.300723
1471.300767
1471.300803
1471.300832
1471.300876
1471.300911
1471.300945
1471.300983
1471.301027
1471.301058
1471.301091
1471.301128
1471.301164
1471.3012
1471.301238
1471.301277
1471.301309
1471.30134
1471.301375
1471.301399
1471.301428
1471.301448
1471.301472
1471.301507
1471.301541
1471.301582
1471.301625
1471.301667
1471.301715
1471.30175
1471.301779
1471.301816
1471.301845
1471.301888
1471.301939
1471.301975
1471.30202
1471.302054
1471.302084
1471.302114
1471.30215
1471.302184
1471.302218
1471.30225
1471.302287
1471.302323
1471.302362
1471.302396
1471.302422
1471.302453
1471.302486
1471.302526
1471.302558
1471.302592
1471.302621
1471.302657
1471.302689
1471.302731
1471.302764
1471.302797
1471.302818
1471.302854
1471.302887
1471.302921
1471.302953
1471.302988
1471.303027
1471.303061
1471.303087
1471.303118
1471.303147
1471.303185
1471.303214
1471.303248
1471.303276
1471.30331
1471.303342
1471.303377
1471.303409
1471.303442
1471.303474
1471.303505
1471.303541
1471.30357
1471.303604
1471.303635
1471.303663
1471.303698
1471.303727
1471.303759
1471.303793
1471.303827
1471.303856
1471.303889
1471.303919
1471.303952
1471.303984
1471.304023
1471.304055
1471.304086
1471.304114
1471.304148
1471.30418
1471.304211
1471.304231
1471.304263
1471.304285
1471.30431
1471.30434
1471.304379
1471.30442
1471.304448
1471.30448
1471.304515
1471.304547
1471.304575
1471.304617
1471.304641
1471.304667
1471.30469
1471.30472
1471.304747
1471.304781
1471.304822
1471.304859
1471.304885
1471.304917
1471.304946
1471.304976
1471.30501
1471.305041
1471.305074
1471.305108
1471.305137
1471.305167
1471.305189
1471.305215
1471.305237
1471.305262
1471.305294
1471.305327
1471.305353
1471.305397
1471.305435
1471.305467
1471.305494
1471.305528
1471.305562
1471.305584
1471.305616
1471.305646
1471.305673
1471.305709
1471.305732
1471.305763
1471.305793
1471.305824
1471.305853
1471.305879
1471.305913
1471.305943
1471.305972
1471.306001
1471.30603
1471.306056
1471.306089
1471.306116
1471.306149
1471.306179
1471.306204
1471.306225
1471.306255
1471.306286
1471.30632
1471.30634
1471.306368
1471.306405
1471.306441
1471.306476
1471.3065
1471.30653
1471.306564
1471.306593
1471.306621
1471.306646
1471.306677
1471.306704
1471.306723
1471.30675
1471.306782
1471.306814
1471.306838
1471.306869
1471.306899
1471.306926
1471.306954
1471.306981
1471.307008
1471.307028
1471.307057
1471.307088
1471.307114
1471.307135
1471.307161
1471.307182
1471.307215
1471.307241
1471.307268
1471.307293
1471.307316
1471.307334
1471.307354
1471.307384
1471.30741
1471.307433
1471.307457
1471.307475
1471.307501
1471.307522
1471.307543
1471.307562
1471.307583
1471.307604
1471.307621
1471.307642
1471.307661
1471.307677
1471.307691
1471.307707
1471.307729
1471.307744
1471.307755
1471.307774
1471.307789
1471.307805
1471.307819
1471.307824
1471.307841
1471.307854
1471.307874
1471.307886
1471.307896
1471.307904
1471.307915
1471.307926
1471.307934
1471.307941
1471.307954
1471.307962
1471.307969
1471.307974
1471.30798
1471.307988
1471.307993
1471.307994
1471.307997
1471.308001
1471.308005
1471.308006
1471.308012
1471.308019
1471.308022
1471.308026
1471.308021
1471.308032
1471.308034
1471.308035
1471.308032
1471.308028
1471.308028
1471.308034
1471.308035
1471.308037
1471.308031
1471.308027
1471.30803
1471.308022
1471.30803
1471.308026
1471.308018
1471.308022
1471.308014
1471.308019
1471.308012
1471.308008
1471.308002
1471.308004
1471.308005
1471.308
1471.307998
1471.307993
1471.307985
1471.307981
1471.307979
1471.307979
1471.307973
1471.307961
1471.307965
1471.307959
1471.30795
1471.307947
1471.307945
1471.307935
1471.307932
1471.307926
1471.307923
1471.307911
1471.307906
1471.307905
1471.307897
1471.307893
1471.307884
1471.30788
1471.307873
1471.307866
1471.307859
1471.30785
1471.307835
1471.307833
1471.307827
1471.307819
1471.307806
1471.307799
1471.30779
1471.307784
1471.307771
1471.307763
1471.307756
1471.307744
1471.307736
1471.307726
1471.307714
1471.307702
1471.307693
1471.307682
1471.30767
1471.307654
1471.307645
1471.307632
1471.307621
1471.307598
1471.307586
1471.307574
1471.30756
1471.307546
1471.307536
1471.307521
1471.3075
1471.30749
1471.307475
1471.307461
1471.307443
1471.307428
1471.307413
1471.307394
1471.307379
1471.307362
1471.307342
1471.307325
1471.307309
1471.307287
1471.307272
1471.307245
1471.307232
1471.307212
1471.307191
1471.307173
1471.307154
1471.307133
1471.307113
1471.307087
1471.307073
1471.307052
1471.307025
1471.307002
1471.306986
1471.306969
1471.306948
1471.306927
1471.306902
1471.306884
1471.306863
1471.306842
1471.306816
1471.306791
1471.30678
1471.306758
1471.306739
1471.306715
1471.306698
1471.306677
1471.306658
1471.306632
1471.30662
1471.3066
1471.306582
1471.306563
1471.306546
1471.306528
1471.306509
1471.306488
1471.30647
1471.306456
1471.306441
1471.306432
1471.306416
1471.306397
1471.306387
1471.306376
1471.306363
1471.306351
1471.306337
1471.306326
1471.306312
1471.306307
1471.30629
1471.306288
1471.30628
1471.306272
1471.306265
1471.306258
1471.306252
1471.306244
1471.306241
1471.306236
1471.306225
1471.306221
1471.306217
1471.306216
1471.306215
1471.306216
1471.306211
1471.306213
1471.306211
1471.306217
1471.306218
1471.306211
1471.306214
1471.306222
1471.306224
1471.306227
1471.306227
1471.30623
1471.306237
1471.306237
1471.306243
1471.306246
1471.306248
1471.306259
1471.306262
1471.30627
1471.306276
1471.306281
1471.306284
1471.306291
1471.306294
1471.306305
1471.306313
1471.30632
1471.306327
1471.306334
1471.306341
1471.306345
1471.306345
1471.306354
1471.306361
1471.306376
1471.306375
1471.306386
1471.306396
1471.306406
1471.306409
1471.306415
1471.306423
1471.306434
1471.306443
1471.306448
1471.306456
1471.306453
1471.306465
1471.30647
1471.306475
1471.306489
1471.306497
1471.3065
1471.306506
1471.306518
1471.306518
1471.306529
1471.306532
1471.306537
1471.306541
1471.306552
1471.30656
1471.306565
1471.30657
1471.306574
1471.306576
1471.306584
1471.306588
1471.306588
1471.306596
1471.306598
1471.306591
1471.306599
1471.306601
1471.306609
1471.306612
1471.306614
1471.306612
1471.306615
1471.306613
1471.306613
1471.306607
1471.306604
1471.306606
1471.306611
1471.306606
1471.306604
1471.306602
1471.306598
1471.306593
1471.306588
1471.306582
1471.306575
1471.306559
1471.306555
1471.306545
1471.306542
1471.306531
1471.306521
1471.306504
1471.306497
1471.30648
1471.30646
1471.306446
1471.306438
1471.30642
1471.306404
1471.306386
1471.306368
1471.306347
1471.306324
1471.306302
1471.306271
1471.306251
1471.306229
1471.306202
1471.306172
1471.30614
1471.306113
1471.306078
1471.306054
1471.30602
1471.305986
1471.305942
1471.305903
1471.305866
1471.305833
1471.305796
1471.305756
1471.305707
1471.305662
1471.305625
1471.305579
1471.305532
1471.305474
1471.305424
1471.305378
1471.305329
1471.305273
1471.30521
1471.305163
1471.305101
1471.305049
1471.304988
1471.304925
1471.304866
1471.3048
1471.304738
1471.304668
1471.304605
1471.304536
1471.30446
1471.304394
1471.304322
1471.304251
1471.304177
1471.30409
1471.304016
1471.303936
1471.303862
1471.303777
1471.303701
1471.303614
1471.303527
1471.303453
1471.303365
1471.303279
1471.303191
1471.303091
1471.303002
1471.302916
1471.302823
1471.302732
1471.302634
1471.30254
1471.302443
1471.302346
1471.302247
1471.302143
1471.302034
1471.301938
1471.301832
1471.301735
1471.301629
1471.301521
1471.301406
1471.301306
1471.301195
1471.301086
1471.300974
1471.300864
1471.300751
1471.300637
1471.300522
1471.300406
1471.300281
1471.30017
1471.300053
1471.299925
1471.299816
1471.299696
1471.299574
1471.299452
1471.299329
1471.299204
1471.299081
1471.298956
1471.298828
1471.298705
1471.298576
1471.29845
1471.298318
1471.298187
1471.298056
1471.297933
1471.297802
1471.297654
1471.297539
1471.297405
1471.297264
1471.297141
1471.297006
1471.296874
1471.29674
1471.296604
1471.296467
1471.296328
1471.296194
1471.296063
1471.295927
1471.295791
1471.295654
1471.295514
1471.295375
1471.295234
1471.295098
1471.294964
1471.294831
1471.294689
1471.294555
1471.294418
1471.294281
1471.294143
1471.293993
1471.293858
1471.293719
1471.293594
1471.293457
1471.293322
1471.293186
1471.293051
1471.292915
1471.292778
1471.292646
1471.292499
1471.292363
1471.292232
1471.292109
1471.291974
1471.291833
1471.291714
1471.291583
1471.291452
1471.291323
1471.291191
1471.291065
1471.290924
1471.290793
1471.290674
1471.290551
1471.290435
1471.290309
1471.290184
1471.290067
1471.289946
1471.289816
1471.289695
1471.289575
1471.289472
1471.289356
1471.289229
1471.289127
1471.289015
1471.288897
1471.288791
1471.288685
1471.288574
1471.28847
1471.288365
1471.288256
1471.288157
1471.288058
1471.287955
1471.287859
1471.287761
1471.287666
1471.287572
1471.287474
1471.287388
1471.287298
1471.287201
1471.287119
1471.287016
1471.28694
1471.286862
1471.286783
1471.286703
1471.286627
1471.286545
1471.286473
1471.286401
1471.286315
1471.286238
1471.286188
1471.286119
1471.286053
1471.285981
1471.285918
1471.285855
1471.2858
1471.285741
1471.285683
1471.285615
1471.285569
1471.285518
1471.285465
1471.28541
1471.285363
1471.285314
1471.285266
1471.285219
1471.285174
1471.285129
1471.285077
1471.28504
1471.284999
1471.284962
1471.284923
1471.284882
1471.284827
1471.284803
1471.284776
1471.284741
1471.284707
1471.284671
1471.284642
1471.284604
1471.284569
1471.284542
1471.284518
1471.284476
1471.284459
1471.28443
1471.284393
1471.284374
1471.284343
1471.284316
1471.284291
1471.284255
1471.284225
1471.284208
1471.284181
1471.284157
1471.284128
1471.284095
1471.284077
1471.28405
1471.284021
1471.283985
1471.283964
1471.283943
1471.283912
1471.283878
1471.283854
1471.283829
1471.283804
1471.283775
1471.283743
1471.283689
1471.283663
1471.283655
1471.283628
1471.283595
1471.283567
1471.283537
1471.283505
1471.283474
1471.28344
1471.283408
1471.28338
1471.283344
1471.283315
1471.283269
1471.283246
1471.283216
1471.283177
1471.28315
1471.283118
1471.283079
1471.283053
1471.283014
1471.282972
1471.282943
1471.282905
1471.282893
1471.282855
1471.282828
1471.282791
1471.282768
1471.282736
1471.282714
1471.282672
1471.282659
1471.282633
1471.282608
1471.28258
1471.28256
1471.282537
1471.282516
1471.282497
1471.282478
1471.282461
1471.282443
1471.282432
1471.282419
1471.282404
1471.282397
1471.282386
1471.282381
1471.282374
1471.282379
1471.282379
1471.282381
1471.282376
1471.282389
1471.282401
1471.28241
1471.282411
1471.282433
1471.282463
1471.282481
1471.282509
1471.282533
1471.282567
1471.28259
1471.282636
1471.282674
1471.282693
1471.282735
1471.282784
1471.282847
1471.282908
1471.282966
1471.283027
1471.283093
1471.283152
1471.283227
1471.283302
1471.28339
1471.283475
1471.283556
1471.283643
1471.283744
1471.283843
1471.283938
1471.284048
1471.284145
1471.284259
1471.284381
1471.2845
1471.284627
1471.284754
1471.284886
1471.285022
1471.28516
1471.285302
1471.285448
1471.285598
1471.285752
1471.28591
1471.286056
1471.286219
1471.28639
1471.286576
1471.286752
1471.286936
1471.287115
1471.287308
1471.287493
1471.287685
1471.287891
1471.28808
1471.288296
1471.288503
1471.28872
1471.288933
1471.289153
1471.289368
1471.289589
1471.289816
1471.290052
1471.290289
1471.290518
1471.290769
1471.291011
1471.29126
1471.291509
1471.291757
1471.292004
1471.292258
1471.292517
1471.292777
1471.293053
1471.293315
1471.293586
1471.293858
1471.294133
1471.294404
1471.294684
1471.294962
1471.295242
1471.295523
1471.295808
1471.296093
1471.296379
1471.296666
1471.296953
1471.29724
1471.297523
1471.29782
1471.298112
1471.298414
1471.298707
1471.299001
1471.299302
1471.299598
1471.299891
1471.300193
1471.30049
1471.300779
1471.301076
1471.301379
1471.301677
1471.301975
1471.302267
1471.302563
1471.30286
1471.303161
1471.303456
1471.303746
1471.304043
1471.304336
1471.304626
1471.304915
1471.305207
1471.305494
1471.305778
1471.306065
1471.306348
1471.306631
1471.306911
1471.307182
1471.307463
1471.307739
1471.30801
1471.308284
1471.308551
1471.308814
1471.309075
1471.309342
1471.309598
1471.309859
1471.31011
1471.310361
1471.310609
1471.310857
1471.311107
1471.311349
1471.311588
1471.31182
1471.312053
1471.312275
1471.312503
1471.312722
1471.312951
1471.313168
1471.31338
1471.313591
1471.313795
1471.313999
1471.3142
1471.314396
1471.314589
1471.314775
1471.314957
1471.315142
1471.315321
1471.315492
1471.31566
1471.315828
1471.31599
1471.316155
1471.316312
1471.316463
1471.316609
1471.316753
1471.316895
1471.317027
1471.31716
1471.317287
1471.317411
1471.317535
1471.317651
1471.317765
1471.317875
1471.317981
1471.318081
1471.318177
1471.31827
1471.318357
1471.318438
1471.318522
1471.318598
1471.318677
1471.318748
1471.318817
1471.318878
1471.318937
1471.31899
1471.319042
1471.31909
1471.319133
1471.319171
1471.319206
1471.319243
1471.319275
1471.319302
1471.319324
1471.319343
1471.319359
1471.319371
1471.319379
1471.319385
1471.319389
1471.319388
1471.319384
1471.319373
1471.319362
1471.319347
1471.319337
1471.319316
1471.319295
1471.31927
1471.319246
1471.319214
1471.319181
1471.319144
1471.319091
1471.319044
1471.319001
1471.318957
1471.318906
1471.318853
1471.318799
1471.31874
1471.318674
1471.31861
1471.318546
1471.318471
1471.318401
1471.318328
1471.318253
1471.318174
1471.318094
1471.318017
1471.317945
1471.31787
1471.317809
1471.317736
1471.317655
1471.317566
1471.317477
1471.317384
1471.317293
1471.317198
1471.317104
1471.317007
1471.316907
1471.316811
1471.316711
1471.316609
1471.316507
1471.316404
1471.3163
1471.316195
1471.316089
1471.315983
1471.315872
1471.315767
1471.31566
1471.315551
1471.31544
1471.315331
1471.31522
1471.315108
1471.314997
1471.314885
1471.314771
1471.314655
1471.314541
1471.314426
1471.314318
1471.314206
1471.314093
1471.313984
1471.31387
1471.313754
1471.313643
1471.313532
1471.313418
1471.313307
1471.313194
1471.31308
1471.312969
1471.312854
1471.312747
1471.312637
1471.312527
1471.312417
1471.312307
1471.312198
1471.312081
1471.311977
1471.311873
1471.311767
1471.311652
1471.311551
1471.311446
1471.311336
1471.311241
1471.311137
1471.311035
1471.310933
1471.310832
1471.310731
1471.310629
1471.310532
1471.310434
1471.310337
1471.310239
1471.310144
1471.310047
1471.309955
1471.30986
1471.309769
1471.309677
1471.309586
1471.309496
1471.309402
1471.30931
1471.309227
1471.309146
1471.309057
1471.308967
1471.308891
1471.308808
1471.308726
1471.308646
1471.308567
1471.308487
1471.308409
1471.308331
1471.30825
1471.308181
1471.308106
1471.308033
1471.30796
1471.307886
1471.307817
1471.307747
1471.307679
1471.30761
1471.307542
1471.307469
1471.307411
1471.307345
1471.307284
1471.307221
1471.307158
1471.307098
1471.307037
1471.306979
1471.306919
1471.306863
1471.306805
1471.30675
1471.306695
1471.306641
1471.306588
1471.306535
1471.306483
1471.306432
1471.306376
1471.306332
1471.306279
1471.306236
1471.306189
1471.306135
1471.306086
1471.30604
1471.305997
1471.305954
1471.30591
1471.305865
1471.305836
1471.305795
1471.305756
1471.305712
1471.305677
1471.30564
1471.305598
1471.305555
1471.30552
1471.305483
1471.30545
1471.305418
1471.305389
1471.305356
1471.305323
1471.305291
1471.305257
1471.305218
1471.305195
1471.305161
1471.305132
1471.3051
1471.305076
1471.305048
1471.305016
1471.304995
1471.304968
1471.304941
1471.304905
1471.304886
1471.30486
1471.304835
1471.304813
1471.304788
1471.304767
1471.304743
1471.304722
1471.3047
1471.304675
1471.304656
1471.304633
1471.304614
1471.304593
1471.304572
1471.304543
1471.304526
1471.304503
1471.304485
1471.304466
1471.304449
1471.304438
1471.30442
1471.304402
1471.304384
1471.304365
1471.304351
1471.304334
1471.304317
1471.304301
1471.304284
1471.304269
1471.304253
1471.304237
1471.304223
1471.304207
1471.304193
1471.30417
1471.304153
1471.304137
1471.304128
1471.304113
1471.304108
1471.304095
1471.304081
1471.304068
1471.304054
1471.304042
1471.30403
1471.304017
1471.303999
1471.303988
1471.303979
1471.303958
1471.303943
1471.303935
1471.30393
1471.303922
1471.303909
1471.303899
1471.303888
1471.303877
1471.303866
1471.303854
1471.303844
1471.303831
1471.303816
1471.303803
1471.3038
1471.303792
1471.303781
1471.303772
1471.303762
1471.303752
1471.30374
1471.303729
1471.303723
1471.303708
1471.303697
1471.303684
1471.303677
1471.303667
1471.303662
1471.303655
1471.303648
1471.303636
1471.303631
1471.303622
1471.303612
1471.303598
1471.303584
1471.303578
1471.303575
1471.30357
1471.303558
1471.303554
1471.303545
1471.303534
1471.303526
1471.303519
1471.303504
1471.303495
1471.303487
1471.303463
1471.303436
1471.303427
1471.303417
1471.303412
1471.303429
1471.303438
1471.303429
1471.303426
1471.303417
1471.303411
1471.303402
1471.303396
1471.303387
1471.303381
1471.303374
1471.303367
1471.303354
1471.303352
1471.303341
1471.303338
1471.303325
1471.303319
1471.303308
1471.303301
1471.303298
1471.303292
1471.303288
1471.30328
1471.303274
1471.303264
1471.303259
1471.303252
1471.303247
1471.303238
1471.303232
1471.303226
1471.303219
1471.303209
1471.303199
1471.303192
1471.303183
1471.303179
1471.303173
1471.303171
1471.303163
1471.303151
1471.303141
1471.303138
1471.303132
1471.303125
1471.30312
1471.303111
1471.303106
1471.303101
1471.30309
1471.303088
1471.303084
1471.303082
1471.303076
1471.303069
1471.303062
1471.303047
1471.303049
1471.303043
1471.303035
1471.303032
1471.303025
1471.303013
1471.303006
1471.303004
1471.303
1471.302994
1471.302988
1471.302982
1471.302974
1471.30296
1471.302962
1471.302956
1471.302951
1471.302945
1471.302938
1471.302932
1471.302926
1471.302919
1471.30291
1471.302904
1471.302889
1471.302886
1471.30288
1471.302883
1471.302877
1471.302871
1471.302865
1471.302859
1471.302853
1471.302846
1471.302841
1471.302831
1471.30282
1471.302813
1471.302808
1471.302806
1471.302804
1471.302798
1471.302792
1471.302785
1471.30278
1471.302774
1471.302765
1471.302762
1471.302756
1471.302749
1471.302744
1471.302738
1471.302732
1471.302726
1471.30272
1471.302711
1471.302708
1471.302695
1471.302683
1471.302686
1471.30268
1471.302675
1471.302672
1471.30266
1471.302646
1471.302643
1471.302644
1471.302642
1471.302633
1471.30263
1471.302621
1471.302618
1471.302599
1471.302606
1471.302597
1471.302592
1471.302588
1471.302579
1471.302567
1471.302557
1471.302552
1471.302557
1471.30255
1471.302536
1471.30253
1471.302533
1471.302526
1471.30252
1471.30251
1471.302498
1471.302502
1471.302497
1471.302491
1471.302485
1471.302478
1471.302473
1471.302467
1471.302454
1471.302455
1471.302448
1471.302443
1471.302437
1471.302431
1471.302419
1471.30241
1471.302413
1471.302405
1471.302401
1471.302395
1471.302389
1471.302378
1471.302376
1471.30237
1471.302363
1471.302358
1471.302351
1471.302346
1471.302339
1471.302334
1471.302328
1471.302322
1471.302315
1471.302307
1471.302304
1471.30229
1471.302279
1471.302279
1471.30227
1471.30227
1471.302268
1471.30226
1471.30225
1471.302248
1471.302244
1471.302235
1471.302231
1471.302221
1471.302216
1471.302208
1471.302204
1471.302188
1471.302184
1471.302186
1471.30218
1471.302175
1471.302171
1471.302165
1471.302159
1471.302153
1471.302141
1471.302139
1471.302135
1471.302124
1471.302115
1471.302106
1471.302108
1471.302104
1471.302098
1471.302091
1471.302086
1471.30208
1471.302071
1471.302061
1471.302055
1471.30205
1471.302049
1471.302044
1471.302037
1471.302032
1471.30202
1471.302009
1471.302014
1471.302002
1471.301992
1471.301985
1471.30198
1471.301975
1471.301978
1471.301968
1471.301955
1471.301959
1471.30195
1471.301948
1471.301941
1471.301936
1471.301929
1471.301923
1471.301908
1471.301902
1471.301906
1471.301896
1471.301895
1471.301889
1471.301883
1471.301875
1471.301871
1471.301863
1471.301858
1471.301843
1471.301824
1471.301815
1471.301815
1471.301817
1471.301818
1471.301818
1471.301812
1471.301805
1471.3018
1471.301794
1471.301789
1471.301781
1471.30177
1471.301768
1471.301755
1471.301749
1471.301744
1471.301748
1471.301741
1471.301736
1471.301731
1471.30172
1471.301717
1471.301709
1471.301703
1471.3017
1471.301687
1471.30169
1471.301681
1471.301667
1471.301663
1471.301656
1471.301656
1471.301653
1471.301637
1471.301636
1471.301632
1471.301616
1471.301622
1471.301616
1471.301616
1471.301606
1471.301599
1471.301599
1471.301591
1471.301588
1471.301582
1471.301577
1471.301565
1471.301565
1471.30156
1471.301554
1471.301537
1471.301536
1471.301526
1471.30152
1471.301522
1471.30152
1471.301515
1471.301509
1471.301502
1471.301498
1471.301481
1471.301481
1471.30148
1471.301474
1471.301467
1471.301462
1471.30145
1471.301446
1471.301446
1471.301442
1471.301437
1471.301429
1471.301422
1471.301413
1471.301404
1471.301406
1471.3014
1471.301398
1471.301392
1471.301381
1471.301378
1471.301375
1471.301365
1471.301361
1471.30135
1471.301346
1471.301341
1471.301339
1471.301335
1471.301331
1471.301325
1471.301319
1471.301309
1471.301305
1471.3013
1471.301297
1471.301287
1471.301286
1471.30127
1471.30126
1471.301256
1471.301253
1471.301249
1471.301245
1471.301244
1471.301241
1471.301235
1471.301225
1471.301218
1471.301213
1471.301204
1471.30119
1471.301188
1471.301193
1471.301189
1471.301182
1471.301179
1471.301174
1471.301165
1471.301162
1471.301157
1471.301139
1471.301135
1471.30113
1471.301123
1471.30112
1471.301116
1471.301116
1471.301112
1471.301106
1471.301098
1471.301094
1471.301073
1471.301073
1471.301074
1471.301059
1471.301064
1471.30106
1471.301056
1471.301049
1471.301045
1471.301039
1471.301029
1471.301028
1471.301022
1471.301011
1471.301007
1471.301006
1471.300996
1471.300983
1471.300979
1471.300984
1471.300978
1471.300973
1471.300967
1471.30096
1471.300956
1471.300951
1471.300945
1471.30094
1471.300931
1471.300929
1471.30092
1471.300918
1471.300912
1471.300907
1471.300896
1471.300896
1471.300891
1471.300882
1471.300879
1471.300873
1471.300868
1471.300857
1471.300859
1471.300853
1471.300848
1471.300831
1471.300827
1471.300825
1471.300826
1471.300822
1471.300805
1471.300802
1471.300806
1471.300798
1471.300791
1471.300791
1471.300786