/*--------------------------------*- C++ -*----------------------------------*\
| =========                 |                                                 |
| \\      /  F ield         | OpenFOAM: The Open Source CFD Toolbox           |
|  \\    /   O peration     | Version:  2312                                  |
|   \\  /    A nd           | Website:  www.openfoam.com                      |
|    \\/     M anipulation  |                                                 |
\*---------------------------------------------------------------------------*/
FoamFile
{
    version     2.0;
    format      ascii;
    arch        "LSB;label=32;scalar=64";
    class       volScalarField;
    location    "0.005";
    object      maxKappa;
}
// * * * * * * * * * * * * * * * * * * * * * * * * * * * * * * * * * * * * * //

dimensions      [0 0 0 0 0 0 0];

internalField   nonuniform List<scalar> 
8000
(
0.1331675119
0.1331677583
0.1331678042
0.1331678228
0.1331678228
0.1331678161
0.1331677984
0.1331677518
0.1331676731
0.1331676005
0.1331675414
0.1331674935
0.133167457
0.1331674308
0.1331674108
0.1331673991
0.133167399
0.1331674116
0.1331674345
0.1331674677
0.1331675104
0.1331675533
0.1331675946
0.1331676356
0.1331676727
0.1331677074
0.1331677395
0.1331677683
0.1331677911
0.1331678089
0.1331678212
0.1331678285
0.1331678313
0.1331678317
0.1331678317
0.1331678276
0.1331678226
0.133167817
0.1331678113
0.1331678071
0.1331678033
0.133167802
0.133167802
0.1331678038
0.1331678072
0.1331678119
0.1331678166
0.1331678227
0.13316783
0.1331678364
0.1331678437
0.1331678517
0.1331678594
0.133167868
0.1331678773
0.1331678869
0.1331678971
0.1331679079
0.1331679187
0.1331679302
0.1331679419
0.1331679532
0.1331679532
0.1331679759
0.1331679875
0.133167998
0.1331680075
0.1331680158
0.1331680236
0.133168031
0.1331680366
0.1331680427
0.1331680479
0.1331680523
0.1331680555
0.1331680589
0.133168062
0.1331680654
0.1331680683
0.1331680714
0.1331680749
0.133168079
0.1331680829
0.1331680867
0.1331680911
0.1331680953
0.1331681001
0.1331681053
0.1331681105
0.1331681157
0.1331681212
0.1331681274
0.1331681332
0.1331681393
0.1331681456
0.1331681516
0.1331681577
0.1331681639
0.1331681704
0.1331681768
0.1331681821
0.1331681882
0.1331681927
0.133168199
0.133168204
0.1331682094
0.1331682143
0.1331682187
0.1331682232
0.1331682273
0.13316823
0.13316823
0.1331682373
0.1331682406
0.1331682432
0.1331682459
0.1331682472
0.1331682488
0.13316825
0.1331682505
0.1331682515
0.1331682518
0.1331682523
0.1331682523
0.1331682525
0.1331682525
0.133168253
0.1331682535
0.1331682535
0.1331682539
0.1331682558
0.1331682588
0.1331682605
0.1331682622
0.1331682645
0.1331682673
0.1331682703
0.1331682731
0.1331682759
0.1331682782
0.1331682822
0.1331682856
0.1331682899
0.1331682934
0.1331682973
0.1331682999
0.1331683026
0.1331683047
0.1331683066
0.1331683069
0.1331683069
0.1331683067
0.1331683044
0.1331683044
0.133168303
0.1331683002
0.1331682961
0.1331682923
0.1331682875
0.1331682833
0.1331682781
0.1331682727
0.1331682684
0.1331682645
0.1331682612
0.1331682585
0.1331682576
0.1331682573
0.005729557358
0.1331682687
0.133168278
0.1331682883
0.1331683002
0.1331683148
0.1331683323
0.1331683527
0.1331683743
0.1331683995
0.1331684282
0.1331684577
0.1331684908
0.1331685269
0.1331685642
0.133168604
0.1331686468
0.1331686902
0.1331687355
0.1331687815
0.1331688298
0.1331688776
0.1331689265
0.1331689757
0.1331690253
0.1331690751
0.133169124
0.133169173
0.1331692205
0.1331692681
0.1331693149
0.1331693592
0.133169403
0.133169445
0.133169485
0.1331695241
0.1331695627
0.133169598
0.133169631
0.1331696637
0.1331696931
0.1331697222
0.1331697481
0.1331697727
0.1331697959
0.1331698164
0.1331698352
0.1331698513
0.1331698667
0.1331698799
0.1331698932
0.1331699035
0.1331699116
0.1331699188
0.1331699249
0.1331699296
0.1331699325
0.1331699352
0.1331699363
0.1331699371
0.1331699371
0.133169936
0.1331699351
0.1331699331
0.1331699298
0.133169927
0.1331699226
0.1331699187
0.1331699141
0.1331699093
0.1331699043
0.1331698986
0.1331698935
0.133169889
0.1331698844
0.1331698782
0.1331698707
0.1331698707
0.1331698673
0.1331698641
0.133169862
0.1331698598
0.1331698585
0.1331698579
0.133169859
0.1331698603
0.133169863
0.1331698654
0.1331698697
0.133169873
0.1331698778
0.1331698836
0.1331698902
0.1331698967
0.1331699035
0.1331699117
0.133169921
0.13316993
0.1331699398
0.1331699489
0.1331699599
0.1331699711
0.1331699819
0.1331699934
0.1331700052
0.1331700175
0.1331700295
0.1331700419
0.1331700549
0.1331700661
0.1331700661
0.1331700926
0.1331701056
0.1331701183
0.1331701315
0.1331701442
0.1331701573
0.1331701706
0.1331701834
0.1331701961
0.1331702108
0.1331702228
0.133170236
0.1331702502
0.1331702639
0.1331702772
0.1331702912
0.133170305
0.1331703185
0.1331703323
0.1331703462
0.1331703462
0.005731567714
0.1331703883
0.1331704038
0.1331704187
0.1331704331
0.133170448
0.1331704616
0.1331704761
0.1331704761
0.1331705069
0.1331705235
0.1331705391
0.133170554
0.1331705691
0.1331705847
0.1331706004
0.1331706167
0.1331706316
0.1331706475
0.1331706626
0.1331706797
0.1331706964
0.1331707121
0.1331707282
0.1331707446
0.1331707618
0.1331707776
0.1331707944
0.1331708109
0.1331708285
0.1331708445
0.1331708621
0.1331708791
0.1331708966
0.1331709142
0.1331709318
0.133170949
0.1331709666
0.1331709849
0.1331710028
0.133171022
0.1331710399
0.1331710399
0.1331710792
0.1331710985
0.1331711187
0.1331711375
0.1331711575
0.1331711785
0.1331711988
0.1331712197
0.1331712415
0.133171263
0.1331712853
0.1331713059
0.1331713283
0.1331713514
0.1331713734
0.1331713963
0.1331714195
0.1331714429
0.1331714675
0.1331714909
0.1331715155
0.1331715393
0.1331715635
0.1331715872
0.1331715872
0.1331716349
0.1331716596
0.1331716596
0.005732904985
0.1331717316
0.1331717563
0.1331717563
0.1331718055
0.1331718288
0.1331718519
0.1331718755
0.133171899
0.1331719232
0.1331719453
0.1331719686
0.1331719914
0.1331720141
0.133172037
0.1331720596
0.1331720805
0.1331720805
0.1331721247
0.1331721465
0.1331721686
0.13317219
0.1331722122
0.1331722337
0.1331722549
0.1331722766
0.1331722978
0.1331723175
0.1331723385
0.1331723596
0.1331723812
0.1331724025
0.1331724234
0.1331724432
0.1331724642
0.1331724864
0.1331725067
0.1331725285
0.13317255
0.1331725716
0.1331725929
0.1331726147
0.1331726365
0.1331726576
0.1331726789
0.1331727006
0.1331727203
0.1331727203
0.133172765
0.1331727871
0.1331728094
0.1331728326
0.1331728543
0.1331728768
0.1331729003
0.133172923
0.1331729462
0.1331729687
0.1331729924
0.133173016
0.1331730391
0.133173063
0.1331730868
0.1331731102
0.1331731337
0.1331731576
0.1331731815
0.1331732061
0.1331732305
0.1331732548
0.1331732796
0.133173304
0.1331733296
0.1331733538
0.1331733778
0.1331734017
0.1331734266
0.1331734521
0.1331734773
0.1331735021
0.1331735278
0.1331735534
0.1331735815
0.1331736099
0.1331736359
0.1331736616
0.1331736874
0.1331737131
0.1331737357
0.1331737588
0.1331737837
0.1331738094
0.1331738354
0.1331738617
0.1331738883
0.1331739141
0.1331739399
0.1331739668
0.1331739936
0.1331740206
0.1331740464
0.1331740729
0.1331741004
0.1331741273
0.1331741539
0.1331741813
0.1331742085
0.1331742352
0.1331742629
0.1331742906
0.1331743181
0.1331743452
0.1331743726
0.1331744005
0.1331744284
0.1331744551
0.1331744829
0.1331745113
0.1331745389
0.1331745668
0.1331745969
0.1331746257
0.1331746534
0.1331746814
0.1331747096
0.1331747364
0.133174765
0.1331747934
0.1331748222
0.133174851
0.1331748803
0.133174909
0.1331749383
0.1331749666
0.1331749957
0.1331750248
0.133175054
0.133175083
0.1331751126
0.1331751421
0.1331751714
0.1331752012
0.1331752308
0.1331752595
0.1331752901
0.13317532
0.1331753497
0.1331753799
0.1331753799
0.1331754394
0.1331754689
0.1331755
0.1331755303
0.1331755601
0.133175591
0.1331756217
0.1331756515
0.1331756818
0.1331757121
0.1331757433
0.1331757742
0.1331758045
0.1331758349
0.1331758657
0.1331758965
0.1331759272
0.1331759577
0.1331759889
0.1331760191
0.1331760508
0.1331760812
0.1331761122
0.1331761433
0.1331761743
0.1331762064
0.1331762383
0.1331762698
0.1331763004
0.1331763301
0.1331763607
0.1331763916
0.1331764228
0.1331764543
0.1331764848
0.1331765163
0.1331765459
0.1331765768
0.1331766089
0.1331766398
0.133176671
0.1331767017
0.1331767331
0.1331767637
0.1331767947
0.1331768259
0.1331768562
0.1331768874
0.1331769184
0.1331769502
0.1331769832
0.1331770158
0.1331770475
0.1331770788
0.133177108
0.1331771382
0.1331771687
0.1331771998
0.1331772285
0.1331772582
0.1331772882
0.1331773183
0.133177348
0.1331773787
0.1331774094
0.1331774396
0.1331774715
0.1331775022
0.1331775327
0.1331775628
0.1331775936
0.1331776233
0.1331776516
0.1331776816
0.1331777122
0.1331777425
0.1331777733
0.1331778029
0.133177833
0.1331778626
0.1331778928
0.1331779228
0.1331779528
0.1331779832
0.1331780134
0.1331780421
0.1331780717
0.1331781014
0.1331781315
0.1331781612
0.1331781906
0.1331782204
0.1331782496
0.133178279
0.1331783088
0.1331783381
0.1331783666
0.1331783958
0.1331784256
0.1331784539
0.133178483
0.1331785121
0.1331785406
0.1331785688
0.1331785981
0.1331786268
0.1331786553
0.1331786838
0.1331787121
0.13317874
0.133178768
0.1331787967
0.133178825
0.1331788531
0.1331788823
0.1331789106
0.1331789401
0.1331789682
0.1331789957
0.1331790233
0.1331790498
0.1331790763
0.1331791028
0.1331791289
0.1331791558
0.1331791832
0.13317921
0.133179237
0.1331792624
0.1331792877
0.1331793139
0.1331793139
0.1331793656
0.1331793923
0.1331794185
0.1331794443
0.1331794702
0.1331794959
0.1331795218
0.133179547
0.1331795721
0.1331795721
0.1331796225
0.1331796485
0.1331796737
0.1331796988
0.1331797231
0.133179748
0.1331797727
0.1331797978
0.1331798221
0.1331798467
0.1331798467
0.1331798945
0.1331799187
0.133179944
0.1331799677
0.1331799916
0.1331800153
0.1331800392
0.1331800625
0.1331800855
0.1331800855
0.1331801331
0.1331801565
0.1331801802
0.1331802028
0.1331802262
0.133180249
0.1331802723
0.133180295
0.1331803178
0.1331803402
0.1331803628
0.1331803853
0.1331804078
0.1331804302
0.1331804521
0.1331804746
0.1331804966
0.1331805186
0.133180541
0.1331805626
0.1331805847
0.1331806064
0.1331806277
0.1331806493
0.1331806711
0.1331806924
0.1331807139
0.133180735
0.1331807563
0.1331807563
0.005742830479
0.1331808188
0.1331808401
0.1331808606
0.1331808606
0.1331809022
0.133180924
0.1331809444
0.1331809661
0.1331809869
0.1331810075
0.1331810265
0.1331810463
0.1331810667
0.1331810868
0.1331811063
0.1331811263
0.1331811465
0.1331811465
0.133181186
0.1331812062
0.1331812263
0.1331812458
0.1331812657
0.1331812848
0.1331813029
0.1331813219
0.1331813416
0.1331813606
0.1331813798
0.1331813989
0.1331814175
0.1331814364
0.1331814548
0.1331814548
0.1331814921
0.1331815108
0.1331815303
0.1331815493
0.1331815684
0.1331815869
0.1331816049
0.133181623
0.1331816414
0.1331816578
0.1331816753
0.1331816932
0.1331817112
0.1331817284
0.1331817459
0.1331817643
0.1331817817
0.1331817991
0.1331818167
0.1331818334
0.1331818513
0.1331818684
0.1331818855
0.1331819023
0.1331819194
0.1331819366
0.1331819529
0.1331819696
0.1331819863
0.133182003
0.1331820194
0.1331820362
0.1331820522
0.1331820687
0.1331820845
0.1331821006
0.133182117
0.1331821336
0.1331821492
0.1331821649
0.1331821802
0.1331821966
0.1331822122
0.1331822266
0.1331822412
0.1331822562
0.1331822718
0.1331822866
0.1331822866
0.005744568381
0.1331823307
0.1331823457
0.13318236
0.1331823745
0.1331823897
0.133182404
0.1331824174
0.1331824311
0.1331824453
0.1331824585
0.1331824585
0.005744766643
0.005744782244
0.005744797679
0.005744812946
0.1331825381
0.1331825503
0.1331825624
0.1331825748
0.1331825873
0.1331825991
0.1331826113
0.133182622
0.1331826331
0.1331826331
0.005744967857
0.1331826657
0.1331826768
0.1331826872
0.1331826963
0.1331827058
0.1331827152
0.1331827152
0.1331827334
0.1331827334
0.00574508255
0.005745092359
0.1331827659
0.1331827731
0.1331827731
0.1331827872
0.1331827872
0.005745144065
0.1331828057
0.1331828114
0.1331828167
0.133182821
0.1331828256
0.1331828303
0.1331828337
0.1331828372
0.1331828401
0.1331828428
0.1331828461
0.1331828477
0.1331828494
0.1331828494
0.005745214613
0.1331828517
0.1331828522
0.1331828522
0.1331828521
0.1331828516
0.1331828509
0.1331828499
0.1331828464
0.1331828464
0.1331828443
0.1331828422
0.1331828395
0.1331828331
0.1331828331
0.1331828298
0.133182826
0.1331828219
0.1331828173
0.1331828127
0.1331828073
0.1331828016
0.1331827959
0.13318279
0.1331827845
0.1331827706
0.1331827706
0.1331827571
0.1331827571
0.1331827501
0.1331827427
0.1331827343
0.1331827262
0.1331827179
0.1331827101
0.1331827018
0.1331826926
0.1331826844
0.1331826744
0.1331826653
0.1331826564
0.1331826462
0.133182637
0.1331826167
0.1331826167
0.1331826066
0.1331825965
0.1331825852
0.1331825637
0.1331825637
0.1331825526
0.1331825416
0.1331825308
0.1331825194
0.1331825075
0.1331824839
0.1331824839
0.1331824727
0.1331824477
0.1331824477
0.1331824358
0.133182423
0.1331823978
0.1331823978
0.1331823847
0.1331823716
0.1331823582
0.1331823454
0.1331823319
0.1331823041
0.1331823041
0.1331822899
0.1331822759
0.133182247
0.133182247
0.005744593559
0.1331822029
0.1331822029
0.1331821884
0.1331821725
0.1331821414
0.1331821414
0.1331821259
0.1331821098
0.1331820936
0.1331820607
0.1331820607
0.1331820437
0.1331820097
0.1331820097
0.005744341877
0.1331819568
0.1331819568
0.133181939
0.005744266576
0.005744247163
0.1331818651
0.1331818651
0.1331818457
0.1331818264
0.1331817879
0.1331817879
0.1331817677
0.1331817475
0.1331817271
0.1331817064
0.1331816851
0.133181664
0.1331816432
0.133181621
0.1331815991
0.133181577
0.1331815549
0.1331815321
0.1331814866
0.1331814866
0.1331814397
0.1331814397
0.1331814163
0.1331813922
0.1331813681
0.1331813442
0.1331812954
0.1331812954
0.13318127
0.133181245
0.1331812199
0.1331811942
0.1331811686
0.133181143
0.1331811172
0.1331810916
0.1331810386
0.1331810386
0.1331810129
0.1331809865
0.1331809592
0.005743215247
0.1331808788
0.1331808788
0.1331808523
0.00574310056
0.005743071787
0.1331807448
0.1331807448
0.133180718
0.1331806634
0.1331806634
0.1331806099
0.1331806099
0.1331805828
0.1331805562
0.1331805037
0.1331805037
0.1331804766
0.1331804505
0.1331803984
0.1331803984
0.1331803725
0.1331803468
0.1331803217
0.1331802967
0.1331802717
0.1331802466
0.1331802219
0.1331801728
0.1331801728
0.1331801493
0.1331801251
0.005742333369
0.1331800554
0.1331800554
0.1331800329
0.1331800105
0.1331799887
0.1331799663
0.1331799454
0.1331799234
0.1331798816
0.1331798816
0.133179841
0.133179841
0.1331798211
0.1331798018
0.005742002715
0.1331797451
0.1331797451
0.1331797266
0.1331797084
0.1331796902
0.1331796723
0.1331796548
0.1331796379
0.1331796206
0.133179604
0.1331795705
0.1331795705
0.133179555
0.1331795388
0.1331795226
0.005741726428
0.1331794767
0.1331794767
0.1331794616
0.133179432
0.133179432
0.1331794173
0.1331794029
0.1331793887
0.1331793599
0.1331793599
0.005741569017
0.1331793176
0.1331793176
0.1331793041
0.1331792902
0.1331792767
0.1331792624
0.1331792487
0.1331792215
0.1331792215
0.005741436886
0.133179181
0.133179181
0.133179168
0.1331791542
0.1331791406
0.1331791262
0.1331791133
0.1331790992
0.1331790852
0.1331790712
0.1331790579
0.1331790441
0.13317903
0.1331790157
0.1331790017
0.1331789878
0.1331789735
0.1331789602
0.1331789454
0.1331789314
0.133178917
0.1331789016
0.133178887
0.1331788726
0.1331788579
0.1331788424
0.1331788279
0.1331788123
0.1331787973
0.133178782
0.1331787667
0.1331787504
0.1331787345
0.1331787025
0.1331787025
0.1331786864
0.1331786703
0.005740903989
0.1331786201
0.1331786201
0.1331785856
0.1331785856
0.1331785691
0.1331785509
0.133178533
0.1331785143
0.1331784773
0.1331784773
0.1331784587
0.1331784202
0.1331784202
0.1331784006
0.1331783812
0.1331783611
0.1331783399
0.1331782976
0.1331782976
0.1331782758
0.005740505673
0.1331782088
0.1331782088
0.005740436261
0.005740412217
0.1331781148
0.1331781148
0.1331780897
0.1331780645
0.1331780122
0.1331780122
0.1331779854
0.1331779588
0.1331779028
0.1331779028
0.1331778745
0.133177845
0.1331778146
0.1331777843
0.1331777532
0.1331777217
0.1331776894
0.1331776567
0.1331776234
0.1331775894
0.1331775555
0.1331775195
0.005739702066
0.1331774101
0.1331774101
0.1331773723
0.1331773335
0.1331772945
0.005739456893
0.1331771717
0.1331771717
0.1331771305
0.1331770878
0.133177044
0.1331769991
0.1331769538
0.1331768621
0.1331768621
0.133176815
0.005738931662
0.005738878861
0.1331766186
0.1331766186
0.1331765676
0.1331765151
0.1331764625
0.1331764097
0.1331763562
0.1331763006
0.1331762455
0.1331761885
0.1331761316
0.133176074
0.1331759559
0.1331759559
0.1331758351
0.1331758351
0.1331757731
0.1331757108
0.1331756483
0.133175584
0.1331755194
0.1331753879
0.1331753879
0.1331753221
0.1331752543
0.1331751864
0.1331751169
0.1331750476
0.1331749768
0.1331749063
0.1331748346
0.1331747611
0.1331746881
0.005736574471
0.1331744653
0.1331744653
0.1331743891
0.1331743121
0.1331742349
0.1331740784
0.1331740784
0.1331739991
0.1331739192
0.005735717669
0.1331736761
0.1331736761
0.1331735945
0.1331735108
0.1331734275
0.1331733427
0.133173258
0.1331731728
0.1331730876
0.1331729133
0.1331729133
0.1331727375
0.1331727375
0.005734398675
0.1331724695
0.1331724695
0.1331723792
0.1331721979
0.1331721979
0.1331721053
0.133172013
0.1331719211
0.00573348582
0.005733381617
0.1331715443
0.1331715443
0.1331714492
0.1331713539
0.1331712579
0.1331710651
0.1331710651
0.1331709677
0.1331708704
0.1331706747
0.1331706747
0.1331705764
0.1331704777
0.1331703779
0.1331702785
0.1331701804
0.1331699786
0.1331699786
0.1331698789
0.1331696763
0.1331696763
0.1331694734
0.1331694734
0.133169372
0.1331692704
0.1331691688
0.1331690663
0.005730297059
0.005730182911
0.1331686565
0.1331686565
0.1331685542
0.1331684518
0.1331683494
0.1331682464
0.1331681433
0.1331679381
0.1331679381
0.005729037676
0.005728923165
0.1331675275
0.1331675275
0.1331674264
0.133167324
0.1331672221
0.1331671191
0.1331670174
0.005728011519
0.005727898397
0.1331666123
0.1331666123
0.1331665118
0.1331663124
0.1331663124
0.1331662128
0.133166113
0.1331660132
0.1331659147
0.1331658173
0.00572667493
0.005726566118
0.005726457794
0.1331653311
0.1331653311
0.1331652353
0.1331651415
0.1331650471
0.1331649522
0.1331648584
0.1331646727
0.1331646727
0.1331645811
0.00572530406
0.1331643101
0.1331643101
0.1331642211
0.1331641329
0.1331639566
0.1331639566
0.1331638714
0.005724518153
0.1331636163
0.1331636163
0.1331635324
0.1331633685
0.1331633685
0.1331632873
0.1331631285
0.1331631285
0.1331630497
0.133162896
0.133162896
0.005723444344
0.005723361192
0.005723279067
0.1331625268
0.1331625268
0.133162385
0.133162385
0.1331623165
0.1331622478
0.133162182
0.1331621147
0.1331620488
0.1331619843
0.1331619209
0.1331618581
0.133161797
0.1331617359
0.1331616191
0.1331616191
0.1331615617
0.1331614473
0.1331614473
0.1331613925
0.1331613392
0.1331612862
0.1331612341
0.1331611824
0.005721574637
0.1331610353
0.1331610353
0.1331609866
0.133160894
0.133160894
0.1331608492
0.00572121493
0.005721167335
0.005721120645
0.005721074805
0.1331605955
0.1331605955
0.1331605567
0.1331605173
0.133160479
0.005720817043
0.1331603681
0.1331603681
0.133160334
0.1331602972
0.005720622273
0.005720585209
0.1331601618
0.1331601618
0.1331601289
0.1331600973
0.1331600657
0.1331600337
0.1331599728
0.1331599728
0.005720274123
0.1331598823
0.1331598823
0.1331598518
0.1331598228
0.1331597937
0.1331597365
0.1331597365
0.1331597081
0.1331596787
0.1331596502
0.1331596216
0.1331595936
0.1331595659
0.005719836562
0.1331594805
0.1331594805
0.1331594531
0.1331594239
0.1331593672
0.1331593672
0.1331593392
0.13315931
0.133159281
0.005719528265
0.1331591946
0.1331591946
0.1331591678
0.1331591379
0.1331591065
0.1331590476
0.1331590476
0.00571927305
0.005719240497
0.005719207812
0.1331588977
0.1331588977
0.1331588674
0.1331588067
0.1331588067
0.1331587468
0.1331587468
0.1331587151
0.1331586548
0.1331586548
0.005718843077
0.1331585638
0.1331585638
0.1331585041
0.1331585041
0.133158475
0.1331584451
0.1331584164
0.1331583574
0.1331583574
0.1331583287
0.1331583012
0.1331582729
0.1331582461
0.1331582187
0.1331581937
0.005718343794
0.005718316487
0.1331580939
0.1331580939
0.005718239017
0.005718214839
0.005718191553
0.005718169206
0.005718147856
0.1331579495
0.1331579495
0.005718090175
0.133157902
0.133157902
0.133157888
0.1331578758
0.1331578644
0.1331578546
0.00571799894
0.005717991587
0.133157828
0.133157828
0.133157824
0.1331578225
0.1331578253
0.1331578275
0.1331578275
0.1331578384
0.1331578384
0.1331578567
0.1331578683
0.1331578829
0.1331578829
0.005718096358
0.1331579369
0.1331579587
0.1331579823
0.1331580064
0.1331580338
0.1331580637
0.1331580955
0.1331581295
0.1331581667
0.133158205
0.1331582458
0.1331582877
0.1331582877
0.1331583809
0.1331584311
0.1331584311
0.005718821899
0.1331585944
0.1331585944
0.1331587158
0.1331587794
0.1331588456
0.1331589143
0.1331589143
0.005719423941
0.005719511483
0.00571960173
0.005719694732
0.005719790498
0.1331594629
0.1331594629
0.005720093946
0.1331597339
0.1331598305
0.1331599283
0.1331600276
0.1331601289
0.1331602334
0.1331602334
0.1331604494
0.1331605603
0.1331606745
0.1331607906
0.1331607906
0.1331610293
0.1331611507
0.1331612754
0.1331614016
0.1331615305
0.1331615305
0.1331617948
0.1331619299
0.1331620667
0.1331622049
0.1331623454
0.1331624886
0.1331626319
0.1331627782
0.1331627782
0.005724030752
0.133163227
0.1331633803
0.1331635351
0.1331636911
0.1331638489
0.1331640067
0.1331641675
0.1331643289
0.1331644919
0.1331644919
0.1331648223
0.1331648223
0.005726412684
0.005726606129
0.005726800752
0.005726996491
0.005727193297
0.1331660122
0.1331660122
0.1331663609
0.1331665367
0.1331667133
0.1331668895
0.1331670669
0.133167244
0.1331674224
0.1331676011
0.1331676011
0.005729617208
0.133168139
0.133168139
0.1331684982
0.1331686791
0.1331688591
0.1331690385
0.1331692184
0.1331693982
0.1331695782
0.1331697576
0.1331699364
0.1331699364
0.005732285229
0.1331704712
0.1331706482
0.1331706482
0.1331710012
0.1331711768
0.1331711768
0.1331715256
0.1331716989
0.1331716989
0.005734284851
0.133172213
0.1331723826
0.1331725518
0.1331727186
0.1331727186
0.13317305
0.13317305
0.1331733763
0.1331735378
0.1331736978
0.1331738557
0.133174013
0.133174168
0.1331743223
0.1331744748
0.1331746257
0.1331747746
0.1331747746
0.005737740667
0.005737905118
0.1331753534
0.1331754939
0.133175633
0.1331757694
0.1331759046
0.1331759046
0.005738997251
0.1331762962
0.1331762962
0.1331765479
0.1331766704
0.1331766704
0.005739844878
0.005739977737
0.1331771402
0.1331772525
0.1331773619
0.1331774696
0.1331775754
0.1331776787
0.1331777794
0.1331778781
0.1331778781
0.005741167461
0.1331781597
0.1331782493
0.1331782493
0.005741570467
0.1331785038
0.1331785839
0.1331786619
0.1331787374
0.1331787374
0.1331788809
0.1331789493
0.1331790151
0.1331790789
0.1331790789
0.005742458118
0.1331792561
0.1331793109
0.1331793632
0.1331794128
0.1331794604
0.1331795051
0.1331795479
0.1331795882
0.1331796267
0.1331796267
0.1331796968
0.1331797284
0.1331797284
0.1331797852
0.1331798105
0.1331798336
0.1331798539
0.1331798539
0.00574324204
0.005743258388
0.1331799162
0.1331799162
0.1331799351
0.1331799415
0.1331799462
0.1331799462
0.1331799495
0.1331799495
0.1331799485
0.133179946
0.1331799412
0.1331799347
0.1331799256
0.1331799156
0.1331799033
0.1331798894
0.1331798565
0.1331798565
0.1331798169
0.1331798169
0.1331797961
0.1331797726
0.1331797471
0.13317972
0.1331796916
0.1331796619
0.1331796306
0.133179598
0.1331795646
0.1331795292
0.1331794924
0.1331794553
0.1331794161
0.1331793758
0.1331793342
0.1331792918
0.1331792478
0.1331792025
0.1331791553
0.1331791073
0.1331790566
0.1331790065
0.1331789048
0.1331789048
0.1331787999
0.1331787999
0.1331786914
0.1331786914
0.1331785799
0.1331785799
0.1331785233
0.1331784655
0.1331784074
0.1331783488
0.005741394826
0.133178169
0.133178169
0.1331780467
0.1331780467
0.1331779228
0.1331779228
0.1331778597
0.1331777333
0.1331777333
0.1331776697
0.005740608845
0.1331774769
0.1331774769
0.005740386484
0.1331772826
0.1331772826
0.1331772177
0.1331771526
0.1331770873
0.1331770213
0.1331769558
0.1331768904
0.1331768244
0.1331767591
0.133176694
0.1331766283
0.1331764979
0.1331764979
0.005739260655
0.1331763034
0.1331763034
0.1331762388
0.1331761748
0.1331761102
0.1331760463
0.005738743077
0.1331758562
0.1331758562
0.1331757317
0.1331757317
0.1331756691
0.133175607
0.1331754852
0.1331754852
0.133175424
0.1331753637
0.1331753043
0.005737893289
0.005737825302
0.005737757819
0.005737690843
0.00573762438
0.1331748966
0.1331748966
0.005737428223
0.133174729
0.133174729
0.1331746743
0.13317462
0.1331745664
0.133174513
0.1331744604
0.1331743567
0.1331743567
0.1331742552
0.1331742552
0.1331742059
0.1331741568
0.1331741075
0.1331740119
0.1331740119
0.1331739653
0.1331739182
0.1331738724
0.1331738272
0.1331737825
0.005736157098
0.1331736521
0.1331736521
0.1331736101
0.1331735688
0.1331734868
0.1331734868
0.00573581974
0.1331733694
0.1331733694
0.005735685396
0.005735641969
0.005735599219
0.1331731853
0.1331731853
0.1331731509
0.1331731158
0.1331730821
0.005735356908
0.133172984
0.133172984
0.1331729216
0.1331729216
0.1331728615
0.1331728615
0.1331728037
0.1331728037
0.005735037977
0.005735005739
0.005734974135
0.1331726689
0.1331726689
0.1331726188
0.1331726188
0.1331725952
0.1331725482
0.1331725482
0.133172503
0.133172503
0.1331724822
0.1331724612
0.1331724407
0.1331724204
0.1331724008
0.1331723818
0.1331723634
0.133172344
0.1331723263
0.1331723089
0.1331722926
0.1331722758
0.133172245
0.133172245
0.1331722305
0.1331722158
0.1331722018
0.1331721877
0.1331721742
0.005734306434
0.1331721364
0.1331721364
0.1331721135
0.1331721135
0.1331721034
0.1331720921
0.1331720823
0.1331720725
0.1331720633
0.1331720537
0.133172045
0.1331720369
0.1331720206
0.1331720206
0.1331720133
0.1331720071
0.1331719997
0.1331719934
0.1331719872
0.1331719812
0.1331719757
0.1331719702
0.1331719654
0.1331719604
0.1331719521
0.1331719521
0.1331719445
0.1331719445
0.005734019817
0.1331719349
0.1331719349
0.1331719332
0.1331719305
0.1331719287
0.1331719266
0.1331719249
0.1331719231
0.005733984932
0.005733982272
0.1331719186
0.1331719186
0.1331719182
0.005733973826
0.005733972241
0.005733970855
0.1331719182
0.1331719182
0.1331719193
0.1331719203
0.1331719203
0.1331719225
0.1331719225
0.1331719261
0.133171928
0.1331719298
0.1331719312
0.1331719334
0.1331719334
0.005733971123
0.005733972358
0.005733973722
0.1331719445
0.1331719445
0.005733978561
0.1331719529
0.1331719564
0.1331719593
0.1331719624
0.1331719667
0.1331719702
0.1331719731
0.1331719762
0.1331719762
0.1331719836
0.1331719836
0.005734007522
0.1331719951
0.1331719991
0.1331720033
0.1331720073
0.1331720119
0.1331720166
0.133172021
0.1331720246
0.1331720246
0.1331720335
0.1331720335
0.005734048091
0.1331720471
0.1331720521
0.1331720569
0.1331720569
0.1331720665
0.1331720715
0.1331720767
0.1331720813
0.1331720864
0.1331720908
0.1331720955
0.1331721005
0.1331721058
0.1331721058
0.00573410899
0.1331721207
0.1331721266
0.1331721319
0.1331721367
0.1331721412
0.1331721412
0.1331721518
0.1331721566
0.1331721618
0.1331721673
0.1331721725
0.1331721777
0.1331721835
0.1331721889
0.1331721942
0.1331722017
0.1331722082
0.1331722136
0.1331722189
0.1331722237
0.1331722261
0.1331722306
0.133172236
0.1331722408
0.1331722462
0.1331722462
0.1331722568
0.1331722568
0.1331722673
0.1331722673
0.005734249827
0.005734254466
0.1331722888
0.1331722888
0.1331722992
0.1331722992
0.1331723099
0.133172315
0.1331723206
0.1331723258
0.1331723305
0.1331723356
0.1331723356
0.1331723461
0.1331723461
0.1331723566
0.1331723617
0.1331723669
0.1331723669
0.1331723772
0.1331723824
0.1331723824
0.005734351258
0.1331723982
0.1331724035
0.1331724086
0.133172414
0.1331724188
0.1331724239
0.1331724285
0.1331724338
0.1331724395
0.1331724448
0.1331724495
0.1331724546
0.1331724596
0.1331724645
0.1331724698
0.1331724746
0.1331724797
0.1331724851
0.1331724896
0.1331724943
0.1331724943
0.005734450331
0.005734454772
0.1331725142
0.1331725199
0.1331725241
0.1331725291
0.1331725342
0.1331725389
0.1331725438
0.1331725493
0.1331725544
0.1331725588
0.1331725588
0.005734507703
0.1331725734
0.1331725734
0.1331725834
0.1331725891
0.1331725932
0.1331725981
0.1331726028
0.1331726028
0.005734547022
0.005734551374
0.1331726224
0.1331726274
0.1331726325
0.1331726374
0.1331726431
0.1331726477
0.1331726525
0.1331726525
0.1331726613
0.1331726613
0.133172671
0.133172671
0.005734607719
0.1331726857
0.1331726857
0.1331726958
0.1331727009
0.1331727058
0.1331727104
0.1331727147
0.1331727147
0.1331727243
0.1331727243
0.1331727341
0.1331727341
0.005734663759
0.1331727487
0.1331727487
0.1331727581
0.133172763
0.1331727677
0.1331727725
0.1331727725
0.005734698162
0.00573470246
0.1331727921
0.1331727921
0.1331728024
0.1331728074
0.1331728115
0.1331728163
0.1331728208
0.1331728208
0.1331728311
0.1331728365
0.1331728409
0.1331728449
0.1331728449
0.1331728547
0.1331728547
0.1331728643
0.1331728643
0.1331728749
0.1331728749
0.1331728836
0.1331728882
0.1331728882
0.1331728982
0.1331729035
0.1331729086
0.1331729132
0.1331729132
0.133172922
0.1331729276
0.1331729325
0.1331729325
0.1331729413
0.1331729461
0.1331729515
0.1331729567
0.1331729605
0.1331729605
0.005734865781
0.1331729749
0.1331729799
0.1331729799
0.005734883
0.1331729949
0.1331729991
0.133173004
0.133173004
0.005734904535
0.005734908843
0.1331730239
0.1331730289
0.1331730289
0.1331730379
0.1331730379
0.005734934706
0.1331730522
0.1331730575
0.1331730575
0.005734951959
0.1331730717
0.1331730717
0.1331730814
0.1331730814
0.1331730911
0.1331730911
0.005734982168
0.005734986486
0.1331731104
0.1331731154
0.1331731154
0.1331731258
0.1331731309
0.1331731352
0.1331731403
0.1331731443
0.133173149
0.133173154
0.1331731593
0.1331731636
0.1331731636
0.1331731736
0.1331731736
0.1331731834
0.1331731881
0.1331731932
0.1331731978
0.1331732036
0.1331732081
0.1331732123
0.1331732172
0.1331732217
0.1331732217
0.1331732314
0.1331732363
0.1331732363
0.1331732465
0.1331732508
0.1331732508
0.133173261
0.1331732661
0.1331732711
0.1331732751
0.1331732751
0.005735146297
0.1331732896
0.1331732896
0.005735159226
0.1331733044
0.1331733095
0.1331733143
0.1331733189
0.1331733233
0.1331733233
0.1331733331
0.1331733331
0.1331733434
0.1331733485
0.1331733485
0.1331733577
0.1331733628