/*--------------------------------*- C++ -*----------------------------------*\
| =========                 |                                                 |
| \\      /  F ield         | OpenFOAM: The Open Source CFD Toolbox           |
|  \\    /   O peration     | Version:  2312                                  |
|   \\  /    A nd           | Website:  www.openfoam.com                      |
|    \\/     M anipulation  |                                                 |
\*---------------------------------------------------------------------------*/
FoamFile
{
    version     2.0;
    format      ascii;
    arch        "LSB;label=32;scalar=64";
    class       volScalarField;
    location    "0.005";
    object      p;
}
// * * * * * * * * * * * * * * * * * * * * * * * * * * * * * * * * * * * * * //

dimensions      [1 -1 -2 0 0 0 0];

internalField   nonuniform List<scalar> 
8000
(
107044.5336
101471.6956
99692.01793
99911.68511
100039.1936
99971.33024
99886.82914
99781.44124
99641.71487
99483.59156
99322.38327
99167.77569
99024.58728
98894.30705
98776.4235
98669.813
98573.63022
98487.70114
98412.21761
98347.84207
98295.16129
98254.56317
98225.55038
98206.46032
98194.61244
98186.51539
98178.1012
98165.29497
98144.52087
98113.2422
98070.00726
98014.45845
97947.78917
97871.5041
97787.5238
97697.99639
97605.27249
97511.69126
97419.26661
97329.3993
97243.07178
97160.83466
97082.84946
97009.00152
96938.79816
96871.88008
96807.60634
96745.55971
96685.32158
96626.5901
96569.15114
96512.9614
96458.01403
96404.41338
96352.28571
96301.73909
96252.82587
96205.51463
96159.67364
96115.06185
96071.33778
96028.09998
95984.85013
95941.0015
95896.11437
95849.69566
95801.35832
95750.83513
95697.95284
95642.65845
95585.00162
95525.13379
95463.28154
95399.7361
95334.81185
95268.82883
95202.20459
95135.16997
95068.02622
95001.07053
94934.46186
94868.39691
94802.96522
94738.26791
94674.34561
94611.23596
94548.95213
94487.45117
94426.69276
94366.61995
94307.16475
94248.25187
94189.80312
94131.73774
94073.97208
94016.42231
93959.01209
93901.65666
93844.28236
93786.80615
93729.15298
93671.25448
93613.03387
93554.42311
93495.3616
93435.77973
93375.60521
93314.79172
93253.27245
93190.99936
93127.92195
93064.01715
92999.29995
92933.71362
92867.20425
92799.8341
92731.56071
92662.39349
92592.39557
92521.59907
92450.08536
92377.94773
92305.29644
92232.26414
92158.99833
92085.66524
92012.44485
91939.50996
91867.02986
91795.16786
91724.0734
91653.87807
91584.68851
91516.57667
91449.60351
91383.75474
91319.00794
91255.24986
91192.42338
91130.30674
91068.77756
91007.54027
90946.41136
90885.055
90823.14129
90760.4848
90696.77799
90631.76461
90565.144
90496.72786
90426.31051
90353.8025
90279.13834
90202.23888
90123.24083
90042.38169
89959.84055
89875.95056
89791.12218
89705.82835
89620.64672
89536.18524
89453.06961
89371.94784
89293.47372
89218.30824
89147.09917
89080.47525
89018.76229
88962.59695
88912.66269
88869.14648
88832.44547
88802.91845
88780.86559
88766.41773
88759.63803
88760.49457
88769.06727
88785.35128
88809.23324
88840.68539
88879.02104
88923.78545
88974.61263
89030.97776
89092.28413
89157.91649
89227.22263
89299.53267
89374.1659
89450.43816
89527.67218
89605.16416
89682.25154
89758.33023
89832.81332
89905.17718
89974.90293
90041.56278
90104.74754
90164.07343
90219.20676
90269.77
90315.66379
90356.66698
90392.54567
90423.2549
90448.65025
90468.68315
90483.3777
90492.74977
90496.81821
90495.67561
90489.28974
90477.52924
90460.78937
90439.00474
90412.40442
90381.24743
90345.57282
90305.66743
90261.73971
90214.02127
90162.66917
90108.11864
90050.56032
89990.22144
89927.22287
89861.83983
89794.2918
89724.8227
89653.67462
89581.09359
89507.32729
89432.6204
89357.21771
89281.3643
89205.29754
89129.26596
89053.50362
88978.22873
88903.64779
88829.95814
88757.34743
88685.99097
88616.05126
88547.67781
88481.0049
88416.1508
88353.21978
88292.2976
88233.45911
88176.75865
88122.22816
88069.82293
88019.58767
87971.45832
87925.43302
87881.50323
87839.6355
87799.73289
87761.70544
87725.49037
87691.02069
87658.14819
87626.76821
87596.78777
87568.09916
87540.60757
87514.18811
87488.73476
87464.15383
87440.35289
87417.24317
87394.74406
87372.77957
87351.28354
87330.19308
87309.46084
87289.06035
87268.93146
87249.04974
87229.39889
87209.9632
87190.73248
87171.70247
87152.87391
87134.25064
87115.84013
87097.65244
87079.69965
87061.99471
87044.5515
87027.38518
87010.50976
86993.93894
86977.68585
86961.76213
86946.17368
86930.93059
86916.04724
86901.52324
86887.3712
86873.57782
86860.14587
86847.07618
86834.35986
86822.00352
86810.00985
86798.35423
86787.0399
86776.05182
86765.38406
86755.03418
86744.99422
86735.25846
86725.82044
86716.67683
86707.82433
86699.26091
86690.9952
86683.02108
86675.34071
86667.9655
86660.90722
86654.17269
86647.77418
86641.73007
86636.05897
86630.77896
86625.91189
86621.48297
86617.51788
86614.04198
86611.08749
86608.6748
86606.82722
86605.57881
86604.95258
86604.95699
86605.65326
86607.06468
86609.22861
86612.20698
86615.98279
86620.58619
86626.04735
86632.38026
86639.59618
86647.70359
86656.70671
86666.60484
86677.39216
86689.05662
86701.59234
86714.96293
86729.16746
86744.16344
86759.89985
86776.36151
86793.49031
86811.23561
86829.54907
86848.38041
86867.67175
86887.36501
86907.40142
86927.7217
86948.27048
86968.98088
86989.79168
87010.64488
87031.48875
87052.26886
87072.95001
87093.48753
87113.83877
87133.97352
87153.85782
87173.47367
87192.79923
87211.8218
87230.53072
87248.92051
87266.9937
87284.75284
87302.20701
87319.3757
87336.26403
87352.90905
87369.32497
87385.53665
87401.57214
87417.46869
87433.25638
87448.96782
87464.6373
87480.30063
87495.99367
87511.75372
87527.61768
87543.62069
87559.79747
87576.18134
87592.80498
87609.69948
87626.89475
87644.41883
87662.29747
87680.55464
87699.21219
87718.28994
87737.80475
87757.77255
87778.2066
87799.11824
87820.5173
87842.40822
87864.799
87887.70656
87911.11769
87935.03498
87959.46385
87984.40222
88009.84793
88035.79829
88062.25022
88089.19916
88116.64103
88144.57036
88172.98117
88201.86804
88231.22524
88261.0463
88291.32513
88322.056
88353.23268
88384.84934
88416.89998
88449.37878
88482.28051
88515.59991
88549.33211
88583.47183
88618.01482
88652.95644
88688.29297
88724.02078
88760.13531
88796.63318
88833.51157
88870.76762
88908.39823
88946.40081
88984.77251
89023.51109
89062.61433
89102.08048
89141.90725
89182.09238
89222.63508
89263.53312
89304.78461
89346.38845
89388.3436
89430.64811
89473.29999
89516.29764
89559.63358
89603.32271
89647.35448
89691.72168
89736.4293
89781.47597
89826.85853
89872.57572
89918.62747
89965.01213
90011.72655
90058.77018
90106.1417
90153.83941
90201.86143
90250.20658
90298.87331
90347.85972
90397.16445
90446.78574
90496.72175
90546.96991
90597.53107
90648.40181
90699.57857
90751.06116
90802.848
90854.93633
90907.32407
90960.0094
91012.99036
91066.26454
91119.83019
91173.68483
91227.82623
91282.25207
91336.96042
91391.94842
91447.21421
91502.75474
91558.5679
91614.65084
91671.00122
91727.61658
91784.49346
91841.62919
91899.02108
91956.66596
92014.56116
92072.70273
92131.08505
92189.7069
92248.5707
92307.66557
92366.99184
92426.54067
92486.31055
92546.29827
92606.49953
92666.90949
92727.52382
92788.33789
92849.34713
92910.54659
92971.93083
93033.49508
93095.23402
93157.14222
93219.21425
93281.4429
93343.82649
93406.35725
93469.02771
93531.83318
93594.76805
93657.82582
93721.00099
93784.2874
93847.67904
93911.17013
93974.75463
94038.42686
94102.18126
94166.01251
94229.91503
94293.88361
94357.91348
94421.99829
94486.13552
94550.3207
94614.54785
94678.81426
94743.1162
94807.45033
94871.81393
94936.20434
95000.61903
95065.05567
95129.51264
95193.98876
95258.48224
95322.9926
95387.51858
95452.06018
95516.61697
95581.18877
95645.77591
95710.37858
95774.99735
95839.63249
95904.28516
95968.95588
96033.64595
96098.35538
96163.08546
96227.83704
96292.61076
96357.40725
96422.22743
96487.07145
96551.93968
96616.83201
96681.74839
96746.68891
96811.65298
96876.64028
96941.64973
97006.67985
97071.72924
97136.79677
97201.88005
97266.97735
97332.08621
97397.20387
97462.32763
97527.45471
97592.5817
97657.70565
97722.82283
97787.92967
97853.02257
97918.0974
97983.151
98048.17879
98113.17705
98178.14147
98243.06826
98307.95316
98372.79197
98437.58073
98502.31524
98566.99216
98631.60707
98696.15652
98760.63631
98825.04329
98889.37384
98953.62483
99017.79304
99081.87516
99145.86855
99209.77023
99273.57781
99337.28899
99400.90109
99464.4122
99527.82036
99591.12355
99654.32034
99717.40916
99780.38859
99843.25765
99906.01539
99968.66063
100031.1927
100093.6108
100155.9146
100218.1033
100280.177
100342.1353
100403.9787
100465.7057
100527.3169
100588.8118
100650.1948
100711.4645
100772.6169
100833.6561
100894.582
100955.396
101016.0981
101076.6891
101137.1682
101197.5378
101257.8021
101317.9565
101378.0034
101437.9441
101497.7805
101557.5118
101617.1403
101676.6658
101736.0919
101795.4162
101854.6436
101913.7694
101972.8
102031.7378
102090.5778
102149.3238
102207.978
102266.5415
102325.0129
102383.3967
102441.6919
102499.8986
102558.0206
102616.0577
102674.0116
102731.8824
102789.6717
102847.3805
102905.0104
102962.562
103020.0366
103077.4354
103134.759
103192.0089
103249.1863
103306.2919
103363.3266
103420.2915
103477.188
103534.017
103590.779
103647.4752
103704.1067
103760.6741
103817.1786
103873.621
103930.002
103986.3223
104042.5832
104098.7853
104154.9269
104211.0121
104267.0442
104323.0182
104378.9373
104434.7991
104490.6092
104546.3665
104602.0683
104657.718
104713.3155
104768.8613
104824.3556
104879.7987
104935.1913
104990.5335
105045.8259
105101.0687
105156.2614
105211.4048
105266.498
105321.542
105376.5367
105431.482
105486.3778
105541.2241
105596.0211
105650.7682
105705.4657
105760.1132
105814.7109
105869.2579
105923.7548
105978.2005
106032.5913
106086.9314
106141.2259
106195.4679
106249.6542
106303.7884
106357.8696
106411.8974
106465.8719
106519.7928
106573.6595
106627.4717
106681.2296
106734.9322
106788.5795
106842.1706
106895.7066
106949.1874
107002.6111
107055.9774
107109.2865
107162.5377
107215.7305
107268.8644
107321.939
107374.9536
107427.9078
107480.8007
107533.6321
107586.401
107639.1066
107691.7479
107744.3241
107796.8339
107849.2759
107901.6485
107953.9502
108006.1792
108058.3331
108110.4099
108162.4069
108214.321
108266.1495
108317.8886
108369.5345
108421.0838
108472.531
108523.8712
108575.1001
108626.2114
108677.197
108728.0483
108778.7705
108829.337
108879.7542
108930.0139
108980.0989
109030.0032
109079.7174
109129.2328
109178.5361
109227.601
109276.4293
109325.022
109373.3361
109421.3787
109469.1367
109516.5798
109563.6831
109610.4461
109656.8601
109702.8977
109748.5414
109793.7705
109838.5742
109882.9325
109926.8248
109970.2363
110013.1438
110055.5298
110097.3809
110138.6578
110179.3599
110219.4817
110258.9857
110297.8352
110336.0121
110373.5625
110410.416
110446.5477
110481.9721
110516.6842
110550.6469
110583.8236
110616.2288
110647.8472
110678.6761
110708.692
110737.8851
110766.2582
110793.7986
110820.4974
110846.3466
110871.3412
110895.4814
110918.7704
110941.2058
110962.7764
110983.4796
111003.3261
111022.3315
111040.4865
111057.7757
111074.2225
111089.8596
111104.7193
111118.7834
111132.0429
111144.521
111156.2102
111167.1619
111177.3726
111186.8483
111195.6128
111203.6807
111211.0625
111217.7742
111223.8353
111229.2584
111234.0655
111238.2758
111241.9034
111244.9754
111247.5174
111249.5087
111250.9956
111251.9724
111252.4699
111252.5178
111252.1212
111251.2913
111250.0354
111248.3689
111246.3245
111243.9094
111241.1385
111238.023
111234.5481
111230.7626
111226.6708
111222.2768
111217.5932
111212.6185
111207.3714
111201.8571
111196.0835
111190.0496
111183.7688
111177.2414
111170.4595
111163.4385
111156.1868
111148.6996
111140.9811
111133.0176
111124.8257
111116.4059
111107.7387
111098.8291
111089.6885
111080.3062
111070.6714
111060.8028
111050.6675
111040.2803
111029.6266
111018.7073
111007.5253
110996.062
110984.3098
110972.2678
110959.94
110947.3016
110934.346
110921.0753
110907.4834
110893.5506
110879.2912
110864.6885
110849.7224
110834.4011
110818.6998
110802.6204
110786.1516
110769.2978
110752.05
110734.391
110716.3049
110697.7993
110678.8579
110659.473
110639.6345
110619.3638
110598.6307
110577.4167
110555.7329
110533.5918
110510.9562
110487.8238
110464.197
110440.0936
110415.4875
110390.3779
110364.7619
110338.6586
110312.0358
110284.898
110257.2657
110229.1259
110200.4705
110171.33
110141.6939
110111.5729
110080.953
110049.8727
110018.3065
109986.2916
109953.8244
109920.9149
109887.5712
109853.8219
109819.6859
109785.1657
109750.278
109715.0409
109679.4726
109643.5932
109607.4337
109571.0076
109534.3457
109497.4755
109460.4083
109423.1876
109385.836
109348.3827
109310.8602
109273.2883
109235.7129
109198.1517
109160.6607
109123.257
109085.9745
109048.8464
109011.909
108975.205
108938.7675
108902.6201
108866.8001
108831.3615
108796.3198
108761.7023
108727.5555
108693.9041
108660.8077
108628.2624
108596.3302
108565.0194
108534.3681
108504.4137
108475.174
108446.6715
108418.9259
108391.9942
108365.8775
108340.5918
108316.1607
108292.6183
108269.9565
108248.2215
108227.3995
108207.4961
108188.541
108170.5584
108153.5363
108137.4562
108122.3833
108108.2518
108095.099
108082.9282
108071.7061
108061.4578
108052.1653
108043.8239
108036.3908
108029.9127
108024.3554
108019.6965
108015.9242
108013.0216
108010.9613
108009.7122
108009.2363
108009.5504
108010.6215
108012.4476
108014.9993
108018.2615
108022.1955
108026.788
108032.0179
108037.8491
108044.2611
108051.2357
108058.7224
108066.7199
108075.1923
108084.1109
108093.458
108103.1968
108113.313
108123.7778
108134.5703
108145.6621
108157.0354
108168.6575
108180.5232
108192.5956
108204.8612
108217.2967
108229.8848
108242.604
108255.4353
108268.3628
108281.3689
108294.4377
108307.5547
108320.6999
108333.8578
108347.0155
108360.1601
108373.2763
108386.3494
108399.3697
108412.325
108425.1984
108437.979
108450.6586
108463.2195
108475.6589
108487.964
108500.1206
108512.1183
108523.9324
108535.5449
108546.9677
108558.1901
108569.1723
108579.9067
108590.3899
108600.6044
108610.536
108620.1663
108629.4817
108638.4616
108647.0807
108655.3127
108663.1723
108670.6279
108677.6533
108684.2004
108690.2527
108695.8107
108700.834
108705.326
108709.2417
108712.5593
108715.2578
108717.3204
108718.7103
108719.3372
108719.2299
108718.3821
108716.689
108714.1562
108710.7668
108706.4721
108701.2159
108694.9754
108687.6928
108679.402
108670.0366
108659.5484
108647.8943
108635.0658
108620.991
108605.6686
108589.0934
108571.2043
108551.9291
108531.2293
108509.1593
108485.6174
108460.5204
108433.9271
108405.7861
108376.0432
108344.6942
108311.7025
108276.9571
108240.5526
108202.4124
108162.4376
108120.6427
108077.0015
108031.545
107984.2412
107935.0079
107883.8183
107830.6619
107775.5618
107718.4712
107659.3816
107598.2043
107534.9445
107469.6742
107402.3292
107332.8696
107261.2834
107187.6149
107111.7668
107033.7619
106953.6087
106871.3232
106786.8317
106700.1621
106611.248
106520.1968
106426.9788
106331.5186
106233.7988
106133.8963
106031.8199
105927.5347
105821.061
105712.3494
105601.4466
105488.3651
105373.0259
105255.5529
105135.8386
105013.9921
104889.9615
104763.6702
104635.2852
104504.7833
104372.0837
104237.2801
104100.2799
103961.1977
103820.0185
103676.737
103531.3593
103383.9006
103234.3859
103082.8487
102929.301
102773.6409
102615.9503
102456.2752
102294.5524
102130.9119
101965.3464
101797.8215
101628.3589
101456.9515
101283.6731
101108.4812
100931.4348
100752.531
100571.7684
100389.216
100204.884
100018.7557
99830.84448
99641.16917
99449.75856
99256.63093
99061.84266
98865.38148
98667.24524
98467.45398
98266.05856
98063.08509
97858.51385
97652.38036
97444.7333
97235.59875
97024.9847
96812.91175
96599.413
96384.51284
96168.21219
95950.55439
95731.56368
95511.2638
95289.68115
95066.83684
94842.76403
94617.50794
94391.08184
94163.51435
93934.84623
93705.11689
93474.33442
93242.54141
93009.77915
92776.04822
92541.40865
92305.91642
92069.56126
91832.40326
91594.48919
91355.82911
91116.47707
90876.456
90635.80135
90394.57342
90152.81619
89910.55219
89667.82352
89424.67742
89181.14966
88937.27947
88693.12303
88448.71681
88204.09898
87959.32023
87714.43332
87469.47798
87224.48987
86979.52476
86734.62365
86489.84787
86245.23734
86000.82875
85756.67814
85512.84045
85269.33547
85026.23506
84783.58569
84541.43229
84299.84435
84058.82996
83818.46128
83578.7859
83339.85273
83101.71853
82864.41961
82628.00234
82392.52821
82158.02158
81924.58311
81692.23208
81461.01278
81230.94568
81002.17643
80774.68003
80548.4943
80323.70365
80100.34326
79878.48602
79658.14923
79439.37879
79222.263
79006.81045
78793.03194
78581.04198
78370.8422
78162.47988
77956.05852
77751.57689
77549.06951
77348.57854
77150.13757
76953.78523
76759.62145
76567.5993
76377.80088
76190.33984
76005.0816
75822.11111
75641.52607
75463.34867
75287.60779
75114.22106
74943.35424
74774.94583
74609.03745
74445.74527
74284.94212
74126.66252
73971.01211
73817.99817
73667.58329
73519.76137
73374.56195
73232.09212
73092.19543
72954.93182
72820.38989
72688.43586
72559.10022
72432.42168
72308.41717
72186.97493
72068.09815
71951.87036
71838.20962
71727.04036
71618.47507
71512.37579
71408.76239
71307.51126
71208.66186
71112.23066
71018.15261
70926.32254
70836.7855
70749.46864
70664.28386
70581.30846
70500.3442
70421.40208
70344.38376
70269.30698
70196.11084
70124.67284
70055.03418
69987.04869
69920.66152
69855.84665
69792.5411
69730.6424
69670.09055
69610.84785
69552.84908
69495.98365
69440.19214
69385.45258
69331.67572
69278.76372
69226.6749
69175.31987
69124.63792
69074.57949
69025.06512
68976.03596
68927.40429
68879.12421
68831.13578
68783.37142
68735.77587
68688.29081
68640.85865
68593.42226
68545.93607
68498.35345
68450.62019
68402.68234
68354.50243
68306.04483
68257.27795
68208.15046
68158.63122
68108.70421
68058.34185
68007.51548
67956.21456
67904.41144
67852.10902
67799.30613
67745.99408
67692.16757
67637.83855
67583.01004
67527.70468
67471.92817
67415.71837
67359.08906
67302.06593
67244.7034
67187.0374
67129.10223
67070.9532
67012.65505
66954.25357
66895.79528
66837.3751
66779.04945
66720.90055
66662.97349
66605.35381
66548.13519
66491.38329
66435.22705
66379.72787
66324.95754
66271.04027
66218.06645
66166.14991
66115.38896
66065.899
66017.82306
65971.23826
65926.26278
65882.98549
65841.51012
65801.96289
65764.49123
65729.16641
65696.14312
65665.64392
65637.78231
65612.4498
65589.88281
65570.18289
65553.52955
65540.0077
65529.81617
65522.99921
65519.58399
65519.92399
65523.98725
65532.06872
65544.26974
65560.70566
65581.23011
65606.25255
65635.53076
65669.30835
65707.85419
65751.25011
65799.61876
65853.08723
65911.87901
65975.84291
66045.11254
66119.88539
66200.41486
66286.42299
66378.13918
66475.65478
66579.23995
66688.71064
66804.21113
66926.03259
67054.03181
67188.21159
67328.71469
67475.69798
67629.05095
67789.03265
67955.43936
68128.27074
68308.12717
68494.48641
68687.34478
68887.4127
69093.98091
69307.16513
69527.29707
69754.17279
69987.79759
70228.40311
70475.75715
70729.93778
70991.03901
71258.66368
71533.07903
71814.43384
72102.5511
72397.38805
72698.72727
73006.62456
73321.27171
73642.35183
73970.09514
74304.43241
74645.0465
74992.02243
75345.28567
75704.77094
76070.39707
76442.12581
76819.99825
77203.71079
77593.25277
77988.66992
78389.75009
78796.48649
79208.66829
79626.32296
80049.21557
80477.46873
80910.84126
81349.23926
81792.52831
82240.5769
82693.31983
83150.69075
83612.46193
84078.5187
84548.77657
85023.17318
85501.46297
85983.57932
86469.42496
86958.89836
87451.70117
87947.68956
88446.88122
88949.12186
89454.23902
89962.01128
90472.29093
90985.07803
91500.05626
92017.20306
92536.27962
93057.14165
93579.65458
94103.67296
94629.04352
95155.59513
95683.2102
96211.71225
96740.90568
97270.65441
97800.81615
98331.21008
98861.65841
99391.98266
99922.05503
100451.7437
100980.8548
101509.2623
102036.8071
102563.3046
103088.596
103612.5535
104135.0194
104655.8756
105174.9343
105692.0661
106206.9882
106719.839
107230.2077
107738.0838
108243.294
108745.6389
109245.0543
109741.4255
110234.5894
110724.2598
111210.5464
111693.2143
112172.0746
112647.0366
113117.98
113584.7532
114047.3293
114505.5394
114959.2374
115408.3056
115852.6663
116292.2625
116726.8028
117156.3293
117580.756
117999.8651
118413.6746
118822.017
119224.84
119622.0192
120013.3594
120399.1719
120779.0261
121152.7816
121520.6861
121882.4825
122238.0651
122587.2187
122930.3476
123266.9569
123597.1855
123920.8855
124237.923
124548.5512
124852.5687
125149.8991
125440.5877
125724.4068
126001.4008
126271.5421
126534.9614
126791.4747
127041.2104
127284.0112
127519.6999
127748.5497
127970.506
128185.4777
128393.4101
128594.4944
128788.4961
128975.5608
129155.5881
129328.7448
129495.0666
129654.3932
129806.8975
129952.4559
130091.1542
130223.0683
130348.051
130466.3497
130577.9186
130682.7729
130780.9931
130872.4013
130957.3665
131035.8862
131107.8088
131173.3445
131232.395
131285.1419
131331.7309
131372.1773
131406.5406
131434.8325
131456.9562
131473.2699
131483.8559
131488.6122
131487.7336
131481.2985
131469.1743
131451.5913
131428.5217
131400.0031
131366.0699
131326.7888
131282.2423
131232.5715
131177.8451
131118.0084
131053.1624
130983.3299
130908.8198
130829.6697
130745.8934
130657.5838
130564.8379
130467.743
130366.3852
130260.8557
130151.2445
130037.6409
129920.1353
129798.8181
129673.7809
129545.1153
129412.9136
129277.2685
129138.2722
128996.0176
128850.5972
128702.105
128550.6427
128396.293
128239.1774
128079.3524
127916.814
127751.7583
127584.3345
127414.5552
127242.5088
127068.2884
126891.9538
126713.678
126533.5535
126351.5462
126167.8078
125982.4466
125795.5495
125607.1527
125417.3481
125226.2623
125033.9697
124840.5212
124645.9978
124450.4766
124254.0912
124056.8594
123858.8575
123660.176
123460.9046
123261.0979
123060.8354
122860.198
122659.243
122458.0365
122256.65
122055.1495
121853.6039
121652.0771
121450.6379
121249.3413
121048.2531
120847.4286
120646.9197
120446.7778
120247.064
120047.8321
119849.1416
119651.0199
119453.5382
119256.7231
119060.6546
118865.3655
118670.8781
118477.2428
118284.4906
118092.6904
117901.8799
117712.0736
117523.3216
117335.6659
117149.1168
116963.7389
116779.5241
116596.527
116414.7837
116234.3384
116055.1886
115877.3568
115700.8934
115525.8095
115352.0871
115179.8153
115008.9701
114839.575
114671.6765
114505.2769
114340.4043
114177.0305
114015.1837
113854.8932
113696.1793
113539.0588
113383.5049
113229.5781
113077.2539
112926.5065
112777.3971
112629.9171
112484.0819
112339.8743
112197.2846
112056.3464
111917.0662
111779.3939
111643.3466
111508.9824
111376.2473
111245.1613
111115.7149
110987.8785
110861.7256
110737.1816
110614.2378
110492.9009
110373.1551
110255.0513
110138.5442
110023.6306
109910.2782
109798.5115
109688.2924
109579.6264
109472.504
109366.904
109262.8262
109160.2812
109059.2043
108959.6304
108861.5343
108764.874
108669.6792
108575.9023
108483.5826
108392.6582
108303.0955
108214.9756
108128.1872
108042.7482
107958.6673
107875.8754
107794.4131
107714.2373
107635.3375
107557.6985
107481.3071
107406.1374
107332.1706
107259.4487
107187.8828
107117.4739
107048.2162
106980.1132
106913.1025
106847.2077
106782.4041
106718.6689
106655.9821
106594.3313
106533.7309
106474.0948
106415.4591
106357.8058
106301.1364
106245.3812
106190.5441
106136.6323
106083.6228
106031.491
105980.2327
105929.8067
105880.2186
105831.4668
105783.5093
105736.3487
105689.9583
105644.334
105599.4569
105555.3081
105511.8815
105469.1645
105427.1444
105385.7936
105345.1208
105305.0785
105265.688
105226.9373
105188.7823
105151.2406
105114.2958
105077.9051
105042.0874
105006.8339
104972.1213
104937.939
104904.2761
104871.1217
104838.4737
104806.3057
104774.6048
104743.3885
104712.6147
104682.2875
104652.3968
104622.9368
104593.9002
104565.2706
104537.0391
104509.199
104481.7459
104454.6597
104427.9439
104401.5998
104375.599
104349.9259
104324.5928
104299.5708
104274.8705
104250.48
104226.3902
104202.6068
104179.1155
104155.9021
104132.9691
104110.3029
104087.905
104065.767
104043.8811
104022.239
104000.838
103979.6718
103958.7361
103938.0223
103917.5259
103897.2472
103877.1817
103857.3214
103837.6565
103818.1877
103798.9179
103779.8289
103760.9237
103742.2009
103723.6515
103705.2725
103687.0558
103669.0048
103651.1154
103633.3822
103615.8013
103598.3724
103581.0871
103563.9448
103546.9436
103530.0806
103513.3534
103496.7557
103480.2856
103463.9424
103447.7225
103431.6217
103415.6392
103399.7768
103384.0267
103368.3874
103352.8595
103337.438
103322.1195
103306.9031
103291.7875
103276.7702
103261.8497
103247.0256
103232.2931
103217.6523
103203.1019
103188.6387
103174.2625
103159.97
103145.7597
103131.6308
103117.5819
103103.6113
103089.7174
103075.8986
103062.154
103048.4815
103034.8797
103021.3477
103007.8848
102994.4896
102981.1598
102967.8943
102954.6927
102941.554
102928.4764
102915.458
102902.4989
102889.5973
102876.7524
102863.9635
102851.229
102838.548
102825.9192
102813.3413
102800.8135
102788.3365
102775.9074
102763.5261
102751.1919
102738.903
102726.6583
102714.4581
102702.3007
102690.1855
102678.1114
102666.0775
102654.0833
102642.1278
102630.2101
102618.3294
102606.4849
102594.6751
102582.8998
102571.1596
102559.4526
102547.7778
102536.1343
102524.5216
102512.9387
102501.3853
102489.861
102478.3645
102466.8954
102455.4528
102444.0364
102432.6449
102421.2774
102409.9347
102398.6157
102387.3192
102376.0448
102364.7913
102353.5592
102342.3475
102331.1553
102319.9825
102308.829
102297.693
102286.5743
102275.4725
102264.3872
102253.3181
102242.2641
102231.2255
102220.2012
102209.1908
102198.1938
102187.2096
102176.2382
102165.2791
102154.3319
102143.3955
102132.4704
102121.5556
102110.6509
102099.7559
102088.8705
102077.994
102067.1256
102056.266
102045.4144
102034.5703
102023.7333
102012.9034
102002.0802
101991.2633
101980.4525
101969.6475
101958.8479
101948.0535
101937.2639
101926.479
101915.6987
101904.9226
101894.1507
101883.3825
101872.6178
101861.8564
101851.0981
101840.3429
101829.5904
101818.8404
101808.093
101797.3476
101786.6043
101775.863
101765.1233
101754.3853
101743.6489
101732.9137
101722.1796
101711.4464
101700.7145
101689.9835
101679.2532
101668.5235
101657.7943
101647.0655
101636.337
101625.609
101614.8808
101604.1528
101593.4245
101582.6961
101571.9676
101561.239
101550.5099
101539.7803
101529.0503
101518.3197
101507.5886
101496.8572
101486.1249
101475.3919
101464.658
101453.9231
101443.1877
101432.4515
101421.7142
101410.9758
101400.2365
101389.496
101378.7544
101368.0117
101357.268
101346.5229
101335.7767
101325.0293
101314.2806
101303.5308
101292.7798
101282.0274
101271.2738
101260.519
101249.763
101239.0053
101228.2465
101217.4864
101206.7249
101195.9622
101185.1982
101174.433
101163.6664
101152.8986
101142.1296
101131.3594
101120.588
101109.8153
101099.0414
101088.2665
101077.4904
101066.7132
101055.9351
101045.1559
101034.3757
101023.5948
101012.8131
101002.0304
100991.247
100980.4629
100969.6779
100958.8923
100948.1063
100937.32
100926.5331
100915.746
100904.9585
100894.1709
100883.3832
100872.5956
100861.8083
100851.0213
100840.2344
100829.4481
100818.6624
100807.8772
100797.0927
100786.3094
100775.5271
100764.7459
100753.9661
100743.1876
100732.4107
100721.6356
100710.8624
100700.091
100689.3219
100678.5547
100667.7904
100657.0288
100646.2698
100635.5138
100624.7608
100614.0113
100603.2652
100592.5227
100581.7842
100571.0495
100560.3191
100549.593
100538.8715
100528.1545
100517.4426
100506.7356
100496.034
100485.338
100474.6476
100463.9628
100453.2839
100442.6114
100431.9451
100421.2854
100410.6327
100399.9866
100389.3475
100378.7158
100368.0915
100357.4749
100346.8661
100336.2651
100325.6718
100315.0869
100304.5106
100293.9428
100283.3838
100272.8334
100262.2919
100251.7597
100241.237
100230.7232
100220.2191
100209.7245
100199.2397
100188.7647
100178.2992
100167.8441
100157.3988
100146.9639
100136.539
100126.1243
100115.7199
100105.3261
100094.9427
100084.5694
100074.2068
100063.8546
100053.513
100043.1816
100032.8608
100022.5505
100012.2508
100001.9617
99991.68282
99981.41448
99971.15617
99960.90819
99950.67041
99940.44234
99930.22489
99920.0172
99909.81928
99899.63107
99889.45233
99879.28316
99869.12341
99858.97305
99848.83173
99838.6994
99828.57588
99818.46084
99808.35433
99798.25641
99788.16652
99778.08427
99768.01007
99757.94342
99747.88421
99737.83223
99727.78715
99717.74847
99707.71655
99697.691
99687.67168
99677.65812
99667.65021
99657.64773
99647.6501
99637.65739
99627.66987
99617.68668
99607.70773
99597.73277
99587.76166
99577.79406
99567.82942
99557.8677
99547.9091
99537.95297
99527.99922
99518.04766
99508.09791
99498.14964
99488.20284
99478.25723
99468.31256
99458.36851
99448.42528
99438.48235
99428.53957
99418.59666
99408.65363
99398.71018
99388.76605
99378.82108
99368.87522
99358.92839
99348.98049
99339.03095
99329.08014
99319.12763
99309.17349
99299.2175
99289.25954
99279.29957
99269.33753
99259.37306
99249.4066
99239.43774
99229.46651
99219.49309
99209.5172
99199.53876
99189.55751
99179.57419
99169.58825
99159.60025
99149.60991
99139.61713
99129.62227
99119.62538
99109.62642
99099.62525
99089.6222
99079.61739
99069.61082
99059.60293
99049.59382
99039.58355
99029.57239
99019.56044
99009.54805
98999.53507
98989.52202
98979.50924
98969.49681
98959.48471
98949.47362
98939.46365
98929.45546
98919.449
98909.44447
98899.44246
98889.44323
98879.44689
98869.45402
98859.46524
98849.48037
98839.50004
98829.52457
98819.55438
98809.58969
98799.63109
98789.67913
98779.73388
98769.79601
98759.86572
98749.94369
98740.03027
98730.12558
98720.23018
98710.34461
98700.46946
98690.60491
98680.75105
98670.90898
98661.0788
98651.26097
98641.45583
98631.66413
98621.88603
98612.12157
98602.3719
98592.63715
98582.91765
98573.21389
98563.52614
98553.85502
98544.20064
98534.56356
98524.94407
98515.3427
98505.75988
98496.19577
98486.65065
98477.12515
98467.61999
98458.13455
98448.66956
98439.22552
98429.80315
98420.4025
98411.02301
98401.66528
98392.32996
98383.01768
98373.7277
98364.46063
98355.2179
98345.9982
98336.80173
98327.62925
98318.48149
98309.35825