/*--------------------------------*- C++ -*----------------------------------*\
| =========                 |                                                 |
| \\      /  F ield         | OpenFOAM: The Open Source CFD Toolbox           |
|  \\    /   O peration     | Version:  2312                                  |
|   \\  /    A nd           | Website:  www.openfoam.com                      |
|    \\/     M anipulation  |                                                 |
\*---------------------------------------------------------------------------*/
FoamFile
{
    version     2.0;
    format      ascii;
    arch        "LSB;label=32;scalar=64";
    class       surfaceScalarField;
    location    "0.005";
    object      phi;
}
// * * * * * * * * * * * * * * * * * * * * * * * * * * * * * * * * * * * * * //

dimensions      [1 0 -1 0 0 0 0];

oriented        oriented;

internalField   nonuniform List<scalar> 
7999
(
3.995914296
3.996029069
3.996066897
3.996105955
3.996117383
3.99612203
3.996115359
3.996098663
3.996075257
3.996049188
3.996023764
3.996000986
3.995981716
3.995966042
3.995953703
3.995944401
3.99593798
3.9959344
3.995933809
3.995936407
3.995942385
3.995951744
3.995964175
3.995979063
3.995995528
3.99601247
3.996028722
3.996043188
3.996055014
3.996063652
3.996068843
3.996070779
3.996069768
3.99606629
3.996060906
3.996054292
3.996047131
3.99604002
3.99603343
3.996027699
3.996023036
3.996019539
3.996017214
3.996015957
3.996015672
3.996016196
3.996017399
3.996019155
3.996021361
3.99602394
3.996026855
3.996030096
3.996033684
3.996037652
3.996042033
3.996046852
3.996052113
3.996057795
3.996063846
3.996070184
3.9960767
3.99608326
3.996089721
3.99609594
3.996101772
3.9961071
3.996111836
3.996115915
3.996119306
3.996122009
3.996124054
3.996125493
3.996126403
3.996126864
3.996126973
3.996126837
3.99612653
3.996126138
3.996125749
3.996125413
3.996125192
3.996125118
3.996125224
3.996125524
3.996126037
3.996126767
3.996127707
3.996128847
3.996130174
3.99613167
3.996133315
3.996135088
3.996136966
3.996138925
3.996140943
3.996142998
3.996145066
3.996147125
3.996149153
3.996151128
3.99615303
3.996154839
3.996156535
3.996158096
3.99615951
3.996160754
3.996161812
3.996162669
3.996163312
3.996163722
3.996163886
3.996163813
3.996163489
3.996162903
3.996162051
3.996160934
3.996159552
3.996157914
3.996156031
3.996153923
3.996151612
3.996149127
3.996146502
3.996143776
3.996140994
3.996138204
3.996135455
3.996132794
3.996130266
3.996127917
3.996125784
3.996123901
3.996122293
3.996120979
3.996119965
3.996119246
3.996118802
3.996118615
3.996118632
3.996118826
3.99611912
3.996119463
3.996119769
3.996119942
3.996119928
3.99611964
3.996119002
3.996117929
3.99611636
3.996114234
3.99611151
3.996108153
3.996104152
3.996099533
3.996094337
3.996088609
3.996082431
3.996075907
3.996069163
3.99606235
3.996055632
3.996049176
3.996043162
3.99603777
3.996033189
3.99602961
3.996027207
3.9960261
3.996026435
3.996028324
3.996031937
3.996037413
3.996044837
3.996054284
3.996065809
3.996079442
3.99609519
3.996113091
3.996133174
3.996155391
3.996179708
3.996205978
3.996234091
3.996263944
3.996295395
3.996328282
3.996362436
3.996397678
3.996433822
3.99647068
3.996508058
3.996545767
3.99658361
3.996621396
3.996658951
3.99669611
3.996732717
3.996768628
3.99680371
3.996837842
3.996870912
3.996902819
3.996933466
3.996962814
3.996990782
3.997017303
3.99704235
3.997065891
3.997087902
3.997108401
3.997127375
3.997144829
3.997160783
3.997175215
3.997188125
3.99719956
3.997209535
3.997218111
3.997225328
3.99723124
3.997235907
3.997239388
3.997241747
3.99724303
3.997243359
3.997242782
3.99724136
3.997239132
3.997236172
3.997232543
3.997228314
3.997223552
3.997218328
3.99721271
3.997206768
3.997200571
3.997194188
3.997187687
3.997181138
3.997174607
3.997168157
3.997161848
3.997155735
3.997149874
3.997144315
3.997139106
3.997134291
3.997129911
3.997126
3.997122592
3.997119711
3.997117382
3.997115624
3.997114444
3.997113841
3.997113819
3.997114369
3.997115493
3.997117192
3.997119452
3.997122255
3.99712558
3.997129408
3.997133711
3.997138457
3.997143621
3.997149176
3.997155089
3.997161331
3.997167872
3.997174683
3.997181735
3.997189001
3.997196457
3.997204079
3.997211844
3.997219734
3.997227731
3.99723582
3.997243988
3.997252223
3.997260516
3.997268861
3.997277253
3.997285689
3.997294166
3.997302684
3.997311244
3.997319848
3.997328498
3.997337197
3.997345949
3.997354757
3.997363627
3.997372561
3.997381565
3.997390641
3.997399793
3.997409024
3.997418337
3.997427735
3.997437218
3.997446788
3.997456444
3.997466188
3.99747602
3.997485939
3.997495943
3.997506031
3.9975162
3.99752645
3.997536778
3.997547183
3.997557661
3.99756821
3.997578829
3.997589516
3.99760027
3.997611088
3.997621971
3.997632918
3.99764393
3.997655006
3.997666149
3.99767736
3.997688642
3.997699998
3.997711431
3.997722947
3.99773455
3.997746247
3.997758042
3.997769943
3.997781956
3.997794088
3.997806347
3.997818741
3.997831275
3.997843957
3.997856791
3.997869788
3.99788296
3.99789632
3.997909874
3.997923624
3.997937582
3.997951751
3.997966137
3.997980744
3.997995573
3.998010626
3.998025904
3.998041405
3.998057127
3.998073067
3.998089215
3.998105568
3.998122118
3.998138852
3.998155765
3.99817284
3.998190065
3.998207426
3.998224908
3.998242495
3.99826017
3.998277918
3.99829572
3.99831356
3.998331419
3.998349281
3.998367129
3.998384947
3.99840272
3.998420436
3.99843808
3.998455642
3.998473111
3.998490478
3.998507736
3.998524878
3.998541899
3.998558796
3.998575566
3.998592209
3.998608725
3.998625115
3.998641383
3.998657532
3.998673568
3.998689497
3.998705324
3.998721057
3.998736706
3.998752279
3.998767785
3.998783233
3.998798633
3.998813994
3.998829327
3.998844642
3.998859949
3.998875258
3.998890578
3.998905917
3.998921286
3.998936693
3.998952145
3.99896765
3.998983215
3.998998846
3.999014549
3.99903033
3.999046192
3.99906214
3.999078177
3.999094306
3.999110529
3.99912685
3.999143269
3.999159785
3.999176402
3.999193119
3.999209935
3.999226852
3.999243867
3.99926098
3.999278191
3.999295498
3.999312899
3.999330395
3.999347982
3.999365659
3.999383426
3.99940128
3.99941922
3.999437244
3.999455351
3.999473539
3.999491807
3.999510154
3.999528578
3.999547078
3.999565653
3.999584302
3.999603024
3.999621817
3.999640682
3.999659617
3.999678621
3.999697694
3.999716835
3.999736044
3.999755319
3.999774662
3.999794071
3.999813546
3.999833087
3.999852693
3.999872365
3.999892101
3.999911903
3.999931769
3.999951699
3.999971695
3.999991754
4.000011878
4.000032066
4.000052319
4.000072636
4.000093017
4.000113462
4.000133972
4.000154546
4.000175184
4.000195885
4.000216651
4.000237481
4.000258375
4.000279332
4.000300353
4.000321438
4.000342587
4.000363799
4.000385074
4.000406413
4.000427816
4.000449281
4.000470809
4.0004924
4.000514054
4.00053577
4.000557549
4.00057939
4.000601293
4.000623257
4.000645283
4.00066737
4.000689518
4.000711727
4.000733996
4.000756325
4.000778713
4.000801161
4.000823668
4.000846234
4.000868857
4.000891539
4.000914278
4.000937073
4.000959925
4.000982833
4.001005796
4.001028814
4.001051886
4.001075012
4.00109819
4.001121421
4.001144703
4.001168036
4.001191418
4.00121485
4.00123833
4.001261857
4.00128543
4.001309049
4.001332711
4.001356417
4.001380165
4.001403954
4.001427782
4.001451649
4.001475552
4.001499491
4.001523464
4.001547469
4.001571506
4.001595573
4.001619668
4.001643789
4.001667935
4.001692104
4.001716295
4.001740505
4.001764733
4.001788978
4.001813237
4.001837509
4.001861792
4.001886085
4.001910385
4.001934691
4.001959001
4.001983315
4.002007629
4.002031943
4.002056255
4.002080564
4.002104869
4.002129167
4.002153458
4.002177741
4.002202015
4.002226279
4.002250531
4.002274771
4.002298999
4.002323213
4.002347413
4.002371598
4.002395768
4.002419923
4.002444061
4.002468184
4.00249229
4.00251638
4.002540452
4.002564508
4.002588547
4.002612569
4.002636574
4.002660561
4.002684531
4.002708484
4.00273242
4.002756338
4.002780239
4.002804122
4.002827987
4.002851834
4.002875663
4.002899473
4.002923264
4.002947035
4.002970786
4.002994517
4.003018226
4.003041914
4.003065578
4.003089219
4.003112835
4.003136426
4.00315999
4.003183527
4.003207035
4.003230512
4.003253959
4.003277373
4.003300753
4.003324098
4.003347407
4.003370678
4.003393909
4.003417101
4.00344025
4.003463355
4.003486416
4.003509431
4.003532398
4.003555316
4.003578184
4.003601001
4.003623765
4.003646474
4.003669128
4.003691726
4.003714267
4.003736748
4.00375917
4.003781532
4.003803831
4.003826069
4.003848243
4.003870353
4.003892398
4.003914377
4.003936291
4.003958137
4.003979917
4.004001628
4.004023271
4.004044846
4.004066351
4.004087788
4.004109155
4.004130452
4.004151679
4.004172835
4.004193922
4.004214938
4.004235884
4.004256759
4.004277564
4.004298299
4.004318963
4.004339556
4.00436008
4.004380533
4.004400917
4.00442123
4.004441474
4.00446165
4.004481755
4.004501791
4.004521759
4.004541659
4.00456149
4.004581253
4.004600948
4.004620576
4.004640137
4.00465963
4.004679058
4.004698419
4.004717714
4.004736945
4.004756109
4.004775209
4.004794244
4.004813216
4.004832123
4.004850967
4.004869748
4.004888466
4.004907122
4.004925717
4.004944249
4.004962721
4.004981131
4.004999481
4.005017771
4.005036001
4.005054172
4.005072284
4.005090337
4.005108332
4.005126269
4.005144148
4.005161971
4.005179736
4.005197445
4.005215097
4.005232694
4.005250235
4.005267721
4.005285153
4.005302529
4.005319851
4.005337119
4.005354334
4.005371495
4.005388603
4.005405658
4.005422661
4.005439612
4.005456509
4.005473355
4.005490149
4.005506892
4.005523583
4.005540223
4.005556813
4.005573351
4.005589839
4.005606276
4.005622662
4.005638998
4.005655284
4.00567152
4.005687706
4.005703841
4.005719926
4.005735962
4.005751947
4.005767882
4.005783767
4.005799603
4.005815388
4.005831123
4.005846809
4.005862444
4.005878029
4.005893563
4.005909048
4.005924482
4.005939865
4.005955198
4.005970481
4.005985712
4.006000893
4.006016022
4.006031101
4.006046128
4.006061103
4.006076027
4.006090899
4.00610572
4.006120488
4.006135204
4.006149867
4.006164478
4.006179037
4.006193542
4.006207994
4.006222393
4.006236739
4.006251031
4.006265269
4.006279453
4.006293584
4.006307659
4.006321681
4.006335647
4.006349559
4.006363415
4.006377216
4.006390961
4.00640465
4.006418282
4.006431857
4.006445374
4.006458833
4.006472234
4.006485576
4.006498858
4.006512079
4.006525239
4.006538337
4.006551372
4.006564344
4.00657725
4.006590089
4.006602862
4.006615566
4.006628199
4.006640761
4.006653249
4.006665662
4.006677998
4.006690253
4.006702427
4.006714517
4.00672652
4.006738434
4.006750256
4.006761982
4.006773608
4.006785134
4.006796553
4.006807865
4.006819063
4.006830143
4.006841104
4.006851941
4.006862647
4.00687322
4.006883655
4.006893945
4.006904089
4.00691408
4.006923913
4.006933582
4.006943083
4.006952413
4.006961563
4.006970526
4.006979301
4.006987881
4.006996262
4.007004437
4.007012399
4.007020149
4.00702768
4.007034986
4.00704206
4.007048896
4.007055494
4.007061849
4.007067955
4.00707381
4.007079409
4.007084747
4.007089824
4.007094636
4.007099179
4.007103448
4.007107446
4.007111172
4.00711462
4.00711779
4.00712068
4.007123291
4.00712562
4.007127667
4.007129433
4.007130922
4.007132132
4.00713306
4.007133706
4.007134078
4.007134181
4.007134018
4.007133593
4.007132903
4.007131955
4.007130746
4.007129283
4.00712757
4.007125612
4.007123412
4.007120973
4.0071183
4.007115398
4.007112271
4.007108924
4.007105361
4.007101588
4.00709761
4.007093433
4.007089061
4.007084496
4.007079747
4.007074817
4.00706971
4.007064433
4.007058988
4.007053379
4.007047607
4.00704168
4.007035604
4.007029381
4.007023016
4.007016511
4.007009871
4.007003099
4.006996198
4.006989172
4.006982023
4.006974754
4.006967366
4.006959861
4.006952242
4.006944509
4.006936665
4.006928714
4.006920653
4.006912484
4.006904208
4.006895825
4.006887336
4.006878741
4.00687004
4.006861232
4.006852319
4.0068433
4.006834172
4.006824939
4.006815597
4.006806144
4.006796578
4.006786903
4.006777115
4.006767211
4.006757192
4.006747055
4.006736798
4.00672642
4.006715921
4.006705296
4.006694544
4.006683664
4.006672655
4.006661511
4.006650233
4.006638817
4.006627264
4.006615567
4.006603726
4.006591739
4.006579606
4.006567322
4.006554885
4.006542294
4.006529544
4.006516636
4.006503566
4.006490333
4.006476936
4.006463371
4.006449636
4.006435731
4.006421654
4.0064074
4.006392971
4.006378369
4.006363583
4.006348619
4.006333475
4.006318151
4.006302645
4.006286956
4.006271083
4.006255027
4.006238788
4.006222368
4.006205766
4.006188982
4.006172017
4.006154873
4.00613755
4.006120053
4.006102381
4.006084541
4.006066531
4.006048352
4.006030015
4.006011521
4.005992871
4.005974071
4.005955127
4.005936043
4.005916822
4.005897473
4.005878
4.00585841
4.005838711
4.005818907
4.005799006
4.005779018
4.005758949
4.005738808
4.005718602
4.005698339
4.005678032
4.005657687
4.005637315
4.005616923
4.005596522
4.005576122
4.005555732
4.005535363
4.005515024
4.005494722
4.00547447
4.005454278
4.005434155
4.005414111
4.005394155
4.005374297
4.005354548
4.005334915
4.005315408
4.005296035
4.005276805
4.005257728
4.00523881
4.00522006
4.005201486
4.005183095
4.005164891
4.005146883
4.005129075
4.005111474
4.005094084
4.005076913
4.005059959
4.005043229
4.005026729
4.00501046
4.004994423
4.00497862
4.004963054
4.004947725
4.004932633
4.00491778
4.004903166
4.004888788
4.004874641
4.004860729
4.004847045
4.004833591
4.004820361
4.004807352
4.00479456
4.00478198
4.004769606
4.004757433
4.004745451
4.004733656
4.004722048
4.004710619
4.004699366
4.004688284
4.004677362
4.004666598
4.004655984
4.004645511
4.004635173
4.004624962
4.004614872
4.004604898
4.00459503
4.004585262
4.004575586
4.004565995
4.004556484
4.004547043
4.004537669
4.004528353
4.00451909
4.004509873
4.004500696
4.004491553
4.004482439
4.004473348
4.004464274
4.004455213
4.004446159
4.004437107
4.004428053
4.004418992
4.00440992
4.004400832
4.004391725
4.004382594
4.004373436
4.004364248
4.004355024
4.004345763
4.004336461
4.004327113
4.004317719
4.004308273
4.004298773
4.004289216
4.004279599
4.004269918
4.00426017
4.004250354
4.004240464
4.0042305
4.004220456
4.004210329
4.004200115
4.00418981
4.004179411
4.004168914
4.004158313
4.004147604
4.004136784
4.004125849
4.004114789
4.004103604
4.004092287
4.004080833
4.004069234
4.004057491
4.004045597
4.004033538
4.004021311
4.004008912
4.003996332
4.003983564
4.003970601
4.003957435
4.003944054
4.003930458
4.003916641
4.003902582
4.003888274
4.00387371
4.003858879
4.003843773
4.003828389
4.003812709
4.003796734
4.003780445
4.003763833
4.003746893
4.003729618
4.003711995
4.003694012
4.003675662
4.003656932
4.003637817
4.003618311
4.003598398
4.003578068
4.003557312
4.003536125
4.003514497
4.003492419
4.003469885
4.003446877
4.003423393
4.00339943
4.003374978
4.003350014
4.003324534
4.00329854
4.00327203
4.003244988
4.003217412
4.003189292
4.003160615
4.003131386
4.003101595
4.003071232
4.003040293
4.003008776
4.002976685
4.002944008
4.002910739
4.002876877
4.002842418
4.002807356
4.002771688
4.002735413
4.002698531
4.002661037
4.002622934
4.002584213
4.002544876
4.002504919
4.002464341
4.002423155
4.002381346
4.002338915
4.002295864
4.002252192
4.002207904
4.002163001
4.002117476
4.002071332
4.002024577
4.001977205
4.001929215
4.001880615
4.001831413
4.001781609
4.0017312
4.001680187
4.00162858
4.001576375
4.00152358
4.001470191
4.001416214
4.001361653
4.001306512
4.001250793
4.001194501
4.001137638
4.001080208
4.001022213
4.000963658
4.000904548
4.000844889
4.000784683
4.00072394
4.000662659
4.00060083
4.000538476
4.000475604
4.000412205
4.000348282
4.00028385
4.00021892
4.000153489
4.000087561
4.000021144
3.999954246
3.999886861
3.999818998
3.999750668
3.999681872
3.999612615
3.999542908
3.999472755
3.999402161
3.999331136
3.999259685
3.999187817
3.999115531
3.999042838
3.998969747
3.998896263
3.998822393
3.998748146
3.998673525
3.998598539
3.9985232
3.998447514
3.998371484
3.99829512
3.998218436
3.998141436
3.998064131
3.99798653
3.997908639
3.997830473
3.997752034
3.997673331
3.997594376
3.997515182
3.997435758
3.99735611
3.997276253
3.997196197
3.997115952
3.997035527
3.996954931
3.996874176
3.996793277
3.996712243
3.996631088
3.996549824
3.996468459
3.996387007
3.996305479
3.99622389
3.996142252
3.996060575
3.995978875
3.995897164
3.995815456
3.995733761
3.995652095
3.995570467
3.995488899
3.9954074
3.995325982
3.995244659
3.995163445
3.995082353
3.995001398
3.994920593
3.994839953
3.994759491
3.994679221
3.994599158
3.994519315
3.994439711
3.994360354
3.994281259
3.994202441
3.994123914
3.994045693
3.993967799
3.993890232
3.993813014
3.993736159
3.993659683
3.993583597
3.993507912
3.993432646
3.993357814
3.993283427
3.9932095
3.993136054
3.993063091
3.992990624
3.992918679
3.992847261
3.992776376
3.992706044
3.992636276
3.992567081
3.992498483
3.992430482
3.992363088
3.992296327
3.992230203
3.99216472
3.992099895
3.992035738
3.991972253
3.991909453
3.991847346
3.991785953
3.991725265
3.991665292
3.991606048
3.991547538
3.991489782
3.99143277
3.991376501
3.991320985
3.991266232
3.991212261
3.991159057
3.99110662
3.991054964
3.991004089
3.99095399
3.990904676
3.990856149
3.990808396
3.990761414
3.990715216
3.990669792
3.990625137
3.99058125
3.990538145
3.990495792
3.990454184
3.99041333
3.990373213
3.99033383
3.990295168
3.990257226
3.990219995
3.990183468
3.990147621
3.990112446
3.99007794
3.990044091
3.990010889
3.989978293
3.989946313
3.989914929
3.989884129
3.98985389
3.989824204
3.989795055
3.989766413
3.989738269
3.989710608
3.989683415
3.989656664
3.989630335
3.989604416
3.989578886
3.989553721
3.989528911
3.989504432
3.989480262
3.989456383
3.989432777
3.989409423
3.989386304
3.9893634
3.989340695
3.989318165
3.989295793
3.989273566
3.989251462
3.989229465
3.989207557
3.989185722
3.989163946
3.989142211
3.989120503
3.989098809
3.989077115
3.989055405
3.98903367
3.989011898
3.988990075
3.988968191
3.988946241
3.988924216
3.988902106
3.988879904
3.988857606
3.988835208
3.988812706
3.988790098
3.988767383
3.98874456
3.988721632
3.9886986
3.988675469
3.988652242
3.988628927
3.98860553
3.988582057
3.98855852
3.988534928
3.988511294
3.98848763
3.988463952
3.988440274
3.988416613
3.98839299
3.98836942
3.988345927
3.988322526
3.988299241
3.988276098
3.988253118
3.988230326
3.988207747
3.988185407
3.988163333
3.988141554
3.988120094
3.988098992
3.988078273
3.988057958
3.988038086
3.988018685
3.987999788
3.987981431
3.987963653
3.987946485
3.987929954
3.987914093
3.987898944
3.987884525
3.987870881
3.987858051
3.987846036
3.987834908
3.98782468
3.987815412
3.987807112
3.987799813
3.987793583
3.987788429
3.987784431
3.987781599
3.987779989
3.987779574
3.987780404
3.987782511
3.987785919
3.98779069
3.987796872
3.987804471
3.98781352
3.987824052
3.987836085
3.987849636
3.987864786
3.987881548
3.987899903
3.987919912
3.987941587
3.987964951
3.987990047
3.988016871
3.988045452
3.988075822
3.988107998
3.988141985
3.988177809
3.988215453
3.988254954
3.988296355
3.988339653
3.988384855
3.988431955
3.988480978
3.988531937
3.988584838
3.988639662
3.988696411
3.988755118
3.988815804
3.988878457
3.988943041
3.989009589
3.989078109
3.989148534
3.989220904
3.989295226
3.989371505
3.989449706
3.989529801
3.989611814
3.989695756
3.989781572
3.989869242
3.989958813
3.990050208
3.990143423
3.990238457
3.990335282
3.990433872
3.990534245
3.990636367
3.990740176
3.990845666
3.990952863
3.991061707
3.991172152
3.991284213
3.991397863
3.991513026
3.991629699
3.991747893
3.991867548
3.991988585
3.992111031
3.992234841
3.992359991
3.992486444
3.992614158
3.992743099
3.99287322
3.993004488
3.993136889
3.99327038
3.993404914
3.99354045
3.993676943
3.993814368
3.993952695
3.994091868
3.994231842
3.994372576
3.994514044
3.9946562
3.994798998
3.994942383
3.995086327
3.995230786
3.995375712
3.995521064
3.995666793
3.995812858
3.995959218
3.996105825
3.996252632
3.996399593
3.996546665
3.996693798
3.996840953
3.996988077
3.997135141
3.997282088
3.997428878
3.99757547
3.997721816
3.997867872
3.998013597
3.998158953
3.998303896
3.998448376
3.998592363
3.998735801
3.998878666
3.999020896
3.999162462
3.999303324
3.999443432
3.999582761
3.999721282
3.999858938
3.999995678
4.000131495
4.00026633
4.000400146
4.000532918
4.000664602
4.000795169
4.00092458
4.001052803
4.001179812
4.001305565
4.001430035
4.001553191
4.001675007
4.001795454
4.001914482
4.002032066
4.002148197
4.002262849
4.002375992
4.002487599
4.002597648
4.002706123
4.00281297
4.002918181
4.003021743
4.003123641
4.003223817
4.003322288
4.003419049
4.003514042
4.003607273
4.003698724
4.003788403
4.003876277
4.003962311
4.004046505
4.004128849
4.004209326
4.004287947
4.004364694
4.004439567
4.004512579
4.004583661
4.004652825
4.004720089
4.004785453
4.004848905
4.004910432
4.004970055
4.00502774
4.005083498
4.005137334
4.005189272
4.005239318
4.005287409
4.005333581
4.005377886
4.005420273
4.005460768
4.005499377
4.005536099
4.005570975
4.005603962
4.005635106
4.005664415
4.005691889
4.0057176
4.005741474
4.005763536
4.005783844
4.005802375
4.005819178
4.00583426
4.005847614
4.005859283
4.005869277
4.005877604
4.005884302
4.005889362
4.005892849
4.005894804
4.005895237
4.005894109
4.005891454
4.005887265
4.005881562
4.005874364
4.005865689
4.005855559
4.005843998
4.005831006
4.005816628
4.005800885
4.005783776
4.005765345
4.005745619
4.005724613
4.005702352
4.005678859
4.005654159
4.005628276
4.005601235
4.00557306
4.005543777
4.00551341
4.005481983
4.005449522
4.005416053
4.005381599
4.005346187
4.005309843
4.005272591
4.005234457
4.005195466
4.005155644
4.005115013
4.005073609
4.005031448
4.004988553
4.004944953
4.004900683
4.004855755
4.004810195
4.00476402
4.004717263
4.004669958
4.004622127
4.004573788
4.004524958
4.004475665
4.004425941
4.004375798
4.004325263
4.004274367
4.004223121
4.00417155
4.00411968
4.004067535
4.004015134
4.003962494
4.003909638
4.003856588
4.003803371
4.003750001
4.0036965
4.003642888
4.003589184
4.003535408
4.003481579
4.003427714
4.003373833
4.003319955
4.003266097
4.003212279
4.003158516
4.003104825
4.003051221
4.002997716
4.002944331
4.00289108
4.002837976
4.002785034
4.002732271
4.002679696
4.002627325
4.002575171
4.002523246
4.002471562
4.002420131
4.002368968
4.002318079
4.002267477
4.002217176
4.002167184
4.00211751
4.002068166
4.002019156
4.001970496
4.001922198
4.001874261
4.001826691
4.001779498
4.001732693
4.00168629
4.001640281
4.001594681
4.001549501
4.001504746
4.001460414
4.001416514
4.001373052
4.001330026
4.001287449
4.001245325
4.001203654
4.001162446
4.001121699
4.001081422
4.001041613
4.00100227
4.000963404
4.000925018
4.000887113
4.000849681
4.000812728
4.000776268
4.000740294
4.000704799
4.000669796
4.000635282
4.000601245
4.000567701
4.000534645
4.000502075
4.000469997
4.000438403
4.00040729
4.000376661
4.00034652
4.000316863
4.000287685
4.000258982
4.000230758
4.000203015
4.000175743
4.000148942
4.000122616
4.000096758
4.000071356
4.000046415
4.000021933
3.999997914
3.999974344
3.99995122
3.99992855
3.999906324
3.999884538
3.999863187
3.999842269
3.999821783
3.999801722
3.999782085
3.999762863
3.999744059
3.999725669
3.999707682
3.999690098
3.999672911
3.999656119
3.999639717
3.999623701
3.999608067
3.99959281
3.999577927
3.999563416
3.999549265
3.999535472
3.999522039
3.999508955
3.999496216
3.999483819
3.999471759
3.999460033
3.999448632
3.99943756
3.999426807
3.999416366
3.999406233
3.999396405
3.999386879
3.99937765
3.999368712
3.99936006
3.999351692
3.999343603
3.999335785
3.999328237
3.999320954
3.999313932
3.999307167
3.99930065
3.999294381
3.999288356
3.99928257
3.999277018
3.999271695
3.999266598
3.999261723
3.999257066
3.99925262
3.999248382
3.99924435
3.99924052
3.999236888
3.999233449
3.9992302
3.999227137
3.999224256
3.999221552
3.999219023
3.999216665
3.999214474
3.999212446
3.999210579
3.999208868
3.99920731
3.999205901
3.999204639
3.99920352
3.999202539
3.999201695
3.999200986
3.999200406
3.999199951
3.999199621
3.999199413
3.999199323
3.99919935
3.999199484
3.999199728
3.999200078
3.999200532
3.999201087
3.99920174
3.999202489
3.999203331
3.999204263
3.999205281
3.999206387
3.999207576
3.999208844
3.99921019
3.999211612
3.999213109
3.999214676
3.999216313
3.999218018
3.999219788
3.999221621
3.999223514
3.999225466
3.999227476
3.999229542
3.99923166
3.99923383
3.999236049
3.999238317
3.999240631
3.99924299
3.999245392
3.999247836
3.999250319
3.99925284
3.999255399
3.999257994
3.999260622
3.999263283
3.999265976
3.999268699
3.999271451
3.99927423
3.999277036
3.999279867
3.999282722
3.9992856
3.999288501
3.999291422
3.999294362
3.999297322
3.9993003
3.999303294
3.999306305
3.999309331
3.999312371
3.999315425
3.999318492
3.99932157
3.99932466
3.99932776
3.999330871
3.99933399
3.999337118
3.999340253
3.999343396
3.999346545
3.999349701
3.999352862
3.999356028
3.999359198
3.999362373
3.999365551
3.999368732
3.999371916
3.999375102
3.99937829
3.99938148
3.999384671
3.999387862
3.999391054
3.999394246
3.999397438
3.999400629
3.99940382
3.99940701
3.999410198
3.999413385
3.999416571
3.999419755
3.999422936
3.999426116
3.999429293
3.999432468
3.99943564
3.999438809
3.999441975
3.999445138
3.999448298
3.999451455
3.999454608
3.999457758
3.999460905
3.999464048
3.999467187
3.999470323
3.999473455
3.999476584
3.999479709
3.99948283
3.999485947
3.99948906
3.99949217
3.999495276
3.999498378
3.999501476
3.999504571
3.999507661
3.999510749
3.999513832
3.999516912
3.999519988
3.999523061
3.99952613
3.999529195
3.999532258
3.999535316
3.999538372
3.999541424
3.999544473
3.999547519
3.999550562
3.999553601
3.999556638
3.999559672
3.999562702
3.99956573
3.999568755
3.999571778
3.999574798
3.999577815
3.99958083
3.999583843
3.999586853
3.999589861
3.999592867
3.99959587
3.999598872
3.999601871
3.999604869
3.999607864
3.999610858
3.99961385
3.99961684
3.999619829
3.999622816
3.999625802
3.999628786
3.999631769
3.99963475
3.999637731
3.99964071
3.999643687
3.999646664
3.99964964
3.999652614
3.999655588
3.999658561
3.999661533
3.999664504
3.999667474
3.999670444
3.999673413
3.999676381
3.999679349
3.999682316
3.999685282
3.999688249
3.999691214
3.99969418
3.999697145
3.999700109
3.999703073
3.999706038
3.999709001
3.999711965
3.999714928
3.999717892
3.999720855
3.999723818
3.99972678
3.999729743
3.999732706
3.999735669
3.999738632
3.999741595
3.999744557
3.99974752
3.999750483
3.999753447
3.99975641
3.999759373
3.999762337
3.9997653
3.999768264
3.999771228
3.999774192
3.999777157
3.999780122
3.999783087
3.999786052
3.999789017
3.999791983
3.999794949
3.999797915
3.999800882
3.999803849
3.999806816
3.999809783
3.999812751
3.999815719
3.999818688
3.999821657
3.999824626
3.999827595
3.999830565
3.999833535
3.999836506
3.999839477
3.999842448
3.99984542
3.999848392
3.999851364
3.999854337
3.99985731
3.999860284
3.999863258
3.999866232
3.999869207
3.999872182
3.999875157
3.999878133
3.999881109
3.999884085
3.999887062
3.999890039
3.999893016
3.999895994
3.999898972
3.99990195
3.999904929
3.999907907
3.999910886
3.999913865
3.999916845
3.999919825
3.999922805
3.999925785
3.999928765
3.999931745
3.999934726
3.999937706
3.999940687
3.999943668
3.999946648
3.999949629
3.99995261
3.99995559
3.999958571
3.999961552
3.999964532
3.999967512
3.999970492
3.999973472
3.999976451
3.999979431
3.999982409
3.999985388
3.999988366
3.999991344
3.999994321
3.999997297
4.000000273
4.000003249
4.000006224
4.000009198
4.000012171
4.000015143
4.000018115
4.000021086
4.000024056
4.000027025
4.000029992
4.000032959
4.000035925
4.000038889
4.000041852
4.000044814
4.000047775
4.000050734
4.000053692
4.000056649
4.000059603
4.000062557
4.000065508
4.000068458
4.000071407
4.000074353
4.000077298
4.00008024
4.000083181
4.00008612
4.000089057
4.000091991
4.000094924
4.000097854
4.000100783
4.000103708
4.000106632
4.000109553
4.000112472
4.000115389
4.000118303
4.000121214
4.000124124
4.00012703
4.000129934
4.000132835
4.000135733
4.000138629
4.000141522
4.000144413
4.0001473
4.000150185
4.000153067
4.000155946
4.000158823
4.000161696
4.000164567
4.000167435
4.000170299
4.000173161
4.000176021
4.000178877
4.00018173
4.00018458
4.000187428
4.000190272
4.000193114
4.000195953
4.000198789
4.000201622
4.000204452
4.00020728
4.000210105
4.000212927
4.000215746
4.000218562
4.000221376
4.000224187
4.000226996
4.000229802
4.000232606
4.000235407
4.000238205
4.000241001
4.000243795
4.000246586
4.000249376
4.000252162
4.000254947
4.00025773
4.00026051
4.000263289
4.000266066
4.00026884
4.000271613
4.000274384
4.000277154
4.000279921
4.000282687
4.000285452
4.000288215
4.000290977
4.000293737
4.000296496
4.000299254
4.000302011
4.000304767
4.000307522
4.000310275
4.000313028
4.00031578
4.000318532
4.000321283
4.000324033
4.000326782
4.000329531
4.00033228
4.000335028
4.000337776
4.000340524
4.000343272
4.000346019
4.000348766
4.000351514
4.000354261
4.000357009
4.000359756
4.000362504
4.000365252
4.000368
4.000370749
4.000373498
4.000376247
4.000378997
4.000381747
4.000384498
4.000387249
4.000390001
4.000392753
4.000395506
4.00039826
4.000401014
4.000403769
4.000406525
4.000409281
4.000412038
4.000414795
4.000417553
4.000420312
4.000423072
4.000425832
4.000428593
4.000431354
4.000434116
4.000436879
4.000439642
4.000442405
4.00044517
4.000447934
4.000450699
4.000453465
4.00045623
4.000458996
4.000461763
4.000464529
4.000467296
4.000470062
4.000472829
4.000475596
4.000478362
4.000481128
4.000483894
4.00048666
4.000489425
4.00049219
4.000494954
4.000497717
4.000500479
4.000503241
4.000506001
4.000508761
4.000511519
4.000514276
4.000517032
4.000519786
4.000522538
4.000525289
4.000528038
4.000530785
4.00053353
4.000536272
4.000539013
4.000541751
4.000544486
4.000547219
4.000549949
4.000552676
4.0005554
4.000558121
4.000560839
4.000563553
4.000566264
4.000568972
4.000571675
4.000574375
4.000577071
4.000579763
4.000582451
4.000585134
4.000587813
4.000590487
4.000593157
4.000595822
4.000598483
4.000601138
4.000603788
4.000606433
4.000609073
4.000611708
4.000614337
4.00061696
4.000619578
4.00062219
4.000624797
4.000627397
4.000629992
4.00063258
4.000635163
4.000637739
4.000640309
4.000642872
4.000645429
4.00064798
4.000650524
4.000653061
4.000655592