/*--------------------------------*- C++ -*----------------------------------*\
| =========                 |                                                 |
| \\      /  F ield         | OpenFOAM: The Open Source CFD Toolbox           |
|  \\    /   O peration     | Version:  2312                                  |
|   \\  /    A nd           | Website:  www.openfoam.com                      |
|    \\/     M anipulation  |                                                 |
\*---------------------------------------------------------------------------*/
FoamFile
{
    version     2.0;
    format      ascii;
    arch        "LSB;label=32;scalar=64";
    class       volScalarField;
    location    "0.005";
    object      rho;
}
// * * * * * * * * * * * * * * * * * * * * * * * * * * * * * * * * * * * * * //

dimensions      [1 -3 0 0 0 0 0];

internalField   nonuniform List<scalar> 
8000
(
1000.051804
1000.049107
1000.048246
1000.048352
1000.048414
1000.048381
1000.04834
1000.048289
1000.048221
1000.048145
1000.048067
1000.047992
1000.047923
1000.04786
1000.047803
1000.047751
1000.047705
1000.047663
1000.047626
1000.047595
1000.04757
1000.04755
1000.047536
1000.047527
1000.047521
1000.047517
1000.047513
1000.047507
1000.047497
1000.047482
1000.047461
1000.047434
1000.047402
1000.047365
1000.047324
1000.047281
1000.047236
1000.047191
1000.047146
1000.047103
1000.047061
1000.047021
1000.046983
1000.046948
1000.046914
1000.046881
1000.04685
1000.04682
1000.046791
1000.046762
1000.046735
1000.046708
1000.046681
1000.046655
1000.04663
1000.046605
1000.046582
1000.046559
1000.046537
1000.046515
1000.046494
1000.046473
1000.046452
1000.046431
1000.046409
1000.046387
1000.046363
1000.046339
1000.046313
1000.046286
1000.046258
1000.046229
1000.0462
1000.046169
1000.046137
1000.046105
1000.046073
1000.046041
1000.046008
1000.045976
1000.045944
1000.045912
1000.04588
1000.045849
1000.045818
1000.045787
1000.045757
1000.045727
1000.045698
1000.045669
1000.04564
1000.045612
1000.045583
1000.045555
1000.045527
1000.045499
1000.045472
1000.045444
1000.045416
1000.045388
1000.04536
1000.045332
1000.045304
1000.045276
1000.045247
1000.045218
1000.045189
1000.04516
1000.04513
1000.0451
1000.045069
1000.045039
1000.045007
1000.044975
1000.044943
1000.044911
1000.044878
1000.044844
1000.04481
1000.044776
1000.044741
1000.044707
1000.044671
1000.044636
1000.044601
1000.044565
1000.04453
1000.044494
1000.044459
1000.044424
1000.04439
1000.044356
1000.044323
1000.04429
1000.044257
1000.044225
1000.044194
1000.044163
1000.044133
1000.044103
1000.044073
1000.044043
1000.044014
1000.043984
1000.043954
1000.043924
1000.043893
1000.043861
1000.043829
1000.043796
1000.043762
1000.043727
1000.043691
1000.043654
1000.043615
1000.043576
1000.043536
1000.043496
1000.043455
1000.043413
1000.043372
1000.043331
1000.043291
1000.043252
1000.043214
1000.043177
1000.043143
1000.043111
1000.043081
1000.043054
1000.04303
1000.043009
1000.042991
1000.042976
1000.042966
1000.042959
1000.042956
1000.042956
1000.04296
1000.042968
1000.04298
1000.042995
1000.043013
1000.043035
1000.04306
1000.043087
1000.043117
1000.043148
1000.043182
1000.043217
1000.043253
1000.04329
1000.043327
1000.043365
1000.043402
1000.043439
1000.043475
1000.04351
1000.043544
1000.043576
1000.043606
1000.043635
1000.043662
1000.043686
1000.043709
1000.043728
1000.043746
1000.043761
1000.043773
1000.043783
1000.04379
1000.043794
1000.043796
1000.043796
1000.043793
1000.043787
1000.043779
1000.043768
1000.043755
1000.04374
1000.043723
1000.043704
1000.043682
1000.043659
1000.043634
1000.043608
1000.04358
1000.043551
1000.043521
1000.043489
1000.043456
1000.043423
1000.043388
1000.043353
1000.043317
1000.043281
1000.043245
1000.043208
1000.043171
1000.043134
1000.043098
1000.043061
1000.043025
1000.04299
1000.042954
1000.04292
1000.042886
1000.042853
1000.042821
1000.042789
1000.042759
1000.042729
1000.042701
1000.042673
1000.042647
1000.042622
1000.042597
1000.042574
1000.042552
1000.042531
1000.04251
1000.042491
1000.042473
1000.042455
1000.042438
1000.042423
1000.042407
1000.042393
1000.042379
1000.042366
1000.042353
1000.042341
1000.042329
1000.042317
1000.042306
1000.042295
1000.042284
1000.042274
1000.042264
1000.042254
1000.042244
1000.042234
1000.042225
1000.042215
1000.042206
1000.042196
1000.042187
1000.042178
1000.042169
1000.04216
1000.042151
1000.042143
1000.042134
1000.042126
1000.042117
1000.042109
1000.042101
1000.042093
1000.042086
1000.042078
1000.042071
1000.042063
1000.042056
1000.04205
1000.042043
1000.042036
1000.04203
1000.042024
1000.042018
1000.042012
1000.042006
1000.042001
1000.041996
1000.04199
1000.041985
1000.041981
1000.041976
1000.041971
1000.041967
1000.041963
1000.041958
1000.041954
1000.041951
1000.041947
1000.041943
1000.04194
1000.041937
1000.041934
1000.041931
1000.041928
1000.041925
1000.041923
1000.041921
1000.041919
1000.041917
1000.041916
1000.041915
1000.041914
1000.041913
1000.041913
1000.041913
1000.041913
1000.041914
1000.041915
1000.041916
1000.041918
1000.04192
1000.041923
1000.041926
1000.04193
1000.041934
1000.041938
1000.041943
1000.041948
1000.041954
1000.04196
1000.041966
1000.041973
1000.04198
1000.041988
1000.041996
1000.042004
1000.042013
1000.042022
1000.042031
1000.04204
1000.04205
1000.042059
1000.042069
1000.042079
1000.042089
1000.042099
1000.042109
1000.042119
1000.042129
1000.042139
1000.042149
1000.042159
1000.042169
1000.042178
1000.042188
1000.042197
1000.042207
1000.042216
1000.042224
1000.042233
1000.042242
1000.04225
1000.042259
1000.042267
1000.042275
1000.042283
1000.042291
1000.042298
1000.042306
1000.042314
1000.042321
1000.042329
1000.042336
1000.042344
1000.042352
1000.042359
1000.042367
1000.042375
1000.042383
1000.042391
1000.042399
1000.042407
1000.042416
1000.042425
1000.042433
1000.042442
1000.042452
1000.042461
1000.042471
1000.042481
1000.042491
1000.042501
1000.042512
1000.042523
1000.042534
1000.042545
1000.042556
1000.042568
1000.04258
1000.042593
1000.042605
1000.042618
1000.042631
1000.042644
1000.042658
1000.042672
1000.042686
1000.0427
1000.042714
1000.042729
1000.042744
1000.042759
1000.042774
1000.04279
1000.042805
1000.042821
1000.042837
1000.042854
1000.04287
1000.042887
1000.042904
1000.042921
1000.042938
1000.042956
1000.042973
1000.042991
1000.043009
1000.043028
1000.043046
1000.043064
1000.043083
1000.043102
1000.043121
1000.043141
1000.04316
1000.04318
1000.043199
1000.043219
1000.043239
1000.04326
1000.04328
1000.043301
1000.043322
1000.043343
1000.043364
1000.043385
1000.043407
1000.043428
1000.04345
1000.043472
1000.043494
1000.043516
1000.043539
1000.043561
1000.043584
1000.043607
1000.04363
1000.043653
1000.043677
1000.0437
1000.043724
1000.043748
1000.043772
1000.043796
1000.04382
1000.043845
1000.04387
1000.043894
1000.043919
1000.043944
1000.043969
1000.043995
1000.04402
1000.044046
1000.044072
1000.044098
1000.044124
1000.04415
1000.044176
1000.044203
1000.044229
1000.044256
1000.044283
1000.04431
1000.044337
1000.044364
1000.044392
1000.044419
1000.044447
1000.044475
1000.044503
1000.044531
1000.044559
1000.044587
1000.044615
1000.044644
1000.044672
1000.044701
1000.04473
1000.044759
1000.044788
1000.044817
1000.044846
1000.044876
1000.044905
1000.044935
1000.044964
1000.044994
1000.045024
1000.045054
1000.045084
1000.045114
1000.045144
1000.045174
1000.045204
1000.045234
1000.045265
1000.045295
1000.045326
1000.045356
1000.045387
1000.045418
1000.045448
1000.045479
1000.04551
1000.045541
1000.045572
1000.045603
1000.045634
1000.045665
1000.045696
1000.045727
1000.045758
1000.045789
1000.04582
1000.045851
1000.045882
1000.045913
1000.045944
1000.045976
1000.046007
1000.046038
1000.046069
1000.0461
1000.046132
1000.046163
1000.046194
1000.046225
1000.046257
1000.046288
1000.046319
1000.04635
1000.046382
1000.046413
1000.046444
1000.046476
1000.046507
1000.046538
1000.04657
1000.046601
1000.046632
1000.046664
1000.046695
1000.046726
1000.046758
1000.046789
1000.046821
1000.046852
1000.046883
1000.046915
1000.046946
1000.046978
1000.047009
1000.047041
1000.047072
1000.047104
1000.047135
1000.047167
1000.047198
1000.04723
1000.047261
1000.047293
1000.047324
1000.047356
1000.047387
1000.047419
1000.04745
1000.047482
1000.047513
1000.047545
1000.047576
1000.047608
1000.047639
1000.04767
1000.047701
1000.047733
1000.047764
1000.047795
1000.047826
1000.047857
1000.047889
1000.04792
1000.047951
1000.047982
1000.048013
1000.048043
1000.048074
1000.048105
1000.048136
1000.048166
1000.048197
1000.048228
1000.048258
1000.048289
1000.048319
1000.048349
1000.04838
1000.04841
1000.04844
1000.04847
1000.0485
1000.048531
1000.04856
1000.04859
1000.04862
1000.04865
1000.04868
1000.04871
1000.048739
1000.048769
1000.048798
1000.048828
1000.048857
1000.048887
1000.048916
1000.048945
1000.048974
1000.049004
1000.049033
1000.049062
1000.049091
1000.04912
1000.049149
1000.049177
1000.049206
1000.049235
1000.049264
1000.049292
1000.049321
1000.04935
1000.049378
1000.049407
1000.049435
1000.049463
1000.049492
1000.04952
1000.049548
1000.049576
1000.049605
1000.049633
1000.049661
1000.049689
1000.049717
1000.049745
1000.049773
1000.049801
1000.049829
1000.049856
1000.049884
1000.049912
1000.04994
1000.049967
1000.049995
1000.050022
1000.05005
1000.050078
1000.050105
1000.050133
1000.05016
1000.050187
1000.050215
1000.050242
1000.050269
1000.050297
1000.050324
1000.050351
1000.050378
1000.050406
1000.050433
1000.05046
1000.050487
1000.050514
1000.050541
1000.050568
1000.050595
1000.050622
1000.050649
1000.050676
1000.050703
1000.050729
1000.050756
1000.050783
1000.05081
1000.050837
1000.050863
1000.05089
1000.050917
1000.050943
1000.05097
1000.050997
1000.051023
1000.05105
1000.051076
1000.051103
1000.051129
1000.051156
1000.051182
1000.051209
1000.051235
1000.051261
1000.051288
1000.051314
1000.05134
1000.051367
1000.051393
1000.051419
1000.051445
1000.051472
1000.051498
1000.051524
1000.05155
1000.051576
1000.051602
1000.051628
1000.051654
1000.05168
1000.051706
1000.051732
1000.051758
1000.051784
1000.051809
1000.051835
1000.051861
1000.051887
1000.051912
1000.051938
1000.051964
1000.051989
1000.052015
1000.052041
1000.052066
1000.052092
1000.052117
1000.052142
1000.052168
1000.052193
1000.052219
1000.052244
1000.052269
1000.052294
1000.05232
1000.052345
1000.05237
1000.052395
1000.05242
1000.052445
1000.05247
1000.052495
1000.05252
1000.052545
1000.052569
1000.052594
1000.052619
1000.052643
1000.052668
1000.052692
1000.052716
1000.05274
1000.052765
1000.052789
1000.052813
1000.052837
1000.05286
1000.052884
1000.052907
1000.052931
1000.052954
1000.052977
1000.053
1000.053023
1000.053046
1000.053068
1000.05309
1000.053112
1000.053134
1000.053156
1000.053177
1000.053199
1000.05322
1000.05324
1000.053261
1000.053281
1000.053301
1000.053321
1000.05334
1000.053359
1000.053378
1000.053397
1000.053415
1000.053433
1000.05345
1000.053467
1000.053484
1000.0535
1000.053517
1000.053532
1000.053548
1000.053562
1000.053577
1000.053591
1000.053605
1000.053618
1000.053631
1000.053644
1000.053656
1000.053667
1000.053679
1000.053689
1000.0537
1000.05371
1000.05372
1000.053729
1000.053738
1000.053746
1000.053754
1000.053761
1000.053769
1000.053775
1000.053782
1000.053788
1000.053794
1000.053799
1000.053804
1000.053808
1000.053813
1000.053816
1000.05382
1000.053823
1000.053826
1000.053829
1000.053831
1000.053833
1000.053835
1000.053836
1000.053838
1000.053839
1000.053839
1000.05384
1000.05384
1000.05384
1000.05384
1000.05384
1000.053839
1000.053838
1000.053837
1000.053836
1000.053835
1000.053833
1000.053831
1000.05383
1000.053828
1000.053825
1000.053823
1000.053821
1000.053818
1000.053816
1000.053813
1000.05381
1000.053807
1000.053804
1000.0538
1000.053797
1000.053794
1000.05379
1000.053786
1000.053782
1000.053778
1000.053774
1000.05377
1000.053766
1000.053761
1000.053757
1000.053752
1000.053747
1000.053742
1000.053737
1000.053732
1000.053727
1000.053722
1000.053716
1000.05371
1000.053705
1000.053699
1000.053692
1000.053686
1000.05368
1000.053673
1000.053666
1000.05366
1000.053652
1000.053645
1000.053638
1000.05363
1000.053622
1000.053614
1000.053606
1000.053598
1000.053589
1000.053581
1000.053572
1000.053563
1000.053553
1000.053544
1000.053534
1000.053524
1000.053513
1000.053503
1000.053492
1000.053481
1000.05347
1000.053459
1000.053447
1000.053435
1000.053423
1000.053411
1000.053398
1000.053385
1000.053372
1000.053359
1000.053345
1000.053331
1000.053317
1000.053303
1000.053288
1000.053273
1000.053258
1000.053243
1000.053227
1000.053212
1000.053196
1000.05318
1000.053163
1000.053147
1000.05313
1000.053113
1000.053096
1000.053079
1000.053062
1000.053044
1000.053026
1000.053009
1000.052991
1000.052973
1000.052955
1000.052937
1000.052919
1000.052901
1000.052882
1000.052864
1000.052846
1000.052828
1000.05281
1000.052792
1000.052774
1000.052756
1000.052738
1000.05272
1000.052703
1000.052686
1000.052669
1000.052652
1000.052635
1000.052618
1000.052602
1000.052586
1000.05257
1000.052555
1000.05254
1000.052525
1000.05251
1000.052496
1000.052482
1000.052469
1000.052456
1000.052443
1000.052431
1000.052419
1000.052408
1000.052397
1000.052386
1000.052376
1000.052367
1000.052357
1000.052349
1000.052341
1000.052333
1000.052325
1000.052319
1000.052312
1000.052306
1000.052301
1000.052296
1000.052291
1000.052287
1000.052284
1000.052281
1000.052278
1000.052276
1000.052274
1000.052273
1000.052272
1000.052271
1000.052271
1000.052271
1000.052271
1000.052272
1000.052273
1000.052275
1000.052277
1000.052279
1000.052282
1000.052285
1000.052288
1000.052291
1000.052295
1000.052298
1000.052303
1000.052307
1000.052311
1000.052316
1000.052321
1000.052326
1000.052331
1000.052337
1000.052342
1000.052348
1000.052354
1000.052359
1000.052365
1000.052371
1000.052377
1000.052384
1000.05239
1000.052396
1000.052402
1000.052409
1000.052415
1000.052421
1000.052428
1000.052434
1000.05244
1000.052447
1000.052453
1000.052459
1000.052466
1000.052472
1000.052478
1000.052484
1000.05249
1000.052496
1000.052502
1000.052508
1000.052514
1000.05252
1000.052525
1000.052531
1000.052536
1000.052542
1000.052547
1000.052552
1000.052557
1000.052562
1000.052566
1000.052571
1000.052575
1000.052579
1000.052583
1000.052587
1000.052591
1000.052594
1000.052597
1000.0526
1000.052603
1000.052605
1000.052608
1000.052609
1000.052611
1000.052612
1000.052613
1000.052614
1000.052614
1000.052614
1000.052614
1000.052613
1000.052612
1000.05261
1000.052608
1000.052606
1000.052603
1000.052599
1000.052595
1000.05259
1000.052585
1000.05258
1000.052574
1000.052567
1000.052559
1000.052551
1000.052543
1000.052533
1000.052523
1000.052513
1000.052501
1000.052489
1000.052476
1000.052463
1000.052448
1000.052433
1000.052417
1000.0524
1000.052383
1000.052364
1000.052345
1000.052325
1000.052303
1000.052281
1000.052259
1000.052235
1000.05221
1000.052184
1000.052158
1000.05213
1000.052101
1000.052072
1000.052041
1000.05201
1000.051977
1000.051943
1000.051909
1000.051873
1000.051836
1000.051799
1000.05176
1000.05172
1000.051679
1000.051637
1000.051594
1000.05155
1000.051505
1000.051459
1000.051412
1000.051363
1000.051314
1000.051263
1000.051212
1000.051159
1000.051106
1000.051051
1000.050995
1000.050938
1000.05088
1000.050821
1000.050761
1000.0507
1000.050638
1000.050575
1000.050511
1000.050445
1000.050379
1000.050312
1000.050243
1000.050174
1000.050104
1000.050032
1000.04996
1000.049887
1000.049812
1000.049737
1000.049661
1000.049584
1000.049505
1000.049426
1000.049346
1000.049265
1000.049183
1000.0491
1000.049016
1000.048931
1000.048846
1000.048759
1000.048672
1000.048583
1000.048494
1000.048404
1000.048313
1000.048221
1000.048129
1000.048035
1000.047941
1000.047846
1000.04775
1000.047653
1000.047556
1000.047458
1000.047359
1000.047259
1000.047158
1000.047057
1000.046955
1000.046853
1000.046749
1000.046645
1000.046541
1000.046435
1000.046329
1000.046223
1000.046116
1000.046008
1000.045899
1000.04579
1000.045681
1000.045571
1000.04546
1000.045349
1000.045237
1000.045125
1000.045012
1000.044899
1000.044786
1000.044672
1000.044557
1000.044443
1000.044327
1000.044212
1000.044096
1000.04398
1000.043863
1000.043747
1000.04363
1000.043512
1000.043395
1000.043277
1000.04316
1000.043042
1000.042923
1000.042805
1000.042687
1000.042568
1000.04245
1000.042331
1000.042213
1000.042094
1000.041976
1000.041857
1000.041739
1000.04162
1000.041502
1000.041384
1000.041267
1000.041149
1000.041031
1000.040914
1000.040797
1000.040681
1000.040564
1000.040448
1000.040333
1000.040218
1000.040103
1000.039988
1000.039874
1000.039761
1000.039648
1000.039535
1000.039424
1000.039312
1000.039202
1000.039091
1000.038982
1000.038873
1000.038765
1000.038658
1000.038551
1000.038445
1000.03834
1000.038236
1000.038132
1000.03803
1000.037928
1000.037827
1000.037727
1000.037628
1000.03753
1000.037433
1000.037337
1000.037242
1000.037148
1000.037056
1000.036964
1000.036873
1000.036783
1000.036695
1000.036607
1000.036521
1000.036436
1000.036352
1000.036269
1000.036188
1000.036108
1000.036029
1000.035951
1000.035874
1000.035799
1000.035725
1000.035652
1000.035581
1000.03551
1000.035441
1000.035374
1000.035307
1000.035242
1000.035178
1000.035116
1000.035054
1000.034994
1000.034936
1000.034878
1000.034822
1000.034767
1000.034713
1000.03466
1000.034609
1000.034559
1000.03451
1000.034462
1000.034415
1000.03437
1000.034326
1000.034282
1000.03424
1000.034199
1000.034159
1000.034119
1000.034081
1000.034044
1000.034008
1000.033972
1000.033938
1000.033904
1000.033871
1000.033839
1000.033807
1000.033777
1000.033747
1000.033718
1000.033689
1000.033661
1000.033633
1000.033606
1000.03358
1000.033554
1000.033528
1000.033503
1000.033478
1000.033454
1000.033429
1000.033405
1000.033382
1000.033358
1000.033335
1000.033312
1000.033288
1000.033265
1000.033242
1000.033219
1000.033197
1000.033174
1000.033151
1000.033127
1000.033104
1000.033081
1000.033057
1000.033034
1000.03301
1000.032986
1000.032962
1000.032938
1000.032913
1000.032888
1000.032863
1000.032838
1000.032812
1000.032786
1000.03276
1000.032734
1000.032708
1000.032681
1000.032654
1000.032627
1000.032599
1000.032572
1000.032544
1000.032516
1000.032488
1000.03246
1000.032432
1000.032403
1000.032375
1000.032347
1000.032318
1000.03229
1000.032262
1000.032234
1000.032207
1000.032179
1000.032152
1000.032125
1000.032099
1000.032073
1000.032047
1000.032022
1000.031997
1000.031973
1000.03195
1000.031928
1000.031906
1000.031885
1000.031865
1000.031846
1000.031828
1000.03181
1000.031794
1000.03178
1000.031766
1000.031754
1000.031743
1000.031733
1000.031725
1000.031719
1000.031714
1000.031711
1000.031709
1000.031709
1000.031711
1000.031715
1000.031721
1000.031729
1000.031739
1000.031751
1000.031765
1000.031781
1000.0318
1000.031821
1000.031845
1000.03187
1000.031899
1000.03193
1000.031963
1000.032
1000.032038
1000.03208
1000.032124
1000.032172
1000.032222
1000.032275
1000.032331
1000.03239
1000.032452
1000.032517
1000.032584
1000.032656
1000.03273
1000.032807
1000.032888
1000.032971
1000.033058
1000.033149
1000.033242
1000.033339
1000.033439
1000.033542
1000.033648
1000.033758
1000.033871
1000.033988
1000.034107
1000.03423
1000.034357
1000.034486
1000.034619
1000.034755
1000.034895
1000.035037
1000.035183
1000.035332
1000.035485
1000.03564
1000.035798
1000.03596
1000.036125
1000.036293
1000.036464
1000.036638
1000.036815
1000.036995
1000.037178
1000.037363
1000.037552
1000.037743
1000.037937
1000.038134
1000.038334
1000.038536
1000.03874
1000.038948
1000.039157
1000.039369
1000.039584
1000.039801
1000.04002
1000.040241
1000.040465
1000.04069
1000.040918
1000.041147
1000.041379
1000.041612
1000.041847
1000.042084
1000.042323
1000.042563
1000.042804
1000.043047
1000.043292
1000.043537
1000.043784
1000.044032
1000.044282
1000.044532
1000.044783
1000.045035
1000.045288
1000.045542
1000.045796
1000.046051
1000.046306
1000.046562
1000.046818
1000.047074
1000.047331
1000.047587
1000.047844
1000.048101
1000.048357
1000.048614
1000.04887
1000.049125
1000.049381
1000.049635
1000.04989
1000.050143
1000.050396
1000.050648
1000.050899
1000.051149
1000.051399
1000.051647
1000.051894
1000.052139
1000.052384
1000.052627
1000.052869
1000.053109
1000.053348
1000.053584
1000.05382
1000.054053
1000.054285
1000.054515
1000.054743
1000.054969
1000.055193
1000.055414
1000.055634
1000.055851
1000.056066
1000.056279
1000.056489
1000.056697
1000.056902
1000.057105
1000.057305
1000.057503
1000.057698
1000.05789
1000.058079
1000.058266
1000.05845
1000.058631
1000.058809
1000.058984
1000.059156
1000.059325
1000.059491
1000.059654
1000.059814
1000.05997
1000.060124
1000.060274
1000.060421
1000.060565
1000.060706
1000.060843
1000.060977
1000.061108
1000.061235
1000.061359
1000.06148
1000.061598
1000.061712
1000.061823
1000.06193
1000.062034
1000.062135
1000.062232
1000.062326
1000.062416
1000.062503
1000.062587
1000.062668
1000.062745
1000.062819
1000.062889
1000.062956
1000.06302
1000.06308
1000.063138
1000.063192
1000.063242
1000.06329
1000.063334
1000.063375
1000.063413
1000.063448
1000.06348
1000.063508
1000.063534
1000.063556
1000.063576
1000.063593
1000.063606
1000.063617
1000.063625
1000.06363
1000.063632
1000.063632
1000.063629
1000.063623
1000.063614
1000.063603
1000.063589
1000.063573
1000.063554
1000.063532
1000.063508
1000.063482
1000.063453
1000.063422
1000.063388
1000.063352
1000.063313
1000.063273
1000.06323
1000.063185
1000.063138
1000.063089
1000.063038
1000.062985
1000.06293
1000.062873
1000.062815
1000.062754
1000.062692
1000.062628
1000.062562
1000.062495
1000.062426
1000.062356
1000.062284
1000.062211
1000.062136
1000.06206
1000.061983
1000.061904
1000.061824
1000.061743
1000.061661
1000.061578
1000.061493
1000.061408
1000.061322
1000.061235
1000.061147
1000.061058
1000.060968
1000.060877
1000.060786
1000.060694
1000.060602
1000.060509
1000.060415
1000.060321
1000.060227
1000.060132
1000.060036
1000.05994
1000.059844
1000.059748
1000.059651
1000.059554
1000.059457
1000.05936
1000.059262
1000.059165
1000.059068
1000.05897
1000.058872
1000.058775
1000.058678
1000.05858
1000.058483
1000.058386
1000.058289
1000.058193
1000.058096
1000.058
1000.057904
1000.057809
1000.057713
1000.057618
1000.057524
1000.05743
1000.057336
1000.057243
1000.05715
1000.057058
1000.056966
1000.056875
1000.056784
1000.056693
1000.056604
1000.056515
1000.056426
1000.056338
1000.056251
1000.056164
1000.056078
1000.055993
1000.055908
1000.055824
1000.055741
1000.055658
1000.055576
1000.055495
1000.055414
1000.055334
1000.055255
1000.055177
1000.055099
1000.055023
1000.054947
1000.054871
1000.054797
1000.054723
1000.05465
1000.054578
1000.054507
1000.054436
1000.054366
1000.054297
1000.054229
1000.054162
1000.054095
1000.054029
1000.053964
1000.0539
1000.053837
1000.053774
1000.053712
1000.053651
1000.053591
1000.053531
1000.053473
1000.053415
1000.053357
1000.053301
1000.053245
1000.053191
1000.053137
1000.053083
1000.053031
1000.052979
1000.052928
1000.052877
1000.052828
1000.052779
1000.052731
1000.052683
1000.052636
1000.05259
1000.052545
1000.0525
1000.052456
1000.052413
1000.05237
1000.052328
1000.052287
1000.052246
1000.052206
1000.052167
1000.052128
1000.05209
1000.052052
1000.052015
1000.051979
1000.051943
1000.051908
1000.051873
1000.051839
1000.051806
1000.051773
1000.05174
1000.051708
1000.051677
1000.051646
1000.051616
1000.051586
1000.051557
1000.051528
1000.051499
1000.051472
1000.051444
1000.051417
1000.051391
1000.051365
1000.051339
1000.051314
1000.051289
1000.051264
1000.05124
1000.051217
1000.051194
1000.051171
1000.051148
1000.051126
1000.051105
1000.051083
1000.051062
1000.051042
1000.051021
1000.051001
1000.050981
1000.050962
1000.050943
1000.050924
1000.050906
1000.050888
1000.05087
1000.050852
1000.050835
1000.050818
1000.050801
1000.050784
1000.050768
1000.050752
1000.050736
1000.050721
1000.050705
1000.05069
1000.050675
1000.050661
1000.050646
1000.050632
1000.050618
1000.050604
1000.05059
1000.050577
1000.050564
1000.050551
1000.050538
1000.050525
1000.050512
1000.0505
1000.050488
1000.050476
1000.050464
1000.050452
1000.05044
1000.050429
1000.050417
1000.050406
1000.050395
1000.050384
1000.050373
1000.050362
1000.050352
1000.050341
1000.050331
1000.050321
1000.050311
1000.050301
1000.050291
1000.050281
1000.050271
1000.050262
1000.050252
1000.050243
1000.050233
1000.050224
1000.050215
1000.050206
1000.050197
1000.050188
1000.050179
1000.05017
1000.050162
1000.050153
1000.050145
1000.050136
1000.050128
1000.05012
1000.050111
1000.050103
1000.050095
1000.050087
1000.050079
1000.050071
1000.050063
1000.050056
1000.050048
1000.05004
1000.050033
1000.050025
1000.050017
1000.05001
1000.050003
1000.049995
1000.049988
1000.049981
1000.049973
1000.049966
1000.049959
1000.049952
1000.049945
1000.049938
1000.049931
1000.049924
1000.049917
1000.04991
1000.049904
1000.049897
1000.04989
1000.049883
1000.049877
1000.04987
1000.049864
1000.049857
1000.04985
1000.049844
1000.049838
1000.049831
1000.049825
1000.049818
1000.049812
1000.049806
1000.049799
1000.049793
1000.049787
1000.049781
1000.049775
1000.049769
1000.049762
1000.049756
1000.04975
1000.049744
1000.049738
1000.049732
1000.049726
1000.04972
1000.049714
1000.049708
1000.049703
1000.049697
1000.049691
1000.049685
1000.049679
1000.049673
1000.049668
1000.049662
1000.049656
1000.049651
1000.049645
1000.049639
1000.049633
1000.049628
1000.049622
1000.049617
1000.049611
1000.049605
1000.0496
1000.049594
1000.049589
1000.049583
1000.049578
1000.049572
1000.049567
1000.049561
1000.049556
1000.04955
1000.049545
1000.049539
1000.049534
1000.049528
1000.049523
1000.049518
1000.049512
1000.049507
1000.049501
1000.049496
1000.049491
1000.049485
1000.04948
1000.049475
1000.049469
1000.049464
1000.049459
1000.049453
1000.049448
1000.049443
1000.049437
1000.049432
1000.049427
1000.049422
1000.049416
1000.049411
1000.049406
1000.0494
1000.049395
1000.04939
1000.049385
1000.049379
1000.049374
1000.049369
1000.049364
1000.049359
1000.049353
1000.049348
1000.049343
1000.049338
1000.049332
1000.049327
1000.049322
1000.049317
1000.049312
1000.049306
1000.049301
1000.049296
1000.049291
1000.049285
1000.04928
1000.049275
1000.04927
1000.049265
1000.049259
1000.049254
1000.049249
1000.049244
1000.049239
1000.049234
1000.049228
1000.049223
1000.049218
1000.049213
1000.049208
1000.049202
1000.049197
1000.049192
1000.049187
1000.049182
1000.049176
1000.049171
1000.049166
1000.049161
1000.049156
1000.04915
1000.049145
1000.04914
1000.049135
1000.04913
1000.049124
1000.049119
1000.049114
1000.049109
1000.049104
1000.049099
1000.049093
1000.049088
1000.049083
1000.049078
1000.049073
1000.049067
1000.049062
1000.049057
1000.049052
1000.049047
1000.049041
1000.049036
1000.049031
1000.049026
1000.049021
1000.049015
1000.04901
1000.049005
1000.049
1000.048995
1000.048989
1000.048984
1000.048979
1000.048974
1000.048968
1000.048963
1000.048958
1000.048953
1000.048948
1000.048942
1000.048937
1000.048932
1000.048927
1000.048922
1000.048916
1000.048911
1000.048906
1000.048901
1000.048895
1000.04889
1000.048885
1000.04888
1000.048875
1000.048869
1000.048864
1000.048859
1000.048854
1000.048849
1000.048843
1000.048838
1000.048833
1000.048828
1000.048822
1000.048817
1000.048812
1000.048807
1000.048802
1000.048796
1000.048791
1000.048786
1000.048781
1000.048775
1000.04877
1000.048765
1000.04876
1000.048755
1000.048749
1000.048744
1000.048739
1000.048734
1000.048729
1000.048723
1000.048718
1000.048713
1000.048708
1000.048702
1000.048697
1000.048692
1000.048687
1000.048682
1000.048676
1000.048671
1000.048666
1000.048661
1000.048656
1000.048651
1000.048645
1000.04864
1000.048635
1000.04863
1000.048625
1000.048619
1000.048614
1000.048609
1000.048604
1000.048599
1000.048594
1000.048588
1000.048583
1000.048578
1000.048573
1000.048568
1000.048563
1000.048558
1000.048553
1000.048547
1000.048542
1000.048537
1000.048532
1000.048527
1000.048522
1000.048517
1000.048512
1000.048507
1000.048501
1000.048496
1000.048491
1000.048486
1000.048481
1000.048476
1000.048471
1000.048466
1000.048461
1000.048456
1000.048451
1000.048446
1000.048441
1000.048436
1000.048431
1000.048426
1000.048421
1000.048416
1000.048411
1000.048406
1000.048401
1000.048396
1000.048391
1000.048386
1000.048381
1000.048376
1000.048371
1000.048366
1000.048361
1000.048356
1000.048351
1000.048346
1000.048341
1000.048337
1000.048332
1000.048327
1000.048322
1000.048317
1000.048312
1000.048307
1000.048302
1000.048297
1000.048292
1000.048288
1000.048283
1000.048278
1000.048273
1000.048268
1000.048263
1000.048258
1000.048253
1000.048249
1000.048244
1000.048239
1000.048234
1000.048229
1000.048224
1000.04822
1000.048215
1000.04821
1000.048205
1000.0482
1000.048195
1000.048191
1000.048186
1000.048181
1000.048176
1000.048171
1000.048167
1000.048162
1000.048157
1000.048152
1000.048147
1000.048142
1000.048138
1000.048133
1000.048128
1000.048123
1000.048118
1000.048114
1000.048109
1000.048104
1000.048099
1000.048094
1000.04809
1000.048085
1000.04808
1000.048075
1000.04807
1000.048065
1000.048061
1000.048056
1000.048051
1000.048046
1000.048041
1000.048037
1000.048032
1000.048027
1000.048022
1000.048017
1000.048012
1000.048008
1000.048003
1000.047998
1000.047993
1000.047988
1000.047983
1000.047979
1000.047974
1000.047969
1000.047964
1000.047959
1000.047954
1000.04795
1000.047945
1000.04794
1000.047935
1000.04793
1000.047925
1000.04792
1000.047916
1000.047911
1000.047906
1000.047901
1000.047896
1000.047891
1000.047887
1000.047882
1000.047877
1000.047872
1000.047867
1000.047862
1000.047858
1000.047853
1000.047848
1000.047843
1000.047838
1000.047833
1000.047829
1000.047824
1000.047819
1000.047814
1000.047809
1000.047804
1000.0478
1000.047795
1000.04779
1000.047785
1000.04778
1000.047776
1000.047771
1000.047766
1000.047761
1000.047757
1000.047752
1000.047747
1000.047742
1000.047738
1000.047733
1000.047728
1000.047723
1000.047719
1000.047714
1000.047709
1000.047704
1000.0477
1000.047695
1000.04769
1000.047686
1000.047681
1000.047676
1000.047672
1000.047667
1000.047663
1000.047658
1000.047653
1000.047649
1000.047644
1000.04764
1000.047635
1000.047631
1000.047626
1000.047621
1000.047617
1000.047612
1000.047608
1000.047603
1000.047599
1000.047595
1000.04759
1000.047586
1000.047581
1000.047577
1000.047572