/*--------------------------------*- C++ -*----------------------------------*\
| =========                 |                                                 |
| \\      /  F ield         | OpenFOAM: The Open Source CFD Toolbox           |
|  \\    /   O peration     | Version:  2312                                  |
|   \\  /    A nd           | Website:  www.openfoam.com                      |
|    \\/     M anipulation  |                                                 |
\*---------------------------------------------------------------------------*/
FoamFile
{
    version     2.0;
    format      ascii;
    arch        "LSB;label=32;scalar=64";
    class       volScalarField;
    location    "0.005";
    object      T;
}
// * * * * * * * * * * * * * * * * * * * * * * * * * * * * * * * * * * * * * //

dimensions      [0 0 0 1 0 0 0];

internalField   nonuniform List<scalar> 
8000
(
298.0000734
297.9995837
297.999537
297.9996885
297.9997976
297.999893
298.000027
298.0002294
298.0004353
298.0005713
298.0006475
298.0006815
298.0006887
298.0006812
298.0006626
298.0006316
298.0005856
298.00052
298.000431
298.0003179
298.0001821
298.0000453
297.9999315
297.9998411
297.9997702
297.9997146
297.9996706
297.9996351
297.9996059
297.9995815
297.9995602
297.9995408
297.9995225
297.9995044
297.9994864
297.999468
297.9994494
297.9994307
297.9994119
297.9993932
297.9993746
297.9993563
297.9993385
297.9993215
297.9993055
297.9992903
297.9992758
297.9992617
297.9992481
297.9992347
297.9992215
297.9992087
297.9991962
297.999184
297.9991721
297.9991606
297.9991496
297.9991388
297.9991284
297.9991182
297.9991083
297.9990984
297.9990885
297.9990784
297.9990681
297.9990576
297.9990466
297.9990352
297.9990232
297.9990106
297.9989975
297.9989838
297.9989698
297.9989553
297.9989406
297.9989256
297.9989105
297.9988953
297.99888
297.9988647
297.9988494
297.9988343
297.9988193
297.9988045
297.9987899
297.9987755
297.9987613
297.9987473
297.9987336
297.99872
297.9987065
297.9986931
297.9986798
297.9986664
297.9986531
297.9986399
297.9986267
297.9986136
297.9986005
297.9985874
297.9985743
297.9985612
297.9985481
297.9985348
297.9985214
297.9985079
297.9984943
297.9984805
297.9984666
297.9984525
297.9984382
297.9984236
297.9984089
297.9983941
297.998379
297.9983638
297.9983483
297.9983326
297.9983168
297.9983007
297.9982845
297.9982682
297.9982517
297.9982351
297.9982185
297.9982019
297.9981853
297.9981687
297.9981522
297.9981359
297.9981197
297.9981037
297.998088
297.9980724
297.9980571
297.9980421
297.9980273
297.9980127
297.9979984
297.9979843
297.9979703
297.9979564
297.9979425
297.9979286
297.9979146
297.9979004
297.997886
297.9978712
297.9978561
297.9978406
297.9978246
297.9978081
297.9977911
297.9977736
297.9977557
297.9977373
297.9977185
297.9976995
297.9976802
297.9976608
297.9976414
297.9976221
297.9976031
297.9975846
297.9975668
297.9975498
297.9975336
297.9975186
297.9975048
297.9974921
297.9974809
297.9974711
297.9974627
297.997456
297.9974509
297.9974474
297.9974457
297.9974457
297.9974474
297.9974508
297.9974564
297.9974635
297.9974722
297.9974823
297.9974939
297.9975068
297.9975207
297.9975356
297.9975513
297.9975677
297.9975846
297.9976019
297.9976195
297.9976372
297.9976548
297.9976722
297.9976893
297.9977059
297.9977217
297.997737
297.9977515
297.997765
297.9977774
297.9977888
297.9977992
297.9978085
297.9978167
297.9978236
297.9978292
297.9978336
297.9978368
297.997839
297.99784
297.9978398
297.9978385
297.9978361
297.9978323
297.9978275
297.9978214
297.9978146
297.9978068
297.9977979
297.9977881
297.9977773
297.9977657
297.9977532
297.9977401
297.9977262
297.9977117
297.9976967
297.9976811
297.997665
297.9976486
297.9976318
297.9976147
297.9975975
297.9975802
297.9975629
297.9975457
297.9975286
297.9975117
297.9974949
297.9974784
297.9974621
297.997446
297.9974301
297.9974144
297.997399
297.9973838
297.9973689
297.9973543
297.9973401
297.9973264
297.9973132
297.9973005
297.9972883
297.9972767
297.9972656
297.9972551
297.9972451
297.9972357
297.9972268
297.9972183
297.9972102
297.9972025
297.9971951
297.997188
297.9971812
297.9971746
297.9971683
297.9971622
297.9971564
297.9971507
297.9971453
297.9971401
297.997135
297.99713
297.9971252
297.9971204
297.9971157
297.9971111
297.9971066
297.9971021
297.9970976
297.9970932
297.9970889
297.9970846
297.9970804
297.9970762
297.9970721
297.997068
297.997064
297.9970599
297.9970559
297.9970519
297.997048
297.9970441
297.9970403
297.9970366
297.997033
297.9970296
297.9970262
297.9970229
297.9970197
297.9970167
297.9970137
297.9970108
297.997008
297.9970052
297.9970025
297.9969999
297.9969973
297.9969948
297.9969923
297.9969899
297.9969876
297.9969854
297.9969833
297.9969812
297.9969792
297.9969773
297.9969754
297.9969735
297.9969718
297.99697
297.9969684
297.9969668
297.9969654
297.996964
297.9969628
297.9969616
297.9969605
297.9969595
297.9969587
297.9969579
297.9969573
297.9969568
297.9969564
297.9969561
297.996956
297.996956
297.9969561
297.9969563
297.9969568
297.9969574
297.9969582
297.9969592
297.9969604
297.9969618
297.9969634
297.9969653
297.9969673
297.9969696
297.9969721
297.9969748
297.9969777
297.9969808
297.996984
297.9969875
297.9969911
297.9969949
297.9969988
297.9970028
297.997007
297.9970113
297.9970157
297.9970202
297.9970248
297.9970295
297.9970342
297.9970388
297.9970435
297.9970482
297.9970528
297.9970574
297.9970621
297.9970667
297.9970713
297.9970759
297.9970804
297.9970849
297.9970894
297.9970937
297.9970981
297.9971023
297.9971064
297.9971104
297.9971143
297.9971181
297.9971219
297.9971256
297.9971293
297.997133
297.9971367
297.9971403
297.997144
297.9971476
297.9971512
297.9971547
297.9971584
297.997162
297.9971656
297.9971693
297.997173
297.9971767
297.9971805
297.9971843
297.9971883
297.9971923
297.9971963
297.9972005
297.9972047
297.9972091
297.9972135
297.997218
297.9972226
297.9972273
297.9972322
297.9972371
297.9972422
297.9972474
297.9972527
297.9972581
297.9972636
297.9972693
297.9972751
297.9972809
297.9972869
297.9972931
297.9972993
297.9973057
297.9973121
297.9973187
297.9973254
297.9973322
297.997339
297.997346
297.9973531
297.9973603
297.9973676
297.997375
297.9973825
297.9973901
297.9973978
297.9974055
297.9974134
297.9974213
297.9974293
297.9974374
297.9974456
297.9974538
297.9974622
297.9974707
297.9974792
297.9974879
297.9974966
297.9975054
297.9975143
297.9975232
297.9975322
297.9975413
297.9975505
297.9975598
297.9975692
297.9975787
297.9975882
297.9975979
297.9976077
297.9976175
297.9976275
297.9976375
297.9976475
297.9976575
297.9976677
297.9976778
297.9976881
297.9976984
297.9977089
297.9977194
297.99773
297.9977406
297.9977514
297.9977622
297.9977732
297.9977842
297.9977952
297.9978063
297.9978175
297.9978288
297.9978402
297.9978516
297.9978631
297.9978747
297.9978863
297.997898
297.9979098
297.9979216
297.9979335
297.9979455
297.9979575
297.9979696
297.9979818
297.997994
297.9980064
297.9980188
297.9980312
297.9980437
297.9980563
297.998069
297.9980817
297.9980944
297.9981072
297.9981201
297.998133
297.998146
297.998159
297.9981721
297.9981853
297.9981985
297.9982117
297.9982251
297.9982385
297.9982519
297.9982654
297.9982789
297.9982925
297.9983062
297.9983198
297.9983336
297.9983473
297.9983611
297.9983749
297.9983888
297.9984027
297.9984167
297.9984307
297.9984448
297.9984589
297.9984731
297.9984872
297.9985015
297.9985157
297.99853
297.9985444
297.9985587
297.9985731
297.9985874
297.9986018
297.9986163
297.9986307
297.9986451
297.9986596
297.9986741
297.9986886
297.9987031
297.9987177
297.9987323
297.9987468
297.9987614
297.998776
297.9987906
297.9988053
297.9988199
297.9988345
297.9988492
297.9988638
297.9988785
297.9988932
297.9989079
297.9989226
297.9989373
297.9989519
297.9989666
297.9989813
297.998996
297.9990107
297.9990253
297.99904
297.9990546
297.9990693
297.9990839
297.9990986
297.9991132
297.9991279
297.9991426
297.9991573
297.999172
297.9991868
297.9992016
297.9992164
297.9992312
297.999246
297.9992608
297.9992756
297.9992903
297.9993051
297.9993199
297.9993346
297.9993493
297.9993641
297.9993788
297.9993936
297.9994084
297.9994232
297.999438
297.9994529
297.9994677
297.9994826
297.9994974
297.9995122
297.999527
297.9995418
297.9995566
297.9995714
297.9995861
297.9996008
297.9996155
297.9996302
297.9996449
297.9996596
297.9996743
297.999689
297.9997036
297.9997183
297.9997329
297.9997475
297.9997621
297.9997767
297.9997913
297.9998058
297.9998204
297.9998349
297.9998494
297.9998639
297.9998784
297.9998928
297.9999072
297.9999215
297.9999358
297.9999501
297.9999644
297.9999786
297.9999929
298.0000071
298.0000212
298.0000354
298.0000495
298.0000637
298.0000778
298.0000918
298.0001059
298.0001199
298.0001339
298.0001478
298.0001617
298.0001756
298.0001895
298.0002033
298.0002171
298.0002309
298.0002447
298.0002584
298.0002722
298.0002859
298.0002996
298.0003132
298.0003268
298.0003404
298.000354
298.0003675
298.000381
298.0003945
298.0004079
298.0004214
298.0004348
298.0004483
298.0004617
298.0004751
298.0004884
298.0005018
298.0005151
298.0005284
298.0005417
298.000555
298.0005682
298.0005814
298.0005946
298.0006077
298.0006208
298.0006339
298.000647
298.0006601
298.0006731
298.0006862
298.0006992
298.0007123
298.0007253
298.0007383
298.0007513
298.0007643
298.0007772
298.0007901
298.000803
298.0008159
298.0008288
298.0008417
298.0008546
298.0008675
298.0008803
298.0008932
298.000906
298.0009188
298.0009316
298.0009444
298.0009571
298.0009698
298.0009825
298.0009951
298.0010078
298.0010204
298.0010331
298.0010457
298.0010584
298.0010711
298.0010838
298.0010965
298.0011091
298.0011217
298.0011343
298.0011468
298.0011594
298.0011719
298.0011844
298.0011969
298.0012093
298.0012218
298.0012343
298.0012467
298.0012592
298.0012717
298.0012841
298.0012966
298.001309
298.0013215
298.0013339
298.0013463
298.0013587
298.0013711
298.0013834
298.0013957
298.001408
298.0014203
298.0014326
298.0014449
298.0014572
298.0014694
298.0014816
298.0014939
298.0015061
298.0015182
298.0015304
298.0015426
298.0015548
298.001567
298.0015791
298.0015913
298.0016035
298.0016156
298.0016278
298.0016399
298.001652
298.0016641
298.0016761
298.0016882
298.0017002
298.0017122
298.0017242
298.0017361
298.0017481
298.00176
298.001772
298.0017839
298.0017958
298.0018077
298.0018196
298.0018314
298.0018433
298.0018551
298.0018669
298.0018787
298.0018905
298.0019022
298.0019139
298.0019257
298.0019374
298.0019491
298.0019607
298.0019723
298.0019839
298.0019955
298.0020069
298.0020183
298.0020296
298.0020408
298.002052
298.0020632
298.0020743
298.0020854
298.0020965
298.0021076
298.0021186
298.0021296
298.0021406
298.0021515
298.0021623
298.0021731
298.0021839
298.0021945
298.0022051
298.0022155
298.0022258
298.0022361
298.0022461
298.002256
298.0022659
298.0022756
298.0022852
298.0022947
298.002304
298.0023133
298.0023224
298.0023314
298.0023403
298.0023489
298.0023575
298.0023658
298.002374
298.002382
298.0023899
298.0023976
298.0024052
298.0024126
298.0024198
298.0024268
298.0024336
298.0024403
298.0024468
298.0024531
298.0024592
298.002465
298.0024707
298.0024762
298.0024815
298.0024866
298.0024915
298.0024963
298.0025008
298.0025051
298.0025093
298.0025133
298.002517
298.0025206
298.002524
298.0025271
298.00253
298.0025327
298.0025353
298.0025377
298.00254
298.0025421
298.0025441
298.002546
298.0025478
298.0025493
298.0025507
298.0025519
298.002553
298.0025539
298.0025548
298.0025555
298.0025562
298.0025567
298.002557
298.0025573
298.0025575
298.0025575
298.0025575
298.0025574
298.0025571
298.0025567
298.0025562
298.0025556
298.0025549
298.0025541
298.0025532
298.0025523
298.0025513
298.0025503
298.0025492
298.0025481
298.0025469
298.0025457
298.0025444
298.0025431
298.0025417
298.0025402
298.0025387
298.0025371
298.0025355
298.0025338
298.0025321
298.0025303
298.0025284
298.0025265
298.0025244
298.0025224
298.0025202
298.002518
298.0025158
298.0025136
298.0025113
298.002509
298.0025066
298.0025041
298.0025016
298.0024991
298.0024965
298.0024939
298.0024911
298.0024883
298.0024853
298.0024822
298.002479
298.0024757
298.0024724
298.0024689
298.0024655
298.002462
298.0024585
298.0024548
298.0024511
298.0024474
298.0024435
298.0024396
298.0024355
298.0024314
298.0024272
298.0024228
298.0024183
298.0024137
298.0024089
298.002404
298.0023991
298.0023941
298.0023889
298.0023836
298.0023783
298.0023728
298.0023672
298.0023614
298.0023555
298.0023495
298.0023434
298.0023373
298.002331
298.0023245
298.002318
298.0023114
298.0023047
298.0022979
298.002291
298.002284
298.0022769
298.0022697
298.0022624
298.0022549
298.0022474
298.0022397
298.0022319
298.0022241
298.0022161
298.0022081
298.0021999
298.0021918
298.0021835
298.0021752
298.0021669
298.0021585
298.0021501
298.0021417
298.0021332
298.0021247
298.0021162
298.0021076
298.0020991
298.0020906
298.002082
298.0020735
298.0020651
298.0020567
298.0020484
298.00204
298.0020317
298.0020235
298.0020152
298.0020071
298.001999
298.0019911
298.0019834
298.0019757
298.0019682
298.0019607
298.0019535
298.0019463
298.0019394
298.0019327
298.001926
298.0019196
298.0019133
298.0019071
298.0019012
298.0018955
298.0018899
298.0018846
298.0018794
298.0018744
298.0018698
298.0018653
298.001861
298.0018568
298.0018529
298.0018493
298.0018459
298.0018426
298.0018397
298.0018369
298.0018344
298.001832
298.00183
298.0018281
298.0018264
298.001825
298.0018238
298.0018228
298.0018219
298.0018213
298.0018208
298.0018204
298.0018203
298.0018203
298.0018206
298.001821
298.0018215
298.0018222
298.0018231
298.0018241
298.0018253
298.0018267
298.0018282
298.0018298
298.0018316
298.0018334
298.0018353
298.0018373
298.0018395
298.0018417
298.001844
298.0018463
298.0018487
298.0018511
298.0018537
298.0018564
298.0018591
298.0018619
298.0018647
298.0018675
298.0018703
298.0018732
298.0018761
298.001879
298.001882
298.0018851
298.0018881
298.0018911
298.001894
298.001897
298.0018999
298.0019029
298.0019058
298.0019088
298.0019117
298.0019146
298.0019175
298.0019204
298.0019233
298.0019262
298.0019291
298.0019319
298.0019347
298.0019374
298.0019401
298.0019426
298.0019451
298.0019475
298.0019499
298.0019522
298.0019545
298.0019567
298.001959
298.0019611
298.0019631
298.0019651
298.0019671
298.0019689
298.0019706
298.0019722
298.0019736
298.0019749
298.0019761
298.0019772
298.0019783
298.0019793
298.0019802
298.0019809
298.0019813
298.0019816
298.0019816
298.0019816
298.0019813
298.001981
298.0019804
298.0019798
298.0019788
298.0019776
298.0019762
298.0019746
298.0019727
298.0019705
298.001968
298.0019653
298.0019624
298.0019592
298.0019557
298.001952
298.0019479
298.0019434
298.0019387
298.0019338
298.0019284
298.0019227
298.0019166
298.0019102
298.0019036
298.0018966
298.0018891
298.0018812
298.0018729
298.0018642
298.001855
298.0018455
298.0018356
298.0018252
298.0018143
298.001803
298.0017914
298.0017795
298.001767
298.0017541
298.0017406
298.0017266
298.0017122
298.0016974
298.0016822
298.0016665
298.0016503
298.0016335
298.0016163
298.0015986
298.0015805
298.0015618
298.0015426
298.0015228
298.0015026
298.001482
298.0014607
298.0014387
298.0014164
298.0013937
298.0013706
298.0013471
298.0013229
298.0012982
298.0012729
298.0012472
298.0012212
298.0011943
298.0011671
298.0011394
298.001111
298.0010823
298.0010533
298.0010237
298.0009937
298.000963
298.000932
298.0009004
298.0008684
298.0008358
298.0008026
298.000769
298.000735
298.0007006
298.0006656
298.0006301
298.0005943
298.0005579
298.0005211
298.0004841
298.0004465
298.0004084
298.0003699
298.0003311
298.0002918
298.0002521
298.0002119
298.0001712
298.0001302
298.0000888
298.0000468
298.0000045
297.9999617
297.9999185
297.9998748
297.9998308
297.9997865
297.9997419
297.999697
297.9996517
297.9996061
297.9995599
297.9995133
297.9994665
297.9994193
297.9993718
297.999324
297.9992758
297.9992273
297.9991785
297.9991293
297.9990799
297.99903
297.9989799
297.9989296
297.998879
297.9988282
297.9987771
297.9987256
297.9986738
297.9986218
297.9985695
297.998517
297.9984643
297.9984114
297.9983582
297.9983049
297.9982513
297.9981976
297.9981437
297.9980898
297.9980356
297.9979813
297.9979267
297.997872
297.9978171
297.9977622
297.9977071
297.997652
297.9975967
297.9975413
297.9974859
297.9974304
297.9973747
297.9973191
297.9972634
297.9972077
297.997152
297.9970962
297.9970406
297.996985
297.9969294
297.9968739
297.9968184
297.9967629
297.9967075
297.9966521
297.9965968
297.9965416
297.9964867
297.9964319
297.9963773
297.9963228
297.9962684
297.9962142
297.9961601
297.9961062
297.9960524
297.9959987
297.9959453
297.9958921
297.9958393
297.9957867
297.9957344
297.9956825
297.9956308
297.9955795
297.9955285
297.9954778
297.9954273
297.9953772
297.9953275
297.9952781
297.995229
297.9951803
297.9951322
297.9950844
297.995037
297.99499
297.9949435
297.9948975
297.994852
297.994807
297.9947624
297.9947182
297.9946744
297.9946312
297.9945889
297.9945467
297.9945054
297.9944643
297.9944237
297.9943837
297.9943442
297.9943054
297.9942672
297.9942298
297.994193
297.9941565
297.9941205
297.994085
297.9940499
297.9940156
297.993982
297.9939489
297.9939165
297.9938846
297.9938537
297.9938232
297.9937931
297.9937637
297.993735
297.9937068
297.993679
297.993652
297.9936254
297.9935995
297.9935744
297.9935498
297.9935256
297.9935023
297.9934793
297.9934571
297.9934353
297.9934139
297.993393
297.9933726
297.9933527
297.9933333
297.9933144
297.9932959
297.993278
297.9932603
297.9932431
297.9932265
297.9932102
297.9931945
297.993179
297.9931639
297.9931492
297.9931349
297.9931208
297.9931071
297.9930936
297.9930804
297.9930674
297.9930548
297.9930425
297.9930303
297.9930183
297.9930065
297.9929949
297.9929834
297.9929721
297.9929608
297.9929496
297.9929384
297.9929274
297.9929166
297.9929058
297.9928951
297.9928843
297.9928734
297.9928626
297.9928518
297.9928409
297.9928301
297.9928193
297.9928083
297.9927973
297.9927861
297.9927749
297.9927637
297.9927524
297.9927409
297.9927293
297.9927177
297.992706
297.9926941
297.992682
297.9926698
297.9926576
297.9926452
297.9926328
297.9926201
297.9926075
297.9925948
297.9925821
297.9925692
297.9925562
297.9925429
297.9925296
297.9925162
297.9925028
297.9924895
297.9924763
297.9924631
297.99245
297.9924369
297.9924238
297.9924106
297.9923975
297.9923847
297.9923721
297.9923595
297.9923469
297.9923347
297.9923227
297.992311
297.9922994
297.9922881
297.9922774
297.9922669
297.9922566
297.9922465
297.992237
297.9922281
297.9922195
297.9922116
297.9922041
297.9921972
297.9921912
297.9921855
297.9921801
297.9921753
297.9921712
297.9921681
297.9921659
297.9921645
297.9921638
297.992164
297.9921648
297.9921667
297.9921693
297.9921729
297.992178
297.9921835
297.9921899
297.9921977
297.9922067
297.9922166
297.9922276
297.9922399
297.9922533
297.9922679
297.9922835
297.9923006
297.9923189
297.9923384
297.9923589
297.9923809
297.9924041
297.992429
297.9924558
297.9924837
297.9925126
297.9925429
297.9925746
297.9926079
297.9926432
297.9926796
297.9927169
297.9927569
297.9927979
297.99284
297.9928842
297.9929293
297.9929759
297.9930243
297.9930746
297.9931261
297.9931795
297.9932344
297.9932906
297.9933481
297.9934069
297.9934676
297.9935303
297.9935943
297.9936601
297.9937271
297.9937954
297.9938651
297.9939365
297.9940097
297.9940846
297.9941604
297.9942377
297.9943165
297.9943968
297.9944785
297.9945617
297.9946465
297.9947323
297.9948197
297.9949081
297.9949979
297.9950891
297.9951813
297.9952746
297.9953691
297.9954653
297.9955625
297.9956613
297.9957613
297.9958623
297.9959642
297.9960671
297.9961709
297.9962757
297.9963815
297.9964883
297.9965962
297.9967051
297.9968146
297.9969251
297.9970364
297.9971484
297.9972611
297.9973743
297.9974884
297.9976035
297.9977192
297.9978352
297.9979514
297.9980681
297.9981857
297.9983037
297.9984222
297.9985409
297.9986599
297.9987792
297.9988989
297.9990189
297.9991391
297.9992594
297.9993798
297.9995003
297.9996208
297.9997413
297.9998618
297.9999824
298.0001028
298.000223
298.000343
298.0004628
298.0005824
298.0007017
298.0008207
298.0009395
298.0010581
298.0011761
298.0012939
298.0014109
298.0015274
298.001643
298.0017585
298.0018734
298.0019881
298.0021014
298.002214
298.0023255
298.0024366
298.0025473
298.0026573
298.0027664
298.0028745
298.0029813
298.0030873
298.0031924
298.0032965
298.0033996
298.0035016
298.0036025
298.0037023
298.0038011
298.0038992
298.0039958
298.0040908
298.0041849
298.0042775
298.0043688
298.004459
298.0045479
298.0046358
298.0047222
298.0048072
298.0048909
298.0049729
298.0050539
298.0051333
298.0052116
298.0052878
298.0053628
298.0054361
298.0055084
298.005579
298.0056477
298.0057151
298.0057811
298.0058459
298.0059096
298.0059709
298.0060304
298.0060884
298.0061456
298.0062007
298.0062541
298.0063061
298.0063564
298.0064052
298.0064525
298.0064984
298.0065425
298.0065855
298.006626
298.0066651
298.0067029
298.0067393
298.0067737
298.0068068
298.0068384
298.0068686
298.0068972
298.0069242
298.0069495
298.0069728
298.0069952
298.0070158
298.007035
298.0070532
298.0070696
298.0070843
298.0070976
298.0071099
298.0071207
298.0071298
298.0071376
298.0071439
298.0071491
298.0071524
298.0071551
298.0071559
298.0071557
298.0071542
298.0071515
298.0071476
298.0071425
298.0071361
298.0071284
298.0071194
298.0071093
298.0070982
298.0070856
298.0070719
298.007057
298.0070412
298.0070243
298.0070064
298.0069874
298.0069673
298.0069462
298.0069242
298.0069011
298.0068771
298.0068522
298.0068264
298.0067997
298.0067721
298.0067437
298.0067145
298.0066844
298.0066536
298.006622
298.0065897
298.0065566
298.0065229
298.0064885
298.0064535
298.0064178
298.0063815
298.0063444
298.0063068
298.0062687
298.0062302
298.0061913
298.0061517
298.0061117
298.0060712
298.0060301
298.0059887
298.005947
298.0059048
298.0058623
298.0058195
298.0057764
298.0057329
298.0056893
298.0056453
298.0056011
298.0055567
298.005512
298.0054672
298.0054222
298.005377
298.0053316
298.0052862
298.0052407
298.0051951
298.0051495
298.0051039
298.0050582
298.0050124
298.0049666
298.0049208
298.0048749
298.0048292
298.0047834
298.0047378
298.0046921
298.0046466
298.0046013
298.0045561
298.004511
298.0044661
298.0044212
298.0043764
298.0043318
298.0042873
298.0042431
298.0041991
298.0041554
298.0041119
298.0040685
298.0040253
298.0039824
298.0039397
298.0038973
298.0038553
298.0038134
298.0037718
298.0037305
298.0036895
298.0036487
298.0036083
298.0035682
298.0035285
298.0034891
298.0034499
298.003411
298.0033725
298.0033344
298.0032966
298.0032591
298.0032219
298.003185
298.0031485
298.0031125
298.0030769
298.0030417
298.0030067
298.002972
298.0029378
298.0029039
298.0028703
298.0028371
298.0028044
298.0027721
298.0027399
298.0027082
298.002677
298.002646
298.0026156
298.0025855
298.0025558
298.0025262
298.0024971
298.0024685
298.0024402
298.0024123
298.0023846
298.0023573
298.0023306
298.0023042
298.0022781
298.0022523
298.0022269
298.0022018
298.0021771
298.0021528
298.0021287
298.0021051
298.0020818
298.0020589
298.0020362
298.0020138
298.0019919
298.0019704
298.001949
298.0019281
298.0019073
298.001887
298.001867
298.0018472
298.0018278
298.0018087
298.0017898
298.0017714
298.0017531
298.0017352
298.0017176
298.0017002
298.0016832
298.0016664
298.0016499
298.0016335
298.0016175
298.0016018
298.0015864
298.0015711
298.0015561
298.0015414
298.0015269
298.0015127
298.0014987
298.001485
298.0014713
298.001458
298.0014449
298.001432
298.0014193
298.0014069
298.0013947
298.0013826
298.0013708
298.0013591
298.0013477
298.0013364
298.0013253
298.0013144
298.0013037
298.0012931
298.0012828
298.0012726
298.0012625
298.0012527
298.001243
298.0012334
298.001224
298.0012148
298.0012057
298.0011967
298.0011879
298.0011792
298.0011707
298.0011623
298.001154
298.0011459
298.0011379
298.00113
298.0011222
298.0011146
298.001107
298.0010996
298.0010923
298.0010851
298.001078
298.001071
298.0010641
298.0010573
298.0010506
298.001044
298.0010375
298.0010311
298.0010248
298.0010185
298.0010124
298.0010063
298.0010003
298.0009944
298.0009886
298.0009828
298.0009771
298.0009715
298.000966
298.0009605
298.0009551
298.0009498
298.0009445
298.0009393
298.0009341
298.000929
298.000924
298.000919
298.0009141
298.0009093
298.0009044
298.0008997
298.000895
298.0008903
298.0008857
298.0008812
298.0008766
298.0008722
298.0008677
298.0008634
298.000859
298.0008547
298.0008505
298.0008463
298.0008421
298.000838
298.0008339
298.0008298
298.0008258
298.0008218
298.0008178
298.0008139
298.00081
298.0008061
298.0008023
298.0007985
298.0007947
298.000791
298.0007872
298.0007836
298.0007799
298.0007763
298.0007727
298.0007691
298.0007655
298.000762
298.0007585
298.000755
298.0007516
298.0007481
298.0007447
298.0007413
298.000738
298.0007346
298.0007313
298.000728
298.0007247
298.0007214
298.0007182
298.0007149
298.0007117
298.0007085
298.0007054
298.0007022
298.0006991
298.0006959
298.0006928
298.0006897
298.0006867
298.0006836
298.0006806
298.0006775
298.0006745
298.0006715
298.0006685
298.0006656
298.0006626
298.0006597
298.0006567
298.0006538
298.0006509
298.000648
298.0006451
298.0006422
298.0006394
298.0006365
298.0006337
298.0006309
298.0006281
298.0006253
298.0006225
298.0006197
298.0006169
298.0006141
298.0006114
298.0006087
298.0006059
298.0006032
298.0006005
298.0005978
298.0005951
298.0005924
298.0005897
298.000587
298.0005843
298.0005817
298.000579
298.0005764
298.0005738
298.0005711
298.0005685
298.0005659
298.0005633
298.0005607
298.0005581
298.0005555
298.0005529
298.0005503
298.0005477
298.0005451
298.0005426
298.00054
298.0005375
298.0005349
298.0005324
298.0005298
298.0005273
298.0005247
298.0005222
298.0005197
298.0005172
298.0005146
298.0005121
298.0005096
298.0005071
298.0005046
298.0005021
298.0004996
298.0004971
298.0004946
298.0004921
298.0004896
298.0004871
298.0004846
298.0004822
298.0004797
298.0004772
298.0004747
298.0004723
298.0004698
298.0004673
298.0004649
298.0004624
298.0004599
298.0004575
298.000455
298.0004526
298.0004501
298.0004476
298.0004452
298.0004427
298.0004403
298.0004378
298.0004354
298.0004329
298.0004305
298.0004281
298.0004256
298.0004232
298.0004207
298.0004183
298.0004158
298.0004134
298.0004109
298.0004085
298.0004061
298.0004036
298.0004012
298.0003987
298.0003963
298.0003938
298.0003914
298.000389
298.0003865
298.0003841
298.0003817
298.0003792
298.0003768
298.0003743
298.0003719
298.0003695
298.000367
298.0003646
298.0003621
298.0003597
298.0003573
298.0003548
298.0003524
298.00035
298.0003475
298.0003451
298.0003426
298.0003402
298.0003378
298.0003353
298.0003329
298.0003304
298.000328
298.0003256
298.0003231
298.0003207
298.0003182
298.0003158
298.0003134
298.0003109
298.0003085
298.000306
298.0003036
298.0003012
298.0002987
298.0002963
298.0002938
298.0002914
298.0002889
298.0002865
298.0002841
298.0002816
298.0002792
298.0002767
298.0002743
298.0002718
298.0002694
298.0002669
298.0002645
298.000262
298.0002595
298.0002571
298.0002546
298.0002522
298.0002498
298.0002473
298.0002449
298.0002424
298.00024
298.0002376
298.0002351
298.0002327
298.0002302
298.0002278
298.0002253
298.0002229
298.0002204
298.000218
298.0002155
298.0002131
298.0002106
298.0002081
298.0002057
298.0002032
298.0002008
298.0001983
298.0001959
298.0001934
298.000191
298.0001885
298.0001861
298.0001836
298.0001812
298.0001787
298.0001763
298.0001738
298.0001714
298.0001689
298.0001665
298.000164
298.0001616
298.0001591
298.0001567
298.0001542
298.0001518
298.0001493
298.0001469
298.0001445
298.000142
298.0001396
298.0001371
298.0001347
298.0001323
298.0001298
298.0001274
298.0001249
298.0001225
298.0001201
298.0001176
298.0001152
298.0001127
298.0001103
298.0001079
298.0001055
298.000103
298.0001006
298.0000982
298.0000958
298.0000933
298.0000909
298.0000885
298.0000861
298.0000837
298.0000813
298.0000789
298.0000764
298.000074
298.0000716
298.0000692
298.0000668
298.0000644
298.000062
298.0000596
298.0000572
298.0000549
298.0000525
298.0000501
298.0000477
298.0000453
298.0000429
298.0000406
298.0000382
298.0000358
298.0000334
298.0000311
298.0000287
298.0000263
298.000024
298.0000216
298.0000193
298.0000169
298.0000146
298.0000122
298.0000099
298.0000075
298.0000052
298.0000028
298.0000005
297.9999981
297.9999957
297.9999934
297.999991
297.9999887
297.9999864
297.999984
297.9999817
297.9999794
297.9999772
297.9999749
297.9999726
297.9999703
297.999968
297.9999657
297.9999635
297.9999612
297.9999589
297.9999566
297.9999543
297.999952
297.9999496
297.9999473
297.999945
297.9999427
297.9999404
297.9999381
297.9999359
297.9999336
297.9999313
297.999929
297.9999268
297.9999245
297.9999222
297.99992
297.9999177
297.9999154
297.9999132
297.9999109
297.9999086
297.9999064
297.9999041
297.9999018
297.9998996
297.9998973
297.999895
297.9998928
297.9998905
297.9998882
297.999886
297.9998837
297.9998814
297.9998792
297.9998769
297.9998747
297.9998724
297.9998702
297.9998679
297.9998656
297.9998634
297.9998611
297.9998589
297.9998566
297.9998543
297.9998521
297.9998498
297.9998475
297.9998453
297.999843
297.9998408
297.9998385
297.9998362
297.999834
297.9998317
297.9998294
297.9998272
297.9998249
297.9998226
297.9998204
297.9998181
297.9998159
297.9998136
297.9998113
297.999809
297.9998068
297.9998045
297.9998022
297.9997999
297.9997977
297.9997954
297.9997931
297.9997908
297.9997886
297.9997863
297.999784
297.9997818
297.9997795
297.9997772
297.9997749
297.9997727
297.9997704
297.9997681
297.9997659
297.9997636
297.9997613
297.999759
297.9997568
297.9997545
297.9997522
297.9997499
297.9997476
297.9997454
297.9997431
297.9997408
297.9997386
297.9997363
297.999734
297.9997318
297.9997295
297.9997272
297.999725
297.9997227
297.9997204
297.9997182
297.9997159
297.9997137
297.9997114
297.9997092
297.9997069
297.9997047
297.9997025
297.9997002
297.999698
297.9996957
297.9996935
297.9996913
297.9996891
297.9996868
297.9996846
297.9996824
297.9996802
297.999678
297.9996758
297.9996736
297.9996714
297.9996692
297.999667
297.9996648
297.9996626
297.9996604
297.9996583
297.9996561
297.9996539
297.9996518
297.9996496
297.9996475
297.9996453
297.9996432
297.999641
297.9996389
297.9996368
297.9996347
297.9996326
297.9996305
297.9996284
297.9996263
297.9996242
297.9996221
297.99962
297.9996179