/*--------------------------------*- C++ -*----------------------------------*\
| =========                 |                                                 |
| \\      /  F ield         | OpenFOAM: The Open Source CFD Toolbox           |
|  \\    /   O peration     | Version:  2312                                  |
|   \\  /    A nd           | Website:  www.openfoam.com                      |
|    \\/     M anipulation  |                                                 |
\*---------------------------------------------------------------------------*/
FoamFile
{
    version     2.0;
    format      ascii;
    arch        "LSB;label=32;scalar=64";
    class       volScalarField;
    location    "0.005";
    object      thermo:psiGasEff;
}
// * * * * * * * * * * * * * * * * * * * * * * * * * * * * * * * * * * * * * //

dimensions      [-2 4 2 0 0 0 0];

internalField   nonuniform List<scalar> 
8000
(
7.471129939e-06
8.318233736e-06
8.608581761e-06
8.535539161e-06
8.533458437e-06
8.551838609e-06
8.56942202e-06
8.589004833e-06
8.613751867e-06
8.64143825e-06
8.669624269e-06
8.696730746e-06
8.721920581e-06
8.744921559e-06
8.765807137e-06
8.784759095e-06
8.801911305e-06
8.817281367e-06
8.83081475e-06
8.842387803e-06
8.851867245e-06
8.859175482e-06
8.864401255e-06
8.867843034e-06
8.869978777e-06
8.871438869e-06
8.872956671e-06
8.87526808e-06
8.879021036e-06
8.884679917e-06
8.892517478e-06
8.902598916e-06
8.914729114e-06
8.928642464e-06
8.943987738e-06
8.960381367e-06
8.977408786e-06
8.994642574e-06
9.011715268e-06
9.028360844e-06
9.044393632e-06
9.059708466e-06
9.074268419e-06
9.08809933e-06
9.101268931e-06
9.113859251e-06
9.12596207e-06
9.137670965e-06
9.149054068e-06
9.160176827e-06
9.171075084e-06
9.181756156e-06
9.192219335e-06
9.202443034e-06
9.212402763e-06
9.222075724e-06
9.231450627e-06
9.240532104e-06
9.249344178e-06
9.257932147e-06
9.266361261e-06
9.274709465e-06
9.283067367e-06
9.291548247e-06
9.300250942e-06
9.309263509e-06
9.318658885e-06
9.328494367e-06
9.338805576e-06
9.349606682e-06
9.36088637e-06
9.372623842e-06
9.384770447e-06
9.397286167e-06
9.410083478e-06
9.423101938e-06
9.436317335e-06
9.449622501e-06
9.462968961e-06
9.476309295e-06
9.489617915e-06
9.502849752e-06
9.515977974e-06
9.528967321e-06
9.54184121e-06
9.554567615e-06
9.567159249e-06
9.579616513e-06
9.591947547e-06
9.604162978e-06
9.616275945e-06
9.628301056e-06
9.640253783e-06
9.652150165e-06
9.664007048e-06
9.675841353e-06
9.687668646e-06
9.699506287e-06
9.711369765e-06
9.723275604e-06
9.73524071e-06
9.747277451e-06
9.759406795e-06
9.771639289e-06
9.78398494e-06
9.796466148e-06
9.809096912e-06
9.821882853e-06
9.834842173e-06
9.848002382e-06
9.861337881e-06
9.874863849e-06
9.888639263e-06
9.902613814e-06
9.916801026e-06
9.931197012e-06
9.945828362e-06
9.96067591e-06
9.975740423e-06
9.991011998e-06
1.000647364e-05
1.002210706e-05
1.003788887e-05
1.005379134e-05
1.00697825e-05
1.008582611e-05
1.010188396e-05
1.011791698e-05
1.013388798e-05
1.014975978e-05
1.016549861e-05
1.018107345e-05
1.019645872e-05
1.02116368e-05
1.022659785e-05
1.02413357e-05
1.025587998e-05
1.027021854e-05
1.02843922e-05
1.029839906e-05
1.031232011e-05
1.032619916e-05
1.034007504e-05
1.035403628e-05
1.036814461e-05
1.038249044e-05
1.039708977e-05
1.041202227e-05
1.042733068e-05
1.044310241e-05
1.045936756e-05
1.047615929e-05
1.049350577e-05
1.051140144e-05
1.052982324e-05
1.054874683e-05
1.056811415e-05
1.058785124e-05
1.060786593e-05
1.06280463e-05
1.064825759e-05
1.066835447e-05
1.068818579e-05
1.070759214e-05
1.072641726e-05
1.074449986e-05
1.076168095e-05
1.077779774e-05
1.079271606e-05
1.080638363e-05
1.081852199e-05
1.082910265e-05
1.083805322e-05
1.084526203e-05
1.085064973e-05
1.085418297e-05
1.085584311e-05
1.085563772e-05
1.085355077e-05
1.084955845e-05
1.084368687e-05
1.083602789e-05
1.082669951e-05
1.081580264e-05
1.08034462e-05
1.078977173e-05
1.077492775e-05
1.07590704e-05
1.074236354e-05
1.072497397e-05
1.070706982e-05
1.068881873e-05
1.067038562e-05
1.065193823e-05
1.063363465e-05
1.061561696e-05
1.059802139e-05
1.058096842e-05
1.056457625e-05
1.054894034e-05
1.053415224e-05
1.052029585e-05
1.050744848e-05
1.049566959e-05
1.048499592e-05
1.047549702e-05
1.046718164e-05
1.046007312e-05
1.045420093e-05
1.044956949e-05
1.044617904e-05
1.044401349e-05
1.044307358e-05
1.044333889e-05
1.044480794e-05
1.044751978e-05
1.045140674e-05
1.045641708e-05
1.046258114e-05
1.046980411e-05
1.047806567e-05
1.048732238e-05
1.049753073e-05
1.050864125e-05
1.052061224e-05
1.053336628e-05
1.054684335e-05
1.056099383e-05
1.057578811e-05
1.059118101e-05
1.060711871e-05
1.062354839e-05
1.064041542e-05
1.065766371e-05
1.067523688e-05
1.069307856e-05
1.071113191e-05
1.072933948e-05
1.074764455e-05
1.076598818e-05
1.078431367e-05
1.08025677e-05
1.082069911e-05
1.083865865e-05
1.085639905e-05
1.087387549e-05
1.089104582e-05
1.09078707e-05
1.09243143e-05
1.09403439e-05
1.095593032e-05
1.097105061e-05
1.098568567e-05
1.099981875e-05
1.101344815e-05
1.10265601e-05
1.103916182e-05
1.105124075e-05
1.106281151e-05
1.107386883e-05
1.108442605e-05
1.10945025e-05
1.110411422e-05
1.111328387e-05
1.11220259e-05
1.113036892e-05
1.113834072e-05
1.114596575e-05
1.115326967e-05
1.116027564e-05
1.116701484e-05
1.117351316e-05
1.117979433e-05
1.118588111e-05
1.119179588e-05
1.119755899e-05
1.12031894e-05
1.120870385e-05
1.121411833e-05
1.121944406e-05
1.12246889e-05
1.122986741e-05
1.123498587e-05
1.124004821e-05
1.124505854e-05
1.125001934e-05
1.125493156e-05
1.125979495e-05
1.126460844e-05
1.126936991e-05
1.127407674e-05
1.12787258e-05
1.128331345e-05
1.12878359e-05
1.129228929e-05
1.12966698e-05
1.130097367e-05
1.130519743e-05
1.130933799e-05
1.131339357e-05
1.131736155e-05
1.132123683e-05
1.132502061e-05
1.132871141e-05
1.133230893e-05
1.133581372e-05
1.133922574e-05
1.134254681e-05
1.134577591e-05
1.134891124e-05
1.135195854e-05
1.135491865e-05
1.135779452e-05
1.136058744e-05
1.13632982e-05
1.136592864e-05
1.136848028e-05
1.137095464e-05
1.137335267e-05
1.137567504e-05
1.137792238e-05
1.138009207e-05
1.138218583e-05
1.138420297e-05
1.138614058e-05
1.138799537e-05
1.138976542e-05
1.139144756e-05
1.139303686e-05
1.139452846e-05
1.139591742e-05
1.1397198e-05
1.139836351e-05
1.139940709e-05
1.140032194e-05
1.14010997e-05
1.140173497e-05
1.140222117e-05
1.140255005e-05
1.140271459e-05
1.140271338e-05
1.140253272e-05
1.140215946e-05
1.140158639e-05
1.140080507e-05
1.139981155e-05
1.139859951e-05
1.139716239e-05
1.139549613e-05
1.139359807e-05
1.139146602e-05
1.138909908e-05
1.138649756e-05
1.138366308e-05
1.138060139e-05
1.137731253e-05
1.137380071e-05
1.137007529e-05
1.136614719e-05
1.13620249e-05
1.135771553e-05
1.135323067e-05
1.134859015e-05
1.134380383e-05
1.133888525e-05
1.133384984e-05
1.132871296e-05
1.132349036e-05
1.131819627e-05
1.131284752e-05
1.13074614e-05
1.130205172e-05
1.129663527e-05
1.129122379e-05
1.128583392e-05
1.128047419e-05
1.127515477e-05
1.126988774e-05
1.126468005e-05
1.125954063e-05
1.125447423e-05
1.124948589e-05
1.124457914e-05
1.123975641e-05
1.123501883e-05
1.123036593e-05
1.122579593e-05
1.12213092e-05
1.121689872e-05
1.121255868e-05
1.120828526e-05
1.120407498e-05
1.119991988e-05
1.119580962e-05
1.11917376e-05
1.118769667e-05
1.11836773e-05
1.117967063e-05
1.11756677e-05
1.117165932e-05
1.116763602e-05
1.116358839e-05
1.115950741e-05
1.115538445e-05
1.115121109e-05
1.114697903e-05
1.114268049e-05
1.113830786e-05
1.113385433e-05
1.112931347e-05
1.112467933e-05
1.111994653e-05
1.111511037e-05
1.111016665e-05
1.110511152e-05
1.109994196e-05
1.109465528e-05
1.108924935e-05
1.108372334e-05
1.10780747e-05
1.107230087e-05
1.106640471e-05
1.106038597e-05
1.10542434e-05
1.104797812e-05
1.104159083e-05
1.103508246e-05
1.102845427e-05
1.102170762e-05
1.101484406e-05
1.100786524e-05
1.100077283e-05
1.099356852e-05
1.098625422e-05
1.097883172e-05
1.097130301e-05
1.096366983e-05
1.095593411e-05
1.094809759e-05
1.094016209e-05
1.093212933e-05
1.0924001e-05
1.091577871e-05
1.090746405e-05
1.089905851e-05
1.08905636e-05
1.088198073e-05
1.087331123e-05
1.086455635e-05
1.085571742e-05
1.08467955e-05
1.083779176e-05
1.082870723e-05
1.081954296e-05
1.081029995e-05
1.080097908e-05
1.079158129e-05
1.078210749e-05
1.077255843e-05
1.076293503e-05
1.075323812e-05
1.074346819e-05
1.073362605e-05
1.072371247e-05
1.07137282e-05
1.070367381e-05
1.069355001e-05
1.068335758e-05
1.067309729e-05
1.066277121e-05
1.065237601e-05
1.064191477e-05
1.06313894e-05
1.062079907e-05
1.061014436e-05
1.059942645e-05
1.058864599e-05
1.057780324e-05
1.056689891e-05
1.055593409e-05
1.054490923e-05
1.053382499e-05
1.052268206e-05
1.051148118e-05
1.050022302e-05
1.048890825e-05
1.047753761e-05
1.046611171e-05
1.045463133e-05
1.044309725e-05
1.043151022e-05
1.041987048e-05
1.040817921e-05
1.03964374e-05
1.038464545e-05
1.037280405e-05
1.036091412e-05
1.034897647e-05
1.033699185e-05
1.032496093e-05
1.031288458e-05
1.030076354e-05
1.02885986e-05
1.027639059e-05
1.026414031e-05
1.025184852e-05
1.023951614e-05
1.02271439e-05
1.021473274e-05
1.020228336e-05
1.018979676e-05
1.017727365e-05
1.016471494e-05
1.015212155e-05
1.01394944e-05
1.012683444e-05
1.011414249e-05
1.010141948e-05
1.00886665e-05
1.007588451e-05
1.006307434e-05
1.005023722e-05
1.003737335e-05
1.002448412e-05
1.001157154e-05
9.998636087e-06
9.985678731e-06
9.972700516e-06
9.959702724e-06
9.946686449e-06
9.933652955e-06
9.920603385e-06
9.907538942e-06
9.89446088e-06
9.881370523e-06
9.868269041e-06
9.855157801e-06
9.842038084e-06
9.828911546e-06
9.815778594e-06
9.802641234e-06
9.789500822e-06
9.776358612e-06
9.763215891e-06
9.750074039e-06
9.736934358e-06
9.723798145e-06
9.710666764e-06
9.697541371e-06
9.684423333e-06
9.671313835e-06
9.658214054e-06
9.645125153e-06
9.6320483e-06
9.618984515e-06
9.605934851e-06
9.592900552e-06
9.579881999e-06
9.566880438e-06
9.553896668e-06
9.540931503e-06
9.527985576e-06
9.515059513e-06
9.502153776e-06
9.489268967e-06
9.476405491e-06
9.463563769e-06
9.450744098e-06
9.437946686e-06
9.425171815e-06
9.412419507e-06
9.399690015e-06
9.386983233e-06
9.374299252e-06
9.36163798e-06
9.34899935e-06
9.336383264e-06
9.323789646e-06
9.311218225e-06
9.298668844e-06
9.286141262e-06
9.273635304e-06
9.261150836e-06
9.248687613e-06
9.236245438e-06
9.223824052e-06
9.211423375e-06
9.199043152e-06
9.186683362e-06
9.174343843e-06
9.162024603e-06
9.149725602e-06
9.137446772e-06
9.125188198e-06
9.112949989e-06
9.100732216e-06
9.088535097e-06
9.076358856e-06
9.064203713e-06
9.052069987e-06
9.039958048e-06
9.027868251e-06
9.015801058e-06
9.003756939e-06
8.991736307e-06
8.979739703e-06
8.967767711e-06
8.955820867e-06
8.94389978e-06
8.93200506e-06
8.920137299e-06
8.908297067e-06
8.896485044e-06
8.884701829e-06
8.872948115e-06
8.861224569e-06
8.849531747e-06
8.837870315e-06
8.826240943e-06
8.814644167e-06
8.803080534e-06
8.791550725e-06
8.78005522e-06
8.768594578e-06
8.757169254e-06
8.745779768e-06
8.734426582e-06
8.723110049e-06
8.71183059e-06
8.700588586e-06
8.689384397e-06
8.678218292e-06
8.667090537e-06
8.65600144e-06
8.644951143e-06
8.633939836e-06
8.622967728e-06
8.612034923e-06
8.601141532e-06
8.59028759e-06
8.579473187e-06
8.568698278e-06
8.557962901e-06
8.547267065e-06
8.536610685e-06
8.525993723e-06
8.515416072e-06
8.504877651e-06
8.494378234e-06
8.483917733e-06
8.473495964e-06
8.463113859e-06
8.452768979e-06
8.442461963e-06
8.432193744e-06
8.42196327e-06
8.411770357e-06
8.401614773e-06
8.391496248e-06
8.381414489e-06
8.371369279e-06
8.361360707e-06
8.351388056e-06
8.3414506e-06
8.331549035e-06
8.321682666e-06
8.311851194e-06
8.302054229e-06
8.292291731e-06
8.282563281e-06
8.272868599e-06
8.263207203e-06
8.253578847e-06
8.243983313e-06
8.234420732e-06
8.224890324e-06
8.215391698e-06
8.205924821e-06
8.196489419e-06
8.187084987e-06
8.177711276e-06
8.168368131e-06
8.15905574e-06
8.149772709e-06
8.140519286e-06
8.13129555e-06
8.122100802e-06
8.112934816e-06
8.103797395e-06
8.09468824e-06
8.085607095e-06
8.076553599e-06
8.067527574e-06
8.058528728e-06
8.049556796e-06
8.040611528e-06
8.031692659e-06
8.022799862e-06
8.01393302e-06
8.005091822e-06
7.996276013e-06
7.987485344e-06
7.978719585e-06
7.969978511e-06
7.961261931e-06
7.952569556e-06
7.943901206e-06
7.935256666e-06
7.926635722e-06
7.918038158e-06
7.909463785e-06
7.900912415e-06
7.892383703e-06
7.88387806e-06
7.875394668e-06
7.866932945e-06
7.85849355e-06
7.850076586e-06
7.841680793e-06
7.833306352e-06
7.824953798e-06
7.816622569e-06
7.808312445e-06
7.800023353e-06
7.791755116e-06
7.783507667e-06
7.775280898e-06
7.767074619e-06
7.758888814e-06
7.750723243e-06
7.742577995e-06
7.734452801e-06
7.726347671e-06
7.718262686e-06
7.710197563e-06
7.70215226e-06
7.694126772e-06
7.686121029e-06
7.678134955e-06
7.670168513e-06
7.662221694e-06
7.65429439e-06
7.64638663e-06
7.638498343e-06
7.630629502e-06
7.62278006e-06
7.614950093e-06
7.607140108e-06
7.599349054e-06
7.591576765e-06
7.583824163e-06
7.576091016e-06
7.568377162e-06
7.560682662e-06
7.553007446e-06
7.545351446e-06
7.537714724e-06
7.530097236e-06
7.522498916e-06
7.514919784e-06
7.507359871e-06
7.499819134e-06
7.492297619e-06
7.484795149e-06
7.477311681e-06
7.469847413e-06
7.46240228e-06
7.454976218e-06
7.44756931e-06
7.44018153e-06
7.432812949e-06
7.425463483e-06
7.418133166e-06
7.410822052e-06
7.403530171e-06
7.396257533e-06
7.3890042e-06
7.381770206e-06
7.374555653e-06
7.367360569e-06
7.360185049e-06
7.353029266e-06
7.345893338e-06
7.33877745e-06
7.331681793e-06
7.324606574e-06
7.317552046e-06
7.310518498e-06
7.303506235e-06
7.296515594e-06
7.289547029e-06
7.282600979e-06
7.275677838e-06
7.268778225e-06
7.261902775e-06
7.255051981e-06
7.248226425e-06
7.24142743e-06
7.234655336e-06
7.227910522e-06
7.221195778e-06
7.2145102e-06
7.207854441e-06
7.201231032e-06
7.1946406e-06
7.188084236e-06
7.181563171e-06
7.175078556e-06
7.168634263e-06
7.162228856e-06
7.15586433e-06
7.149544197e-06
7.143268223e-06
7.137036701e-06
7.130854537e-06
7.124723899e-06
7.118646868e-06
7.112622655e-06
7.106653852e-06
7.100744207e-06
7.094895404e-06
7.089108347e-06
7.083387193e-06
7.077731712e-06
7.072144743e-06
7.0666296e-06
7.061187849e-06
7.055820555e-06
7.050533138e-06
7.045324844e-06
7.040198333e-06
7.035154012e-06
7.030197435e-06
7.025333075e-06
7.020556993e-06
7.015870634e-06
7.011279422e-06
7.00678377e-06
7.002384599e-06
6.998082577e-06
6.993885254e-06
6.989788513e-06
6.985793243e-06
6.981902192e-06
6.978116801e-06
6.974440086e-06
6.970867028e-06
6.967400873e-06
6.964044607e-06
6.960797267e-06
6.957659339e-06
6.954630705e-06
6.951710811e-06
6.948899465e-06
6.946198398e-06
6.943608042e-06
6.941124888e-06
6.938749829e-06
6.936481437e-06
6.934320602e-06
6.932266276e-06
6.930314283e-06
6.928459797e-06
6.926706708e-06
6.925053311e-06
6.923500012e-06
6.922044944e-06
6.920681288e-06
6.919409834e-06
6.918230486e-06
6.917139968e-06
6.916136364e-06
6.915218301e-06
6.914383714e-06
6.913630152e-06
6.912956009e-06
6.912358559e-06
6.911835381e-06
6.91138466e-06
6.911003025e-06
6.91068733e-06
6.91043852e-06
6.910254642e-06
6.910134396e-06
6.910072107e-06
6.910065895e-06
6.910115029e-06
6.910218663e-06
6.910374813e-06
6.910581111e-06
6.910835009e-06
6.911135194e-06
6.911479269e-06
6.911867137e-06
6.91229882e-06
6.912769033e-06
6.913277715e-06
6.913823873e-06
6.914406167e-06
6.915024741e-06
6.915677235e-06
6.916363014e-06
6.917081768e-06
6.917832587e-06
6.918613292e-06
6.919425714e-06
6.920270483e-06
6.921144516e-06
6.922047498e-06
6.922980019e-06
6.923941474e-06
6.924933659e-06
6.925955109e-06
6.927005278e-06
6.928085203e-06
6.929196585e-06
6.930336037e-06
6.931506434e-06
6.932710324e-06
6.933943488e-06
6.935207427e-06
6.936504733e-06
6.937836987e-06
6.939200931e-06
6.940598567e-06
6.942033406e-06
6.943502761e-06
6.945009693e-06
6.94655349e-06
6.948135827e-06
6.949758809e-06
6.951421109e-06
6.953125078e-06
6.954872807e-06
6.956661997e-06
6.95849412e-06
6.960373113e-06
6.962299057e-06
6.96427157e-06
6.966291503e-06
6.968363156e-06
6.970483722e-06
6.972653829e-06
6.974879601e-06
6.97715756e-06
6.979490493e-06
6.98188029e-06
6.984326209e-06
6.986830196e-06
6.989391381e-06
6.992011905e-06
6.994694322e-06
6.997439562e-06
7.00024366e-06
7.003109295e-06
7.006043181e-06
7.009040175e-06
7.012099792e-06
7.015225308e-06
7.01841696e-06
7.021675148e-06
7.024997685e-06
7.02838881e-06
7.031848138e-06
7.035373296e-06
7.038964677e-06
7.042625663e-06
7.046352317e-06
7.050143715e-06
7.054001825e-06
7.057926939e-06
7.061915054e-06
7.065966271e-06
7.070080528e-06
7.074255852e-06
7.078492503e-06
7.082788761e-06
7.087141014e-06
7.091547397e-06
7.096007612e-06
7.100519406e-06
7.105081478e-06
7.109690398e-06
7.114343237e-06
7.119037907e-06
7.12377223e-06
7.128541215e-06
7.133343104e-06
7.138174739e-06
7.143031387e-06
7.147910283e-06
7.152807399e-06
7.157718785e-06
7.162641727e-06
7.167569436e-06
7.172500877e-06
7.177429305e-06
7.182349722e-06
7.187259289e-06
7.192154274e-06
7.197028865e-06
7.201877428e-06
7.206696618e-06
7.21148087e-06
7.216226246e-06
7.220926613e-06
7.225579459e-06
7.230179594e-06
7.234722381e-06
7.239201615e-06
7.243611908e-06
7.247952497e-06
7.252215849e-06
7.256398899e-06
7.260497954e-06
7.264507243e-06
7.268424089e-06
7.272245005e-06
7.2759675e-06
7.279583902e-06
7.283091707e-06
7.28649198e-06
7.289780095e-06
7.292949764e-06
7.296000973e-06
7.298932676e-06
7.301742556e-06
7.304427156e-06
7.306987006e-06
7.309416319e-06
7.311718484e-06
7.313892843e-06
7.315932732e-06
7.317844773e-06
7.319624734e-06
7.321272829e-06
7.322792367e-06
7.324183796e-06
7.325441627e-06
7.326574144e-06
7.327582142e-06
7.328460851e-06
7.329214855e-06
7.329847066e-06
7.330359101e-06
7.330753136e-06
7.331033054e-06
7.33120293e-06
7.331266538e-06
7.331222864e-06
7.331077762e-06
7.330831118e-06
7.330485266e-06
7.330042306e-06
7.329506828e-06
7.328885099e-06
7.328175324e-06
7.327383825e-06
7.32651496e-06
7.325569203e-06
7.324553575e-06
7.323469707e-06
7.322321254e-06
7.321113617e-06
7.319847654e-06
7.31852832e-06
7.317158842e-06
7.31574295e-06
7.314282648e-06
7.31278245e-06
7.311244675e-06
7.30967333e-06
7.308070792e-06
7.306439411e-06
7.30478327e-06
7.303104494e-06
7.301405911e-06
7.299690086e-06
7.297959884e-06
7.296217274e-06
7.294464681e-06
7.292704274e-06
7.290938062e-06
7.289168667e-06
7.287398197e-06
7.285628403e-06
7.283861025e-06
7.282098094e-06
7.280341562e-06
7.278592985e-06
7.276853639e-06
7.275125397e-06
7.273410938e-06
7.271710516e-06
7.270026379e-06
7.268359083e-06
7.266710423e-06
7.265082133e-06
7.263476268e-06
7.261894766e-06
7.260340531e-06
7.258812709e-06
7.257312176e-06
7.255844078e-06
7.254409546e-06
7.253008966e-06
7.251644626e-06
7.250319153e-06
7.249032975e-06
7.247790042e-06
7.246592084e-06
7.245442588e-06
7.244344389e-06
7.243295247e-06
7.242301565e-06
7.241367907e-06
7.240495676e-06
7.239686218e-06
7.238948258e-06
7.238278626e-06
7.237680306e-06
7.237158648e-06
7.236717981e-06
7.23635813e-06
7.236080993e-06
7.235902453e-06
7.235814528e-06
7.235827851e-06
7.23594201e-06
7.236167227e-06
7.236503456e-06
7.236956297e-06
7.237528249e-06
7.238228255e-06
7.23906081e-06
7.240027508e-06
7.241132638e-06
7.242382707e-06
7.24378105e-06
7.245331947e-06
7.247043489e-06
7.248923792e-06
7.250968719e-06
7.253181744e-06
7.255573815e-06
7.258150073e-06
7.260917822e-06
7.263872255e-06
7.26702458e-06
7.27038823e-06
7.273954344e-06
7.277731435e-06
7.28172696e-06
7.285941845e-06
7.290383596e-06
7.295057838e-06
7.299960335e-06
7.305113298e-06
7.310517767e-06
7.316169437e-06
7.322074124e-06
7.328238838e-06
7.334660376e-06
7.341353488e-06
7.348321526e-06
7.355567748e-06
7.36309031e-06
7.370896523e-06
7.378991098e-06
7.387383622e-06
7.396077019e-06
7.405063342e-06
7.414352164e-06
7.423951404e-06
7.433863743e-06
7.444085346e-06
7.454632097e-06
7.465502161e-06
7.476691865e-06
7.488207564e-06
7.500066669e-06
7.512252976e-06
7.524786057e-06
7.537655607e-06
7.550869585e-06
7.564431416e-06
7.578352393e-06
7.592625736e-06
7.60725062e-06
7.62223603e-06
7.637581462e-06
7.653297305e-06
7.669379527e-06
7.6858324e-06
7.702663544e-06
7.719869695e-06
7.737458871e-06
7.75542428e-06
7.773777287e-06
7.792526523e-06
7.811654297e-06
7.831178901e-06
7.851108766e-06
7.871432156e-06
7.89215552e-06
7.913286771e-06
7.93482229e-06
7.956768733e-06
7.979129119e-06
8.001905605e-06
8.025099536e-06
8.048709277e-06
8.072744114e-06
8.09721482e-06
8.122118753e-06
8.147453201e-06
8.173234753e-06
8.199446772e-06
8.226091206e-06
8.253183751e-06
8.280740919e-06
8.308738109e-06
8.337183253e-06
8.366105946e-06
8.395482761e-06
8.425322207e-06
8.455635189e-06
8.486413956e-06
8.517665916e-06
8.549394594e-06
8.581601113e-06
8.614303122e-06
8.647498986e-06
8.68117786e-06
8.715355154e-06
8.750032759e-06
8.785204524e-06
8.820883683e-06
8.857077844e-06
8.89378191e-06
8.931002251e-06
8.968742931e-06
9.007007783e-06
9.04579555e-06
9.085107814e-06
9.1249536e-06
9.165328865e-06
9.206239419e-06
9.247699629e-06
9.289702162e-06
9.332254634e-06
9.37534915e-06
9.419002289e-06
9.463210014e-06
9.507973594e-06
9.553300492e-06
9.599186971e-06
9.645635406e-06
9.692652767e-06
9.740234803e-06
9.78838876e-06
9.837114193e-06
9.886411035e-06
9.936283022e-06
9.98673367e-06
1.00377571e-05
1.00893559e-05
1.014153134e-05
1.019428188e-05
1.024761218e-05
1.030152136e-05
1.035600845e-05
1.04110741e-05
1.046671233e-05
1.052292184e-05
1.057970216e-05
1.063705597e-05
1.069497798e-05
1.075346568e-05
1.081251762e-05
1.087212709e-05
1.093229302e-05
1.099301248e-05
1.10542796e-05
1.111608781e-05
1.117843335e-05
1.124131332e-05
1.130471941e-05
1.136864855e-05
1.143308422e-05
1.14980276e-05
1.15634718e-05
1.162940602e-05
1.169582442e-05
1.176271178e-05
1.18300716e-05
1.189787723e-05
1.196613209e-05
1.203481625e-05
1.210392433e-05
1.217344379e-05
1.22433592e-05
1.231365898e-05
1.238433038e-05
1.245536027e-05
1.252673538e-05
1.259843873e-05
1.267045195e-05
1.274276821e-05
1.281535391e-05
1.288820533e-05
1.296130606e-05
1.303462705e-05
1.310814971e-05
1.318186488e-05
1.325574677e-05
1.33297773e-05
1.340391868e-05
1.347816185e-05
1.355250855e-05
1.362689528e-05
1.370131354e-05
1.377575918e-05
1.385018218e-05
1.392457621e-05
1.399891098e-05
1.407314244e-05
1.41472561e-05
1.422125247e-05
1.429506177e-05
1.436868872e-05
1.44421021e-05
1.451525886e-05
1.458814744e-05
1.466074212e-05
1.473298429e-05
1.480489854e-05
1.487641459e-05
1.494751109e-05
1.501819909e-05
1.508840424e-05
1.515813105e-05
1.522733066e-05
1.529597977e-05
1.536408069e-05
1.543158387e-05
1.549845719e-05
1.556468847e-05
1.563025598e-05
1.569513278e-05
1.575929095e-05
1.582272111e-05
1.588541015e-05
1.594727169e-05
1.600837221e-05
1.606867117e-05
1.61281041e-05
1.618670083e-05
1.62444537e-05
1.630133467e-05
1.635729619e-05
1.641236686e-05
1.646653532e-05
1.651980257e-05
1.657210475e-05
1.662350002e-05
1.667396867e-05
1.67234701e-05
1.677204435e-05
1.681971263e-05
1.686641471e-05
1.691217663e-05
1.695703616e-05
1.700098473e-05
1.704397287e-05
1.708606007e-05
1.712726929e-05
1.716758054e-05
1.720702777e-05
1.72456269e-05
1.728342317e-05
1.732036742e-05
1.735649392e-05
1.739187284e-05
1.74264743e-05
1.746035129e-05
1.749352453e-05
1.752599167e-05
1.755780077e-05
1.758898393e-05
1.761957437e-05
1.764957801e-05
1.767902775e-05
1.7707961e-05
1.773642361e-05
1.776442672e-05
1.779199425e-05
1.781918312e-05
1.784600324e-05
1.787251106e-05
1.78987286e-05
1.792467942e-05
1.795040489e-05
1.797593481e-05
1.800130558e-05
1.802655035e-05
1.805169358e-05
1.807677237e-05
1.810181654e-05
1.812685057e-05
1.815191026e-05
1.817702507e-05
1.820221735e-05
1.82275153e-05
1.825294472e-05
1.827853641e-05
1.830431241e-05
1.833029418e-05
1.835649805e-05
1.838294531e-05
1.840966418e-05
1.843665807e-05
1.846395953e-05
1.849156928e-05
1.851949867e-05
1.854776312e-05
1.857636791e-05
1.860531303e-05
1.863460541e-05
1.866425345e-05
1.869424954e-05
1.872459413e-05
1.875527871e-05
1.878629075e-05
1.881763284e-05
1.884928902e-05
1.888124086e-05
1.891346581e-05
1.894594698e-05
1.89786616e-05
1.901158267e-05
1.904467981e-05
1.907791843e-05
1.91112672e-05
1.914468786e-05
1.917814491e-05
1.921159669e-05
1.924499579e-05
1.927830202e-05
1.931146826e-05
1.934444419e-05
1.937716628e-05
1.940958193e-05
1.944164509e-05
1.947329235e-05
1.950446191e-05
1.953508098e-05
1.956508725e-05
1.959440965e-05
1.96229538e-05
1.965068221e-05
1.967749431e-05
1.97033695e-05
1.972819378e-05
1.975188775e-05
1.977442718e-05
1.979569595e-05
1.981557629e-05
1.983396579e-05
1.985083573e-05
1.98661514e-05
1.987988501e-05
1.989180804e-05
1.990193155e-05
1.991011954e-05
1.99163017e-05
1.992047748e-05
1.992250966e-05
1.992236346e-05
1.991985899e-05
1.991494711e-05
1.990754669e-05
1.989757167e-05
1.988504632e-05
1.986991978e-05
1.985221599e-05
1.983177271e-05
1.980851758e-05
1.97824068e-05
1.975330794e-05
1.972122398e-05
1.968609068e-05
1.964798105e-05
1.960673414e-05
1.956238431e-05
1.951489237e-05
1.94642624e-05
1.941051063e-05
1.935360206e-05
1.929342963e-05
1.92301344e-05
1.916370186e-05
1.909400668e-05
1.902117201e-05
1.894525773e-05
1.886627588e-05
1.878425545e-05
1.869915907e-05
1.861093921e-05
1.851993636e-05
1.842607742e-05
1.832920593e-05
1.822954005e-05
1.812726776e-05
1.802218835e-05
1.791462805e-05
1.780463172e-05
1.769204617e-05
1.757711418e-05
1.745992534e-05
1.734053429e-05
1.721906476e-05
1.709548036e-05
1.69700113e-05
1.684279687e-05
1.671379041e-05
1.658306319e-05
1.645078585e-05
1.631712096e-05
1.618212509e-05
1.60459074e-05
1.590851693e-05
1.577010171e-05
1.56306199e-05
1.54903193e-05
1.534931856e-05
1.520754368e-05
1.506531334e-05
1.492261308e-05
1.477943897e-05
1.463603686e-05
1.44924565e-05
1.434877083e-05
1.420505696e-05
1.40613774e-05
1.391785789e-05
1.377454451e-05
1.363155548e-05
1.348897779e-05
1.33468497e-05
1.32051227e-05
1.306402731e-05
1.292365452e-05
1.278394617e-05
1.264503409e-05
1.250695199e-05
1.236974967e-05
1.223349703e-05
1.209825353e-05
1.196404328e-05
1.183092839e-05
1.169893634e-05
1.156810841e-05
1.143848201e-05
1.131008888e-05
1.118299399e-05
1.105720162e-05
1.093274287e-05
1.080963689e-05
1.068790722e-05
1.056761222e-05
1.044873764e-05
1.033129919e-05
1.021532942e-05
1.01008373e-05
9.987841772e-06
9.876348784e-06
9.766369132e-06
9.657906352e-06
9.550972022e-06
9.44556633e-06
9.341682575e-06
9.239343569e-06
9.138539754e-06
9.039273405e-06
8.941540328e-06
8.845347929e-06
8.750685542e-06
8.657554476e-06
8.565946766e-06
8.475852744e-06
8.387266357e-06
8.300175898e-06
8.214575306e-06
8.130457681e-06
8.047819094e-06
7.966626185e-06
7.886886438e-06
7.808587793e-06
7.731710728e-06
7.656240165e-06
7.582167811e-06
7.509485178e-06
7.438172571e-06
7.368216074e-06
7.299600075e-06
7.232314035e-06
7.166345023e-06
7.101666658e-06
7.038271486e-06
6.976147472e-06
6.915285446e-06
6.855650103e-06
6.797238998e-06
6.740044438e-06
6.684042509e-06
6.629222133e-06
6.575557421e-06
6.523038964e-06
6.471655281e-06
6.421391813e-06
6.372228409e-06
6.324147774e-06
6.277148413e-06
6.231204289e-06
6.186311966e-06
6.14244616e-06
6.099586968e-06
6.057737408e-06
6.016875674e-06
5.97698563e-06
5.93806958e-06
5.900088117e-06
5.863030835e-06
5.826900488e-06
5.791681288e-06
5.757360489e-06
5.723910995e-06
5.691339383e-06
5.659624865e-06
5.628762113e-06
5.598726e-06
5.569512482e-06
5.541116145e-06
5.513517472e-06
5.486705657e-06
5.460667076e-06
5.435387245e-06
5.410877657e-06
5.387112711e-06
5.364085838e-06
5.341779132e-06
5.320180638e-06
5.299290131e-06
5.279097974e-06
5.259601526e-06
5.240773856e-06
5.222611054e-06
5.205110176e-06
5.188264003e-06
5.172053085e-06
5.156482704e-06
5.141537662e-06
5.127210166e-06
5.113493552e-06
5.100376813e-06
5.08783612e-06
5.075891476e-06
5.064528154e-06
5.053736168e-06
5.043505382e-06
5.0338321e-06
5.024717201e-06
5.016132454e-06
5.008085894e-06
5.000568145e-06
4.99357436e-06
4.987098493e-06
4.981135118e-06
4.975669747e-06
4.97069996e-06
4.96622031e-06
4.962228955e-06
4.95871396e-06
4.955668986e-06
4.953065776e-06
4.950943396e-06
4.949272004e-06
4.948058863e-06
4.947248032e-06
4.946888669e-06
4.946950017e-06
4.947442085e-06
4.948353323e-06
4.949677371e-06
4.951415029e-06
4.953564217e-06
4.956123259e-06
4.959087486e-06
4.962451792e-06
4.966211553e-06
4.970362649e-06
4.974893179e-06
4.979817479e-06
4.985128872e-06
4.990803913e-06
4.996845074e-06
5.003250234e-06
5.01001554e-06
5.017135342e-06
5.024605329e-06
5.032421085e-06
5.040577894e-06
5.04907122e-06
5.057896573e-06
5.067049456e-06
5.076525311e-06
5.086319569e-06
5.096427649e-06
5.10684496e-06
5.117566841e-06
5.128588702e-06
5.139905883e-06
5.151513775e-06
5.163407699e-06
5.175582236e-06
5.188029734e-06
5.200746593e-06
5.213740132e-06
5.226998755e-06
5.240509603e-06
5.254272614e-06
5.268283431e-06
5.282539418e-06
5.29703551e-06
5.311766305e-06
5.326718158e-06
5.341898317e-06
5.357298644e-06
5.372911629e-06
5.388732208e-06
5.404756831e-06
5.420981406e-06
5.43740022e-06
5.454007408e-06
5.470794888e-06
5.487762256e-06
5.504902721e-06
5.522212026e-06
5.539681585e-06
5.55730904e-06
5.575090615e-06
5.593018381e-06
5.61108728e-06
5.629292376e-06
5.647628024e-06
5.666087909e-06
5.684668043e-06
5.703363071e-06
5.722167339e-06
5.741075633e-06
5.760082096e-06
5.779180353e-06
5.798366314e-06
5.817634268e-06
5.836978357e-06
5.856393402e-06
5.875874849e-06
5.895417251e-06
5.915015522e-06
5.934664035e-06
5.954356938e-06
5.974090591e-06
5.993860916e-06
6.013658601e-06
6.033480304e-06
6.053322156e-06
6.073178505e-06
6.093045414e-06
6.112918191e-06
6.132791542e-06
6.152656215e-06
6.172512247e-06
6.19235465e-06
6.212176607e-06
6.231975994e-06
6.251746738e-06
6.271483806e-06
6.291183023e-06
6.310842365e-06
6.33045194e-06
6.350009565e-06
6.369514859e-06
6.388954967e-06
6.408337566e-06
6.427651162e-06
6.446892695e-06
6.466056565e-06
6.485149047e-06
6.504151148e-06
6.523068223e-06
6.541895e-06
6.560628074e-06
6.579266893e-06
6.597805109e-06
6.616233951e-06
6.634557646e-06
6.652774659e-06
6.670873898e-06
6.688859551e-06
6.706728999e-06
6.724473345e-06
6.742091787e-06
6.759585665e-06
6.776953566e-06
6.794185326e-06
6.81128661e-06
6.828252498e-06
6.845081115e-06
6.861773456e-06
6.878319219e-06
6.894719333e-06
6.910978648e-06
6.927091797e-06
6.943057238e-06
6.958866548e-06
6.974527185e-06
6.990042133e-06
7.005401403e-06
7.020603481e-06