/*--------------------------------*- C++ -*----------------------------------*\
| =========                 |                                                 |
| \\      /  F ield         | OpenFOAM: The Open Source CFD Toolbox           |
|  \\    /   O peration     | Version:  2312                                  |
|   \\  /    A nd           | Website:  www.openfoam.com                      |
|    \\/     M anipulation  |                                                 |
\*---------------------------------------------------------------------------*/
FoamFile
{
    version     2.0;
    format      ascii;
    arch        "LSB;label=32;scalar=64";
    class       volScalarField;
    location    "0.005";
    object      thermo:psiLiqEff;
}
// * * * * * * * * * * * * * * * * * * * * * * * * * * * * * * * * * * * * * //

dimensions      [-2 4 2 0 0 0 0];

internalField   nonuniform List<scalar> 
8000
(
4.838991039e-13
4.839025191e-13
4.839034026e-13
4.839029574e-13
4.839027745e-13
4.839026701e-13
4.839025004e-13
4.839022252e-13
4.83901958e-13
4.83901812e-13
4.839017641e-13
4.839017815e-13
4.839018368e-13
4.8390191e-13
4.839019954e-13
4.839020958e-13
4.839022155e-13
4.839023622e-13
4.839025421e-13
4.839027559e-13
4.839030011e-13
4.839032423e-13
4.839034406e-13
4.839035964e-13
4.839037171e-13
4.83903811e-13
4.839038865e-13
4.839039501e-13
4.839040071e-13
4.839040615e-13
4.839041163e-13
4.839041738e-13
4.839042348e-13
4.839042999e-13
4.839043685e-13
4.839044402e-13
4.839045139e-13
4.839045882e-13
4.83904662e-13
4.839047344e-13
4.839048049e-13
4.839048731e-13
4.839049386e-13
4.839050008e-13
4.839050597e-13
4.839051158e-13
4.839051694e-13
4.839052213e-13
4.839052717e-13
4.839053209e-13
4.839053691e-13
4.839054163e-13
4.839054624e-13
4.839055073e-13
4.839055509e-13
4.839055932e-13
4.839056342e-13
4.839056737e-13
4.839057121e-13
4.839057495e-13
4.839057862e-13
4.839058225e-13
4.839058588e-13
4.839058957e-13
4.839059335e-13
4.839059723e-13
4.839060127e-13
4.83906055e-13
4.839060992e-13
4.839061455e-13
4.839061938e-13
4.83906244e-13
4.839062959e-13
4.839063491e-13
4.839064035e-13
4.839064586e-13
4.839065144e-13
4.839065705e-13
4.839066268e-13
4.83906683e-13
4.839067389e-13
4.839067945e-13
4.839068495e-13
4.839069038e-13
4.839069575e-13
4.839070104e-13
4.839070626e-13
4.839071141e-13
4.839071649e-13
4.839072151e-13
4.839072648e-13
4.839073141e-13
4.839073632e-13
4.83907412e-13
4.839074606e-13
4.839075091e-13
4.839075574e-13
4.839076056e-13
4.839076537e-13
4.839077019e-13
4.839077501e-13
4.839077985e-13
4.839078472e-13
4.839078962e-13
4.839079456e-13
4.839079954e-13
4.839080457e-13
4.839080965e-13
4.839081479e-13
4.839082e-13
4.839082528e-13
4.839083063e-13
4.839083605e-13
4.839084154e-13
4.839084709e-13
4.839085272e-13
4.839085844e-13
4.839086422e-13
4.839087007e-13
4.839087599e-13
4.839088197e-13
4.839088801e-13
4.839089409e-13
4.83909002e-13
4.839090633e-13
4.839091246e-13
4.839091859e-13
4.839092469e-13
4.839093076e-13
4.839093678e-13
4.839094273e-13
4.839094862e-13
4.839095442e-13
4.839096013e-13
4.839096575e-13
4.839097128e-13
4.839097672e-13
4.839098207e-13
4.839098734e-13
4.839099254e-13
4.839099769e-13
4.839100282e-13
4.839100793e-13
4.839101306e-13
4.839101823e-13
4.839102348e-13
4.839102881e-13
4.839103425e-13
4.839103982e-13
4.839104555e-13
4.839105145e-13
4.839105752e-13
4.839106377e-13
4.839107022e-13
4.839107683e-13
4.83910836e-13
4.839109051e-13
4.839109753e-13
4.839110463e-13
4.839111178e-13
4.839111892e-13
4.839112601e-13
4.839113298e-13
4.839113978e-13
4.839114635e-13
4.839115264e-13
4.83911586e-13
4.839116415e-13
4.839116928e-13
4.839117398e-13
4.839117814e-13
4.839118177e-13
4.839118485e-13
4.839118733e-13
4.839118919e-13
4.839119042e-13
4.839119102e-13
4.839119099e-13
4.839119031e-13
4.839118899e-13
4.839118696e-13
4.839118433e-13
4.839118114e-13
4.839117738e-13
4.839117312e-13
4.83911684e-13
4.839116326e-13
4.839115777e-13
4.839115197e-13
4.839114593e-13
4.839113968e-13
4.83911333e-13
4.839112683e-13
4.839112033e-13
4.839111386e-13
4.839110747e-13
4.839110121e-13
4.839109513e-13
4.839108928e-13
4.839108368e-13
4.839107837e-13
4.839107339e-13
4.83910688e-13
4.839106458e-13
4.839106074e-13
4.839105732e-13
4.839105431e-13
4.839105174e-13
4.839104964e-13
4.8391048e-13
4.839104678e-13
4.839104599e-13
4.839104564e-13
4.839104572e-13
4.839104623e-13
4.839104718e-13
4.839104858e-13
4.839105037e-13
4.839105262e-13
4.839105518e-13
4.839105812e-13
4.839106142e-13
4.839106508e-13
4.839106906e-13
4.839107335e-13
4.839107793e-13
4.839108276e-13
4.839108784e-13
4.839109314e-13
4.839109865e-13
4.839110435e-13
4.839111021e-13
4.839111621e-13
4.839112234e-13
4.839112856e-13
4.839113486e-13
4.83911412e-13
4.839114756e-13
4.839115391e-13
4.839116025e-13
4.839116655e-13
4.839117279e-13
4.839117896e-13
4.839118507e-13
4.839119108e-13
4.839119701e-13
4.839120283e-13
4.839120854e-13
4.839121413e-13
4.839121959e-13
4.83912249e-13
4.839123005e-13
4.839123503e-13
4.839123984e-13
4.839124446e-13
4.839124889e-13
4.839125313e-13
4.839125718e-13
4.839126105e-13
4.839126473e-13
4.839126821e-13
4.839127153e-13
4.839127469e-13
4.83912777e-13
4.839128057e-13
4.839128331e-13
4.839128593e-13
4.839128844e-13
4.839129086e-13
4.839129317e-13
4.839129539e-13
4.839129753e-13
4.839129959e-13
4.839130159e-13
4.839130352e-13
4.839130541e-13
4.839130724e-13
4.839130903e-13
4.839131079e-13
4.839131252e-13
4.839131422e-13
4.83913159e-13
4.839131757e-13
4.839131921e-13
4.839132083e-13
4.839132244e-13
4.839132402e-13
4.839132559e-13
4.839132714e-13
4.839132867e-13
4.839133019e-13
4.839133169e-13
4.839133317e-13
4.839133464e-13
4.839133609e-13
4.839133752e-13
4.839133893e-13
4.83913403e-13
4.839134165e-13
4.839134296e-13
4.839134424e-13
4.839134549e-13
4.83913467e-13
4.839134788e-13
4.839134902e-13
4.839135013e-13
4.839135121e-13
4.839135226e-13
4.839135329e-13
4.839135429e-13
4.839135527e-13
4.839135622e-13
4.839135715e-13
4.839135805e-13
4.839135892e-13
4.839135976e-13
4.839136058e-13
4.839136137e-13
4.839136213e-13
4.839136287e-13
4.839136359e-13
4.839136428e-13
4.839136495e-13
4.83913656e-13
4.839136622e-13
4.839136682e-13
4.839136739e-13
4.839136792e-13
4.839136843e-13
4.83913689e-13
4.839136933e-13
4.839136974e-13
4.83913701e-13
4.839137043e-13
4.839137071e-13
4.839137095e-13
4.839137115e-13
4.83913713e-13
4.83913714e-13
4.839137146e-13
4.839137146e-13
4.839137141e-13
4.839137131e-13
4.839137113e-13
4.839137089e-13
4.839137059e-13
4.839137021e-13
4.839136976e-13
4.839136923e-13
4.839136863e-13
4.839136795e-13
4.839136719e-13
4.839136636e-13
4.839136544e-13
4.839136446e-13
4.839136341e-13
4.839136227e-13
4.839136108e-13
4.839135982e-13
4.83913585e-13
4.839135711e-13
4.839135568e-13
4.839135419e-13
4.839135266e-13
4.839135108e-13
4.839134946e-13
4.83913478e-13
4.839134612e-13
4.83913444e-13
4.839134268e-13
4.839134095e-13
4.839133922e-13
4.839133749e-13
4.839133576e-13
4.839133403e-13
4.839133231e-13
4.83913306e-13
4.83913289e-13
4.839132721e-13
4.839132555e-13
4.839132389e-13
4.839132227e-13
4.839132066e-13
4.839131909e-13
4.839131754e-13
4.839131603e-13
4.839131454e-13
4.839131309e-13
4.839131167e-13
4.839131026e-13
4.839130888e-13
4.839130751e-13
4.839130615e-13
4.83913048e-13
4.839130347e-13
4.839130214e-13
4.839130082e-13
4.83912995e-13
4.839129819e-13
4.839129687e-13
4.839129554e-13
4.83912942e-13
4.839129286e-13
4.83912915e-13
4.839129013e-13
4.839128874e-13
4.839128732e-13
4.839128588e-13
4.839128441e-13
4.839128291e-13
4.839128138e-13
4.839127982e-13
4.839127822e-13
4.839127659e-13
4.839127492e-13
4.839127321e-13
4.839127146e-13
4.839126968e-13
4.839126785e-13
4.839126598e-13
4.839126406e-13
4.839126211e-13
4.839126011e-13
4.839125806e-13
4.839125598e-13
4.839125385e-13
4.839125168e-13
4.839124946e-13
4.839124721e-13
4.839124491e-13
4.839124257e-13
4.839124019e-13
4.839123777e-13
4.839123531e-13
4.839123281e-13
4.839123028e-13
4.83912277e-13
4.839122509e-13
4.839122244e-13
4.839121976e-13
4.839121704e-13
4.839121428e-13
4.839121148e-13
4.839120866e-13
4.83912058e-13
4.839120291e-13
4.839119998e-13
4.839119703e-13
4.839119404e-13
4.839119102e-13
4.839118797e-13
4.839118488e-13
4.839118176e-13
4.839117861e-13
4.839117542e-13
4.839117221e-13
4.839116897e-13
4.83911657e-13
4.83911624e-13
4.839115907e-13
4.839115571e-13
4.839115232e-13
4.839114889e-13
4.839114544e-13
4.839114195e-13
4.839113843e-13
4.839113488e-13
4.83911313e-13
4.839112768e-13
4.839112404e-13
4.839112037e-13
4.839111668e-13
4.839111297e-13
4.839110923e-13
4.839110547e-13
4.839110168e-13
4.839109786e-13
4.839109401e-13
4.839109013e-13
4.839108622e-13
4.839108229e-13
4.839107832e-13
4.839107433e-13
4.83910703e-13
4.839106625e-13
4.839106218e-13
4.839105808e-13
4.839105395e-13
4.83910498e-13
4.839104561e-13
4.83910414e-13
4.839103717e-13
4.83910329e-13
4.839102862e-13
4.839102431e-13
4.839101997e-13
4.839101561e-13
4.839101122e-13
4.839100682e-13
4.839100238e-13
4.839099792e-13
4.839099344e-13
4.839098892e-13
4.839098439e-13
4.839097982e-13
4.839097524e-13
4.839097063e-13
4.8390966e-13
4.839096134e-13
4.839095667e-13
4.839095197e-13
4.839094725e-13
4.839094251e-13
4.839093775e-13
4.839093297e-13
4.839092816e-13
4.839092334e-13
4.839091849e-13
4.839091362e-13
4.839090873e-13
4.839090382e-13
4.839089889e-13
4.839089394e-13
4.839088897e-13
4.839088398e-13
4.839087898e-13
4.839087395e-13
4.839086891e-13
4.839086386e-13
4.839085879e-13
4.83908537e-13
4.839084859e-13
4.839084348e-13
4.839083834e-13
4.839083319e-13
4.839082802e-13
4.839082284e-13
4.839081764e-13
4.839081243e-13
4.83908072e-13
4.839080196e-13
4.839079671e-13
4.839079145e-13
4.839078617e-13
4.839078089e-13
4.83907756e-13
4.83907703e-13
4.839076499e-13
4.839075968e-13
4.839075436e-13
4.839074903e-13
4.839074369e-13
4.839073835e-13
4.8390733e-13
4.839072765e-13
4.839072229e-13
4.839071692e-13
4.839071155e-13
4.839070618e-13
4.83907008e-13
4.839069541e-13
4.839069003e-13
4.839068464e-13
4.839067925e-13
4.839067385e-13
4.839066845e-13
4.839066305e-13
4.839065765e-13
4.839065225e-13
4.839064684e-13
4.839064144e-13
4.839063603e-13
4.839063062e-13
4.839062521e-13
4.839061981e-13
4.83906144e-13
4.839060899e-13
4.839060359e-13
4.839059818e-13
4.839059278e-13
4.839058737e-13
4.839058196e-13
4.839057655e-13
4.839057114e-13
4.839056572e-13
4.83905603e-13
4.839055487e-13
4.839054944e-13
4.8390544e-13
4.839053856e-13
4.839053311e-13
4.839052767e-13
4.839052223e-13
4.839051678e-13
4.839051134e-13
4.83905059e-13
4.839050046e-13
4.839049502e-13
4.839048958e-13
4.839048413e-13
4.839047869e-13
4.839047324e-13
4.839046779e-13
4.839046234e-13
4.839045688e-13
4.839045142e-13
4.839044596e-13
4.83904405e-13
4.839043504e-13
4.839042958e-13
4.839042413e-13
4.839041868e-13
4.839041324e-13
4.83904078e-13
4.839040236e-13
4.839039693e-13
4.83903915e-13
4.839038608e-13
4.839038066e-13
4.839037524e-13
4.839036983e-13
4.839036442e-13
4.839035902e-13
4.839035362e-13
4.839034823e-13
4.839034284e-13
4.839033746e-13
4.839033209e-13
4.839032672e-13
4.839032136e-13
4.8390316e-13
4.839031066e-13
4.839030532e-13
4.839029998e-13
4.839029466e-13
4.839028935e-13
4.839028405e-13
4.839027877e-13
4.839027349e-13
4.839026822e-13
4.839026296e-13
4.83902577e-13
4.839025246e-13
4.839024723e-13
4.8390242e-13
4.839023678e-13
4.839023157e-13
4.839022637e-13
4.839022118e-13
4.8390216e-13
4.839021083e-13
4.839020567e-13
4.839020052e-13
4.839019538e-13
4.839019025e-13
4.839018513e-13
4.839018002e-13
4.839017492e-13
4.839016983e-13
4.839016475e-13
4.839015968e-13
4.839015461e-13
4.839014955e-13
4.83901445e-13
4.839013947e-13
4.839013444e-13
4.839012942e-13
4.839012441e-13
4.839011941e-13
4.839011442e-13
4.839010944e-13
4.839010447e-13
4.839009951e-13
4.839009455e-13
4.83900896e-13
4.839008465e-13
4.839007971e-13
4.839007479e-13
4.839006987e-13
4.839006495e-13
4.839006005e-13
4.839005514e-13
4.839005025e-13
4.839004536e-13
4.839004049e-13
4.839003562e-13
4.839003077e-13
4.839002592e-13
4.839002108e-13
4.839001625e-13
4.839001142e-13
4.83900066e-13
4.839000179e-13
4.838999697e-13
4.838999217e-13
4.838998737e-13
4.838998257e-13
4.838997778e-13
4.8389973e-13
4.838996822e-13
4.838996345e-13
4.838995869e-13
4.838995393e-13
4.838994918e-13
4.838994443e-13
4.838993968e-13
4.838993494e-13
4.838993021e-13
4.838992548e-13
4.838992075e-13
4.838991603e-13
4.838991131e-13
4.83899066e-13
4.83899019e-13
4.838989721e-13
4.838989252e-13
4.838988784e-13
4.838988317e-13
4.83898785e-13
4.838987383e-13
4.838986917e-13
4.83898645e-13
4.838985984e-13
4.838985518e-13
4.838985052e-13
4.838984586e-13
4.838984121e-13
4.838983657e-13
4.838983193e-13
4.838982731e-13
4.838982268e-13
4.838981807e-13
4.838981345e-13
4.838980885e-13
4.838980424e-13
4.838979965e-13
4.838979505e-13
4.838979046e-13
4.838978586e-13
4.838978127e-13
4.838977669e-13
4.83897721e-13
4.838976752e-13
4.838976294e-13
4.838975837e-13
4.83897538e-13
4.838974924e-13
4.838974468e-13
4.838974013e-13
4.838973559e-13
4.838973105e-13
4.838972652e-13
4.838972199e-13
4.838971746e-13
4.838971294e-13
4.838970843e-13
4.838970391e-13
4.838969941e-13
4.838969491e-13
4.838969041e-13
4.838968592e-13
4.838968143e-13
4.838967694e-13
4.838967246e-13
4.838966798e-13
4.83896635e-13
4.838965902e-13
4.838965455e-13
4.838965009e-13
4.838964563e-13
4.838964117e-13
4.838963672e-13
4.838963228e-13
4.838962785e-13
4.838962342e-13
4.8389619e-13
4.838961458e-13
4.838961017e-13
4.838960577e-13
4.838960136e-13
4.838959697e-13
4.838959257e-13
4.838958819e-13
4.838958381e-13
4.838957943e-13
4.838957507e-13
4.83895707e-13
4.838956635e-13
4.8389562e-13
4.838955766e-13
4.838955333e-13
4.8389549e-13
4.838954468e-13
4.838954037e-13
4.838953606e-13
4.838953177e-13
4.838952748e-13
4.83895232e-13
4.838951894e-13
4.83895147e-13
4.838951047e-13
4.838950626e-13
4.838950207e-13
4.83894979e-13
4.838949374e-13
4.83894896e-13
4.838948548e-13
4.838948136e-13
4.838947727e-13
4.838947318e-13
4.838946912e-13
4.838946507e-13
4.838946104e-13
4.838945703e-13
4.838945305e-13
4.838944908e-13
4.838944515e-13
4.838944125e-13
4.838943738e-13
4.838943355e-13
4.838942975e-13
4.8389426e-13
4.838942229e-13
4.838941862e-13
4.838941499e-13
4.83894114e-13
4.838940786e-13
4.838940436e-13
4.838940091e-13
4.83893975e-13
4.838939413e-13
4.838939082e-13
4.838938757e-13
4.838938437e-13
4.838938122e-13
4.838937815e-13
4.838937513e-13
4.838937217e-13
4.838936926e-13
4.838936641e-13
4.838936364e-13
4.838936092e-13
4.838935826e-13
4.838935568e-13
4.838935317e-13
4.838935071e-13
4.838934833e-13
4.838934602e-13
4.838934378e-13
4.838934162e-13
4.838933953e-13
4.838933751e-13
4.838933555e-13
4.838933367e-13
4.838933187e-13
4.838933013e-13
4.838932846e-13
4.838932687e-13
4.838932535e-13
4.838932389e-13
4.838932251e-13
4.83893212e-13
4.838931995e-13
4.838931879e-13
4.83893177e-13
4.838931667e-13
4.838931571e-13
4.83893148e-13
4.838931395e-13
4.838931316e-13
4.838931242e-13
4.838931174e-13
4.838931111e-13
4.838931055e-13
4.838931004e-13
4.838930959e-13
4.838930919e-13
4.838930883e-13
4.838930852e-13
4.838930826e-13
4.838930804e-13
4.838930786e-13
4.838930774e-13
4.838930765e-13
4.83893076e-13
4.838930758e-13
4.83893076e-13
4.838930766e-13
4.838930777e-13
4.838930791e-13
4.838930808e-13
4.83893083e-13
4.838930854e-13
4.838930882e-13
4.838930912e-13
4.838930945e-13
4.83893098e-13
4.838931017e-13
4.838931057e-13
4.838931098e-13
4.838931142e-13
4.838931188e-13
4.838931235e-13
4.838931285e-13
4.838931337e-13
4.838931392e-13
4.838931448e-13
4.838931506e-13
4.838931567e-13
4.838931629e-13
4.838931694e-13
4.83893176e-13
4.838931829e-13
4.8389319e-13
4.838931973e-13
4.838932049e-13
4.838932126e-13
4.838932206e-13
4.838932287e-13
4.838932369e-13
4.838932454e-13
4.83893254e-13
4.838932629e-13
4.83893272e-13
4.838932813e-13
4.838932908e-13
4.838933005e-13
4.838933105e-13
4.838933206e-13
4.838933312e-13
4.838933421e-13
4.838933534e-13
4.83893365e-13
4.838933768e-13
4.838933889e-13
4.838934013e-13
4.838934139e-13
4.838934267e-13
4.838934398e-13
4.838934533e-13
4.83893467e-13
4.83893481e-13
4.838934953e-13
4.8389351e-13
4.83893525e-13
4.838935404e-13
4.838935562e-13
4.838935724e-13
4.838935889e-13
4.838936059e-13
4.838936233e-13
4.838936412e-13
4.838936594e-13
4.838936779e-13
4.838936969e-13
4.838937163e-13
4.838937361e-13
4.838937563e-13
4.838937769e-13
4.83893798e-13
4.838938196e-13
4.838938415e-13
4.838938639e-13
4.838938866e-13
4.838939098e-13
4.838939334e-13
4.838939574e-13
4.838939818e-13
4.838940066e-13
4.838940318e-13
4.838940573e-13
4.838940831e-13
4.838941094e-13
4.838941362e-13
4.838941632e-13
4.838941908e-13
4.838942187e-13
4.838942469e-13
4.838942755e-13
4.838943044e-13
4.838943337e-13
4.838943633e-13
4.838943931e-13
4.838944232e-13
4.838944535e-13
4.838944841e-13
4.838945148e-13
4.838945457e-13
4.838945767e-13
4.838946078e-13
4.83894639e-13
4.838946703e-13
4.838947017e-13
4.838947332e-13
4.838947647e-13
4.838947961e-13
4.838948275e-13
4.838948588e-13
4.8389489e-13
4.83894921e-13
4.838949519e-13
4.838949826e-13
4.838950132e-13
4.838950435e-13
4.838950736e-13
4.838951035e-13
4.83895133e-13
4.83895162e-13
4.838951905e-13
4.838952187e-13
4.838952465e-13
4.838952738e-13
4.838953005e-13
4.838953268e-13
4.838953524e-13
4.838953774e-13
4.838954019e-13
4.838954257e-13
4.838954489e-13
4.838954715e-13
4.838954934e-13
4.838955145e-13
4.83895535e-13
4.838955547e-13
4.838955737e-13
4.838955919e-13
4.838956093e-13
4.838956258e-13
4.838956417e-13
4.838956569e-13
4.838956713e-13
4.838956846e-13
4.838956972e-13
4.838957091e-13
4.8389572e-13
4.838957302e-13
4.838957396e-13
4.838957482e-13
4.838957559e-13
4.838957629e-13
4.838957691e-13
4.838957744e-13
4.83895779e-13
4.838957828e-13
4.83895786e-13
4.838957884e-13
4.838957902e-13
4.838957913e-13
4.838957918e-13
4.838957916e-13
4.838957907e-13
4.838957891e-13
4.83895787e-13
4.838957843e-13
4.838957811e-13
4.838957773e-13
4.838957729e-13
4.83895768e-13
4.838957626e-13
4.838957566e-13
4.838957502e-13
4.838957436e-13
4.838957365e-13
4.838957291e-13
4.838957212e-13
4.83895713e-13
4.838957045e-13
4.838956959e-13
4.83895687e-13
4.838956778e-13
4.838956682e-13
4.838956585e-13
4.838956485e-13
4.838956383e-13
4.838956281e-13
4.838956177e-13
4.838956072e-13
4.838955966e-13
4.838955859e-13
4.838955751e-13
4.838955641e-13
4.83895553e-13
4.838955419e-13
4.83895531e-13
4.8389552e-13
4.838955091e-13
4.838954981e-13
4.838954871e-13
4.838954762e-13
4.838954654e-13
4.838954546e-13
4.838954438e-13
4.838954331e-13
4.838954224e-13
4.838954118e-13
4.838954013e-13
4.838953909e-13
4.838953806e-13
4.838953705e-13
4.838953605e-13
4.838953508e-13
4.838953413e-13
4.83895332e-13
4.838953229e-13
4.838953141e-13
4.838953054e-13
4.838952969e-13
4.838952886e-13
4.838952805e-13
4.838952727e-13
4.838952651e-13
4.838952578e-13
4.838952509e-13
4.838952442e-13
4.83895238e-13
4.838952321e-13
4.838952268e-13
4.838952218e-13
4.838952172e-13
4.83895213e-13
4.838952092e-13
4.838952057e-13
4.838952027e-13
4.838952004e-13
4.838951987e-13
4.838951976e-13
4.838951972e-13
4.838951973e-13
4.838951981e-13
4.838951995e-13
4.838952016e-13
4.838952043e-13
4.838952079e-13
4.838952123e-13
4.838952175e-13
4.838952235e-13
4.838952305e-13
4.838952385e-13
4.838952473e-13
4.838952571e-13
4.83895268e-13
4.838952797e-13
4.838952925e-13
4.838953064e-13
4.838953215e-13
4.838953377e-13
4.838953549e-13
4.838953734e-13
4.838953931e-13
4.838954141e-13
4.838954364e-13
4.8389546e-13
4.838954847e-13
4.838955107e-13
4.838955384e-13
4.838955674e-13
4.838955979e-13
4.8389563e-13
4.838956636e-13
4.838956987e-13
4.838957352e-13
4.838957734e-13
4.838958131e-13
4.838958546e-13
4.838958974e-13
4.838959417e-13
4.838959878e-13
4.838960354e-13
4.83896085e-13
4.838961364e-13
4.838961894e-13
4.83896244e-13
4.838963002e-13
4.838963582e-13
4.83896418e-13
4.838964798e-13
4.838965433e-13
4.838966086e-13
4.838966755e-13
4.838967443e-13
4.83896815e-13
4.838968878e-13
4.838969623e-13
4.838970384e-13
4.838971167e-13
4.838971971e-13
4.838972791e-13
4.838973627e-13
4.838974479e-13
4.83897535e-13
4.838976241e-13
4.838977151e-13
4.838978081e-13
4.838979028e-13
4.838979992e-13
4.838980977e-13
4.83898198e-13
4.838983001e-13
4.838984043e-13
4.838985099e-13
4.838986173e-13
4.838987264e-13
4.838988373e-13
4.838989502e-13
4.838990648e-13
4.838991811e-13
4.838992993e-13
4.838994193e-13
4.838995412e-13
4.838996649e-13
4.838997902e-13
4.838999169e-13
4.839000456e-13
4.839001762e-13
4.839003082e-13
4.839004421e-13
4.839005775e-13
4.839007144e-13
4.839008529e-13
4.839009932e-13
4.839011351e-13
4.839012783e-13
4.839014232e-13
4.839015699e-13
4.83901718e-13
4.839018678e-13
4.839020191e-13
4.839021719e-13
4.839023264e-13
4.839024822e-13
4.839026398e-13
4.839027988e-13
4.839029593e-13
4.839031211e-13
4.839032843e-13
4.839034488e-13
4.839036145e-13
4.839037816e-13
4.8390395e-13
4.839041201e-13
4.839042915e-13
4.839044641e-13
4.839046379e-13
4.83904813e-13
4.839049893e-13
4.839051669e-13
4.839053456e-13
4.839055255e-13
4.839057067e-13
4.839058888e-13
4.839060724e-13
4.839062569e-13
4.839064425e-13
4.839066289e-13
4.839068164e-13
4.839070049e-13
4.839071945e-13
4.839073852e-13
4.839075767e-13
4.839077692e-13
4.839079626e-13
4.839081567e-13
4.839083517e-13
4.839085474e-13
4.83908744e-13
4.839089412e-13
4.839091392e-13
4.839093377e-13
4.839095367e-13
4.839097364e-13
4.839099368e-13
4.839101378e-13
4.839103393e-13
4.839105414e-13
4.839107438e-13
4.839109467e-13
4.839111499e-13
4.839113536e-13
4.839115575e-13
4.839117617e-13
4.839119663e-13
4.839121711e-13
4.83912376e-13
4.83912581e-13
4.839127862e-13
4.839129914e-13
4.839131967e-13
4.839134018e-13
4.839136067e-13
4.839138116e-13
4.839140164e-13
4.83914221e-13
4.839144254e-13
4.839146296e-13
4.839148336e-13
4.839150372e-13
4.839152405e-13
4.839154431e-13
4.839156452e-13
4.839158468e-13
4.839160479e-13
4.839162484e-13
4.839164484e-13
4.839166477e-13
4.839168464e-13
4.839170445e-13
4.839172419e-13
4.839174385e-13
4.839176342e-13
4.839178288e-13
4.839180224e-13
4.839182151e-13
4.839184066e-13
4.839185971e-13
4.839187863e-13
4.839189744e-13
4.839191614e-13
4.839193472e-13
4.839195318e-13
4.83919715e-13
4.839198969e-13
4.839200776e-13
4.839202568e-13
4.839204342e-13
4.839206102e-13
4.839207848e-13
4.839209577e-13
4.839211291e-13
4.839212986e-13
4.839214664e-13
4.839216325e-13
4.839217968e-13
4.839219595e-13
4.839221205e-13
4.839222796e-13
4.839224362e-13
4.839225914e-13
4.839227442e-13
4.839228954e-13
4.839230449e-13
4.839231922e-13
4.839233375e-13
4.839234805e-13
4.839236213e-13
4.839237599e-13
4.839238962e-13
4.839240307e-13
4.839241633e-13
4.839242939e-13
4.839244225e-13
4.839245486e-13
4.839246725e-13
4.839247941e-13
4.839249136e-13
4.839250309e-13
4.839251454e-13
4.839252579e-13
4.839253686e-13
4.839254768e-13
4.839255829e-13
4.839256867e-13
4.839257887e-13
4.839258882e-13
4.839259859e-13
4.839260811e-13
4.83926174e-13
4.839262648e-13
4.839263538e-13
4.839264402e-13
4.839265249e-13
4.839266072e-13
4.839266878e-13
4.839267666e-13
4.839268437e-13
4.839269187e-13
4.83926992e-13
4.839270633e-13
4.839271328e-13
4.839272008e-13
4.839272669e-13
4.839273317e-13
4.839273947e-13
4.839274561e-13
4.839275159e-13
4.839275741e-13
4.839276311e-13
4.839276867e-13
4.839277409e-13
4.839277939e-13
4.839278456e-13
4.839278963e-13
4.839279459e-13
4.839279945e-13
4.839280422e-13
4.839280888e-13
4.839281345e-13
4.839281794e-13
4.839282237e-13
4.839282673e-13
4.839283103e-13
4.839283526e-13
4.839283944e-13
4.83928436e-13
4.839284772e-13
4.839285181e-13
4.839285585e-13
4.839285986e-13
4.839286385e-13
4.839286782e-13
4.83928718e-13
4.839287578e-13
4.839287976e-13
4.839288375e-13
4.839288773e-13
4.839289172e-13
4.839289573e-13
4.839289977e-13
4.839290383e-13
4.839290793e-13
4.839291205e-13
4.839291619e-13
4.839292036e-13
4.839292458e-13
4.839292885e-13
4.839293314e-13
4.839293747e-13
4.839294185e-13
4.839294628e-13
4.839295076e-13
4.839295527e-13
4.839295982e-13
4.839296441e-13
4.839296905e-13
4.839297372e-13
4.839297841e-13
4.839298312e-13
4.839298789e-13
4.839299269e-13
4.839299755e-13
4.839300243e-13
4.839300733e-13
4.839301222e-13
4.839301712e-13
4.839302201e-13
4.839302688e-13
4.839303175e-13
4.83930366e-13
4.839304144e-13
4.839304627e-13
4.839305108e-13
4.839305583e-13
4.83930605e-13
4.839306515e-13
4.839306975e-13
4.839307427e-13
4.83930787e-13
4.839308303e-13
4.839308728e-13
4.839309144e-13
4.839309543e-13
4.839309932e-13
4.83931031e-13
4.839310676e-13
4.839311024e-13
4.839311355e-13
4.839311669e-13
4.839311963e-13
4.83931224e-13
4.839312494e-13
4.839312723e-13
4.839312934e-13
4.839313128e-13
4.839313298e-13
4.839313442e-13
4.839313556e-13
4.83931364e-13
4.839313695e-13
4.839313721e-13
4.839313717e-13
4.839313685e-13
4.839313616e-13
4.839313517e-13
4.839313381e-13
4.839313202e-13
4.839312995e-13
4.839312754e-13
4.839312469e-13
4.839312143e-13
4.839311778e-13
4.839311374e-13
4.839310922e-13
4.83931043e-13
4.839309895e-13
4.839309316e-13
4.839308687e-13
4.839308014e-13
4.839307294e-13
4.839306532e-13
4.839305718e-13
4.839304855e-13
4.839303938e-13
4.839302963e-13
4.83930194e-13
4.83930087e-13
4.83929975e-13
4.839298576e-13
4.839297348e-13
4.839296056e-13
4.839294716e-13
4.839293331e-13
4.839291872e-13
4.839290363e-13
4.839288806e-13
4.839287184e-13
4.839285516e-13
4.839283792e-13
4.839282008e-13
4.839280159e-13
4.83927826e-13
4.839276299e-13
4.83927428e-13
4.83927221e-13
4.839270086e-13
4.839267908e-13
4.839265668e-13
4.839263364e-13
4.839261007e-13
4.83925859e-13
4.839256122e-13
4.8392536e-13
4.839251026e-13
4.839248394e-13
4.8392457e-13
4.839242949e-13
4.839240153e-13
4.839237302e-13
4.839234397e-13
4.839231439e-13
4.839228429e-13
4.839225365e-13
4.839222247e-13
4.839219083e-13
4.839215867e-13
4.839212608e-13
4.839209296e-13
4.839205938e-13
4.839202534e-13
4.839199089e-13
4.8391956e-13
4.839192057e-13
4.839188471e-13
4.839184838e-13
4.839181161e-13
4.839177444e-13
4.839173691e-13
4.839169899e-13
4.839166072e-13
4.839162208e-13
4.839158307e-13
4.83915437e-13
4.839150396e-13
4.839146388e-13
4.839142351e-13
4.839138281e-13
4.839134183e-13
4.839130055e-13
4.839125902e-13
4.839121726e-13
4.839117521e-13
4.839113286e-13
4.839109031e-13
4.839104757e-13
4.839100468e-13
4.83909616e-13
4.83909183e-13
4.839087482e-13
4.839083119e-13
4.839078744e-13
4.839074358e-13
4.839069961e-13
4.83906555e-13
4.839061131e-13
4.839056704e-13
4.839052271e-13
4.839047836e-13
4.839043396e-13
4.839038955e-13
4.839034516e-13
4.839030075e-13
4.839025634e-13
4.839021199e-13
4.839016769e-13
4.839012346e-13
4.83900793e-13
4.839003523e-13
4.838999126e-13
4.838994739e-13
4.838990362e-13
4.838985998e-13
4.838981651e-13
4.838977316e-13
4.838973005e-13
4.838968712e-13
4.838964445e-13
4.838960191e-13
4.838955959e-13
4.838951745e-13
4.838947565e-13
4.838943413e-13
4.838939292e-13
4.838935195e-13
4.838931121e-13
4.838927074e-13
4.83892306e-13
4.83891908e-13
4.838915141e-13
4.838911235e-13
4.838907361e-13
4.838903525e-13
4.838899727e-13
4.838895968e-13
4.838892249e-13
4.838888569e-13
4.83888493e-13
4.838881326e-13
4.838877769e-13
4.838874265e-13
4.838870798e-13
4.838867384e-13
4.838864014e-13
4.83886069e-13
4.838857413e-13
4.83885418e-13
4.838850999e-13
4.838847867e-13
4.838844786e-13
4.838841761e-13
4.83883878e-13
4.838835855e-13
4.838832978e-13
4.838830164e-13
4.838827401e-13
4.838824693e-13
4.838822035e-13
4.838819434e-13
4.838816895e-13
4.838814409e-13
4.838811976e-13
4.838809594e-13
4.838807263e-13
4.838805002e-13
4.838802803e-13
4.83880066e-13
4.838798562e-13
4.838796531e-13
4.838794559e-13
4.838792644e-13
4.838790787e-13
4.838788989e-13
4.838787247e-13
4.83878556e-13
4.838783935e-13
4.838782362e-13
4.83878086e-13
4.838779415e-13
4.838778022e-13
4.838776686e-13
4.838775412e-13
4.838774194e-13
4.838773031e-13
4.838771923e-13
4.838770873e-13
4.838769882e-13
4.838768948e-13
4.838768078e-13
4.838767255e-13
4.838766492e-13
4.838765782e-13
4.83876512e-13
4.838764517e-13
4.838763971e-13
4.838763478e-13
4.838763031e-13
4.838762638e-13
4.838762302e-13
4.838762014e-13
4.83876178e-13
4.838761591e-13
4.838761461e-13
4.838761368e-13
4.838761332e-13
4.838761339e-13
4.838761394e-13
4.838761494e-13
4.83876164e-13
4.838761832e-13
4.838762069e-13
4.838762353e-13
4.838762682e-13
4.838763054e-13
4.838763468e-13
4.838763929e-13
4.838764432e-13
4.838764977e-13
4.838765561e-13
4.838766183e-13
4.838766845e-13
4.838767546e-13
4.838768286e-13
4.838769062e-13
4.838769875e-13
4.838770724e-13
4.838771607e-13
4.838772525e-13
4.838773476e-13
4.83877446e-13
4.838775476e-13
4.838776523e-13
4.8387776e-13
4.838778707e-13
4.838779843e-13
4.838781007e-13
4.838782198e-13
4.838783415e-13
4.838784658e-13
4.838785926e-13
4.838787217e-13
4.838788532e-13
4.838789871e-13
4.838791234e-13
4.838792616e-13
4.838794019e-13
4.83879544e-13
4.838796878e-13
4.838798336e-13
4.838799812e-13
4.838801304e-13
4.838802815e-13
4.838804339e-13
4.838805877e-13
4.83880743e-13
4.838808995e-13
4.838810573e-13
4.838812161e-13
4.838813761e-13
4.83881537e-13
4.83881699e-13
4.838818619e-13
4.838820256e-13
4.838821901e-13
4.838823552e-13
4.838825209e-13
4.838826874e-13
4.838828544e-13
4.838830218e-13
4.838831894e-13
4.838833574e-13
4.838835255e-13
4.838836938e-13
4.838838623e-13
4.838840309e-13
4.838841997e-13
4.838843686e-13
4.838845373e-13
4.838847059e-13
4.838848743e-13
4.838850425e-13
4.838852105e-13
4.838853781e-13
4.838855453e-13
4.838857119e-13
4.838858781e-13
4.838860439e-13
4.838862092e-13
4.838863741e-13
4.838865384e-13
4.838867021e-13
4.83886865e-13
4.838870271e-13
4.838871883e-13
4.838873488e-13
4.838875086e-13
4.838876676e-13
4.838878256e-13
4.838879828e-13
4.83888139e-13
4.838882941e-13
4.838884484e-13
4.838886017e-13
4.838887538e-13
4.838889049e-13
4.838890549e-13
4.838892039e-13
4.838893516e-13
4.838894981e-13
4.838896434e-13
4.838897877e-13
4.838899309e-13
4.838900727e-13
4.838902132e-13
4.838903526e-13
4.838904906e-13
4.838906275e-13
4.838907633e-13
4.838908976e-13
4.838910303e-13
4.838911617e-13
4.838912917e-13
4.838914206e-13
4.838915482e-13
4.838916745e-13
4.838917993e-13
4.83891923e-13
4.83892045e-13
4.838921657e-13
4.83892285e-13
4.838924032e-13
4.838925199e-13
4.838926352e-13
4.838927492e-13
4.838928614e-13
4.838929724e-13
4.838930821e-13
4.838931908e-13
4.838932978e-13
4.838934034e-13
4.838935077e-13
4.838936106e-13
4.838937123e-13
4.838938127e-13
4.838939114e-13