/*--------------------------------*- C++ -*----------------------------------*\
| =========                 |                                                 |
| \\      /  F ield         | OpenFOAM: The Open Source CFD Toolbox           |
|  \\    /   O peration     | Version:  2312                                  |
|   \\  /    A nd           | Website:  www.openfoam.com                      |
|    \\/     M anipulation  |                                                 |
\*---------------------------------------------------------------------------*/
FoamFile
{
    version     2.0;
    format      ascii;
    arch        "LSB;label=32;scalar=64";
    class       volVectorField;
    location    "0.005";
    object      U;
}
// * * * * * * * * * * * * * * * * * * * * * * * * * * * * * * * * * * * * * //

dimensions      [0 1 -1 0 0 0 0];

internalField   nonuniform List<vector> 
8000
(
(9.943291542 0 0)
(9.986635363 0 0)
(9.993661493 0 0)
(9.99001692 0 0)
(9.989536528 0 0)
(9.989799995 0 0)
(9.989835294 0 0)
(9.98978516 0 0)
(9.989731124 0 0)
(9.989672786 0 0)
(9.989609498 0 0)
(9.989549601 0 0)
(9.989497782 0 0)
(9.989454831 0 0)
(9.989420418 0 0)
(9.989393851 0 0)
(9.989374597 0 0)
(9.989362592 0 0)
(9.989357856 0 0)
(9.989360649 0 0)
(9.989371724 0 0)
(9.989391246 0 0)
(9.989418659 0 0)
(9.989452988 0 0)
(9.989492377 0 0)
(9.98953427 0 0)
(9.989575747 0 0)
(9.989614258 0 0)
(9.98964736 0 0)
(9.989673278 0 0)
(9.989690944 0 0)
(9.989700128 0 0)
(9.989701619 0 0)
(9.98969646 0 0)
(9.989685799 0 0)
(9.989671272 0 0)
(9.989654424 0 0)
(9.989636877 0 0)
(9.989620398 0 0)
(9.989605288 0 0)
(9.989592684 0 0)
(9.989582924 0 0)
(9.989576062 0 0)
(9.989572008 0 0)
(9.989570496 0 0)
(9.989571151 0 0)
(9.989573657 0 0)
(9.989577703 0 0)
(9.989582951 0 0)
(9.989589133 0 0)
(9.989596391 0 0)
(9.989604337 0 0)
(9.989613107 0 0)
(9.989622814 0 0)
(9.989633507 0 0)
(9.989645258 0 0)
(9.989658106 0 0)
(9.98967203 0 0)
(9.989686927 0 0)
(9.989702625 0 0)
(9.989718889 0 0)
(9.9897355 0 0)
(9.98975207 0 0)
(9.989767924 0 0)
(9.989783237 0 0)
(9.989797419 0 0)
(9.98981029 0 0)
(9.989821577 0 0)
(9.989831192 0 0)
(9.989839105 0 0)
(9.989845346 0 0)
(9.989850016 0 0)
(9.989853256 0 0)
(9.989855288 0 0)
(9.989856333 0 0)
(9.989856608 0 0)
(9.989856367 0 0)
(9.989855827 0 0)
(9.989855132 0 0)
(9.98985453 0 0)
(9.989854153 0 0)
(9.989854103 0 0)
(9.989854469 0 0)
(9.989855301 0 0)
(9.989856645 0 0)
(9.989858498 0 0)
(9.98986089 0 0)
(9.989863796 0 0)
(9.98986718 0 0)
(9.989871004 0 0)
(9.989875224 0 0)
(9.989879786 0 0)
(9.989884637 0 0)
(9.989889716 0 0)
(9.98989496 0 0)
(9.989900329 0 0)
(9.989905764 0 0)
(9.989911188 0 0)
(9.989916568 0 0)
(9.989921849 0 0)
(9.989926964 0 0)
(9.98993188 0 0)
(9.989936567 0 0)
(9.989940867 0 0)
(9.989944884 0 0)
(9.989948511 0 0)
(9.989951678 0 0)
(9.98995437 0 0)
(9.989956547 0 0)
(9.989958152 0 0)
(9.989959213 0 0)
(9.989959582 0 0)
(9.989959354 0 0)
(9.989958589 0 0)
(9.989957133 0 0)
(9.989954959 0 0)
(9.98995217 0 0)
(9.989948742 0 0)
(9.98994467 0 0)
(9.989940033 0 0)
(9.989934857 0 0)
(9.989929212 0 0)
(9.989923176 0 0)
(9.989916836 0 0)
(9.989910298 0 0)
(9.98990367 0 0)
(9.98989708 0 0)
(9.989890657 0 0)
(9.989884507 0 0)
(9.98987875 0 0)
(9.989873485 0 0)
(9.989868801 0 0)
(9.989864774 0 0)
(9.989861447 0 0)
(9.98985887 0 0)
(9.989857026 0 0)
(9.989855902 0 0)
(9.989855438 0 0)
(9.989855533 0 0)
(9.989856102 0 0)
(9.989857034 0 0)
(9.989858124 0 0)
(9.989859191 0 0)
(9.989860079 0 0)
(9.989860545 0 0)
(9.989860436 0 0)
(9.989859568 0 0)
(9.989857714 0 0)
(9.989854719 0 0)
(9.989850405 0 0)
(9.989844671 0 0)
(9.989837435 0 0)
(9.989828643 0 0)
(9.989818127 0 0)
(9.989806322 0 0)
(9.98979304 0 0)
(9.989778554 0 0)
(9.989763071 0 0)
(9.989746874 0 0)
(9.989730289 0 0)
(9.989713705 0 0)
(9.989697584 0 0)
(9.989682346 0 0)
(9.989668425 0 0)
(9.98965629 0 0)
(9.989646378 0 0)
(9.989639238 0 0)
(9.989635251 0 0)
(9.989634293 0 0)
(9.989638205 0 0)
(9.989645439 0 0)
(9.98965677 0 0)
(9.989673061 0 0)
(9.989694559 0 0)
(9.989721081 0 0)
(9.989752794 0 0)
(9.989789801 0 0)
(9.989832247 0 0)
(9.989879608 0 0)
(9.989931903 0 0)
(9.989990512 0 0)
(9.990053326 0 0)
(9.990120986 0 0)
(9.990193184 0 0)
(9.990269509 0 0)
(9.990349587 0 0)
(9.990433052 0 0)
(9.990519427 0 0)
(9.990608282 0 0)
(9.990699152 0 0)
(9.990791565 0 0)
(9.990885055 0 0)
(9.990979151 0 0)
(9.991073349 0 0)
(9.991167201 0 0)
(9.991260336 0 0)
(9.991352127 0 0)
(9.991442478 0 0)
(9.991530819 0 0)
(9.991617046 0 0)
(9.991700825 0 0)
(9.991781775 0 0)
(9.991859597 0 0)
(9.99193418 0 0)
(9.992005691 0 0)
(9.992073447 0 0)
(9.99213783 0 0)
(9.992198461 0 0)
(9.99225493 0 0)
(9.992307765 0 0)
(9.992356964 0 0)
(9.992402408 0 0)
(9.992443919 0 0)
(9.992481734 0 0)
(9.992516094 0 0)
(9.992546564 0 0)
(9.99257369 0 0)
(9.992596644 0 0)
(9.992616726 0 0)
(9.992633189 0 0)
(9.992646742 0 0)
(9.992657154 0 0)
(9.992664694 0 0)
(9.992669528 0 0)
(9.992671768 0 0)
(9.992671699 0 0)
(9.992669499 0 0)
(9.992665214 0 0)
(9.992659049 0 0)
(9.992651129 0 0)
(9.992641648 0 0)
(9.992630754 0 0)
(9.992618631 0 0)
(9.992605444 0 0)
(9.992591356 0 0)
(9.992576543 0 0)
(9.992561176 0 0)
(9.992545431 0 0)
(9.99252947 0 0)
(9.992513455 0 0)
(9.99249757 0 0)
(9.992481969 0 0)
(9.99246678 0 0)
(9.992452147 0 0)
(9.992438207 0 0)
(9.992425077 0 0)
(9.992412874 0 0)
(9.992401702 0 0)
(9.992391652 0 0)
(9.992382811 0 0)
(9.992375248 0 0)
(9.992369029 0 0)
(9.992364194 0 0)
(9.9923608 0 0)
(9.992358859 0 0)
(9.992358344 0 0)
(9.992359253 0 0)
(9.992361609 0 0)
(9.992365359 0 0)
(9.9923706 0 0)
(9.99237713 0 0)
(9.992384975 0 0)
(9.992394071 0 0)
(9.992404516 0 0)
(9.992415993 0 0)
(9.992428515 0 0)
(9.992442101 0 0)
(9.992456564 0 0)
(9.992471945 0 0)
(9.992488073 0 0)
(9.992504884 0 0)
(9.992522343 0 0)
(9.992540368 0 0)
(9.992558892 0 0)
(9.992577862 0 0)
(9.992597205 0 0)
(9.99261689 0 0)
(9.992636855 0 0)
(9.992657029 0 0)
(9.99267751 0 0)
(9.992698091 0 0)
(9.992718842 0 0)
(9.992739739 0 0)
(9.992760755 0 0)
(9.992781881 0 0)
(9.992803113 0 0)
(9.992824447 0 0)
(9.992845883 0 0)
(9.992867426 0 0)
(9.992889079 0 0)
(9.99291085 0 0)
(9.992932748 0 0)
(9.992954783 0 0)
(9.992976963 0 0)
(9.992999299 0 0)
(9.993021801 0 0)
(9.993044479 0 0)
(9.99306734 0 0)
(9.993090397 0 0)
(9.993113642 0 0)
(9.993137119 0 0)
(9.993160758 0 0)
(9.993184692 0 0)
(9.993208778 0 0)
(9.993233085 0 0)
(9.99325762 0 0)
(9.993282363 0 0)
(9.993307314 0 0)
(9.993332545 0 0)
(9.993357901 0 0)
(9.993383498 0 0)
(9.993409255 0 0)
(9.993435214 0 0)
(9.993461372 0 0)
(9.993487708 0 0)
(9.993514216 0 0)
(9.993540894 0 0)
(9.993567738 0 0)
(9.993594738 0 0)
(9.993621891 0 0)
(9.993649276 0 0)
(9.993676743 0 0)
(9.993704371 0 0)
(9.993732184 0 0)
(9.993760178 0 0)
(9.993788321 0 0)
(9.993816639 0 0)
(9.993845162 0 0)
(9.993873885 0 0)
(9.993902811 0 0)
(9.993931962 0 0)
(9.993961356 0 0)
(9.993990999 0 0)
(9.994020913 0 0)
(9.994051154 0 0)
(9.994081658 0 0)
(9.994112479 0 0)
(9.994143681 0 0)
(9.994175227 0 0)
(9.994207122 0 0)
(9.994239518 0 0)
(9.994272166 0 0)
(9.994305292 0 0)
(9.994339019 0 0)
(9.994373094 0 0)
(9.994407689 0 0)
(9.994442835 0 0)
(9.994478501 0 0)
(9.994514704 0 0)
(9.99455146 0 0)
(9.994588766 0 0)
(9.994626632 0 0)
(9.994665052 0 0)
(9.994704023 0 0)
(9.994743514 0 0)
(9.994783553 0 0)
(9.994824166 0 0)
(9.994865096 0 0)
(9.99490668 0 0)
(9.994948688 0 0)
(9.994991103 0 0)
(9.995033855 0 0)
(9.995076997 0 0)
(9.995120457 0 0)
(9.995164192 0 0)
(9.995208171 0 0)
(9.995252353 0 0)
(9.995296671 0 0)
(9.995341147 0 0)
(9.995385658 0 0)
(9.995430199 0 0)
(9.99547476 0 0)
(9.995519236 0 0)
(9.995563626 0 0)
(9.995607851 0 0)
(9.995651989 0 0)
(9.995695889 0 0)
(9.99573958 0 0)
(9.995783038 0 0)
(9.995826199 0 0)
(9.995869114 0 0)
(9.995911723 0 0)
(9.995954028 0 0)
(9.995996018 0 0)
(9.996037688 0 0)
(9.996079049 0 0)
(9.996120094 0 0)
(9.996160814 0 0)
(9.996201279 0 0)
(9.996241404 0 0)
(9.996281278 0 0)
(9.996320886 0 0)
(9.996360275 0 0)
(9.996399423 0 0)
(9.996438357 0 0)
(9.996477126 0 0)
(9.996515746 0 0)
(9.996554231 0 0)
(9.996592608 0 0)
(9.996630903 0 0)
(9.99666914 0 0)
(9.996707343 0 0)
(9.996745538 0 0)
(9.996783747 0 0)
(9.996821994 0 0)
(9.996860301 0 0)
(9.99689869 0 0)
(9.99693718 0 0)
(9.996975793 0 0)
(9.997014544 0 0)
(9.997053451 0 0)
(9.997092528 0 0)
(9.99713179 0 0)
(9.997171248 0 0)
(9.997210913 0 0)
(9.997250794 0 0)
(9.997290899 0 0)
(9.997331235 0 0)
(9.99737178 0 0)
(9.997412643 0 0)
(9.997453679 0 0)
(9.997494974 0 0)
(9.997536527 0 0)
(9.997578323 0 0)
(9.997620365 0 0)
(9.997662654 0 0)
(9.997705187 0 0)
(9.997747961 0 0)
(9.997790975 0 0)
(9.997834225 0 0)
(9.997877708 0 0)
(9.997921421 0 0)
(9.997965359 0 0)
(9.998009519 0 0)
(9.998053898 0 0)
(9.998098491 0 0)
(9.998143294 0 0)
(9.998188304 0 0)
(9.998233518 0 0)
(9.998278931 0 0)
(9.99832454 0 0)
(9.998370342 0 0)
(9.998416333 0 0)
(9.998462512 0 0)
(9.998508874 0 0)
(9.998555418 0 0)
(9.99860214 0 0)
(9.998649039 0 0)
(9.998696112 0 0)
(9.998743357 0 0)
(9.998790776 0 0)
(9.998838364 0 0)
(9.998886119 0 0)
(9.99893404 0 0)
(9.998982126 0 0)
(9.999030377 0 0)
(9.999078793 0 0)
(9.999127371 0 0)
(9.999176112 0 0)
(9.999225014 0 0)
(9.999274077 0 0)
(9.999323301 0 0)
(9.999372685 0 0)
(9.999422229 0 0)
(9.999471933 0 0)
(9.999521796 0 0)
(9.999571819 0 0)
(9.999621992 0 0)
(9.999672306 0 0)
(9.999722861 0 0)
(9.999773508 0 0)
(9.999824308 0 0)
(9.999875292 0 0)
(9.99992643 0 0)
(9.99997772 0 0)
(10.00002917 0 0)
(10.00008079 0 0)
(10.00013256 0 0)
(10.00018448 0 0)
(10.00023657 0 0)
(10.00028881 0 0)
(10.00034121 0 0)
(10.00039377 0 0)
(10.00044648 0 0)
(10.00049936 0 0)
(10.00055239 0 0)
(10.00060558 0 0)
(10.00065892 0 0)
(10.00071241 0 0)
(10.00076606 0 0)
(10.00081989 0 0)
(10.00087385 0 0)
(10.00092796 0 0)
(10.00098224 0 0)
(10.00103667 0 0)
(10.00109125 0 0)
(10.00114598 0 0)
(10.00120087 0 0)
(10.0012559 0 0)
(10.00131109 0 0)
(10.00136642 0 0)
(10.00142191 0 0)
(10.00147754 0 0)
(10.00153332 0 0)
(10.00158925 0 0)
(10.00164532 0 0)
(10.00170154 0 0)
(10.0017579 0 0)
(10.00181441 0 0)
(10.00187105 0 0)
(10.00192784 0 0)
(10.00198476 0 0)
(10.00204182 0 0)
(10.00209902 0 0)
(10.00215635 0 0)
(10.00221382 0 0)
(10.00227142 0 0)
(10.00232914 0 0)
(10.002387 0 0)
(10.00244496 0 0)
(10.0025031 0 0)
(10.00256132 0 0)
(10.00261967 0 0)
(10.00267814 0 0)
(10.00273672 0 0)
(10.00279542 0 0)
(10.00285422 0 0)
(10.00291314 0 0)
(10.00297216 0 0)
(10.00303128 0 0)
(10.00309051 0 0)
(10.00314983 0 0)
(10.00320924 0 0)
(10.00326874 0 0)
(10.00332833 0 0)
(10.003388 0 0)
(10.00344775 0 0)
(10.00350757 0 0)
(10.00356748 0 0)
(10.00362744 0 0)
(10.00368746 0 0)
(10.00374755 0 0)
(10.00380769 0 0)
(10.00386789 0 0)
(10.00392812 0 0)
(10.00398841 0 0)
(10.00404873 0 0)
(10.00410908 0 0)
(10.00416946 0 0)
(10.00422987 0 0)
(10.0042903 0 0)
(10.00435074 0 0)
(10.0044112 0 0)
(10.00447167 0 0)
(10.00453214 0 0)
(10.00459261 0 0)
(10.00465308 0 0)
(10.00471354 0 0)
(10.004774 0 0)
(10.00483444 0 0)
(10.00489486 0 0)
(10.00495526 0 0)
(10.00501565 0 0)
(10.005076 0 0)
(10.00513633 0 0)
(10.00519663 0 0)
(10.0052569 0 0)
(10.00531714 0 0)
(10.00537734 0 0)
(10.00543751 0 0)
(10.00549764 0 0)
(10.00555773 0 0)
(10.00561778 0 0)
(10.00567779 0 0)
(10.00573776 0 0)
(10.00579769 0 0)
(10.00585758 0 0)
(10.00591743 0 0)
(10.00597723 0 0)
(10.00603699 0 0)
(10.00609671 0 0)
(10.00615638 0 0)
(10.00621601 0 0)
(10.0062756 0 0)
(10.00633514 0 0)
(10.00639464 0 0)
(10.0064541 0 0)
(10.00651351 0 0)
(10.00657288 0 0)
(10.00663221 0 0)
(10.00669148 0 0)
(10.00675072 0 0)
(10.0068099 0 0)
(10.00686903 0 0)
(10.00692812 0 0)
(10.00698716 0 0)
(10.00704614 0 0)
(10.00710507 0 0)
(10.00716394 0 0)
(10.00722275 0 0)
(10.00728151 0 0)
(10.0073402 0 0)
(10.00739882 0 0)
(10.00745738 0 0)
(10.00751587 0 0)
(10.00757428 0 0)
(10.00763262 0 0)
(10.00769088 0 0)
(10.00774905 0 0)
(10.00780714 0 0)
(10.00786514 0 0)
(10.00792305 0 0)
(10.00798086 0 0)
(10.00803857 0 0)
(10.00809618 0 0)
(10.00815368 0 0)
(10.00821108 0 0)
(10.00826835 0 0)
(10.00832552 0 0)
(10.00838256 0 0)
(10.00843947 0 0)
(10.00849626 0 0)
(10.00855293 0 0)
(10.00860945 0 0)
(10.00866584 0 0)
(10.00872209 0 0)
(10.0087782 0 0)
(10.00883417 0 0)
(10.00888998 0 0)
(10.00894565 0 0)
(10.00900117 0 0)
(10.00905653 0 0)
(10.00911173 0 0)
(10.00916677 0 0)
(10.00922166 0 0)
(10.00927638 0 0)
(10.00933094 0 0)
(10.00938533 0 0)
(10.00943955 0 0)
(10.00949361 0 0)
(10.00954749 0 0)
(10.00960121 0 0)
(10.00965475 0 0)
(10.00970812 0 0)
(10.00976132 0 0)
(10.00981435 0 0)
(10.0098672 0 0)
(10.00991988 0 0)
(10.00997238 0 0)
(10.01002471 0 0)
(10.01007686 0 0)
(10.01012883 0 0)
(10.01018063 0 0)
(10.01023226 0 0)
(10.0102837 0 0)
(10.01033498 0 0)
(10.01038607 0 0)
(10.010437 0 0)
(10.01048775 0 0)
(10.01053832 0 0)
(10.01058872 0 0)
(10.01063896 0 0)
(10.010689 0 0)
(10.01073889 0 0)
(10.0107886 0 0)
(10.01083814 0 0)
(10.01088751 0 0)
(10.01093672 0 0)
(10.01098574 0 0)
(10.01103461 0 0)
(10.0110833 0 0)
(10.01113183 0 0)
(10.01118019 0 0)
(10.01122838 0 0)
(10.01127641 0 0)
(10.01132429 0 0)
(10.01137199 0 0)
(10.01141953 0 0)
(10.01146691 0 0)
(10.01151414 0 0)
(10.0115612 0 0)
(10.0116081 0 0)
(10.01165485 0 0)
(10.01170144 0 0)
(10.01174787 0 0)
(10.01179415 0 0)
(10.01184027 0 0)
(10.01188625 0 0)
(10.01193207 0 0)
(10.01197773 0 0)
(10.01202325 0 0)
(10.01206862 0 0)
(10.01211384 0 0)
(10.01215891 0 0)
(10.01220384 0 0)
(10.01224862 0 0)
(10.01229325 0 0)
(10.01233774 0 0)
(10.01238209 0 0)
(10.0124263 0 0)
(10.01247036 0 0)
(10.01251429 0 0)
(10.01255807 0 0)
(10.01260172 0 0)
(10.01264522 0 0)
(10.01268859 0 0)
(10.01273183 0 0)
(10.01277492 0 0)
(10.01281788 0 0)
(10.01286071 0 0)
(10.01290341 0 0)
(10.01294597 0 0)
(10.0129884 0 0)
(10.0130307 0 0)
(10.01307287 0 0)
(10.0131149 0 0)
(10.0131568 0 0)
(10.01319859 0 0)
(10.01324023 0 0)
(10.01328175 0 0)
(10.01332315 0 0)
(10.01336441 0 0)
(10.01340555 0 0)
(10.01344656 0 0)
(10.01348744 0 0)
(10.0135282 0 0)
(10.01356883 0 0)
(10.01360934 0 0)
(10.01364972 0 0)
(10.01368998 0 0)
(10.01373011 0 0)
(10.01377012 0 0)
(10.01381 0 0)
(10.01384975 0 0)
(10.01388939 0 0)
(10.01392889 0 0)
(10.01396828 0 0)
(10.01400753 0 0)
(10.01404667 0 0)
(10.01408568 0 0)
(10.01412456 0 0)
(10.01416332 0 0)
(10.01420195 0 0)
(10.01424046 0 0)
(10.01427884 0 0)
(10.0143171 0 0)
(10.01435523 0 0)
(10.01439322 0 0)
(10.0144311 0 0)
(10.01446886 0 0)
(10.01450648 0 0)
(10.01454397 0 0)
(10.01458134 0 0)
(10.01461858 0 0)
(10.01465569 0 0)
(10.01469267 0 0)
(10.01472953 0 0)
(10.01476625 0 0)
(10.01480284 0 0)
(10.01483931 0 0)
(10.01487564 0 0)
(10.01491183 0 0)
(10.0149479 0 0)
(10.01498384 0 0)
(10.01501964 0 0)
(10.01505531 0 0)
(10.01509085 0 0)
(10.01512625 0 0)
(10.01516152 0 0)
(10.01519665 0 0)
(10.01523165 0 0)
(10.01526651 0 0)
(10.01530124 0 0)
(10.01533583 0 0)
(10.01537028 0 0)
(10.0154046 0 0)
(10.01543877 0 0)
(10.01547281 0 0)
(10.0155067 0 0)
(10.01554045 0 0)
(10.01557406 0 0)
(10.01560753 0 0)
(10.01564085 0 0)
(10.01567402 0 0)
(10.01570705 0 0)
(10.01573992 0 0)
(10.01577265 0 0)
(10.01580522 0 0)
(10.01583763 0 0)
(10.01586989 0 0)
(10.01590198 0 0)
(10.01593391 0 0)
(10.01596568 0 0)
(10.01599728 0 0)
(10.0160287 0 0)
(10.01605995 0 0)
(10.01609102 0 0)
(10.01612191 0 0)
(10.01615258 0 0)
(10.01618307 0 0)
(10.01621335 0 0)
(10.01624346 0 0)
(10.01627332 0 0)
(10.01630297 0 0)
(10.0163324 0 0)
(10.0163616 0 0)
(10.01639056 0 0)
(10.01641928 0 0)
(10.0164477 0 0)
(10.01647591 0 0)
(10.01650381 0 0)
(10.01653138 0 0)
(10.01655875 0 0)
(10.01658573 0 0)
(10.01661244 0 0)
(10.0166388 0 0)
(10.01666486 0 0)
(10.01669049 0 0)
(10.01671585 0 0)
(10.01674081 0 0)
(10.01676534 0 0)
(10.01678952 0 0)
(10.01681328 0 0)
(10.01683661 0 0)
(10.01685952 0 0)
(10.01688187 0 0)
(10.01690388 0 0)
(10.01692541 0 0)
(10.01694639 0 0)
(10.0169669 0 0)
(10.01698688 0 0)
(10.01700634 0 0)
(10.01702522 0 0)
(10.01704353 0 0)
(10.01706145 0 0)
(10.01707858 0 0)
(10.01709512 0 0)
(10.01711127 0 0)
(10.01712662 0 0)
(10.01714147 0 0)
(10.01715557 0 0)
(10.01716901 0 0)
(10.01718195 0 0)
(10.01719419 0 0)
(10.01720575 0 0)
(10.01721661 0 0)
(10.01722677 0 0)
(10.0172363 0 0)
(10.01724515 0 0)
(10.0172533 0 0)
(10.01726075 0 0)
(10.01726751 0 0)
(10.01727359 0 0)
(10.01727896 0 0)
(10.01728363 0 0)
(10.01728754 0 0)
(10.01729078 0 0)
(10.01729335 0 0)
(10.01729533 0 0)
(10.0172965 0 0)
(10.01729695 0 0)
(10.01729687 0 0)
(10.01729606 0 0)
(10.01729445 0 0)
(10.01729239 0 0)
(10.01728958 0 0)
(10.01728628 0 0)
(10.01728225 0 0)
(10.01727757 0 0)
(10.01727234 0 0)
(10.01726651 0 0)
(10.01726007 0 0)
(10.01725306 0 0)
(10.01724549 0 0)
(10.01723734 0 0)
(10.01722868 0 0)
(10.01721948 0 0)
(10.01720977 0 0)
(10.01719957 0 0)
(10.01718883 0 0)
(10.01717759 0 0)
(10.017166 0 0)
(10.01715383 0 0)
(10.01714127 0 0)
(10.01712832 0 0)
(10.0171149 0 0)
(10.01710109 0 0)
(10.01708685 0 0)
(10.01707223 0 0)
(10.01705726 0 0)
(10.01704189 0 0)
(10.01702615 0 0)
(10.01701014 0 0)
(10.01699364 0 0)
(10.01697693 0 0)
(10.01695987 0 0)
(10.01694249 0 0)
(10.0169248 0 0)
(10.01690675 0 0)
(10.01688849 0 0)
(10.0168699 0 0)
(10.01685101 0 0)
(10.01683188 0 0)
(10.01681243 0 0)
(10.01679273 0 0)
(10.01677269 0 0)
(10.01675244 0 0)
(10.01673195 0 0)
(10.01671116 0 0)
(10.01669014 0 0)
(10.01666877 0 0)
(10.01664719 0 0)
(10.0166254 0 0)
(10.01660325 0 0)
(10.01658085 0 0)
(10.01655828 0 0)
(10.01653533 0 0)
(10.01651211 0 0)
(10.01648876 0 0)
(10.016465 0 0)
(10.01644099 0 0)
(10.01641667 0 0)
(10.01639215 0 0)
(10.01636734 0 0)
(10.01634213 0 0)
(10.01631672 0 0)
(10.01629099 0 0)
(10.01626497 0 0)
(10.0162386 0 0)
(10.01621194 0 0)
(10.01618496 0 0)
(10.01615764 0 0)
(10.01613001 0 0)
(10.01610209 0 0)
(10.01607384 0 0)
(10.01604509 0 0)
(10.01601612 0 0)
(10.0159869 0 0)
(10.0159571 0 0)
(10.01592697 0 0)
(10.01589658 0 0)
(10.01586582 0 0)
(10.01583458 0 0)
(10.01580294 0 0)
(10.01577103 0 0)
(10.01573861 0 0)
(10.01570582 0 0)
(10.0156726 0 0)
(10.01563906 0 0)
(10.015605 0 0)
(10.01557053 0 0)
(10.01553564 0 0)
(10.01550048 0 0)
(10.01546464 0 0)
(10.01542839 0 0)
(10.01539181 0 0)
(10.01535478 0 0)
(10.01531724 0 0)
(10.01527928 0 0)
(10.01524087 0 0)
(10.01520207 0 0)
(10.01516267 0 0)
(10.01512289 0 0)
(10.0150827 0 0)
(10.01504198 0 0)
(10.01500082 0 0)
(10.01495928 0 0)
(10.01491718 0 0)
(10.01487476 0 0)
(10.01483175 0 0)
(10.01478848 0 0)
(10.01474461 0 0)
(10.01470038 0 0)
(10.01465567 0 0)
(10.01461073 0 0)
(10.01456513 0 0)
(10.01451926 0 0)
(10.01447304 0 0)
(10.01442639 0 0)
(10.0143794 0 0)
(10.01433199 0 0)
(10.01428435 0 0)
(10.01423625 0 0)
(10.01418794 0 0)
(10.01413925 0 0)
(10.01409031 0 0)
(10.01404118 0 0)
(10.0139917 0 0)
(10.01394203 0 0)
(10.01389213 0 0)
(10.01384206 0 0)
(10.01379178 0 0)
(10.01374137 0 0)
(10.01369088 0 0)
(10.0136402 0 0)
(10.0135895 0 0)
(10.01353874 0 0)
(10.01348792 0 0)
(10.01343712 0 0)
(10.01338628 0 0)
(10.0133355 0 0)
(10.01328482 0 0)
(10.01323419 0 0)
(10.01318368 0 0)
(10.01313325 0 0)
(10.01308305 0 0)
(10.01303303 0 0)
(10.01298319 0 0)
(10.01293358 0 0)
(10.01288418 0 0)
(10.01283522 0 0)
(10.01278633 0 0)
(10.01273796 0 0)
(10.01268981 0 0)
(10.01264219 0 0)
(10.01259481 0 0)
(10.01254783 0 0)
(10.01250129 0 0)
(10.01245518 0 0)
(10.01240958 0 0)
(10.01236456 0 0)
(10.01231987 0 0)
(10.01227566 0 0)
(10.01223209 0 0)
(10.01218897 0 0)
(10.01214649 0 0)
(10.01210442 0 0)
(10.01206298 0 0)
(10.0120221 0 0)
(10.01198186 0 0)
(10.01194217 0 0)
(10.01190296 0 0)
(10.01186449 0 0)
(10.01182654 0 0)
(10.01178918 0 0)
(10.01175244 0 0)
(10.01171622 0 0)
(10.01168062 0 0)
(10.01164574 0 0)
(10.01161113 0 0)
(10.01157737 0 0)
(10.01154397 0 0)
(10.0115112 0 0)
(10.01147898 0 0)
(10.01144731 0 0)
(10.01141616 0 0)
(10.01138549 0 0)
(10.0113553 0 0)
(10.01132564 0 0)
(10.01129642 0 0)
(10.01126762 0 0)
(10.01123929 0 0)
(10.01121133 0 0)
(10.01118379 0 0)
(10.01115662 0 0)
(10.01112991 0 0)
(10.01110357 0 0)
(10.0110775 0 0)
(10.01105174 0 0)
(10.01102634 0 0)
(10.01100121 0 0)
(10.0109764 0 0)
(10.01095183 0 0)
(10.01092743 0 0)
(10.0109033 0 0)
(10.01087941 0 0)
(10.01085566 0 0)
(10.01083209 0 0)
(10.01080868 0 0)
(10.0107854 0 0)
(10.01076224 0 0)
(10.01073917 0 0)
(10.01071623 0 0)
(10.01069335 0 0)
(10.01067054 0 0)
(10.01064776 0 0)
(10.01062505 0 0)
(10.01060233 0 0)
(10.01057964 0 0)
(10.01055695 0 0)
(10.01053424 0 0)
(10.01051152 0 0)
(10.01048875 0 0)
(10.01046594 0 0)
(10.01044308 0 0)
(10.01042017 0 0)
(10.01039717 0 0)
(10.01037409 0 0)
(10.01035092 0 0)
(10.01032766 0 0)
(10.01030429 0 0)
(10.01028078 0 0)
(10.01025718 0 0)
(10.01023343 0 0)
(10.01020957 0 0)
(10.01018555 0 0)
(10.01016137 0 0)
(10.01013704 0 0)
(10.01011252 0 0)
(10.01008777 0 0)
(10.01006295 0 0)
(10.01003795 0 0)
(10.01001262 0 0)
(10.00998712 0 0)
(10.00996145 0 0)
(10.00993553 0 0)
(10.00990935 0 0)
(10.00988296 0 0)
(10.00985622 0 0)
(10.00982929 0 0)
(10.009802 0 0)
(10.00977445 0 0)
(10.00974669 0 0)
(10.00971853 0 0)
(10.00968996 0 0)
(10.00966106 0 0)
(10.00963188 0 0)
(10.00960225 0 0)
(10.0095723 0 0)
(10.009542 0 0)
(10.00951119 0 0)
(10.00947994 0 0)
(10.00944828 0 0)
(10.00941603 0 0)
(10.00938314 0 0)
(10.00935 0 0)
(10.00931631 0 0)
(10.00928204 0 0)
(10.0092471 0 0)
(10.00921174 0 0)
(10.00917571 0 0)
(10.00913915 0 0)
(10.0091015 0 0)
(10.00906335 0 0)
(10.00902456 0 0)
(10.00898512 0 0)
(10.00894481 0 0)
(10.00890365 0 0)
(10.00886179 0 0)
(10.00881916 0 0)
(10.00877544 0 0)
(10.00873108 0 0)
(10.00868581 0 0)
(10.00863952 0 0)
(10.00859233 0 0)
(10.008544 0 0)
(10.00849498 0 0)
(10.00844476 0 0)
(10.00839335 0 0)
(10.00834115 0 0)
(10.00828778 0 0)
(10.00823327 0 0)
(10.00817768 0 0)
(10.00812114 0 0)
(10.00806272 0 0)
(10.00800408 0 0)
(10.00794351 0 0)
(10.00788159 0 0)
(10.00781903 0 0)
(10.00775471 0 0)
(10.00768942 0 0)
(10.00762282 0 0)
(10.00755473 0 0)
(10.00748521 0 0)
(10.00741439 0 0)
(10.00734248 0 0)
(10.00726887 0 0)
(10.00719414 0 0)
(10.00711759 0 0)
(10.00703965 0 0)
(10.0069607 0 0)
(10.00688006 0 0)
(10.00679792 0 0)
(10.00671437 0 0)
(10.0066295 0 0)
(10.00654268 0 0)
(10.00645465 0 0)
(10.00636522 0 0)
(10.00627436 0 0)
(10.00618138 0 0)
(10.00608768 0 0)
(10.00599165 0 0)
(10.00589472 0 0)
(10.00579631 0 0)
(10.00569593 0 0)
(10.0055939 0 0)
(10.0054908 0 0)
(10.00538606 0 0)
(10.0052797 0 0)
(10.00517193 0 0)
(10.00506235 0 0)
(10.00495139 0 0)
(10.00483899 0 0)
(10.0047247 0 0)
(10.00460962 0 0)
(10.00449204 0 0)
(10.00437375 0 0)
(10.00425365 0 0)
(10.00413162 0 0)
(10.00400899 0 0)
(10.00388411 0 0)
(10.0037578 0 0)
(10.00363039 0 0)
(10.00350103 0 0)
(10.00337062 0 0)
(10.00323861 0 0)
(10.0031051 0 0)
(10.00297009 0 0)
(10.00283372 0 0)
(10.00269576 0 0)
(10.00255653 0 0)
(10.00241606 0 0)
(10.00227384 0 0)
(10.00212996 0 0)
(10.00198548 0 0)
(10.00183877 0 0)
(10.00169132 0 0)
(10.00154246 0 0)
(10.00139217 0 0)
(10.00124006 0 0)
(10.0010871 0 0)
(10.00093292 0 0)
(10.00077704 0 0)
(10.00062016 0 0)
(10.0004618 0 0)
(10.00030222 0 0)
(10.00014146 0 0)
(9.999979442 0 0)
(9.99981606 0 0)
(9.999651741 0 0)
(9.999486061 0 0)
(9.999318911 0 0)
(9.999150605 0 0)
(9.998981569 0 0)
(9.998811253 0 0)
(9.998639539 0 0)
(9.998466621 0 0)
(9.998292776 0 0)
(9.998118146 0 0)
(9.99794192 0 0)
(9.997764778 0 0)
(9.99758655 0 0)
(9.997407518 0 0)
(9.997227313 0 0)
(9.997046072 0 0)
(9.996863917 0 0)
(9.996680923 0 0)
(9.996496712 0 0)
(9.996311618 0 0)
(9.996125869 0 0)
(9.995938879 0 0)
(9.995751195 0 0)
(9.9955627 0 0)
(9.995373272 0 0)
(9.995182939 0 0)
(9.994992033 0 0)
(9.994800219 0 0)
(9.994607702 0 0)
(9.994414487 0 0)
(9.994220545 0 0)
(9.994025929 0 0)
(9.993830618 0 0)
(9.993634728 0 0)
(9.993438036 0 0)
(9.993241017 0 0)
(9.993043347 0 0)
(9.992845079 0 0)
(9.992646406 0 0)
(9.992447168 0 0)
(9.992247463 0 0)
(9.992047387 0 0)
(9.991846816 0 0)
(9.991645933 0 0)
(9.991444736 0 0)
(9.991243223 0 0)
(9.991041318 0 0)
(9.990839242 0 0)
(9.990636907 0 0)
(9.990434362 0 0)
(9.990231657 0 0)
(9.990028812 0 0)
(9.98982584 0 0)
(9.989622833 0 0)
(9.98941976 0 0)
(9.989216682 0 0)
(9.989013586 0 0)
(9.988810597 0 0)
(9.988607571 0 0)
(9.988404807 0 0)
(9.988202182 0 0)
(9.987999766 0 0)
(9.9877975 0 0)
(9.987595499 0 0)
(9.987393821 0 0)
(9.987192341 0 0)
(9.986991316 0 0)
(9.986790692 0 0)
(9.986590516 0 0)
(9.986390837 0 0)
(9.986191531 0 0)
(9.985992801 0 0)
(9.985794685 0 0)
(9.985597164 0 0)
(9.985400235 0 0)
(9.985203979 0 0)
(9.985008408 0 0)
(9.98481362 0 0)
(9.984619522 0 0)
(9.984426318 0 0)
(9.984233966 0 0)
(9.984042618 0 0)
(9.983851924 0 0)
(9.983662482 0 0)
(9.983473872 0 0)
(9.983286275 0 0)
(9.983099678 0 0)
(9.982914168 0 0)
(9.982729876 0 0)
(9.9825467 0 0)
(9.98236481 0 0)
(9.982184038 0 0)
(9.982004671 0 0)
(9.981826433 0 0)
(9.981649669 0 0)
(9.981474055 0 0)
(9.981299826 0 0)
(9.981127131 0 0)
(9.98095609 0 0)
(9.980786253 0 0)
(9.980617892 0 0)
(9.980451268 0 0)
(9.980285859 0 0)
(9.980122483 0 0)
(9.979960368 0 0)
(9.979800091 0 0)
(9.979641994 0 0)
(9.979484559 0 0)
(9.979329294 0 0)
(9.979175831 0 0)
(9.979023975 0 0)
(9.97887439 0 0)
(9.978725855 0 0)
(9.978579687 0 0)
(9.97843526 0 0)
(9.978292412 0 0)
(9.978151665 0 0)
(9.978012503 0 0)
(9.977875607 0 0)
(9.977740727 0 0)
(9.977607245 0 0)
(9.977475985 0 0)
(9.977346467 0 0)
(9.977218806 0 0)
(9.97709374 0 0)
(9.976969796 0 0)
(9.97684854 0 0)
(9.976728732 0 0)
(9.97661071 0 0)
(9.976495245 0 0)
(9.976381031 0 0)
(9.976269114 0 0)
(9.976158926 0 0)
(9.976050972 0 0)
(9.975944727 0 0)
(9.97584045 0 0)
(9.975737607 0 0)
(9.975637137 0 0)
(9.975538098 0 0)
(9.975441353 0 0)
(9.975345777 0 0)
(9.975252279 0 0)
(9.975160684 0 0)
(9.975070894 0 0)
(9.974982158 0 0)
(9.974895804 0 0)
(9.974810793 0 0)
(9.974727293 0 0)
(9.974645647 0 0)
(9.974565048 0 0)
(9.974486397 0 0)
(9.974409085 0 0)
(9.974333076 0 0)
(9.974258573 0 0)
(9.974185415 0 0)
(9.974113491 0 0)
(9.974042866 0 0)
(9.973973369 0 0)
(9.973905175 0 0)
(9.973837989 0 0)
(9.973772013 0 0)
(9.973706953 0 0)
(9.973643042 0 0)
(9.973579936 0 0)
(9.973517675 0 0)
(9.973456458 0 0)
(9.97339583 0 0)
(9.973336121 0 0)
(9.97327695 0 0)
(9.973218564 0 0)
(9.973160655 0 0)
(9.973103423 0 0)
(9.973046651 0 0)
(9.972990388 0 0)
(9.972934481 0 0)
(9.972878965 0 0)
(9.972823789 0 0)
(9.97276893 0 0)
(9.972714246 0 0)
(9.972659796 0 0)
(9.972605516 0 0)
(9.972551352 0 0)
(9.972497294 0 0)
(9.972443292 0 0)
(9.972389247 0 0)
(9.972335222 0 0)
(9.972281132 0 0)
(9.972226981 0 0)
(9.972172769 0 0)
(9.97211831 0 0)
(9.972063746 0 0)
(9.972009154 0 0)
(9.971954121 0 0)
(9.971898979 0 0)
(9.971843616 0 0)
(9.971787978 0 0)
(9.971732097 0 0)
(9.971675968 0 0)
(9.97161959 0 0)
(9.971562968 0 0)
(9.971506022 0 0)
(9.971448774 0 0)
(9.971391372 0 0)
(9.971333742 0 0)
(9.971275802 0 0)
(9.97121767 0 0)
(9.971159329 0 0)
(9.971100904 0 0)
(9.971042235 0 0)
(9.970983384 0 0)
(9.970924639 0 0)
(9.970865816 0 0)
(9.970806917 0 0)
(9.970747924 0 0)
(9.970689106 0 0)
(9.970630397 0 0)
(9.970571906 0 0)
(9.970513594 0 0)
(9.970455369 0 0)
(9.97039766 0 0)
(9.970340281 0 0)
(9.970283265 0 0)
(9.970226908 0 0)
(9.970171002 0 0)
(9.970115756 0 0)
(9.970061188 0 0)
(9.970007272 0 0)
(9.969954324 0 0)
(9.969902254 0 0)
(9.9698515 0 0)
(9.969801437 0 0)
(9.969752435 0 0)
(9.969704759 0 0)
(9.969658558 0 0)
(9.969613621 0 0)
(9.96957013 0 0)
(9.969528101 0 0)
(9.969488084 0 0)
(9.969449021 0 0)
(9.969412683 0 0)
(9.96937784 0 0)
(9.969344575 0 0)
(9.969314048 0 0)
(9.969284784 0 0)
(9.969258543 0 0)
(9.96923396 0 0)
(9.969211982 0 0)
(9.969192867 0 0)
(9.969176216 0 0)
(9.969161773 0 0)
(9.969150613 0 0)
(9.969142325 0 0)
(9.969136252 0 0)
(9.969133369 0 0)
(9.969134904 0 0)
(9.969137727 0 0)
(9.969144469 0 0)
(9.969154969 0 0)
(9.969167813 0 0)
(9.969185067 0 0)
(9.969206107 0 0)
(9.969230522 0 0)
(9.969258029 0 0)
(9.969290144 0 0)
(9.969325085 0 0)
(9.969365478 0 0)
(9.969408486 0 0)
(9.969455996 0 0)
(9.96950725 0 0)
(9.969563673 0 0)
(9.969623371 0 0)
(9.969687488 0 0)
(9.969757318 0 0)
(9.969829875 0 0)
(9.969907263 0 0)
(9.969989276 0 0)
(9.970075766 0 0)
(9.970166466 0 0)
(9.970263572 0 0)
(9.970363341 0 0)
(9.97046721 0 0)
(9.970578497 0 0)
(9.970692949 0 0)
(9.970810836 0 0)
(9.970936642 0 0)
(9.971063763 0 0)
(9.971198309 0 0)
(9.971336798 0 0)
(9.97148013 0 0)
(9.971627983 0 0)
(9.971781292 0 0)
(9.97193911 0 0)
(9.972101317 0 0)
(9.972269698 0 0)
(9.972441664 0 0)
(9.972618527 0 0)
(9.972801363 0 0)
(9.972988002 0 0)
(9.973179815 0 0)
(9.973375938 0 0)
(9.973577223 0 0)
(9.973782172 0 0)
(9.97399345 0 0)
(9.974209224 0 0)
(9.974429476 0 0)
(9.974652948 0 0)
(9.974882875 0 0)
(9.975115741 0 0)
(9.975354175 0 0)
(9.975597326 0 0)
(9.975843576 0 0)
(9.976095552 0 0)
(9.976350217 0 0)
(9.976610692 0 0)
(9.976873548 0 0)
(9.977142501 0 0)
(9.977414979 0 0)
(9.977690763 0 0)
(9.977970662 0 0)
(9.978254607 0 0)
(9.978542966 0 0)
(9.978833612 0 0)
(9.979128969 0 0)
(9.979428284 0 0)
(9.979730054 0 0)
(9.980035794 0 0)
(9.980344955 0 0)
(9.980656973 0 0)
(9.980972428 0 0)
(9.981291049 0 0)
(9.98161193 0 0)
(9.981936827 0 0)
(9.98226444 0 0)
(9.982593814 0 0)
(9.982927021 0 0)
(9.983261617 0 0)
(9.983599516 0 0)
(9.983939836 0 0)
(9.984281402 0 0)
(9.984626295 0 0)
(9.984972758 0 0)
(9.985321022 0 0)
(9.985671526 0 0)
(9.986023196 0 0)
(9.986376987 0 0)
(9.986732375 0 0)
(9.987088824 0 0)
(9.987446767 0 0)
(9.987805968 0 0)
(9.988166274 0 0)
(9.988527556 0 0)
(9.98888992 0 0)
(9.989252832 0 0)
(9.989616401 0 0)
(9.989980554 0 0)
(9.990345261 0 0)
(9.9907102 0 0)
(9.991075332 0 0)
(9.991440751 0 0)
(9.991805988 0 0)
(9.992171254 0 0)
(9.992536054 0 0)
(9.992900644 0 0)
(9.993264933 0 0)
(9.993628607 0 0)
(9.993991549 0 0)
(9.9943537 0 0)
(9.994715176 0 0)
(9.995075319 0 0)
(9.995434836 0 0)
(9.995792732 0 0)
(9.996149672 0 0)
(9.9965046 0 0)
(9.996859451 0 0)
(9.997210902 0 0)
(9.997562011 0 0)
(9.997910251 0 0)
(9.998257037 0 0)
(9.9986021 0 0)
(9.998944829 0 0)
(9.999285848 0 0)
(9.999623927 0 0)
(9.999959946 0 0)
(10.00029333 0 0)
(10.00062425 0 0)
(10.00095241 0 0)
(10.00127805 0 0)
(10.00160069 0 0)
(10.00192066 0 0)
(10.00223741 0 0)
(10.00255118 0 0)
(10.00286172 0 0)
(10.00316916 0 0)
(10.00347363 0 0)
(10.00377415 0 0)
(10.0040709 0 0)
(10.00436491 0 0)
(10.00465501 0 0)
(10.00494157 0 0)