/*--------------------------------*- C++ -*----------------------------------*\
| =========                 |                                                 |
| \\      /  F ield         | OpenFOAM: The Open Source CFD Toolbox           |
|  \\    /   O peration     | Version:  2312                                  |
|   \\  /    A nd           | Website:  www.openfoam.com                      |
|    \\/     M anipulation  |                                                 |
\*---------------------------------------------------------------------------*/
FoamFile
{
    version     2.0;
    format      ascii;
    arch        "LSB;label=32;scalar=64";
    class       volScalarField;
    location    "3e-05";
    object      alphat;
}
// * * * * * * * * * * * * * * * * * * * * * * * * * * * * * * * * * * * * * //

dimensions      [1 -1 -1 0 0 0 0];

internalField   nonuniform List<scalar> 
109340
(
0.48833345354951
0.33775260621966
0.18287045091547
0.15307485989456
0.14853238989509
0.15175286867428
0.15777014427024
0.16477097347061
0.14388403764646
0.12813110691685
0.11563541283329
0.1054296778431
0.096919322494534
0.089706978992169
0.083513263029689
0.078134647168267
0.073418776288364
0.069249075210881
0.065534673178013
0.06220354501405
0.059197752857912
0.056470068932123
0.053981494132383
0.051699416892863
0.049596225906977
0.047648221528633
0.045834770129797
0.044137666518058
0.042540525363319
0.041028296969063
0.039586692472416
0.038200890725451
0.036853740799516
0.035522280754057
0.03417016040114
0.032727396083481
0.48264114713832
0.23614601271559
0.17365780502852
0.15907801075087
0.15824040066533
0.16170544424627
0.14270318592207
0.12422748819555
0.10988264194226
0.098522682722002
0.089321605260727
0.081721696104426
0.075340117269052
0.06990651084503
0.065224696195327
0.061148865682447
0.057568377227439
0.054397726613604
0.051569742541625
0.049030820801665
0.046737551782094
0.044654313608842
0.042751486584058
0.041004172031609
0.039391209255044
0.037894392638737
0.036497898621213
0.035187807377033
0.033951620964516
0.032777835829161
0.031655158833661
0.030571849527371
0.029513685167945
0.028460397702252
0.027377989931123
0.026196812352923
0.28373611371789
0.20167301622266
0.17430542211704
0.16200622775163
0.12977494835362
0.10823298362403
0.092634609928894
0.080881925003081
0.071750529044548
0.064481731111101
0.058575497468176
0.053690406912257
0.049587546593548
0.046095747457982
0.04308960715148
0.040475356412791
0.03818156567255
0.036152894480771
0.034345718334897
0.03272486259898
0.031261398006206
0.02993139412374
0.028715008739288
0.02759573189142
0.026559739136435
0.025595339593547
0.02469264120414
0.023843006609062
0.02303899330868
0.022273378288952
0.021539358892392
0.020829760376217
0.020135628099426
0.019443765153857
0.018731270703502
0.017947732082428
0.16352344973527
0.16481594769572
0.10361127105319
0.075504477688528
0.059444785592536
0.049076990772261
0.041851513255409
0.036540243223792
0.032479982881847
0.029281526434801
0.026701469926596
0.02457961960877
0.022806259928478
0.021303825001755
0.020016060405939
0.018901257537813
0.017927816715059
0.017071418061803
0.016310824025574
0.015627090242013
0.015005169300807
0.014433963053958
0.01390536388855
0.013413416114429
0.01295355132951
0.012522061653102
0.012115686052493
0.011731787768286
0.011368059918898
0.011022059408933
0.010691414028555
0.010372911481184
0.010061762989412
0.0097510529130587
0.0094285701237316
0.0090639820223469
0.098741398266796
0.03225758804298
0.019639193437021
0.01425918990142
0.011296543790394
0.0094377230827743
0.0081741880357657
0.0072671554464954
0.006589676104832
0.0060686691285236
0.0056593565814351
0.0053333872236686
0.0050720092999691
0.0048626037965239
0.0046965587443928
0.0045677985077458
0.0044717375435632
0.0044010196316135
0.0043426089275822
0.0042847070807561
0.0042230457795816
0.0041593998766914
0.0040969091767195
0.0040379492532197
0.0039838488999625
0.0039352416732927
0.0038921387547709
0.003854142182611
0.0038210247159701
0.0037919110707271
0.0037653119854661
0.0037391634096382
0.0037108888060447
0.0036765490932481
0.0036262488986327
0.0035344469065608
0.00024686945627941
0.00036806810097015
0.00047345325245725
0.00055582401433896
0.00061484102141094
0.0006538822895782
0.00067745946904369
0.00068981197949418
0.000694362501155
0.00069386673962648
0.00068998313303709
0.00068399917577104
0.00067680246162264
0.00066899270465319
0.00066097003879807
0.00065301933529714
0.00064532067658819
0.00063799013453096
0.00063115314411788
0.00062493555826926
0.00061917979739705
0.00061378489478297
0.00060867992271308
0.000603802040568
0.00059908434369819
0.00059445098975747
0.00058981391744463
0.000585074409369
0.00058012018889255
0.00057481844847837
0.00056897420613076
0.00056229001458697
0.00055424638207066
0.00054383736326886
0.00052861885525845
0.00049763548321384
0.025673915348872
0.014772505128173
0.0079088824321772
0.004611231279424
0.0028691505999228
0.0018139231031013
0.0011405366503396
0.00070157685415847
0.0004331217276353
0.00030418657014189
0.00024294022558909
0.00020118644275781
0.00017525675239553
0.00014459713289057
0.0001181258182673
9.5964479317795e-05
7.7215428740885e-05
6.2301970703281e-05
5.0771988546013e-05
4.1988554811417e-05
3.4964517413683e-05
2.9354307924523e-05
2.4854084337064e-05
1.962383767736e-05
1.5681967340371e-05
1.2658016624881e-05
1.0304283118483e-05
8.4572194494523e-06
6.9985301152493e-06
5.8351398407429e-06
4.8949157677381e-06
4.1287095207567e-06
3.502329753399e-06
2.9869202003631e-06
2.5592390714112e-06
2.2016342827092e-06
1.9013076267081e-06
1.6481049942473e-06
1.4337106617531e-06
1.2511359401706e-06
1.0950883671754e-06
9.6151372095291e-07
5.3579876610448e-07
0.00018989957159175
8.0132794471559e-05
5.5230924323646e-05
1.881274381159e-05
1.6139276726011e-05
2.2133562898926e-05
2.9153188495117e-05
3.6855307254502e-05
4.4856851551563e-05
5.289522206623e-05
6.0476357071838e-05
6.7008135891696e-05
7.1732055109486e-05
7.410223083876e-05
7.4171513894271e-05
7.2263923015234e-05
6.9552422198947e-05
6.6435522404618e-05
6.3134754149248e-05
5.9280976930124e-05
5.4550776279678e-05
4.9125711447817e-05
4.3451411563577e-05
3.7961410327817e-05
3.3106155418826e-05
2.9126297224091e-05
2.6144719595282e-05
2.4028611718541e-05
2.2918640313547e-05
2.3022038162543e-05
2.4838026603459e-05
2.8284649603478e-05
3.2805397780569e-05
3.765139234628e-05
4.0026133739493e-05
4.0237583281509e-05
3.919925031168e-05
3.7286722305455e-05
3.4885814603095e-05
3.1679254738299e-05
2.7947978127579e-05
2.3609968381938e-05
2.0681400206919e-05
1.8932927345693e-05
1.8453707544051e-05
1.857580983459e-05
1.9245394754828e-05
2.0265661663659e-05
2.0711551291635e-05
2.0674134453704e-05
2.0385411930517e-05
1.9951995779713e-05
1.9477558202698e-05
1.8939403390978e-05
1.8367345185809e-05
1.7771078318871e-05
1.7203893942535e-05
1.6659542974138e-05
1.6152086196902e-05
1.5671198814229e-05
1.5189536491865e-05
1.4638294027093e-05
1.4270853386047e-05
1.3916338206697e-05
1.3565455961814e-05
1.3309147420357e-05
1.321561318219e-05
1.3253349706201e-05
1.3345960763786e-05
1.3503430029292e-05
1.3651225038432e-05
1.382595605687e-05
1.4203122184208e-05
1.4901457191236e-05
1.5995030185902e-05
1.7828244542879e-05
2.0903921328358e-05
2.5701847194546e-05
3.3099848741508e-05
4.545794462501e-05
6.7262759164104e-05
0.00010541913168906
0.00016395207697153
0.00023725706242112
0.00029352003254624
0.00028563169207469
0.00017232406535954
8.5261013986763e-05
4.1608241965727e-05
2.4741182992338e-05
5.2128011439795e-06
9.9327259991482e-07
1.1009379149518e-06
1.5171058025088e-06
2.2349464027444e-06
3.3288288742604e-06
7.8067429491058e-06
0.01934488831508
0.011001518640369
0.0063759989532243
0.0039328870647536
0.002497914269221
0.0015802645606406
0.00098530823056658
0.00060467700914603
0.00036451768303381
0.00021848652963744
0.00013764135230868
9.1888413946879e-05
6.4422714702261e-05
4.8221150619446e-05
3.7704087264318e-05
3.1004397067183e-05
2.6520803152102e-05
2.338086028247e-05
2.111604207217e-05
1.923045655922e-05
1.7564872371917e-05
1.607499631137e-05
1.4743535429209e-05
1.356766991386e-05
1.2534480158408e-05
1.1618373894387e-05
1.0033481021662e-05
8.2158973399121e-06
6.7861439858131e-06
5.6481376689039e-06
4.7334896610952e-06
3.9919213214541e-06
3.3857574718768e-06
2.8862795837122e-06
2.4717807728926e-06
2.1261654357002e-06
1.8367388472711e-06
1.5929144744964e-06
1.3862079349623e-06
1.2101120340485e-06
1.0593978481838e-06
9.3063526795169e-07
1.1368321595569e-06
0.00018526691686869
6.3557199599728e-05
4.1674607148615e-05
1.0880863131138e-05
1.3071861123372e-05
1.720197043765e-05
2.1732519733491e-05
2.6385283858284e-05
3.0929163351508e-05
3.524936121919e-05
3.9234237971437e-05
4.269530268033e-05
4.5296325183852e-05
4.6821618580095e-05
4.7348851205265e-05
4.7178845782908e-05
4.6475289555521e-05
4.544831965421e-05
4.4134394816701e-05
4.223878629682e-05
3.9592666656179e-05
3.6310000922289e-05
3.2728327454303e-05
2.9191867243845e-05
2.5976353649141e-05
2.3323263202289e-05
2.1299043274482e-05
1.9905307941594e-05
1.9302601185461e-05
1.9743875750791e-05
2.1362337377406e-05
2.4226239739419e-05
2.8166818748162e-05
3.2595784153581e-05
3.4471103527983e-05
3.4802917666108e-05
3.402928910411e-05
3.2647937721868e-05
3.0701640937457e-05
2.8016175861217e-05
2.4888963434426e-05
2.2520574805717e-05
1.9938234786514e-05
1.8353269355262e-05
1.7893258925621e-05
1.8065148746604e-05
1.8683094345896e-05
1.9536254744909e-05
1.9964336870849e-05
2.0049336709012e-05
1.9842964949714e-05
1.9453891952186e-05
1.8985377770324e-05
1.8465640471381e-05
1.7933546650876e-05
1.7387269449596e-05
1.6854335957631e-05
1.6331483524602e-05
1.5825386884004e-05
1.5345864507194e-05
1.4870358175654e-05
1.4290021483179e-05
1.3900221841224e-05
1.3546108685287e-05
1.319389847959e-05
1.2907320967234e-05
1.2796288173369e-05
1.2831620117616e-05
1.2934820788099e-05
1.320617004237e-05
1.367421435477e-05
1.4546930533457e-05
1.6075942273183e-05
1.8582444336219e-05
2.2348223144749e-05
2.7453234922835e-05
3.3980416513406e-05
4.204111290193e-05
5.2094427173854e-05
6.5454308286702e-05
8.5143520502786e-05
0.00011621028571172
0.00016708504096783
0.00023566505989384
0.00028966898098472
0.00027587601017134
0.00016501257851894
8.1850691147501e-05
3.9944720371357e-05
2.4241974171264e-05
5.1339452676552e-06
1.0530762195724e-06
1.1853051626676e-06
1.6268925655398e-06
2.3870798079885e-06
3.5554198838686e-06
8.3132296437574e-06
0.014148302301013
0.0072373191707758
0.0042776109395952
0.0027325621411769
0.0017445114827028
0.0011183679685173
0.00071712133339425
0.00045587584108187
0.00029055223622845
0.00018783531013962
0.00012443973509806
8.5730515845915e-05
6.1596881766692e-05
4.529506401393e-05
3.4643414578265e-05
2.7406878152516e-05
2.2329309697221e-05
1.8681713809354e-05
1.6060416207548e-05
1.405914590159e-05
1.245300267507e-05
1.1119041377563e-05
1.0011023170828e-05
9.0807207077375e-06
8.3293775288241e-06
7.7120743937715e-06
7.1995937912578e-06
6.7570702159207e-06
6.3730658853581e-06
5.8472743489761e-06
4.8800747110275e-06
4.0993922210813e-06
3.4629275927677e-06
2.9402720105008e-06
2.5098341463624e-06
2.15318175493e-06
1.8559409606038e-06
1.6067841971435e-06
1.396363509847e-06
1.217450666503e-06
1.0648609868534e-06
9.3471686637417e-07
5.3250780559699e-07
0.00018468886725581
6.0855001470661e-05
2.9013047270061e-05
7.8417474745423e-06
8.6468533231736e-06
1.0948725146626e-05
1.32579387426e-05
1.5649105821637e-05
1.7951457586245e-05
2.0075258414734e-05
2.1999242902024e-05
2.3712449529665e-05
2.5249428974437e-05
2.6614041621752e-05
2.7847943530076e-05
2.91033677821e-05
3.0371506423413e-05
3.125671296796e-05
3.1586917619643e-05
3.1280018943964e-05
3.0156541236201e-05
2.8307347478465e-05
2.5989049596281e-05
2.3559506482044e-05
2.1263021803166e-05
1.9328639078914e-05
1.7837055465012e-05
1.6827566979073e-05
1.645745194085e-05
1.6855715130701e-05
1.8130843384856e-05
2.0430464928455e-05
2.3883177915492e-05
2.8080973437592e-05
3.0284762267536e-05
3.0833048152597e-05
3.0397140300193e-05
2.9382736812384e-05
2.7763033071967e-05
2.5484680977972e-05
2.280184502968e-05
2.091566410092e-05
1.8753292898322e-05
1.7419866418994e-05
1.7004307443548e-05
1.7202125173988e-05
1.7769886058312e-05
1.8486597256204e-05
1.8920615721238e-05
1.9046369225787e-05
1.8960862433275e-05
1.8678587072505e-05
1.8234719162985e-05
1.7726637473987e-05
1.7214125732693e-05
1.6702527702937e-05
1.6197174729128e-05
1.5694695477035e-05
1.5184663715556e-05
1.4698677559775e-05
1.4218215802286e-05
1.3606764524293e-05
1.3195994509345e-05
1.2757298730195e-05
1.2465669450833e-05
1.2406438344891e-05
1.2483979107684e-05
1.2853649653259e-05
1.3728529078234e-05
1.5426518208121e-05
1.8210770430965e-05
2.2278379041757e-05
2.7682490301272e-05
3.4425966596656e-05
4.2455793373862e-05
5.1547331640371e-05
6.1860967140381e-05
7.3462153680098e-05
8.7163420150993e-05
0.00010360052517208
0.00012324201237438
0.00014852679227425
0.00018697783446192
0.00023969593005831
0.00028200492277768
0.00025687888146781
0.00015149961374889
7.5408099846788e-05
3.6735069376167e-05
2.3348013426623e-05
4.0393371670996e-06
9.9396211076106e-07
1.1727144755072e-06
1.6100933418778e-06
2.344360995766e-06
3.5925435288719e-06
8.147318405392e-06
0.0085574950408935
0.0039499606496217
0.0023368898835466
0.0014747697557879
0.00097621306259386
0.0006695647745643
0.00046512510620611
0.00032726513716406
0.00023420621457199
0.00016788021571303
0.00011982535205062
8.5530186783975e-05
6.1374895237327e-05
4.5289821305463e-05
3.4243597257503e-05
2.6719596785416e-05
2.1571474403503e-05
1.7925720455243e-05
1.5250034764937e-05
1.3113201365258e-05
1.1326934569963e-05
9.8724808604458e-06
8.7089795845703e-06
7.7390857855104e-06
6.9313301852349e-06
6.277807483575e-06
5.7499916974593e-06
5.3141912508751e-06
4.9498605288966e-06
4.6381594694781e-06
4.3668198116653e-06
4.1389351968461e-06
3.5586258465077e-06
3.0206466810213e-06
2.575794946082e-06
2.206072133794e-06
1.8974047057462e-06
1.6386805056859e-06
1.4208017167097e-06
1.2361139858907e-06
1.0791966274524e-06
9.4529099283947e-07
3.6654946365308e-07
0.00017327103045254
5.9949784358525e-05
1.9721708835076e-05
6.0571979649393e-06
5.8511718378982e-06
7.4489902641404e-06
9.3232742331805e-06
1.1314718060488e-05
1.3228520065012e-05
1.4939196060635e-05
1.6396113965145e-05
1.7625920113663e-05
1.8660893820976e-05
1.9555265750047e-05
2.0416594433964e-05
2.1419460464774e-05
2.2595099418494e-05
2.377236916399e-05
2.468269882449e-05
2.5164611806154e-05
2.5048066491979e-05
2.4017514793551e-05
2.2397327037827e-05
2.0515888941158e-05
1.869821554901e-05
1.714086616317e-05
1.5942594593102e-05
1.5188881282535e-05
1.5017056954318e-05
1.5455410059463e-05
1.6610681337917e-05
1.8610617797259e-05
2.168928239434e-05
2.5790579441629e-05
2.8452582986592e-05
2.9119165923036e-05
2.8725641092485e-05
2.7744513415889e-05
2.6100352763765e-05
2.3906765394794e-05
2.13672080331e-05
1.9622811230996e-05
1.7813599644645e-05
1.669253440553e-05
1.6372747563908e-05
1.652729211055e-05
1.6985380517253e-05
1.7555812349292e-05
1.7937842874612e-05
1.813427780155e-05
1.8126637606136e-05
1.7914384870498e-05
1.7488635408686e-05
1.6998518703596e-05
1.6503231413361e-05
1.6008982853887e-05
1.5516319537275e-05
1.5018525354964e-05
1.4510617628215e-05
1.3998235031356e-05
1.3544892850863e-05
1.2925443376645e-05
1.2566731287179e-05
1.2511951930848e-05
1.263499736181e-05
1.3204476014894e-05
1.4578670249425e-05
1.7232776665942e-05
2.1472264950915e-05
2.7337509242156e-05
3.466868854016e-05
4.2973680003866e-05
5.1805089926232e-05
6.1834199117362e-05
7.339132362168e-05
8.610486516005e-05
9.9459890656635e-05
0.00011342377957794
0.00012881164373186
0.0001444714655356
0.00016097298430527
0.00018045993046384
0.00020790059350851
0.00024319455255508
0.00026783754620569
0.0002298820267643
0.00013310022974876
6.6410144391675e-05
3.2771417554818e-05
2.2318165816587e-05
2.9286705583475e-06
9.7354943135334e-07
1.1913807199213e-06
1.6239156583554e-06
2.3318669033712e-06
3.5065577771e-06
7.1394279998313e-06
0.0032286887774096
0.0018674429617061
0.0012170377614502
0.00089523109319869
0.00066275845558915
0.00049296144534141
0.00038113943276932
0.00029307563092312
0.00022123113800581
0.00016451064557653
0.00012081906363881
8.8563036066013e-05
6.4847121594477e-05
4.7637270734775e-05
3.5671096222928e-05
2.7427343261409e-05
2.1717238569056e-05
1.7782016438887e-05
1.4992302907364e-05
1.2794771726507e-05
1.1014992697801e-05
9.5538615583118e-06
8.3104867050165e-06
7.3352612432871e-06
6.5105253072474e-06
5.8153454348582e-06
5.2374234233178e-06
4.7676854826464e-06
4.3748696047265e-06
4.0425744983274e-06
3.764682696482e-06
3.529260846385e-06
3.324639391306e-06
3.0600961732957e-06
2.6127345949207e-06
2.2400351780321e-06
1.9278132496692e-06
1.665224175597e-06
1.4435013105904e-06
1.2553103020527e-06
1.0953566725993e-06
9.5865554477828e-07
3.3532889175349e-07
0.00014859243456321
6.9233156752985e-05
1.5314503803613e-05
6.071664473291e-06
4.8481222866877e-06
6.5158869748508e-06
8.3788449963668e-06
1.0204573441818e-05
1.1824887983174e-05
1.3230686950954e-05
1.4420268049571e-05
1.5365498334737e-05
1.6114737425805e-05
1.6792782951107e-05
1.7572379688563e-05
1.8608594470615e-05
1.9860184775115e-05
2.1163370936684e-05
2.2225778738901e-05
2.2909286937305e-05
2.3169349249872e-05
2.2466168547668e-05
2.1070387519103e-05
1.9369080406548e-05
1.7777915058662e-05
1.6412668588524e-05
1.5393386321404e-05
1.4838857347272e-05
1.4835282134636e-05
1.5367477315578e-05
1.6425068516237e-05
1.8119875925926e-05
2.0668515512309e-05
2.4374001301902e-05
2.773363783525e-05
2.8554041927671e-05
2.8213096403386e-05
2.7119629395063e-05
2.5335407091416e-05
2.2972401519892e-05
2.0651636931744e-05
1.8989961497246e-05
1.7456724586133e-05
1.6579316234925e-05
1.6317919312774e-05
1.6391283632633e-05
1.6703798146982e-05
1.7087307096118e-05
1.7401841019569e-05
1.7599513980579e-05
1.7616464320434e-05
1.7439210773449e-05
1.7049860496773e-05
1.6607923559985e-05
1.615221590507e-05
1.5700829042368e-05
1.5241865984987e-05
1.4794236695086e-05
1.4351378793398e-05
1.3868843943074e-05
1.3537197677229e-05
1.3427651470674e-05
1.380430589716e-05
1.4835999492581e-05
1.7002600164745e-05
2.0783146650852e-05
2.6452580474383e-05
3.3881991911896e-05
4.2442302289392e-05
5.1603070403755e-05
6.1711981826146e-05
7.2934547340384e-05
8.4869754392049e-05
9.7307949123915e-05
0.00011015566150955
0.00012306631561665
0.00013600083218103
0.00014996825313855
0.00016374111946307
0.00017522145092488
0.00018820578770455
0.00020240740309943
0.00022065619287478
0.00024104146582465
0.00024760625017628
0.00019733993140118
0.00011181561560728
5.5904857866949e-05
2.8979202728612e-05
2.1521147426733e-05
2.0151555256783e-06
9.7267587085049e-07
1.2226235559944e-06
1.6520455418816e-06
2.330729154457e-06
3.3622876859581e-06
6.3166202331669e-06
0.00091079894554395
0.00084879227111186
0.00090826223465458
0.00095282372049328
0.00082440079791476
0.00061330615090644
0.00044163533068014
0.00032004618876418
0.00023473783498739
0.00017316879363551
0.00012726816999319
9.3385063114136e-05
6.891997493101e-05
5.105614999118e-05
3.8186854886296e-05
2.9071530406904e-05
2.2741194968768e-05
1.8339941496675e-05
1.5185896312528e-05
1.276841922163e-05
1.0870870670542e-05
9.3692009789852e-06
8.1776045210595e-06
7.1421288168102e-06
6.3214370589237e-06
5.627206734692e-06
5.0492147862296e-06
4.5537864493958e-06
4.1471497379147e-06
3.8020049628426e-06
3.5045332802962e-06
3.2455016775917e-06
3.0308344756803e-06
2.8522708737969e-06
2.613535441339e-06
2.2458498019743e-06
1.9362235522212e-06
1.6748024429783e-06
1.4534617160802e-06
1.2652931063745e-06
1.1047998123033e-06
9.5492552808664e-07
5.0648730444845e-07
0.00011273086323256
8.2567626467866e-05
1.4589860278663e-05
7.888413812472e-06
4.8319496429421e-06
6.7311418395156e-06
8.7721441534633e-06
1.0530949430973e-05
1.1634928568718e-05
1.2432633673922e-05
1.3320533540009e-05
1.4049971629293e-05
1.4582550825325e-05
1.5164760126913e-05
1.5998944289824e-05
1.7175581732295e-05
1.8649257894628e-05
2.0236636857074e-05
2.1490398165753e-05
2.227670533755e-05
2.2567506368115e-05
2.1802807044817e-05
2.0460070312141e-05
1.8919235076891e-05
1.7510352254544e-05
1.6318500626332e-05
1.5461091269661e-05
1.5089365269039e-05
1.521984899046e-05
1.580210317465e-05
1.6720585700782e-05
1.8068960414053e-05
2.0032805548241e-05
2.29742650207e-05
2.6696313216905e-05
2.8084806300599e-05
2.7890626409747e-05
2.6680820742866e-05
2.4594307625494e-05
2.2275502129034e-05
2.0204945338571e-05
1.8801874517045e-05
1.7607796066333e-05
1.6962787888174e-05
1.6727573030276e-05
1.6753588196927e-05
1.6952467840193e-05
1.7209090635199e-05
1.7490745494057e-05
1.7703968389771e-05
1.7781245176809e-05
1.7674787789487e-05
1.7355034784751e-05
1.6988119192494e-05
1.6613127874716e-05
1.622853607269e-05
1.5834933957337e-05
1.5614406357675e-05
1.5495442007753e-05
1.5541398862768e-05
1.5958375915405e-05
1.8103387810949e-05
2.1827888763902e-05
2.7140261657039e-05
3.4157864706519e-05
4.2500403478119e-05
5.1755522489095e-05
6.165030149691e-05
7.2343322802148e-05
8.3803093798433e-05
9.5464206457368e-05
0.00010704480542735
0.00011852905419835
0.00012997633783811
0.00014140049974542
0.0001526904696085
0.00016425356086907
0.00017631160117829
0.00018644771039342
0.000194790957099
0.00020429134928834
0.0002130519051383
0.00022346366975673
0.00023048554622957
0.00022043754540761
0.00016205432702176
9.0076231913043e-05
4.5161437431375e-05
2.5312534804561e-05
1.6353653185579e-05
1.4075070173624e-06
9.8835828968644e-07
1.2568372395585e-06
1.6777098704068e-06
2.3134788347499e-06
3.2058684800123e-06
5.7061713923416e-06
1.1145883054925e-05
0.00016565862620569
0.00024964405975764
0.00033676209707665
0.00041883479604225
0.00048525891391724
0.00052941131784674
0.00039876724946029
0.00028479736399961
0.00020521654053657
0.00014914801939552
0.00010880899769935
7.972616075405e-05
5.8903341469846e-05
4.4028710955237e-05
3.3388700831218e-05
2.579313849377e-05
2.0411450741097e-05
1.6549738048116e-05
1.3654568155076e-05
1.1439072240541e-05
9.718727490889e-06
8.364737435653e-06
7.3089357975067e-06
6.4281044871684e-06
5.7014026016013e-06
5.0931029661055e-06
4.5735109560922e-06
4.1336617076951e-06
3.7683192453804e-06
3.4594086517872e-06
3.1890059616066e-06
2.9539973071363e-06
2.7496138361973e-06
2.5742108236359e-06
2.3112419354342e-06
1.9956451549034e-06
1.7285912781957e-06
1.5017116093963e-06
1.3080824984584e-06
1.0682875532592e-06
8.6801485678283e-07
6.9202229872914e-07
1.8015642588599e-05
0.00010905084956519
1.8073456346982e-05
1.259504220763e-05
5.1368074782499e-06
7.1480060770792e-06
9.7725182472058e-06
1.1725182550009e-05
1.2323415075281e-05
1.2242522181102e-05
1.2429282138737e-05
1.3004485763718e-05
1.3392025666271e-05
1.3908024897761e-05
1.4744471694583e-05
1.6058381948707e-05
1.7773621126427e-05
1.9610877665575e-05
2.1196674639331e-05
2.2322874193671e-05
2.2542533231272e-05
2.1695613714656e-05
2.0383017172307e-05
1.8946330994274e-05
1.7644794051725e-05
1.656725902181e-05
1.5794063815883e-05
1.5483628061866e-05
1.5581142829934e-05
1.6014585181613e-05
1.6730316670342e-05
1.7674337750199e-05
1.9017459029571e-05
2.09242276373e-05
2.40391260722e-05
2.7124504737568e-05
2.7869683761525e-05
2.6866610310155e-05
2.4873877068814e-05
2.2618254059289e-05
2.0721845483806e-05
1.9085811412312e-05
1.8227841844384e-05
1.7808447814869e-05
1.7638083925173e-05
1.766505488406e-05
1.7850185471672e-05
1.8216059246804e-05
1.8594431540418e-05
1.8927624721941e-05
1.9122487343618e-05
1.9167100431689e-05
1.9110423446118e-05
1.9018189365949e-05
1.8954214680917e-05
1.899801169251e-05
1.9237120619926e-05
1.9809904872514e-05
2.0908605866767e-05
2.2793083912959e-05
2.6723407190666e-05
4.9413632491394e-05
5.5330772655793e-05
6.3238922088765e-05
7.2218564232305e-05
8.1859649841038e-05
9.2141403374647e-05
0.00010267476477011
0.00011309944282155
0.00012328213157438
0.00013300867511104
0.00014241816299451
0.00015172531957715
0.00016114236984366
0.00017040642871283
0.00018010056090881
0.00018934294870167
0.00019717232240929
0.00020355276790408
0.00020915461501834
0.00021278891059735
0.0002143225073227
0.00021285420544676
0.00020241844779982
0.00017152350247923
0.00011226721702317
5.9437233651764e-05
2.9798805071901e-05
2.0173735427445e-05
4.6853635137615e-06
9.9765979287249e-07
1.0329943845109e-06
1.3181260956817e-06
1.7241272363481e-06
2.3015783891487e-06
3.0183304308686e-06
4.9795107505647e-06
2.0022270968598e-06
2.0270387851164e-05
4.4810712072199e-05
7.0638085834861e-05
0.00010249567541318
0.0001377611562051
0.0001727436843654
0.00020272077216392
0.00021888243914208
0.0002184766072754
0.00015796419365707
0.0001144733695752
8.3667409666956e-05
6.202401979621e-05
4.6520383201185e-05
3.5418453137763e-05
2.7425861073896e-05
2.1603024168918e-05
1.7279476154026e-05
1.4040584890967e-05
1.1594534592505e-05
9.7197911415109e-06
8.2589135881896e-06
7.1052935724967e-06
6.1880328644134e-06
5.4530181417374e-06
4.8499266728413e-06
4.3485400389153e-06
3.9294703470665e-06
3.5832222383446e-06
3.2851629997285e-06
3.0200632392913e-06
2.7843746029403e-06
2.5870288894464e-06
2.4173557058782e-06
2.1504378945294e-06
1.8654103262144e-06
1.6230684969119e-06
1.3541503559113e-06
1.0690849382318e-06
8.5242881228378e-07
6.8942790857085e-07
5.3727627926853e-07
3.6100990852316e-06
6.6956284567325e-05
1.8690719384743e-05
1.5375514177618e-05
8.2370391611387e-06
1.0226311469391e-05
1.4145571000273e-05
1.6499453824306e-05
1.5013114963261e-05
1.223569048571e-05
1.1443306705426e-05
1.1689642021135e-05
1.1999679301544e-05
1.2807741718635e-05
1.40395418638e-05
1.6054507966109e-05
1.8717983882063e-05
2.0838191218804e-05
2.1950496758284e-05
2.1955325776415e-05
2.1160722635159e-05
1.9979699867594e-05
1.8752542233271e-05
1.7681889381133e-05
1.684245806381e-05
1.6297805393781e-05
1.6076688527461e-05
1.6105611044102e-05
1.6378273141602e-05
1.6931325036619e-05
1.7754537474603e-05
1.8885978662745e-05
2.0357160232931e-05
2.223817153181e-05
2.4862726748293e-05
2.9037136015415e-05
3.1792464106993e-05
3.0457346103521e-05
2.8104093777287e-05
2.609773637872e-05
2.482009556851e-05
2.3282223629125e-05
2.3080627929655e-05
2.3139956279477e-05
2.3466957910623e-05
2.4193572165343e-05
2.5416140523863e-05
2.701142520516e-05
2.8844721884089e-05
3.0777064068663e-05
3.2706934206113e-05
3.4594250224342e-05
3.6587555438775e-05
3.8837601392064e-05
4.1515946120582e-05
4.4691522263851e-05
4.8509715923096e-05
5.3024613274694e-05
5.8288263860946e-05
6.4399614108964e-05
7.2499633395721e-05
9.6380148371003e-05
0.00010367478699405
0.00011160445985483
0.00011971658674067
0.00012741707955945
0.00013459693654988
0.00014145823680767
0.00014810086016496
0.00015469696472702
0.00016111873450334
0.00016723554748864
0.00017336409393302
0.00017975954027151
0.0001854015477692
0.00019070916882534
0.00019492014425463
0.00019810806196484
0.00020003702732908
0.00019881250364583
0.00019506924471568
0.00018743291279723
0.00017175320138682
0.00014512518153747
0.00010550736803532
6.0962587318385e-05
3.1304341073297e-05
2.0159922507193e-05
1.2179889301646e-05
1.3085812487486e-06
9.4035338823029e-07
1.1241538788386e-06
1.414594822603e-06
1.7997537311397e-06
2.2985327892394e-06
2.8280524723633e-06
4.3503310309643e-06
1.731834096886e-06
6.0122894116631e-06
1.2963464343402e-05
2.1803923721853e-05
3.2775494924657e-05
4.6744830940702e-05
6.3082806570205e-05
8.0098909912102e-05
9.5923628604651e-05
0.00010694461689903
0.00011044462269077
0.00010602876770167
9.0123802736899e-05
6.692874861463e-05
5.0531686162074e-05
3.865574575114e-05
2.9915265613154e-05
2.3457970710323e-05
1.8676528346325e-05
1.5095811478623e-05
1.2395169973837e-05
1.0314313263306e-05
8.6964254180148e-06
7.4184239075133e-06
6.4035631520441e-06
5.5866202692586e-06
4.9177797661886e-06
4.3727415655936e-06
3.9192823468656e-06
3.5375458588445e-06
3.2217414783178e-06
2.9598310105319e-06
2.7329684071825e-06
2.5377288202872e-06
2.3650342098027e-06
2.0517753477835e-06
1.7853340447503e-06
1.5569875342379e-06
1.2297104726187e-06
9.7121416654382e-07
7.7400209725893e-07
6.1712237481984e-07
5.0054563274361e-07
1.0244124420129e-07
3.916949855232e-05
2.560295199144e-05
1.4804513106529e-05
1.1196185733655e-05
1.0865286909563e-05
1.4873522106039e-05
1.779058594966e-05
1.5338093133854e-05
1.0922454127858e-05
1.0361676828788e-05
1.0577496356527e-05
1.1193140973915e-05
1.2175462358414e-05
1.3542976698611e-05
1.6578261786658e-05
1.9627408963681e-05
2.1400120905565e-05
2.1978801484851e-05
2.1681114092073e-05
2.1010811896147e-05
2.0197347779541e-05
1.9440046326467e-05
1.8863185784338e-05
1.849250047423e-05
1.841572853662e-05
1.8668505670444e-05
1.921613936867e-05
2.0099553116156e-05
2.1327113370793e-05
2.2952650208542e-05
2.5098563919973e-05
2.7639418962778e-05
3.0548811485074e-05
3.4046052915664e-05
3.8644374290326e-05
4.3619100789326e-05
4.4102808174725e-05
4.2430864693401e-05
4.1425347904587e-05
4.1254966413969e-05
3.932445083104e-05
4.0230253582777e-05
4.192175289389e-05
4.4259415930658e-05
4.7215115202042e-05
5.064134973978e-05
5.4462036736721e-05
5.8447365875618e-05
6.2455556601138e-05
6.6416443031384e-05
7.0297550068587e-05
7.414655205186e-05
7.8122276484125e-05
8.2351415374962e-05
8.6870679052617e-05
9.1728225282102e-05
9.6888246682914e-05
0.00010228171275941
0.00010785207897667
0.00011340279026462
0.00012694366184259
0.00013166386875439
0.00013627735744776
0.00014066839888989
0.00014502435363472
0.00014936817779901
0.00015357191767235
0.00015770655330523
0.00016168278904614
0.00016574742169212
0.00016987359365983
0.00017341601805235
0.00017665161292571
0.00017914111895953
0.00018101943508103
0.00018188859412637
0.00018039886510612
0.00017612972111337
0.00016857711207946
0.00015689309058923
0.00013997573289554
0.00011687462131921
8.7192856772825e-05
5.3942676463693e-05
2.9321876170116e-05
1.9469723379658e-05
1.8229695892908e-05
1.880239692929e-06
9.3491222113327e-07
1.0309766205252e-06
1.2452694979907e-06
1.5328037117082e-06
1.8946946609107e-06
2.3240388853921e-06
2.7197141472388e-06
4.0059441992627e-06
9.172416520547e-07
3.7479731992884e-06
5.5407992398513e-06
9.2385716830566e-06
1.3754172650371e-05
1.9859636773274e-05