/*--------------------------------*- C++ -*----------------------------------*\
| =========                 |                                                 |
| \\      /  F ield         | OpenFOAM: The Open Source CFD Toolbox           |
|  \\    /   O peration     | Version:  2312                                  |
|   \\  /    A nd           | Website:  www.openfoam.com                      |
|    \\/     M anipulation  |                                                 |
\*---------------------------------------------------------------------------*/
FoamFile
{
    version     2.0;
    format      ascii;
    arch        "LSB;label=32;scalar=64";
    class       volScalarField;
    location    "3e-05";
    object      cSound;
}
// * * * * * * * * * * * * * * * * * * * * * * * * * * * * * * * * * * * * * //

dimensions      [0 1 -1 0 0 0 0];

internalField   nonuniform List<scalar> 
109340
(
533.35266189597
533.03536978586
531.40019602257
528.99558023169
525.89842517155
522.13526868547
517.6334982676
512.3376091765
506.13429030551
498.79174219052
490.13349974214
480.02589006768
468.36877943915
455.10366726499
440.224323704
423.7869185318
405.91220343816
386.78465149271
366.64380687535
345.76920669115
324.46469421331
303.03996152334
281.79175639712
260.98826524443
240.85756620809
221.58086098236
203.29130565636
186.07545128733
169.97700230084
154.97894541505
141.05358190355
128.07601821782
115.84426639614
104.07025196605
92.398494242061
80.423480644063
533.7884741461
533.08193550683
531.11082743191
528.44410067266
525.16057602123
521.27213841737
516.68759936913
511.25087608999
504.78828787021
497.1318018848
488.12722935101
477.64756635305
465.60017404992
451.9367265145
436.66418932171
419.85238760641
401.63879766191
382.22223171478
361.85339236225
340.81991398804
319.42903543738
297.98988923813
276.79460618629
256.10361992216
236.1349511343
217.05878507502
198.99714965919
182.02649327315
166.17887390392
151.42966049196
137.73614494277
124.95230974756
112.84965752042
101.10540676102
89.302586802812
76.895460670746
534.493590375
533.54124162599
531.32434348411
528.61669136697
525.40139824283
521.60358453106
517.06640941042
511.6432417294
505.1874974543
497.53943405472
488.54553492162
478.07638077974
466.03717954253
452.37809092016
437.10544597807
420.28931054073
402.06601850846
382.63392963881
362.24290280958
341.18046538986
319.75328193609
298.27128002378
277.02803276255
256.2854966042
236.26350563507
217.13380792057
199.0199135423
182.00004561339
166.10276001452
151.32092232685
137.59739475242
124.79075444924
112.66738268289
100.88459999571
88.953683668616
76.058528857314
535.47898029855
534.1678795094
531.83674292225
529.07687238494
525.84344539943
522.02802952294
517.48917560392
512.07505861625
505.63225378252
498.00141343268
489.02906333263
478.58287256348
466.5642221582
452.91936788429
437.65012310443
420.82200515338
402.56849637544
383.08573752138
362.62230575062
341.46664970603
319.92611860444
298.31493774642
276.93181550491
256.04463359613
235.8788867964
216.61092529756
198.36960825583
181.23196906342
165.23867846404
150.38100256264
136.60376390902
123.76608949381
111.63070576159
99.834817598003
87.798304156261
74.227981873141
537.03702643605
535.09234577055
532.3563316255
529.43316963576
526.17468389642
522.3996158512
517.92807577556
512.59320602386
506.22304287403
498.64457422432
489.69560075223
479.23450369357
467.14963523829
453.37320159593
437.89386056239
420.76632322765
402.11816216122
382.14630281662
361.10113629115
339.30144903046
317.071531424
294.7586385122
272.69050161019
251.16190021125
230.42189813582
210.66457997416
192.03178172169
174.6088443953
158.43781070033
143.51124919722
129.7784221614
117.09429240321
105.22620521869
93.808538849631
82.207935335332
68.49679048801
539.90536354954
535.63274410004
532.58626549128
529.59355306896
526.25372888669
522.28200160243
517.4281355324
511.44525436076
504.08498691337
495.09592803006
484.24538556023
471.33841336171
456.24399093945
438.92154173397
419.44422258927
398.01291530731
374.95704367818
350.72260963534
325.82887486345
300.70640379539
275.85671799167
251.72211473268
228.66438438713
206.9528759379
186.76529449981
168.194762873
151.26362882989
135.94343737532
122.16456318065
109.82905492808
98.814351460725
88.937310245727
79.962764683249
71.582037949146
63.282587060045
53.109757852599
68.029062163788
56.094419695316
46.3852804
39.409583815413
34.674342211234
31.512316379894
29.548431943872
28.442350525491
28.000553626305
28.046976242135
28.598067570494
29.391130225627
30.368624621755
31.450601863428
32.563863760043
33.657552147728
34.697094528482
35.668662644914
36.568550911466
37.398240525646
38.160842862119
38.861323930928
39.505425578811
40.098819827612
40.646723352262
41.153451941961
41.623175831547
42.059595221466
42.466052024777
42.845603317596
43.200920799557
43.534282726609
43.847683445731
44.142865570108
44.421370551326
44.684528689604
44.9336202801
45.169863779039
45.394316345251
45.607854350745
45.811243490023
46.005183723951
46.235008836111
48.968830736573
51.228552885411
51.14151049082
50.898416048209
50.817105593171
50.810099429251
50.803341247692
50.796824267204
50.790300396874
50.784215974252
50.778795132182
50.774385760344
50.770790055309
50.768026454384
50.767888440511
50.768620399278
50.770589599343
50.77464411972
50.779243832421
50.783214860874
50.786186824123
50.789149275064
50.793897611567
50.801511259281
50.813374308578
50.830286077219
50.853122170202
50.881318586631
50.91618363714
50.959640754855
51.014016029834
51.076995715117
51.142915844382
51.207207283728
51.256241626532
51.291782581254
51.319335271
51.341018272371
51.358679535791
51.369855739929
51.376672061245
51.373196585883
51.385716019287
51.408136448663
51.442000556201
51.481879028908
51.525695662408
51.570660332797
51.609627413079
51.643814957302
51.675682556737
51.706327680052
51.736874912795
51.767405755469
51.798221992181
51.829294605753
51.860766006617
51.892704916742
51.924908943316
51.957114006719
51.989087193729
52.028556086084
52.059318396789
52.089061988779
52.117328966116
52.143385882841
52.166057372361
52.184598583778
52.198397436225
52.208453270727
52.21789798865
52.236010867633
52.281495875061
52.386030632717
52.59699777649
52.986775351341
53.660358154319
54.740210273486
56.358726449106
58.658647288771
61.62938157114
65.801658644031
71.506204509761
77.956369356392
86.803657799024
103.42888811074
135.47048255402
182.33038720629
204.52298050741
206.07188647703
205.41428058498
205.18320315984
205.07105438255
204.99605833131
204.93201422257
204.87039553624
204.80964683938
63.672246973158
51.50609765673
42.574617087393
36.59925567499
32.685767076963
30.21301204593
28.757039801347
28.048188368039
27.882317507165
28.193296152095
28.822082420267
29.697075228017
30.705858161675
31.789353043408
32.884912337424
33.950985523252
34.963580813647
35.910043447811
36.786719179233
37.595003539129
38.338708744491
39.022694800999
39.65227569662
40.232743295328
40.768947293908
41.265492253818
41.72638209225
42.155091151719
42.554782091682
42.92833548074
43.278336832447
43.606967312772
43.916104785206
44.207423050504
44.482429501135
44.742490207656
44.988823891187
45.222538553035
45.44467672713
45.656129914169
45.857617743694
46.049658148017
46.364102397955
49.535944269576
51.187120096506
51.044090028634
50.757464381498
50.720908856148
50.700414133334
50.681504234256
50.664112598266
50.647726437309
50.632535393554
50.619319166224
50.609002994848
50.602430601974
50.599474084699
50.600514985369
50.603030433142
50.609041944126
50.617316878907
50.625734071613
50.633644785356
50.641662919886
50.651275674172
50.663641175192
50.679588442421
50.699484569286
50.723957962876
50.752840103483
50.785891083903
50.824242080729
50.869941172432
50.923180932206
50.983098762311
51.047040265942
51.110170812393
51.155084447681
51.189106579085
51.215272052208
51.23714343265
51.254593637934
51.266728704404
51.277090542145
51.307076201367
51.323837566326
51.34913880686
51.383484797737
51.424042427561
51.467029751525
51.509949349388
51.54865966147
51.584267561118
51.617104920662
51.648322961734
51.678926894988
51.709450846009
51.740353775318
51.771458194548
51.802651853912
51.833836918543
51.864786704175
51.89517244297
51.924658070073
51.959405244378
51.985002946386
52.008357481831
52.028859804371
52.046231219913
52.061350338508
52.077902577613
52.103944291447
52.156910260909
52.265745521549
52.473862686066
52.844263623298
53.470483166272
54.461768584857
55.915992687618
57.87414506775
60.299173009941
63.056360017855
65.854307539972
68.47374794531
71.421407711959
75.236618671004
80.347888192081
88.712221874176
105.48525997178
138.0101184171
184.46583034573
204.93107242374
206.0610636902
205.40319300388
205.17971694202
205.06982967537
204.99544395622
204.93163486845
204.87044210966
204.80951771791
61.335738759259
48.103093816999
39.445280934409
34.157298515469
30.984137010209
29.091086062965
28.091908858657
27.726206040912
27.821844503914
28.273722387366
28.989450421509
29.89226092341
30.907409188642
31.974103089884
33.043063807988
34.082874969038
35.072218910056
35.999562326737
36.860414133123
37.655708498559
38.389063813356
39.06486395136
39.687764005741
40.262617924949
40.794089288684
41.28664419675
41.74430521023
42.17038915016
42.567889920671
42.939553358592
43.287884891438
43.615065731821
43.922933701112
44.213148295404
44.487247483858
44.746567265516
44.992283856259
45.225498356403
45.447214545102
45.65827977209
45.859400109526
46.051186230747
46.293456448497
49.147950878045
51.126952241066
50.962188510343
50.666766609244
50.610748321572
50.579588171753
50.551645503513
50.52628028113
50.502413667221
50.480575096434
50.462109406865
50.44741213772
50.439148628188
50.437511033138
50.439041263045
50.445241245848
50.457093700251
50.471303875345
50.484896786129
50.497256169365
50.509515220975
50.523315712978
50.539972512185
50.560198753307
50.584279268035
50.612640592631
50.644892312527
50.680735391687
50.721178955702
50.76695386117
50.81875938055
50.876774223636
50.940091287761
51.004198855255
51.051120248505
51.085814100279
51.112776759634
51.135559885418
51.153532103773
51.167100634014
51.179876481103
51.214699036589
51.23523439804
51.263763915618
51.298238149892
51.338870515242
51.381048837466
51.422876571691
51.461526629798
51.497171707547
51.531029408185
51.563270255792
51.594071384464
51.624538957724
51.655192666939
51.685763884216
51.715968489757
51.745507357016
51.773875977618
51.800635686099
51.825127189292
51.850983585831
51.867862323036
51.882441773885
51.897585513838
51.921422712299
51.973110907205
52.089625281601
52.327705288711
52.767594978719
53.519892758235
54.704863494175
56.417889537451
58.660082927571
61.4241599319
64.688984445208
68.191736549786
71.570031144717
74.388084734011
76.423643233079
77.932694525639
79.187959030973
81.085276516104
84.716730604915
92.661795185994
110.03622694915
143.60753541591
188.76942001929
205.64622958348
206.02068743876
205.37822845918
205.1703784022
205.06563884857
204.99294634822
204.92995728831
204.87007214455
204.80936466717
56.637945763354
41.923226703224
34.616124166907
30.854054014588
28.794144025228
27.770437683509
27.396384893608
27.436402816749
27.821896194598
28.45365312779
29.253786156823
30.177787778349
31.174854433067
32.209580409261
33.24518627252
34.25223532057
35.212528558715
36.115635935255
36.957083145713
37.736894749279
38.457596729237
39.122763628207
39.737169990147
40.305105860676
40.830952350359
41.318609420527
41.772073517773
42.194597398844
42.589148183104
42.958346859388
43.304540486898
43.629806375604
43.935968375681
44.224707868669
44.49749532742
44.755647085643
45.00033406803
45.232664327815
45.453601713036
45.663939674015
45.86438782326
46.055694813147
46.265158972552
48.741812379764
51.049537409303
50.882961759832
50.591890493573
50.51300314628
50.476641920216
50.44343767967
50.412978341604
50.384056141566
50.356919948767
50.333444644376
50.316163091294
50.307442087302
50.307746655548
50.312165407778
50.32609519385
50.345842071023
50.366410074145
50.384510228692
50.400290332051
50.41562090058
50.432146813966
50.451485787607
50.474135629321
50.500588679779
50.530939523522
50.564918922045
50.602752563484
50.645169210277
50.691820403808
50.743658372455
50.800645882773
50.863122099494
50.928322300481
50.979138883241
51.015250272944
51.043349142613
51.066709640997
51.084373657877
51.098165241486
51.111487540773
51.141086463427
51.163665348098
51.193145854322
51.228858979854
51.268300442054
51.310092672476
51.351809041782
51.391419359033
51.428221093682
51.462586065965
51.494957837004
51.525125571191
51.554547768018
51.583709478869
51.612296556194
51.639956184917
51.666209470302
51.690556501876
51.712655496879
51.732497229159
51.756826399563
51.78498659829
51.838245201998
51.950222129108
52.179993953562
52.624600658657
53.424800961725
54.724025865658
56.617748757213
59.137291950753
62.363552053958
66.053285347652
69.811220858426
73.451162367193
76.918540998322
80.18398635862
82.996190803614
84.77028982345
85.696766958667
86.150047705334
86.32585038915
87.217769156132
90.145022398034
98.315502439917
117.00438797054
152.16624395479
194.31298699318
206.3464940875
205.9457047664
205.3452510028
205.15478990252
205.05885880997
204.98892107215
204.92749565327
204.86926121484
204.80949466845
45.743303612087
32.778953321657
28.805376538967
27.286791147568
26.741661978877
26.702751613948
26.974501620651
27.444550406768
28.068884612984
28.801905287985
29.631593176004
30.542338150134
31.509819947329
32.503030339985
33.49461514632
34.461241795116
35.386253590145
36.259656172644
37.076884309522
37.836958905384
38.541591302184
39.194160971782
39.79792675927
40.357308029593
40.876258995202
41.358268122999
41.806856116643
42.225213435866
42.616189516457
42.982369435711
43.325966044317
43.648999485806
43.953275584186
44.240314220233
44.511561105998
44.768367521718
45.011873330541
45.243144395404
45.463093698919
45.672526998904
45.872190140404
46.062874896331
46.255419480063
48.3212847196
50.942705672329
50.826338857088
50.553996709948
50.432009041111
50.389097095326
50.349675769666
50.314393812447
50.280966819019
50.248838810433
50.220531338444
50.201592406573
50.194683921672
50.197404873865
50.210591495085
50.235472079022
50.263591714447
50.289599716827
50.310875118873
50.329033566859
50.34670448346
50.365937461024
50.388301821661
50.413890445902
50.443315597901
50.476000263698
50.512095869573
50.552176495911
50.59612835815
50.64405726493
50.695716652422
50.751173451864
50.811874587014
50.877733148631
50.936175591148
50.976169793811
51.006813147025
51.030569440087
51.047770386718
51.060972334621
51.076892270477
51.100545033676
51.125295601323
51.156520001744
51.192082772561
51.230844404453
51.27164059067
51.31260169733
51.352485103295
51.390593381595
51.426416859684
51.460051147177
51.491005316319
51.521003400522
51.550716042748
51.580328759522
51.60990611753
51.640200311442
51.673335557517
51.714144763051
51.772726415232
51.91957121112
52.169608650131
52.627644683189
53.430231168501
54.726961919709
56.62474937225
59.267608774713
62.705358658912
66.604632317261
70.633197076379
74.634896503879
78.522736074112
82.150462518356
85.394900710064
88.296595328518
90.766931965805
92.477861843575
93.215998806009
93.388249933654
93.034644196803
92.679944941415
93.257454361744
96.35253855402
105.65107492124
126.46495310741
163.51513458685
199.84333003888
206.80841363959
205.82932529562
205.30708754576
205.1351394245
205.05049023034
204.9838372293
204.92455498961
204.86805366669
204.80960122633
25.76633722133
23.858199063949
24.57975019354
25.259049568347
25.887855842601
26.489563887992
27.142491082945
27.814113199066
28.520658345142
29.284011056952
30.108690274106
30.986432363445
31.905686584801
32.846357318365
33.78715997805
34.706813186701
35.591147293097
36.430492760349
37.219560542949
37.956627650627
38.642426357518
39.279303713004
39.870629823176
40.419694118564
40.930182743902
41.405249567505
41.847839403265
42.261261808554
42.64822267183
43.010885510558
43.351479019028
43.671898014912
43.973864710336
44.258972429805
44.528561971449
44.783861459404
45.026019834214
45.256076572228
45.474930817242
45.683404552983
45.88226346136
46.072196410493
46.254440899521
47.89678270685
50.776288107705
50.787568843927
50.536909825258
50.361511357296
50.309763423836
50.260326451281
50.218137260679
50.18114102102
50.1453730088
50.114906148869
50.095711619708
50.092689973484
50.101403519578
50.12776987726
50.163648462722
50.1990267924
50.229286577173
50.252893798988
50.27301186421
50.292889733521
50.314903811381
50.340224471698
50.368934299017
50.40125864372
50.436687353872
50.475289786288
50.517933993627
50.563689121846
50.612937039193
50.664828021455
50.720879931377
50.781662998409
50.846826237714
50.912610128187
50.961184000044
50.998760417247
51.027899606526
51.04851890533
51.066487165638
51.086288363835
51.100902569011
51.129631199474
51.163995843353
51.202551137371
51.245359011171
51.293128351514
51.344884570786
51.400507375189
51.458556493544
51.51661262758
51.572936444358
51.62598954424
51.678576009598
51.733713801083
51.796877621629
51.875400175863
51.981133624827
52.136073436931
52.378761064142
52.776914938961
53.740070191704
55.095674704584
56.971139704041
59.566442479867
62.887038157747
66.664405797425
70.701039179877
74.867471522558
79.029312859824
83.071964135416
86.868681773176
90.334717457208
93.376920011721
95.954771601581
98.08236169767
99.628953935405
100.3126820315
100.35725782804
99.905003621761
99.000403571537
98.65736385776
99.451872360979
103.57025804011
114.94295056529
138.60006939765
176.80282912548
204.27683500786
206.90713322512
205.68027975333
205.25978825045
205.11687659938
205.0411491826
204.97789233837
204.92102210201
204.86650807794
204.80967794865
25.436550189348
22.92712231579
24.284560320491
25.322183424272
26.201550293505
26.939741377837
27.611693675724
28.278663409537
28.967576660874
29.693187045192
30.464394777115
31.280884988513
32.1340797351
33.011312636544
33.8951965417
34.768849393767
35.616905364222
36.428783900701
37.197768276878
37.920774393493
38.597118682463
39.227771426408
39.815046518384
40.361758845308
40.871265865864
41.34637848145
41.789547641886
42.203816373358
42.592015976936
42.956274346008
43.298489410057
43.620608441421
43.924349895666
44.21119797116
44.482490271837
44.739489668611
44.983292381211
45.21491841081
45.435293396388
45.645205347043
45.845353421412
46.036423266462
46.218855383602
46.977724259034
49.841977654111
50.868080244361
50.617279456871
50.353525410586
50.281636671068
50.206872358207
50.135796656832
50.087061622909
50.050267874798
50.018520231921
49.997789735199
49.996068003986
50.012063243886
50.049143495033
50.095130537014
50.137535744984
50.174248912018
50.201819886844
50.224259959487
50.246074653428
50.27034677071
50.29785003701
50.328824978696
50.363058708274
50.400389993449
50.440981584676
50.485727479424
50.533849154278
50.58485699588
50.638224026795
50.694339511377
50.75683006965
50.82739304566
50.910426436678
50.992020797458
51.059239742643
51.113661099282
51.156623641025
51.190270523492
51.219887269739
51.208347261948
51.247209657978
51.296634531852
51.356884922105
51.432526756568
51.528233245751
51.648995986282
51.791913720904
51.952638850199
52.12418848005
52.300410824536
52.48052290063
52.671594652678
52.889651822622
53.163090397272
53.529774231211
54.044019603478
54.787413996376
55.868326372011
57.833837250036
66.227233637943
69.201029549902
72.729291540955
76.596464856628
80.681490120554
84.861993283778
89.037674028731
93.134584650953
97.024304036629
100.63745999963
103.80654188419
106.47793352028
108.57886507221
110.08222637428
110.86177494694
110.95957993477
110.61493952064
109.75980149623
108.44401791539
107.59130999576
107.72075354859
109.9565855568
117.11789832179
133.20672142478
161.98772538881
197.62278059736
207.993232917
206.43718183219
205.45751400957
205.18063470855
205.08982536416
205.02489098442
204.96709239222
204.91455826898
204.86351620503
204.80960517978
35.410714864435
28.993722470351
28.79757294855
28.859716502969
29.03712523049
29.316980695172
29.715689278173
30.178541097079
30.705047310794
31.295590005534
31.935604553792
32.621181448753
33.343588723293
34.092250734216
34.852589835549
35.610583094652
36.353849335064
37.072929603725
37.761386669094
38.415177130207
39.032437973886
39.612917277425
40.157341019183
40.667302866198
41.144756371151
41.592207311311
42.011983843862
42.405815958382
42.775853527548
43.124149920158
43.452386870488
43.762158384323
44.054933549527
44.332015593788
44.594710857436
44.844042696839
45.08095975026
45.306389458276
45.521166482149
45.726001242365
45.921554928777
46.108504495114
46.287315544395
46.905937935498
49.398492642624
50.89130709572
50.831058474639
50.661148696447
50.58726953903
50.352848989653
50.019729664051
49.85634692482
49.819977652099
49.805867203449
49.807551633166
49.83872831955
49.898592249626
49.961826909846
50.020603399761
50.076160262195
50.119954013361
50.15241882914
50.180671519888
50.210577081353
50.244726720733
50.282353346953
50.322893429999
50.366612665948
50.413997113414
50.466033826017
50.523355722404
50.588587457795
50.6658711651
50.762099396049
50.889101100638
51.066360561203
51.318742561564
51.668320441623
52.102181381392
52.539103974759
52.893183505101
53.147449684437
53.321446660339
53.476608644486
53.100069347822
53.324748613254
53.64758433195
54.091485545512
54.692449448546
55.486344248489
56.469055216157
57.606093099074
58.836699739548
60.101158531314
61.371222025393
62.656674783079
64.007370486263
65.497101169699
67.173539298351
69.057607179256
71.195673064009
73.626301041658
76.401932113233
80.0729416895
89.904260114901
93.265335763124
96.966682035727
100.84116213778
104.77342935499
108.63803101538
112.2296507355
115.47317958861
118.32105693188
120.67031840404
122.43498196402
123.55785976816
123.98342384968
123.8919262531
123.40012640429
122.45195589911
121.16629988673
119.87014295757
119.28968065803
119.57584223023
121.86747235661
128.14431101548
141.27304729406
164.27265643757
195.43504297966
208.80130865334
207.24018514219
205.69043904314
205.22635120566
205.11446290665
205.05473325594
205.00091025885
204.95067143676
204.90431993606
204.85838614513
204.80910136233
40.565996464915
32.821343077569
32.194955496569
31.943090724628
31.807000643679
31.788815032567
31.892140347503
32.092491163867
32.41608422443
32.818447785884
33.284972633653
33.818209694051
34.399901844793
35.01439684371
35.651984717761
36.299497403528
36.945442056687
37.579817857228
38.194893459269
38.786147359584
39.350734195583
39.887128505859
40.394776885676
40.874087038996
41.325905173645
41.751401876995
42.152297035228
42.530223142983
42.886706300678
43.223093321834
43.540956531892
43.841633475397
44.126492171381
44.396633856541
44.653141679539
44.897011927551
45.129110976643
45.350215522168
45.561115433978
45.762571644482
45.9551952619
46.139521701041
46.315807774464
46.52727815237
47.989523377973
50.666995465857
51.367323857283
51.712338286237
51.666907916227
51.137829590231
50.065914214293
49.611686939091
49.592641054055
49.61166121447
49.657888982519
49.742467421134
49.824484672975
49.889682382992
49.968543111311
50.046010842061
50.107071315702
50.164813254466
50.230296210901
50.304448471722
50.381384415806
50.457019086198
50.532693066009
50.614138238996
50.70899800442
50.827080780398
50.981893448602
51.196109655212
51.505524984336
51.963483332826
52.644643793118
53.643042471945
55.041367858005
56.871926110016
59.032529969356
61.134621208667
62.601229298868
63.501335885561
64.175695286868
64.870435030511
63.541484128922
64.464591800017
65.674595441255
67.171712936834
68.951733909768
70.955677483142
73.097702965816
75.282959800227
77.428610122279
79.48807225063
81.441390179288
83.329601330958
85.224588706738
87.208814490315
89.353877763215
91.71122418949
94.30752404638
97.149564435989
100.24197030426
103.93885616887
113.72948122295
117.06867717938
120.5740608449
124.10010670605
127.36846271912
130.25195728604
132.64872733062
134.51030316127
135.83741435927
136.59133596321
136.74295514203
136.49464853092
135.85530436765
134.84416410951
133.61166191236
132.37956028885
131.60896361664
131.46991048511
132.44331096181
135.5228703889
142.10917181708
154.18969608225
173.75384330962
198.85331876996
209.68924077241
207.82188793544
205.91140839635
205.25601699098
205.11684250269
205.06527803258
205.02073754294
204.97646468581
204.9336032582
204.89332285927
204.85267065861
204.80833180317
47.919379821348
35.424794802014
34.64100527204
34.292712135508
34.057961466726
33.909948239122
33.853104047058
33.909440504345
34.043234566589
34.296617862882
34.621822775241
35.007079335486
35.45367094441
35.948116653418
36.473253386274
37.016887878253
37.56909223705
38.120830458336
38.664680173223
39.193711576615
39.704263994427
40.194134654824
40.66217951936
41.107822122342
41.531082701271
41.932473272753
42.312736514983
42.672836593643
43.013926437666
43.337174542074
43.643678863769
43.93450721476
44.210626751943
44.473041028774
44.722625246445
44.960275717467
45.186859993902
45.40305162422
45.609538928651
45.807023469335
45.995959382943
46.176951114686
46.350643693101
46.516309270886
47.221115871507
49.08288123449
51.042161823851
51.942637274262
52.053992719989
51.146310994474
49.589080276805
49.294667305453
49.367134464326
49.453303446476
49.581271590961
49.698748379827
49.778480532453
49.854102445978
49.959803719526
50.099268830718
50.254918755875
50.469755606962
50.745878383934
51.05756953776
51.382425007809
51.707394730945
52.039375291009
52.406067269999
52.85260953542
53.434967705888
54.220988552952
55.29998548104
56.773192430171
58.727236607564
61.229976485042
64.274972963574
67.773289098149
71.554375885553
75.351541256525
78.680996552944
81.020193247879
82.500064492892
83.626480544605
84.715706527458
83.107439143976
84.352063716161
85.857602936432
87.578172577471
89.500192667827
91.579380746249
93.751782606878
95.955528647681
98.146839717716
100.31018590157
102.46492242785
104.65290307497
106.92533966109
109.33307544199
111.91045277767
114.67086621255
117.61012760739
120.70594810752
123.92603387589
127.43229150616
136.71486591443
139.57508326573
142.31936096891
144.706084403
146.64508219674
148.08014663077
148.99445314118
149.37418296525
149.28540660882
148.88937163015
148.13639508627
147.12650279299
146.0013011742
144.95433572384
144.28258172428
144.12564016262
144.80377412749
146.92204121577
151.18192880248
158.62040894905
170.43987021625
187.60582727548
204.98956950001
210.31947043615
207.90634034193
205.99258160686
205.25414620271
205.09559262585
205.05474593907
205.02213344723
204.98806878995
204.95235245209
204.91651913834
204.88206003954
204.84664863072
204.80737013218
72.34884265906
37.489436774349
36.503398056119
36.093067384567
35.841319859805
35.642718487997
35.517378415298
35.475409639446
35.518711678727
35.63629471639
35.862621658725
36.143168121835
36.471011133092
36.854098215662
37.280175799968
37.733887753487
38.202209959083
38.67703558286
39.152287481365
39.6220186235
40.080502632896
40.524722486333
40.952827578763
41.363799739856
41.757083282484
42.132634695173
42.490724472155
42.831745096103
43.156246789562
43.464989846962
43.758810504825
44.038556613054
44.305033687733
44.55900442563
44.801168814427
45.03224452096
45.252904967405
45.463731453429
45.665399940143
45.858495560909
46.043574112049
46.22097327522
46.391213979222
46.554750761292
46.838646249313
47.700783050715
49.484234937515
51.19929056861
51.488560912075
50.23591584503
49.087046210287
49.106564304347
49.175562388747
49.308386177057
49.469534153846
49.593196120477
49.724234091422
49.874684390785
50.085237910667
50.489626148308
51.188479854255
52.23642147519
53.519928787604
54.892792067934
56.275593218804
57.618323204384
58.951772713082
60.347794729813
61.89517019796
63.691984788347
65.824288418042
68.366663014334
71.366205586025
74.819451437697
78.671121329447
82.816078552112
87.107999479284
91.373295557545
95.383874286682
98.812900227963
101.39555978082
103.21726774631
104.61516187017
105.87945519686
104.29014345814
105.61973758403
107.14791068818
108.86222977079
110.76220231294
112.82806614203
115.02701894194
117.31953612751
119.67506999477
122.08083067609
124.5405704107
127.06884479204
129.6827032522
132.39187060132
135.19414498124
138.06839681156
140.9769897052
143.86843962821
146.68788544059
149.49035632564
157.00168303609
158.81714704741
160.2463013852
161.24278626092
161.78245316048
161.86522441532
161.61695403352
161.08252281893
160.28734913282
159.35800398239
158.40997787401
157.62905163923
157.20398767533
157.2032876635
157.96934307949
159.86213874893
163.29448582717
168.80699342943
177.02882935921
188.55476037353
201.55715553587
209.56281477753
210.03223855675
207.49655728833
205.87440225521
205.20039069494
205.05719691972
205.02793613848
205.00790353186
204.98449994322
204.95792354965
204.92938917436
204.90006004
204.87100033963
204.84052535119
204.80630071854
115.70071318547
39.501875508081
38.050187940037
37.542874430597
37.274130640578
37.06713550824
36.908208554377
36.8135030921
36.802082832753
36.848211819264
36.971436904479
37.180191292638
37.432217933134
37.724808402748
38.060640138562
38.431502636981
38.826113770949
39.233745244078
39.646150522571
40.059131707842
40.468410188095
40.869197620387
41.258881170169
41.635904056737
41.999290835107
42.348503185508
42.683515095491
43.004472737303
43.311532844943
43.605021031467
43.885401423977
44.153265656673
44.409216968262
44.653880762547
44.887833110389
45.111601898778
45.325841810109
45.530993976389
45.727551080331
45.916060666347
46.096914587086
46.27055579116
46.437261881911
46.597665129849
46.754231434341
47.240102959385
47.984762076466
49.415326845877
49.609821710583
48.847906414565
48.932195724127
49.027168332157
49.150914844992
49.337849108514
49.468731549661
49.581839551725
49.723026686804
50.007009522123
50.686165491693
52.40272883318
55.389318008687
58.956193850457
62.527713094608
65.844499286686
68.819137684691
71.480405358263
73.942609051273
76.35111989089
78.84281968243
81.543844091367
84.547348604932
87.904265007401
91.619398635394
95.645929008861
99.891992541847