/*--------------------------------*- C++ -*----------------------------------*\
| =========                 |                                                 |
| \\      /  F ield         | OpenFOAM: The Open Source CFD Toolbox           |
|  \\    /   O peration     | Version:  2312                                  |
|   \\  /    A nd           | Website:  www.openfoam.com                      |
|    \\/     M anipulation  |                                                 |
\*---------------------------------------------------------------------------*/
FoamFile
{
    version     2.0;
    format      ascii;
    arch        "LSB;label=32;scalar=64";
    class       volScalarField;
    location    "3e-05";
    object      dydt;
}
// * * * * * * * * * * * * * * * * * * * * * * * * * * * * * * * * * * * * * //

dimensions      [0 0 -1 0 0 0 0];

internalField   nonuniform List<scalar> 
109340
(
0.025120832683159
0.026227818914391
0.038026701509354
0.059059474489594
0.091370170505812
0.13609387741309
0.19479518227685
0.26886296743954
0.35731579718716
0.46263869416166
0.58924373206733
0.741047284817
0.92258358043162
1.1393778530604
1.3981820227432
1.7070692771813
2.0758559627929
2.5163594432494
3.0428531388252
3.6727625781666
4.4269777905711
5.3303349033549
6.4123857297397
7.7083494752919
9.2604275491348
11.119739558661
13.348635828471
16.025240782653
19.250741541961
23.194906407001
28.08793409376
34.466592874838
43.457000930012
57.487987179443
81.83276048086
128.67443946908
0.021582318462963
0.025390267005269
0.039903247641517
0.06422609847068
0.099824986015065
0.14710491118411
0.20710661782743
0.281409810392
0.37203866024625
0.48151975471097
0.61321888540489
0.77106859281497
0.95980945549998
1.1852608708277
1.4545084240209
1.7761512188154
2.1603729438449
2.619575819984
3.1688164203204
3.826361631965
4.6141621492195
5.5581887421799
6.6893670884467
8.0445560077246
9.6680561555438
11.613645561573
13.947268067061
16.75186915638
20.138433711325
24.291925389604
29.489224554736
36.374976302084
46.330410522758
62.394120903775
91.522267578077
151.57910179805
0.016934154409632
0.022011974435255
0.038032063367671
0.062649996997919
0.0971898531389
0.14266641245232
0.20115915105892
0.27458627633948
0.36466590830235
0.47381395843757
0.60527306400716
0.76298706152781
0.95173373526492
1.1773528164108
1.4468831461679
1.7687692441168
2.1531574253624
2.612367453814
3.1614528691144
3.8186360316291
4.6060207465511
5.5495774174838
6.6802659504283
8.0350900169934
9.6585493511722
11.604783234211
13.94011585948
16.747668402006
20.144656401829
24.294594434956
29.493465766288
36.380062053815
46.358839544997
62.60540493925
92.854842628147
160.1175193948
0.01158940523351
0.017960511972861
0.033587740080682
0.057705288131521
0.091768601150303
0.13728761072871
0.19597549865173
0.26960858981909
0.35999841349778
0.46950739688391
0.60124398867163
0.75907463403581
0.94774478980943
1.1730629365099
1.4420813786753
1.7632941318606
2.1468712510201
2.6052061439058
3.1535686206264
3.8103439238149
4.598220466023
5.5434853677208
6.6776111058167
8.0382237382152
9.670647611961
11.63047671087
13.984428954453
16.821872477025
20.251369064998
24.444273483586
29.694101338344
36.647462003467
46.747345766946
63.364812599687
95.377303628193
175.40902734094
0.0055606753327391
0.012935230112206
0.02972758334373
0.0549683943476
0.08958947491362
0.13512934662233
0.19347612332418
0.26638206843938
0.35588851677095
0.46453243528605
0.59542503400969
0.75247435253742
0.94054145538128
1.1656201864933
1.4350401644003
1.7576755433983
2.1441599558512
2.607521925657
3.1651714090239
3.835880652623
4.6459555870339
5.6233938783161
6.8031215481892
8.2270505796067
9.945606874939
12.020960068552
14.527188587861
17.561404908788
21.245357490234
25.762121259966
31.412353652907
38.89386437539
49.762240564272
67.782525252411
103.6114980351
208.40488740574
0.00057296521701578
0.011476170015189
0.031606375232551
0.060657042132807
0.1000433622743
0.1518763494023
0.2184467408825
0.30217614856982
0.40572700018656
0.53262352474903
0.68733600987964
0.87571242164212
1.1052853635327
1.3855233758916
1.7282476880576
2.1479635034675
2.6619580415301
3.2894644885075
4.0515448184428
4.9920358162
6.1460144776514
7.5582182586727
9.2826010968886
11.383332502007
13.935507967897
17.029062911427
20.771129072798
25.288765847276
30.745585243483
37.367298210052
45.53687683618
56.166649532158
71.348939841206
96.215597831297
145.83761579827
310.30692843686
224.72459569844
405.45511908409
669.19837457686
992.05969926579
1361.6452112357
1792.0196786899
2273.6897400665
2819.1957555174
3419.3415903214
4087.9992866395
4640.5888007063
5171.5142293801
5607.4579022168
5912.4278259037
6086.5548142138
6143.5125367594
6119.5991010784
6039.1606796688
5919.4628624383
5772.3840357395
5610.6062887741
5442.4234152977
5272.8083315824
5104.6028487261
4939.4214186482
4779.7921106919
4626.8148395432
4480.5441063408
4340.7986502209
4207.5889574007
4081.0875202668
3961.0736217992
3847.0509093615
3738.714745546
3635.8511661116
3538.1753708779
3445.3880093348
3357.2022605472
3273.2834511746
3193.358288731
3117.1595176471
3044.5028785556
3044.8532672502
1817.891009995
1105.8488002227
1102.3463631087
1301.3579867866
1293.3669613341
1256.7405825762
1219.2068596647
1182.611408389
1148.7291052078
1118.0313684528
1091.397251072
1069.2765777134
1052.4918489016
1041.347889091
1035.9035033312
1034.98952443
1036.2017192495
1038.9292241032
1044.4153844303
1053.9445883083
1068.2784483018
1086.3273983384
1106.0867199504
1125.8869263667
1143.3450750541
1156.7481002555
1164.537434445
1166.8029569837
1161.7022703811
1146.5110841785
1117.9383676659
1077.5888442693
1032.0126996701
987.32615471169
957.92380073506
941.92458974109
934.43851121069
933.50866450417
937.24629401281
949.07368101257
966.82224713383
988.27693204778
1002.5529307093
1006.5393722224
997.6518736486
984.05136632259
964.93371309844
942.05835883043
926.870880482
916.19671549687
907.98903288548
901.00335992131
894.3233225163
888.08438917513
881.7868605436
875.52267451054
869.10575277354
862.44336520668
855.58680139516
848.67039805808
841.77423795623
832.49268193278
824.3467274941
815.10925441885
803.94626163897
789.49943718717
770.41642639027
744.60704519168
710.34596270534
665.12027358675
608.63871289444
538.46326480047
452.43754775229
354.26430368578
252.22021814609
156.16322842171
77.870329796757
27.023356916609
3.833881396734
0
0
0
0
0
0
0
0
184.37230114935
2645.1243928689
1315.5800137191
892.69028893852
817.56161899634
792.78959792501
778.20250991164
766.14348932175
754.5463167641
743.44197235039
286.58069171409
533.63225051928
854.38996595696
1219.4304290777
1632.325783495
2093.9253470993
2607.1818523798
3167.4200559269
3780.3717728845
4364.7250876469
4924.6835099574
5384.019307432
5751.1268003495
5993.9931346481
6120.7722511495
6151.6661169843
6107.7132158378
6011.6062012713
5880.5663995552
5727.7946251023
5562.9746630238
5392.8982087071
5222.2255044912
5054.017309472
4890.5137043923
4732.6528388521
4581.2492339864
4436.7160474529
4299.03428784
4168.0852640862
4043.638700697
3925.4520165337
3813.2887792384
3706.8624385708
3605.8525509186
3509.9187565546
3418.7343824648
3331.9562916658
3249.3599349862
3170.746856753
3095.8249996165
3024.1921391195
2962.8204017432
1653.6784146777
1094.8421960705
1125.0049932924
1332.6748642172
1305.4354813124
1270.7358401094
1234.622837978
1199.2608961924
1166.6089094457
1137.4434190032
1112.1211751825
1091.068489608
1074.9679923379
1064.482317179
1059.6437545074
1057.6775620275
1057.0692270664
1058.4577369494
1063.46269285
1073.1888635497
1087.5549020442
1104.8709607727
1123.3033380329
1140.9739030751
1156.0203724658
1166.5100541834
1171.8840634592
1171.5870334304
1163.2507561268
1144.1829609057
1113.4872738581
1072.5040647165
1026.0033758569
980.69059821934
955.13192558059
941.18917559165
936.44254522852
936.64142761127
942.64035614324
956.33262202576
974.42258767883
989.44307413524
1002.2057291275
1005.3533348038
996.39167146252
982.74229487475
963.93494712978
942.8309562336
927.58906864852
915.47619714556
906.20426412508
898.73560837767
891.93949127266
885.45761637003
878.81704700918
872.14291263935
865.28737177747
858.14212234206
850.72046895046
843.00292664543
834.91375992818
823.30719765883
812.27521832075
798.56808229795
780.8847907742
757.31777698999
725.14650099285
681.21263013672
623.60693778814
549.47318602602
461.00385695788
361.09804750202
257.0863652315
159.58488255805
81.670704866432
31.271995845191
6.4512298962142
0
0
0
0
0
0
0
0
0
0
314.52424444498
2695.2622171004
1289.5551885546
887.87035564514
816.5622288476
792.47802186846
778.04626753266
766.04755027941
754.54055259353
743.41025537602
338.92505588738
681.50731677574
1087.9611713968
1521.665795407
1975.4783687775
2471.1046533852
2995.8843034597
3540.3059030291
4094.6282565018
4627.0512688859
5110.3241702985
5511.5220700252
5815.6816267548
6017.5523280002
6124.4807761867
6144.557721115
6095.8612821268
5996.7829394423
5865.3409616333
5713.8792652962
5550.3897121694
5381.2605253436
5211.5077884512
5044.4935950095
4882.0993445982
4725.140888192
4574.3796944623
4430.4193935754
4293.2619254059
4162.7883452548
4038.7615265076
3920.9610376221
3809.1715546591
3703.12365704
3602.4078787496
3506.709795723
3415.7173458635
3329.144329255
3246.795664192
3168.4107275221
3093.5848578083
3022.133551977
2969.9396546691
1740.9766672915
1117.9739262666
1146.0345359298
1358.86564862
1339.5763118669
1308.4788230788
1274.4371583483
1240.231169767
1208.40317853
1179.6584328578
1154.1170943505
1132.2856289361
1114.7538959212
1102.7882609067
1095.6850715503
1090.7965961205
1087.0287437848
1085.7321979481
1088.7325524465
1097.0319460048
1109.9835700126
1125.6725755315
1142.0677879166
1157.4401776545
1170.1225447352
1178.3383235309
1181.7114911902
1179.4513679907
1169.2958624554
1149.712412258
1120.0598594821
1080.3385658365
1033.3673615664
986.38438254462
958.99812025479
945.19932438319
940.51648476142
940.7261918805
947.45459314783
961.20941473648
978.56922887044
991.66489810463
1002.0599899683
1003.9974248934
994.17611380084
979.81604566051
961.40994598133
941.41237814032
925.41023117384
912.7451091216
901.908736115
892.82679407169
885.21476962323
877.96754840191
870.46088500304
862.6682160899
854.46970545499
845.72020108397
836.25364367516
825.7112316913
813.57856455183
794.14917205714
773.18851596668
745.10804355559
707.14293245337
656.06727339081
587.98076045346
500.76169906961
396.87209470716
284.8317625956
179.88083446502
96.357206002465
40.070253408283
9.7188044763031
0.33273484634462
0
0
0
0
0
0
0
0
0
0
0
0
759.8641422653
2732.0745702716
1234.2970451226
877.95542734495
814.25263414089
791.64091120471
777.57693512006
765.7320243894
754.51095902372
743.38305134024
465.35197475268
1061.8447470758
1614.6550508967
2118.3411204888
2628.8296372921
3129.8259791314
3619.3851941369
4117.1546943896
4571.0501087234
4978.3228090136
5347.081534175
5656.2136354034
5900.567164612
6061.7866031565
6138.6392993682
6142.1988877157
6085.5819934347
5983.3639158117
5849.9704378216
5697.2473941678
5533.657256166
5366.2608529541
5197.922736324
5031.8834184827
4870.2474258005
4714.5596725427
4565.0627073267
4422.1505940303
4285.7017670001
4155.8107832392
4032.4000626427
3915.2793771151
3804.0385942493
3698.3755303453
3598.0111655425
3502.6566936372
3411.9865648763
3325.7181960394
3243.6351639953
3165.4327586611
3090.7642312055
3019.61092037
2969.6014752072
1843.3301462755
1156.1725584229
1175.5565046906
1389.8623848034
1384.9842153037
1357.0780127273
1324.0214634848
1289.2735546476
1256.0119701119
1225.737573024
1198.6912720832
1174.928554882
1155.0767043807
1140.8089681905
1130.6542192053
1122.20916165
1115.0189332313
1110.9878914805
1112.2956771727
1119.5857423421
1131.4709739012
1145.9403110157
1160.5599260609
1173.8729434524
1184.1140265042
1190.1126128682
1191.3078653783
1186.6119781452
1174.2566962846
1153.9000331934
1125.1375165696
1087.4445064001
1041.8440025527
993.45015940645
962.0992853216
947.70851651279
942.48894657833
942.79853975384
950.42161746684
964.1208474023
980.32431574677
991.78449580325
998.78009511518
998.49971767605
988.09430399541
972.55167417492
954.21231623395
934.55584652481
917.14379733033
901.99667008083
888.35899395064
876.45081786723
866.64424112258
857.05233071565
846.92689043222
836.09721790724
824.24277602528
810.97828289213
795.56680370092
776.8248331403
753.17187056034
711.37827684317
664.35000567597
602.00731147519
521.97405741679
424.00876891909
313.60091717719
204.34648713344
112.51602100415
47.100386177055
12.161944244342
1.3062863515302
0
0
0
0
0
0
0
0
0
0
0
0
0
0
0
1855.7242248449
2639.5637663313
1160.4923964686
865.44136744217
810.56197297174
790.30106488864
776.82479096188
765.28426486557
754.38690431638
743.42546036884
921.7627890735
2098.1974756578
2811.578472717
3340.8238735708
3778.5171663747
4150.6894283981
4471.3398164359
4771.4389382032
5049.7395175031
5330.1321240231
5595.8867795454
5824.8934684384
5998.2057934124
6109.8843563492
6155.7594088125
6140.2604340287
6073.4934232761
5967.1130889126
5832.1244258546
5679.2116074923
5516.3131350884
5348.4953084332
5181.7538136721
5017.5055958204
4857.1056085567
4702.3056101291
4553.8477256319
4412.2711374274
4276.7895807076
4147.7691278285
4025.0643150642
3908.5091789674
3797.7844531581
3692.6736917234
3592.8405688336
3497.8911273963
3407.5717375497
3321.6552975361
3239.868570777
3161.8841854359
3087.4528150013
3016.5706529784
2959.7076042511
1961.7904846231
1214.2989261073
1208.4192752023
1409.4876637383
1435.2379497903
1409.1994651395
1375.7934008573
1338.3823850717
1301.9345274634
1269.5244315821
1240.4467874516
1213.8834689417
1191.2348118292
1173.628350837
1159.6270730562
1146.907323678
1136.0010355839
1129.1144864855
1129.1235836884
1135.8068727357
1146.9830987136
1160.3689221638
1173.4397176651
1184.8035077782
1192.5061429402
1196.3752183752
1195.4037341092
1188.1825777265
1173.3423674468
1151.7773065768
1124.2266158424
1089.1443921597
1046.836204036
999.08559499362
960.63684219172
943.82179661594
936.55883230357
936.54263002297
944.30129910776
958.35064972362
971.13522513231
982.5388349591
985.67861570504
981.87648459101
969.50386045624
952.53224763114
932.35911592463
910.70681831031
889.19416178594
868.47608520711
849.27196873223
831.62353164234
815.95461536247
800.11727721817
783.17499800555
764.32177656758
742.81657123666
717.5130714141
686.58818821377
647.53557511651
597.49170530885
512.16112566679
422.21112448605
320.70149468282
217.67065363002
125.83375883745
55.506138713573
17.965893266909
3.8151382964926
0
0
0
0
0
0
0
0
0
0
0
0
0
0
0
0
0
0
3614.4778097106
2378.8094534589
1077.7408286482
852.03910875291
806.04335493642
788.65949126947
775.87062253295
764.74258255667
754.189506751
743.4729177217
4453.6294249143
5757.2849769082
5536.4999797707
5373.8800482574
5297.9211293489
5305.1545800976
5320.0775953983
5398.088971238
5529.2890814478
5684.6388855365
5842.2394448696
5986.5867664308
6096.185169362
6159.2891853454
6171.7094333241
6136.4161399028
6058.7128869678
5946.6979552792
5810.0312046079
5657.042715781
5495.1266211974
5329.554942594
5163.1879765047
5000.0109048904
4841.4674233503
4688.1032712716
4541.2076771478
4400.7915992418
4266.4293869801
4138.363227676
4016.4909106762
3900.7126587179
3790.7596689149
3686.2237585464
3586.8487563749
3492.3582129231
3402.4884012789
3317.0055713765
3235.5518976874
3157.8221468082
3083.7519737255
3013.152596263
2946.7198278153
2094.1891973829
1296.7389264401
1238.3179557369
1406.5373456475
1485.7438211041
1461.6812238123
1428.2213602015
1387.8340183757
1347.5753877343
1312.1467582622
1279.9486345828
1250.1327544842
1223.8892437404
1202.1511000522
1183.4350398671
1166.2452724856
1151.1153352102
1141.1993602356
1140.1999079868
1146.5896506871
1157.5216050049
1169.583465247
1180.6771223638
1189.4495259906
1194.5897209529
1195.920297599
1192.4994886165
1182.2730855787
1165.4129904376
1142.4960774577
1115.3407883171
1082.9273899209
1043.7684755416
998.3734793011
952.28758115411
928.01410488265
915.41256792418
912.61987260844
919.87621511582
930.35434509682
938.46150782808
952.08569641986
949.96721999576
940.68634052817
924.4338159021
902.49276726711
876.14388332638
846.76324741239
814.94194820276
782.23128420493
750.4969366835
720.06372681882
691.53091571221
662.41368654555
631.47433410255
596.99338767596
557.20246680918
510.25362572043
454.15029874625
387.57259421098
310.1510070489
204.41421001989
122.59242584555
59.027162682213
24.382353752054
7.946523576519
0.77306194434139
0
0
0
0
0
0
0
0
0
0
0
0
0
0
0
0
0
0
0
153.97111897609
5106.5796905727
2000.8147696524
997.1201071085
837.60642893087
802.03851064795
786.85911235774
774.76512020644
764.10112295387
753.93358496559
743.51468331394
19372.796137663
12147.893027794
9192.6975856214
7691.8265470888
6801.5827183717
6338.2837599043
6106.1157538737
6000.3240070121
5974.8474677527
6002.7568684082
6058.9545842574
6122.1674683691
6176.0550072643
6202.3948259496
6193.508777219
6146.6432822859
6064.9434548108
5953.830924627
5819.9480103987
5670.1435555126
5510.830712084
5347.1658198903
5183.2380364689
5021.1469165443
4862.5410812016
4709.5001889812
4562.6519617801
4421.9566438313
4287.2082741665
4158.760466781
4036.3936182547
3920.0218500404
3809.3692167948
3704.1794380458
3604.2782946265
3509.1937218969
3418.7126533854
3332.5309488131
3250.4801211099
3172.3458403266
3097.6877614695
3026.4307906982
2957.9665915758
2521.5954441165
1591.6494830589
1238.2332008746
1349.6064346454
1527.2195412854
1515.9141358982
1487.146120214
1447.6856856087
1404.0188114025
1362.927224024
1326.2465584427
1292.3558154919
1260.4448390698
1232.5106933402
1209.1612879863
1186.1710095556
1165.5591250007
1150.0140565276
1146.0370281035
1150.7629968778
1160.3588241003
1170.8032984972
1180.0497670258
1186.6715091856
1189.8960741187
1189.2903165401
1184.1315918978
1172.6878747116
1155.3664289617
1132.4844307129
1105.2349663403
1074.3219989239
1037.2148103189
993.22748478574
941.89347543753
896.00647046776
868.64531713113
856.10388349129
854.31362119656
857.60756681799
859.27947146479
879.33417889765
869.57176885324
851.59361801762
826.03977645268
792.72430073515
752.00909828438
704.73820849556
653.58734328555
601.26813912393
550.12132963291
501.99849194877
456.38408384647
411.84948751807
366.41851650899
318.42156374023
267.01207208011
212.49971882639
157.11900260991
104.93902742702
55.906872585732
3.7034787694179
0.35644495323455
0
0
0
0
0
0
0
0
0
0
0
0
0
0
0
0
0
0
0
0
0
0
0
5997.5250070814
4624.1178056175
1395.2605599486
901.17259649178
816.52723984421
796.37529726497
783.72447919774
772.73386671827
762.90553987276
753.40968109619
743.53314783091
12359.651560132
13142.814228349
10930.628661785
9449.4555852183
8448.3475199745
7751.9872812091
7234.7050747047
6911.1543671938
6691.6904566361
6538.7932792085
6444.1491694207
6378.0859742278
6324.3278148567
6265.7729299211
6192.732579148
6101.267358795
5990.5006182485
5862.0941246311
5719.7102905342
5567.545801756
5409.7866313753
5249.7942508998
5090.4233748744
4933.8559268747
4781.4685742302
4633.9294159217
4491.7377314829
4355.7646424068
4225.6307588196
4101.4842852924
3983.0624635561
3870.3603085031
3763.0329446816
3661.0123394157
3563.788790557
3471.2298673193
3383.1008213073
3299.0236975525
3218.9314336065
3142.6424798072
3069.6432248198
2999.9276729016
2932.9613105989
2596.8701647644
1735.01363284
1311.3050498679
1428.9197001306
1568.9572072024
1575.6815394863
1552.8273738777
1518.3903533908
1478.2736838836
1433.1525127747
1386.8139132532
1341.5785061745
1298.8400764562
1263.9450149253
1231.7928867285
1197.907066458
1165.1813675792
1146.8956430095
1144.7182244374
1149.8171352265
1155.8038040462
1160.0499372375
1161.4300512341
1159.595181257
1154.0976706305
1144.2182344229
1129.067354651
1108.8327065002
1083.0292427184
1050.1582224085
1009.3690338573
958.58650971495
895.78469573019
819.45117559914
729.64654020709
632.71347140724
557.65831116891
516.51956599553
493.19730397436
476.58184009999
458.12718487534
498.49553542251
467.60303010141
426.80616512906
377.35346074898
321.17424976343
261.77881398692
204.78883946114
154.4019024749
112.19694391188
78.462475013235
52.812113683428
33.723129409527
19.758005362823
10.631585073884
4.8928664663748
1.4058606604924
0.017470679290258
0
0
0
0
0
0
0
0
0
0
0
0
0
0
0
0
0
0
0
0
0
0
0
0
0
0
7.3273600114686
7183.8090675828
8405.7317281551
1968.3332754668
989.5619687204
829.57468542384
801.4412269914
789.4647492729
779.16636315526
769.66983747832
761.02680130032
752.50538940853
743.4845390309
9451.6885982327
11631.728161578
10725.546422653
9708.7989262005
8909.5121111745
8275.1477352309
7775.7070845818
7378.018472296
7073.7280368378
6834.5895075437
6656.7371140758
6510.7685119153
6389.3918835095
6278.686659101
6167.3516460477
6048.8896348401
5921.686170566
5785.2623181208
5640.7794842147
5490.3579320614
5336.4649614831
5181.45307899
5027.3636752866
4875.9796784459
4728.5745952983
4585.8541542426
4448.4136313918
4316.17327523
4189.7014043937
4068.9745763085
3953.7931179966
3843.8304687867
3738.9364849177
3638.959118593
3543.6758989541
3452.8739493669
3366.1694704498
3283.5706000083
3204.8706320089
3129.5407308615
3057.6637745425
2988.9548168617
2922.8274934803
2857.5836545026
2143.7840286
1469.1061705904
1444.6269201305
1554.5007087621
1583.7238110404
1583.530808918
1586.8332628928
1560.9345952123
1506.9629052809
1442.1939028832
1378.1618766979
1325.539941225
1285.2609552733
1250.762169782
1199.3937862887
1147.8567729555
1123.5200397538
1115.7531980588
1109.4586261857
1099.2739229348
1086.3088213486
1071.3487329783
1054.1010280911
1033.6361038626
1007.7268409442
974.46707940941
931.95996864411
877.17604017484
807.3721603696
720.09317607917
614.56553679707
499.94702248948
386.77980586659
283.84629717131
197.31650810469
136.66144085381
107.12272082135
92.581835100623
81.511565223648
70.24177449433
83.864721876183
69.36479920647
53.311570042446
37.641373598681
24.001446180066
13.47081066096
6.2829434785447
2.0757621823308
0.21237132643644
0
0
0
0
0
0
0
0
0
0
0
0
0
0
0.075650710521182
2.3720295898015
6.2543734666369
9.1304549950028
9.0482853305626
6.1352199500625
1.8905367766263
0
0
0
0
0
0
0
0
0
0
0
0
350.40695767201
12440.530031908
11248.30477197
2466.3825576299
1081.7722836672
841.06642386989
802.38029475463
791.50898691337
782.94579325351
774.55986719125
766.5020914795
759.0148983259
751.49284907854
743.38383342742
8345.9755669765
9780.5801329006
9849.0894571575
9267.987840903
8696.9339595355
8200.6467058536
7780.2864665683
7431.9591427263
7140.5531765861
6895.5929059122
6690.2211578879
6519.7907649017
6368.835827818
6229.5248618097
6096.9142270989
5964.700099765
5829.3808265946
5689.7124379969
5545.7314336315
5398.7202983005
5250.0962670822
5101.3279049249
4953.8610600971
4808.878649806
4667.4161334346
4530.1710564066
4397.7124251739
4270.4585647803
4148.3367148425
4031.4071384673
3919.4792815541
3812.4350464361
3710.3283075399
3612.7925354288
3519.7537468441
3430.9521468956
3346.2164409691
3265.2955264901
3187.9273668168
3114.02896256
3043.2632267178
2975.5751897613
2910.9414213502
2848.0188950752
2426.4324450859
1918.7235672018
1521.6825494451
1522.8915626757
1570.1472106011
1640.0848225639
1754.8725354123
1719.1202139627
1605.3521236143
1489.4515457248
1395.3375010747
1330.853065252
1290.1382706569
1251.1213354989
1184.8204487355
1097.8587521275
1051.7639530493
1011.8336781531
961.42793929183
906.10230271215
851.7341312284
800.04861668519
749.86670922568
697.70416937004
639.44739295629
573.01119723831
498.22285110994
416.98084106324
332.61689497265
248.47222030919
173.202764586
112.69368569494
69.227789339311
40.789918636597
23.651266149536
14.588743558635
10.438396685014
7.9589436965806
5.8606008265306
3.8941171536684
4.0031168775545
2.1201609895141
0.73236400307698
0.042291420999615
0
0
0
0
0
0
0
0
0
0
0
0
0
0.01046650314978
2.5561578187098
13.052897777446
102.34481953068
155.02415754535
218.33092936327
272.69366351305
299.6121141366
287.69761332106
239.69032680946
169.20020280264
100.09425704338
49.840033886383
16.625333578894
1.4650370729885
0
0
0
0
0
0
0
0.029498137403
207.14193361006
3976.0149696433
20498.796561821
10388.833179498
2486.5923562317
1119.1262130128
844.94146400683
798.805475265
789.52365617334
783.2118222694
776.76387733742
770.04705778698
763.34508112463
756.95960584204
750.42188997946
743.24147837264
11094.58667295
8115.2735791598
8806.9334119441
8639.9510494591
8259.6479588836
7888.9599105093
7561.6675240419
7272.0219472384
7022.2172793121
6806.1459140608
6603.6094627098
6425.1607324294
6274.2017623531
6129.9428634226
5990.7528903632
5854.0114188703
5716.7616064534
5578.2281193039
5437.8103046129
5295.9099509238
5153.5230310218
5011.7315505662
4871.4850627737
4733.6424540454
4598.9462126468
4468.0110538172
4341.2359514142
4218.9373573832
4101.3410335349
3988.5230445099
3880.3107846105
3776.8104435534
3677.844950122
3583.2177882228
3492.75989318
3406.2049659898
3323.4026332863
3244.1986348755
3168.4900373043
3096.0112794968
3026.7052639638
2960.2497435329
2896.6021740557
2835.3968847611
2732.1363842912
2318.6439040777
1883.3352607799
1583.7582182946
1581.5743611293
1729.3604202131
1835.1514750592
1803.8459781598
1716.1702798069
1613.6878784943
1519.0774500832
1432.9088252995
1337.4026174595
1239.9040865741
1129.5711207712
966.41320445905
840.75812354631
716.67296453677
604.1976654915
505.60623956065
421.7320780232
352.09092397191
294.35559650846
244.91034215068
200.25499375109
159.47614956452
122.49214042238
90.048441123657
63.181192692689
42.431250100384
27.615053187492
17.888259536446
12.019892935507
8.7895405986293
7.3951886649022
7.1110045621522
7.044975721228
6.4494659718896
5.346556972774
4.0285123489913
1.939309846456
1.0471858517383
0.49225860318326
0.20389744228982
0.089802032462255
0.08201246527613
0.19126636566976
0.57109500613447
1.550779176637
3.7083674941012
8.0000088493112
16.003238145496
30.290986108557
54.826181928706
95.455024133892
159.84384357093
256.55470031064
392.36399188863
569.21002178646
810.01173147357
1754.9912525456
1941.5998182055
1969.2129333391
1827.7535207949
1542.0857595066
1176.2133288379
834.62324876041
548.96718603448
328.32879170375
179.94093600502
89.419195511099
41.542249728363
19.255965085891
9.0114640649602
6.728806094341
12.571787328761
42.877079961784
182.40805589534
886.78589236646
4838.2400447636
18259.054532292
19485.584486146
6789.9268045352
2069.7589171222
1075.1575554165
834.34034014226
791.73899031236
784.46182819905
780.5165529197
776.10278877632
771.10563403859
765.77215568104
760.31519550426
754.94589355831
749.32879844096
743.07486394758
27050.760328014
6684.0326091064
7710.7818501202
7950.9325305587
7761.891684939
7499.6216212872
7250.9598849305
7020.9795756548
6814.1895390078
6619.5323629602
6433.3983328344
6279.0903434997
6128.8742993058
5991.1181236731
5856.2964090572
5722.1753346818
5588.0989921457
5454.2309062328
5319.975533529
5184.9895558928
5049.734073595
4915.2200699546
4782.3737115052
4651.8639465853
4524.227478304
4399.9106106983
4279.2657929773
4162.5241615495
4049.9143228274
3941.5803881612
3837.5051277075
3737.6486050147
3641.9157315411
3550.2214733977
3462.3856443361
3378.245212916
3297.7235417681
3220.5792431378
3146.6967639358
3075.9541719792
3008.0726907835
2943.0355170399
2880.4547628191
2820.6272850292
2764.1900812873
2482.4042115423
2242.78552517
1781.1900740057
1776.7553479538
1851.0917580111
1839.6515450807
1754.4677476043
1658.8320961802
1562.189681099
1483.8330278382
1427.4225509475
1366.1840507466
1246.9000609143
1035.0876802273
675.7551455595
464.85133224748
318.01957032557
219.37613614397
160.80135643967
124.9482772777
100.44622353496
81.542121702742
65.869399525584
52.569320629316
41.452685670754
32.608426081249
26.090187701207
21.889623334557
19.981829019489
20.420594252862
23.440716547059
29.508830020792
39.322896456641
53.107790914147
69.656525140949
85.342207365696
96.637616400511
103.24129902983
107.74313356275
75.319307682939
77.709243081365
84.195430736796
95.840873466618
114.80937880122
144.27494274756
188.79993207422
254.67830181272
350.42104348363
487.84914103963
681.85466827735
950.17685619167
1312.0422706669
1785.274620068
2378.7822786252
3082.4508972563
3858.2162280442
4634.8872245699
5313.1399034931
5882.4449635923
7680.1490030746
6954.3937268875
5879.1693130812
4683.5656593723
3588.7805691937
2619.4239088281
1849.0638928414
1282.9208772293
900.16637063756
661.07694990458
516.05707317626
448.66733592164
467.54817295178
596.27158162094
941.58653752725
1847.920323871
4480.9219017003
11500.94401447
22462.944162341
21715.949167311
10530.117708124
3646.3154242935
1573.9866405952
980.36125206099
812.44393289865
782.28408684774
777.89936772173
775.86427338924
773.31742274815
769.95254187288
766.08686478972
761.88582143215
757.48584981509
753.02659771802
748.25229655905
742.89774285719
86120.809140967
5169.0044893772
6602.458515099
7176.3591788135
7253.5395880421
7095.5368296941
6904.3554832032
6728.346391844
6554.63119974
6393.6670061774
6241.1975250903
6090.8750282609
5954.1877492398
5824.9759581003
5699.2393736071
5573.9191623779
5447.6481743416
5320.6058270231
5193.5166260065
5066.619885357
4939.7847532983
4813.4630857261
4688.3628219278
4565.2711151447
4444.695150619
4327.0576729868
4212.6983465318
4101.8235178794
3994.5363978155
3890.9742457843
3791.2077081328
3695.2314957688
3602.9713138156
3514.3987585678
3429.430866635
3347.9085273149
3269.7117857733
3194.7179357804
3122.785984189
3053.755616536
2987.5232045246
2923.878515385
2862.8153848929
2804.0775556776
2746.1262842932
2386.4763680011
2170.6554296246
2006.8777067647
1888.9299152059
1814.6848517591
1756.5657048559
1669.2641862183
1576.0597634768
1490.1615907287
1417.7217249947
1346.3022242478
1228.4878887679
1006.5919751471
694.88782654846
373.07922939175
162.38406860922
96.811267713055
77.270758880778
68.297455084269
62.474128449191
57.684632965595
53.717530367323
50.867391147036
50.097856505273
52.580157206847
59.714091193877
73.276036836489
95.608498987999
129.77715329754
179.48158882763
249.07066791398
343.64021189083
469.26274279643
629.99122394348
820.78623573021
1022.9939816226
1214.1494423138
1384.8451110927