/*--------------------------------*- C++ -*----------------------------------*\
| =========                 |                                                 |
| \\      /  F ield         | OpenFOAM: The Open Source CFD Toolbox           |
|  \\    /   O peration     | Version:  2312                                  |
|   \\  /    A nd           | Website:  www.openfoam.com                      |
|    \\/     M anipulation  |                                                 |
\*---------------------------------------------------------------------------*/
FoamFile
{
    version     2.0;
    format      ascii;
    arch        "LSB;label=32;scalar=64";
    class       volScalarField;
    location    "3e-05";
    object      k;
}
// * * * * * * * * * * * * * * * * * * * * * * * * * * * * * * * * * * * * * //

dimensions      [0 2 -2 0 0 0 0];

internalField   nonuniform List<scalar> 
109340
(
7.2686025117656
7.2778085853945
7.2946138474515
7.3139081540168
7.330727799643
7.3429630351175
7.3501816965686
7.3528279820664
7.3519700666529
7.3475677691543
7.3395284365272
7.3280097522784
7.3131834161446
7.295217068563
7.2742698312083
7.2504958912008
7.2240437424608
7.1950562039422
7.1636711524165
7.1300173453137
7.0942111626066
7.0563505425826
7.0165127728225
6.9747512839152
6.9310911186495
6.8855237002455
6.8379972626276
6.7884063441235
6.7365774759781
6.6822098732252
6.6250430282083
6.5645327248604
6.4998383717514
6.4295600401797
6.3511365007146
6.2587995171134
7.2671711998882
7.2798465271336
7.2969325488235
7.3132054793202
7.3258470195259
7.3341412443927
7.3378487874181
7.3367614184125
7.3312635513017
7.3216598785895
7.3081652253361
7.2909774704826
7.2703028004613
7.2463506101581
7.2193300858083
7.1894467060515
7.1569028157795
7.1218969669186
7.0846229251432
7.0452658018383
7.0039961278552
6.960960515146
6.9162786933
6.870037978976
6.8222868366032
6.7730277583003
6.7222067177177
6.6697074148215
6.6153158572979
6.5587588072012
6.4996468760934
6.4373509539472
6.3708651129965
6.2984459955561
6.2167403977675
6.117845062625
7.2617629963202
7.2766398535337
7.2922285008137
7.3048204740197
7.3127668160494
7.3153706098644
7.3125121592652
7.304126743722
7.2904464071164
7.2718383413831
7.2486663672985
7.2212785991943
7.1900262711243
7.1552654264265
7.1173537261037
7.07664758393
7.0334994686187
6.9882612998843
6.941287898518
6.8929164374277
6.8434468245954
6.7931301707111
6.7421696295825
6.6907029854942
6.6387965606493
6.5864454911251
6.5335748789699
6.4800209272392
6.4255131139173
6.3697129600076
6.3121155576398
6.2520190366448
6.1882603257116
6.118806830143
6.0395971856518
5.9403858873125
7.2504756757736
7.2712592931309
7.284883464829
7.2904844927743
7.2876742276253
7.2765626762677
7.2572135318163
7.2300201357967
7.195578458626
7.1546514724567
7.108100431242
7.0568264285131
7.0017430365503
6.9437525707956
6.8837485419672
6.822609370243
6.7611885243644
6.7005151943536
6.6413886798314
6.5844933380881
6.5303584008894
6.4792730769305
6.4312883648069
6.3863011616137
6.3441014725484
6.3043976079601
6.2666636071658
6.2304638970307
6.1953077608943
6.160614181805
6.1255985859865
6.0891872622398
6.0495479156097
6.0037014283891
5.9453613366054
5.8551012682675
7.2375830803101
7.2812305854655
7.3046684287939
7.3056250971361
7.2846872046541
7.2427780642452
7.1831339157887
7.1100200492787
7.0281186451304
6.9421455032251
6.8564596544139
6.775277390033
6.7022863254381
6.6408222072268
6.5939721385296
6.5646619561268
6.5561148516933
6.5708390898246
6.6103704515486
6.6718228879691
6.7511355628817
6.8443511627631
6.9481959358022
7.060132081269
7.1781344120943
7.3004473493894
7.425435958717
7.5514732838373
7.6776227687725
7.8014716764595
7.919604701071
8.0289188372269
8.1245433233763
8.1974478912466
8.2325589263299
8.1653362451285
8.7609030290138
12.98469538055
16.590571183271
19.340998953993
21.243951317458
22.434563986336
23.082464518131
23.343061805002
23.339673444777
23.169963351619
22.892614855681
22.552554767324
22.180469545097
21.796928896161
21.415591636758
21.046149429446
20.694803768575
20.365668200765
20.062925457947
19.790092176713
19.542652105263
19.3181814076
19.115599056067
18.934473928895
18.774725955399
18.636558904889
18.520413887877
18.427289346413
18.358697438507
18.316615096618
18.3038986747
18.322402543822
18.376506080296
18.472393882974
18.617814127843
18.796383325819
6.1384715238967
5.9648298769926
5.7282214267304
5.4336143303259
5.0845412660531
4.6843210339677
4.2466998634429
3.7833750093536
3.3123345786152
2.8500410732196
2.4464692835042
2.0970959637512
1.8104121769502
1.5599049675914
1.3464285304429
1.1688187297806
1.0197113837913
0.89437507090723
0.78926585464049
0.70130562094258
0.62682750774698
0.56325122427069
0.50872049936187
0.46187170290258
0.42156477072999
0.38647321546446
0.3556333290594
0.32843751297102
0.30443372991662
0.28311064653891
0.26391118806393
0.24648059726165
0.23066416131701
0.21628123266363
0.20311855567253
0.19098157426669
0.17975060658625
0.16934524757049
0.15969109490169
0.15068922811811
0.14227172925761
0.13442417388076
0.34438506103206
110.30154290832
35.45845049032
21.674279367204
10.887903069935
9.2201130434056
10.930723316605
12.719999969377
14.470225809226
16.153449291675
17.772413279608
19.23395986827
20.387001583293
21.039439625082
21.088542398938
20.609984191398
19.626932997613
18.564841053261
17.519163660605
16.653607172928
15.857152207225
14.992891382954
14.011624364116
12.925062103443
11.807935939064
10.743717031856
9.8017968403036
9.0166502377464
8.3840205608625
7.934924914858
7.6829307126701
7.7018575867157
7.9156154772812
8.2183769405294
8.4749985661751
8.3336727198497
7.9918866847921
7.5772002989965
7.139693334084
6.7122581821887
6.2736968122355
5.8098124691976
5.2127933164157
4.7926215020025
4.4879354877679
4.3198772175141
4.2249445867106
4.2012726720439
4.2014289223906
4.1608161240348
4.0775026438037
3.971185983954
3.8524822658217
3.727825428391
3.592704957824
3.4469696407372
3.2956169569327
3.1500917409112
3.0091867314705
2.8772419396502
2.7542472361487
2.6352323181074
2.5031675789472
2.4193825004418
2.3389430176612
2.2573487256164
2.1990483093625
2.1787314494432
2.1803845557995
2.192592445916
2.2183737920765
2.2595400201615
2.3187978286931
2.4173289547294
2.5969005870215
2.9070641043791
3.4542394636121
4.4515910299879
6.2739202113903
9.6944694186939
16.703651843919
32.380868692199
69.721096211227
155.11764996177
323.48739290949
596.54250048701
921.95205475007
983.71493766963
718.19422756211
219.37863214558
37.257918181874
8.5409916592845
5.4776908166349
5.2123194842445
5.1569081775824
5.115742527246
5.0743455097284
5.0277022329428
5.9816202035058
5.7775342987107
5.4987099999586
5.1534097436809
4.7505964002005
4.3048095026433
3.8328031010842
3.3522348102669
2.8781422631588
2.4388921437325
2.041568282157
1.7006491392622
1.4129668513106
1.1784462968992
0.9910815873802
0.84350617387117
0.72782598387977
0.63703834640355
0.56625974309003
0.50908005894048
0.46158873030356
0.42157830016168
0.38742928496504
0.35805196891786
0.33263814174206
0.31031142589381
0.29044704592695
0.27254259720564
0.2562314351358
0.24120357985804
0.22730642307277
0.21444195199636
0.20252534458944
0.19145541892568
0.18112511401451
0.17146538068595
0.16242544528044
0.15393843830427
0.14593941620905
0.13839540667659
0.13126863564433
0.12455575204609
2.4566808856865
115.02708332107
25.368260234595
14.146115869623
5.8848937664805
6.0117351439555
6.6962332989313
7.271486351815
7.7222828589808
8.0868461250066
8.4083394257074
8.7098320656276
8.9878904865172
9.2021675856213
9.3219448663082
9.3597114690538
9.3320832933648
9.208208504825
9.0696831360922
8.991980921156
8.9230076649805
8.7909331181343
8.5379710019028
8.1785065072508
7.7466595435914
7.2799488594591
6.8241910564891
6.4179017454211
6.0765373535339
5.8228762083011
5.6818755729042
5.6588425399714
5.7666876146576
6.0032387665424
6.3052205057692
6.3059885800035
6.1851606667583
6.0071330467561
5.8046635915886
5.5945394702319
5.3597378145236
5.0695590301162
4.8725711586246
4.5249709056533
4.2597310951122
4.116474481651
4.04803699288
4.0280971060981
4.0263264568194
3.9940309868395
3.9296613832026
3.8395700205203
3.7333643167528
3.6180009040127
3.493809040707
3.3628259573342
3.228000234141
3.0951698525904
2.9640216024857
2.8371171038566
2.7184279076282
2.6040761135408
2.4700738353314
2.3831958019472
2.3019579643422
2.2227291716243
2.1624350673208
2.1400914274707
2.142666491083
2.1629171602943
2.2182325820049
2.3417622960684
2.5802530176962
3.0216371987732
3.828112314447
5.2578122210224
7.7065503338608
11.80483027016
18.423593431817
28.741680356574
44.602112105391
69.847346019207
113.96846058371
199.58037590111
360.5658222508
621.7961646178
929.54566167676
977.41516372205
694.58365352648
203.17767807485
34.510260374643
8.2395651256558
5.4546366041551
5.2105063985622
5.156588969052
5.1156611151651
5.0744573041086
5.0280595595286
5.7937222903035
5.5635602836152
5.253693143086
4.8822425027394
4.4666789362826
4.0242354139133
3.5712948689335
3.1216420242841
2.6882045226244
2.286059039815
1.9239743563546
1.6103941679026
1.3453070789145
1.1263722767448
0.94840927835003
0.80573782448322
0.69174272172031
0.60083570999654
0.5282823150468
0.46927734611238
0.42030807559542
0.37939313145178
0.34495929580006
0.31570961190252
0.29070442824247
0.26932963612191
0.2509883035823
0.23504477680512
0.22097686356057
0.20837828575313
0.19699446806509
0.18665064300552
0.17720523070964
0.16851331826509
0.16047159288995
0.15294994719652
0.14585945377725
0.13913042915035
0.13270959590234
0.12656251551343
0.12067862492587
0.11508473810954
0.94948323500696
113.31624321691
24.424216653352
7.429296279368
3.0463987872694
2.7346464616844
2.7191052782737
2.6262689419986
2.5723395413844
2.5477699431308
2.5428583312017
2.5621883001371
2.615801733868
2.7280384620561
2.9108808206896
3.1651959013885
3.4978816140951
3.8870190471711
4.2562037754462
4.5985998472822
4.9230374431169
5.1632201088488
5.2766453586955
5.2536804877693
5.1360195839576
4.9514563161499
4.7393967578625
4.53459727492
4.3546826749464
4.221472554985
4.1485040686545
4.1502705150587
4.2542169634795
4.5077400641011
4.8775278247398
5.0508102004343
5.0742401658623
5.0393595008819
4.9671280818617
4.8746170291315
4.7455180726928
4.5481984256317
4.4218271298325
4.1519480462282
3.938789112819
3.8235167749608
3.7752366566229
3.765611681628
3.7720984577706
3.7594542533487
3.721256916864
3.6599069407409
3.5744481064604
3.4709182830148
3.3562861562743
3.2361085707572
3.1139886086584
2.9921904732371
2.8706970529212
2.7485202865322
2.633452223467
2.5227503497745
2.388755523298
2.2984977243373
2.205137167579
2.1497770821883
2.1429657388122
2.1658800882894
2.2586010328002
2.488019971262
2.9620995096814
3.8554972373091
5.4399515829565
8.1549540774165
12.651897005438
19.786568720515
30.551337739648
46.073341860137
67.250665616265
94.192035802713
126.55031921069
164.91788452477
214.78199360812
294.84444780456
438.28974608693
675.7879542451
947.7118730691
967.76226758815
646.30583544265
172.35767853014
29.487878373601
7.6946085697119
5.4113241059951
5.2067017682668
5.1557551994491
5.1153950977034
5.0747364482364
5.0291889502744
5.6658272375008
5.3277800470857
4.8950805374011
4.4514838498276
4.0190325585817
3.5997881747711
3.1960834233877
2.8058319739797
2.4406175009254
2.1027773262867
1.7928407942276
1.5177542498041
1.2791592771523
1.0780776056269
0.91235126827369
0.77768818565287
0.66916779827577
0.58190334394582
0.51164898930199
0.45382243969294
0.40531449789237
0.36424054622236
0.32940952878733
0.29965974782007
0.27418449238895
0.25220200576453
0.23324257808409
0.21682360026657
0.2024975855963
0.18985186943505
0.17859216826102
0.16851117224959
0.15947178938019
0.15132017950587
0.14391183279543
0.1371183640728
0.13083500942295
0.12498459655025
0.11950378257702
0.11431946241648
0.10939150440223
0.10471857628894
0.34094755078957
100.79783365877
24.91687248362
3.3624067417485
1.4957573085308
1.2232988417866
1.2221267577166
1.2508421854465
1.2918161063532
1.3284947680382
1.3580462028839
1.386298750041
1.4272862952122
1.4944771034012
1.6023848100475
1.7571169459864
1.9701496016978
2.2460567767442
2.5767796432954
2.951239584248
3.3644050598115
3.7683512448348
4.0193368783538
4.1125599375451
4.0778527220073
3.970021826638
3.8293528510531
3.6890498606497
3.5736027096213
3.5093672958824
3.504307323399
3.5628240751788
3.7053556648697
3.9810139227956
4.4093596874165
4.6934904854735
4.7790739864319
4.7819530591505
4.7467379013585
4.6836784332716
4.5724635015847
4.3712584545899
4.1800719617846
3.9468912267145
3.762431846166
3.665683609833
3.6212390137071
3.6136723724148
3.6233175675354
3.6225981935912
3.6005617706305
3.5535041767244
3.4791029411607
3.3820377856633
3.2736594352365
3.1599018051901
3.0448058935978
2.9296577008839
2.8144762227903
2.6988627473797
2.5842836445473
2.4847744471131
2.3527307897854
2.2900480114046
2.2915634741452
2.3435235337153
2.5138063773979
2.9238094123646
3.7865831891349
5.4256224934164
8.347863469132
13.271222397641
21.052052893645
32.536138029325
48.649710294603
70.22422991827
97.912041092156
131.93105146381
171.47449030372
214.30168174683
256.24764603917
297.46502164657
343.28606045383
411.0928592618
533.40371199736
744.56930468349
970.08691652159
946.76575156921
566.96733971832
134.52736534188
23.406298961735
7.0172896385282
5.3573687165496
5.2016259349661
5.1545055660934
5.1150870466093
5.0754151741834
5.0311408123699
7.5001698678393
6.115690205283
4.9306383242542
4.1240735518616
3.4985012881324
3.0535886988302
2.7457815837436
2.4643481489155
2.1821703169939
1.9069522408734
1.6507072582238
1.4180112686974
1.2100275663227
1.0298382907248
0.87778282622072
0.75198355739132
0.64930594622298
0.56598381099261
0.49836070965317
0.44227503475921
0.39507910522956
0.35521697878092
0.32102638811697
0.29165041498057
0.2663072737788
0.24432628973421
0.22514092301288
0.20833165218679
0.19363561202537
0.18065224560526
0.16911648855568
0.15883605616991
0.14965211203748
0.14139791276998
0.13394691478923
0.12720238119755
0.12104245617021
0.11538311113383
0.11015380978342
0.10526814044969
0.10069141301822
0.096411261618975
0.15148778676645
77.794983061843
32.051233830679
2.0497865718412
1.0835989781061
0.86194499190183
0.92650470737893
0.98049958859339
1.0139468495996
1.0304160115187
1.0409998774288
1.052667734187
1.0744814912565
1.1212867871025
1.2090612634884
1.3464651191296
1.5435561568708
1.8029183436692
2.1247178910649
2.5044293408539
2.9375099164469
3.4036324027035
3.7118465149087
3.8369050854714
3.8208895792331
3.7351304269764
3.6190716695429
3.5070500002572
3.4306073756941
3.4136103511937
3.4510725391143
3.542502414748
3.6990379772731
3.9626733513886
4.4079178507786
4.8447681067115
4.9734930355487
4.9925628796545
4.9598527374385
4.890956453271
4.7494155257354
4.530749608536
4.2572607989671
4.0233461933244
3.8601426630956
3.7729454366025
3.7286143077021
3.7141235908164
3.7127075880364
3.7090268326953
3.6900895532839
3.6477127502447
3.5796882902317
3.4865594784819
3.3817213093889
3.271532158238
3.1610600138965
3.0502989999955
2.9450290587654
2.8439843685032
2.7405208271641
2.6840668279549
2.7078197348963
2.8449147137778
3.1999876477202
3.976446865537
5.5110290815374
8.3428447963287
13.258330310922
21.208385633716
33.084141903898
49.672248736723
71.586745085697
99.208132077005
132.57949975926
171.54329962949
215.63373648964
263.92773868867
315.03005604435
362.70408886517
400.69691066504
435.13761289982
471.8289976753
525.88499098608
629.71079186444
817.14380427845
982.96469266398
897.95767746029
458.23429948308
97.550416955771
17.442452413563
6.3727532350974
5.3072529622517
5.1963630798127
5.1530166425011
5.1147957653633
5.076316499007
5.033532033515
12.397847712158
7.8862577764375
5.9051312703179
4.573985318375
3.6214914843193
2.949006550504
2.4885043904048
2.145635710329
1.9223835030054
1.7276308669326
1.5187119764026
1.3171130251861
1.137876497168
0.980297050536
0.8433470281889
0.7273289223243
0.63087143255873
0.55180815868389
0.48690181195282
0.43244065567148
0.38649420019978
0.347527011152
0.31439384912522
0.28575533944823
0.26087923336671
0.23921701471799
0.22023333437543
0.20348224989607
0.18873423905249
0.17565214942635
0.16399670989264
0.1535748784614
0.14422690301358
0.13583952485617
0.12827834000717
0.1214258962234
0.11517697972131
0.10946672224511
0.10422676204952
0.099375522700781
0.094877630430292
0.090690248753083
0.097642968881658
47.5424932194
42.12457356167
1.7869360802929
1.1288056600947
0.83022697023098
0.92522396697046
0.97793936161865
0.97351429759482
0.93084593491256
0.89194470727946
0.88133369739464
0.88947086179614
0.92600329792124
1.0108463347239
1.1529261523861
1.3597911238436
1.6376761281702
1.9937430713927
2.4168397245445
2.9095796366519
3.4318719037867
3.7348594338243
3.8507441674196
3.8374726913452
3.7643774367633
3.6654217335223
3.5766672905918
3.5334291871826
3.5529071789962
3.6201790934966
3.7250777361076
3.8785832404341
4.1116706558235
4.5100454268082
5.0602101008962
5.2951527426322
5.3309091929212
5.2906453140265
5.1949097722649
5.0274185258004
4.7995135954389
4.5187684347584
4.3161489587446
4.1837105505886
4.1061831645214
4.0680498656399
4.0514613427379
4.0461133231497
4.0463437651719
4.0370962852478
4.0083663434931
3.9537529579994
3.8709727929159
3.776422062643
3.6796100595873
3.5851203344577
3.4938698208022
3.4590987629736
3.4711324705699
3.5494052471663
3.7705221306158
4.6380954854577
6.2695035747347
9.1108272654481
13.902002480247
21.544639989805
32.961408614608
49.022838717057
70.480947869747
97.691973331615
130.51241935838
168.65775822497
211.74710564763
259.09364542521
309.8109690612
362.88676693723
416.80987606268
467.81746269982
508.6024670362
536.24881882223
559.98859232022
585.15489983297
627.74509111495
718.04448038029
881.29986142658
974.22933980568
805.24057478929
333.01350347836
64.64864919085
12.534947153963
5.8814463804801
5.2694981374153
5.1914754489788
5.151328484965
5.114441012999
5.0773186923372
5.036168317246
7.4918623103101
7.3109350496791
5.4572343965753
4.5309324936852
3.7852993631007
3.1597946463854
2.6660460112291
2.2260508938564
1.8767231628641
1.6077358188975
1.4317858002189
1.2755128578517
1.1126175824059
0.96429616951644
0.83698727071506
0.72793852092885
0.63472632808363
0.55650446236288
0.4911743163348
0.43610192841301
0.38950314839886
0.34990568505147
0.31607963325232
0.2870633831127
0.26200332519865
0.24005186462218
0.22075552186103
0.2037620047662
0.1887536296695
0.17541306951257
0.16349079784643
0.15280389810472
0.14320952668071
0.13456233354513
0.12672175981807
0.11962284800226
0.11316426917091
0.10725883747893
0.10184360510161
0.096857336826625
0.092239321007229
0.087963461685719
0.083425725797648
7.7385448033274
61.11135161673
2.5296157768554
1.5973831244342
0.98676214345448
1.1392622455819
1.2296897074789
1.15002798327
0.97940280373676
0.84438407768145
0.77921224200037
0.77076051826206
0.79357662635599
0.87119442157068
1.0121266362576
1.2236853503039
1.5164781918902
1.9054444767881
2.4057690273171
3.0000875100472
3.5273088863756
3.8142146600498
3.9275331129188
3.9234061658182
3.8642564114084
3.783689612933
3.7093746608822
3.6874042089182
3.7154497802245
3.7857231973021
3.893382592624
4.0364843346046
4.2371367768307
4.5384150657887
5.0712643786472
5.6199660038951
5.7986373473708
5.8071945458252
5.7240965196205
5.5483763214427
5.3224350970329
4.9516081572922
4.7986569742971
4.7084656463506
4.6584221683981
4.6391239892023
4.6520835373677
4.6922861116758
4.746378336006
4.8030302874157
4.8418808550476
4.8574707997944
4.8604883919637
4.8685699215592
4.9006381266539
4.9877150349618
5.1740154776649
5.5319488884425
6.1836095928318
7.3324409950384
9.982905071698
29.930490175446
40.121516979077
54.888151568715
74.854431723467
100.73039347386
132.82119660693
171.01415066876
214.92668530634
263.98658129579
317.13582906448
373.37537360353
431.51816131698
490.35323558202
547.27162303724
600.89107317887
647.57299036298
682.93107971791
703.73910155102
713.57630572749
720.02133768051
729.09997871853
760.09735498823
836.81489173871
944.66574301754
911.96642690757
568.39957729512
151.88905814844
28.073686385064
7.7271763102916
5.446812083299
5.233471694884
5.1849125495923
5.1485600365197
5.1138743237978
5.078980660941
5.0404181405813
4.461915670486
3.8578999459651
3.5366887401656
3.1356431817491
2.9133214764873
2.6643331381163
2.3953667334901
2.1217990287098
1.8475022938928
1.5812481079764
1.3151205905359
1.1139657182469
0.96644195703226
0.85794364511593
0.75273139703904
0.65923732114892
0.58001544716893
0.51389283603568
0.45695123284219
0.4078698883553
0.36579299987589
0.32967035275951
0.29855637908719
0.27163990374551
0.24826959519471
0.22786919092138
0.20990301898538
0.19398431484026
0.1798805277493
0.16731850032462
0.15608033635647
0.14595282427817
0.13678379382808
0.12844408412491
0.120886043186
0.11398510581569
0.10766928546846
0.10187583572543
0.096537941630426
0.091613121877142
0.087051909359647
0.082825219891418
0.07831252199352
2.4562800527396
26.757813699364
3.1828496804136
3.2532896057447
2.5433611954463
2.8431266898521
2.8158286607227
1.9751424252833
1.1491186078263
0.74934572593753
0.63467870464823
0.63018423946436
0.68551886723066
0.81757214194545
1.0227421706533
1.3448745853891
1.8146508375118
2.3753594749394
3.0074642057489
3.5623624630898
3.9264181043145
4.0956004321435
4.1306526331333
4.1044744958341
4.0632671529212
4.0445508823447
4.0659165392861
4.1282043669341
4.2391261861331
4.4122305499517
4.6570035042521
4.992980938712
5.4419856079764
6.0232141436601
6.7907929732265
7.8940183411501
8.7055590053938
8.8277817863351
8.6487984046043
8.3616127245877
8.1342462868059
7.4457013592945
7.4701203795557
7.5921713168668
7.8523385215098
8.3042228480834
9.0184500190137
10.01702780724
11.310454240995
12.873310911008
14.661321882723
16.662702240023
18.952409950864
21.736081674962
25.238271796047
29.723630230439
35.552801177453
43.172792631125
53.151049775863
66.326830108424
87.046717818568
158.88496930921
191.04083534959
230.43318566484
276.11980167846
327.06230014419
382.09393048479
440.19420033887
500.47521550346
562.10236615796
622.41855718173
678.92695289812
730.35669283813
775.73501881713
812.67443492108
840.74971251216
856.46900686859
860.49275881632
858.33410835981
849.78448564502
840.71277287016
843.0673533229
862.30887164769
897.86609724084
877.25219163736
616.38327813459
209.08856252657
43.816132866522
10.311100301698
5.7309478110959
5.2774037734899
5.2124196485445
5.1770330582883
5.1444915458649
5.1129050514336
5.0811265815701
5.0460408873749
4.4107594294222
2.2664122418288
2.3765991580699
2.2338553579658
2.1265828542776
2.0586054135257
1.968978926199
1.859419962673
1.7016799619076
1.5258573163251
1.3406684145546
1.1439773114174
0.95309281851524
0.81071036528037
0.70662423171524
0.62832132110123
0.55560378923134
0.49172259811105
0.43719595490896
0.39148865449266
0.35280379162629
0.31915119037786
0.28980746624088
0.26422018251357
0.24182579054717
0.22215742061003
0.20480257450723
0.18942514871436
0.17572134229282
0.16347641725177
0.15250358296631
0.14263303548157
0.13370663022024
0.12559601447201
0.11820882274305
0.11145322403788
0.10524083474195
0.099506047324636
0.094225275932926
0.089350321603891
0.084840480609502
0.080645363040016
0.076727462988784
0.13939542857022
8.1862476576705
7.5370886096645
4.9827219354708
5.95951279706
5.7666610302542
5.1723030381199
2.9358405679917
1.1820624686591
0.61943853049733
0.53513148125966
0.56004781766858
0.66834212093761
0.85590687273157
1.1419566590507
1.6411045699638
2.2229513099119
2.9198632002517
3.720601661064
4.4025248084888
4.863034948086
5.0949178974349
5.1858521656369
5.2206419510743
5.2613820573084
5.3539675773612
5.5309937691813
5.8043593555589
6.1976684169448
6.7431752416872
7.4884367146169
8.4991794468558
9.8289314922094
11.567655721861
13.874633901484
16.939179164119
20.372513849827
22.153689102342
22.707441340128
23.170948409025
24.009160888662
21.507907761827
23.061084374892
25.500050546358
28.960295140042
33.667514508321
39.710507163856
47.068066842924
55.525348081638
64.796494425058
74.671562602398
85.065066964112
96.140187781713
108.3732340388
122.37435160865
138.73347395972
158.05482683576
180.88974446981
207.72567476902
239.14758037435
280.07407625825
393.35112371806
442.12207525576
496.24468335476
553.80341600652
613.22129440275
672.84678229061
730.12174926449
783.74210896245
832.03241573894
874.20646357545
909.77907060523
936.92831787671
955.69555372366
964.26148760177
964.84964240009
960.06436526933
948.26628374996
929.25138897973
906.4742586705
885.67971943241
870.35048795959
854.05824711638
792.30033334588
553.3479138368
208.45248422372
51.261853481228
12.491359679359
6.0530324349506
5.3211342396708
5.233551770464
5.1993644604965
5.1694923460505
5.1403913989071
5.1119469361871
5.0832400355282
5.0514163714721
3.6640968485477
1.767913625613
1.6759622752168
1.6732183889542
1.6025789199204
1.5873753544883
1.5620610214492
1.5252666913607
1.4660138014102
1.3671203296248
1.2429178000957
1.114657429855
0.97274803900283
0.82477319731061
0.69718715732055
0.60074402793807
0.53139909445625
0.474592561088
0.4234476654714
0.37891606580792
0.3408237837386
0.30851079674965
0.28089091704942
0.25688587961369
0.23570073170895
0.21694734320368
0.2002813747573
0.18542395519788
0.17214604890351
0.16023931787922
0.14955802460448
0.13995932263414
0.13123551607974
0.12329146791917
0.11604272011155
0.10939974150831
0.10330809041537
0.097697084832836
0.09251438558234
0.08773569183364
0.08328940494487
0.079154290589285
0.075303687522069
0.073084789266679
1.0944399762995
6.2719973442948
4.6368876129132
6.3844677297851
6.5422416877228
4.6875299557186
1.8989316745619
0.65205018449449
0.43828220504336
0.45966988806018
0.56333097686251
0.74201240206726
1.00979742615
1.4718823410929
2.2508417252405
3.2795596892524
4.6788182627419
6.1701217556747
7.2469627766537
7.9660921265557
8.4728722825279
8.8501485703838
9.1738535870557
9.5357080195749
10.021324040849
10.699100506683
11.639809354106
12.952586072499
14.798727289362
17.409366020508
21.107244297638
26.249912147502
33.206378042048
42.249796228196
53.091038881969
63.719429438486
70.810431869034
75.334534235506
79.802559105494
85.16280504834
79.643669116183
86.687907120814
95.81820985427
106.87506624735
120.11650260914
135.2878322291
152.00688817807
169.78455925562
188.24934398113
207.35988073941
227.37332162032
248.80992117226
272.27528903124
298.35349354862
327.50994055498
360.08850731418
396.29036216452
436.25322605101
479.96474223944
530.24535047764
652.99297521784
704.07939501685
756.29381854539
806.87765651445
854.20634364091
897.15548265765
934.70541210496
966.55527547284
991.66507891779
1009.9082674492
1020.1304832188
1022.6631345444
1020.063890703
1011.6252911383
997.14063244998
976.6998436876
950.96263949364
919.55211704202
883.24639131167
841.11326687969
779.81288053876
656.2849984232
417.08559979255
161.89425272679
46.386509092252
12.868973491902
6.2361751319063
5.3511049618776
5.2468409805211
5.2145633825096
5.1881708030604
5.1622383246429
5.1364191961577
5.1110169040973
5.0852188255007
5.0563741398325
1.0166004043917
1.9367045369992
1.3188711416356
1.2884817272537
1.2637462667489
1.2550963455509
1.2539234392183
1.2423110860803
1.2186836276287
1.18065468915
1.1040591336054
1.0160153439681
0.92555387551396
0.82382653007951
0.71405073928831
0.60536948011891
0.52140146903156
0.4565888640067
0.40979897405169
0.36860970429189
0.33222090314602
0.30060438284412
0.27328895174368
0.24973145030037
0.22934747827382
0.21153735057861
0.19571466942605
0.18153634120787
0.16880175223895
0.1573322139237
0.14698219130311
0.13759683411801
0.12905452449235
0.12126532473196
0.11417005270213
0.10769261105926
0.10173144042265
0.096219412385461
0.091126335665129
0.086402508078454
0.082036842598029
0.077969148710258
0.074166360621863
0.070199055474256
0.14315743806357
1.4130345171216
3.8055906493285
4.6807070723884
5.5645005230318
3.4235550064604
0.94960084809939
0.35769870650121
0.31945122832348
0.37230718796913
0.5074513420563
0.75978055614812
1.2530066249235
2.1982350894829
3.8474935199019
6.1074641976688
8.536034993217
11.428408779695
14.296678614874
16.685259198903
18.615381609922
20.196170181586
21.652037658287
23.226418320359
25.162248512391
27.721725058766
31.197628243187
35.958356571145
42.44327414373
51.140497803107
62.589146635581
77.217279151356
95.085425373947
115.48262284659
136.44422797118
154.1995100563
166.74978954669
176.58074785758
186.64788901786
198.03075454009
192.76439588166
206.85754215813
223.26919306561
242.01923035129
262.94558730076
285.6883480665
309.77949353818
334.75186783238
360.42151104227
386.95178796453
414.73133394665
444.2645717563
475.94052312268
509.97746361261
546.39276145562
585.01222433665
625.61827251625
667.9054222484
711.42669463438
757.7840385444
849.22983104814
887.58611689883
922.80766007138
953.71408511157
979.5224798242
1000.2615327822
1015.3364975929
1024.957809287
1028.3713214304
1027.4477150205
1022.189502824
1012.3263594338
997.36336808731
976.83013300777
949.97712466725
915.47553573654
872.00038409927
816.15663950734
741.33772956726
631.15331204422
464.76589111889
257.3659972345
104.48262747094
34.372810399359
11.434520047414
6.1732974312089
5.3566394607244
5.2525421777745
5.2233894277272
5.2005554612268
5.178109258325
5.1554878361249
5.1326906013206
5.1100862592633
5.0869584918428
5.0608496411231
0.30323551150553
2.4541292037328
1.3188631942919
1.0411868828374
1.0263012130145
1.0222679542595
1.0274521632847
1.025599733644
1.0132728072869
0.99285848823961
0.96619351692825
0.90041584557553
0.83758835527271
0.77351895503679
0.7004884337925
0.61740293699641
0.53001638893018
0.45656739389473
0.39999931598795
0.35696834590063
0.32360949333748
0.29368964717696
0.26738340282254
0.24436390570769
0.22421292949832
0.20659842420443
0.19116470737461
0.17752763867871
0.16535158378871
0.15435724232997
0.14438614051602
0.13532288220027
0.12706480489077
0.11951699206805
0.11259632158992
0.10622149589466
0.10033185871492
0.094894779030682
0.089874753449543
0.085236450531291
0.080929023287541
0.076931402444256
0.073194391760961
0.069692801068306
0.069261311063546
0.24958405949942