/*--------------------------------*- C++ -*----------------------------------*\
| =========                 |                                                 |
| \\      /  F ield         | OpenFOAM: The Open Source CFD Toolbox           |
|  \\    /   O peration     | Version:  2312                                  |
|   \\  /    A nd           | Website:  www.openfoam.com                      |
|    \\/     M anipulation  |                                                 |
\*---------------------------------------------------------------------------*/
FoamFile
{
    version     2.0;
    format      ascii;
    arch        "LSB;label=32;scalar=64";
    class       volScalarField;
    location    "3e-05";
    object      maxKappa;
}
// * * * * * * * * * * * * * * * * * * * * * * * * * * * * * * * * * * * * * //

dimensions      [0 0 0 0 0 0 0];

internalField   nonuniform List<scalar> 
109340
(
0.11646627890155
0.1165790000204
0.11695903115971
0.11751084265778
0.11822130279609
0.11909332353217
0.12015194635611
0.12141899540706
0.12293915777769
0.12478956851744
0.12704208741762
0.12977295011231
0.13306668916012
0.13701735478376
0.14172875275997
0.1473141071925
0.15389657891182
0.16160884955574
0.17059334574268
0.18100298485917
0.19300061559297
0.20675904619243
0.22246169641144
0.24030361656784
0.26049322465216
0.28325507196986
0.30883264874126
0.33749398120043
0.3695416713276
0.405389262534
0.44551995453189
0.49083591872379
0.54298971921285
0.60505715476839
0.68270265216782
0.78663099430361
0.11639848014466
0.11657705125421
0.11703160130337
0.1176396999816
0.11839183817639
0.11929322479942
0.12037443921436
0.12168338022492
0.12327629180791
0.12521722593238
0.12757691772206
0.1304336024927
0.13387435578602
0.13799586397621
0.14290462063916
0.14871684795394
0.15555794826329
0.16356331373614
0.17287840005058
0.18365904101363
0.19607138081831
0.21029147359442
0.22650633251024
0.2449149332269
0.26573043912287
0.28918299732339
0.31552292945716
0.34502649295883
0.37801703193559
0.4149226845083
0.45629012809576
0.50317381163195
0.55752955091492
0.62306796282726
0.70696549700022
0.82420248202134
0.11625416105247
0.11648527518106
0.1169886055477
0.11760024714722
0.11833484978596
0.11921538782536
0.12028554229628
0.12158962179541
0.12317852829659
0.12511412912267
0.12746706896763
0.1303159523301
0.133748166353
0.137860617948
0.1427597748062
0.14856174034495
0.1553922741779
0.1633871487404
0.17269263597254
0.18346553331627
0.19587378627045
0.21009511379709
0.22631848682743
0.2447453206704
0.26559141137399
0.28909030712493
0.3154957218433
0.34508766962994
0.37820340536238
0.41523519454708
0.45676539437939
0.50384225502365
0.55845689154137
0.62449722748792
0.71000459353634
0.83454438022832
0.11603278681756
0.1163530341042
0.11687719820591
0.11749897755882
0.1182358693895
0.11911870375662
0.12018702514811
0.12148660725304
0.12306955094764
0.12499721746017
0.12733998909703
0.13017687670871
0.13359590927043
0.13769481898526
0.14258138762935
0.14837352540199
0.15519895967245
0.1631962425005
0.17251523064667
0.1833170562947
0.19577573324231
0.2100751345307
0.2264113508879
0.24499375754488
0.26604715496367
0.28981596970491
0.31656286639087
0.3465910896729
0.38022392648433
0.41788072203496
0.46014193020798
0.50807199504862
0.56371220462319
0.63118007154781
0.71974669321746
0.85748087945624
0.11569171713312
0.11616805251872
0.11677038400882
0.11742192368441
0.11816105669194
0.11903228159005
0.12008293348465
0.12136126747542
0.12292369673332
0.12483434794417
0.1271659088383
0.13000043358743
0.13343102577199
0.13756231795764
0.1425111954568
0.14840744126755
0.15539359981725
0.16362677711857
0.17352446410779
0.18516140434325
0.19872109256838
0.21443718299917
0.2325609731627
0.25336035502017
0.2771207417687
0.30414783849935
0.33476566966409
0.36931996868841
0.40818358603647
0.45178864321435
0.50065572719737
0.55579935558328
0.61914027525416
0.69475198823544
0.77188606551769
0.93328728019982
0.11518313245663
0.11606709745739
0.11672304980819
0.11738752841589
0.11814642351209
0.11906636972404
0.12021257450205
0.12165658751531
0.12348033485055
0.12578048703651
0.12866904231341
0.13227556869036
0.13674846446923
0.14225579165872
0.14898522290599
0.15714293804145
0.16695040506817
0.17863559398453
0.19243902348464
0.20867403927445
0.22762594679691
0.24959681629506
0.2749002447445
0.30385971187348
0.33680447695657
0.37407024954554
0.41599329459381
0.46289811013672
0.51510108191727
0.57291931756048
0.63673815975538
0.70747145918982
0.78711191525016
0.88002505362057
0.99806071503794
1
0.93312908787892
1
1
1
1
1
1
1
1
1
1
1
1
1
1
1
1
1
1
1
1
1
1
1
1
1
1
1
1
1
1
1
1
1
1
1
1
1
1
1
1
1
1
1
1
1
1
1
1
1
1
1
1
1
1
1
1
1
1
1
1
1
1
1
1
1
1
1
1
1
1
1
1
1
1
1
1
1
1
1
1
1
1
1
1
1
1
1
1
1
1
1
1
1
1
1
1
1
1
1
1
1
1
1
1
1
1
1
1
1
1
1
1
1
1
1
1
1
1
1
1
1
1
1
1
1
1
1
1
1
1
1
1
1
1
1
1
1
1
1
0.99972637442101
1
1
1
1
1
1
1
1
1
1
1
1
1
1
1
1
1
1
1
1
1
1
1
1
1
1
1
1
1
1
1
1
1
1
1
1
1
1
1
1
1
1
1
1
1
1
1
1
1
1
1
1
1
1
1
1
1
1
1
1
1
1
1
1
1
1
1
1
1
1
1
1
1
1
1
1
1
1
1
1
1
1
1
1
1
1
1
1
1
1
1
1
1
1
1
1
1
1
1
1
1
1
1
1
1
1
1
1
1
1
1
1
1
1
1
1
1
1
1
1
1
1
1
1
1
1
1
1
1
1
1
1
1
1
1
1
1
1
1
1
1
1
1
1
1
1
1
1
1
1
1
1
1
1
1
1
1
1
1
1
1
1
1
1
1
1
1
1
1
1
1
1
1
1
1
1
1
1
1
1
1
1
1
1
1
1
1
1
1
1
1
1
1
1
1
1
1
1
1
1
1
1
1
1
1
1
1
1
1
1
1
1
1
1
1
1
1
1
1
1
1
1
1
1
1
1
1
1
1
1
1
1
1
1
1
1
1
1
1
1
1
1
1
1
1
1
1
1
1
1
1
1
1
1
1
1
1
1
1
1
1
1
1
1
1
1
1
1
1
1
1
1
1
1
1
1
1
1
1
1
1
1
1
1
1
1
1
1
1
1
1
1
1
1
1
1
1
1
1
1
1
1
1
1
1
1
1
1
1
1
1
1
1
1
1
1
1
1
1
1
1
1
1
1
1
1
1
1
1
1
1
1
1
1
1
1
1
1
1
1
1
1
1
1
1
1
1
1
1
1
1
1
1
1
1
1
1
1
1
1
1
1
1
1
1
1
1
1
1
1
1
1
1
1
1
1
1
1
1
1
1
1
1
1
1
1
1
1
1
1
1
1
1
1
1
1
1
1
1
1
1
1
1
1
1
1
1
1
1
1
1
1
1
1
1
1
1
1
1
1
1
1
1
1
1
1
1
1
1
1
1
1
1
1
1
1
1
1
1
1
1
1
1
1
1
1
1
1
1
1
1
1
1
1
1
1
1
1
1
1
1
1
1
1
1
1
1
1
1
1
1
1
1
1
1
1
1
1
1
1
1
1
1
1
1
1
1
1
1
1
1
1
1
1
1
1
1
1
1
1
1
1
1
1
1
1
1
1
1
1
1
1
1
1
1
1
1
1
1
1
1
1
1
1
1
1
1
1
1
1
1
1
1
1
1
1
1
1
1
1
1
1
1
1
1
1
1
1
1
1
1
1
1
1
1
1
1
1
1
1
1
1
1
1
1
1
1
1
1
1
1
1
1
1
1
1
1
1
1
1
1
1
1
1
1
1
1
1
1
1
1
1
1
1
1
1
1
1
1
1
1
1
1
1
1
1
1
1
1
1
1
1
1
1
1
1
1
1
1
1
1
1
1
1
1
1
1
1
1
1
1
1
1
1
1
1
1
1
1
1
1
1
1
1
1
1
1
1
1
1
1
1
1
1
1
1
1
1
1
1
1
1
1
1
1
1
1
1
1
1
1
1
1
1
1
1
1
1
1
1
1
1
1
1
1
1
1
1
1
1
1
1
1
1
1
1
1
1
1
1
1
1
1
1
1
1
1
1
1
1
1
1
1
1
1
1
1
1
1
1
1
1
1
1
1
1
1
1
1
1
1
1
1
1
1
1
1
1
1
1
1
1
1
1
1
1
1
1
1
1
1
1
1
1
1
1
1
1
1
1
1
1
1
1
1
1
1
1
1
1
1
1
1
1
1
1
1
1
1
1
1
1
1
1
1
1
1
1
1
1
1
1
1
1
1
1
1
1
1
1
1
1
1
1
1
1
1
1
1
1
1
1
1
1
1
1
1
1
1
1
1
1
1
1
1
1
1
1
1
1
1
1
1
1
1
1
1
1
1
1
1
1
1
1
1
1
1
1
1
1
1
1
1
1
1
1
1
1
1
1
1
1
1
1
1
1
1
1
1
1
1
1
1
1
1
1
1
1
1
1
1
1
1
1
1
1
1
1
1
1
1
1
1
1
1
1
1
1
1
1
1
1
1
1
1
1
1
1
1
1
1
1
1
1
1
1
1
1
1
1
1
1
1
1
1
1
1
1
1
1
1
1
1
1
1
1
1
1
1
1
1
1
1
1
1
1
1
1
1
1
1
1
1
1
1
1
1
1
1
1
1
1
1
1
1
1
1
1
1
1
1
1
1
1
1
1
1
1
1
1
1
1
1
1
1
1
1
1
1
1
1
1
1
1
1
1
1
1
1
1
1
1
1
1
1
1
1
1
1
1
1
1
1
1
1
1
1
1
1
1
1
1
1
1
1
1
1
1
1
1
1
1
1
1
1
1
1
1
1
1
1
1
1
1
1
1
1
1
1
1
1
1
1
1
1
1
1
1
1
1
1
1
0.99658384086015
1
1
1
1
1
1
1
1
1
1
1
1
1
1
1
1
1
1
1
1
1
1
1
1
1
1
1
1
1
1
1
1
1
1
1
1
1
1
1
1
1
1
1
1
1
1
1
1
1
1
1
1
1
1
1
1
1
1
1
1
1
1
1
1
1
1
1
1
1
1
1
1
1
1
1
1
1
1
1
1
1
1
1
1
1
1
1
1
1
1
1
1
1
1
1
1
1
1
1
1
1
1
1
1
1
1
1
1
1
1
1
1
1
1
1
1
1
1
1
1
1
1
1
1
1
1
1
1
1
1
1
1
0.95077637732741
0.90136969066358
0.85625355908931
0.82007839913553
0.80091386707607
0.78701065492015
0.77676392539058
0.76702540356603
1
1
1
1
1
1
1
1
1
1
1
1
1
1
1
1
1
1
1
1
1
1
1
1
1
1
1
1
1
1
1
1
1
1
1
1
1
1
1
1
1
1
1
1
1
1
1
1
1
1
1
1
1
1
1
1
0.97226539030113
1
1
1
1
1
1
1
1
1
1
1
1
1
1
1
1
1
1
1
1
1
1
1
1
1
1
1
1
1
1
1
1
1
1
1
1
1
1
1
1
1
1
1
1
1
1
1
1
1
1
1
1
1
1
1
1
1
1
1
1
1
1
1
1
1
1
1
1
1
0.97804870765668
0.94283745895085
0.90416351057973
0.86313824460408
0.82142851111714
0.78072023247033
0.74255191169116
0.70811797907041
0.67810016142535
0.6545685498652
0.64119848438047
0.63043265548716
0.62240180846283
0.61529015657184
1
1
1
1
1
1
1
1
1
1
1
1
1
1
0.99712475515873
0.97601757134001
0.95524548312487
0.93510925935008
0.91597505697576
0.8975901871482
1
1
1
1
1
1
1
1
1
1
1
1
1
1
1
1
1
1
1
1
1
1
1
1
1
1
1
1
1
1
1
1
1
1
1
1
0.58900621752705
1
1
1
1
1
1
1
1
1
1
1
1
1
1
1
1
1
1
1
1
1
1
1
1
1
1
1
1
1
1
1
1
1
1
1
1
1
1
1
1
1
1
1
1
1
1
1
1
1
1
1
1
1
1
1
1
1
1
1
1
1
1
0.97503688382111
0.93432420263209
0.900539767562
0.87139563456709
0.84468114973534
0.81874060807185
0.79236550779087
0.76494390928197
0.73640060813798
0.70704303973113
0.67729521618746
0.64883079570007
0.62219488139366
0.59786334611332
0.57626668501785
0.55777295803334
0.54459185716493
0.53306012175529
0.52457880762697
0.51803051315674
0.51233802096692
1
1
1
1
1
0.9951233817608
0.97876688109172
0.96215869743423
0.94555750500032
0.92913061941993
0.91297238157829
0.897133511423
0.88165588243749
0.86663501102781
0.85238074893523
0.83902311694542
0.82657863067198
0.81522530651353
0.80512212504691
0.79598137512136
1
1
1
1
1
1
1
1
1
1
1
1
1
1
1
1
1
1
1
1
1
1
1
1
1
1
1
1
1
1
1
1
1
1
1
1
0.45394280488943
1
1
1
1
1
1
1
1
1
1
1
1
1
1
1
1
1
1
1
1
1
1
1
1
1
1
1
1
1
1
1
1
1
1
1
1
1
1
1
1
1
1
1
1
1
1
1
1
1
1
1
1
1
1
1
1
1
1
1
0.97541878460276
0.88478242573122
0.82385271637417
0.77953449925419
0.74545292628127
0.71783642783466
0.69601221855318
0.6741574001989
0.65336971294669
0.63261223287591
0.61157384007902
0.58795461197299
0.56763680990834
0.54821874522359
0.53001396635869
0.51321246896854
0.49943809191103
0.48551154756783
0.47326981315351
0.46287178994901
0.45439819484826
0.44766396192113
0.44222265589286
0.43751345242742
0.90282339904781
0.89367718194596
0.88396956291315
0.87371156584314
0.86287764859745
0.85153269289984
0.83982679188335
0.82797660370752
0.81630735366441
0.80506741075707
0.79427801039803
0.78405149831067
0.77447555714708
0.76563163842824
0.75760560477899
0.75048664626496
0.74435819509476
0.73928962675078
0.73532353474155
0.73230247939274
1
1
1
1
1
1
1
1
1
1
1
1
1
1
1
1
1
1
1
1
1
1
1
1
1
1
1
1
1
1
1
1
1
1
1
1
0.34095107253219
1
1
1
1
1
1
1
1
1
1
1
1
1
1
1
1
1
1
1
1
1
1
1
1
1
1
1
1
1
1
1
1
1
1
1
1
1
1
1
1
1
1
1
1
1
1
1
1
1
1
1
1
1
1
1
1
1
1
0.91783820317321
0.7993286918764
0.72188311383459
0.67146612868824
0.63545292602632
0.60742337824433
0.58632657083283
0.5660269363372
0.54755451171377
0.53028731668747
0.5139819718111
0.49865198637296
0.48437518644366
0.47117191439858
0.45897902672095
0.44767386737519
0.43712943583492
0.4272551711298
0.41804665144558
0.40962225156419
0.40217712363489
0.39588466933084
0.39074986304243
0.38658136519483
0.38305684384071
0.78513256946081
0.77855952708336
0.77184624077188
0.76492839622026
0.75775478933449
0.75037324827714
0.74290736775061
0.73552645522123
0.72842698412454
0.72177061066656
0.71566957531756
0.71019900036622
0.70540729980224
0.70132687207592
0.69798020640804
0.69538065493533
0.69353102028873
0.69242324172456
0.69202508789009
0.69221931549233
1
1
1
1
1
1
1
1
1
1
1
1
1
1
1
1
1
1
1
1
1
1
1
1
1
1
1
1
1
1
1
1
1
1
1
1
0.30310661159931
0.62174137569259
1
1
1
1
1
1
1
1
1
1
1
1
1
1
1
1
1
1
1
1
1
1
1
1
1
1
1
1
1
1
1
1
1
1
1
1
1
1
1
1
1
1
1
1
1
1
1
1
1
1
1
1
1
1
1
0.99105199308874
0.8587561859061
0.74750624214286
0.66320441497627
0.60335079717061
0.56075789404807
0.52893480618799
0.50534508141089
0.48461000737667
0.46705909139152
0.45202989258907
0.43911113202842
0.42800078528396
0.41841212747382
0.41004595823832
0.40251023157232
0.39547703058472
0.38871105239071
0.38207821144069
0.37556440443288
0.36928374242018
0.36346423388909
0.35834464714527
0.35408609901551
0.35069831232802
0.34804129494112
0.34587473782207
0.70459392668006
0.70051668578451
0.69646547893168
0.69238134493912
0.6882527078294
0.68414099637513
0.6801562853358
0.67642782724418
0.67306427701857
0.67013975663144
0.66769371600111
0.66573733414624
0.66426209974486
0.66324672689402
0.66266054189329
0.66246416889876
0.66261238250726
0.6630594163601
0.66375082512767
0.66457173382463
1
1
1
1
1
1
1
1
1
1
1
1
1
1
1
1
1
1
1
1
1
1
1
1
1
1
1
1
1
1
1
1
1
1
1
1
0.29447120670611
0.37154219344405
1
1
1
1
1
1
1
1
1
1
1
1
1
1
1
1
1
1
1
1
1
1
1
1
1
1
1
1
1
1
1
1
1
1
1
1
1
1
1
1
1
1
1
1
1
1
1
1
1
1
1
1
1
1
0.9058344752457
0.78904825894831
0.69351883899002
0.61792658161331
0.5578854345151
0.51068947396921
0.47404036220575
0.44669813041891
0.42443874682135
0.40708097934246
0.39373131207861
0.38361418067615
0.37592503075362
0.36996115854641
0.3651114855437
0.36087061230954
0.35685572110677
0.35282377507265
0.34865926090267
0.34438218164232
0.34012746276512
0.33611542911453
0.33257251685337
0.3296588424068
0.32741869643
0.32577401979962
0.32456915378478
0.32362399976671
0.65486896659886
0.65296229837958
0.65112781135047
0.6493473103975
0.64765015205922
0.64609212314835
0.64473293904016
0.64353023519047
0.64247561869942
0.64172208295633
0.6412568108026
0.64105178406051
0.64109077691832
0.64138055341393
0.64174341586819
0.64212287592598
0.64246418931904
0.64281131581325
0.64316887352641
0.64338286778255
1
1
1
1
1
1
1
1
1
1
1
1
1
1
1
1
1
1
1
1
1
1
1
1
1
1
1
1
1
1
1
1
1
1
1
1
0.29536658789643
0.3066833067686
0.60109089239944
1
1
1
1
1
1
1
1
1
1
1
1
1
1
1
1
1
1
1
1
1
1
1
1
1
1
1
1
1
1
1
1
1
1
1
1
1
1
1
1
1
1
1
1
1
1
1
1
1
1
1
0.93474228365335
0.81048895565746
0.7140951284958
0.63695714693888
0.57294738049667
0.5189163346327
0.47321053241652
0.43511234897103
0.40530774737672
0.38180176576984
0.36479466003066
0.35311895355077
0.34546397685148
0.34053544862331
0.33726204530052
0.33486266462404
0.33281100813037
0.33078369234226
0.32861155356328
0.32624799306095
0.32376145925043
0.32129647331041
0.3190417626662
0.3171520473027
0.31561891563583
0.3145701369083
0.31398472487744
0.31366086199699
0.31348042659167
0.31335773780868
0.62918791095721
0.62873579168283
0.6284569397116
0.62827082435813
0.62820066357998
0.6282588759016
0.62844191900984
0.62873094157307
0.62909701489159
0.62950582167313
0.629923039375
0.63031473023848
0.63065061999628
0.63090563208089
0.63111975479409
0.63132946542147
0.63151507415536
0.63171270095311
0.63203230322331
0.63319767053749
1
1
1
1
1
1
1
1
1
1
1
1
1
1
1
1
1
1
1
1
1
1
1
1
1
1
1
1
1
1
1
1
1
1
1
1
0.29777138708246
0.29687807907462
0.35476444028155
0.88693404509235
1
1
1
1
1
1
1
1
1
1
1
1
1
1
1
1
1
1
1
1
1
1
1
1
1
1
1
1
1
1
1
1
1
1
1
1
1
1
1
1
1
1
1
1
1
1
1
1
1
0.86025895338337
0.73230772635504
0.64687230292815
0.58211035962443
0.52828894846845
0.48162570640104
0.44053710039629
0.40559582384558
0.37564655656881
0.35276980758109
0.33707675912167
0.32755651573101
0.32240096497537
0.31980775276331
0.31842500739858
0.31753879529224
0.31676869961279
0.31591529368766
0.3149310975677
0.31385264546494
0.31277823068797
0.31184615540332
0.31117830832486
0.31089397219846
0.31117856146936
0.31171170332321
0.312299152829
0.31286390306016
0.31336947318136
0.31381396175052
0.31422495876238
0.62868448404026
0.62965652855695
0.62836486872084
0.63161835420313
0.63258629344013
0.63354846218147
0.63451165030917
0.63548446997286
0.6364807999359
0.63751912704575
0.63862280257274
0.63981785599148
0.64113016516851
0.64258046086123
0.64400452956983
0.64545710700607
0.64700467740504
0.64860643880852
0.65013672338325
0.65143743850269
1
1
1
1
1
1
1
1
1
1
1
1
1
1
1
1
1
1
1
1
1
1
1
1
1
1
1
1
1
1
1
1
1
1
1
1
0.29978221436712
0.30239825499072
0.30511333411485
0.44656469175517
1
1
1
1
1
1
1
1
1
1
1
1
1
1
1
1
1
1
1
1
1
1
1
1
1
1
1
1
1
1
1
1
1
1
1
1
1
1
1
1
1
1
1
1
1
1
1
1
0.82199554806164
0.68964796450576
0.60053774008822
0.53741933054682
0.48952267124966
0.44799063799584
0.4116897686467
0.37987413461064
0.35324909853732
0.3331798707254
0.3203492399962
0.31366199727904
0.31108611466694
0.31062127663361
0.31078041459892
0.3110240069405
0.31120593047945
0.31142695296909
0.31169673197613
0.31211058659
0.31273622045219
0.31359340141969
0.31465222662821
0.31580741344666
0.31695460948682
0.31800875726002
0.31894579756548
0.31975190365623
0.32044189998194
0.32104272849689
0.3215803024597
0.32207649500045
0.64486694681997
0.64583113801427
0.64674512826526
0.64763624496273
0.64853027093247
0.64944300862512
0.65038012490657
0.65133981736658
0.65231797430044
0.65330995590193
0.65431115535384
0.65531601155776
0.65631836553776
0.65731038738818
0.65828214044011
0.65922170706667
0.66011083048234
0.66091167182674
0.66155663697492
0.66193588423219
1
1
1
1
1
1
1
1
1
1
1
1
1
1
1
1
1
1
1
1
1
1
1
1
1
1
1
1
1
1
1
1
1
1
1
1
0.30059719961278
0.30725819882869
0.30488822301708
0.3211839314779
0.55109911845244
1
1
1
1
1
1
1
1
1
1
1
1
1
1
1
1
1
1
1
1
1
1
1
1
1
1
1
1
1
1
1
1
1
1
1
1
1
1
1
1
1
1
1
1
1
0.9470838861613
0.77821357274827
0.65661649968434
0.5701271529484
0.50602012022812
0.45796754873353
0.41858946273839
0.38581473896961
0.35821023169702
0.33595667853151
0.32018917562196
0.31114325779703
0.30847400013777
0.31032358980656
0.31252031368398
0.31418993160872
0.31539358266303
0.31636954998492
0.31633846323789
0.31828877944962
0.31936256420875
0.32052088207712
0.32172169875449
0.3228998615686
0.32399353106676
0.32495977557424
0.32578196178665
0.32646833478488
0.32704051871335
0.32752473711181
0.32794452235512
0.32831571438887
0.32864350754614
0.32891946822972
0.65796864930107
0.65633180296815
0.65882647104335
0.65926170377151
0.65970807551869
0.66016392214532
0.66062301011347
0.66107749847329
0.66152058202412
0.66194745266203
0.66235418574265
0.6627377970135
0.66309816320586
0.66344155068254
0.6637670110524
0.66407156203161
0.66435441978858
0.6646161707729
0.66483134603156
0.66494274794278
1
1
1
1
1
1
1
1
1
1
1
1
1
1
1
1
1
1
1
1
1
1
1
1
1
1
1
1
1
1
1
1
1
1
1
1
0.30082683291902
0.31071834167682
0.31268282776443
0.30528958373641
0.34270978890468
0.61717358209445
1
1
1
1
1
1
1
1
1
1
1
1
1
1
1
1
1
1
1
1
1
1
1
1
1
1
1
1
1
1
1
1
1
1
1
1
1
1
1
1
1
1
1
0.87952213008277
0.72905698366315
0.62166458273044
0.54235581132693
0.48121911517265
0.43402620982837
0.39570875172095
0.36519665070622
0.34111986527136
0.32333550626819
0.31217038995009
0.30840124880097
0.31190351651244
0.31605598090803
0.31924359061648
0.32136125764033
0.32281964330545
0.32395692538617
0.32494603219506
0.32585585641512
0.32670520501104
0.32748867452629
0.32819339432319
0.3288086048289
0.32933080347374
0.32976439613149
0.3301198886092
0.33041106033213
0.33065216968739
0.33085570751747
0.33103134218559
0.33118565231498
0.33132209313906
0.33144031593309
0.33153617838015
0.66308146025946
0.66322596792435
0.66337938926895
0.66353818064893
0.66370355413617
0.66387444424614
0.66404729110127
0.6642193515012
0.66439088907215
0.66456035652668
0.66472795273845
0.6648948782072
0.66506111369851
0.66522028251847
0.66537249675821
0.66551755996027
0.66565181295065
0.66576536949693
0.66585173381846
0.66589170086188
1
1
1
1
1
1
1
1
1
1
1
1
1
1
1
1
1
1
1
1
1
1
1
1
1
1
1
1
1
1
1
1
1
1
1
1
0.30081612157022
0.31181609164492
0.31756506424424
0.3139348059686
0.30641726133669
0.36091087560083
0.63201922552784
1
1
1
1
1
1
1
1
1
1
1
1
1
1
1
1
1
1
1
1
1
1
1
1
1
1
1
1
1
1
1
1
1
1
1
1
1
1
1
1
0.97629792051734
0.80381123364325
0.67679023702557
0.58444899033341
0.5135926751528
0.45862015881795
0.41346387920482
0.37748735007574
0.34944739794482
0.32868705202906
0.31513467070118
0.30875474543678
0.31205492123044
0.3176782700518
0.32240397386938
0.32533745925626
0.32703075320185
0.32808468556623
0.32882547644603
0.32940016654357
0.32987185929125
0.33026908482752
0.33060637659588
0.33089076367072
0.33112747171423
0.33132533996106
0.331490093881
0.33162672666482
0.33174316261962
0.33184500184263
0.3319372856127
0.33202143489034
0.33209915808663
0.33217210780558
0.33223995867553
0.33229985400898
0.33234944180907
0.66472358908914
0.66479387678707
0.66486618120183
0.66494607548
0.66503430410876
0.66512947488566
0.66522916143983
0.66533029745307
0.66542812200157
0.66552124787332
0.66560887975594
0.66568964581146
0.66576213585244
0.6658284420319
0.66589606372045
0.6659532065855
0.66600071167547
0.66603937345117
0.66606854188642
0.66608291544242
1
1
1
1
1
1
1
1
1
1
1
1
1
1
1
1
1
1
1
1
1
1
1
1
1
1
1
1
1
1
1
1
1
1
1
1
0.30072251536889
0.31197273957331
0.32036896671142
0.32119153278945
0.31343950218645
0.30883104410105
0.36852792280582
0.60424028668712
1
1
1
1
1
1
1
1
1
1
1
1
1
1
1
1
1
1
1
1
1
1
1
1
1
1
1
1
1
1
1
1
1
1
1
1
1
1
0.86931787573443
0.72678892260882
0.62361161181974
0.5454391956757
0.48488176592572
0.434461208327
0.39378815351408
0.3615397675013
0.33699429589227
0.32000548367993
0.31042489860058
0.3107937072637
0.31697098191887
0.32296362589048
0.32677949760937
0.32879338414239
0.32984447748379
0.33044243764066
0.33083469569128
0.33112939900101
0.33137187792955
0.33157484574217
0.33174867521642
0.3318955445794
0.33202028072945
0.33212661117615
0.33221735431802
0.33229534257181
0.33236252187761
0.33242073935216
0.33247163012575
0.33251654895666
0.33255678666327
0.33259333726278
0.33262686381115
0.33265769470886
0.33268546470588
0.33270892201943
0.66541080484668
0.6654453632702
0.66548348083714
0.66552657269899
0.66557356498834
0.66562235276886
0.66567456257492
0.66572838314294
0.66577884935763
0.66582550613782
0.66586798826938
0.66590614699365
0.66594027876376
0.66597078982306
0.66599794822013
0.66602214796376
0.6660438949543
0.66606340836684
0.66608052848111
0.66609472326489
1
1
1
1
1
1
1
1
1
1
1
1
1
1
1
1
1
1
1
1
1
1
1
1
1
1
1
1
1
1
1
1
1
1
1
1
0.30060899762141
0.31177630301501
0.32114138288893
0.32483132505311
0.32195573122851
0.31290764579861
0.31052689973181
0.36335801250686
0.54710985475245
0.87208555014485
1
1
1
1
1
1
1
1
1
1
1
1
1
1
1
1
1
1
1
1
1
1
1
1
1
1
1
1
1
1
1
1
1
1
0.91655639639201
0.76459825180067
0.65335394897582
0.57062129552746
0.5072166075689
0.4536443399367
0.40983037718861
0.37443930486907
0.34681310038795
0.32666423938468
0.31385576041976
0.30940181535349
0.31472072901335
0.3215340622119
0.32652558565906
0.32916193326196
0.33045287857579
0.33115280643616
0.33158401949192
0.33186368387088
0.33205292143381
0.33218658933063
0.33228500308864
0.33236047359451
0.33242059102725
0.33247014155204
0.33251208658931
0.33254834734921
0.33258021478789
0.33260853813367
0.3326339868282
0.33265716032918
0.33267854282569
0.33269855110553
0.33271753144958
0.33273571921489
0.33275326491464
0.33277035558253
0.33278717332506
0.33280251925899
0.66559924455108
0.66564732994377
0.66567687173972
0.66570803110559
0.66574013779569
0.66577224886169
0.66580370993845
0.66583394686399
0.66586255925529
0.66588956164151
0.66591492518529
0.6659386604101
0.66596092279239
0.66598182763961
0.66600132874875
0.66601945844068
0.66603639441963
0.66605218457445
0.66606674857861
0.66608024968442
1
1
1
1
1
1
1
1
1
1
1
1
1
1
1
1
1
1
1
1
1
1
1
1
1
1
1
1
1
1
1
1
1
1
1
1
0.30049797303833
0.31146836556114
0.32110772882688
0.32663216346781
0.32692328239025
0.322147268562
0.31309795316797
0.30982256885376
0.34872994217731
0.47651741477739
0.7169086101052
1
1
1
1
1
1
1
1
1
1
1
1
1
1
1
1
1
1
1
1
1
1
1
1
1
1
1
1
1
1
1
0.93475872056299
0.78390387640262
0.67448042580327
0.58841136046033
0.52132597448875
0.46702971699265
0.4221837200146
0.38526229147442
0.35572163521359
0.33338661931887
0.31824912425633
0.31010053971784
0.31202833427531
0.31882254076952
0.32505303764222
0.32866620571441
0.33047526708051
0.33148535045116
0.33199378480905
0.33223369118456
0.33235836457428
0.33243306665156
0.33248371541908
0.33252149988699
0.33255179504231
0.33257740759798
0.33259989433295
0.33262018375507
0.33263883662359
0.33265622979549
0.33267297468839
0.33268910663183
0.33270447405775
0.33271926102095
0.33273361486768
0.3327476599462
0.33276148804319
0.33277515333321
0.33278869186132
0.3328021086738
0.33281534694572
0.33282825348581
0.66563034452923
0.6657032624959
0.66572853441151
0.66575386027285
0.66577909136165
0.66580410567042
0.66582870319427
0.66585264502991
0.6658757336927
0.66589779122542
0.66591889304244
0.66593903562867
0.66595821491868
0.66597643370257
0.66599367324242
0.6660099240733
0.66602522696376
0.66603959970731
0.66605297392285
0.66606541941673
1
1
1
1
1
1
1
1
1
1
1
1
1
1
1
1
1
1
1
1
1
1
1
1
1
1
1
1
1
1
1
1
1
1
1
1
0.30039607261878
0.31114765837759
0.32077904498481
0.32707754661635
0.32908723156904
0.32775773520285
0.32275279425512
0.31424063249441
0.30815297590166
0.33191442291074
0.41045261359727
0.57002482284251
0.79735951864585
1
1
1
1
1
1
1
1
1
1
1
1
1
1
1
1
1
1
1
1
1
1
1
1
1
1
1
0.91927748154893
0.78285683641634
0.6742888996691
0.5905330376637
0.52478109202397
0.47176273227676
0.42795650111373
0.39149860655689
0.36171670284781
0.3384987934755
0.3219637016259
0.31189316785766
0.31019260135284
0.31603363549742
0.32278856051632
0.32753261633013
0.33001309964691
0.33143478688272
0.33211156334568
0.33236491483595
0.33246409949719
0.33251253281019
0.33254282106754
0.33256557475079
0.33258470774404
0.33260236407353
0.33261886658378
0.33263437002563
0.33264722554943
0.3326633153773
0.33267703020685
0.33269036038309
0.33270336552052
0.33271609227138
0.33272860048371
0.33274095128227
0.33275319204461
0.33276536281327
0.33277749519227
0.33278960773719
0.33280170950149
0.3328137956351
0.33282584375436
0.33283780453029
0.66569762319815
0.6657213850706
0.66574484172709
0.66576801148032
0.66579088411095
0.66581341751446
0.66583556038767
0.66585723836517
0.66587831020729
0.66589858345654
0.66591792855688
0.66593643150659
0.66595408835832
0.6659708681159
0.66598675925834
0.66600175147158
0.66601582221788
0.66602898365858
0.66604122425815
0.66605261748311
1
1
1
1
1
1
1
1
1
1
1
1
1
1
1
1
1
1
1
1
1
1
1
1
1
1
1
1
1
1
1
1
1
1
1
1
0.30030450890022
0.31084691574299
0.32037506850405
0.32696232133424
0.33000694621761
0.33040076086899
0.32849245946994
0.32395727937611
0.31644695225335
0.30856095501599
0.3182409430418
0.36089188484258
0.45514217801672
0.59941419928451
0.78048791979796
0.96510801323457
1
1
1
1
1
1
1
1
1
1
1
1
1
1
1
1
1
1
1
1
1
0.97149123286807
0.85034209892194
0.74041387752641
0.64998390446788
0.57574394169811
0.51558869354573
0.46628704084186
0.4253660180752
0.39119551909646
0.36299311785995
0.34054899135878
0.32401623028958
0.3133053086649
0.30937616932691
0.31406042908605
0.32054527222215
0.32606965255648
0.32924386396942
0.33105778190433
0.33203420133132
0.33238683943435
0.33249833736521
0.33253949253596
0.3325611684869
0.33257777627978
0.33259233861104
0.3326060388887
0.33261934633941
0.33263241242822
0.3326452778927
0.3326579495188
0.33266781493551
0.33268274433551
0.33269488565148
0.33270687129804
0.33271871426626
0.33273043228035
0.33274205013824
0.33275358835057
0.33276506145348
0.33277648972389
0.33278789740701
0.33279930067547
0.33280785201239
0.33282209321221
0.33283345754917
0.33284476272576
0.66571056623445
0.66573309084467
0.66575527416416
0.6657771211205
0.66579862571045
0.66581974021659
0.66584042201267
0.66586064836036
0.66588034354823
0.66589938824926
0.66591761512315
0.66593490129745
0.6659513059324
0.66596684137212
0.66598151126605
0.66599534543073
0.66600831858111
0.66602041035707
0.66603162722251
0.66604207282797
1
1
1
1
1
1
1
1
1
1
1
1
1
1
1
1
1
1
1
1
1
1
1
1
1
1
1
1
1
1
1
1
1
1
1
1
0.3002228166228
0.31057433656146
0.31997727739817
0.32666269271896
0.33014912291277
0.33128034226055
0.33114725463216
0.32939158166791
0.32562467247956
0.31956339230281
0.31176577375119
0.30926241658707
0.32873025884532
0.37509770329992
0.45491466187578
0.5599781244766
0.68099103901618
0.8113241303583
0.93238266946811
1
1
1
1
1
1
1
1
1
1
1
1
1
1
1
0.92133843293235
0.82994815167109
0.74267650916452
0.66560657979367
0.59879492377567
0.54107120524331
0.49167197543418
0.44951110532291
0.41369794740294
0.38353245518364
0.35852396808929
0.33848899814731
0.32350234190449
0.31348911124015
0.3091684080578
0.31301404429522
0.31906632029187
0.32478674467458
0.32844511170531
0.33053403992654
0.33181401869976
0.33233916893905
0.33250103834725
0.33254974113402
0.332569682784
0.33258279208669
0.33259415163708
0.33260525097842
0.33261647819559
0.33262790286513
0.33263947918379
0.33265113246967
0.33266279580467
0.33267442467821
0.33268599239963
0.33269748210463
0.33270888328085
0.33272019291018
0.33273141492626
0.33274255893083
0.33275363389179
0.33276464091094
0.33277558062668
0.33278646790337
0.33279732749852
0.33280817807602
0.33281902187574
0.33282984933711
0.3328406420027
0.33285137182511
0.66572266518716
0.66574405198532
0.66576512471953
0.66578585697442
0.66580622704307
0.66582620361823
0.66584573167177
0.66586474606031
0.66588320876483
0.66590107062188
0.66591824126167
0.66593457810189
0.66594995660069
0.66596442062835
0.66597801927357
0.66599078822561
0.66600276275977
0.66601389533239
0.6660241987853
0.66603380571802
1
1
1
1
1
1
1
1
1
1
1
1
1
1
1
1
1
1
1
1
1
1
1
1
1
1
1
1
1
1
1
1
1
1
1
1
0.30015001679987
0.31033030207309
0.31960910820381
0.3263296755783
0.33003004643897
0.33153439877445
0.33194129443214
0.33167827414055
0.33037382827994
0.32753824027322
0.32304716641556
0.3163397890008
0.3095405557377
0.31132772135399
0.32959580766605
0.36451754507657
0.41713675694865
0.48208015737301
0.55381845596661
0.62717274884851
0.69970502097891
0.7676983244362
0.82636960939617
0.87266034530478
0.90452418704245
0.92157539644358
0.92475441723482
0.91577200725013
0.8944116290425
0.86203581413141
0.82054382798353
0.77260222642945
0.72095369453011
0.66911305169807
0.61946275826576
0.57217499539999
0.52872996017111
0.48916685734691
0.453364785901
0.4212894320377
0.39303877953805
0.36875909834535
0.34848650114523
0.3322765520041
0.32021364109961
0.31207764310266
0.3091767491598
0.3124534093604
0.31794872807403
0.32363353589489
0.3276253397359
0.32993722887564
0.33146673498312
0.33221895345142
0.33247576132507
0.33255110761556
0.33257522693084
0.33258709463468
0.33259652698824
0.33260575530575
0.33261528495298
0.33262519949042
0.3326354710788
0.33264603099176
0.3326567921629
0.33266767053737
0.33267860019634
0.33268953586861
0.33270044838727
0.33271131882922
0.33272213460332
0.33273288953703
0.33274358345203
0.33275421889386
0.3327647941826
0.33277530158381
0.33278573785856
0.33279611537493
0.33280645683392
0.33281678319063
0.33282710213373
0.33283740610689
0.33284767567329
0.33285788500985
0.66573466190001
0.66575500027443
0.66577505241753
0.66579477744331
0.6658141394105
0.66583310202207
0.66585161958137
0.66586962134662
0.66588703125119
0.66590380692786
0.66591991128497
0.66593528228692
0.66594983492132
0.66596346910723
0.66597618871392
0.66598805472183
0.66599915243615
0.66600944344581
0.66601893118162
0.66602784906456
1
1
1
1
1
1
1
1