/*--------------------------------*- C++ -*----------------------------------*\
| =========                 |                                                 |
| \\      /  F ield         | OpenFOAM: The Open Source CFD Toolbox           |
|  \\    /   O peration     | Version:  2312                                  |
|   \\  /    A nd           | Website:  www.openfoam.com                      |
|    \\/     M anipulation  |                                                 |
\*---------------------------------------------------------------------------*/
FoamFile
{
    version     2.0;
    format      ascii;
    arch        "LSB;label=32;scalar=64";
    class       volScalarField;
    location    "3e-05";
    object      minKappa;
}
// * * * * * * * * * * * * * * * * * * * * * * * * * * * * * * * * * * * * * //

dimensions      [0 0 0 0 0 0 0];

internalField   nonuniform List<scalar> 
109340
(
0.093176140364275
0.093220329348552
0.093505459244059
0.093931044252999
0.09448449270823
0.095165102627509
0.095992668155816
0.096981183214444
0.098169519020881
0.099615115500196
0.10137526717572
0.10351014931228
0.10608655600199
0.10917897934632
0.11286938687866
0.11724737864995
0.12241059518512
0.12846428663878
0.13552130223136
0.14370306902658
0.15313894066026
0.16396621261804
0.17633060033084
0.19038701929357
0.20630086687302
0.22425022354376
0.24442795968841
0.26704587537311
0.29234171066126
0.32063708785608
0.35229789978138
0.38800617098833
0.42898860518854
0.47754982120325
0.53793411695205
0.61813147420881
0.11529404069102
0.11544454481348
0.11586284982474
0.11644226562085
0.11716884689849
0.11804867746634
0.11910224009593
0.12037141946761
0.1219126976656
0.12379096534688
0.12607561189349
0.12884308510066
0.132178421631
0.13617622134051
0.14094061487822
0.14658539042393
0.15323367126283
0.16101836586659
0.17008243791222
0.18057873203541
0.19267039227231
0.20653038439457
0.22225494341578
0.24009573474209
0.26028864168408
0.28305934276905
0.3086527278901
0.33733733294432
0.36941940596465
0.4053065381679
0.4454824512477
0.49085075140636
0.54307792506068
0.60532847992112
0.68364976908722
0.79044718664633
0.11588021332831
0.11607036267485
0.1165407835292
0.11713884436515
0.11785905186346
0.11872204659118
0.11976489743637
0.12103564789993
0.12258320687698
0.12446843247432
0.12676089048427
0.12953788878679
0.13283028714204
0.13676307540992
0.14145504850764
0.14701989759573
0.15358096403183
0.16127143426321
0.17023501191644
0.1806257332582
0.1926088626294
0.20635967302549
0.22206416018175
0.23992050354434
0.26014063986107
0.28295335042248
0.30860725278551
0.33737355469126
0.36957039706517
0.4055819228584
0.44591447920302
0.49146722551244
0.5439292230234
0.60658561810967
0.6860592726996
0.79779751528539
0.1157923127707
0.11609503388617
0.11662092782377
0.11724136762056
0.1179584037548
0.11882063172768
0.11986490651966
0.12113342706905
0.122644057947
0.12447927922418
0.12671120916342
0.12941667824835
0.132681399249
0.13660063244021
0.14127961639628
0.14683378141702
0.1533883487924
0.1610790053776
0.17005303969062
0.1804682417146
0.19249590740599
0.20631718951978
0.22212514224793
0.24012556537258
0.26053916864392
0.2836048456125
0.30958167268538
0.33875422951124
0.37145553595856
0.40806022371559
0.44909684169922
0.49547096550624
0.54890485759953
0.61284308270877
0.69469059036387
0.81508708879539
0.11546083469256
0.11593739468321
0.116538447588
0.11717245350347
0.11788350294435
0.11872045959183
0.11973262427994
0.12097294200534
0.12250059878524
0.12432022098747
0.12653925395073
0.12923974985325
0.13251197712288
0.13645762870038
0.14119044705254
0.14683698680212
0.15353659034068
0.16144209745735
0.17072540496848
0.18156256708411
0.19415633841257
0.20871647696519
0.22547079159228
0.24466349069368
0.2665565216265
0.29143325833088
0.3191954698789
0.35046333914597
0.38559968169558
0.42502889628406
0.46930732433586
0.51944911760027
0.57738032775331
0.64706538594036
0.73775726202017
0.87034975722285
0.11494267854875
0.11588778906188
0.1165533260884
0.11720731423558
0.11794406066448
0.11881779098947
0.11990112102072
0.12126349753024
0.12298373546636
0.1251549508447
0.12788496571238
0.13129884629469
0.13554016029302
0.14077203480982
0.14717731351576
0.15495770952975
0.16433133901212
0.17552643792277
0.18877055386887
0.20437216616903
0.22261697805936
0.24380410329048
0.26824440602126
0.29625916451267
0.32817674099691
0.36433000115865
0.40505800726749
0.45068681449701
0.50153566907019
0.55792460938391
0.62017565262474
0.68906017103148
0.76618464966151
0.75818360532738
0.86412239992097
1
0.7312334793431
0.88740588007765
1
1
1
1
1
1
1
1
1
1
1
1
1
1
1
1
1
1
1
1
1
1
1
1
1
1
1
1
1
1
1
1
1
1
1
1
1
1
1
1
1
1
0.97406990403739
0.97577486431253
0.98005854235425
0.98216812140814
0.98236078006005
0.98244376525305
0.98235962564372
0.98253044204979
0.98267717093963
0.98279560451252
0.9828917828425
0.98296720647344
0.98302272065559
0.98300991796432
0.98295541743345
0.98293343117034
0.98288282720986
0.98278485517736
0.98266315857991
0.9825746350399
0.9825297590707
0.98247747536268
0.98223436575153
0.98194065281514
0.98155611549618
0.98110468189299
0.98075440691491
0.98008464067596
0.9792567420173
0.97822665674169
0.97658751567586
0.97500139461537
0.97445471061192
0.97363824027479
0.97297015214653
0.97245326510126
0.97197261192169
0.97158645045298
0.97155175498573
0.97143175699111
1
1
1
1
1
1
1
1
1
1
1
1
1
1
1
1
1
1
1
1
1
1
1
1
1
1
1
1
1
1
1
1
1
1
1
1
1
1
1
1
1
1
1
1
1
0.85730640045273
0.65001685704467
0.58920840868641
0.58791822054755
0.59034779773057
0.59107426167244
0.59140175258632
0.59161821746161
0.59180304020655
0.59198088345494
0.59215653475644
0.94935399342422
1
1
1
1
1
1
1
1
1
1
1
1
1
1
1
1
1
1
1
1
1
1
1
1
1
1
1
1
1
1
1
1
1
1
1
1
1
1
1
1
1
1
1
1
1
1
1
1
1
1
1
1
1
1
1
1
1
1
1
1
1
1
1
1
1
1
1
1
1
1
1
1
1
1
1
1
1
1
1
1
1
1
1
1
1
1
1
1
1
1
1
1
1
1
1
1
1
1
1
1
1
1
1
1
1
1
1
1
1
1
1
1
1
1
1
1
1
1
1
1
1
1
1
1
1
1
1
1
0.85730640045273
0.65001685704467
0.58920840868641
0.58791822054755
0.59034779773057
0.59107426167244
0.59140175258632
0.59161821746161
0.59180304020655
0.59198088345494
0.59215653475644
0.98028903645985
1
1
1
1
1
1
1
1
1
1
1
1
1
1
1
1
1
1
1
1
1
1
1
1
1
1
1
1
1
1
1
1
1
1
1
1
1
1
1
1
1
1
1
1
1
1
1
1
1
1
1
1
1
1
1
1
1
1
1
1
1
1
1
1
1
1
1
1
1
1
1
1
1
1
1
1
1
1
1
1
1
1
1
1
1
1
1
1
1
1
1
1
1
1
1
1
1
1
1
1
1
1
1
1
1
1
1
1
1
1
1
1
1
1
1
1
1
1
1
1
1
1
1
1
1
1
1
1
0.88912960122687
0.69533251986368
0.64671242513882
0.6468355136858
0.64944196797241
0.6501986725211
0.65054793266374
0.65078313827508
0.65098529367073
0.65117888643501
0.65137274062376
1
1
1
1
1
1
1
1
1
1
1
1
1
1
1
1
1
1
1
1
1
1
1
1
1
1
1
1
1
1
1
1
1
1
1
1
1
1
1
1
1
1
1
1
1
1
1
1
1
1
1
1
1
1
1
1
1
1
1
1
1
1
1
1
1
1
1
1
1
1
1
1
1
1
1
1
1
1
1
1
1
1
1
1
1
1
1
1
1
1
1
1
1
1
1
1
1
1
1
1
1
1
1
1
1
1
1
1
1
1
1
1
1
1
1
1
1
1
1
1
1
1
1
1
1
1
1
1
1
0.83760811695897
0.67918809725787
0.65307763115716
0.65552730609317
0.65798974353024
0.65868239891846
0.65901428212956
0.65924549945483
0.65944678657589
0.65963753434716
0.65983242437185
1
1
1
1
1
1
1
1
1
1
1
1
1
1
1
1
1
1
1
1
1
1
1
1
1
1
1
1
1
1
1
1
1
1
1
1
1
1
1
1
1
1
1
1
1
1
1
1
1
1
1
1
1
1
1
1
1
1
1
1
1
1
1
1
1
1
1
1
1
1
1
1
1
1
1
1
1
1
1
1
1
1
1
1
1
1
1
1
1
1
1
1
1
1
1
1
1
1
1
1
1
1
1
1
1
1
1
1
1
1
1
1
1
1
1
1
1
1
1
1
1
1
1
1
1
1
1
1
0.98912192199907
0.77961145133548
0.66565477891651
0.65435637177314
0.65875895574239
0.66093755807911
0.66155831370241
0.66185640817441
0.66207808165403
0.66227406980796
0.66245978224075
0.66265163539916
1
1
1
1
1
1
1
1
1
1
1
1
1
1
1
1
1
1
1
1
1
1
1
1
1
1
1
1
1
1
1
1
1
1
1
1
1
1
1
1
1
1
1
1
1
1
1
1
1
1
1
1
1
1
1
1
1
1
1
1
1
1
1
1
1
1
1
1
1
1
1
1
1
1
1
1
1
1
1
1
1
1
1
1
1
1
1
1
1
1
1
1
1
1
1
1
1
1
1
1
1
1
1
1
1
1
1
1
1
1
1
1
1
1
1
1
1
1
1
1
1
1
1
1
1
1
1
1
0.98912192199907
0.77961145133548
0.66565477891651
0.65534562834632
0.66062080593313
0.66236676749882
0.66290642037349
0.66316623537797
0.6633768252801
0.66356537756124
0.66374566310579
0.66393305981399
1
1
1
1
1
1
1
1
1
1
1
1
1
1
1
1
1
1
1
1
1
1
1
1
1
1
1
1
1
1
1
1
1
1
1
1
1
1
1
1
1
1
1
1
1
1
1
1
1
1
1
1
1
1
1
1
1
1
1
1
1
1
1
1
1
1
1
1
1
1
1
1
1
1
1
1
1
1
1
1
1
1
1
1
1
1
1
1
1
1
1
1
1
1
1
1
1
1
1
1
1
1
1
1
1
1
1
1
1
1
1
1
1
1
1
1
1
1
1
1
1
1
1
1
1
1
1
1
1
1
1
1
1
1
1
1
1
1
1
1
1
1
1
1
1
1
1
1
1
1
1
1
1
1
1
1
1
1
1
1
1
1
1
1
1
1
1
1
1
1
1
1
1
1
1
1
1
1
1
1
1
1
1
1
1
1
1
1
1
1
1
1
1
1
1
1
1
1
1
1
1
1
1
1
1
1
1
1
1
1
1
1
1
1
1
1
1
1
1
1
1
1
1
1
1
1
1
1
1
1
1
1
1
1
1
1
1
1
1
1
1
1
1
1
1
1
1
1
1
1
1
1
1
1
1
1
1
1
1
1
1
1
1
1
1
1
1
1
1
1
1
1
1
1
1
1
1
1
1
1
1
1
1
1
1
1
1
1
1
1
1
1
1
1
1
1
1
1
1
1
1
1
1
1
1
1
1
1
1
1
1
1
1
1
1
1
1
1
1
1
1
1
1
1
1
1
1
1
1
1
1
1
1
1
1
1
1
1
1
1
1
1
1
1
1
1
1
1
1
1
1
1
1
1
1
1
1
1
1
0.98979473785742
0.96905477527473
0.95475722187593
0.94423602960814
0.93369568231975
1
1
1
1
1
1
1
1
1
1
1
1
1
1
1
1
1
1
1
1
1
1
1
1
1
1
1
1
1
1
1
1
1
1
1
1
1
1
1
1
1
1
1
1
1
1
1
1
1
1
1
1
1
1
1
1
1
1
1
1
1
1
1
1
1
1
1
1
1
1
1
1
1
1
1
1
1
1
1
1
1
1
1
1
1
1
1
1
1
1
1
1
1
1
1
1
1
1
1
1
1
1
1
1
1
1
1
1
1
1
1
1
1
1
1
1
1
1
1
1
1
1
1
1
1
1
1
1
1
1
0.99093866102779
0.9420461662846
0.89294098608637
0.84641266067608
0.8050114133261
0.77219256081916
0.75418341817892
0.74098031273577
0.7312816612995
0.72227109506013
1
1
1
1
1
1
1
1
1
1
1
1
1
1
1
1
1
1
0.99380683101885
0.96856763506011
1
1
1
1
1
1
1
1
1
1
1
1
1
1
1
1
1
1
1
1
1
1
1
1
1
1
1
1
1
1
1
1
1
1
1
1
0.59794523417633
1
1
1
1
1
1
1
1
1
1
1
1
1
1
1
1
1
1
1
1
1
1
1
1
1
1
1
1
1
1
1
1
1
1
1
1
1
1
1
1
1
1
1
1
1
1
1
1
1
1
1
1
1
1
1
1
1
1
1
1
1
1
1
1
1
1
1
0.98084476902135
0.95187199331782
0.92021091340127
0.88572506785977
0.84882156137688
0.81054681819534
0.77227518315477
0.73539284158562
0.70104380962116
0.66985606938853
0.6435690611212
0.62560226144954
0.61059299581744
0.60036523588277
0.5927576187089
0.58610400776063
0.94403106056026
1
1
1
1
1
1
1
1
1
0.99031290456448
0.97184353819573
0.9535507170111
0.93545209045753
0.91763155700087
0.90027852338365
0.88365100220395
0.86835199655431
0.85427690878824
0.84096857878676
1
1
1
1
1
1
1
1
1
1
1
1
1
1
1
1
1
1
1
1
1
1
1
1
1
1
1
1
1
1
1
1
1
1
1
1
0.5001105863784
1
1
1
1
1
1
1
1
1
1
1
1
1
1
1
1
1
1
1
1
1
1
1
1
1
1
1
1
1
1
1
1
1
1
1
1
1
1
1
1
1
1
1
1
1
1
1
1
1
1
1
1
1
1
1
1
1
1
1
1
1
0.97259299011685
0.9223169934137
0.88221274039358
0.84956411894848
0.82163269678521
0.79616619824993
0.77155181581497
0.74667397381264
0.72100033741443
0.69423494758702
0.66702245403922
0.64049087920617
0.61500783049319
0.59120821422103
0.5695340962949
0.55029945236766
0.5355138780534
0.52176948177288
0.51113995077584
0.50314190578507
0.49688209826938
0.49143824163568
0.79018888860263
0.96705017036714
0.95584129159052
0.98202489202791
0.93105882067066
0.91760797385633
0.90368288012921
0.88953037423765
0.87538851702629
0.86143870787726
0.847832205232
0.8347833219702
0.82247678532307
0.81080518566902
0.79987601930751
0.78981650783924
0.78075688015156
0.77281693898173
0.76609320667938
0.76037569447244
1
1
1
1
1
1
1
1
1
1
1
1
1
1
1
1
1
1
1
1
1
1
1
1
1
1
1
1
1
1
1
1
1
1
1
1
0.37733304311706
1
1
1
1
1
1
1
1
1
1
1
1
1
1
1
1
1
1
1
1
1
1
1
1
1
1
1
1
1
1
1
1
1
1
1
1
1
1
1
1
1
1
1
1
1
1
1
1
1
1
1
1
1
1
1
1
1
1
1
0.92689557015504
0.83868948218901
0.78078037012241
0.73899902057119
0.70667943812221
0.68251805428669
0.65996720509008
0.63928482392204
0.61924153213934
0.59946483183381
0.57985297922741
0.56060854650362
0.54205109586928
0.52446787787893
0.50806007665262
0.49293027479114
0.47911036093716
0.4666089453802
0.45550907494047
0.44596722828525
0.43808274637828
0.43173880378902
0.4265833761166
0.42213196702608
0.67726128541004
0.83107904381401
0.82280550583068
0.81417908188192
0.80520388432405
0.79599436464597
0.78657572296023
0.77713016285893
0.76786822787862
0.75898864646801
0.75063141136392
0.74289594543353
0.73585598729464
0.72957189402042
0.72409895070647
0.71948755208726
0.71577786942594
0.7129963712723
0.71114306285885
0.71008865602626
1
1
1
1
1
1
1
1
1
1
1
1
1
1
1
1
1
1
1
1
1
1
1
1
1
1
1
1
1
1
1
1
1
1
1
1
0.31826288647041
0.85111618160606
1
1
1
1
1
1
1
1
1
1
1
1
1
1
1
1
1
1
1
1
1
1
1
1
1
1
1
1
1
1
1
1
1
1
1
1
1
1
1
1
1
1
1
1
1
1
1
1
1
1
1
1
1
1
1
1
1
0.87182575029282
0.76183592004713
0.68873455374758
0.64077516707572
0.6060748910028
0.58093132689399
0.55837370308634
0.53873139728718
0.52102100204338
0.50472809433565
0.48965547272912
0.47577996053446
0.46308680470658
0.45148079001778
0.44079807908931
0.4308530748762
0.42149074913748
0.41262047842302
0.40425789094775
0.39655772569557
0.38973203703396
0.38395132098753
0.37923671876219
0.37542971443357
0.37223685984395
0.59549019030211
0.73539444107167
0.73005037542085
0.7246013449439
0.71901117042801
0.71333456319042
0.70768925962079
0.70223268091706
0.69712353828332
0.69247857119284
0.68837510795345
0.68485625523366
0.68194093972759
0.67963259659337
0.67792375761861
0.67679706678158
0.67622633284757
0.67617900005715
0.67660442707627
0.67739637294365
1
1
1
1
1
1
1
1
1
1
1
1
1
1
1
1
1
1
1
1
1
1
1
1
1
1
1
1
1
1
1
1
1
1
1
1
0.29769911843592
0.44159696821172
1
1
1
1
1
1
1
1
1
1
1
1
1
1
1
1
1
1
1
1
1
1
1
1
1
1
1
1
1
1
1
1
1
1
1
1
1
1
1
1
1
1
1
1
1
1
1
1
1
1
1
1
1
1
1
0.93822498806895
0.81275897950401
0.71134162954514
0.63449744884476
0.5782806860616
0.53725798844926
0.50623306573872
0.48312806075374
0.46306322961763
0.44637324392766
0.43242915704995
0.42077362724244
0.41102101625378
0.40280131513148
0.39565854356717
0.38919666997513
0.38308852972558
0.37711548500309
0.37117245055305
0.36528362155794
0.35959743677597
0.35435719602237
0.34979455885059
0.34604954428048
0.34311374171768
0.34084254155004
0.33900805404702
0.54041037084301
0.67327646860652
0.67040785371973
0.6675573019516
0.66473821659633
0.66201423297194
0.65947649228214
0.65721130796859
0.65528189699354
0.65372121716106
0.65253516332738
0.65170907105731
0.65120200373152
0.65090275835726
0.65090844000804
0.65117052189476
0.65163695796899
0.65217051312601
0.65271001507024
0.65324850808551
1
1
1
1
1
1
1
1
1
1
1
1
1
1
1
1
1
1
1
1
1
1
1
1
1
1
1
1
1
1
1
1
1
1
1
1
0.29317668513536
0.32653176514698
0.91025470132049
1
1
1
1
1
1
1
1
1
1
1
1
1
1
1
1
1
1
1
1
1
1
1
1
1
1
1
1
1
1
1
1
1
1
1
1
1
1
1
1
1
1
1
1
1
1
1
1
1
1
1
1
0.97835332758904
0.85219556646581
0.74601242500446
0.65988505925979
0.59083920362989
0.53504108474071
0.4903451474762
0.45512269500314
0.42871375346838
0.40748369206844
0.3913401308862
0.37936405707423
0.37059090928627
0.36414478608962
0.35925507570294
0.35529133023925
0.35176568709401
0.34833811476407
0.34480963086086
0.3411125756979
0.33730843638133
0.33356001307402
0.3300902883087
0.3271011905161
0.32471514296992
0.32294074412905
0.32167919111312
0.32077829935566
0.32007888578928
0.50821159071314
0.63874072291855
0.63758971385678
0.63650546512414
0.63552360254797
0.63468978185563
0.63404164581493
0.63369863068541
0.63366280693862
0.63377837642868
0.63400663839738
0.63431006674974
0.63464820271581
0.63497575596924
0.63524699892492
0.6354198847537
0.63545589636643
0.63533889506826
0.63509891794531
0.63490104764002
1
1
1
1
1
1
1
1
1
1
1
1
1
1
1
1
1
1
1
1
1
1
1
1
1
1
1
1
1
1
1
1
1
1
1
1
0.29471158011922
0.29791747143686
0.44705146826679
1
1
1
1
1
1
1
1
1
1
1
1
1
1
1
1
1
1
1
1
1
1
1
1
1
1
1
1
1
1
1
1
1
1
1
1
1
1
1
1
1
1
1
1
1
1
1
1
1
1
1
0.87674602480524
0.76284828536188
0.6762561643934
0.6065201549339
0.54783190672787
0.4976150556914
0.4546497142477
0.41857965985598
0.39043124278663
0.36864999425884
0.35336196116247
0.34333819000531
0.33710444511774
0.33328442367151
0.33082011622771
0.32899414096341
0.32735708508569
0.32565996095687
0.32379237666202
0.3217553083514
0.3196492350915
0.31762608587634
0.31578943309862
0.31427786175376
0.31330968072638
0.31274513485024
0.31248009725834
0.31239590778664
0.31239401168486
0.31241407832598
0.49453843023674
0.62461378406296
0.62488798790324
0.62524144819645
0.62567610737037
0.62618139154223
0.62673598505005
0.62731382641712
0.62788791622266
0.6284341343157
0.62893532776488
0.62938093547828
0.62976922273715
0.63010719909909
0.63041216094253
0.63071162994595
0.63099977734399
0.63080346336472
0.6305835601329
0.63062044827073
1
1
1
1
1
1
1
1
1
1
1
1
1
1
1
1
1
1
1
1
1
1
1
1
1
1
1
1
1
1
1
1
1
1
1
1
0.29682878739294
0.29626313041287
0.32205931824899
0.68113508071231
1
1
1
1
1
1
1
1
1
1
1
1
1
1
1
1
1
1
1
1
1
1
1
1
1
1
1
1
1
1
1
1
1
1
1
1
1
1
1
1
1
1
1
1
1
1
1
1
0.98415308257771
0.81198741459119
0.69400740147118
0.6157187163623
0.55584268126501
0.50583035977664
0.46218340931922
0.42454362061656
0.39088078243765
0.36322254055135
0.34268135133801
0.32926879442746
0.32169758265354
0.31796574060669
0.31613813814346
0.31532642053078
0.31480969186577
0.31427463268835
0.31362647408654
0.31287172333483
0.31208705096848
0.31138674358822
0.31089405066772
0.31069399206091
0.3108060682082
0.31083350836342
0.31107384117334
0.31145697503297
0.31188499937293
0.31229523081313
0.31266341488086
0.31300191742126
0.49544281129056
0.62502978050733
0.62572135714544
0.62645494522251
0.62721913292754
0.62799723884273
0.62877245324431
0.62953224371606
0.63026889941069
0.63098204918666
0.63168089165414
0.63238501662318
0.63312424777479
0.63393858023264
0.63487874609658
0.63600545219477
0.63737388206226
0.63897913571552
0.64076487934665
0.64275504304144
1
1
1
1
1
1
1
1
1
1
1
1
1
1
1
1
1
1
1
1
1
1
1
1
1
1
1
1
1
1
1
1
1
1
1
1
0.29762706375415
0.30089633432129
0.30065111397842
0.37245541264236
0.87961850169004
1
1
1
1
1
1
1
1
1
1
1
1
1
1
1
1
1
1
1
1
1
1
1
1
1
1
1
1
1
1
1
1
1
1
1
1
1
1
1
1
1
1
1
1
1
1
0.94142951753879
0.77459755609024
0.6559335518257
0.57432432594775
0.51518527466525
0.46993008984926
0.43077892318716
0.39667961553927
0.3671432752136
0.34304888453384
0.32574594162628
0.31555836097671
0.31081033495555
0.30974022517037
0.31001655109148
0.3105321382371
0.31093468506789
0.31108260998682
0.31109540498499
0.31109778927637
0.31118665284871
0.31145457339499
0.3119645046093
0.31272430077025
0.31368127812513
0.31474053602419
0.31578595716421
0.31673399085103
0.31756366780317
0.31826699364638
0.31887645931756
0.31941870887308
0.31992401445318
0.5056789066911
0.63766803730077
0.63875069982665
0.6397296897248
0.64070304283878
0.64168661721691
0.64269122206827
0.64372407703711
0.64478973203901
0.64589284229473
0.64703862324886
0.64823082277056
0.64946935543556
0.65075327049005
0.65207853236945
0.65343612218284
0.65480472957841
0.65612308547872
0.65727189275602
0.65807118314746
1
1
1
1
1
1
1
1
1
1
1
1
1
1
1
1
1
1
1
1
1
1
1
1
1
1
1
1
1
1
1
1
1
1
1
1
0.29795052029784
0.30628011832115
0.3030050567895
0.30906122897893
0.44057675693356
0.9789128400293
1
1
1
1
1
1
1
1
1
1
1
1
1
1
1
1
1
1
1
1
1
1
1
1
1
1
1
1
1
1
1
1
1
1
1
1
1
1
1
1
1
1
1
1
0.88562422774111
0.73275734827403
0.62437518432498
0.54558995120848
0.4860799297511
0.44084681063519
0.40368769727585
0.37299665446255
0.34765238958427
0.3280699778318
0.31524550249296
0.30893526209794
0.30833252217216
0.3090932974564
0.31084301732251
0.31235988598018
0.31347302094345
0.3143509312033
0.31516907079275
0.31603940896715
0.31701410688346
0.31810887276997
0.31930025611515
0.32053774484972
0.32174777460993
0.3228613387231
0.32383713904615
0.32466472597042
0.32535785312854
0.32594295899352
0.32644813030354
0.32689482006853
0.32729277690007
0.32763686468886
0.51802329798024
0.6531485609366
0.65383179432083
0.6545093374313
0.65519695947719
0.65590035225188
0.65661650763315
0.65733715035681
0.65805327592776
0.6587569785836
0.65944132682498
0.66010098772285
0.66073530505376
0.66134054450147
0.66191122103126
0.6624419681733
0.6629280907195
0.66336399842879
0.66370755210249
0.66389400073525
1
1
1
1
1
1
1
1
1
1
1
1
1
1
1
1
1
1
1
1
1
1
1
1
1
1
1
1
1
1
1
1
1
1
1
1
0.2979901085726
0.30866317217052
0.31090478806931
0.30419433437147
0.32029457788423
0.49810103641765
1
1
1
1
1
1
1
1
1
1
1
1
1
1
1
1
1
1
1
1
1
1
1
1
1
1
1
1
1
1
1
1
1
1
1
1
1
1
1
1
1
1
0.99903132110839
0.820277826651
0.68692644762931
0.59124213482934
0.51890427344677
0.46239070019592
0.41840713100346
0.38265435970602
0.35443657188448
0.33279337776494
0.31779646648375
0.30949632839549
0.30806545602321
0.30971267043074
0.31354229922408
0.31680379040774
0.31909883676892
0.3206828074227
0.32190414450594
0.3229722488502
0.32398147065569
0.32495891308906
0.32589518078917
0.32676775372792
0.32755293304765
0.32823530252962
0.32881092903683
0.32928680318654
0.32967715245822
0.32999897951868
0.33026856743407
0.33049947784165
0.33070139147051
0.33087927075488
0.33103291763379
0.33115651779568
0.52356286375449
0.66152687966563
0.66177693953624
0.66203600650097
0.66230369684267
0.66257701682815
0.66285023874065
0.66311830535634
0.66338076547823
0.66363498451684
0.6638789687205
0.66411124614014
0.66433218044598
0.66454739539898
0.66475862681887
0.6649666085056
0.66516948626452
0.66535243585076
0.66550027178286
0.66557058403209
1
1
1
1
1
1
1
1
1
1
1
1
1
1
1
1
1
1
1
1
1
1
1
1
1
1
1
1
1
1
1
1
1
1
1
1
0.29798797077441
0.30924698729037
0.31666884997927
0.31157666416545
0.30571775873276
0.33262998914964
0.52001889281422
0.9625215606963
1
1
1
1
1
1
1
1
1
1
1
1
1
1
1
1
1
1
1
1
1
1
1
1
1
1
1
1
1
1
1
1
1
1
1
1
1
1
1
0.90459674615578
0.75053857286443
0.63898659654375
0.55609517544267
0.49137101447353
0.44067331758236
0.39892606349742
0.36582825143721
0.34043116315609
0.32239352183709
0.31148834136112
0.30847977259325
0.30977359490602
0.31486247662341
0.3198993266129
0.32342239520598
0.32552793538564
0.32683734802234
0.32775354055946
0.32846773140853
0.32906183787092
0.3295704039103
0.3300079528708
0.33038135753485
0.33069617696658
0.33095871200747
0.33117502751863
0.33135161045062
0.33149876975608
0.33162334834252
0.33173012009921
0.33182536787471
0.33191260800637
0.33199389957381
0.33206957395459
0.33213688890167
0.33219360872678
0.52503168311189
0.66417547975617
0.66427906102373
0.66438726403206
0.66450267054723
0.66462565818399
0.66475477469186
0.66488799325807
0.66501992795937
0.66514918704728
0.66527581109836
0.66539972472069
0.66551882998225
0.66562758766828
0.66572538575667
0.66581098443904
0.66588340249992
0.66594264033662
0.66598754392883
0.66601189412523
1
1
1
1
1
1
1
1
1
1
1
1
1
1
1
1
1
1
1
1
1
1
1
1
1
1
1
1
1
1
1
1
1
1
1
1
0.29794376355361
0.30923929653487
0.31884523963955
0.31974234057564
0.31092603737105
0.3066706392759
0.33970590133951
0.50689229948014
0.87351474219123
1
1
1
1
1
1
1
1
1
1
1
1
1
1
1
1
1
1
1
1
1
1
1
1
1
1
1
1
1
1
1
1
1
1
1
1
0.97273018230379
0.80460831927182
0.6806319096493
0.58985920171993
0.51930305034761
0.46395914167869
0.41766109550976
0.38039134030473
0.35116924718595
0.32953367158904
0.31545157621102
0.30902368159786
0.30914744118672
0.31418800939053
0.32040413716321
0.32508400924621
0.32771437291124
0.32910659011782
0.32989267003517
0.33039265957211
0.33075356064432
0.33103634930774
0.33127229261299
0.33147522973473
0.3316489620975
0.33179837872632
0.33192857911119
0.33204058435031
0.33213773520791
0.33222240785937
0.33229613412224
0.33236085667224
0.33241796653882
0.33246886743914
0.33251478715948
0.33255652260714
0.3325944579985
0.33262812894545
0.33265602500085
0.52569628550675
0.66520709191251
0.66525793853343
0.66531658902647
0.66538201238528
0.6654514454935
0.66552175742182
0.66559023149037
0.66565514231789
0.66571567156515
0.6657712435694
0.66582129499843
0.66586575720489
0.66590507507814
0.66593956879815
0.6659696218053
0.66599590286551
0.6660188907407
0.66603875416904
0.66605411564437
1
1
1
1
1
1
1
1
1
1
1
1
1
1
1
1
1
1
1
1
1
1
1
1
1
1
1
1
1
1
1
1
1
1
1
1
0.29788889743983
0.30901976757466
0.31917551800792
0.32419422531375
0.32008646896059
0.31052200213095
0.30754013210087
0.33790786782031
0.46854742333189
0.74998304119875
1
1
1
1
1
1
1
1
1
1
1
1
1
1
1
1
1
1
1
1
1
1
1
1
1
1
1
1
1
1
1
1
1
1
0.84236822626539
0.71038100950364
0.61434505704521
0.54306243842945
0.48331520614838
0.43443141095727
0.39441339394192
0.36238334961049
0.33788518357235
0.32079755718333
0.31094269131213
0.30896978253858
0.31209700828934
0.31879684611341
0.32471400932524
0.32815286367075
0.32986735964899
0.33073158458627
0.33123830237706
0.33157983123018
0.33182312063294
0.33200121935477
0.3321348357229
0.33223776652988
0.33231930879104
0.33238576056389
0.33244120714291
0.33248837607726
0.33252915111816
0.33256479466668
0.33259627962081
0.33262445699072
0.33265001148977
0.33267353052583
0.3326955123542
0.3327163057261
0.33273613506154
0.33275510168411
0.33277302709261
0.33278929735075
0.52589001604009
0.66556656575808
0.6655979868027
0.66563198596608
0.66566784896853
0.66570435997452
0.66574040805165
0.66577514692173
0.66580794145482
0.66583870672296
0.66586737471371
0.66589391123007
0.66591848600154
0.66594131315629
0.66596278440105
0.66598056453456
0.6659968557758
0.66601223556497
0.6660267748875
0.66604015987606
1
1
1
1
1
1
1
1
1
1
1
1
1
1
1
1
1
1
1
1
1
1
1
1
1
1
1
1
1
1
1
1
1
1
1
1
0.29783475518683
0.30874534830204
0.31898146589318
0.32576200118185
0.32600700921358
0.32010281784899
0.31066621793319
0.30753570142642
0.32951435058981
0.4194264647085
0.61376128279786
0.88955157950831
1
1
1
1
1
1
1
1
1
1
1
1
1
1
1
1
1
1
1
1
1
1
1
1
1
1
1
1
1
1
0.86105143889233
0.72894680226742
0.6304768459354
0.55483854892943
0.49484204903104
0.44567821059453
0.40491504663443
0.37157074161721
0.34533742827404
0.32618288991235
0.31394860432763
0.30914421016137
0.31005505239338
0.31602570030647
0.3228600558547
0.32747586986831
0.32982023782903
0.33104399437469
0.33172282185382
0.33206738543283
0.33224903053854
0.33235606763146
0.33242647254452
0.33247711539218
0.33251625162968
0.33254825279669
0.33257555596754
0.33259960862764
0.33262127905253
0.33264113444521
0.33265955642817
0.33267679485772
0.33269307512638
0.33270861903584
0.33272360581244
0.33273818712834
0.33275248001344
0.3327665559289
0.33278046138282
0.33279421165321
0.33280775163627
0.3328209117109
0.52594659976125
0.66565594875279
0.66568191279978
0.66570820967938
0.66573465558619
0.66576098992028
0.66578695326276
0.66581221874223
0.66583654091449
0.66585973463146
0.66588186775101
0.66590315842223
0.66592265186192
0.66594059890185
0.66595773179472
0.66597389959287
0.66598911412515
0.6660034073052
0.66601675040894
0.6660290580519
1
1
1
1
1
1
1
1
1
1
1
1
1
1
1
1
1
1
1
1
1
1
1
1
1
1
1
1
1
1
1
1
1
1
1
1
0.29778478995613
0.3084741225325
0.3186095577147
0.32589545337444
0.32872540131275
0.32668236355039
0.32065608275834
0.31162323837027
0.30743500560632
0.31957428170423
0.37271404274395
0.49594523070973
0.68691278694755
0.91776681101163
1
1
1
1
1
1
1
1
1
1
1
1
1
1
1
1
1
1
1
1
1
1
1
1
1
0.97721138369367
0.83846658089123
0.71968131640382
0.62722774379293
0.55433866296242
0.49627014505897
0.44877729141735
0.40927633092337
0.37652430509357
0.3501404045449
0.33019014974945
0.31680441367064
0.30980185025134
0.30917631660437
0.31335625608182
0.32016708983643
0.3259688387042
0.32920001182166
0.33092031674151
0.33186166694506
0.3322519298535
0.33240589131228
0.33247721110177
0.33251854850076
0.33254744200035
0.33257036831931
0.33259005655281
0.33260778558811
0.33262420118059
0.33263966869099
0.33265441711737
0.33266859291078
0.33268230581152
0.33269563372194
0.33270863219979
0.33272136811552
0.33273391314417
0.33274632376975
0.33275864648919
0.33277091818128
0.33278316043337
0.33279538547953
0.33280759135684
0.33282192725527
0.33283182966231
0.52597582335356
0.6656830256343
0.66570693472687
0.6657306071652
0.66575402717346
0.66577715049987
0.66579990555704
0.66582219469105
0.66584387750803
0.66586475879764
0.6658847673895
0.66590376814226
0.66592167032335
0.66593835109483
0.66595414716663
0.66596907070813
0.66598308835024
0.66599619776686
0.66600840128357
0.66601965888445
1
1
1
1
1
1
1
1
1
1
1
1
1
1
1
1
1
1
1
1
1
1
1
1
1
1
1
1
1
1
1
1
1
1
1
1
0.29773972149768
0.30822414107915
0.3182075958052
0.32565325759757
0.32955128247235
0.32996375781254
0.32736342523396
0.32196120489397
0.31360799898464
0.30743920702107
0.31113440324375
0.33887213012015
0.40688920849441
0.52313794813444
0.67542877907458
0.84842360414816
1
1
1
1
1
1
1
1
1
1
1
1
1
1
1
1
1
1
1
1
0.9982606476381
0.88238105956751
0.77324792812284
0.67973492723391
0.60248739778711
0.53859261059181
0.48600336285699
0.44235874952385
0.40588459851884
0.3755088130155
0.35073538264671
0.33157208368926
0.31820976832627
0.31046058270904
0.3090850604295
0.31145135586277
0.31770589943916
0.32406068719913
0.32819260994696
0.33041059852106
0.33172235896315
0.33227301208571
0.33245451561467
0.33251807619801
0.33254776129313
0.33256715853788
0.33258300943272
0.33259746079355
0.3326112678187
0.33262470231638
0.33263785943386
0.33265077151398
0.33266345992997
0.33267594330102
0.33268823665541
0.33270035659749
0.33271231918031
0.33272414288929
0.33273585491858
0.33274748044573
0.33275903707812
0.3327705455299
0.33278203058319
0.33279350994358
0.33280498786522
0.33281645810804
0.33282790493151
0.33283929674203
0.52599913840351
0.6656983817662
0.66572095315069
0.66574319098855
0.66576510053171
0.66578664327191
0.66580776963805
0.66582842471551
0.66584857241803
0.66586808993888
0.66588684817991
0.6659046911756
0.66592161411939
0.66593730909072
0.66595191412956
0.66596568013065
0.66597861435102
0.66599067754149
0.66600186930816
0.66601219205901
1
1
1
1
1
1
1
1
1
1
1
1
1
1
1
1
1
1
1
1
1
1
1
1
1
1
1
1
1
1
1
1
1
1
1
1
0.29769941302986
0.30799912165877
0.31782576253172
0.32530118131536
0.32954603916271
0.33113123453124
0.33072366393398
0.32834893424181
0.32386044940278
0.31669842495304
0.30906517414382
0.30745378601119
0.3176941922047
0.34879394279634
0.4080090730767
0.49290106594557
0.59494602067884
0.70725604281257
0.82167410356807
0.92542900831101
1
1
1
1
1
1
1
1
1
1
1
1
0.9910400602495
0.9129218376526
0.83078553621922
0.75021392729941
0.67671993735239
0.61211159686525
0.55509209387373
0.50556711136247
0.46265942630799
0.42573324700051
0.39426992350157
0.36788928476528
0.34630517132358
0.32949894931351
0.31760550765566
0.31043385555544
0.30908625892253
0.31058258339745
0.3161663889884
0.32242224536482
0.32711505181332
0.32975712928032
0.3313819702051
0.33218301628189
0.33245131728476
0.33253110303409
0.33255923346398
0.33257448079226
0.33258660095641
0.33259805078627
0.33260948458023
0.33262105861474
0.33263276353125
0.33264453745697
0.3326563172905
0.33266805681831
0.332679728621
0.33269131649387
0.3327028101933
0.332714206715
0.3327255098099
0.33273672933365
0.33274787652907
0.33275895533074
0.3327699666606
0.33278092382434
0.33279185143924
0.33280276948508