/*--------------------------------*- C++ -*----------------------------------*\
| =========                 |                                                 |
| \\      /  F ield         | OpenFOAM: The Open Source CFD Toolbox           |
|  \\    /   O peration     | Version:  2312                                  |
|   \\  /    A nd           | Website:  www.openfoam.com                      |
|    \\/     M anipulation  |                                                 |
\*---------------------------------------------------------------------------*/
FoamFile
{
    version     2.0;
    format      ascii;
    arch        "LSB;label=32;scalar=64";
    class       volScalarField;
    location    "3e-05";
    object      nut;
}
// * * * * * * * * * * * * * * * * * * * * * * * * * * * * * * * * * * * * * //

dimensions      [0 2 -1 0 0 0 0];

internalField   nonuniform List<scalar> 
109340
(
0.00073724300184971
0.00050991037648078
0.00027608550183211
0.0002311059844522
0.00022425280557198
0.00022912113439344
0.00023821387222195
0.00024879388618864
0.00021726600601456
0.00019348995557559
0.0001746324817028
0.00015923344046113
0.00014639539283288
0.000135518674214
0.0001261817890544
0.00011807781890583
0.0001109771690547
0.00010470434265505
9.9122745861823e-05
9.4124353419814e-05
8.9622544737591e-05
8.554702910813e-05
8.1840128978523e-05
7.8454034630601e-05
7.5348751830095e-05
7.2490510527159e-05
6.9850549809303e-05
6.7404235978692e-05
6.5130254074712e-05
6.3010257203495e-05
6.1027958001558e-05
5.9168694436031e-05
5.7418717418114e-05
5.5764408971128e-05
5.4189996514024e-05
5.2668173699631e-05
0.00072864706874067
0.00035651320914847
0.00026217739800777
0.00024017021239917
0.00023891110555878
0.00024414933456601
0.00021546605915762
0.00018757727279947
0.00016592535550169
0.00014878043861867
0.00013489565986401
0.00012342919818523
0.00011380326257075
0.00010560990418122
9.8553198321483e-05
9.241331593876e-05
8.7023573060268e-05
8.2255306062835e-05
7.8007611820352e-05
7.4200168946152e-05
7.0768164178463e-05
6.7658678083712e-05
6.4828014722047e-05
6.2239796735771e-05
5.9863517925438e-05
5.767340619749e-05
5.56476132233e-05
5.3767561838708e-05
5.2017337236888e-05
5.0383345201145e-05
4.8853184092658e-05
4.7416139376426e-05
4.6062089226044e-05
4.4780747898674e-05
4.3560505061667e-05
4.2383546706325e-05
0.00042835652070783
0.00030446784041208
0.0002631547395958
0.00024459083297465
0.00019593367848604
0.00016341409427532
0.00013986765459984
0.00012212729566178
0.000108344647553
9.7374424450977e-05
8.8461835316568e-05
8.1091549919324e-05
7.4903007426682e-05
6.9637939874497e-05
6.5107199134207e-05
6.1169425902701e-05
5.7717026735973e-05
5.4666746354316e-05
5.1953075816545e-05
4.9523331720297e-05
4.733434058447e-05
4.5350569221194e-05
4.3542768161554e-05
4.1886851827193e-05
4.0362947862301e-05
3.8954596763682e-05
3.7648287162485e-05
3.6432680771649e-05
3.5298632541582e-05
3.4237808343817e-05
3.324325486186e-05
3.2309031014583e-05
3.1429600841361e-05
3.0599565772084e-05
2.9814120486068e-05
2.9071045171935e-05
0.0002468697359162
0.00024882326556254
0.00015642485531332
0.00011399342066962
8.9749212696559e-05
7.4098001557197e-05
6.3190799044325e-05
5.5173596557232e-05
4.9045216066953e-05
4.4218123609101e-05
4.0324904383419e-05
3.7123770356428e-05
3.4449147858834e-05
3.2184010437548e-05
3.0243519797911e-05
2.8564815351789e-05
2.710031956363e-05
2.5813472563048e-05
2.4672395077504e-05
2.3648698564489e-05
2.2719917876691e-05
2.1869599171892e-05
2.1085864514299e-05
2.0360158680159e-05
1.9686109922609e-05
1.9058753843253e-05
1.8473928519949e-05
1.7928584263616e-05
1.7420372294269e-05
1.6947020542429e-05
1.650678962616e-05
1.6097505469351e-05
1.5716260089332e-05
1.536056289284e-05
1.5029140001252e-05
1.4726492498742e-05
0.00014906730608476
4.8699092438718e-05
2.964973678543e-05
2.152785920489e-05
1.7055381747335e-05
1.4249335950425e-05
1.2342009916826e-05
1.0972929864682e-05
9.9504546689277e-06
9.1642682815499e-06
8.5467850645507e-06
8.0552218221652e-06
7.6612922510921e-06
7.3459748780058e-06
7.0963060511874e-06
6.90316221171e-06
6.7596832706027e-06
6.6548352451355e-06
6.5690059778014e-06
6.484450560745e-06
6.3948186683859e-06
6.3029230863166e-06
6.2136812387001e-06
6.130903244477e-06
6.0568731186112e-06
5.9928938091283e-06
5.9394108411344e-06
5.8963568266395e-06
5.864061619291e-06
5.8420450758007e-06
5.8291201009615e-06
5.823648449834e-06
5.8240072931233e-06
5.8282571645787e-06
5.8299111847777e-06
5.8200085295107e-06
3.7268494368179e-07
5.556682146522e-07
7.1478206145164e-07
8.3915631773685e-07
9.2827900919037e-07
9.8725070845078e-07
1.0228838898044e-06
1.0415805440211e-06
1.0485101593072e-06
1.0478360311173e-06
1.0420655186063e-06
1.033146927016e-06
1.0224259840196e-06
1.0108152680363e-06
9.9892790652159e-07
9.8720539359596e-07
9.7593392860268e-07
9.6530655750173e-07
9.5553500432044e-07
9.4684007108098e-07
9.3901990000992e-07
9.3196711931939e-07
9.2563070949948e-07
9.1998520845237e-07
9.1501498313367e-07
9.1071012962074e-07
9.0706548857373e-07
9.0408663896247e-07
9.01790991543e-07
9.0020343750133e-07
8.9930052450699e-07
8.9899421122548e-07
8.9902036274974e-07
8.9869943742126e-07
8.960395931336e-07
8.8119781025539e-07
4.2272899381636e-05
2.5250991808915e-05
1.4329629160414e-05
9.0773094629585e-06
6.3031303792785e-06
4.5808699412357e-06
3.4114716654546e-06
2.5645858745949e-06
1.9963722428e-06
1.8298190862868e-06
1.9300144669223e-06
2.1524635406575e-06
2.5477841546754e-06
2.8522179817307e-06
3.1344656224069e-06
3.3755466181651e-06
3.5491766063069e-06
3.6898440400707e-06
3.8205741664293e-06
3.957403365313e-06
4.0748545421441e-06
4.1823748365289e-06
4.2843860999921e-06
4.0524430124359e-06
3.8422857423662e-06
3.6499189650246e-06
3.472122255182e-06
3.3079027685711e-06
3.1565170502087e-06
3.0161307599483e-06
2.8845902901443e-06
2.7611190891848e-06
2.6456931768224e-06
2.5374503475456e-06
2.435229681657e-06
2.3383330227542e-06
2.2466188915929e-06
2.1597405697199e-06
2.0771327358888e-06
1.9983114583461e-06
1.9231379508618e-06
1.8517028656876e-06
1.0647658561829e-06
6.6429296192474e-05
3.0751127555612e-05
2.2457450496953e-05
1.5138325613777e-05
1.3742880998828e-05
1.50993846767e-05
1.6414463199373e-05
1.7616679842705e-05
1.8709543333917e-05
1.9712707376929e-05
2.0588152527753e-05
2.1267249823849e-05
2.1662900385528e-05
2.1714822829917e-05
2.1472249193924e-05
2.0949134477774e-05
2.0370903053093e-05
1.9785346056111e-05
1.9299066930487e-05
1.884316975607e-05
1.8324390026126e-05
1.7701882531319e-05
1.6972483144391e-05
1.6180022253767e-05
1.5386172844055e-05
1.4649228728728e-05
1.4008253546078e-05
1.3473606605312e-05
1.3084984073565e-05
1.2866007473726e-05
1.2902169947382e-05
1.3116891807032e-05
1.341152074139e-05
1.3668559472787e-05
1.3559482036549e-05
1.3266571882375e-05
1.2894852010847e-05
1.2486233781319e-05
1.2072362815021e-05
1.1630559050863e-05
1.114398639868e-05
1.0472631946396e-05
9.989518258468e-06
9.6228791507665e-06
9.4063524982269e-06
9.2874988050429e-06
9.2419226673546e-06
9.2289269210299e-06
9.1676886265663e-06
9.0513218812357e-06
8.9039035090752e-06
8.7374721470507e-06
8.5597552528647e-06
8.3654446842687e-06
8.1540389700298e-06
7.9314855281021e-06
7.7158683478867e-06
7.5015117945133e-06
7.2981693288035e-06
7.1063884230813e-06
6.918176268145e-06
6.704872219214e-06
6.5692523611068e-06
6.4378776176532e-06
6.3020665294697e-06
6.1967966670878e-06
6.1545592512263e-06
6.1545195782764e-06
6.1713522695378e-06
6.211997872768e-06
6.2823514705401e-06
6.3917597666776e-06
6.5818103513663e-06
6.9290213212115e-06
7.5211839469118e-06
8.5255941857821e-06
1.0234775561246e-05
1.307008925288e-05
1.780686670291e-05
2.6314753489414e-05
4.264101609112e-05
7.4770261651075e-05
0.00013316574995365
0.00022349192072008
0.00034126953231078
0.00047555126897363
0.00050850133570675
0.00044942717951875
0.00027297908395062
0.00016598185470368
3.5125538860679e-05
6.7381886204316e-06
7.5184558226931e-06
1.0422691665414e-05
1.5437430242475e-05
2.3104108080475e-05
5.4464325037566e-05
3.2185044139019e-05
1.9195738416373e-05
1.1958650212853e-05
8.1437382630085e-06
5.8734465512037e-06
4.3418580583381e-06
3.2555617167138e-06
2.4714270589058e-06
1.8972809043883e-06
1.4786258302293e-06
1.2362266558333e-06
1.1047067845543e-06
1.0434636362275e-06
1.0494040552105e-06
1.0931757312478e-06
1.183738682012e-06
1.3151094651593e-06
1.4849489725133e-06
1.6942182472509e-06
1.9239585790073e-06
2.1649022780269e-06
2.413525982822e-06
2.668732466099e-06
2.9326521695738e-06
3.2076259941052e-06
3.4916660942251e-06
3.5154043610191e-06
3.3341869735813e-06
3.170459511534e-06
3.0205351281541e-06
2.8822194152393e-06
2.7541009669005e-06
2.6350253456247e-06
2.5237100804431e-06
2.4190602530506e-06
2.3206285728303e-06
2.2281878779457e-06
2.141012030782e-06
2.0582299353431e-06
1.9795162120069e-06
1.9045278373365e-06
1.8333912983613e-06
1.8584432466526e-06
6.6246880516787e-05
2.4813043541607e-05
1.7396750889292e-05
1.0560473388624e-05
1.0647148498567e-05
1.1279179367111e-05
1.1788442133608e-05
1.2181419665527e-05
1.2501798841979e-05
1.2788248272625e-05
1.305802143621e-05
1.3304722357609e-05
1.3492622176302e-05
1.3604018990649e-05
1.3656450799025e-05
1.3666055534819e-05
1.3611021813999e-05
1.3554448742628e-05
1.3553164602286e-05
1.3555719203631e-05
1.3497077441585e-05
1.3323373232969e-05
1.3043770536071e-05
1.268538054702e-05
1.2279180061643e-05
1.1867450260331e-05
1.1488775678524e-05
1.1161291897888e-05
1.0914398161443e-05
1.0781434348857e-05
1.0770717978401e-05
1.0899361107576e-05
1.1161679952685e-05
1.1484655039704e-05
1.1500250101075e-05
1.1388087693163e-05
1.1211830802704e-05
1.1003071453965e-05
1.0779468875338e-05
1.052363088427e-05
1.0200348060191e-05
1.0001965096808e-05
9.5933847336231e-06
9.2676691830582e-06
9.0784528375061e-06
8.9882585495559e-06
8.9416964566839e-06
8.920343607344e-06
8.8648492806661e-06
8.7659686805634e-06
8.6331015318424e-06
8.477693658774e-06
8.3087617969925e-06
8.1267913594358e-06
7.9336585152076e-06
7.7319110793442e-06
7.531201471567e-06
7.328366408562e-06
7.1288008855497e-06
6.9402438048344e-06
6.7560868042538e-06
6.5323954191276e-06
6.3876545345878e-06
6.2517206662899e-06
6.108362634634e-06
5.9867415320503e-06
5.935158349192e-06
5.9365793716293e-06
5.9716851359339e-06
6.0777691955131e-06
6.3202678418536e-06
6.7840136003328e-06
7.6060930894543e-06
8.997944742851e-06
1.1209311472896e-05
1.4515309098106e-05
1.927589243596e-05
2.5904495798169e-05
3.5006476497548e-05
4.773096503158e-05
6.6643060534111e-05
9.7687165396337e-05
0.00015196162284894
0.00023845950305724
0.00035321964920006
0.00047928250018977
0.00050691409398093
0.00044189020782197
0.00026340347683085
0.00016276378768003
3.45958030065e-05
7.1434854240787e-06
8.0942356306759e-06
1.1176509954424e-05
1.6487831262752e-05
2.4675867655416e-05
5.799741813011e-05
2.3667608878786e-05
1.2845072932755e-05
8.3013882225205e-06
5.9684760100748e-06
4.4027959535507e-06
3.3482359595138e-06
2.6088453871052e-06
2.0609691138245e-06
1.6681137061967e-06
1.3946519513425e-06
1.2128241841851e-06
1.1069136871806e-06
1.0577002876629e-06
1.0331751825518e-06
1.0441318021939e-06
1.0805083130506e-06
1.1374845920751e-06
1.2133646169432e-06
1.3131973628375e-06
1.4299892822636e-06
1.5572466553863e-06
1.6905499855131e-06
1.832012957454e-06
1.9819827189306e-06
2.1503190154925e-06
2.3361612211584e-06
2.5404401017386e-06
2.7596138831234e-06
2.9946340294407e-06
3.1435788743422e-06
2.9858931234175e-06
2.8408445705872e-06
2.7062590976049e-06
2.5811204924705e-06
2.4653709931017e-06
2.3580614988175e-06
2.2584553479248e-06
2.1658266677249e-06
2.0789409862107e-06
1.9967346045161e-06
1.9187365924666e-06
1.8452081068987e-06
1.0101138616173e-06
6.5673075897607e-05
2.4045622518905e-05
1.2290198857593e-05
7.5365212823094e-06
7.2033979046001e-06
7.3000709338424e-06
7.2614974132765e-06
7.2555896214834e-06
7.2639043005273e-06
7.2757740697866e-06
7.3025377406689e-06
7.3620680761148e-06
7.4904379455214e-06
7.7057896640295e-06
8.0082550148263e-06
8.4033618302573e-06
8.8586541629421e-06
9.2800851600259e-06
9.6622631598454e-06
1.0017184428061e-05
1.0275205009482e-05
1.0392071446708e-05
1.0360094879478e-05
1.0224910269043e-05
1.0014557275631e-05
9.7698170606134e-06
9.5295986358101e-06
9.3151645652711e-06
9.15243017951e-06
9.0629425268535e-06
9.0560523222241e-06
9.1675094261771e-06
9.4504236736065e-06
9.8579782107218e-06
1.0037382306624e-05
1.0049659909856e-05
1.0000707916116e-05
9.9096812036348e-06
9.7976377524234e-06
9.6473860019373e-06
9.4194450132756e-06
9.3168486048912e-06
8.9914638275295e-06
8.7250375603505e-06
8.5625196330473e-06
8.4838376630403e-06
8.4478244372716e-06
8.4268655214355e-06
8.38753649584e-06
8.3185467703273e-06
8.2179287092337e-06
8.0848810929574e-06
7.9274160903185e-06
7.7545739731523e-06
7.5730372956371e-06
7.3864688807293e-06
7.1973132151713e-06
7.0046612031573e-06
6.8064666544649e-06
6.6184498709178e-06
6.4344965497851e-06
6.2016669684294e-06
6.0458174499682e-06
5.8642803377043e-06
5.7418958362891e-06
5.7227784041575e-06
5.7619422397617e-06
5.9361406637263e-06
6.3736201376924e-06
7.2492471915068e-06
8.7803670063585e-06
1.1201441935466e-05
1.4808996308328e-05
1.996286172721e-05
2.7073796353412e-05
3.6552269318202e-05
4.8767245338437e-05
6.3792394427543e-05
8.1577785244034e-05
0.00010202965665501
0.00012537297343186
0.00015452258616859
0.00019944305430836
0.00027275870922111
0.00037663894278808
0.00048703769785267
0.00050440683282201
0.00042569904847755
0.00024442293057128
0.00015691643185018
2.7229807475295e-05
6.7452744249238e-06
8.0108998853025e-06
1.1063570693127e-05
1.6194999189497e-05
2.4936536086339e-05
5.6840739224171e-05
1.4505549558547e-05
7.3171737159049e-06
4.9015699664523e-06
3.5921182121392e-06
2.8215681198567e-06
2.3342122885724e-06
1.9835113640985e-06
1.7348424121657e-06
1.5611621767981e-06
1.4230061140615e-06
1.3077520752844e-06
1.2133293269924e-06
1.1398156307275e-06
1.1024571098384e-06
1.0883498540916e-06
1.1006866175221e-06
1.1402067359942e-06
1.201693263804e-06
1.2811997667571e-06
1.3647640473282e-06
1.4443126783623e-06
1.5273600475512e-06
1.6185792989886e-06
1.7123293687452e-06
1.8105545850839e-06
1.9220373114934e-06
2.0489293521293e-06
2.1899077684286e-06
2.3447069888061e-06
2.5116662782353e-06
2.6898921240395e-06
2.8868271808204e-06
2.7979215878516e-06
2.6661472207953e-06
2.5426553871937e-06
2.4270528872163e-06
2.318925333445e-06
2.2178211622741e-06
2.1232335577174e-06
2.0342632872296e-06
1.9504219659631e-06
1.8716793126219e-06
7.5021673276193e-07
6.1868132071215e-05
2.414929496298e-05
8.5562088310893e-06
5.5566927445726e-06
5.0389816656405e-06
5.0930978941337e-06
5.1947936671714e-06
5.3017109024534e-06
5.3817777961956e-06
5.4279409573774e-06
5.4492230308908e-06
5.4751449183785e-06
5.5364018741476e-06
5.6652194735647e-06
5.8749544762288e-06
6.1809933170695e-06
6.5786700234784e-06
7.0411315475332e-06
7.5421528389638e-06
8.0704921233676e-06
8.5632092958783e-06
8.8564465490355e-06
8.9594796843122e-06
8.9135833678453e-06
8.7782609681986e-06
8.5998412675973e-06
8.417815948096e-06
8.261250207388e-06
8.1635692847735e-06
8.1314464955721e-06
8.1791386947565e-06
8.3283063991849e-06
8.6332220035205e-06
9.1054626625377e-06
9.4045495155221e-06
9.4758637324245e-06
9.4534216980354e-06
9.3926539789041e-06
9.3033085487183e-06
9.1692402337265e-06
8.9410531280595e-06
8.7840620589989e-06
8.4998056865851e-06
8.2715448796841e-06
8.1380496256494e-06
8.0577017571923e-06
8.0236341784778e-06
8.0087517232542e-06
7.9681747027219e-06
7.9187856359282e-06
7.8327721204233e-06
7.709891288554e-06
7.5571469545068e-06
7.3889048716572e-06
7.212442258192e-06
7.032090398754e-06
6.8486976490345e-06
6.6620257606468e-06
6.4709310308965e-06
6.2767408028969e-06
6.1082630746725e-06
5.8708903780053e-06
5.7369457842914e-06
5.7329083147372e-06
5.821063462811e-06
6.1292417768216e-06
6.865883327333e-06
8.3323094991449e-06
1.0844382384367e-05
1.474608369319e-05
2.0392828134441e-05
2.8105209527179e-05
3.8087660733556e-05
5.0898794244921e-05
6.7019334656764e-05
8.639904062361e-05
0.00010866971700753
0.00013280206623742
0.0001571821660353
0.00017975849766118
0.0002012187473874
0.00022435111882412
0.00025827180135269
0.00031643118193938
0.00040570862095338
0.000495904601304
0.00049876948897794
0.00039677898739239
0.00021998160856092
0.00015020389481457
1.9761274359288e-05
6.6117177700904e-06
8.1428686453597e-06
1.1162648708831e-05
1.6112499797236e-05
2.434281229615e-05
4.9810710687351e-05
5.7517041059419e-06
3.9407522639044e-06
3.1035993051925e-06
2.7573358109468e-06
2.4586476421553e-06
2.2005097142479e-06
2.0511130972337e-06
1.9155320954705e-06
1.771609740081e-06
1.6365557955138e-06
1.5136541954433e-06
1.4134128219762e-06
1.3282589604403e-06
1.2572730087498e-06
1.2122113097133e-06
1.1943110811315e-06
1.2025441283324e-06
1.2402718148027e-06
1.3032441185384e-06
1.3715812176201e-06
1.4413860269521e-06
1.5106759554759e-06
1.5747807498579e-06
1.6518195551957e-06
1.7277118635212e-06
1.8053406062678e-06
1.8896532013171e-06
1.9875689108124e-06
2.0943865487571e-06
2.2105279876397e-06
2.339742636185e-06
2.4815782705228e-06
2.6333774579431e-06
2.7197749408233e-06
2.5962058210326e-06
2.4795127252688e-06
2.3693017191638e-06
2.2654184107083e-06
2.1675972574156e-06
2.075073636218e-06
1.9877105033453e-06
1.9055258846535e-06
7.1442411018568e-07
5.380634138362e-05
2.859673890685e-05
6.8611300714002e-06
4.9059574575867e-06
4.3851313330382e-06
4.6240034895388e-06
4.7894147721682e-06
4.8497522062075e-06
4.8455791076434e-06
4.8330624705403e-06
4.8140081321933e-06
4.788859623183e-06
4.7957965436041e-06
4.883128402579e-06
5.0746031779916e-06
5.3796281994527e-06
5.7818494644274e-06
6.2608199554494e-06
6.7964068572083e-06
7.375759870173e-06
7.9714790392062e-06
8.3437180270122e-06
8.4758104822446e-06
8.4335281989249e-06
8.3136321035553e-06
8.1582482859974e-06
8.0063644822976e-06
7.8941951108314e-06
7.8498202069593e-06
7.8661837696225e-06
7.9381975823603e-06
8.0772857521433e-06
8.3319770366122e-06
8.7836854710382e-06
9.2151650674618e-06
9.3152467365574e-06
9.3036470223962e-06
9.2442603858728e-06
9.1539922645928e-06
8.9993456819948e-06
8.7703582583861e-06
8.557292846112e-06
8.2938295570792e-06
8.1021072012946e-06
7.9849061805647e-06
7.8950722053586e-06
7.8433644308783e-06
7.8050950915939e-06
7.7578046223625e-06
7.6987339642563e-06
7.6174468134391e-06
7.5028295876803e-06
7.3585633427217e-06
7.2004578981414e-06
7.0354284180311e-06
6.8681932287439e-06
6.6970405433709e-06
6.5340187758571e-06
6.3768366999259e-06
6.2044478303053e-06
6.1045446626651e-06
6.1440790025822e-06
6.3762405597344e-06
6.9753681399785e-06
8.2371934322835e-06
1.0547172331462e-05
1.4346532106647e-05
2.0073079892928e-05
2.8085157202536e-05
3.8538267010168e-05
5.1835063280267e-05
6.8464724053531e-05
8.8381925795843e-05
0.00011118718378162
0.00013629415939145
0.00016313132864918
0.00019094005356524
0.00021860295571175
0.00024235339685445
0.00025978951623912
0.00027499691965931
0.00029105197821856
0.00031531978389619
0.00036085924227061
0.00043602203341109
0.00050119051811491
0.00048438483821739
0.00035322316190913
0.0001958887866717
0.0001450100062647
1.3613195330589e-05
6.6119834651413e-06
8.3621046522094e-06
1.1361135384026e-05
1.6108920262876e-05
2.3345034957141e-05
4.4072623871187e-05
2.3260044395142e-06
3.0609605424349e-06
3.8241420848242e-06
4.56505234224e-06
4.4873664937834e-06
3.8183040947237e-06
3.1592600421305e-06
2.6707846056694e-06
2.3258642766536e-06
2.0719850617338e-06
1.867858221566e-06
1.7052018448388e-06
1.5819513288109e-06
1.4821208337687e-06
1.4047375528827e-06
1.3527721092463e-06
1.3317112290042e-06
1.3413994194684e-06
1.3751369020637e-06
1.418082630054e-06
1.4671643871166e-06
1.523084938142e-06
1.58685630137e-06
1.6418875095558e-06
1.7093489504566e-06
1.7767605203949e-06
1.8500614385164e-06
1.9253335011593e-06
2.0111373915663e-06
2.1036936478249e-06
2.2016979876002e-06
2.3047892662179e-06
2.4232314697751e-06
2.5570738546977e-06
2.6174862323614e-06
2.5039952659799e-06
2.395862174427e-06
2.2931485421124e-06
2.195676580568e-06
2.1029449076233e-06
2.0150167921959e-06
1.9076092188811e-06
1.1057455638226e-06
4.182660329812e-05
3.5103094219598e-05
6.7925546801383e-06
5.424756750869e-06
4.6631879010899e-06
5.0192360086499e-06
5.1808469789876e-06
5.0911607492926e-06
4.8128292907085e-06
4.5741415879417e-06
4.4723266620281e-06
4.4024285991877e-06
4.3652909535029e-06
4.4385219627449e-06
4.6483908823033e-06
4.9863923013059e-06
5.4331026353365e-06
5.9814859058128e-06
6.5838151074024e-06
7.2125894041072e-06
7.8319198462485e-06
8.1664587560722e-06
8.2785521786064e-06
8.2415763892804e-06
8.1401052020871e-06
8.0068906798589e-06
7.8826738308335e-06
7.8047208548742e-06
7.7991492931797e-06
7.8370683255095e-06
7.9043937063891e-06
8.012131391088e-06
8.1948918827261e-06
8.5475671218577e-06
9.0488503031543e-06
9.2381266253503e-06
9.2396981146507e-06
9.1813775607455e-06
9.0796661513029e-06
8.9210092181355e-06
8.706901584248e-06
8.5068159488846e-06
8.296057504797e-06
8.1490401313311e-06
8.0481624576917e-06
7.9717165051455e-06
7.9192954372744e-06
7.8778087564488e-06
7.8424678628582e-06
7.7931862430319e-06
7.7383905270639e-06
7.6516106040415e-06
7.5333662697009e-06
7.4031477718437e-06
7.2716444909691e-06
7.144371222624e-06
7.0184279996247e-06
6.9795656101196e-06
7.0035646312642e-06
7.1319139404825e-06
7.4792180590828e-06
8.7982860798496e-06
1.1139452185385e-05
1.4859076152129e-05
2.0456501272459e-05
2.8340629974529e-05
3.8773287963384e-05
5.1887547795333e-05
6.8268884862405e-05
8.8166809633946e-05
0.00011109819946435
0.00013644773373254
0.00016373537659828
0.00019232040836826
0.00022139744589119
0.00025033637477266
0.00027837685094329
0.00030295240878901
0.00032051274741995
0.00033073435058942
0.00033881008303719
0.00034769585364201
0.00036441043380145
0.00040054602074426
0.00046212154490452
0.0004988848154843
0.00045535021041545
0.00029866790400089
0.00017169334720046
0.00011028931717699
9.5207321708617e-06
6.7259219933134e-06
8.6028300636643e-06
1.1543744774304e-05
1.5994952264513e-05
2.2263243408501e-05
3.9815597590729e-05
8.3481207952957e-07
1.9771796423227e-06
2.3293200939502e-06
2.8863387885708e-06
3.5399448591792e-06
4.2811157518892e-06
5.0568918223299e-06
4.2359124197835e-06
3.4428000031915e-06
2.8858676728292e-06
2.4895199937658e-06
2.1937374423251e-06
1.9702399562985e-06
1.8021237903648e-06
1.6773335469609e-06
1.5864973859701e-06
1.5257601172621e-06
1.4962416203225e-06
1.493458983203e-06
1.5050635866748e-06
1.5274772859503e-06
1.5594235105348e-06
1.6002892016525e-06
1.65452913598e-06
1.7089492401484e-06
1.7690684116575e-06
1.8334966552031e-06
1.8988921737659e-06
1.9682998805587e-06
2.0473333008943e-06
2.1340701343474e-06
2.2237822788243e-06
2.3187352838632e-06
2.4202986128236e-06
2.5323163406527e-06
2.5319080106264e-06
2.4265053109126e-06
2.3257404763608e-06
2.2295141938291e-06
2.1375691171336e-06
1.916421515924e-06
1.7050370763155e-06
1.4871478422499e-06
8.9459653644611e-06
4.6052077582305e-05
8.5601100886926e-06
6.9752683726842e-06
5.4586970289051e-06
6.0802311865018e-06
6.4232646397966e-06
6.1113151853217e-06
5.3531705139227e-06
4.6593025395838e-06
4.2878039722292e-06
4.1666101497566e-06
4.0773639922536e-06
4.1215361270542e-06
4.3339022943721e-06
4.6918737947163e-06
5.1802116885124e-06
5.7561738861172e-06
6.4332644616913e-06
7.163749640338e-06
7.7590745078483e-06
8.0479726848874e-06
8.1433802513811e-06
8.1089168251078e-06
8.0204214576983e-06
7.9082468457086e-06
7.8001350456682e-06
7.7423280309773e-06
7.7340716097932e-06
7.7591702975851e-06
7.8105095273776e-06
7.8847316864643e-06
8.0069819814271e-06
8.2272676745552e-06
8.6789798401609e-06
9.1492819785043e-06
9.2946134924109e-06
9.3031323061046e-06
9.2434171943208e-06
9.1098312784658e-06
8.9302592427391e-06
8.6600324040865e-06
8.5250499534274e-06
8.4384295468904e-06
8.3815497367813e-06
8.3434851013281e-06
8.3446394896238e-06
8.3761977696121e-06
8.426766463088e-06
8.4888105874366e-06
8.5380628149407e-06
8.570841596677e-06
8.5904036132492e-06
8.6203432120632e-06
8.6782114223358e-06
8.8131860103816e-06
9.0786418980295e-06
9.5674063772348e-06
1.042758275376e-05
1.1883301172734e-05
1.5003581050453e-05
3.5543226748474e-05
4.4339156660781e-05
5.6233612950346e-05
7.125173234229e-05
8.9607443711918e-05
0.00011160612265791
0.00013697626774784
0.00016523348408259
0.0001957669416956
0.00022759893875381
0.00025986769435563
0.00029194052902105
0.00032319595834741
0.00035207777760096
0.00037781015648591
0.0003985861443984
0.00041241199351437
0.00041822495827016
0.00041822703422988
0.00041678024579782
0.00041670394457753
0.00042540878386576
0.00045103719530194
0.00048702574275875
0.00047810910020061
0.00037266987620444
0.00020437964487431
0.00013689611660374
3.1646848427385e-05
6.7643818383067e-06
7.0430892552123e-06
9.0346721224843e-06
1.187431483415e-05
1.5921846632157e-05
2.0967635986873e-05
3.4748113589723e-05
4.1052592058362e-07
1.2911665598831e-06
1.5797825192218e-06
1.8239545532115e-06
2.215982780382e-06
2.7148825519428e-06
3.2919658395308e-06
3.9515567177158e-06
4.529378916988e-06
4.9479700539413e-06
4.027347079216e-06
3.3615476202373e-06
2.8858387968118e-06
2.5494097335209e-06
2.3009439937192e-06
2.1201542012555e-06
1.9910910362226e-06
1.9001092489141e-06
1.8352183618791e-06
1.7919957023657e-06
1.7681604611548e-06
1.7600818970165e-06
1.7646729933981e-06
1.7804610516713e-06
1.8077499886088e-06
1.8465098680959e-06
1.8929977700172e-06
1.9465219015579e-06
2.0071213282987e-06
2.0790280632271e-06
2.1557768882872e-06
2.2320969656939e-06
2.3090989565645e-06
2.399832454263e-06
2.4989098986557e-06
2.4694970678471e-06
2.3725790165954e-06
2.279678666115e-06
2.0949665700378e-06
1.8175020806327e-06
1.5883992266155e-06
1.4046547793783e-06
1.1959350174102e-06
2.1364578795925e-06
3.1137783265178e-05
1.0387815213232e-05
1.0704655391156e-05
9.3267237759625e-06
9.9451037328737e-06
1.0129401698142e-05
8.7867481083647e-06
6.4571165415642e-06
4.6102382014795e-06
3.9244434182846e-06
3.7493251922908e-06
3.6993125445967e-06
3.8957522908287e-06
4.2304025902179e-06
4.7562530236452e-06
5.4460108759829e-06
6.1391297325892e-06
6.8085980468859e-06
7.311670016636e-06
7.5936286228409e-06
7.6910569450013e-06
7.6762707379868e-06
7.6206606932969e-06
7.5581116402646e-06
7.5197531431412e-06
7.5180498798413e-06
7.5487828028077e-06
7.6185153920981e-06
7.7429920868963e-06
7.9352071143192e-06
8.2202744395436e-06
8.625685436838e-06
9.1764167605299e-06
9.9217214958784e-06
1.0959339554104e-05
1.1780993913666e-05
1.2048523525417e-05
1.2045680394587e-05
1.1921983765748e-05
1.1824189720896e-05
1.115677193581e-05
1.1287249741414e-05
1.1509871483191e-05
1.1877639357096e-05
1.2466424392428e-05
1.3347552712295e-05
1.4530096634967e-05
1.599380059377e-05
1.7674605831001e-05
1.9497391113758e-05
2.1442391464843e-05
2.3585062974463e-05
2.6135870639823e-05
2.9287045797389e-05
3.3232759922991e-05
3.8225893009509e-05
4.456180003114e-05
5.2593945494942e-05
6.2783281764918e-05
7.8241610507667e-05
0.00012988383668352
0.00015130905393789
0.0001766297923945
0.00020490051857133
0.00023548653036665
0.00026766810561221
0.00030060305485852
0.00033372768006256
0.00036667195158248
0.00039785548091337
0.00042597353238317
0.0004505005303061
0.00047087018868427
0.00048618602256678
0.00049625171294755
0.00049963098064231
0.00049659580410009
0.00049023015829813
0.00048095270983525
0.00047134503340856
0.00046643370533229
0.00046683761427373
0.00047290496003643
0.00046353914526971
0.00037880424977857
0.00021862871630365
0.00013851211974519
8.2594717717368e-05
8.8687708628471e-06
6.3998217121112e-06
7.6863772102606e-06
9.7158090325192e-06
1.2413081297353e-05
1.5915486500619e-05
1.9656160148969e-05
3.0361895698204e-05
4.5377562800784e-07
9.4823777235213e-07
1.1940852708618e-06
1.3569939982789e-06
1.5731973953075e-06
1.8841849363715e-06
2.2855632115368e-06
2.7489970056994e-06
3.2800216101079e-06
3.7765852348589e-06
4.1682780056479e-06
4.3973586506399e-06
4.2069518795381e-06
3.5824955105447e-06
3.1458417560585e-06
2.8256951463627e-06
2.5831218832084e-06
2.3995627986478e-06
2.2634515935264e-06
2.1634629527619e-06
2.0939297534192e-06
2.0454641944782e-06
2.0152743339519e-06
1.9991676573669e-06
1.9971353826369e-06
2.0067734869933e-06
2.025253881261e-06
2.0551606788076e-06
2.0927529890805e-06
2.1377280383111e-06
2.1952297508106e-06
2.2657685965005e-06
2.3416119339996e-06
2.4253612639875e-06
2.5133784559659e-06
2.4173240116113e-06
2.3251070001818e-06
2.2365210521885e-06
1.9434944461641e-06
1.684218153617e-06
1.469390201457e-06
1.2800780960212e-06
1.1317598027651e-06
2.1478490515417e-07
1.9066187389561e-05
1.6508875625537e-05
1.2934196137588e-05
1.3903018105252e-05
1.3692444539618e-05
1.3317040231824e-05
1.0561668515618e-05
6.8853913665894e-06
4.212063310184e-06
3.6097993357763e-06
3.4465289428527e-06
3.5496438292457e-06
3.8433390202561e-06
4.2910590993739e-06
5.0108216011396e-06
5.6629236478735e-06
6.3024447073964e-06
6.9480790762896e-06
7.4456365041649e-06
7.7641751911772e-06
7.9290206294059e-06
8.0018933084776e-06
8.0462126741016e-06
8.1025568597095e-06
8.2114973236953e-06
8.4026858019864e-06
8.6889961651052e-06
9.0964127958292e-06
9.6617679720704e-06
1.0438521329024e-05
1.1505048361304e-05
1.2933302576619e-05
1.4816609086826e-05
1.729790131251e-05
2.0482798586034e-05
2.3906427443291e-05
2.5934692445343e-05
2.6837897187991e-05
2.758393682471e-05
2.8567148921507e-05
2.6293156686614e-05
2.7903780416008e-05
3.0268186405387e-05
3.3447846798746e-05
3.7558050722442e-05
4.2588880923818e-05
4.8463937600549e-05
5.4998211493309e-05
6.2036962374906e-05
6.9428895639132e-05
7.7102048078622e-05
8.5138085805308e-05
9.3855785988454e-05
0.00010367851930786
0.00011499722671848
0.00012816440115914
0.00014345301872768
0.00016106758813284
0.00018117023592181
0.00020675414799706
0.00027515424650374
0.00030318504717403
0.00033348626095355
0.00036493758606944
0.00039671214178322
0.00042786204021217
0.00045686810154396
0.00048313023080257
0.00050598013682586
0.00052503992785215
0.00054002846302277
0.00055031129989035
0.00055584798558619
0.00055590431560919
0.00055151964064658
0.00054409485980794
0.00053291733903908
0.00051820657576204
0.00050148383956251
0.0004858768618712
0.00047270405382657
0.00046027079826396