/*--------------------------------*- C++ -*----------------------------------*\
| =========                 |                                                 |
| \\      /  F ield         | OpenFOAM: The Open Source CFD Toolbox           |
|  \\    /   O peration     | Version:  2312                                  |
|   \\  /    A nd           | Website:  www.openfoam.com                      |
|    \\/     M anipulation  |                                                 |
\*---------------------------------------------------------------------------*/
FoamFile
{
    version     2.0;
    format      ascii;
    arch        "LSB;label=32;scalar=64";
    class       volScalarField;
    location    "3e-05";
    object      omega;
}
// * * * * * * * * * * * * * * * * * * * * * * * * * * * * * * * * * * * * * //

dimensions      [0 0 -1 0 0 0 0];

internalField   nonuniform List<scalar> 
109340
(
9859.1678639593
10173.06297158
11030.215141669
12864.644150088
15905.937787555
20024.843116975
24796.226508153
29553.893364129
33838.565919789
37973.89764909
42028.426584568
46020.545251406
49955.010705106
53831.821414096
57649.125802709
61404.385331535
65094.86414183
68717.839408503
72270.709312296
75751.036647363
79156.546864163
82485.044964723
85734.380680948
88902.391276059
91986.807349888
94985.173234029
97894.680590143
100711.86544225
103432.38440695
106049.55716408
108557.50782353
110946.04651042
113200.6889743
115298.63148928
117201.27162346
118834.56511721
9973.513257177
11133.672265814
14112.224136695
18587.23175482
23779.874228338
29022.185550379
34055.706110308
39113.27480625
44184.106335859
49211.172830018
54176.429639792
59070.119369493
63884.836306354
68614.309106122
73253.128348596
77796.65336125
82240.967178203
86582.82739205
90819.636184463
94949.457688583
98971.002133002
102883.48386786
106686.57250964
110380.14806092
113964.01469591
117437.6234188
120799.55146941
124047.04968452
127175.21135639
130177.12065399
133044.48823163
135762.86552649
138310.38105398
140650.75486921
142715.0669848
144344.81156132
10225.841415858
14384.459667362
22033.601482087
29865.471183774
37322.663834795
44765.848639342
52281.652825211
59807.487786762
67289.400738973
74679.140671523
81941.17091691
89050.938185034
95991.156004813
102749.52761845
109317.46136756
115689.2921504
121861.77747502
127833.86182508
133606.87099699
139185.23245484
144576.78590416
149791.50840595
154840.17011889
159732.77278266
164477.49513484
169080.05828123
173542.42042332
177862.86350583
182032.91887718
186043.2448258
189876.58049338
193506.8567616
196892.7431483
199963.84509892
202575.05796537
204340.29296777
12250.719140835
29222.586066026
46571.137625395
63955.309437582
81200.425147626
98201.87485962
114846.04786728
131041.30575024
146713.15646368
161803.59745035
176270.73244009
190089.16283987
203248.65698397
215751.62561762
227610.69438891
238846.6120372
249487.40949307
259574.34351337
269182.97388513
278429.41632211
287428.78545301
296268.48786777
305004.72771441
313666.57116662
322262.82884169
330787.50372716
339216.62089354
347515.66578934
355635.78414064
363521.96342602
371095.69605701
378268.99787881
384922.86849568
390851.65499941
395588.92498905
397589.66833193
47821.165359588
149514.70799231
246365.37186339
339356.78543813
427119.56334794
508288.813559
582006.81770608
647960.03774376
706311.30726891
757523.16387348
802226.75574846
841103.76344818
874824.52121347
904008.29263788
929211.91546217
950964.46451612
969884.91756785
987378.17658637
1006296.9152239
1028895.6366417
1055719.6244293
1085901.1079513
1118209.2657936
1151564.7531429
1185122.1367074
1218183.9995679
1250197.3945447
1280701.5426407
1309267.0690082
1335400.801472
1358627.8141301
1378675.0533432
1395009.1259277
1406500.7187855
1412124.2443325
1402976.6801416
4806750.7774058
5651180.7033507
6282904.0080519
6724982.8731043
7014560.3262551
7189812.5456881
7283411.7017385
7320725.4460859
7320248.3962221
7295979.8382771
7256140.2386038
7206990.8783443
7152826.1266509
7096562.0862393
7040177.2242545
6985119.6614692
6932356.8596413
6882567.1540007
6836456.0220924
6794640.8728677
6756504.3377293
6721734.0720358
6690216.1813813
6661932.3839793
6636915.4658417
6615239.6827541
6597014.3584288
6582434.8514736
6571775.5323665
6565381.7040674
6563739.7300262
6567166.5069933
6576390.1347846
6592421.4494427
6616570.6667975
6646757.4386927
119910.43369644
119388.50875678
117637.78865019
115724.09310637
114796.34515325
115794.77454491
119360.3140048
125207.00217176
133068.46087777
143886.05651402
153168.12941315
162358.03686314
169503.63153504
170126.85393078
166983.18736472
161755.90143714
155487.28542458
148770.20178742
142073.82494865
135685.16090219
129665.92702254
124007.55039936
118738.24802177
113973.64539988
109717.18372782
105885.42353073
102425.34764686
99288.744545806
96446.090762124
93865.508186309
91490.007771861
89268.368838961
87184.773857278
85235.65116174
83408.377124543
81674.240755383
80009.389780747
78409.995137731
76880.544099346
75408.279069183
73978.951532758
72594.89433843
88884.943557684
1660435.2180509
1153078.0595344
965126.44523673
719227.69715209
670901.03190094
723918.46096034
774926.34482635
821393.47132532
863380.20139653
901571.40466704
934224.66354584
958610.15186039
971219.88517925
971158.85144981
959842.81875931
936885.1500016
911341.09297339
885461.57398114
862922.91917077
841533.16095431
818193.20378891
791533.01008106
761530.41328629
729784.90102605
698270.91770956
669099.85650517
643666.97876274
622255.11004283
606414.56422471
597149.56083769
596942.81025017
603467.31479769
612784.86601196
620035.97255791
614601.11067567
602407.82288372
587614.36677384
571805.19435459
556002.02586994
539414.8969795
521340.5922575
497753.892536
479765.02750169
466381.77799525
459251.04532585
454906.60891569
454588.59841839
455245.65947281
453856.61462994
450486.97828952
446005.05608652
440914.96956841
435506.07678221
429469.69269668
422731.56326657
415510.68148029
408261.46829915
401144.03788199
394241.59813539
387573.41594262
380914.30688771
373335.61283599
368288.86568062
363309.64280024
358191.82724597
354868.55991935
354002.83927872
354273.72162331
355285.57602177
357111.16415563
359664.69414473
362779.25224627
367274.17316539
374786.0580356
386516.82034353
405161.14048363
434947.59639322
480021.22173786
544423.09140831
634763.75906917
759383.14000314
932470.94060723
1164846.4414893
1447423.2082628
1748009.8397526
1938701.7024261
1934537.5687212
1598021.3487114
803646.30495007
224469.82682769
46995.554881063
14875.78183092
10671.852939097
9462.156218874
8676.7248216236
8111.374798465
7591.9825469722
144889.75637088
142828.79690442
138469.16007782
132778.98439034
126525.52248196
120297.02594732
114557.25723219
109359.90012048
104791.08301521
101176.93286252
98310.815736564
95562.180688341
92743.377484653
90077.281645014
87898.224899686
86605.607271252
86044.100918779
85989.775053902
86347.863536851
86577.157387012
86515.399845598
86168.046371748
85623.928001505
84981.974380079
84273.779462246
83482.332382849
82621.233889223
81741.845722858
80818.390584596
79854.585238821
78865.065536275
77862.777935006
76858.974023045
75862.683439481
74874.163959373
73887.472856902
72895.758426884
71899.847404426
70905.302514085
69913.752581135
68924.503528344
67937.353121192
161768.02419216
1736339.6196735
1022376.0012373
813147.00426792
557256.62571338
564633.35180914
593680.8947694
616831.83150084
633939.48086647
646854.60286341
657505.17556863
667010.09093728
675541.37883809
682014.76817338
685234.62608483
685369.25199642
682865.89861927
676525.8795893
669129.61997255
663459.87708579
658246.71719302
651321.23277658
640826.52738236
627004.78244647
610676.16496621
592869.29769844
575034.3087007
558623.64493877
544429.57044102
533504.10367761
527005.53461205
525391.39464233
529084.92137663
537843.65722638
549012.61587495
548334.90790032
543125.48633353
535785.20336814
527549.38617587
518999.54765225
509304.99876566
496998.63183113
487161.38393442
471676.1634498
459633.48615197
453433.48204052
450369.44259686
450484.66201143
451364.50276473
450546.97044318
448286.03961543
444749.78156557
440374.99667011
435444.05200331
429912.48159096
423868.25080613
417490.60497663
410979.55807925
404458.70706229
397979.56899141
391690.54921883
385441.48247195
378126.80905671
373094.03460107
368211.90312526
363882.97561471
361204.01319217
360578.65714098
360926.10861444
362195.44585149
364974.79760215
370516.30637565
380343.13751518
397265.34545872
425442.96768309
469057.55395731
530925.67865927
612414.20128169
711212.19943293
821038.93999694
934448.15280565
1048081.3074822
1166667.7001151
1313360.3877046
1512063.1286573
1760366.8596183
1939452.5385523
1928167.2680397
1571846.6741999
771355.33865913
212026.64835059
44278.841532279
14463.806521383
10560.628556942
9405.7303286724
8647.0892296415
8095.3503499261
7588.7775264351
204024.37321328
198376.64577752
187914.54121173
175114.86575739
161839.90918769
149530.78342236
138559.18362116
128922.02213396
120352.4648653
112764.66669478
105899.15000507
99837.899431158
94456.76979288
89852.544996992
85948.076919921
82584.81681022
79700.011380061
77386.440907078
75740.767743517
74381.782330909
73044.6258554
71779.788865771
70625.349928426
69590.770454861
68690.611498546
67971.209960725
67422.564614256
66993.214842898
66631.300218158
66286.95957143
65975.056682412
65702.518517912
65479.772748465
65286.88558193
65090.241322283
64862.57770343
64583.722636479
64238.949138299
63835.191466512
63384.745888202
62894.836841952
62369.516847058
108661.11512023
1725459.6601138
1015744.82566
604489.50952313
404218.16288375
379632.84798388
372476.55576444
361670.43689871
354532.11600721
350743.8751562
349496.60432162
350862.72623664
355308.00677524
364202.79854093
377752.43649299
395241.6469666
416247.88801794
438782.11923336
458638.43941647
475934.03027906
491459.19978533
502493.14773616
507756.83998662
507107.37197746
502304.61185635
494425.8822303
485105.98800966
475843.46919712
467483.17159973
461240.61830439
457743.61432421
458286.94086426
464053.73212182
476988.14569451
494779.73276861
503199.94258872
504916.60527595
503900.27817543
501239.947057
497529.82834314
491896.77615676
482852.05967246
474605.45055021
461765.52849115
451435.20421255
446541.08122612
444991.61895444
445749.28250335
447627.70310924
448219.12312553
447344.59270434
445356.3750959
442115.11157215
437837.27805756
432813.73907766
427319.77203144
421580.14322413
415737.14854174
409826.68107163
403810.1449787
397895.62130532
392066.47019785
385179.587272
380179.80915871
376028.60719347
374401.96469634
374462.47040692
375894.09927492
380483.0715353
390362.13604076
408607.87767753
439104.33749718
485647.43845456
550675.67765078
633771.70960376
730838.35241383
835826.0187264
944759.98265631
1054211.3400783
1154628.4999151
1240328.7765497
1315418.1480301
1389971.517651
1478339.0117397
1606877.1821751
1794259.3754182
1945869.6467389
1918614.5083995
1518222.4103015
705161.65618054
187920.9081287
39434.902417515
13930.488434947
10500.643296618
9392.7194941646
8648.4661148248
8096.7564640174
7600.1686745665
390597.2134756
364395.08971591
322361.88645279
278271.83861731
239713.71282957
208097.83359576
182923.01008728
162773.75682616
146309.73598501
132567.3190567
120751.69595365
110615.1163079
101873.46800827
94516.649020091
88515.730770525
83779.204072524
80087.228921639
77183.369941418
74900.046710306
72709.743414212
70485.005588161
68362.613274363
66414.302267483
64644.383497073
63078.373317792
61711.675798556
60573.26926244
59658.353984573
58925.391665338
58312.978304845
57788.755796259
57344.873620501
56996.518441619
56756.122964859
56599.031673835
56495.828663244
56420.535640355
56354.677589104
56283.861067781
56196.984497601
56086.070763779
55948.994885373
75386.937443485
1629236.7376268
1031784.676191
392978.57358636
269181.21574955
242767.07536524
239957.44498143
240787.655023
243660.2315972
246850.54239461
250195.46335303
254403.01161876
260684.66067833
269936.52870102
282846.02521131
299086.05302322
318743.20204441
341415.02290407
365961.01434835
391299.36070792
416877.31161649
440062.96175064
453831.77734997
459017.72005199
457487.47206625
452256.07224715
445281.8060121
438243.11239356
432574.08018286
429881.4860833
430957.43485581
435598.93139639
444911.0644191
461127.25019376
484254.32631312
499065.95501751
504341.78048371
505843.62063783
505367.05727898
503442.23334578
498674.19601094
488897.4924969
475870.03981857
464350.75956426
454864.46617814
450437.60832811
449413.3839683
450378.50580326
452419.76437036
454633.37950582
454686.10165357
453671.33399157
451251.88033788
447528.38684
443050.69453443
438118.14251976
432987.30831693
427768.58477567
422465.52683954
417074.87446451
411723.81108274
406789.03589076
400745.1405667
399175.46679194
399720.93540279
402593.70966961
410133.33605212
425846.06713676
454445.81595576
500316.41278511
566107.15379212
650778.90668961
749044.50981895
854243.53721624
955812.62810477
1047820.4577518
1133253.7998738
1214055.3513604
1291203.4817075
1363396.924424
1425510.6121445
1478316.6355462
1530128.5870696
1591706.322985
1685686.3117224
1835231.6569804
1956196.6434082
1898203.0226213
1428924.8113777
611539.14739481
155830.17331628
33086.698963784
13235.261688334
10417.12401778
9374.6667670882
8650.8765395974
8112.0806749279
7630.7139950611
1303990.909423
1044700.4579508
767126.76834671
557373.37522416
414195.94342651
320280.50891883
257471.5146895
213729.79256006
182182.24068124
158355.22516495
139834.71998106
125167.22568843
113083.60735219
102951.02233413
94586.677513825
87835.386508614
82611.410061005
78647.090992627
75617.218561799
72911.342105747
70361.307167921
67952.477741756
65659.386853669
63525.393935426
61569.717377909
59802.138027962
58236.213624089
56874.40418468
55713.423246577
54714.455814206
53849.675558524
53112.287647334
52497.362189521
51988.828431215
51593.334281929
51301.362522251
51087.818487268
50932.362246387
50818.39322622
50729.833685109
50656.980907812
50595.618981323
56709.31708915
1445832.9829042
1120800.3099613
298753.49257486
220874.10815812
196560.81572924
200368.51388089
204722.21246971
209071.88790013
212650.74589192
215391.35564131
218667.62690893
224371.05611844
233806.16273179
247599.72784042
265334.07084306
286926.17772875
311823.81256405
339367.35222925
368493.14549168
398265.39477322
426976.27202723
444867.2046313
452688.87187946
453059.44192137
449277.81028211
443608.91488858
438032.76855699
434573.4210429
434864.78176498
438722.59283359
446260.29750379
457955.56710267
475598.20844152
501830.11052849
525738.61360532
533908.88896483
536624.27945043
536533.21416803
534297.63887708
527751.20476122
516598.00832009
497500.8890693
485101.14243791
476436.87835663
472509.67654271
472271.08387575
473537.04185851
475677.43178875
478102.6351197
479311.21797639
478862.91031389
477111.76808675
473809.80717254
469653.64664681
465008.23600925
460246.22613518
455469.69295488
450722.46649293
445986.70192326
441702.61433712
439683.37955989
440720.20131225
446174.30712124
458755.37799645
482742.92672944
522512.47143256
581523.44652429
660503.04097046
755145.69780656
858475.08127879
958275.0669783
1045600.4325633
1122493.4417719
1192399.1169672
1258625.464183
1321841.3549084
1382254.4498161
1441106.1141357
1496591.7275053
1542390.6109291
1582336.31649
1621115.9276883
1667783.0502358
1745031.6303447
1874088.3296327
1961259.5552708
1853810.4552672
1297294.0307945
497988.77522918
120284.47458808
26522.012732537
12543.561440848
10322.426900927
9350.9163773656
8653.7121207138
8137.3085789048
7670.2789648706
4834141.3611541
2576399.6847095
1544171.5133316
1001956.8178994
686740.2591804
488542.51847605
363201.38519758
282313.4995614
228545.82200448
191086.9899044
163454.44400809
142477.93822172
126280.62762082
113310.85975639
102743.41589701
94118.727591443
87236.103464163
81920.319003419
77765.891650212
74161.123759328
70995.460069221
68199.797132783
65711.14490352
63444.38464695
61335.911265273
59379.341984134
57596.490256786
55992.672629351
54573.925220004
53317.007126235
52200.326416105
51216.119870033
50362.419458719
49631.922678618
49008.219573878
48492.861737052
48073.291089397
47736.428859629
47469.086737062
47255.40946914
47085.280280417
46950.399301122
48257.800069007
1136656.8038179
1200024.5134559
263072.75604538
208084.10624381
178038.49809203
184335.61708913
188760.51842198
191216.57035286
193409.29808369
194997.17928076
197063.80235539
202040.95120594
212128.654833
227743.90736567
248026.93697197
272700.38971613
301425.5827819
333319.02854694
367088.03104557
403402.92142446
438190.37619883
457341.36978862
465147.05522673
465623.62709354
462448.25383806
457783.41182334
453737.82644684
452729.73279703
455550.60500036
461930.27075099
471266.72512487
484088.82120284
501735.80257848
527640.83188949
559210.27880551
573184.68964279
576957.07443822
576236.54827642
572147.66332785
563548.18192321
551230.9458191
531193.86406273
520265.07244543
513399.18360486
510201.32683791
510310.40341363
511593.660677
513608.98039541
515952.86533915
518028.97548579
517984.49942199
516721.663268
513843.69939437
510110.31780371
506021.72096795
501810.47747137
497813.72993911
495603.73183659
495623.6792725
497679.20319664
504133.1995979
527158.97657387
562819.73928307
613148.97185869
679588.47385909
760203.28444245
850106.09999688
944790.04693813
1032402.2138607
1108035.7079633
1174748.2856395
1236061.2639824
1293227.5849412
1347197.8747523
1399343.0132589
1449596.6367923
1497286.4110298
1544194.5636604
1586840.0590314
1621388.3373969
1652809.7018256
1682950.4686456
1722632.0458677
1792664.1214562
1907073.7366479
1952814.1758733
1768398.3807861
1114995.9504097
376535.55158064
85980.465692462
20955.071162271
11978.921424561
10231.524394608
9326.887793028
8660.4930805179
8168.9721745362
7714.5605874729
8974309.9004172
3697658.4692581
2342844.3393199
1569785.4013626
1069310.2615102
738077.36802982
527210.41005002
391793.33808142
302196.99129505
241515.91777769
199423.80085952
168989.07594125
146179.02631104
128674.15573185
114939.03372418
103980.46482964
95149.718077313
88103.0029099
82410.24120836
77599.408429436
73495.371733156
69977.024646353
66943.633948318
64305.647639649
61980.653628519
59878.524947189
57965.251912495
56217.006237837
54623.836784088
53187.570473359
51893.889965217
50728.367377061
49689.21625726
48770.784827956
47958.311242883
47246.127229031
46636.728410187
46118.145411805
45679.729415267
45311.908770702
45005.732618338
44762.983590221
44531.381590701
339404.74768019
1327005.3127899
295512.06125221
229006.69036473
180768.80585776
187371.53417966
191443.10197965
188180.11318286
182957.52044316
181225.42387146
181727.58060935
184985.0335307
194629.82158661
211376.14586272
233537.02218252
260809.51957444
292744.44425759
331026.21888884
373957.73819698
418787.31958388
454604.33236048
473934.84165425
482297.64442754
483838.50154562
481802.16361315
478448.59761633
475552.62045651
476265.56174897
480400.23000561
487903.09428836
498479.97483094
511936.80332002
529180.25626373
551630.89926256
584315.72282039
614252.13662655
623870.73460403
624219.27956615
619261.94601899
609053.68626949
596000.06588391
571777.09346164
562889.01537379
557978.90119088
555794.84876827
556017.53138672
557493.6512419
560192.85130766
563250.25225235
565807.2162105
567093.60893607
566743.73747354
565804.42675211
564776.80781273
564706.00774265
565937.79242676
569910.73508339
578207.78906241
593005.08457742
617037.37778376
665368.15698389
842087.02792383
904877.76495229
976073.71621633
1050562.9724744
1124129.7519624
1190088.8001821
1248494.74643
1300745.3452892
1348473.7464319
1393397.6616979
1436790.2656363
1478102.9642029
1517201.0135564
1554405.4690595
1590457.7017407
1624675.1159411
1655943.7903304
1682680.7861056
1706193.6396376
1727580.2894694
1749683.4100232
1786745.7932605
1855312.3787907
1939662.8557384
1907444.1932289
1525209.3436801
743171.16189259
205072.92012034
44051.522373234
15354.637085604
11370.535572979
10101.887035739
9288.7623815784
8672.830018023
8220.8020828918
7787.2584728104
8208009.376647
2987918.1089653
2238718.7458611
1719145.4558054
1314685.9724176
981380.62591683
727640.21568083
536952.69492077
407893.07491222
319387.22999066
255206.09147475
209422.92196703
176257.09413365
151769.46933582
133045.09125551
118503.3150397
106968.59671266
97594.978259208
89822.332783915
83304.458246009
77809.910520098
73136.687214053
69148.820180427
65738.569335399
62813.744640288
60274.807028915
58043.048563485
56078.703551733
54349.825596118
52815.87901466
51439.258432579
50185.81583224
49037.432811969
47982.575136884
47025.860643186
46157.214478922
45380.69531735
44688.682330411
44074.304419677
43545.359637524
43093.774615694
42712.730401026
42331.56030132
169926.97298936
859335.85803097
306402.2236706
303913.52984912
272696.09956727
285882.05474962
277985.68411391
224786.50815118
177961.57161319
162539.48129992
161724.51402692
168079.37619285
185309.79985239
209862.45554425
241760.0095599
282759.26001061
333207.34732912
386921.20518809
441715.63441382
487215.97870042
517067.43894536
532514.64154161
538106.68931886
538598.24771419
537603.48435115
537856.86914919
540820.63889844
546870.20076914
556424.18082268
569835.34277643
586878.63305401
607398.32659275
630904.71450943
656379.75048904
684436.96752096
720300.55298306
738949.45275334
732685.77412928
717999.9901451
701360.85477742
687932.65998012
667370.58014033
661819.35818672
659622.59682518
661102.62194637
666127.07755462
675663.18810686
689398.56760028
707177.39505894
728350.6650218
751963.26509435
777091.59761137
803576.82196502
831657.07293649
861755.46590287
894407.51533477
930071.17370962
968829.6388601
1010592.5553917
1056440.9544053
1112537.3986268
1223285.1551526
1262586.939629
1304611.0882029
1347579.8089908
1388879.0141625
1427491.4435953
1464370.3489509
1499651.4985201
1532984.3576309
1564433.788251
1593824.2667327
1621211.6162036
1647449.8438407
1671529.8202746
1694200.1217858
1714203.1620368
1732782.9830855
1750879.8547596
1766877.4253005
1783646.1896935
1807475.1967641
1847128.0918295
1898618.4817593
1892509.4041991
1627181.5284409
956363.67473416
316334.28863212
74284.613779626
20444.794859503
12692.060412442
10925.553224022
9944.7991392713
9237.0822957537
8693.1423062795
8292.0061286141
7883.7008783444
8922261.6691274
2390130.7329351
1990309.4159721
1646179.2467756
1351758.4383375
1092570.7842087
861485.22003688
676399.41361084
518801.44833911
404030.94897503
321636.0359693
260151.01389352
214049.30761739
180707.15943908
155802.31889801
136707.36738087
121541.73307882
109326.78840695
99375.145706952
91171.167967473
84331.235503628
78544.664773617
73598.556644548
69360.993956334
65718.704398381
62562.847278967
59806.650519137
57394.378484365
55293.546468605
53463.914297145
51863.979423024
50449.905334915
49187.924690497
48054.909726276
47031.843717153
46106.03440107
45262.792092458
44491.442290368
43796.281553934
43182.687921641
42648.206266112
42185.463239937
41784.348861171
50550.827403177
429359.44614458
456547.66445787
385236.30556294
428648.85537398
421156.42780723
388397.34265875
277971.28490166
171676.87437418
147062.96769083
148244.10763114
162496.18876115
188284.27670154
222698.7700592
266124.6635399
327512.0729883
392544.81397549
463290.56989981
535486.37259477
591289.24787372
626342.76382791
642565.8521482
648078.14422404
648832.20995114
649348.36600419
652008.68566463
658241.17425333
668012.65016885
681331.04291249
697923.53337194
717384.81711918
738734.78667349
759970.73709372
780722.20533554
802099.26342042
826995.34894947
852177.26061971
854210.59644451
846096.14460735
840016.00483176
840446.51969404
818004.01595662
826450.18098201
842470.38143718
865834.36339847
896412.72272427
932414.90037951
971197.74358554
1009584.6132813
1044482.0627012
1075511.3114648
1103278.9541125
1129226.5602678
1154678.2427685
1180325.0318928
1206407.1275331
1233219.4073103
1260968.5461774
1289680.1720139
1320015.8357003
1354623.7353469
1429565.8842856
1458258.1805295
1488051.3576056
1517529.1259288
1545758.825647
1572578.8199321
1598101.8302593
1622217.0731492
1644397.3887166
1665028.5382136
1684687.2579879
1702542.3938476
1719346.9770621
1734581.7625918
1749438.4085196
1764516.5139186
1779387.1849991
1793206.4787353
1807584.1874811
1822848.11016
1841216.4670771
1855556.0125424
1826592.3519884
1581754.6004354
998117.22155859
378243.28665613
100331.34852125
26229.040814321
14099.210895364
11742.044238045
10602.589812726
9795.001855905
9186.1789064601
8714.4776429955
8357.0103475165
7971.6883128602
10842165.140176
2101488.0331908
1721493.3956207
1502637.6365729
1291346.696795
1095648.630022
911678.79540321
745083.59439668
601775.72536969
476691.5617749
380223.38215608
309050.36387123
255017.27936718
211353.45174984
178883.68393966
154812.19905564
136329.22795887
121598.03814821
109519.37606464
99580.745641303
91361.10763407
84489.716747351
78665.390382781
73690.886550446
69410.108990341
65695.02560853
62446.968713774
59598.921926534
57103.099617134
54923.449048803
53023.173453135
51356.170252733
49879.461694678
48566.910081067
47397.094096545
46356.788330209
45429.52906939
44598.975215417
43865.646603708
43225.56127455
42662.147474665
42168.095081187
41740.41205793
41734.682353061
120864.2062347
394612.53188067
368072.84940155
446973.36539495
454436.60376259
372221.42482933
217877.50024905
133116.29497078
129556.40056152
143117.02094417
170540.88383701
208078.32670324
255969.78509737
323259.48823498
415071.2504745
518919.28519666
636442.01888381
722455.62524716
767719.26126505
789742.9368507
799702.6586584
803639.2589054
804273.54303689
805208.36627977
807748.63957327
812310.96612873
818843.74553945
827500.01763915
838723.04318645
853236.377027
872028.38862646
895981.03282583
925903.88614381
961823.83622864
1001009.0263709
1031926.2492703
1044536.6462575
1050147.2513396
1058805.641255
1072173.2596226
1058872.4775213
1079058.8216375
1103785.472194
1130915.616553
1160228.0020367
1189930.9823557
1218266.6979816
1243909.4741335
1266698.3606999
1287336.9600548
1306788.7113881
1326072.9658723
1345636.5403373
1365800.1566682
1386661.7906031
1408214.3378909
1430403.1542478
1453233.6272759
1476623.333519
1503084.4877533
1556627.3859654
1577842.9253833
1599309.2176487
1620119.001204
1639684.0332741
1657857.8541202
1674676.3715202
1690572.8652655
1705183.2231668
1718867.4232445
1731459.8478764
1743590.155286
1755779.2689479
1768470.31644
1781722.8757105
1794204.6754741
1804848.1990515
1811818.590187
1815466.1389816
1814715.5370474
1795801.3296575
1702394.9803214
1420056.3813544
890424.19594128
365654.20622418
108732.5535384
30064.813155855
15267.751275308
12464.625354744
11205.52166234
10326.614321896
9655.6169337326
9138.666115052
8735.8393008383
8415.0445741869
8046.1974342605
20542633.247641
2188599.1050292
1537151.90807
1354806.4450277
1205036.7821704
1056705.1519733
909846.59369967
770826.65961466
644072.04566932
532494.53054178
431380.95000967
351951.04109281
291279.43873559
244856.5886753
205970.98102617
175077.2643509
151796.90349954
133979.3693562
119908.83462042
108411.65739502
98829.688390652
90817.835017909
84075.484174055
78350.630727805
73445.949376493
69206.522257431
65512.613292698
62277.183722599
59433.452433603
56931.375965977
54733.876308776
52798.936602744
51087.932032854
49572.53413971
48229.891723945
47037.70359189
45976.162973235
45031.071190633
44208.378729222
43492.997158378
42875.183312766
42340.109580812
41874.757167207
41398.630311589
54012.509340776
153588.81846215
313398.25276926
370166.89775416
408895.42096215
305446.90300154
148329.17478022
111988.74877489
116260.55045104
138098.11362706
173109.80669195
227538.00674144
313239.31446406
434220.79515425
588130.90854003
736248.63257296
830182.55100168
903672.40210627
946914.60100971
963087.58571788
965447.78482432
962401.22205895
956513.51137364
950499.66983319
946448.81771054
945959.91388312
949767.78230112
959067.28375455
974884.4623494
998018.65210494
1029133.4639841
1067605.9382093
1110788.9450943
1153613.0634014
1188888.4682847
1209978.6812722
1218438.8788745
1224741.0385459
1234704.2690643
1248632.9541241
1245047.3222056
1264981.4998825
1286733.2245839
1309709.4927009
1332991.6264319
1355368.8925719
1376017.3329213
1394512.4212098
1411207.0332964
1426858.4672669
1442227.3803552
1457795.638293
1473816.1261202
1490355.5547745
1507315.2086278
1524539.4389789
1541927.604558
1559469.2024475
1577122.2941384
1596638.4531672
1631121.9455553
1646108.3862586
1661032.607326
1674931.1972472
1687668.4083517
1699653.7721239
1710612.5882836
1721094.2290082
1730834.8537869
1740520.9393947
1750305.2836751
1760553.0179419
1770617.5228956
1779998.8765996
1787255.9689679
1790657.7430239
1789065.1417143
1777679.4365305
1745656.6024596
1665581.8424162
1487340.1907267
1156495.030703
687607.41469033
296340.71943621
97160.911513662
30095.591710046
15875.294241307
12992.486785433
11704.872176322
10792.138019791
10088.040758651
9531.6194930157
9096.476827775
8751.5890759996
8460.5650055694
8104.123239601
40919099.567311
2500541.0160816
1528747.359748
1233861.3187528
1117055.8417906
1002577.4638246
886693.72481019
770314.65379042
660406.17456741
561518.54395667
473196.5112713
388903.5685753
323639.52475997
272696.7397044
232889.0259347
199168.76777269
170490.30835132
148306.38246673
131171.63105757
117643.57821534
106648.07364261
97498.536061795
89808.966694549
83297.758317216
77738.497376903
72957.399692466
68813.516984051
65198.879282962
62028.652571673
59235.523505312
56770.784200284
54594.859239661
52671.14841767
50965.412342569
49449.100311157
48098.309937868
46890.34951661
45814.867458791
44874.631668519
44058.837177949
43350.497219393
42741.35015132
42217.444159828
41769.731770614
42182.56344413
68413.536034726
148524.00006673
309770.44666213
290505.46507327
170459.96640863
112481.06131963
112962.71433505
129722.57556488
159916.25839146
207195.84387956
282506.73998771
390603.87680685
509511.76414592
641840.03390564
910015.45446046
1060770.0249463
1093287.0915931
1089418.5428536
1080631.0047802
1070670.0161536
1061459.1022368
1054356.3722229
1050472.3340957
1051279.1233833
1057214.2903069
1069941.5647338
1090918.1289403
1120800.5463235
1158677.1675246