/*--------------------------------*- C++ -*----------------------------------*\
| =========                 |                                                 |
| \\      /  F ield         | OpenFOAM: The Open Source CFD Toolbox           |
|  \\    /   O peration     | Version:  2312                                  |
|   \\  /    A nd           | Website:  www.openfoam.com                      |
|    \\/     M anipulation  |                                                 |
\*---------------------------------------------------------------------------*/
FoamFile
{
    version     2.0;
    format      ascii;
    arch        "LSB;label=32;scalar=64";
    class       volScalarField;
    location    "3e-05";
    object      p;
}
// * * * * * * * * * * * * * * * * * * * * * * * * * * * * * * * * * * * * * //

dimensions      [1 -1 -2 0 0 0 0];

internalField   nonuniform List<scalar> 
109340
(
358300.6786076
358122.9466826
356456.28072799
354176.34223141
351549.49533817
348793.27206451
345992.7106076
343200.87216482
340521.51011194
337921.3721283
335352.57969847
332813.3636429
330307.71963627
327839.27832893
325410.57016831
323024.23845277
320680.78428752
318379.23438554
316116.58212829
313886.91099291
311683.63595425
309500.21533127
307329.81773231
305165.04222741
302997.40791184
300816.48209176
298609.73350611
296360.02203933
294042.81355606
291586.13149908
288918.6191384
285793.27594582
281773.63278188
276145.88520329
267898.19270349
255682.5954017
358913.4139944
358259.05257251
356221.50934527
353698.90133563
350965.84302137
348210.37381645
345481.83693531
342789.54042738
340134.69527261
337517.08986755
334932.07637239
332381.29146381
329867.93487917
327394.42234633
324962.55981933
322573.17116297
320227.5301549
317924.00893253
315658.57884127
313425.121453
311216.64984627
309026.82413016
306848.84080293
304675.2837132
302497.3134884
300304.00678927
298081.88459014
295812.64655692
293466.50717607
290966.93571637
288215.30509412
284921.65368542
280574.00088485
274342.46319976
264999.41458199
250687.89473226
359825.95994615
358836.14879902
356450.34561394
353837.42233681
351139.8771664
348438.12036519
345724.07994702
343013.54936929
340332.02385929
337686.29638632
335075.54748469
332500.99751483
329965.24817498
327470.67924664
325019.87676629
322615.08349566
320257.27438328
317944.81659703
315673.05614978
313435.62624071
311224.46461417
309033.24301033
306855.04148605
304682.08552537
302505.24477533
300313.1858837
298092.31277487
295824.66936521
293473.28600053
290987.87113141
288245.05487806
284961.59536662
280610.7735423
274305.68080626
264606.24848974
248804.56563073
361102.64116018
359608.1055567
357027.70863305
354293.15512735
351509.00773847
348716.64731841
345931.76313671
343169.21122228
340445.50437231
337766.07546218
335130.52745802
332538.77443355
329991.62997931
327490.21745155
325035.78005813
322629.42810844
320271.74879102
317960.64889302
315690.52924662
313455.08898301
311244.81460965
309054.11303659
306876.29271758
304703.84678491
302527.77361867
300335.99257504
298116.90101751
295845.37217264
293500.5006273
291021.9139435
288291.69355366
285022.63781615
280670.93994745
274279.39599342
264112.29846874
245893.74744997
363130.73017664
360736.39745564
357559.60955186
354539.04531568
351638.85774772
348804.22785844
346004.87711631
343243.22542379
340522.01642684
337842.01181946
335204.9049801
332611.55776114
330062.97165529
327560.45097512
325105.50756224
322699.82614175
320345.16843743
318040.51127205
315773.67571328
313545.46119073
311337.94893409
309150.67586226
306976.3695206
304807.22373571
302634.57021402
300445.85848637
298229.98438125
295963.89339432
293622.52342023
291148.44246312
288434.33692372
285179.66817284
280827.43579539
274347.93631277
263690.42129309
241972.39675913
366925.05617999
361329.30564515
357680.65053751
354566.43560937
351660.56514652
348835.13764675
346047.1328297
343288.55397401
340565.39720954
337879.37948999
335233.41118592
332628.765385
330066.6313806
327548.33755101
325075.62172641
322650.34912601
320275.39567602
317960.36625354
315718.59245783
313482.61791501
311268.1579724
309073.30213084
306891.62343267
304715.46052016
302535.91990108
300340.69521443
298115.30268933
295843.20076858
293494.54338062
291019.24902862
288308.46130085
285064.83690193
280716.55329502
274191.63076631
263225.71422535
238150.46290497
238439.3972805
218216.64908902
200226.910975
185477.32218118
172386.52898977
159075.81226339
145290.08218827
130453.60634288
114788.72205683
98229.631400142
83575.28991584
69470.524152398
56925.569192718
46350.181641258
37711.817100843
30834.716720752
25336.00356537
20934.825505938
17413.082522416
14599.561885178
12330.664447519
10484.087232983
8971.282707374
7726.462549643
6698.8712347933
5840.2006479822
5116.1604451618
4503.1555293959
3983.016057691
3539.3662265753
3157.2609375451
2826.0743627037
2538.6974083919
2288.4400122083
2069.3135115141
1876.262941681
1705.5592674487
1554.3011836934
1420.0418545663
1300.3516192195
1193.3191849352
1097.4730173459
1077.4701021893
6829.434712383
6811.4765754907
6407.4542782254
3189.0106532218
3031.6631896199
3781.381948552
4578.3151079375
5388.5271436281
6170.2390017613
6900.5915275982
7549.2549845986
8092.9313928623
8501.0741650056
8757.5922353558
8863.0169469713
8849.9033303619
8759.7113658314
8615.7744863378
8395.4956742302
8075.3511094445
7643.1029244501
7127.0570834202
6577.3535141358
6030.9991854426
5535.0183846467
5119.5115319857
4811.2074460902
4603.6247493109
4529.0178172482
4636.8066676027
5000.7458946296
5615.1089792622
6383.6457447462
7201.3914971163
7724.1396595381
7944.6013177856
7969.2464497493
7835.0931239918
7587.0611746766
7154.5066856333
6590.363001018
5926.1521596911
5448.2918358233
5185.677089892
5179.4495291713
5289.6343356999
5517.2650029801
5826.6656811013
6001.3303548831
6074.5865471096
6095.2319343039
6086.3893482511
6071.8219495842
6048.381162827
6024.9916354533
6000.217794886
5978.375946723
5962.0360311408
5948.8986605758
5934.9072583727
5916.3197741443
5892.1639248709
5870.0666461004
5847.8730962752
5829.6741086606
5822.6114668682
5826.5296819421
5847.3215682707
5874.9820493402
5907.3860339429
5906.3959322553
5883.9616596559
5881.0854153558
5883.6659174395
5865.3482624907
5854.1423476078
5864.7415946565
5876.4851988118
5889.5464210231
5931.2220896398
5979.7980695162
6098.3988915698
6290.3225471521
6446.2445487664
6476.7895100595
6418.2104045511
6215.5841064473
6311.730260755
6375.5522149993
6328.974960559
6260.9455886552
6205.2086724755
6157.4542013061
6116.4440706307
6079.878665192
6047.1730516222
6012.5384081327
229810.06353663
207563.16141492
190346.18268405
176591.47745086
163659.57414671
150477.56114994
136542.00398722
121849.10305124
106378.01929409
91488.010137255
77102.745770226
64246.569341422
52846.262727388
43250.083261442
35375.16426602
29005.809254841
23905.007083987
19821.38977519
16547.443842942
13911.35574579
11776.569268625
10037.153441543
8610.8055582596
7433.4978017562
6454.0450548488
5635.1995281223
4945.633574893
4360.5183096491
3861.6963984567
3434.4960176522
3066.856251654
2748.742795556
2471.9683013127
2229.9902350396
2017.5806843202
1830.5800801237
1665.4033127832
1518.9658048014
1388.7027609294
1272.3729726398
1168.0953945437
1074.9324527809
1342.6939284412
6834.6708682181
6684.2594700579
6215.9434317357
2646.3688781538
3157.4880578717
3917.2048427442
4728.8790159992
5549.0279985792
6330.4533746341
7045.4469791727
7672.5048602952
8187.9339485344
8560.7429915641
8773.2731352498
8836.9644901056
8799.1237538648
8704.4051975801
8550.0360072384
8306.3859718507
7951.0569503731
7488.642362522
6961.2862607864
6413.6225432969
5887.3630978878
5417.8636987239
5039.5942057264
4760.5697298498
4586.9178790436
4556.809582554
4728.7816104551
5133.194257699
5765.5796611938
6559.6417600108
7389.6711728319
7811.6132111811
7972.6202430904
7924.5030950034
7753.7110116232
7447.4144857789
6964.8851018088
6387.6501288719
5903.5925805371
5456.1778266353
5207.2635516077
5191.5507698598
5303.343087162
5522.7849655367
5797.0170845627
5968.014230623
6068.4684678213
6105.3571394307
6102.371206004
6083.3825499273
6056.5393105184
6032.4946180062
6008.6446400957
5987.0008120982
5969.0845471331
5953.1693013456
5936.5933175395
5916.2053438736
5888.1140867605
5863.2405878642
5843.4847750931
5829.7137504139
5822.8476408036
5826.4259518495
5844.7788334277
5862.8812839512
5893.3084464959
5891.9096829053
5886.6014597731
5884.8294604654
5887.8620058996
5897.4606464702
5898.0163393043
5889.8174059596
5888.1973992254
5905.8229473029
5937.5009022538
5981.1222547189
6063.0948994231
6220.2920138799
6376.6246868853
6450.5799747078
6397.6172675356
6197.1257554729
6307.8975080854
6368.5468586793
6323.2301348837
6260.031020735
6205.347167584
6157.6655813857
6116.6407756766
6080.0129571811
6047.3995633772
6012.5757858936
223111.94414959
197028.11834624
179563.96730264
166074.41530051
153710.46860541
140807.90549776
127426.98207271
113656.42217152
99663.91834292
85980.985692375
73009.726562764
61203.776288526
50796.163201252
41885.950661118
34429.289413191
28344.830740517
23433.951597332
19489.645234405
16308.207771199
13731.220516732
11639.766373112
9934.4141420281
8533.2248436052
7372.9526955078
6405.8335757985
5596.6271895647
4915.0801143218
4336.1819497234
3841.9921351697
3418.2463630748
3053.42875172
2737.5959188842
2462.5456712545
2221.7666435073
2010.603620424
1824.7501940969
1660.5223829622
1514.8401423127
1385.1020804818
1269.1748277637
1165.5100781229
1072.822890206
1138.9724273212
6763.2849868407
6589.0206417826
6106.5673521229
2659.4513083549
3074.0025678381
3834.006161295
4659.5326263945
5495.780668086
6287.6779980463
7010.3578283926
7644.9151576966
8165.5900454634
8540.2462580958
8747.4361412273
8806.4099715882
8772.0864099547
8687.2935447768
8538.904517749
8292.2097819984
7925.006264546
7453.1299266971
6922.5357142441
6380.8696600927
5866.9852792812
5412.9563544436
5050.7781972862
4785.8544104775
4626.8410210875
4614.0709793657
4782.4008698994
5159.2575466483
5755.7538469467
6541.2700125594
7386.2426129011
7831.1792237699
7971.6017224018
7904.3155330426
7717.4266375888
7380.1964542593
6884.185858774
6313.4261519861
5865.1266030779
5456.7050505312
5232.0565621608
5213.4101453597
5332.1471248199
5540.7134346051
5786.640301145
5957.3574280009
6054.1378132941
6107.9858749195
6123.1444579219
6103.4567373505
6072.9950943269
6046.1054600216
6021.8134057229
6000.1833053608
5980.826940078
5961.5524174251
5940.8855981826
5916.6422455119
5880.8357681757
5854.2749231551
5838.2045556828
5829.7314503358
5826.8562213526
5835.2618058398
5857.7469805221
5880.5383600201
5907.9963770587
5924.0014497208
5935.745373068
5934.6165612935
5919.6165299545
5903.9879621451
5890.1706947565
5888.9136858585
5890.301088647
5904.9641085686
5923.8833860642
5964.2273718002
6023.7863836748
6161.0985221078
6305.3910241696
6426.7100769382
6379.1358806625
6192.1708127746
6316.6865628144
6355.7182393252
6314.5922694505
6256.2326199646
6202.2320423469
6155.396412028
6115.1367893406
6079.0826763184
6046.6476682161
6012.4812127162
210087.08944245
177175.91038169
161193.9319594
149425.19184627
137676.30468541
125935.21452459
114101.75954727
101871.81943323
90057.694535221
78672.379768485
67684.20676487
57443.215054156
48126.238634051
40005.040158954
33138.847808436
27443.895013712
22790.455384962
19018.361256928
15963.330706735
13481.912479469
11458.486976145
9793.7343050409
8424.2017287056
7289.2052155951
6342.8405653796
5546.2234706044
4873.7731652932
4302.4805886489
3815.057005901
3396.6200702104
3035.3469062069
2721.8531265662
2449.1727672061
2210.8817890273
2001.6597507202
1817.1760939021
1653.9528200909
1509.1774327858
1380.3365957065
1265.1693692688
1162.2583593968
1069.8339793942
1048.2384642247
6627.3693478527
6444.2154635175
5944.31835228
2770.4190492075
2962.3537925764
3723.9246009505
4561.3208130104
5414.1128758065
6224.5800875966
6958.5149221734
7596.7385111738
8118.9657912396
8494.7780322794
8697.4128411121
8756.332567421
8735.7080562684
8664.3456757171
8523.577868172
8267.9013916419
7882.9261759283
7400.4849146636
6866.8970353595
6336.3668127181
5840.6837883218
5412.4168531596
5071.9543105978
4827.1490089727
4694.4044148929
4705.8079188366
4872.1042759275
5216.814244833
5752.8305025685
6482.4721758992
7323.3736827353
7830.7706943266
7962.4747317658
7880.9666084642
7667.5636119786
7287.2478159481
6776.2447991653
6216.841012992
5820.181819266
5467.9334730654
5273.8201144366
5266.7989484092
5378.3657951699
5559.7952649927
5765.5201726542
5928.691841133
6038.5987447597
6109.6733499964
6141.299223676
6123.7163137245
6094.8353799389
6069.0944374646
6045.1674687046
6022.5962631386
5998.9139704186
5972.9167472981
5945.4623168229
5916.247602577
5879.65487017
5856.4323096177
5847.0931393428
5840.4918936748
5848.3909475695
5863.2084138785
5886.4772226605
5913.6927966195
5927.4599799796
5931.9558520175
5934.3164438797
5923.6429019189
5911.2173032583
5899.707260439
5888.9274298926
5877.8884342868
5877.4976828879
5883.6162377249
5897.6495353437
5933.2075818126
5991.8054871363
6121.3732301785
6244.74916723
6380.0921237908
6340.1546286728
6177.8645513816
6323.2347115618
6342.837031196
6301.3548175358
6248.3722109238
6196.6646308347
6151.6502680361
6112.6689092625
6077.509330952
6045.8292854818
6012.2904318876
181051.80928882
145794.60870641
133399.15957839
123767.39420038
114743.7281836
106061.98493492
97563.937119185
88851.560035331
80016.699099414
70867.930058377
61734.287417723
52985.949718318
44941.445746211
37763.043889963
31560.056855103
26333.44878969
21999.119315265
18441.36297917
15537.570705705
13164.157113924
11217.751669849
9619.3462213865
8288.9047657229
7181.3520926065
6257.8615547763
5480.6475083812
4821.7892700895
4259.3324332677
3779.8112654887
3367.599443116
3011.4485506605
2702.3470400717
2433.056841025
2197.1666701455
1989.7624920671
1807.1547438181
1645.5827912174
1502.1049880083
1374.26708216
1260.0200934993
1157.9353601934
1066.0226009889
1004.4299397829
6423.0150703743
6258.956556378
5743.7414657794
3126.7975168469
2811.9532505909
3575.9691193653
4430.2489267876
5317.2975562308
6154.7169526577
6891.8365236904
7529.0989494353
8055.2376247726
8430.6254209769
8626.9991733885
8690.0463721654
8688.3352137542
8636.7732063188
8507.6031286059
8237.396894161
7829.9800981117
7333.2720336941
6800.1222032531
6285.3005466294
5814.150648128
5421.2097344026
5108.0768063372
4889.9321493235
4789.5760706769
4824.8642800764
4997.3918933627
5303.8578038565
5762.8114225545
6387.0650746326
7161.2986269214
7777.8609757799
7930.7806162782
7854.0054877481
7604.3129979667
7178.5263058537
6625.5748143181
6118.0786583849
5773.4228391465
5483.7786686377
5339.8929809992
5341.4558538462
5435.2186041122
5584.0355940313
5748.5502263735
5898.2227439957
6018.8185381541
6096.5232922152
6134.4886550428
6122.5756520968
6102.131025472
6081.3113700357
6062.5192476809
6042.8103530452
6018.8816132979
5990.4485330411
5959.428673872
5925.6951188352
5873.2896471995
5874.5820343671
5873.5453029742
5876.0063096734
5885.8370670901
5897.0322037191
5915.9861160958
5929.6477839937
5929.5662083187
5930.5615228722
5925.9107039719
5913.6200709609
5899.9203666653
5888.0537572723
5876.2521378662
5863.4083039046
5862.8169995251
5866.4014101861
5879.3225028915
5920.4939073163
5971.4630399948
6085.1503500534
6201.2324015604
6338.2618798933
6292.0507239764
6173.4953177822
6321.806454964
6326.9517286005
6287.0103179501
6238.7760669348
6189.707046507
6146.9970604324
6109.631436996
6075.7310066531
6044.7902205365
6011.953302345
106697.04715566
92037.458328429
92309.9542622
91464.190878485
89215.037758834
85595.190649292
81444.682368509
76097.589723719
69719.126103941
62730.263292421
55488.73618922
48287.339664419
41466.22531775
35252.981752145
29770.455174981
25051.688948621
21075.150533034
17770.058106043
15040.840635084
12792.970614795
10937.242142182
9399.638967133
8125.3660006889
7057.2659545862
6158.3001908538
5401.3502286163
4757.4853798882
4207.1404576814
3737.1398768814
3332.564348812
2982.7131667383
2678.5504346123
2412.6926696998
2180.1197665313
1975.7222518107
1795.3873180657
1635.4804685741
1493.3377547731
1366.7669218422
1253.8060964205
1152.6052991638
1061.15092264
979.37825686133
6163.7180151186
6041.7925012294
5518.6261079998
3671.3211415402
2628.1684658386
3392.9049471788
4273.0916020207
5207.7627901741
6073.3319959488
6814.5651413364
7454.8034073377
7978.6483535489
8347.5701605502
8538.2596020177
8608.9943460981
8627.1126042527
8608.5837801577
8494.2250360394
8202.7492821689
7768.4743618984
7254.3799165895
6728.8514787063
6236.6884490397
5801.0041379568
5444.250541426
5166.5348543967
4980.9402172278
4919.0919707936
4975.0194880512
5150.6600637631
5414.7580185762
5785.5111117301
6285.7721173676
6928.1546161707
7619.7025014022
7862.1350459145
7815.705604718
7531.4362074079
7026.1628754798
6483.5519985211
6032.6246581765
5750.8552424594
5530.8696424534
5433.1795861279
5434.0381395084
5504.2321044342
5616.7498205248
5742.7335386117
5875.158551331
5997.0373427453
6078.7271677978
6123.4489338073
6119.7537687206
6108.4725133443
6094.7532878092
6074.7852450787
6052.3672736957
6026.0150747065
5995.4253886664
5960.4307097101
5925.6925230917
5925.3092651865
5932.1316008527
5913.3884974209
5911.5151646089
5918.6585968732
5921.6932221093
5929.9990077909
5931.5530328006
5929.4180009538
5923.5684392617
5914.4425838776
5902.2989714235
5888.1219713382
5876.2708664348
5863.6513501243
5853.243579837
5852.74090619
5855.7749804499
5876.0691079238
5907.1648091825
5963.0270255034
6064.3436587692
6173.2378623864
6302.3323722868
6235.5179925441
6186.59250561
6310.750596149
6311.4616167682
6272.3815069823
6227.7824919303
6181.9291434481
6141.6782103233
6106.0657021694
6073.5377094041
6043.5494750981
6011.6221142182
8465.6816123652
38506.177910618
53055.25555514
61743.828272472
66846.807628784
68319.152350851
67329.246244519
64697.796225941
60843.941582768
56046.405068069
50633.924732785
44943.17427131
39261.549685531
33879.950345644
28972.731893853
24637.983637576
20899.234353355
17729.748794495
15074.524006494
12864.553828483
11027.275689511
9497.000258972
8217.6902290404
7145.6364447935
6244.9409551545
5480.1215427509
4828.3809058576
4272.2774390221
3795.8080210814
3385.1862849351
3030.033995174
2721.291584183
2451.8740729693
2215.5748079731
2007.2258741122
1823.6324864708
1661.188335407
1516.9070042086
1388.2631513646
1273.0706046123
1169.9443430121
1077.4745600433
992.72104534403
4478.0361621117
5860.8960388882
5442.0893900073
4604.5851057455
2383.054433064
2971.8801431291
3833.0823601689
4816.6580385666
5763.3736205132
6563.6846142101
7228.4512184252
7773.3296891551
8176.5770312823
8403.5620081924
8483.5883765
8549.3392954136
8584.2028912137
8534.8335815179
8262.6846104671
7821.8997591853
7300.3745920667
6781.9516992515
6305.4076168261
5894.579766222
5559.0770634384
5302.6698347915
5134.5489568946
5081.2150026433
5129.1161788711
5265.7929184496
5476.580375991
5743.7343063567
6100.6949702551
6550.2152948728
7156.5082038464
7678.7207622035
7782.8394937757
7510.0005054588
7009.9235291976
6478.4586416935
6064.3494157481
5759.3201872877
5597.8082842591
5536.7676509457
5534.6411272278
5585.0661758913
5663.9056772596
5784.726264594
5901.3312435482
5999.5418319224
6065.6815947085
6097.3191287255
6107.4577208065
6101.3583246155
6090.7133653821
6073.9707747746
6053.6858792195
6030.1783626658
6002.0053580018
5971.0043253815
5942.9040320364
6085.4082329657
5966.6340111855
5939.9054836385
5938.989387734
5939.8612939814
5939.5925404328
5937.1363102189
5932.48613365
5923.9185600647
5914.8217643921
5901.9854936508
5888.989183245
5874.8865977226
5862.4227409926
5855.9810717867
5846.0976516545
5847.412315429
5861.6902858024
5879.0211355962
5908.6103865842
5967.7818393173
6049.5366795197
6157.5113574212
6248.3939592035
6158.2973426206
6233.5680771737
6307.8679820204
6279.8921364408
6249.2667992692
6208.4907984179
6168.6418420729
6132.3859833584
6099.7129713502
6069.6795765001
6041.4371842605
6011.1184825522
6070.2369166298
12888.11116939
22528.62093602
30394.252109253
36309.946609798
40314.756133213
42712.026389978
43150.57463533
42280.48121418
40400.628751372
37664.039530772
34397.435193236
30838.005250984
27247.683818244
23814.05371694
20651.943192938
17825.069569246
15356.034808567
13232.341821924
11422.851637483
9888.448488069
8590.3105409518
7491.0197301483
6557.4504824845
5762.3819837539
5083.5824198856
4502.3579412875
4001.7822377407
3569.8760798304
3195.18982566
2869.1715535829
2584.5180751638
2334.7543513324
2114.0372154188
1919.8981432699
1747.8801642064
1595.0513792742
1459.0371891225
1337.342427886
1228.0788565521
1130.1116387957
1042.0835096684
961.28861711125
3759.9020194412
5227.4999464324
4641.6495881666
3694.8965393595
2262.4087173566
2631.4478785616
3540.2457192391
4693.6997968779
5767.275314649
6568.5190540517
7208.9726565118
7705.747864135
8024.2695951694
8150.1089565343
8247.2618826746
8407.0361417153
8577.9333626873
8483.3990162057
8068.1173598522
7524.3666548916
6992.8851832447
6529.5000274756
6151.0404502692
5852.8755547219
5632.0083005705
5489.0107532156
5427.8967451141
5428.3299225535
5484.4664760396
5595.952925682
5747.7230020761
5931.4987728464
6135.2439573197
6362.0546898208
6668.8417684868
7171.0970615459
7418.1927642779
7042.0635401704
6564.1184324383
6201.9227518007
5983.6762244409
5866.0591148639
5797.6350122612
5769.8750521246
5764.9712206684
5789.7712226577
5847.4521967141
5912.9212471501
5970.1172253902
6013.5066541161
6045.2026759081
6062.8023911186
6076.9846994886
6075.4768933931
6069.2938567499
6057.0553316815
6041.6474562088
6021.9713504355
5999.1208418207
5979.7256509711
5934.167762104
5992.2071335312
5955.2348673807
5936.78407361
5937.4972520395
5936.1197286646
5931.5214280894
5924.2246909529
5914.5674242262
5903.9382667103
5894.5015814611
5882.829488838
5872.9353228473
5866.2357504582
5851.3690596613
5849.994839672
5848.1983063892
5855.1585503824
5861.7498694317
5881.2342020495
5916.8910952148
5968.0820850416
6042.3166513862
6126.0991821574
6139.6041684294
6149.4919622703
6244.7921721289
6250.9663176219
6239.0309392275
6214.1768508919
6181.4513573611
6149.2051640442
6118.4705197197
6089.9948818482
6063.4999543084
6037.9745279707
6010.2331271311
6244.6114882616
6764.9208473593
11070.198243359
16002.429024893
20423.7540131
24144.462542439
26919.443471914
28707.673018713
29392.202789133
29212.668411
28195.227467921
26583.172840441
24538.168214581
22262.801201949
19923.808671602
17653.254653108
15529.903454686
13599.94319773
11884.764089928
10383.340080863
9081.4215429375
7958.5644514348
6992.6815706646
6162.1464170834
5446.9734029399
4830.1362385651
4296.6050093782
3834.3542918972
3433.0698598896
3082.2567966167
2774.7118330006
2504.5636381025
2267.329447112
2057.983932393
1872.496177042
1707.7401969392
1561.1117186646
1429.4526756487
1311.4168828521
1205.8774689744
1110.8987397052
1024.9602171729
947.53015206863
1039.4550464273
4714.0859321661
3965.4644695691
3007.7464467003
2145.8353695617
2118.026955774
2922.581192195
4221.3799624163
5472.9653057139
6360.0489716701
7041.9034192932
7539.7670228183
7770.8099592855
7830.7977110275
7823.6175563241
8224.9782808205
8639.8423332171
8480.4532101003
7919.4839509737
7311.6127153657
6817.1843367425
6438.5198156223
6160.5485727841
5963.7627560685
5825.6933708663
5746.9171423163
5720.4252809826
5729.4696331313
5773.178569147
5837.5597613636
5919.364980829
6028.0692620341
6131.6422468752
6228.8652061074
6349.5288869871
6560.0915562022
6801.3912381067
6645.528014389
6358.9048451034
6171.0923123647
6064.5463351568
6026.0019491097
5979.4211560934
5962.3481810514
5959.873798087
5966.8387294198
5977.3936691997
5995.8901566127
6014.7164477083
6027.7945615592
6036.7378904671
6040.2731464041
6040.6452009471
6039.3152393258
6034.9024378097
6025.7244164669
6014.5902651937
6002.1555591979
5988.9798304512
5977.9071447906
5922.020240518
5964.3382396848
5949.0059883713
5938.448006899
5934.1291409533
5928.3287430326
5920.7260585623
5912.73902961
5904.2190440765
5894.468081646
5888.2926198341
5880.1075566078
5869.6497303901
5864.0352244693
5858.2409932564
5858.0153209635
5857.0764134013
5862.2926052615
5873.8435909684
5896.2133367806
5930.7282486125
5980.7467811696
6038.0816754027
6068.1560332917
6099.3511327009
6175.6296440925
6205.089976434
6208.6972381719
6200.2163958164
6180.1455464286
6155.2004516388
6129.6193019818
6104.1689585442
6079.8440198786
6056.8528727129
6034.2079659911
6009.2526463595
6208.1261209192
5553.3726547794
6770.7752581663
9635.252705448
12642.40462871
15440.211653909
17826.85796028
19634.042251363
20780.09722614
21243.698097775
21113.589242697
20447.883327287
19371.904101536
18007.280590554
16479.716903921
14900.788864905
13352.121921507
11888.664657551
10542.080327123
9328.1994976632
8249.2002397094
7298.5734875987
6465.8438166938
5738.8230634262
5104.9525942545
4552.2983542444
4069.8368843609
3647.6070054636
3277.5028740717
2952.4636949114
2666.6753410971
2414.9501761106
2191.8233735088
1994.0959833487
1818.1543534143
1660.7963680057
1520.1679573262
1394.3856806164
1281.4722311314
1179.8943837642
1088.2346710866
1005.4582908082
930.09124910918
859.61198111465
3935.7186116777
3431.9050145676
2577.2600598153
1921.434335615
1828.7860272857
2345.0824209679
3059.7874963453
4256.3888058819
5553.0859441545
6596.8089566546
7280.5358043616
7555.6454070265
7498.0600456948
7458.3235434833
7960.6571428245
8755.1184336567
8428.5087183678
7679.1399878127
7069.5609291558
6660.2716685444
6393.3844118804
6215.9862264583
6090.3453179799
6004.6979705791
5961.780087184
5947.7580568752
5951.1758637824
5970.8634918238
6005.4107976431
6047.7778127177
6096.8436800237
6142.7897992735
6184.4867661258
6232.4656308824
6306.2458221305
6383.0977433753
6350.8176009049
6248.2023829968
6165.0126378103
6113.465434197
6082.8488261976
6061.3228286731
6061.6842880404
6044.327313476
6041.5149892776
6037.1476832956
6035.7789473997
6035.9293813392
6035.2551767284
6033.3229771212
6030.338079022
6026.3762314466
6021.5871602903
6015.7104744138
6008.2322490743
5999.8199957176
5990.5938063554
5980.8903021186
5970.84522958
5941.0656573929
5954.1756990785
5945.4714044103
5937.7574445865
5931.216774153
5925.1484686921
5918.214880521
5911.4324158813
5906.8157464888
5895.1963277217
5891.314348543
5883.5309556351
5878.3779843237
5873.4243457203
5869.1773404242
5867.2671770443
5869.9076368557
5877.9375767236
5892.6641807696
5916.2026022551
5951.0511521582
5983.2761277448
5999.8506465377
6060.3839314514
6121.07007125
6151.6052887242
6168.2570677153
6172.4713804685
6163.8519266707
6148.7848749398
6130.3036714438
6110.5361337382
6090.0205910433
6069.6830309121
6050.0547188848
6030.3225288941
6008.2611763722
6099.5263431803
5651.0194275251
5166.6924363361
6448.6853838606
8448.2132522037
10476.438325639
12324.65300527
13870.858234899
15003.931468482
15661.283107372
15943.994237185
15815.925696619
15283.08049779
14508.106266702
13544.723767894
12479.070554712
11380.092654298
10295.392529508
9261.4261159786
8300.1711759121
7422.9716068267
6633.0069429668
5927.7854450992
5301.7132927582
4747.9262560657
4259.1271111263
3828.0040522422
3447.6037771031
3111.4120147118
2813.8923925652
2550.4061441908
2316.058642099
2107.5031125533
1921.8718497103
1756.1890618204
1608.0447951659
1475.1973941982
1355.6084521907
1247.8167083498
1150.4901237592
1062.5690127096
982.91989970163
910.65288606495
843.72651313421
1421.6542649094
3144.7318563985
2391.4727078492
2214.8682300129
2391.7328789504
2731.2317341037
3256.9053857975
3718.8751412775
4121.3722581952
4579.4622741965
5012.8378894981
5452.002384344
6129.2259000356
6864.9037879419
7648.4013976005
8862.095705601
8264.1333377012
7377.3856199055
6831.2854971791
6529.6533858746
6356.4316972599
6247.5908047114
6173.3440698252
6124.3721938829
6097.3104922301
6086.2182239075
6084.6406136573
6092.0185916437
6106.5064394871
6122.8651630351
6139.4920473661
6155.549436147
6170.6074461176
6187.3314044034
6208.015364956
6223.6926092176
6214.0012153658
6181.5963812976
6147.6018145372
6120.0080665169
6103.790915265
6091.4438112919
6085.7537401862
6074.2678534223
6066.5121836883
6058.7130581469
6051.686825199
6045.6593454118
6039.6714095903
6033.5150804934
6027.2697892978
6020.8433379417
6014.202761971
6007.2615329579
5999.8976341672
5992.1683904413
5984.1257590331
5975.8507635143
5967.1086294629
5950.4180808063
5952.5843829215
5946.7651396113
5940.4336684756
5934.3844805458
5929.8001688418
5924.3019317068
5916.1508452959
5911.702679683
5904.3120287814
5899.6265997293
5892.9595133805
5887.362142941
5883.1741977452
5880.978606244
5883.0669740466
5888.4523710208
5899.1829646832
5916.2676558724
5933.5050195765
5943.6821290796
5975.5009583995
6022.8097479163
6080.2317864369
6102.0330122802
6123.4101396861
6136.7273680138
6138.3205948516
6132.5062199139
6121.8556809962
6108.1878633745
6092.9271441741
6076.5772326815
6059.9120524147
6043.398015029
6026.4537890484
6007.2763496548
6065.9936986299
5842.3691003578
4919.3038211208
4879.7013871798
6021.0778588934
7464.9079225488
8848.0724908934
10062.913209138
11062.105015717
11805.534020825
12241.304455662
12281.073373082
12112.089960926
11695.842649495
11113.024535405
10413.527027385
9647.2603863725
8858.2944290786
8077.5533135725
7329.4379596882
6628.8495882843
5983.149045776
5395.0402925102
4863.7495014668
4386.575824721
3959.6450472579
3578.6959148049
3239.2780114037
2936.8367555732
2667.0985972967
2426.3027980197
2211.0789997482
2018.6167584427
1846.2246533524
1691.4145689302
1551.9178886526
1426.1222605765
1312.8277852363
1210.551617795
1118.0601225203
1034.1831518896
957.97989785512
888.75540765204
825.60104942898
776.90511232134
2735.7110201277
2603.0321398556
4358.0605952127
3779.4531830663
4016.6868892212
4223.9176897871
4445.0972998037
4713.5528197937
5016.4516802145
5189.9790036346
5064.5722616534
4816.8695161261
4932.7636353238
5591.3940691442
8295.3132170916
7934.1724559983
7083.861063635
6636.2171383391
6428.673905071
6317.5052992195
6250.606422371
6207.2312443955
6179.2294701521
6162.7925745932
6153.4737749928
6149.2754398335
6148.5739667001
6150.3626678798
6153.4884254223
6156.9018640616
6160.0666828855