/*--------------------------------*- C++ -*----------------------------------*\
| =========                 |                                                 |
| \\      /  F ield         | OpenFOAM: The Open Source CFD Toolbox           |
|  \\    /   O peration     | Version:  2312                                  |
|   \\  /    A nd           | Website:  www.openfoam.com                      |
|    \\/     M anipulation  |                                                 |
\*---------------------------------------------------------------------------*/
FoamFile
{
    version     2.0;
    format      ascii;
    arch        "LSB;label=32;scalar=64";
    class       volScalarField;
    location    "3e-05";
    object      pTsat;
}
// * * * * * * * * * * * * * * * * * * * * * * * * * * * * * * * * * * * * * //

dimensions      [1 -1 -2 0 0 0 0];

internalField   nonuniform List<scalar> 
109340
(
358299.25786154
358124.3492732
356456.67499426
354176.44297957
351549.5007438
348793.23412646
345992.64432183
343200.92751343
340521.59197798
337921.43604664
335352.62784764
332813.39925854
330307.74438159
327839.2953336
325410.58100637
323024.24424127
320680.78589149
318379.23261059
316116.57781216
313886.90431564
311683.62719631
309500.20531888
307329.80680167
305165.030878
302997.39598881
300816.46990235
298609.72123877
296360.00982409
294042.80695594
291586.12362927
288918.60807594
285793.26642816
281773.62515168
276145.87940573
267898.18764022
255682.59131289
358913.65283062
358259.66067543
356221.66842185
353698.94919897
350965.84633244
348210.38261941
345481.89475183
342789.59571967
340134.73636405
337517.11960568
334932.09673659
332381.30713347
329867.9451571
327394.42802058
324962.56073735
322573.16891395
320227.52515818
317924.00153442
315658.5695189
313425.11084804
311216.63794381
309026.81127092
306848.82722899
304675.26907642
302497.29894152
300303.9920893
298081.86976742
295812.63153227
293466.49431043
290966.91616421
288215.29187364
284921.64230194
280573.9918223
274342.45639429
264999.40905033
250687.89220947
359825.94142225
358836.40977992
356450.46165335
353837.50729558
351139.95519137
348438.18006673
345724.12458668
343013.58187989
340332.04671403
337686.31365019
335075.56123404
332501.00838493
329965.2572782
327470.68696783
325019.88298589
322615.08816107
320257.27741735
317944.81799538
315673.05602401
313435.62479716
311224.46205697
309033.2394541
306855.03719521
304682.08064951
302505.23940307
300313.18020049
298092.30649612
295824.66276255
293473.27147312
290987.86371458
288245.04750336
284961.5885015
280610.76769318
274305.67580582
264606.24366432
248804.5600478
361102.31979907
359608.25922328
357027.85428729
354293.22616865
351509.05091383
348716.67871712
345931.78861017
343169.23291863
340445.52101626
337766.08691734
335130.53432162
332538.77779446
329991.63100271
327490.21696556
325035.77866761
322629.42611544
320271.74635487
317960.6460904
315690.52611474
313455.08558105
311244.81101572
309054.10916287
306876.28855922
304703.84240287
302527.76899488
300335.98788918
298116.89593973
295845.36443191
293500.49455064
291021.90766828
288291.68666001
285022.63116802
280670.93389961
274279.39130832
264112.29288846
245893.74198207
363130.43539571
360736.49225557
357559.63741441
354539.04943476
351638.8555993
348804.22583177
346004.87730441
343243.2260535
340522.01699063
337842.01167279
335204.90455623
332611.55716359
330062.97095009
327560.45019687
325105.50676358
322699.82536281
320345.1677127
318040.5107303
315773.67518276
313545.46068034
311337.94896695
309150.67516655
306976.36862546
304807.2220926
302634.56800405
300445.85613195
298229.98084949
295963.88932273
293622.51907438
291148.43458247
288434.32910996
285179.65924511
280827.42642658
274347.92751486
263690.41380228
241972.38289928
366924.77123165
361329.32587545
357680.65551746
354566.43720639
351660.56570885
348835.13766561
346047.12469596
343288.55552499
340565.39765987
337879.37876166
335233.40981753
332628.76351758
330066.62903859
327548.33475394
325075.61846711
322650.3454214
320275.39156066
317960.3618852
315718.58781036
313482.61317707
311268.15318431
309073.29731872
306891.61859524
304715.45563607
302535.91493922
300340.69000125
298115.29682857
295843.19400535
293494.53529832
291019.22448689
288308.45960695
285064.82443531
280716.53847512
274191.61359941
263225.69628077
238150.43728994
238439.38916692
218216.64391113
200226.90508139
185477.31961965
172386.52981586
159075.8201137
145290.09856118
130453.63329668
114788.74898862
98229.674431098
83575.348395665
69470.589844471
56925.64256164
46350.256581241
37711.890349576
30834.78660184
25336.06888587
20934.885860611
17413.137950459
14599.61216567
12330.71053969
10484.129357091
8971.3212961664
7726.4976993106
6698.9034513836
5840.2302845658
5116.1879388568
4503.1810643429
3983.0395851839
3539.3878385254
3157.2809721694
2826.0929841502
2538.7147800132
2288.4562630699
2069.3287514338
1876.2772144799
1705.5726273844
1554.313676255
1420.0535751467
1300.3626865602
1193.3297751593
1097.4832130655
1077.4388860832
6829.3183893692
6811.4787453842
6407.4588771211
3189.0368383418
3031.6569539419
3781.3773229885
4578.3117747284
5388.5252110335
6170.2382638566
6900.5912547155
7549.2552706368
8092.9309876509
8501.0726992288
8757.5895015182
8863.0135251341
8849.8995543388
8759.7082208775
8615.7729015643
8395.4963672817
8075.3554905088
7643.1117302267
7127.0691205171
6577.3715954773
6031.0207705326
5535.0414332792
5119.533038372
4811.2266277433
4603.6383659442
4529.0247965528
4636.7942743121
5000.7085546954
5615.0554546398
6383.585483529
7201.3442387313
7724.127649609
7944.6015008444
7969.2599542331
7835.1135713283
7587.0892162832
7154.5483399836
6590.4119643382
5926.1946717857
5448.3142514665
5185.671957886
5179.4260160847
5289.5970121965
5517.2120760296
5826.61498212
6001.2976493951
6074.5607194853
6095.2183356988
6086.3755813052
6071.8139927791
6048.3736207464
6024.9845907302
6000.2112283626
5978.369458326
5962.0297413111
5948.892567302
5934.9019445181
5916.3149597833
5892.1573973105
5870.0579525063
5847.8634112029
5829.6647508113
5822.6005424295
5826.517849748
5847.3095109612
5874.9718353827
5907.377710893
5906.4023925883
5883.9634206695
5881.0731349816
5883.6707753301
5865.3533451868
5854.1397622031
5864.7394847844
5876.4977130887
5889.5650274082
5931.2373905346
5979.85104496
6098.3838475522
6290.2893099729
6446.2344292786
6476.7956085849
6418.3768120354
6215.9576118209
6312.2332561981
6375.6116472327
6328.9647224182
6260.9429557214
6205.2089117575
6157.4545865251
6116.4443219467
6079.8788056865
6047.1727435585
6012.5370783284
229810.05682784
207563.15570203
190346.17739534
176591.47218375
163659.5721826
150477.57080046
136542.01945348
121849.12933946
106378.05993878
91488.059681698
77102.806942903
64246.63692985
52846.334901769
43250.156002337
35375.235560029
29005.877127187
23905.070396057
19821.448267411
16547.497574648
13911.404929429
11776.614275248
10037.194649974
8610.8430936427
7433.5321794762
6454.076649563
5635.2285457201
4945.6604288869
4360.5431120312
3861.7192894159
3434.5171879033
3066.8759476674
2748.7611441488
2471.9854295226
2230.0062320565
2017.595649209
1830.5941144902
1665.4164959689
1518.9781978655
1388.7144265181
1272.3838856418
1168.1057048931
1074.9431510262
1342.41217989
6834.7024176617
6684.2601030625
6215.9501848545
2646.3534389361
3157.4819251173
3917.2001281428
4728.876110801
5549.0266970105
6330.4530487346
7045.4478615814
7672.504989092
8187.9332385945
8560.740966223
8773.2700695337
8836.9607816443
8799.1198364873
8704.4023128915
8550.0351006078
8306.3881875904
7951.0634828497
7488.6538342234
6961.3020373873
6413.64258591
5887.3860408308
5417.8870653557
5039.6154608058
4760.5871106525
4586.9278831302
4556.8115971884
4728.7622388967
5133.1567692253
5765.526978421
6559.5844944002
7389.6312796023
7811.6014641364
7972.6214650485
7924.5177173039
7753.7317771288
7447.448636563
6964.9314931217
6387.7000170744
5903.6362094178
5456.2008009086
5207.2610573601
5191.5275388386
5303.3066651671
5522.737365245
5796.9728243102
5967.984677501
6068.4449331751
6105.3408823917
6102.3594057278
6083.3750301308
6056.5321164686
6032.4879312892
6008.6381492517
5986.9942952476
5969.0782519278
5953.1634227897
5936.587941704
5916.2007449451
5888.1076016448
5863.2330810266
5843.4785437673
5829.7064901988
5822.8403365928
5826.417097602
5844.7700578379
5862.8737200579
5893.2994563927
5891.9130433757
5886.5988947977
5884.8277494026
5887.8608000731
5897.464425118
5898.0326646359
5889.8501599508
5888.2188919235
5905.8320787366
5937.5051855072
5981.1219105902
6063.0297201785
6220.2082154067
6376.5715930048
6450.5630726943
6397.7540155147
6197.484605695
6308.3908263414
6368.5949394791
6323.2199135632
6260.0298786856
6205.3474661085
6157.6659133503
6116.6409682043
6080.0130539956
6047.3993042622
6012.5745459491
223111.93183501
197028.10550944
179563.95470041
166074.43517042
153710.4806909
140807.91009991
127426.99526253
113656.45173192
99663.952844402
85981.03382055
73009.785417035
61203.842873311
50796.232825108
41886.021972469
34429.358950769
28344.897202735
23434.013903362
19489.702870299
16308.260907878
13731.269445505
11639.811069725
9934.4550965074
8533.2621155778
7372.9869731648
6405.8650361328
5596.6561203524
4915.1068110719
4336.2067932562
3842.0149964634
3418.2674821345
3053.4483681575
2737.6141836115
2462.5627311538
2221.7825895454
2010.6185523921
1824.7642087802
1660.535530895
1514.8524987517
1385.1136764693
1269.1856964281
1165.5204628401
1072.8324644656
1138.8504213727
6763.2872670907
6589.0213477877
6106.5744233695
2659.4512006197
3073.9966438847
3834.0018169032
4659.5300667228
5495.7798195682
6287.6776728848
7010.3576801473
7644.9148287395
8165.5886453185
8540.2434338506
8747.432308822
8806.4056774676
8772.0819170148
8687.2902663091
8538.9034596976
8292.21239939
7925.0138421387
7453.1423810329
6922.552742206
6380.8911454812
5867.0092002305
5412.9802798271
5050.8001564712
4785.8725485853
4626.8510269254
4614.0719010693
4782.3858071614
5159.226952841
5755.7089857983
6541.2144219318
7386.1979355067
7831.1670970231
7971.6014079726
7904.3295428861
7717.4487988082
7380.2335773212
6884.2386578842
6313.4815268665
5865.1678422047
5456.7266493092
5232.056255716
5213.3865894796
5332.1134205786
5540.6705992419
5786.6020246082
5957.3308714288
6054.117292233
6107.9722438135
6123.1365266798
6103.4519495902
6072.9894272339
6046.0994197183
6021.8073420533
6000.1772885749
5980.8212756327
5961.5468800084
5940.8803499834
5916.6378814337
5880.8300616829
5854.2685226223
5838.1962578569
5829.7252611428
5826.8493495951
5835.2519560711
5857.7403569419
5880.5310937884
5907.9913189005
5923.9994263958
5935.7485650195
5934.6321174764
5919.647016596
5904.0141879355
5890.2003280525
5888.93677608
5890.3107165455
5904.9599556138
5923.8664394232
5964.1949901696
6023.7019037176
6161.0009705202
6305.3026853537
6426.6721488244
6379.2702679609
6192.5526399119
6317.1527981786
6355.7405013547
6314.5813205576
6256.233046943
6202.2323985763
6155.3966509046
6115.1368973167
6079.0827327766
6046.6471791321
6012.4798737082
210087.0854919
177176.01218239
161193.93489704
149425.17830852
137676.29595457
125935.21492223
114101.76982954
101871.84167086
90057.72861386
78672.423991287
67684.262985701
57443.277693317
48126.305739633
40005.1083302
33138.915132824
27443.959751439
22790.516406762
19018.418090597
15963.382693652
13481.960700584
11458.531337431
9793.7747541792
8424.23902186
7289.2391451923
6342.8719650535
5546.2523531686
4873.7999232384
4302.5056550048
3815.0797198878
3396.6410612244
3035.3662961125
2721.8713096812
2449.1897616937
2210.8976956793
2001.6746524582
1817.190066652
1653.9659142023
1509.1897381574
1380.3481494513
1265.1802887671
1162.2688610027
1069.8437822199
1048.1918166947
6627.2711932155
6444.2180876535
5944.3210432973
2770.4143354437
2962.3482066724
3723.9206254156
4561.3185070867
5414.1120406788
6224.5796994466
6958.5149304383
7596.737771793
8118.9637747847
8494.774511925
8697.4083368768
8756.3280501331
8735.7034138705
8664.342389665
8523.5770750681
8267.9050298849
7882.9350762295
7400.4991354847
6866.9162356662
6336.3898464235
5840.7088694825
5412.4412963242
5071.9766573181
4827.1668622473
4694.4145658242
4705.8056049902
4872.0929494523
5216.7908638278
5752.7941231398
6482.4231802722
7323.3251087649
7830.755024468
7962.4737103486
7880.9798031078
7667.5873282394
7287.2881890033
6776.2883876955
6216.889839067
5820.2194730423
5467.9529358662
5273.8188686225
5266.7779954721
5378.336472665
5559.7600262812
5765.4886947584
5928.6685431265
6038.5821790771
6109.663439666
6141.2967342696
6123.7148821056
6094.8318135291
6069.0901176357
6045.1626247408
6022.5910637227
5998.9087401908
5972.9115573897
5945.4569622699
5916.2421123014
5879.6487716309
5856.4262337748
5847.0854773733
5840.4847782541
5848.3840657496
5863.2033074775
5886.4745614757
5913.6946177578
5927.476075385
5931.9714633764
5934.3427255242
5923.6666249608
5911.2406559215
5899.7247136419
5888.9411721067
5877.8983320915
5877.491523801
5883.6065779145
5897.6258736521
5933.1690481497
5991.7308178689
6121.2778216032
6244.6612341074
6380.0359471408
6340.2815593077
6178.3041780059
6323.6147054232
6342.8279887891
6301.3478178639
6248.3725341949
6196.6647606773
6151.6505224521
6112.6690452399
6077.5094271273
6045.8288137235
6012.2890794153
181051.75432639
145794.84606132
133399.12684552
123767.35968449
114743.71767028
106061.98473215
97563.950688233
88851.583135335
80016.732621269
70867.973300067
61734.34011253
52986.008906806
44941.509848325
37763.109106176
31560.121594158
26333.511346247
21999.178702307
18441.418486437
15537.622099537
13164.204554765
11217.795551632
9619.3861275013
8288.9414062228
7181.3855400656
6257.8927048285
5480.6760173119
4821.8153062173
4259.3572888739
3779.8338798662
3367.6204441322
3011.4680055739
2702.3651697577
2433.0737214397
2197.1825268132
1989.7773364835
1807.1686563193
1645.5958455375
1502.1172654077
1374.2786066864
1260.0310611555
1157.9457756517
1066.0320975941
1004.4131087237
6422.7965828302
6258.9634136971
5743.7425261044
3126.8619187106
2811.9478559631
3575.9655246101
4430.2470866776
5317.2970999447
6154.7170752889
6891.8362583061
7529.0975596672
8055.2347163631
8430.6210431024
8626.9938813435
8690.0410438558
8688.3306414329
8636.769606805
8507.6029381837
8237.4018924551
7829.9910032405
7333.2890832444
6800.1431588575
6285.3254403859
5814.1768563999
5421.2351458171
5108.0998918156
4889.9504642401
4789.5870379482
4824.8670074268
4997.3918655571
5303.8429216868
5762.7842888324
6387.0236710756
7161.2470844266
7777.8370454093
7930.7779810524
7854.0168593432
7604.338458706
7178.5730474333
6625.6304354215
6118.1222683247
5773.4545061645
5483.7916346939
5339.8897800035
5341.4392340219
5435.1947184527
5584.0084075163
5748.5268363287
5898.2031270706
6018.8061791551
6096.5153364396
6134.4918199385
6122.5799300567
6102.1510957888
6081.3111995879
6062.5163249933
6042.8063144196
6018.8770157392
5990.4436620983
5959.4235219775
5925.6898543939
5873.285558832
5874.5786331961
5873.5441598061
5876.0062984846
5885.8424631391
5897.0459641652
5915.9978413516
5929.6737016034
5929.5855801486
5930.5750539231
5925.9269808754
5913.6316694361
5899.927762317
5888.0586394045
5876.2547164039
5863.4090017761
5862.8096397563
5866.3956897578
5879.2907366779
5920.4634406674
5971.3997042619
6085.06503724
6201.1433237884
6338.2079163115
6292.2000423057
6173.9915035638
6322.0576109728
6326.925770444
6287.0123514212
6238.7788957397
6189.708382905
6146.997682492
6109.6318734282
6075.7313113982
6044.7898479919
6011.9521899778
106696.86875852
92037.437878044
92309.936772552
91464.181760472
89215.040421635
85595.197543456
81444.695476937
76097.613755864
69719.159741442
62730.305102359
55488.785829225
48287.395458139
41466.285270137
35253.043844721
29770.517080364
25051.749163437
21075.207969623
17770.11208845
15040.890923655
12793.017145941
10937.285017482
9399.6784818281
8125.4024068148
7057.299083632
6158.3302038656
5401.3779008976
4757.5124155087
4207.164829129
3737.1622799667
3332.5851765469
2982.7324624709
2678.5685224279
2412.7094713048
2180.1355618329
1975.7369963647
1795.4012127528
1635.4934445166
1493.3500002453
1366.7784818985
1253.8171008546
1152.6155596817
1061.160811174
979.375696432
6164.0729237651
6041.8012580591
5518.6253122909
3671.3329727039
2628.1637392188
3392.9018191169
4273.0964822113
5207.7624252373
6073.3322946486
6814.5642811463
7454.8010920062
7978.6442509515
8347.5646366713
8538.2536202279
8608.9883095055
8627.1072884303
8608.5795489166
8494.225664865
8202.7561424937
7768.4877484755
7254.3998260469
6728.8754485751
6236.7156138525
5801.0314475127
5444.2766747411
5166.5585756197
4980.9594157267
4919.1039788676
4975.0247050846
5150.6584251296
5414.7501889125
5785.4910378549
6285.7406265837
6928.1016590371
7619.6661230408
7862.1350762643
7815.7141646993
7531.4732343405
7026.2095135284
6483.5983167717
6032.6611304228
5750.8814363812
5530.8797534177
5433.1769053354
5434.025693254
5504.2146109324
5616.7297403932
5742.7162955047
5875.1421614201
5997.0255492451
6078.7244603175
6123.4526400827
6119.7557813792
6108.4570724795
6094.7522967009
6074.7831227354
6052.3639972865
6026.0113508179
5995.4218149772
5960.426921757
5925.688764044
5925.3131034351
5932.1371378022
5913.4014423203
5911.525739683
5918.6771253401
5921.7088741083
5930.0113492089
5931.5680428849
5929.427579764
5923.5752911388
5914.4479105303
5902.3013300607
5888.1244712806
5876.2719765472
5863.655617164
5853.2385120138
5852.7374988417
5855.7645642444
5876.0397955541
5907.1374548045
5962.9702130858
6064.2712104052
6173.1519995243
6302.2786425415
6235.6918897251
6187.0167534578
6310.8604737572
6311.4467189787
6272.3755661497
6227.7846417618
6181.9314410249
6141.6800397149
6106.067003984
6073.5386049431
6043.5494537856
6011.6211022649
8465.6796011632
38506.173628508
53055.257887582
61743.832203647
66846.814943718
68319.164538538
67329.266054032
64697.820698559
60843.972617901
56046.443206743
50633.969764535
44943.225408892
39261.605350003
33880.008609499
28972.790973994
24638.041818416
20899.290317655
17729.801845365
15074.57369542
12864.600067652
11027.318501873
9497.0397367796
8217.7266197087
7145.670044824
6244.9722757673
5480.1510541109
4828.4086120997
4272.302350274
3795.8307447957
3385.2073667025
3030.0536842912
2721.3098920526
2451.8912466775
2215.5905704302
2007.2408873543
1823.6465127598
1661.2015309402
1516.9193746095
1388.2747883032
1273.0815994068
1169.9548618265
1077.4842401467
992.72901141473
4477.6337382272
5860.9058856818
5442.0896470825
4604.6018214403
2383.0528766639
2971.8772521682
3833.0810582863
4816.6574386795
5763.3734046692
6563.6832974179
7228.448163026
7773.3247204073
8176.5704582057
8403.5551217201
8483.5815733633
8549.3332882324
8584.1969307084
8534.8342338032
8262.6921622776
7821.914693988
7300.395949773
6781.9770966076
6305.4353951202
5894.6079875077
5559.1040020374
5302.6939735149
5134.5691086761
5081.2282286575
5129.1218345172
5265.7911947886
5476.5724869477
5743.7202653785
6100.6707011092
6550.1804023884
7156.4747783564
7678.6961057574
7782.8453981582
7510.032800125
7009.9730373748
6478.5029273571
6064.3806969377
5759.3395969206
5597.8140143653
5536.7659112424
5534.6322930227
5585.0531298988
5663.8895056853
5784.7121220939
5901.3188866266
5999.5351415863
6065.6798760574
6097.3212970501
6107.4598203022
6101.3595498661
6090.7140997725
6073.9704124243
6053.6846711068
6030.1775515086
6002.005483707
5971.0072227224
5942.9059966812
6085.427888516
5966.63515073
5939.9132864138
5938.9968523094
5939.8705128838
5939.5981359345
5937.1411880752
5932.4891641863
5923.9221154384
5914.8240847411
5901.9889430631
5888.991099873
5874.8898499563
5862.4220910224
5855.9818765517
5846.095032988
5847.4052354124
5861.670198028
5879.0024250191
5908.5806798463
5967.7241048472
6049.46927113
6157.4281939082
6248.4102001089
6158.6173487141
6233.9106662758
6307.8351327982
6279.8817806158
6249.2680638676
6208.49232769
6168.6431814209
6132.3870764335
6099.7137083966
6069.68009033
6041.4368842586
6011.1174875197
6070.2428742609
12888.114317548
22528.625151347
30394.258718351
36309.956239483
40314.769522162
42712.046360444
43150.599851058
42280.509044456
40400.663390219
37664.080155139
34397.480386967
30838.054796022
27247.735713089
23814.106551244
20651.99558072
17825.120349433
15356.083273807
13232.387547354
11422.894441728
9888.4883486547
8590.3476029747
7491.0540743522
6557.4822964735
5762.4114157533
5083.6095717298
4502.3833093457
4001.8058131396
3569.8978948583
3195.2099476081
2869.1900073458
2584.5359557117
2334.7712388087
2114.0523082079
1919.9128282011
1747.8938372739
1595.0643396051
1459.0491630738
1337.3537584399
1228.0895609279
1130.1219370208
1042.0929569755
961.29445535216
3759.5894267768
5227.5194192639
4641.6553820791
3694.9042047639
2262.4077025265
2631.4481167643
3540.2480434625
4693.7010061899
5767.2728801406
6568.5142910807
7208.9658194288
7705.7389611547
8024.2602035084
8150.101966209
8247.2541486721
8407.0286372724
8577.9267025588
8483.4057649383
8068.1333444395
7524.3901164263
6992.9120823137
6529.5286119017
6151.0681625634
5852.9041154405
5632.032416739
5489.0307899294
5427.9111569598
5428.34019561
5484.4706435495
5595.9515525153
5747.7165719418
5931.4890013256
6135.2311208183
6362.0403025672
6668.8148707778
7171.0504257746
7418.2087558992
7042.0976316631
6564.1569803915
6201.9491884562
5983.6928248914
5866.0708890136
5797.6395301001
5769.8769520598
5764.9707764524
5789.769139795
5847.4468214565
5912.9171185758
5970.1106330104
6013.5029710872
6045.2006871862
6062.8032417555
6076.9874845008
6075.4786676218
6069.2962226587
6057.0584707053
6041.65023653
6021.9730466344
5999.1222889132
5979.7277192188
5934.1617420726
5992.2146258236
5955.2334776933
5936.783740988
5937.4985716373
5936.1222357745
5931.5229467129
5924.2269532212
5914.5704525394
5903.9410957623
5894.5043865231
5882.8329313039
5872.9359197298
5866.2382914475
5851.3682583334
5849.9945735046
5848.1893530056
5855.1502530197
5861.7343469413
5881.210954783
5916.8540627828
5968.0299871885
6042.253685642
6126.0723565925
6139.7742766532
6149.8173727649
6244.7634531483
6250.9433637883
6239.0246341194
6214.1746817515
6181.451171739
6149.2055475864
6118.4708058613
6089.995079564
6063.500132831
6037.9740365161
6010.2321313308
6244.616709789
6764.9242643444
11070.202732555
16002.435590237
20423.762101981
24144.474708554
26919.458890519
28707.691314228
29392.227154209
29212.698746325
28195.262234364
26583.21213733
24538.210939703
22262.846713779
19923.855479655
17653.301383388
15529.949567871
13599.987659779
11884.806466316
10383.380048299
9081.4590233806
7958.5995190475
6992.714313917
6162.1769473919
5447.0017746678
4830.1625947532
4296.6295325846
3834.3763786187
3433.0909076918
3082.2765462607
2774.7298850037
2504.5810252495
2267.3456640628
2057.999226147
1872.5105659118
1707.7540873418
1561.1245353546
1429.464048595
1311.4281477231
1205.8881820807
1110.9086771776
1024.9696296565
947.54127220748
1039.3333172528
4713.9983923839
3965.4844746745
3007.7562376244
2145.833164604
2118.0308999208
2922.585597689
4221.3758841455
5472.9567603703
6360.0394720102
7041.8922631088
7539.754987997
7770.7992577191
7830.7905132004
7823.60209944
8224.965293325
8639.8321613531
8480.4667759049
7919.5090742528
7311.6404276958
6817.2114244524
6438.5450191238
6160.5713070025
5963.7860885437
5825.711678815
5746.9349811529
5720.4348319721
5729.4754772488
5773.1792658361
5837.5595718092
5919.3617603489
6028.0637756337
6131.6372501618
6228.8594719586
6349.5180563808
6560.0669855049
6801.372378411
6645.5399966107
6358.9262473645
6171.1096745304
6064.5602022592
6026.0117695588
5979.4321040002
5962.3584040288
5959.8817836938
5966.8442783357
5977.3946243671
5995.8885044017
6014.7134890776
6027.792294796
6036.7356494625
6040.2694813182
6040.6427297201
6039.3135103335
6034.902153661
6025.7236026757
6014.5886066658
6002.1532090201
5988.9776969912
5977.904785201
5922.0153193038
5964.3393804386
5949.0066347278
5938.4496230683
5934.1311855441
5928.3318389776
5920.7295187994
5912.7427432872
5904.2228747944
5894.4711860399
5888.294415058
5880.1115385851
5869.6479651514
5864.0372529139
5858.2359371624
5858.0111284903
5857.0676558281
5862.2796305524
5873.8241933962
5896.1832056515
5930.6880202483
5980.7041749145
6038.0685350112
6068.2588976694
6099.5971678354
6175.5994133331
6205.0551695284
6208.6986516185
6200.2157887242
6180.1453316945
6155.2008303514
6129.6197100078
6104.1692673336
6079.8442516855
6056.8530854299
6034.2075603364
6009.2517815838
6208.1345027238
5553.3757432246
6770.7801150846
9635.2595564824
12642.413433355
15440.221425957
17826.867036597
19634.057293459
20780.119042314
21243.725877487
21113.631177278
20447.915422405
19371.939982113
18007.319810673
16479.757969983
14900.830371075
13352.163198512
11888.705048273
10542.119235013
9328.2365434649
8249.2352413945
7298.6064027697
6465.8747404733
5738.852052176
5104.9797310249
4552.3236873227
4069.8604866228
3647.6291401991
3277.5236492747
2952.4833620419
2666.6933481437
2414.967054532
2191.8394009686
1994.1109443152
1818.1690117575
1660.8098828638
1520.1802985118
1394.3974276614
1281.4833689491
1179.9048914434
1088.2446246008
1005.4677298782
930.09995733239
859.61614472002
3935.7515183289
3431.9333474247
2577.2836511454
1921.4402536898
1828.7580378154
2345.0758858053
3059.7730633601
4256.3774299274
5553.0793725607
6596.7996163651
7280.5267045699
7555.6378639366
7498.052431227
7458.3119632968
7960.635243656
8755.1021861372
8428.5270912074
7679.1702610243
7069.5877160822
6660.2925082088
6393.4008118675
6215.9992528992
6090.3561358403
6004.7050743921
5961.7844970352
5947.7627551546
5951.1796808503
5970.8670335495
6005.4138061733
6047.7813633029
6096.8459325368
6142.7912265918
6184.486636881
6232.4613354752
6306.2328930099
6383.0839803615
6350.8163711152
6248.2102800676
6165.0213156476
6113.4728084343
6082.856211283
6061.3304865065
6061.6904331391
6044.3315721753
6041.5179943284
6037.1483437961
6035.7775846963
6035.9266752394
6035.2519222962
6033.3193463867
6030.3343007531
6026.372779421
6021.5841459892
6015.7081107396
6008.230094256
5999.8181578604
5990.5923698171
5980.8895898681
5970.8455639379
5941.0666738745
5954.1774608253
5945.4743428811
5937.7610640362
5931.2204795314
5925.1520350896
5918.2183209373
5911.435084861
5906.8179075645
5895.1987780425
5891.3138022263
5883.5320144908
5878.374754233
5873.4217984033
5869.1710635696
5867.2583491661
5869.8947978817
5877.9194074448
5892.6403441843
5916.1739061063
5951.0297319216
5983.2906983961
5999.9456394482
6060.4811653993
6121.0332850598
6151.571891226
6168.2570241284
6172.4717081594
6163.8518364352
6148.7850401169
6130.303871935
6110.5363655483
6090.0208078547
6069.6831823538
6050.0548890534
6030.3221535734
6008.2604172591
6099.5300314028
5651.0201328928
5166.6962414311
6448.6911023356
8448.221185441
10476.448455
12324.666434733
13870.874695817
15003.949643076
15661.304483043
15944.018032012
15815.955424302
15283.110843713
14508.14124028
13544.759580886
12479.107511033
11380.129485207
10295.428950565
9261.461583908
8300.2052949263
7423.0041877743
6633.0378106812
5927.8145342484
5301.7406783325
4747.9520116133
4259.1513031716
3828.0267276099
3447.6250610308
3111.4319933323
2813.9107352719
2550.4231284824
2316.0748108323
2107.518357844
1921.8862727004
1756.2027170165
1608.0577758271
1475.2096016257
1355.6199586801
1247.8275782235
1150.5004069852
1062.5786936497
982.92925969224
910.66169182507
843.73539676336
1421.2991076765
3144.7724014113
2391.4990405664
2214.8505656126
2391.7196389823
2731.2116674528
3256.8800047491
3718.8564156724
4121.3544743835
4579.4488095045
5012.8328264087
5452.0131571719
6129.2393424847
6864.8958117076
7648.3730500068
8862.0924828673
8264.1702886995
7377.4153641458
6831.3029883829
6529.6625797098
6356.4360619808
6247.5940362461
6173.3475173046
6124.3757375879
6097.3130078908
6086.2225100652
6084.6451584395
6092.0227960449
6106.5107484698
6122.8683157238
6139.4939484218
6155.5502432947
6170.6070021104
6187.3292402849
6208.010839875
6223.6881151766
6213.9993330203
6181.5979640816
6147.6050592098
6120.0121227402
6103.7941574924
6091.447783129
6085.7569848912
6074.2702822783
6066.5139519778
6058.7140166485
6051.6866220685
6045.6581652156
6039.6695935577
6033.5128823225
6027.2675985441
6020.8414783487
6014.2014677048
6007.2609889749
5999.8978733973
5992.1694908351
5984.1277039256
5975.8535381288
5967.1123533717
5950.4225308149
5952.586958329
5946.768445946
5940.4367449755
5934.3871603052
5929.802290705
5924.3034460307
5916.1512314344
5911.7030961555
5904.3110316839
5899.6245881811
5892.9567145926
5887.3576416405
5883.1672028491
5880.9696795794
5883.0545590127
5888.4375425756
5899.1663410284
5916.2566459273
5933.5064328338
5943.7181430167
5975.562462397
6022.8202981693
6080.1937496589
6102.0211429443
6123.4134023538
6136.7275138838
6138.3201921323
6132.5062507505
6121.8558225806
6108.1879334198
6092.9272468315
6076.5773545769
6059.9121671033
6043.3981465875
6026.4534514257
6007.2756881759
6066.0112182803
5842.3696273391
4919.3027409282
4879.7053536514
6021.0852787022
7464.9174555907
8848.0847792783
10062.926434167
11062.121545034
11805.558966746
12241.325964403
12281.096171607
12112.111852728
11695.872205292
11113.056420279
10413.559366779
9647.2934598732
8858.3273533385
8077.5855741822
7329.4691923081
6628.8795781025
5983.1777252488
5395.0675266756
4863.7752478289
4386.6001455196
3959.6679896224
3578.7175179421
3239.2983412178
2936.855890366
2667.1166337679
2426.3197989384
2211.0949300911
2018.6317200542
1846.2387512156
1691.4275813928
1551.9308759976
1426.1341585338
1312.8389924776
1210.5622283897
1118.0701763036
1034.1926414557
957.98901275062
888.76421896998
825.60923751906
776.90523217854
2735.7152762523
2602.9531856976
4358.0282879679
3779.4191721025
4016.6563311865
4223.9004102085
4445.0823577273
4713.5332632076
5016.4326880228
5189.9649134648
5064.570024327
4816.8671517669
4932.7443369561
5591.3647726835
8295.274592777
7934.2371575881
7083.8802974408
6636.2219079597
6428.6740805467
6317.5042605416
6250.6056406639
6207.2314277232
6179.23030267
6162.7939475106
6153.4753961122
6149.2772863315
6148.5758070514
6150.3644346129
6153.4899681207