/*--------------------------------*- C++ -*----------------------------------*\
| =========                 |                                                 |
| \\      /  F ield         | OpenFOAM: The Open Source CFD Toolbox           |
|  \\    /   O peration     | Version:  2312                                  |
|   \\  /    A nd           | Website:  www.openfoam.com                      |
|    \\/     M anipulation  |                                                 |
\*---------------------------------------------------------------------------*/
FoamFile
{
    version     2.0;
    format      ascii;
    arch        "LSB;label=32;scalar=64";
    class       volScalarField;
    location    "3e-05";
    object      rho;
}
// * * * * * * * * * * * * * * * * * * * * * * * * * * * * * * * * * * * * * //

dimensions      [1 -3 0 0 0 0 0];

internalField   nonuniform List<scalar> 
109340
(
662.37788083487
662.37640823625
662.36890134872
662.35783626155
662.34350785213
662.32593123813
662.30460407066
662.27902919267
662.24827441845
662.21063766293
662.16440187183
662.1076421435
662.03806416205
661.95289686967
661.8487789939
661.72163308965
661.56649070546
661.37729770941
661.14666821883
660.86557567197
660.52300818529
660.10555262041
659.59688476368
658.97715934664
658.22226228843
657.30288223596
656.18338315695
654.82036596815
653.16074413829
651.13679257076
648.66486567647
645.62672273765
641.84192787907
637.00631018847
630.56214368482
621.38847868054
662.37986430563
662.37661295273
662.36756561593
662.3552901007
662.34007954426
662.32187166426
662.30006911616
662.27366620079
662.24141319631
662.20185674823
662.15329193035
662.0937127857
662.02071503175
661.93139156857
661.82221684569
661.6889033508
661.52624168157
661.32787311448
661.08603167916
660.79122858072
660.431880936
659.993882076
659.46006154248
658.80954267901
658.0169460195
657.05140581201
655.87536422914
654.44305312904
652.69816956309
650.56886534385
647.96510499311
644.75618533633
640.73699785594
635.54984706702
628.50487956362
618.08920337504
662.38308517505
662.37871187792
662.36854511488
662.35608957344
662.34120289444
662.32343095069
662.3018750739
662.27557523339
662.24341168253
662.20397672215
662.15557535658
662.09619818262
662.02343926799
661.93439288835
661.82553879609
661.69259904929
661.53036334231
661.33247150823
661.09114407323
660.79687001112
660.43801632802
660.00040639665
659.46677123867
658.81608849652
658.02277902295
657.05569304689
655.87688146624
654.44008127543
652.68798251086
650.54918094193
647.93170180059
644.70395576691
640.65808260959
635.42617384523
628.26843276941
617.37485528423
662.38759239943
662.38157909678
662.37089216794
662.35820642054
662.34325395786
662.32543026175
662.30390945507
662.27771069063
662.24568841888
662.20644482435
662.15829480292
662.09922568033
662.02682344348
661.93817088289
661.82972546268
661.69717198853
661.53525133317
661.33752514501
661.09609433825
660.80127822391
660.44117674463
660.0012618917
659.46377843714
658.80705153739
658.00462219964
657.02415522135
655.8261836748
654.36219509934
652.57272892764
650.38331197283
647.69795770799
644.38004746211
640.2135611172
634.81090515547
627.35260625944
615.48818570167
662.39473303297
662.38581482945
662.37328094997
662.35986426766
662.34482216377
662.3272211123
662.30606608755
662.28031491603
662.24874379326
662.20989411629
662.16203385738
662.10308558205
662.03052090308
661.94125042039
661.83148109072
661.69653375352
661.53063156325
661.3266097508
661.07550238715
660.76640415901
660.38553985041
659.91601333101
659.33687579828
658.62224377468
657.74019355412
656.65132657775
655.30721041205
653.64805562127
651.60036696263
649.07254213637
645.94859614427
642.06543073895
637.17103281377
630.81448852401
622.0075743613
607.29240608641
662.40791538895
662.38825835557
662.37427878074
662.36051922555
662.34506577641
662.32648300124
662.3033912417
662.27425563437
662.23726587104
662.19018911875
662.13027943155
662.05411627945
661.95741518586
661.83478404106
661.6794209565
661.48274664106
661.23398072406
660.91971457228
660.52331015485
660.02229650899
659.38943063956
658.59071830841
657.58397614742
656.31711748634
654.72626586667
652.73347641359
650.24402716514
647.14418089581
643.29782750816
638.54282173668
632.6852694451
625.46564982288
616.5003460764
605.13819450308
589.95033790754
564.72621562242
607.33746774466
585.02673593223
551.92511718695
507.99536123493
455.19452286337
395.97783338192
334.32389689481
273.56335552247
216.95436556522
166.23863968722
125.87484521054
93.467960040125
68.787886727632
50.696376710609
37.686106440956
28.429314281209
21.755874583719
16.884716519185
13.289100194883
10.610129045421
8.5805567895671
7.0185750631524
5.8010847689262
4.8424720285176
4.0814164914893
3.4680267246919
2.967718848853
2.5566713321229
2.2171690731805
1.9346445772202
1.6969190944705
1.4953031684831
1.3237855148452
1.1771346801373
1.0509232802274
0.94154023281653
0.84629745677661
0.76310331352576
0.69023558679478
0.62609700095505
0.56942801046609
0.51926025569128
0.50324609595727
2.8586771637103
2.6058497599336
2.4593433663765
1.2431055769212
1.1743704042939
1.465853143957
1.7760631602399
2.0920692175044
2.3975416922552
2.6833087275241
2.9374376456047
3.1507686719464
3.3112873206207
3.4125159304034
3.4542911497348
3.449487695346
3.4142950638853
3.3578080203307
3.2713835736538
3.1460143684836
2.9769449375107
2.7751681506818
2.5601057798482
2.3461878613992
2.1516811342445
1.9882488318991
1.8663793026535
1.7833831981369
1.751518395622
1.7893727565441
1.9251132398218
2.1563618889734
2.4460713274457
2.7545862409932
2.9518878798732
3.0330044949343
3.0399135607346
2.9862251249576
2.8897174107609
2.7237903824708
2.5078962677362
2.2544511740637
2.0703224317466
1.9675102296462
1.9618363875624
2.0000924679191
2.0824065027124
2.1958701094993
2.2591870430419
2.2841016574214
2.2894858877532
2.2834966006511
2.2754827753778
2.2640082157127
2.2525485976312
2.2405765212463
2.2296794985789
2.2208263666046
2.2131701388309
2.2052262185053
2.1955999673464
2.183233520192
2.1723715667964
2.161631982126
2.1525396179758
2.147745571213
2.1472893159908
2.1534321938012
2.1625666359299
2.1737617435777
2.1729445058017
2.1630978594659
2.1579326062977
2.1505913116706
2.1266612263527
2.0911490224858
2.0424381028235
1.9664584717451
1.8588284666276
1.7274734946667
1.577431866197
1.4099045230925
1.2311926666214
1.0615789308639
0.86007751558912
0.6006481379127
0.33888124592305
0.18970813668899
0.15242251099372
0.1490593789389
0.14840495159549
0.14740942519807
0.14643140929675
0.14555799649138
0.1447745156539
0.14407954222889
0.1433367975235
601.0521085645
573.12297051522
533.17044488277
482.93385764176
425.2893156608
363.96040124134
302.65379028817
244.66709903479
192.12640199084
147.76316250443
111.3398764559
83.178982028153
61.739290381821
45.950979284371
34.490414683381
26.191927132421
20.166234655474
15.745229069661
12.463591773681
9.9952562920623
8.1134717679174
6.6603791505345
5.524547062289
4.6264170311647
3.9077129376595
3.3274587873513
2.8541470562955
2.4641387663349
2.1404298316349
1.8699133796465
1.6423074675933
1.4494464735409
1.2849052558505
1.1436654237788
1.0217939816793
0.91620259412168
0.82431975478569
0.7440008517533
0.67349519661631
0.61131709896595
0.55625248542579
0.50760300083521
0.61273617071494
2.796686296081
2.5614403391014
2.3954908169952
1.0305065819097
1.2277342556152
1.5251112636016
1.8435474630428
2.1660274663979
2.4739764847539
2.7563870178947
3.0046092625826
3.2090339699465
3.3571163139325
3.4417447322425
3.4671380954277
3.4522605176438
3.4145279890508
3.353012878981
3.2563847946353
3.1159332252541
2.9334209561259
2.725281451473
2.5091124105789
2.3012192161112
2.1154794714115
1.9653152423656
1.8539026897506
1.7834305531938
1.7685649254433
1.8312942682063
1.9833833288679
2.2227331037323
2.523541116398
2.8381897851099
2.9974246511537
3.0560720053766
3.0351227055945
2.9671624149065
2.8481515303614
2.6622116639462
2.4400142038274
2.2516204399966
2.0783441989987
1.9803701435513
1.9709630201638
2.0098646617727
2.0894368227403
2.190071235593
2.2520764683066
2.2871772800406
2.2984725838094
2.2947157765004
2.2849854010718
2.2721969240296
2.2604412641378
2.2487698499472
2.2379367264779
2.2285313564063
2.2199238944713
2.2111417113529
2.2010327713368
2.187563538111
2.1761076318977
2.1667793590731
2.159971048294
2.1559840035973
2.1560154353131
2.1614479281882
2.1660256168995
2.1728608956895
2.1635470319981
2.1443004623765
2.1135629900067
2.065190370447
1.9937142717875
1.8913290413213
1.7628485432014
1.6229285573699
1.4881378829779
1.3713208451277
1.2776068733738
1.1896246388358
1.0995246378861
0.98826992131608
0.82007523294536
0.5756167480978
0.32552124554391
0.18522481049638
0.15164761999113
0.14893925194174
0.14839793271278
0.14741768680694
0.14643820810211
0.14556359043471
0.1447782839156
0.14408491313821
0.1433379018274
597.79180269666
563.43152993355
515.28861158257
457.83245124299
396.22805204475
334.01702598792
274.8806895312
221.19484063673
174.18009898881
134.68251810326
102.60324119109
77.450038800505
58.236598718216
43.840637980999
33.179158697949
25.364800807157
19.630431322848
15.396623031991
12.230012021993
9.831645748885
7.9968091830849
6.5771746596962
5.464495031725
4.5816349939602
3.8735546075668
3.3011748435279
2.8339944271686
2.4485571794169
2.1281623517859
1.8600696979241
1.6343771228331
1.4430190567704
1.2795995818568
1.1391457703285
1.018035274272
0.91311537343377
0.82177462274471
0.74188043167592
0.67167068048175
0.60972105418693
0.55498068956786
0.50656411072029
0.52753675144167
2.812320465022
2.530810827793
2.3606377895604
1.0406938704858
1.2003887528197
1.4998158221574
1.825787171961
2.1568332523604
2.4713239605667
2.7591933606844
3.0125476846511
3.2208937249446
3.3708852391452
3.4537676954847
3.4774020969649
3.4632981417725
3.4284522659388
3.3681447428973
3.2690960310649
3.1226304681752
2.9348812069093
2.7239339303028
2.5085701158215
2.3041269760807
2.1232116346025
1.9784041257015
1.8717545703926
1.8064766831661
1.7981564081798
1.8598587148046
2.0020802390515
2.2285841140924
2.5272189203182
2.848540413718
3.0171956600548
3.0680586311554
3.0394974868033
2.965048216703
2.8336386870324
2.641602883578
2.4207258894214
2.2449339548544
2.0856900234039
1.9965527121886
1.985903291655
2.0276364623672
2.1034874615573
2.1937629028429
2.255797555967
2.2896258536511
2.3072577305641
2.3103119608021
2.3002127699583
2.2859621953634
2.2730834017796
2.2612355614477
2.2504494454448
2.2406087944924
2.2309183850347
2.2208644262459
2.2096862697792
2.1940501934166
2.1826660164312
2.1754251455263
2.1710015705127
2.1679046253577
2.1666296919957
2.1653162944548
2.153969219478
2.128015161143
2.0740343944433
1.9888814858029
1.8692994758201
1.7245004052382
1.5681494967441
1.4102401192601
1.2684916110075
1.1515835136946
1.0684706428816
1.0153972327857
0.9830020780975
0.96120755725463
0.93750304503609
0.87878220568369
0.74872968657891
0.5274430131549
0.30035574142404
0.17713455058075
0.15029266658851
0.14879204914414
0.14834262622002
0.14735676887276
0.14638987756975
0.14553110534865
0.14475833449085
0.14406748467658
0.14333587481337
589.94629330317
539.82051004261
476.76354961954
410.55712226112
345.98244314001
286.84822952388
234.49576913844
188.64255215112
150.02040088965
117.97573338489
91.626950676021
70.492129551998
53.846324387531
41.080797012986
31.463775570018
24.275389949898
18.918915903797
14.91705513763
11.90293386153
9.6084058632853
7.8424387806152
6.4637556141424
5.3806333587609
4.5196271276547
3.8282926604981
3.2662257948157
2.8063391322325
2.4266755267022
2.1110790109002
1.8466470103517
1.6234182519422
1.4337318296277
1.2718820538361
1.1329634124189
1.0130336300105
0.90895116184238
0.81822600529009
0.73886961212361
0.66916891785595
0.60764728632813
0.55331458479173
0.5050502112739
0.48869707161712
2.800597592586
2.4824614782853
2.3049469429656
1.0904629556235
1.1611812772017
1.4625673365605
1.7947350966681
2.1341671224924
2.4580236672578
2.752276928816
3.0088894022341
3.2192599447892
3.3705785588286
3.4518071904078
3.4751863277995
3.4653728273036
3.4345966880832
3.3762098855441
3.2726283557721
3.1180973084456
2.9250755159096
2.7118665112163
2.4998460141673
2.3016431890195
2.1300605613782
1.9931630232198
1.8939126726295
1.8385719076041
1.8395275425626
1.9007043540048
2.0308685142034
2.2346319609761
2.5123148388075
2.8324215537923
3.0253970058171
3.0729708115252
3.038647065005
2.9538456220031
2.8054892400865
2.6072672829358
2.3897965233393
2.2339122141258
2.0957748489636
2.0180809662492
2.0118789943008
2.051119148042
2.1169189295634
2.1920738607524
2.2511825360918
2.2900291713027
2.3142044119569
2.3235567791854
2.314186546571
2.300551413148
2.2881635791613
2.2765631129953
2.2655885621316
2.2543493845483
2.2424325069452
2.2301765445058
2.2174756747549
2.2016140325281
2.1904934657698
2.1824775142266
2.1705698767467
2.1543403279347
2.1233503677096
2.0681873895157
1.9800345283271
1.8538799881495
1.7000467490498
1.5290324692047
1.3601522817534
1.2148459541262
1.0950768735492
0.99659583398807
0.91525058067826
0.85408038513558
0.81950475868385
0.80370150606369
0.79998858555753
0.80437698231196
0.80495993925743
0.76856184932577
0.66016095919688
0.46355432705577
0.26686966728163
0.16736431980436
0.14897321998901
0.14858609283932
0.14820215395375
0.14724601996247
0.14630972596571
0.14547765199238
0.14472409515728
0.14404901725887
0.14333115716914
561.34467606938
473.87993450342
392.13755284462
324.67240900894
269.5621566639
224.02144147416
185.82072743016
152.99956429749
124.87573507856
100.52244659439
79.819445692039
62.658986297444
48.821134489554
37.889356987366
29.4264654474
22.964990890046
18.059412006158
14.337193798699
11.503834097627
9.3284838980172
7.6419477475487
6.3242309129316
5.277235454933
4.4407185845302
3.768295107725
3.2211914595883
2.7716290549821
2.3987541984754
2.0888555111969
1.8287825205616
1.609015847157
1.4221841368111
1.2625001658083
1.1251287627028
1.0063666409883
0.90341767093638
0.81366314940326
0.73506274013483
0.66594560449249
0.60494758945854
0.55106440585287
0.50309204926691
0.46939873937192
2.7616999203574
2.4210125732451
2.2320637831082
1.2378838656195
1.1055800273021
1.4091469761724
1.7494552708975
2.1041471645551
2.4403452560439
2.7375373793287
2.9954821589745
3.2085911529767
3.3601765711952
3.4389373007398
3.4628051409011
3.4590831080124
3.4349158722999
3.3802828690234
3.2702202197968
3.1060206139153
2.9065272405693
2.6925842885914
2.4859446908404
2.2966781323136
2.1384074999201
2.0117918994643
1.9226485022833
1.8797232808228
1.8898937476279
1.9536166120298
2.0691247589716
2.2433196734531
2.480634867262
2.7749196916805
3.0095481143892
3.0652911099152
3.0324717612737
2.9336658904167
2.7676768293388
2.5526786766411
2.3547174765238
2.2191645545701
2.1047928321483
2.0463052891807
2.0435974018123
2.0761444220461
2.1296717924015
2.1892477021494
2.2431393890063
2.2860239506076
2.3126453471525
2.324347362386
2.317009804244
2.3065041711336
2.2958437524766
2.2860220189598
2.275911665932
2.2641872657047
2.2505491518421
2.2353075370692
2.2175610914494
2.185463835188
2.1649623140947
2.1269146690616
2.0641258785258
1.9704932360598
1.8438317662718
1.6879291926385
1.5112007455153
1.3390095373888
1.1905448394817
1.0652859700296
0.96026132698013
0.8751730330931
0.80822008077759
0.75439973590963
0.71227120485912
0.68603023487558
0.67562683228803
0.67448264698931
0.68438846023353
0.69544029679917
0.69978636988679
0.66796935410519
0.56786378984115
0.39373255806292
0.23084568234033
0.15826672007734
0.14793848370246
0.14841128623085
0.14802916146238
0.14710812210158
0.14621004872318
0.14541202213822
0.14468561604791
0.14402582649143
0.14332296026291
391.57183530217
277.29571477855
237.50742769584
208.72129672255
183.7159321351
160.62264519459
139.79072150741
119.83223969105
100.92496700786
83.57625416838
68.135867828166
54.764801015287
43.566423605544
34.448030473551
27.184332010944
21.490337745951
17.076671941508
13.672245657358
11.043189681586
9.0040034528033
7.4094440150785
6.1514644418145
5.1533379433162
4.3499507068921
3.6981565793038
3.1671146883353
2.7292119778343
2.3651950088474
2.0620922166918
1.807299890678
1.5917431632875
1.4081553032515
1.2507412137165
1.1154434208719
0.99849089812053
0.89690679789421
0.80815327979487
0.73035079767705
0.66196549988827
0.60167684520489
0.54828334597602
0.50058769119865
0.45806576226524
2.6946695318565
2.3521415363608
2.1479161013862
1.4541693212399
1.0361993452713
1.341072028513
1.6931870570834
2.0684748160365
2.4174803889453
2.7180296745782
2.9784366941574
3.1914126746684
3.34056585791
3.416620950881
3.4418224961279
3.4444869411765
3.4325216669497
3.3832076715543
3.2641208795468
3.088583082934
2.8814770227569
2.6697994620583
2.4714563257088
2.2955880642347
2.1511239799114
2.0380603956564
1.9614075348991
1.9333690391711
1.9514807183079
2.0163321267961
2.1153578212329
2.2552056649311
2.4445538564048
2.6878236283405
2.9502249848163
3.0400905587941
3.0185571757711
2.90595392604
2.7087220976213
2.4969780621202
2.3205733411602
2.2102180559065
2.1224362526471
2.0815758221015
2.0784358248872
2.1016321184228
2.140651606983
2.1845034659061
2.2302629481841
2.2717217863191
2.2977933093711
2.3099394312141
2.3037566448717
2.294722461423
2.2846468793685
2.2715147278618
2.2561948381341
2.2371611713371
2.2125083846491
2.179135773307
2.1336972179703
2.0576061698458
1.9595104692259
1.8265143035778
1.6697786262422
1.4996281385003
1.3348230368095
1.1881511732091
1.0596832369999
0.9505064117277
0.85927781548781
0.78451152018991
0.72390641214599
0.67583295522526
0.6386727290685
0.6099409926713
0.59004106048152
0.58197722397028
0.58171881890074
0.58896638563368
0.60296976148007
0.6127605231793
0.61321050705697
0.57543543071195
0.47700340642781
0.32483492414707
0.19781762487097
0.1512111954117
0.14742984293873
0.14827929027498
0.14783602164359
0.14694784591153
0.1460958387081
0.14533500408369
0.14463806282838
0.14399828621653
0.14331495115184
13.351385952684
83.785228274936
107.1746669675
116.67447794018
118.31675249431
113.3486999032
104.69101738673
94.139608950601
82.722577862126
71.110846107165
59.91033831889
49.599813575311
40.465194810775
32.685508260506
26.249225408669
21.045543622408
16.905107383823
13.64181503804
11.081482433512
9.0724204803715
7.4888667707015
6.232257565853
5.2270168854997
4.417531164599
3.7614333909447
3.2228234750683
2.7778147238731
2.4085163417514
2.1001183244941
1.8405990881437
1.6210384659842
1.4340465909606
1.2739689762616
1.1360637666085
1.0165446662312
0.91284586716718
0.82243615435251
0.74324331806146
0.67356019991491
0.61194898254035
0.55743885565185
0.50908872034017
0.46533453518967
2.0132967248006
2.3679858783021
2.1113501321547
1.8056074212971
0.94107145599452
1.1756154151701
1.5214301975829
1.9186054570777
2.3020790005503
2.6275441655905
2.898751589088
3.1211213034468
3.2844811608038
3.3744711846503
3.4021232152137
3.4225922651626
3.4310544731386
3.4069228261824
3.2948504996534
3.1160845032804
2.9053106129467
2.6957867427579
2.5030174232716
2.3364833038125
2.1999871928853
2.0949379148082
2.0248489831934
1.9998717955806
2.0146152866
2.0639602315131
2.1420296737273
2.2415958495818
2.375113587074
2.5432848875299
2.7698149293456
2.9646550059354
2.998469545606
2.8878998090501
2.6909796341515
2.4828465918777
2.3204166615023
2.2039026584202
2.1381588084251
2.110403512862
2.1043983212996
2.1172296748579
2.1391217695853
2.1747384729668
2.2065895140559
2.229715010185
2.2396749542889
2.236315956501
2.2246264250038
2.2062003859442
2.1841157579358
2.1556359955908
2.1189437485369
2.070562558928
2.0051250560674
1.9180776830088
1.7811358534661
1.3902312549223
1.2479051318681
1.1245759574721
1.0135687196205
0.91353652562035
0.82559489092074
0.74958132131976
0.6844824414133
0.6297400477429
0.58439891656059
0.54804149046343
0.51971333140014
0.49859044931674
0.48400269306381
0.47669483983885
0.47503843450812
0.47809571370727
0.48670731894766
0.50009855410569
0.51055567621182
0.51432877110844
0.50035299712394
0.44878414164265
0.35217639063051
0.23482579388038
0.15948689462509
0.14580032058344
0.14736584436917
0.14805109483597
0.14748725875619
0.14666777618229
0.14589637955204
0.14519803646361
0.14455472307188
0.1439518757851
0.14330302179196
4.8772231389778
15.699281647781
28.365109790799
38.727972969121
46.252907723971
50.742940155238
52.474242111383
51.301497924471
48.325032238184
44.154778825285
39.222882830285
34.053759055879
28.992400411309
24.328772302543
20.217952984555
16.705601748188
13.774288169304
11.369359625579
9.415488717375
7.8351674468794
6.5574004011338
5.5223523308731
4.6801388398827
3.990704985452
3.4230584991122
2.9531491040374
2.5620353177778
2.234006227159
1.9577643724132
1.723507933972
1.5238878262758
1.3530203203031
1.2058252389593
1.0780045386014
0.96736447659091
0.87080032603072
0.7862372910863
0.71197189730049
0.64638316828726
0.58821722847296
0.53665911380971
0.4908168479492
0.4492549856816
1.6894770848706
2.1503131370636
1.7992824044853
1.4363201076213
0.88320180157938
1.0282819677015
1.3964917402697
1.877762577625
2.3250411671704
2.6540313838828
2.9159076873225
3.1177965453938
3.2437592006558
3.2876135780172
3.3187235880284
3.3754531217626
3.4370108812217
3.3943191038065
3.2239334738364
3.0027773075548
2.7866415004031
2.5977837019158
2.4429264381394
2.3202579386645
2.2283971945373
2.167335365851
2.1384148735073
2.1335415130206
2.1498005130897
2.1866665221841
2.2374397767071
2.2974882165169
2.3600638017937
2.4234053052746
2.5058947028016
2.6495430946971
2.6985883408687
2.5278912869431
2.333132022331
2.1890499279596
2.0990998516731
2.0868287805388
2.0448423569775
2.0104452725115
1.9757264607982
1.9406998396393
1.9041800791367
1.8589972922217
1.8034925987495
1.7413152381302
1.6775028136264
1.6133589250568
1.5513016921395
1.485989306102
1.4175535549829
1.3448040488926
1.2690278876595
1.1899122307231
1.1082698543814
1.0257445838883
0.92661318259412
0.74204952696161
0.68518591165224
0.63185559110169
0.58426699149528
0.54108019788348
0.5028503792246
0.47058167392848
0.44377771688616
0.4218950945669
0.40496812558683
0.39259636815189
0.38482573610144
0.38175915916196
0.38134070086523
0.38429853823011
0.39012915531361
0.39893293734168
0.40804718927813
0.41337401744551
0.41385474929906
0.40184405400104
0.36790706141525
0.30687866754503
0.22761201609271
0.160934928483
0.14318329730378
0.14554744917413
0.1474649739834
0.14754932503089
0.14693435169192
0.14625272902209
0.14559721699377
0.14498847885209
0.14442113042398
0.14387614465057
0.14328256103638
3.8164972987507
6.3404859314515
10.856395374255
16.067817966861
20.833679201513
24.809037579273
27.600528970004
29.137501295204
29.244820810623
28.31780411602
26.496461840006
24.111912252028
21.422589549028
18.682150781931
16.063010154466
13.680082032687
11.581050523694
9.7759355780775
8.2513492648017
6.9776158146469
5.9195736599927
5.0425299894391
4.3152569500294
3.7107568380671
3.2063747010713
2.7838821979492
2.4282286599904
2.1276848617594
1.872786524857
1.6548164096556
1.4676123328473
1.3063258641138
1.1671316788249
1.0463305952883
0.94097878104689
0.84878184861233
0.76784931116799
0.69616371618511
0.63273222031637
0.57665577230713
0.52675064167377
0.48209770974804
0.44227136137333
0.47712550921028
2.0543073666406
1.550864520057
1.1446047689522
0.80532230134077
0.79353783349397
1.1168960699034
1.6844515962661
2.2276231322138
2.5931282799781
2.8704384116887
3.0690274966383
3.1533084576106
3.1679261541785
3.1560894252208
3.3084918545536
3.465940957985
3.3955210735103
3.1632872320108
2.9119222348816
2.7061214879613
2.5472710916763
2.429431811567
2.3443559721269
2.2823048077015
2.2426755727036
2.221731637988
2.2115502146708
2.2096134466279
2.2073720883021
2.1988407471716
2.1815255887206
2.1370729110582
2.0617948540391
1.9682193213511
1.8866911551411
1.8245707725252
1.7005337721255
1.5810094005052
1.5017946753424
1.4441416162153
1.4956164199687
1.4417492516739
1.3850116104023
1.3232364403251
1.257123916037
1.1890744716328
1.1237639676566
1.0627135428976
1.006747492098
0.956611015783
0.91174720231097
0.87089780743188
0.83236515846331
0.79429623830921
0.75541573689478
0.71570789909746
0.6754005880359
0.63502383632894
0.59530777429496
0.54849198522785
0.46135481944792
0.43426910046035
0.40864479934726
0.38545896997763
0.36556580055401
0.34910377086496
0.33614077241412
0.32642663307042
0.31954413564193
0.31568562291436
0.31456355792109
0.31512383125796
0.31780595735345
0.32225216198761
0.32821951868531
0.33429589700116
0.3385120059848
0.33988431501765
0.3361568710419
0.32290739000069
0.29611694102885
0.25392557539686
0.20101536073916
0.15419608049299
0.14040042355399
0.14365903382198
0.14642083227062
0.14716710912108
0.1468947726144
0.14637716908024
0.14583268501923
0.14528959899544
0.14476962270688
0.14427750806784
0.14379401073129
0.1432602058641
2.7141429771112
4.4551503513366
5.6913263935104
8.2967148015048
11.083016271389
13.707641331161
15.932849921922
17.533070397766
18.437620634124
18.576058733723
18.104849184033
17.124279355206
15.785623745522
14.239716961665
12.628880273292
11.06008023785
9.6005490004775
8.2864675593808
7.1304204773488
6.1311330045215
5.2767310482207
4.5506638951319
3.9356184842996
3.4151583009597
2.9744124038554
2.6004407133107
2.2821733610562
2.0102336790148
1.7771278681556
1.5766345304929
1.4037234261035
1.2541690700328
1.123905550322
1.0103173076877
0.91081538453625
0.82309634949233
0.74577070089319
0.67749984606797
0.61695978353199
0.56312354626518
0.51508567616596
0.47215195896324
0.4334682845805
0.39765148924676
1.7699003031605
1.4299522482163
0.99295022152812
0.71407564357474
0.67488648590392
0.89614545684841
1.2451989211336
1.7551623312836
2.2850672980679
2.7062471518023
2.972873830775
3.0715725016555
3.0383174906872
3.0128257654597
3.2017410647098
3.5046212849655
3.3555256214347
3.0302400074175
2.7579639992826
2.5655861179159
2.4309919040871
2.3333802613815
2.256738330512
2.1936164052428
2.14095629521
2.0893652887881
2.0301269359398
1.9578420000922
1.867987760967
1.7577376534193
1.6297677254113
1.4898538183357
1.3488301164544
1.2191758875806
1.1121956982933
1.0324784650242
0.96885314606618
0.91924465206612
0.88262998377377
0.8528041617775
0.8817064989059
0.85281597406442
0.82316769389912
0.78881664175076
0.75490952864219
0.72045991744571
0.68726596754799
0.65604799947428
0.6269858206167
0.60001918645069
0.57474361000649
0.55058194994689
0.5269917098564
0.50352817443445
0.47998734604944
0.45650057484835
0.43328663606978
0.41066684442058
0.38893663806203
0.36597863080876
0.3186549938267
0.30527478828479
0.29323142020892
0.28332098528819
0.27559261219691
0.26995957943454
0.2663456645768
0.26478484559565
0.2645835509548
0.26580729253326
0.26816759190343
0.27161559411281
0.27558900537721
0.27937812879498
0.28188726214768
0.28262573217586
0.28035291947737
0.27299572627306
0.25884241830019
0.2365024594299
0.20595984562932
0.17045663213035
0.14418368517858
0.13834072495344
0.14229742541866
0.14534793998261
0.14650581615664
0.14653138139678
0.14623476260876
0.14584364633781
0.14542255906841
0.14498515095607
0.14455063415298
0.14413073829175
0.14370951806068
0.14323787303799
1.1671747410451
4.0445549507985
3.9004051399283
4.9879907582988
6.6430431932677
8.3513261417576
9.9175534449729
11.210105443983
12.112256102436
12.56875201532
12.636247600112
12.336265665426
11.69599795229
10.860153914163
9.8944748650242
8.8848594195507
7.893427351997
6.9572113131849
6.0997825130001
5.3317992257585
4.6552124143977
4.0655717749887
3.555083622732
3.1147255936459
2.7355633383821
2.4092340032987
2.1281427819903
1.8855949617864
1.6757128433819
1.4936128568707
1.3353251099565
1.1970317484832
1.0759883335024
0.96991270455734
0.87662475588867
0.79436892617853
0.7215763902842
0.65688262087363
0.59927157292587
0.54784641024634
0.50188476829344
0.46068533535628
0.42366664411438
0.38976831468998
0.63964920285849
1.3870619475085
0.97973611872109
0.84275047392673
0.90207263073126
1.0817239541752
1.3518735967768
1.5437043544493
1.7068741472254
1.887530173793
2.0539776671885
2.2250060008654
2.4889802468901
2.7701079372941
3.059569068077
3.4938052578313
3.1712276267839
2.7163908846495
2.3943484818435
2.1744412278371
2.013277137318
1.8871639978512
1.7809606066029
1.6857127553359
1.5951197114026
1.5034074584483
1.4069872678047
1.3056477437884
1.2008469892609
1.0953079720153
0.99321962146133
0.89850606211414
0.81403257669001
0.74173284786979
0.68288647960235
0.63789317749992
0.60486789578042
0.58064580729049
0.56209849431789
0.54626687613933
0.56155889075823
0.54638792453194
0.53040013310777
0.51283952181812
0.49475068247072
0.47617278156411
0.4575972448856
0.43943921495174
0.42188276760662
0.40499694493544
0.38874613681362
0.37302478874297
0.35773731884116
0.34284368355347
0.32836908993148
0.31442840707706
0.30117782228092
0.28878899160056
0.27738382762833
0.26632915618955
0.24153698319658
0.23581269460966
0.23137797903424
0.22829226339265
0.22659334395048
0.22615727588928
0.22653351710551
0.22787064938176
0.22984636096881
0.23235140300951
0.23487436342823
0.23698210347788
0.23808958955593
0.23800069582842
0.23577545112359
0.23042924345833
0.22123537512051
0.20761201160568
0.18933695024835
0.16717285707263
0.14705580177465
0.13710545510596
0.13780076509491
0.14170979038779
0.14445719861736
0.14572708969322
0.1459748956207
0.14588090148178
0.14565893859036
0.14536887881959
0.14504431493384
0.14469601969046
0.14434024403296
0.14398717131454
0.14362560256648
0.14321586920112
0.45334313406076
3.7643924399503
3.4146057671546
3.4805237490053
4.3628561617298
5.4787864758398
6.5606957739742
7.510878028642
8.271296341773
8.8126899243343
9.0802876550051
9.0069525556738
8.760452285066
8.3238648947839
7.7638184863572
7.1288153699016
6.4644033342425
5.8074697487083
5.18126995731
4.6010478451776
4.0743635480799
3.6032319514268
3.1860230189708
2.8189704172451
2.497426251558
2.2164230399167
1.9711567075468
1.7571213872453
1.5701277681129
1.4064524005867
1.262911501322
1.136752810306
1.0257100090499
0.92772923788493
0.84098566315224
0.76392183726355
0.69530156217126
0.6342529660636
0.57977860021337
0.53105635770759
0.48733839220563
0.44802387380774
0.41265328569047
0.38067363796572