/*--------------------------------*- C++ -*----------------------------------*\
| =========                 |                                                 |
| \\      /  F ield         | OpenFOAM: The Open Source CFD Toolbox           |
|  \\    /   O peration     | Version:  2312                                  |
|   \\  /    A nd           | Website:  www.openfoam.com                      |
|    \\/     M anipulation  |                                                 |
\*---------------------------------------------------------------------------*/
FoamFile
{
    version     2.0;
    format      ascii;
    arch        "LSB;label=32;scalar=64";
    class       volScalarField;
    location    "3e-05";
    object      rhoHat;
}
// * * * * * * * * * * * * * * * * * * * * * * * * * * * * * * * * * * * * * //

dimensions      [1 -3 0 0 0 0 0];

internalField   nonuniform List<scalar> 
109340
(
661.11827448086
661.11591776322
661.10654746599
661.09212851922
661.07234647566
661.04649088724
661.0132650218
660.97149136115
660.91894830463
660.85233749119
660.7683820371
660.66323289486
660.53228320061
660.36997525208
660.16957740385
659.92293016462
659.62010755542
659.24903075172
658.79498592653
658.24002176208
657.56227147039
656.73514671108
655.72636205308
654.49677977578
652.99901148005
651.1757067411
648.95751345824
646.26052446903
642.98292914788
638.99606830339
634.14285459878
628.20351038257
620.84525160854
611.51046095351
599.18517310216
581.86102811118
661.12015773904
661.11586661748
661.10466899372
661.08864915934
661.06746001172
661.04033581683
661.00591083965
660.96213752062
660.90650667454
660.83610664131
660.74753783995
660.63677755663
660.49900191989
660.32838573687
660.11787215915
659.858889291
659.54102924989
659.15161050851
658.67516931816
658.09284126038
657.38163548999
656.5136015265
655.45480052626
654.16409164349
652.59164726478
650.67714677881
648.34760401046
645.51468870867
642.07067785094
637.87936848299
632.77225307218
626.50689031379
618.70558343069
608.71344252815
595.27838035412
575.69629135402
661.12350679491
661.11810925612
661.10585286677
661.08977976328
661.06911901956
661.04268600254
661.00870634845
660.96520172484
660.90984097333
660.83978013932
660.75162645925
660.6413516936
660.50413062438
660.33414086934
660.12433343452
659.86615060367
659.54918348062
659.1607473668
658.68535324042
658.10409258676
657.39387748872
656.52661719851
655.4681762954
654.17712494807
652.60324050637
650.68564330135
648.35057942608
645.50875902625
642.05048058841
637.84052372418
632.70661597997
626.4048099296
618.55243627581
608.47581408309
594.83053592304
574.36957293367
661.12819422792
661.12122739042
661.10859054661
661.09247049566
661.07197312449
661.04574519812
661.01207735513
660.96895267623
660.91401888382
660.84445646577
660.7568909962
660.64729205268
660.51082422256
660.34164626851
660.13266896853
659.87526367454
659.55892487387
659.17081279118
658.69520230172
658.11284571026
657.40012739746
656.52825492539
655.4621274523
654.15902424156
652.56699049881
650.62282868905
648.24982964592
645.35437288077
641.82269424843
637.51378208584
632.24806875123
625.77265684058
617.69061525038
607.293468518
593.09305766935
570.86419789489
661.13559982985
661.12587399818
661.11156580663
661.09495441853
661.074672595
661.04903510917
661.01615004277
660.97391984119
660.91988220026
660.85111157677
660.76413229624
660.65478085873
660.51799196804
660.34757879917
660.13594962573
659.87374555167
659.54942194895
659.14868449457
658.65370213914
658.04276551487
657.2885605894
656.35758487947
655.20843091047
653.79010037332
652.0399461424
649.88104874959
647.21943578044
643.94003357157
639.90278341289
634.9352656817
628.82240165247
621.26574360152
611.80884899437
599.64029844418
582.99265953531
555.7246942528
661.14910894705
661.12879225832
661.11322620296
661.09627774693
661.07521934672
661.04760793373
661.01082355481
660.96181621557
660.89693703072
660.81170593491
660.700612281
660.55680224789
660.37169624677
660.13450316224
659.83161994637
659.44590518388
658.95584201472
658.33468623468
657.54930907919
656.55533911971
655.29881857096
653.71273995506
651.71436201636
649.20213814427
646.05250854853
642.11621266185
637.2141820531
631.13498035786
623.63100881328
614.41542976873
603.15710068243
589.42558324772
572.5980570102
551.62957791374
524.22649429065
480.30475968937
555.8202061123
515.68005697023
458.86603623642
388.56907193505
311.80466000707
235.76628182855
167.89184381772
112.26939464187
70.505995795284
41.322771756331
23.64649164788
13.010707520816
7.0315886780887
3.8110104838013
2.1015186468481
1.1935148670778
0.69762669739734
0.4194545361265
0.25939797885845
0.16510074529556
0.10782257341676
0.072043029987765
0.049154748948446
0.034211599547997
0.024276326799871
0.017509606610491
0.012809440923993
0.0094980067019867
0.0071368410584305
0.0054294945846245
0.0041739028610188
0.0032386062627268
0.0025364665410101
0.0020042617220899
0.0015964867807077
0.0012806670920719
0.0010340752792359
0.00084029547287812
0.00068711411910227
0.00056505621973291
0.00046716247348544
0.00038827063825742
0.00036664134177899
0.011717437096241
0.0096629780418507
0.008606484841319
0.0021659169420067
0.0019699528843644
0.0030694038300103
0.0045064601878546
0.0062521742477606
0.0082100266882521
0.010282967772681
0.012322288426454
0.014175544176694
0.015653772992414
0.016621635375441
0.017026562214828
0.016974875751862
0.016626065072244
0.016075927447238
0.015254487381972
0.014103104605292
0.012623921352677
0.010967150113089
0.0093306738060162
0.0078347658123215
0.0065886731454361
0.0056259059644583
0.0049575419261005
0.0045273556920367
0.0043689289327755
0.0045637227900521
0.0052870850256801
0.0066368203030875
0.0085399906135915
0.010822172063426
0.012408765093973
0.013092846367188
0.013145152291229
0.012681898727535
0.011871086282411
0.010541031808581
0.0089331967387389
0.0072194348245738
0.0060923163781577
0.0055073173903339
0.0054789575341385
0.0056968674207001
0.0061774649605528
0.0068672932279132
0.0072638496474404
0.0074224098740086
0.0074539563809548
0.0074139045237547
0.0073601831416266
0.0072853064535741
0.0072109415563322
0.0071336792566674
0.0070637381957277
0.0070070158570839
0.0069580212057487
0.0069073148491761
0.0068463556557021
0.006768862303657
0.0067014093631275
0.0066347478073574
0.0065783491150566
0.0065485033168331
0.0065451766405968
0.0065819242237413
0.0066365770300707
0.0067038910698582
0.0066952688416451
0.0066328847268218
0.0065998486376717
0.006547569452072
0.0063942226188556
0.0061708354180348
0.0058676310776988
0.005410533734292
0.0047967897391354
0.0040930145015803
0.0033463831669791
0.0025925515387413
0.0018748073663175
0.0012765020312053
0.00072935866546531
0.00028681737428027
6.4140462658457e-05
9.7963221920572e-06
1.6950515854264e-06
2.7159742257976e-07
3.032172452011e-08
2.3173050145431e-09
1.4600437525658e-10
8.1905593418696e-12
4.2421621770927e-13
2.0899948438569e-14
1.0269562977783e-15
544.37167201216
494.88526876923
428.15771277636
351.09466007963
272.08761031226
199.09054306678
137.51257715184
89.74517399116
55.250493170268
32.622977919424
18.485906303798
10.296100819933
5.6603335695647
3.1289099037777
1.7591668084949
1.0124966211167
0.59910845317041
0.36458640162096
0.22807852312051
0.14646302554529
0.096369600185758
0.064856199501729
0.044567035529169
0.031218311696152
0.022248178480853
0.016115111235816
0.011845189504587
0.0088211722145735
0.0066501122218825
0.0050713091312531
0.003908876504463
0.0030424973505041
0.0023892731147672
0.0018916205914636
0.0015089965802486
0.0012125000597124
0.00098093104873942
0.00079864348153103
0.00065409975984565
0.0005386297726484
0.00044574510172402
0.00037099475843516
0.00056291439045042
0.011188948843087
0.0093348632606416
0.0081621919475703
0.0015076363860058
0.0021540647675302
0.0033240859505992
0.0048567839939551
0.006703891824094
0.0087451110734951
0.010855161333916
0.012897299191819
0.014710073849594
0.016096098888266
0.016913662149754
0.017159927536161
0.017008867610173
0.016634387601451
0.016035559829418
0.015119575175797
0.013838561177084
0.012260619332421
0.010579345163478
0.0089650233561427
0.0075393704544351
0.0063707139124598
0.00549854298147
0.0048932303427451
0.0045294930740616
0.0044560383040819
0.0047818052428612
0.0056129876688498
0.0070520619689831
0.0090896421480133
0.011487958269909
0.012797039523087
0.013295722319288
0.013107024173424
0.012523228822075
0.011532713029699
0.010070874397978
0.0084577020868633
0.0072026726883943
0.0061405608823497
0.0055798543891832
0.0055306422317132
0.0057532168670344
0.0062191247052614
0.0068305727297706
0.0072183707603424
0.0074428676645493
0.007514004912506
0.0074877269944289
0.0074226693359245
0.0073389646325492
0.0072624680538573
0.0071868998534677
0.0071171125889284
0.0070566720065259
0.0070014778342928
0.0069453795653969
0.0068812151660609
0.0067966932794143
0.0067252280814336
0.0066671370868723
0.0066244598991863
0.0065992029695043
0.0065987322879733
0.0066308253872718
0.0066569552921303
0.0066962777113755
0.0066328569167649
0.0065089993051548
0.0063130490301004
0.0060112655506424
0.005578822132958
0.004988817628337
0.0042949708970355
0.0035975749259778
0.0029797350825533
0.0024848199972061
0.0021088532671762
0.0017765504364669
0.001449087593536
0.0010808271268888
0.00065122414700214
0.00025892683811146
5.7806083848866e-05
8.9274040681042e-06
1.5700047523992e-06
2.5052824115246e-07
2.7790799744798e-08
2.1170785402536e-09
1.333307075857e-10
7.4841799424519e-12
3.8818948056019e-13
1.91791027504e-14
9.7144514654701e-16
538.49120941662
478.28526750545
399.88145282786
315.48139612728
236.09943280495
167.61141279697
113.37859849975
73.31307437158
45.387205721919
27.088734464958
15.690860145588
8.9226388934598
5.0344004694668
2.8471718936494
1.6275116940291
0.94934498629756
0.5675881363649
0.34856625991478
0.21958050671428
0.1416909214572
0.093609012739637
0.063240517754332
0.043600407926074
0.030614884592937
0.021859713346314
0.015860769921338
0.011678063958795
0.0087096433108442
0.0065738884588193
0.0050179143562887
0.0038711296290617
0.0030155151687314
0.0023695421964243
0.0018766702970627
0.0014978935831249
0.0012043262683669
0.00097487307701594
0.00079409135864839
0.00065055844965289
0.00053581843590289
0.0004437010218058
0.00036948721686747
0.00040753742383304
0.011318011188534
0.0091143088380146
0.0079291750502497
0.0015339730919215
0.0020599585497214
0.0032157704344249
0.0047655305387202
0.0066503395326576
0.0087306159522105
0.010882114782233
0.012971144506941
0.014825569238909
0.016235696339143
0.017039556755107
0.017269017352166
0.017125011770986
0.016777226667428
0.01618689681847
0.015243256790697
0.013902541435877
0.012276591064209
0.010571823973152
0.0089637720279123
0.0075606714307339
0.0064193880075205
0.0055735585520871
0.0049893125543836
0.0046486409942994
0.0046076186238759
0.00493241000593
0.0057187382536013
0.0070890302335287
0.0091175112104369
0.011576432905216
0.012970485499653
0.013404101156717
0.0131487611259
0.012508226437479
0.01141756068495
0.0099175011229038
0.0083267282763462
0.0071620009159852
0.0061858071657723
0.0056721954485133
0.0056158878544288
0.0058560915924035
0.0063031472900374
0.0068538649766694
0.0072430297307609
0.0074595804899453
0.0075725735751093
0.0075905117508688
0.0075228230353028
0.0074293019413436
0.0073451800421918
0.0072680685937301
0.0071981545429591
0.0071345499447397
0.0070722087126502
0.0070078550800554
0.0069367314067064
0.0068381831163933
0.0067667733131538
0.0067211272609891
0.0066926613623903
0.006672178834267
0.0066623072171232
0.0066494944423932
0.0065725380501855
0.0064029892588651
0.006063858439882
0.0055498301843815
0.0048683695314322
0.0041023742619439
0.0033485288112376
0.0026637897437649
0.002113713407361
0.0017045574889636
0.0014362481733807
0.0012717178277084
0.0011677758600347
0.0010903935579867
0.00099860186759226
0.00081777713457032
0.00052262506477674
0.00020912342188684
4.6605455509441e-05
7.3694714408379e-06
1.3311842858577e-06
2.1077850884121e-07
2.2996352960769e-08
1.7237644645007e-09
1.0784373394301e-10
6.0291494019538e-12
3.1169511416351e-13
1.5376588891058e-14
8.0491169285324e-16
524.46019678273
439.01805105627
342.23698645591
253.58153219196
179.90970137158
123.52651006383
82.445699520573
53.278292671674
33.64259743938
20.769339189126
12.504935148853
7.3870907130119
4.3017298461838
2.4989384262741
1.4630563364293
0.86929084401086
0.52705790968174
0.32712054187051
0.2079564866404
0.13530951888305
0.090017748854087
0.061071580302788
0.042267825440383
0.029789349808095
0.02135015320871
0.015525596371462
0.011450497674146
0.0085541311192276
0.0064684813842466
0.0049455578734892
0.0038192705217348
0.0029767260461637
0.0023409731005839
0.0018563013104198
0.0014831722065538
0.0011933398501379
0.00096645360543102
0.00078764531586173
0.00064571145511216
0.00053216694158043
0.00044102899166099
0.00036728161775801
0.00034604660423121
0.01124515067462
0.0087719560613673
0.0075607393722361
0.0016751808456539
0.001928218659486
0.0030591878726662
0.0046071462925124
0.0065141640639981
0.0086396743582151
0.010831215701567
0.012944392779595
0.014815853995831
0.016238296624679
0.017025908422972
0.017252111872321
0.017150533791761
0.016842287749068
0.01626879736995
0.015279579085345
0.013864970598825
0.012196962501906
0.010480205694157
0.0089032427265407
0.0075459633041226
0.0064623472601548
0.0056583242970163
0.0051094096596556
0.0048164395894272
0.0048230777854386
0.0051512727125407
0.0058834246440647
0.0071259155463501
0.0090100174173227
0.011449784349161
0.013045205291811
0.013450117865446
0.01314464429255
0.012415461172194
0.011193047221214
0.0096613920308584
0.0081177021657917
0.0070943308922811
0.0062473523619748
0.0057963085017319
0.005764002747092
0.0059923239218209
0.0063830978256565
0.0068426922620599
0.0072136773114875
0.0074622701091802
0.007618326472163
0.0076774841084744
0.0076147315346131
0.0075247902731896
0.0074434630018816
0.0073675202653773
0.0072959487834861
0.0072229742244958
0.0071459956890454
0.007067294509318
0.0069861427595441
0.0068853395721353
0.0068144150236473
0.0067622305750272
0.0066846903873703
0.0065782440613602
0.0063787257193977
0.0060331447602602
0.0055023693145315
0.0047869246435899
0.0039831481301884
0.0031758337653434
0.0024688101448784
0.0019289910005627
0.0015319397615403
0.0012383614690231
0.0010185880884849
0.00086666159364912
0.00078268567099982
0.00074066020672436
0.00072188305732213
0.00071558316573928
0.00069289635996894
0.00059117714892865
0.00038473968600816
0.00015202440483542
3.3641498233983e-05
5.5804177990226e-06
1.0434450519181e-06
1.6132366306709e-07
1.6930986446173e-08
1.2352612543953e-09
7.6591233355572e-11
4.2658376830929e-12
2.2015722578317e-13
1.0852430065711e-14
5.2735593669695e-16
474.83055027645
338.18524874612
231.35668308523
158.43155778043
109.08896308072
75.253845873117
51.709985687778
35.0075104176
23.285137306501
15.064025344421
9.481504582628
5.8322776229045
3.5340645225258
2.1246214079898
1.279154930282
0.77768750159505
0.4801069550178
0.30210412330475
0.19420069081828
0.12751599354934
0.085460439511725
0.058455516828912
0.040654352638322
0.028755266924637
0.02068433177735
0.015099316808923
0.011168325223824
0.008357898097092
0.0063326298992803
0.0048500412576988
0.0037515991525408
0.0029288310317486
0.0023064758944287
0.0018306486275517
0.0014636654824625
0.0011788189504314
0.00095567704992749
0.00077952936275494
0.00063949027996313
0.00052743178091064
0.000437445151661
0.00036443317698431
0.00031799213686706
0.010944488042443
0.0083457897948196
0.0070902520465541
0.0021416911512413
0.0017487208636666
0.0028408880947137
0.0043793011004054
0.0063339999308867
0.0085185111073578
0.010719306725052
0.012833356115416
0.014722149465453
0.016142837637776
0.016903691970433
0.017134026070494
0.017091766594071
0.016848946830806
0.016310789138055
0.015258987876219
0.013759121686939
0.012043663976417
0.010332728756821
0.008805437546088
0.0075144526859279
0.0065140155499805
0.005765409953578
0.0052663562895692
0.0050351242094515
0.0050913589326664
0.0054416756482585
0.0061059146029114
0.0071796705477589
0.0087823166612835
0.010991525688782
0.012913567629018
0.013384994962663
0.013092986903214
0.012246144896094
0.010892154962105
0.0092624980845359
0.0078826931654086
0.0070031497830225
0.006303070847884
0.0059603586919992
0.0059465419512157
0.0061383875884862
0.0064587639366511
0.0068234714442084
0.0071613740196899
0.0074351377496362
0.0076067765592458
0.0076810328678878
0.0076317593483974
0.0075621197349842
0.0074920817205424
0.0074275663925807
0.0073611865105128
0.0072844761222264
0.0071956845462653
0.0070968779611076
0.0069823495172501
0.0067765385279803
0.0066429466896198
0.0064001185711029
0.0060099426537161
0.0054506224516917
0.0047369621321156
0.0039280563422173
0.0031022333766961
0.0023913730370391
0.0018499238343781
0.0014456121480013
0.0011445019143316
0.00092589168213897
0.00076980816149574
0.00065446108357792
0.0005702338299628
0.00051884233873423
0.00049563517045836
0.00048772725582991
0.0004952689626353
0.00050211093171049
0.00049161151681709
0.00041845834508902
0.00026550700178885
0.000100733312423
2.205173155731e-05
3.9382639444585e-06
7.5358917983603e-07
1.1182845413571e-07
1.1040563879794e-08
7.81903097824e-10
4.8057419155256e-11
2.6665336605447e-12
1.3736234372175e-13
6.7723604502135e-15
3.3306690738755e-16
230.89034576461
115.58565479047
84.70482535369
65.350710869169
50.578538684201
38.621053055888
29.219469976361
21.444310227936
15.190228186803
10.401284674581
6.9020778710847
4.4514384242459
2.8121982549785
1.7551216424369
1.0910840811809
0.68071979352129
0.42911872309995
0.2746457476196
0.17891192115822
0.11877232046372
0.080323850693949
0.055295704282591
0.038761951155557
0.027588194820241
0.019919713551464
0.014595339897816
0.010827612517541
0.0081251085599328
0.0061709636349603
0.0047364720168244
0.00367129489276
0.002871180432358
0.002263599534823
0.0017991869722831
0.0014407898522311
0.0011618434984821
0.0009427466759806
0.00076954167714416
0.00063184557014984
0.00052172644380322
0.00043303247173765
0.0003608070891486
0.00030234669243151
0.010451422954201
0.0078815701587485
0.0065644565955729
0.0029587786236567
0.0015361779865215
0.0025737246764668
0.0041035860062304
0.0061235725736717
0.0083628382413741
0.010569629065022
0.012690942877258
0.014569638995323
0.015959231280094
0.016688279030857
0.016930068382569
0.016951032392223
0.016828256268409
0.016340560368168
0.015202886640091
0.013605530618065
0.011837173336609
0.010158992421801
0.0087035964104896
0.0075080769581932
0.0065924153286088
0.005917602712783
0.0054813272830825
0.0053268717449815
0.0054285624062835
0.0057963590023791
0.006380820409881
0.0072543718268858
0.0085257492267576
0.010310222394244
0.012414662694335
0.013168667081269
0.012972785032402
0.012013366977094
0.010431388006547
0.0088634476485692
0.0076567383452009
0.0069475957064213
0.0064093934782532
0.0061668565641853
0.0061493548289646
0.0062876977228199
0.0065227154793202
0.0067908069622709
0.0070764341327538
0.0073392021190135
0.0075055027981521
0.0075817057455816
0.0075396511534671
0.0074793889621696
0.0074121124716542
0.0073253695028508
0.0072245639795407
0.0070999490367321
0.0069397632511845
0.0067254249959916
0.0064380720659147
0.0059655864335859
0.0053838972338449
0.0046440269953933
0.0038424437224802
0.0030567265328603
0.0023801718919774
0.0018468378976066
0.0014341130735123
0.0011237422712056
0.00089301141285214
0.0007235211598613
0.00059936091931001
0.00050914055167961
0.00044406729233448
0.00039631814340702
0.00036397394753851
0.00034875757016417
0.00034439033880707
0.00034924486556454
0.00036142869671707
0.00036616003918821
0.00035312467941995
0.00028850035874384
0.00017186868628782
6.1127915910286e-05
1.3378423169619e-05
2.6242044723623e-06
5.0284439442883e-07
6.9803256508294e-08
6.3923726034698e-09
4.461443992021e-10
2.7251562118025e-11
1.5058232438747e-12
7.7438055967605e-14
3.8580250105724e-15
1.6653345369377e-16
0.26582796158632
10.50859864893
17.191927645393
20.367229282792
20.933068152934
19.197499925787
16.362299084737
13.216920671938
10.193689399912
7.5230765319714
5.3323171624876
3.6493406548401
2.4250817132189
1.579665235704
1.0171268805092
0.65276912285613
0.42052514255702
0.2734276547101
0.18016343123734
0.12059279245358
0.082062261042362
0.056763620566219
0.039882743005467
0.028455154855759
0.020608842120088
0.015114220827066
0.01121805064265
0.0084264606635589
0.006401394590164
0.0049131962073561
0.0038080612627118
0.0029780699440531
0.002348697608004
0.0018665429157465
0.0014935117760508
0.001203629997279
0.00097645676660918
0.00079702742707399
0.00065423881727811
0.00053975074758017
0.00044764976682388
0.00037319237674149
0.00031163818612207
0.0059602790473039
0.0080099063286969
0.0063413345048695
0.004629204487212
0.0012634759983634
0.0019781936283425
0.0033148376791212
0.0052716834292112
0.0075871527379219
0.0098804410616866
0.012024594295919
0.013938951604578
0.015432321491231
0.01628362967839
0.016545535376416
0.016740062727685
0.016818046859274
0.016573345898708
0.015492302919014
0.013849873108742
0.012034811679799
0.010358592594694
0.00892828452008
0.0077787522325012
0.0068960005957375
0.0062531920778506
0.0058421164110865
0.0056999129163879
0.005785230223426
0.0060731093448925
0.0065419468741013
0.0071649624032895
0.008045281833541
0.0092259790743379
0.010946252780197
0.012525966643143
0.01279891402223
0.011860304580318
0.010290799026165
0.0087596408919284
0.0076530966255133
0.0069065929892247
0.0065026342543169
0.0063354442980228
0.0062994313454845
0.0063755976736206
0.0065064803190849
0.0067216311630451
0.0069156017212824
0.0070560921152625
0.007113823334056
0.0070871524214193
0.0070086338916235
0.006888289265556
0.0067456676717805
0.0065642435201303
0.0063341428360886
0.0060366969776613
0.0056456071450914
0.0051452073218377
0.0044040262699614
0.0025907694484706
0.0020582399199487
0.0016402079143085
0.0013027477900727
0.001031247647026
0.00081849029422376
0.0006543441657636
0.00052849980846181
0.00043363941780794
0.00036255429506526
0.00031019880236771
0.00027211039872921
0.00024502999113124
0.00022662416962466
0.0002163920025775
0.00021226341162695
0.0002130114499731
0.00021896729822013
0.00022902535485336
0.00023550408807937
0.00023306635417608
0.0002098557037582
0.00015347852495806
7.8985469092074e-05
2.4888137417162e-05
5.5165317852379e-06
1.2119488496942e-06
2.1497450017338e-07
2.5730900826693e-08
2.0997560634672e-09
1.4158163530453e-10
8.4523499310762e-12
4.6024295485836e-13
2.3425705819591e-14
1.1379786002408e-15
5.5511151231258e-17
0.035018140482966
0.36617370660481
1.1963010536158
2.2309196678011
3.1823859192942
3.8297540743285
4.0937683748055
3.9104346654177
3.4671517741952
2.8917530055221
2.2792763980331
1.7159864788095
1.2421478242565
0.87346171957225
0.60236964194749
0.41067474255615
0.27880918857298
0.18969324875334
0.12992633232931
0.089859229629821
0.062865000718791
0.044534593808112
0.031951856843805
0.023207654663739
0.017058374330918
0.012684681277823
0.0095387731605761
0.0072464963138241
0.0055607855584909
0.0043063329413753
0.0033642361296966
0.0026501780079773
0.0021034940682887
0.001680179140481
0.0013521358307327
0.0010950332312349
0.00089217704299105
0.00073121145886046
0.00060238441676719
0.00049860133534363
0.00041481882356142
0.00034682122910545
0.00029042683363661
0.0042241702843961
0.0066071802946057
0.0046001678734693
0.0029261614266538
0.0011104140199164
0.0015120805097595
0.0027931910164873
0.0050537984542358
0.0077445874894444
0.010086496547427
0.012173174668766
0.013915058772882
0.015055625885171
0.015456364022497
0.01574556153329
0.016284688318368
0.016878665786046
0.016446517728955
0.014827728067721
0.012857287967002
0.011070070545875
0.0096186091013344
0.0085052603445943
0.0076719948261879
0.0070762712370729
0.0066940145469667
0.006517199610824
0.0064874647618853
0.0065872484933434
0.0068151680998079
0.007134462183676
0.007520822817622
0.0079323667778093
0.0083582231781731
0.0089303319628606
0.0099775600105927
0.010313905793756
0.0090331482565249
0.0076884463859237
0.0067672225319559
0.0062214589323593
0.0061576175374323
0.005908870915575
0.0057060841742671
0.0055029415721477
0.0052991524046293
0.0050881851109623
0.0048327977440816
0.0045299598360851
0.0042033848767007
0.0038815406183839
0.0035715803691012
0.0032839728331038
0.0029950322848948
0.0027068616959989
0.0024168553699517
0.0021320526007715
0.0018535981315237
0.0015865735572513
0.001337436826421
0.0010674510633157
0.00064260144708939
0.00053484379235957
0.00044251867144851
0.00036724389765985
0.00030516338514119
0.00025529223808696
0.00021676668548254
0.00018719848564602
0.00016463817863488
0.00014798940403082
0.00013610140368392
0.00012839954546839
0.00012448725481667
0.00012277984019532
0.00012357939178531
0.00012647427002094
0.00013134102195922
0.00013627299187197
0.00013800088406185
0.0001350337839186
0.00012180101776665
9.4160313063196e-05
5.6512420664567e-05
2.3519897969199e-05
6.639467356212e-06
1.7027796771485e-06
3.6499847183569e-07
5.4348897909895e-08
5.3191860915902e-09
4.0082007157771e-10
2.6244090234329e-11
1.5409340470285e-12
8.3155704544424e-14
4.2188474935756e-15
2.2204460492503e-16
0
0.021268921005095
0.059401138113603
0.1743498461753
0.38215826092667
0.64277902836704
0.91163948333093
1.1283140975863
1.2571844505027
1.265877560369
1.1861087010638
1.0376089777748
0.85842174000213
0.676893816913
0.51419705151082
0.37967435919802
0.27504630961663
0.19687466841136
0.14011508363855
0.099702118647054
0.071214916008656
0.051198502141291
0.037111690482981
0.027150872278412
0.020057266463956
0.014961394088533
0.011268358675747
0.0085658545549268
0.0065715018475614
0.0050872837906961
0.0039690693593386
0.0031197129602443
0.0024699654417986
0.0019703740257737
0.0015826301551227
0.0012792006702349
0.0010401959799081
0.00085082909686196
0.00069904381109254
0.00057714772104611
0.00047914305428698
0.00039961700330338
0.00033458160145167
0.00028145664713708
0.00033240390181671
0.0060516688578938
0.0034171784287216
0.0018550902407286
0.0009175669213759
0.00089720729204512
0.0017844105519611
0.0040701092738054
0.0071153978332767
0.0096350445943059
0.011802814332602
0.013486536843963
0.014228601356529
0.014351289930315
0.014246764378677
0.015650529331841
0.017166768199874
0.016451838725271
0.014268281035814
0.012086624166272
0.010436268002158
0.0092455527401909
0.0084087615721233
0.0078291419728229
0.0074195561091113
0.0071634198424566
0.0070287977560199
0.0069622825251807
0.0069467843051405
0.0069269193152741
0.0068649549991711
0.0067437080025035
0.0064516814757289
0.0059791638984139
0.0054172928691305
0.0049437299672777
0.0045844519208225
0.0039571854285765
0.0034085880841679
0.0030680543754396
0.0028292560535932
0.0030507458337863
0.0028241164174059
0.0025928865945963
0.002351321552027
0.0021049109507203
0.0018650054539904
0.0016475156104545
0.0014558966736631
0.0012904740140969
0.0011505959567274
0.0010322084622909
0.00092994834781845
0.00083842399447864
0.0007528547926261
0.00067058963547117
0.0005917895306875
0.00051714765186728
0.00044771581428316
0.00038451996472377
0.00031784853545891
0.00020854207389387
0.00017972341453842
0.00015450500370473
0.00013338100720445
0.00011645717646452
0.00010322241091043
9.3185915319538e-05
8.5775543293476e-05
8.0459061570837e-05
7.7106415695471e-05
7.5409367121748e-05
7.4798104787999e-05
7.5382261661816e-05
7.696937248397e-05
7.9335469939157e-05
8.1720832655563e-05
8.2968173585274e-05
8.2304388947518e-05
7.8324537958085e-05
6.8917927026235e-05
5.3395612438611e-05
3.4022809276002e-05
1.6441734727562e-05
5.7703025560518e-06
1.7664567218689e-06
4.4755140324315e-07
8.0681134329019e-08
9.4710254916475e-09
7.988100181322e-10
5.7744337089716e-11
3.6961267380065e-12
2.1430079932827e-13
1.149080830487e-14
5.5511151231258e-16
0
-2.7755575615629e-17
0.010611259287615
0.029216098813881
0.047730520364418
0.10150191383343
0.18121459076544
0.27733436610367
0.37478172880334
0.45380927906796
0.50169296480276
0.50902983647073
0.48324185097833
0.43205419316113
0.36682992162722
0.29822567144826
0.23433271562013
0.17954320271766
0.13513940250525
0.1005689403869
0.074386600194622
0.054940794958672
0.04065410092375
0.030206343388741
0.022571582719019
0.016980880924951
0.012869419721562
0.0098284556387562
0.0075637828472397
0.0058640450182015
0.0045795052786435
0.0036019038681017
0.0028532817232119
0.002276195310128
0.0018267674175141
0.0014752930034019
0.0011982542531247
0.00097804992116723
0.00080250608114507
0.00066195681377257
0.00054866566612588
0.00045687179142473
0.00038206890776449
0.00032088893400772
0.00027034575265683
0.00022753377789808
0.0045041079705588
0.0029173537723506
0.0013976376974145
0.00072205925007085
0.00064829041480141
0.0011472910880597
0.0022213583113184
0.0044124907151892
0.0074774324516675
0.010489994951067
0.012651491015742
0.013496753149481
0.013202144034942
0.012979328168214
0.01466581606293
0.017551544944599
0.016050673896665
0.013076321946186
0.010825378379984
0.0093615140503127
0.0083986590188094
0.0077315814440975
0.0072257503710174
0.006820590497755
0.0064892976589217
0.0061699323814257
0.0058114794945401
0.0053872832052397
0.0048813892224766
0.0042942411330362
0.0036593847833015
0.0030230965080205
0.002442888811699
0.0019629564471102
0.0016044702647755
0.0013592788307151
0.0011816473030689
0.001054738584818
0.00096583733195654
0.00089548996189037
0.00096552600586575
0.00089605133980353
0.00082664162802293
0.0007503387845551
0.00067807273413312
0.00060842670672623
0.00054479160935184
0.00048811671782323
0.00043821551769807
0.00039444000546962
0.00035565164686902
0.00032063152079176
0.00028839932931468
0.00025825450432326
0.00022990542625956
0.00020345227968294
0.00017905442380062
0.00015690525338358
0.00013709583457039
0.00011802107862369
8.2453303824614e-05
7.3584152228079e-05
6.5984934102592e-05
5.993410255517e-05
5.5270269655405e-05
5.1805442799591e-05
4.9389633309915e-05
4.7943045780152e-05
4.7153827181512e-05
4.7017228227864e-05
4.7390977587158e-05
4.824238404022e-05
4.9312177438698e-05
5.0297949858391e-05
5.0717592510463e-05
5.0267550686545e-05