/*--------------------------------*- C++ -*----------------------------------*\
| =========                 |                                                 |
| \\      /  F ield         | OpenFOAM: The Open Source CFD Toolbox           |
|  \\    /   O peration     | Version:  2312                                  |
|   \\  /    A nd           | Website:  www.openfoam.com                      |
|    \\/     M anipulation  |                                                 |
\*---------------------------------------------------------------------------*/
FoamFile
{
    version     2.0;
    format      ascii;
    arch        "LSB;label=32;scalar=64";
    class       volScalarField;
    location    "3e-05";
    object      T;
}
// * * * * * * * * * * * * * * * * * * * * * * * * * * * * * * * * * * * * * //

dimensions      [0 0 0 1 0 0 0];

internalField   nonuniform List<scalar> 
109340
(
373.00011692615
373.00035578796
372.99987888037
372.99889003214
372.99767732573
372.99641299419
372.99516105821
372.99393852401
372.99271385059
372.99141945138
372.99003741358
372.98855217762
372.98694117126
372.98517471948
372.98321597165
372.98101931083
372.97852781769
372.97567147379
372.97236363105
372.96849800403
372.96394562808
372.95855054616
372.95212498834
372.94444165935
372.93522540638
372.92414254072
372.91078805422
372.89466822268
372.87517718113
372.85153965211
372.82280736583
372.78766446394
372.7442325882
372.68964655079
372.61916247578
372.52398173818
373.0003137017
373.00022956762
372.99945558387
372.9983758762
372.99719467848
372.9959913875
372.99477465454
372.99353702014
372.99226399895
372.9909304964
372.98951399208
372.9879930163
372.98634192306
372.98452909856
372.98251545187
372.98025299327
372.97768231473
372.9747294754
372.97130317252
372.96729198047
372.96256041005
372.95694503733
372.95024884064
372.94223307582
372.93260826873
372.92102288228
372.90704980224
372.89016790996
372.86973025812
372.84492307396
372.81471907206
372.77768178643
372.73172424654
372.67357582781
372.59755440656
372.49219132689
373.00039306443
373.00007011606
372.99916350057
372.998090063
372.9969415661
372.99575530692
372.99452699464
372.99325993573
372.99195487831
372.99059641684
372.98916256069
372.98763030409
372.98597309193
372.98415911044
372.98214959072
372.97989678628
372.97734148398
372.97440999456
372.97101101519
372.96703285622
372.96233987189
372.95676835059
372.95012028229
372.94215504032
372.93258026404
372.92104027734
372.90710278629
372.89024006029
372.86979264348
372.8449468194
372.81465324845
372.77746093454
372.73125128213
372.67266935852
372.59569396638
372.48702706438
373.00038886859
372.99978113643
372.99871143643
372.99754217198
372.99633347983
372.99508934231
372.99381015336
372.99249637124
372.99114720091
372.98975397502
372.98829951452
372.98676215884
372.98511530782
372.98332843497
372.98136461943
372.97917620803
372.97670481307
372.97387673735
372.97059973494
372.96676282824
372.96222781032
372.95682781458
372.95035785245
372.94256738148
372.9331515886
372.92173839805
372.90787455049
372.89099880201
372.87042977935
372.84530914357
372.81453416343
372.77658541865
372.72924766065
372.66898817005
372.58922414386
372.47341180191
373.00016370833
372.99881859057
372.99716722768
372.99559135833
372.99408392343
372.9926301206
372.99122963602
372.98990020721
372.98864562363
372.98744832421
372.98630045776
372.98518529577
372.98407829848
372.98294811865
372.98175674655
372.98045433654
372.97897752939
372.97724880852
372.97516933674
372.97261053903
372.96937769374
372.96525348604
372.95997841364
372.95323543647
372.94465402776
372.93377409202
372.92002963943
372.90272139737
372.88099042923
372.85376647558
372.81969275442
372.77691262739
372.72281409409
372.65331284589
372.5606413123
372.42193902878
373.00424128592
373.02104322148
373.03900262863
373.05684463237
373.07411813948
373.09054843185
373.10599480511
373.12038456841
373.13366695452
373.14586061291
373.15694542662
373.1669152948
373.17580348996
373.18354606916
373.19013044757
373.19552946564
373.19963416631
373.20233652111
373.20361507103
373.20344578082
373.20156012448
373.19763144553
373.19128944313
373.18214435878
373.16955653072
373.15280004215
373.13098529906
373.10303272879
373.0676184287
373.02313700016
372.96773251724
372.89905367948
372.81331683984
372.70504172036
372.56389087886
372.35263278681
372.38885492668
372.18642494166
371.88153395747
371.4456990046
370.85797322012
370.09752030806
369.14709710198
367.99294239635
366.6259480594
365.04210495565
363.28443959832
361.39492250806
359.42075141354
357.42090057472
355.44640745301
353.5382066388
351.71806519414
349.99519163037
348.37249140986
346.84867044691
345.41906312873
344.07726238385
342.81674344117
341.63126261257
340.51466903742
339.46082800058
338.46402529282
337.51957225936
336.62365677872
335.77238716597
334.96156875014
334.18776465983
333.44847351634
332.7413043401
332.06392494243
331.41384451452
330.78921671846
330.1886677498
329.61069727338
329.05354721768
328.51583131309
327.99660759214
327.97218689456
326.04626334419
319.54093718812
319.22270794189
318.53585314573
318.37269240042
318.7457670046
319.07618623289
319.36428696306
319.60971295639
319.81501775666
319.98040466891
320.10571564009
320.18909963184
320.23106040183
320.23713602341
320.21752173565
320.17189539417
320.10765714971
320.02338224834
319.91590221323
319.78138993394
319.62071573546
319.44113755169
319.24784448319
319.05056894762
318.85890773482
318.68407967655
318.5295354296
318.40858381955
318.33662961918
318.32863095959
318.36924839922
318.42825309859
318.48590685436
318.48463170698
318.43299203602
318.35078273261
318.24253669302
318.11205757051
317.94744744229
317.75068818078
317.50733025867
317.30199665823
317.13692311808
317.02303150525
316.94470147161
316.88991479674
316.84295021304
316.77836500937
316.69190241682
316.59482270241
316.49172298554
316.38708214522
316.28132998827
316.1742068477
316.06578530485
315.95700660318
315.84852414442
315.73919696477
315.6276036689
315.51197470086
315.35670774994
315.21934242913
315.06511654517
314.88498333949
314.66401419649
314.37957498788
313.99945798655
313.47773664632
312.75147307606
311.74431490656
310.35627531115
308.4436515705
305.82560693049
302.30307111516
297.61586728128
291.42454623414
283.39625579465
273.09887697783
259.56200371574
240.43485627163
218.46274007676
195.10896246061
168.72263478038
150.99589959017
157.73679379919
203.41255090267
283.16356917317
307.04165301765
299.07418276273
295.03196653434
294.12095047084
293.78009590933
293.56401153487
293.38054066799
293.20413691454
293.03027921861
372.33505066425
372.08857503619
371.71653596139
371.19751935286
370.51627461657
369.65909078462
368.61507223302
367.37710546601
365.94458639281
364.33038301351
362.55928647679
360.67947691579
358.73702483115
356.77926617016
354.85238476603
352.98887886625
351.20888646289
349.5228500152
347.93378241035
346.43967681631
345.03610826172
343.7176450932
342.47838315459
341.31207350133
340.21269830772
339.17481260776
338.19305380591
337.26242714353
336.37891072433
335.53886071136
334.73874200441
333.9753137148
333.24571532442
332.54742409563
331.87819675459
331.23610795494
330.61928253929
330.02575382518
329.45415621177
328.90326686831
328.37134043904
327.85730862116
328.23363194402
324.76436944861
319.33539363408
319.33946822183
318.32818884257
318.6347016647
319.02709302476
319.37755294862
319.6818983048
319.93786903788
320.14797442004
320.31340625456
320.43311165108
320.50275885117
320.52497106482
320.5117459664
320.46464010658
320.39505297523
320.30801320955
320.20126765994
320.06961329528
319.91022169852
319.7273858839
319.52757705711
319.31917208269
319.11059051096
318.91349624794
318.73504277995
318.58129226315
318.46385248347
318.404225939
318.40257130923
318.44377699104
318.50360436499
318.55423789107
318.52747228106
318.45985313945
318.36193560099
318.2418975689
318.09679165042
317.91589882442
317.70735963708
317.51449070321
317.31398285798
317.14933540624
317.02685785397
316.94888255614
316.89055578101
316.83800113219
316.77068191523
316.68704100863
316.58920972854
316.48371007253
316.37396343799
316.26213163979
316.14972916351
316.03631344033
315.92151578465
315.80496615519
315.68543111833
315.5604892976
315.42652014974
315.2349527537
315.05345915973
314.8354546828
314.56046471946
314.19681260226
313.6966962344
312.99308898492
312.00139788269
310.60296955785
308.65743288384
306.01435657166
302.4720730563
297.77113734434
291.72253233095
284.22322094697
275.05679402284
264.48113630404
253.25588314274
240.651162454
225.39273199237
208.97456800657
189.81709457527
167.61029876712
152.60597498547
161.05605520471
208.25415177164
287.06166268744
307.26547305955
298.85718862041
294.9776684491
294.1091591337
293.77647186101
293.56224542397
293.37945416819
293.20427020715
293.02990973827
372.31361377
372.02243378318
371.57580188285
370.96655433792
370.1940687976
369.2544550064
368.14574975722
366.86775664844
365.42169192955
363.821054472
362.08637480203
360.25231558275
358.36278143397
356.45984102018
354.58236369096
352.7621346656
351.01860739648
349.36299068847
347.79885561213
346.32476581169
344.93762421504
343.63280897276
342.40482219621
341.24780284484
340.15608145881
339.1245879071
338.14819770107
337.22209811366
336.34234699083
335.50541284557
334.70806832611
333.94711400139
333.21967430492
332.52322773424
331.85576533269
331.21528300745
330.59982345602
330.0075977842
329.43730266718
328.88752431477
328.35648939599
327.84393618
327.79831484127
325.42214769101
319.52700162281
319.49540777063
318.59579020091
318.89459013724
319.33732427436
319.73414135586
320.0749675937
320.35721993249
320.585776069
320.76158202562
320.88294634673
320.94330895993
320.94901564788
320.90986053932
320.83377447081
320.73599701479
320.62283718374
320.49086863879
320.33361588034
320.14953943224
319.94340781979
319.7228120509
319.4964070084
319.27297865184
319.06376722558
318.87582952914
318.7142056003
318.59259668899
318.5236430175
318.51026175627
318.53949649594
318.59190847944
318.63758994211
318.60519954485
318.52553544601
318.4153742357
318.28374977186
318.12482813775
317.93276131729
317.71733517789
317.52620910863
317.3269971167
317.16655069659
317.03150891854
316.9497165407
316.88644251159
316.82502061975
316.74800693334
316.65413581835
316.54885080209
316.43544398059
316.31397075391
316.18871148524
316.06187622603
315.93228106945
315.79834734254
315.65762926395
315.50598018552
315.33687299154
315.1407149462
314.82632570165
314.49152954282
314.04811789223
313.43696991787
312.57520340441
311.33850554187
309.55935601743
307.03081589468
303.5396047638
298.9240829308
293.11818404072
285.93206952879
276.94693419601
266.96474314893
257.61189956301
248.6395732467
239.39353038352
230.62572714275
221.65717589768
211.39644821376
199.05171122798
184.14476759846
166.7074780236
156.13890137659
168.40856534042
218.91461635552
294.6655358608
307.42398102976
298.38704070634
294.86357299804
294.07887585779
293.76423415707
293.55507878294
293.37465024406
293.20321120721
293.02947178395
372.26409568177
371.86619496501
371.2655830358
370.49850253204
369.58583090097
368.54129611138
367.36968407469
366.0679001307
364.63776204276
363.08551249166
361.4231940323
359.67265802215
357.8661060287
356.04013079821
354.23053580899
352.46702565215
350.77043369205
349.15285859521
347.61968653096
346.17156412509
344.80606240414
343.51855642114
342.3049932511
341.16005018303
340.0788753538
339.05591082137
338.08680794248
337.16714761899
336.2929660105
335.46060565884
334.6669807167
333.90921244658
333.18489182811
332.49143273688
331.82655541913
331.18822236428
330.57457385554
329.9841195302
329.41559972292
328.86712576689
328.33745196877
327.82638216047
327.57154004095
326.12070498956
319.83947726801
319.6948446982
318.99865969462
319.21970496585
319.71236135039
320.14565170228
320.50813305668
320.8012164535
321.03205647726
321.20344146947
321.31278186838
321.35506394477
321.33711449854
321.26765015924
321.163314341
321.03799237995
320.90032614783
320.74349974827
320.56195123952
320.35669669577
320.13237600603
319.8980886361
319.66135582291
319.43113115685
319.21599765353
319.02256359288
318.85837627917
318.73442551681
318.65392680344
318.62222832069
318.62654555579
318.65725077239
318.69025107131
318.65483992856
318.56182706285
318.43530560885
318.28567471112
318.10627338511
317.89964852048
317.67678814647
317.50495485934
317.30836902053
317.14598722479
317.01197582782
316.90844281937
316.8219879478
316.73159454846
316.63001851255
316.51270610093
316.38245735536
316.24232308874
316.09165779464
315.93409805691
315.77021774087
315.59635579677
315.40735796301
315.19520286717
314.94728571154
314.64500914471
314.26043587689
313.56970652734
312.76484732704
311.63469881975
310.02334129664
307.73200299255
304.50297403983
300.11991250522
294.42951507253
287.07033289711
278.06238184613
269.40085447899
261.07377241225
252.31112548771
243.85382415338
236.3498759525
229.94714272666
224.97118405575
219.26635421253
212.40139276941
204.07663353927
193.46575186859
181.04694832194
167.41703419697
162.0010075398
179.91181198172
235.30973371766
303.77055618917
307.00107554778
297.7306505999
294.7153421593
294.029826612
293.74452627101
293.54353414956
293.36760135885
293.20089001839
293.02984377863
372.10099978104
371.40525842813
370.49574043813
369.50933111204
368.47319503242
367.38184269231
366.21834497787
364.9635617365
363.61029805118
362.15221476841
360.59370284637
358.94985665027
357.24734842555
355.51751480973
353.79204748037
352.10025163548
350.46266339751
348.89308598035
347.39902334805
345.98284000856
344.64337429597
343.37826994509
342.18247628712
341.05200829049
339.98313414121
338.97109161782
338.01099663854
337.0989682667
336.23148284975
335.40492181015
334.61630078021
333.86297561447
333.14244269856
332.45224793734
331.79025912684
331.15469087579
330.54358606239
329.95547999374
329.38887290502
328.84197028316
328.3141662635
327.80456319618
327.42014102329
326.84329678667
320.31658650816
319.88762731832
319.52726618953
319.53158868061
320.06648650429
320.53123774079
320.91178961179
321.20680701486
321.42901049663
321.58803683569
321.67890884895
321.69785167831
321.64542455069
321.54056542347
321.40430928217
321.2533297527
321.09316123336
320.91267243044
320.70848452508
320.48375436827
320.24567008413
320.00390406215
319.76342321569
319.5334629904
319.31837245655
319.1251458534
318.96246156159
318.83230518318
318.74150521345
318.6884498749
318.65928150805
318.6502013839
318.65049767872
318.60884012222
318.49907885789
318.34967513714
318.16946745468
317.95798595394
317.72393424237
317.49541689683
317.36386782679
317.16988209417
317.00443185201
316.85021567143
316.71073591138
316.57025033712
316.4164708218
316.24612049546
316.05709301415
315.84967634752
315.62775255194
315.39191784717
315.14335842449
314.87430145339
314.57301224982
314.22354506008
313.80129524887
313.26911923301
312.57160218853
311.62780264492
309.84786057119
307.71164166015
304.7427018431
300.72078331895
295.38698208409
288.26939435131
280.205914115
272.50131277981
264.37568376138
255.87734899904
247.98010765475
241.21769620212
235.72170079838
231.42411551511
227.86900251968
224.60225843985
220.78060871342
215.56211735609
209.39089261187
201.05515699152
191.24044351654
180.40036612205
170.41397306201
171.0027069729
196.10471754696
257.15269121486
311.38942339955
305.74803724288
296.95359134992
294.55370030113
293.96944560262
293.72029232881
293.52895957014
293.35918113392
293.19743359882
293.03014869075
371.35252221559
369.70832448525
368.60948434236
367.65389785285
366.71457160279
365.74728863136
364.72188448722
363.60655038998
362.38700431055
361.05945214412
359.62980691052
358.11166177361
356.52728592625
354.9057006997
353.27580714586
351.66540164733
350.09622720595
348.58309259518
347.13532652766
345.75716090505
344.44927112936
343.20975368548
342.03604795886
340.92393166085
339.86962067575
338.86998107713
337.92052838558
337.01781240597
336.15827648605
335.33861364008
334.556153136
333.80815900293
333.09207633681
332.40595535598
331.74771525603
331.11540192648
330.50711483202
329.92155438862
329.35719884532
328.81251876397
328.28706405541
327.77879000835
327.30102845632
327.58010227693
320.98768579122
320.0194156009
320.03373603082
319.78896617668
320.37132201107
320.88315808018
321.29392928134
321.58789770028
321.79422575613
321.93383153085
321.99890682293
321.98333407871
321.88931070238
321.74297496059
321.57461249222
321.40184879016
321.21983097098
321.01457848054
320.78827649887
320.54693392138
320.29788985834
320.04989168235
319.80808270544
319.57949610353
319.36701862615
319.17577805205
319.01373657546
318.87796533724
318.77190555354
318.68418507553
318.61117230886
318.54236855986
318.4786595635
318.40287039826
318.25934806414
318.05982420237
317.81722419125
317.54077614429
317.26815429422
317.02289280895
316.97142393215
316.76649334277
316.56658426267
316.35502789796
316.12125641636
315.85521889976
315.5473682521
315.19718138354
314.80909345463
314.38622498387
313.93683943473
313.46361263781
312.95746143635
312.39689610752
311.73995291895
310.94021687139
309.92981686982
308.60992625211
306.84381339345
304.42322563597
300.10859035489
295.14371078661
288.70876056183
282.02929520993
275.44594999694
268.04379041036
260.31789948763
253.06600129336
246.77375426941
241.56339171591
237.46128101605
234.50344007567
232.21274990655
230.06469767265
227.79949607503
224.94667304416
220.58693900549
215.34003583966
208.67775096382
199.86669105571
191.28894931549
182.08945797545
176.52895946775
184.29463220948
217.74127575264
282.14116617053
315.47040106802
303.7146613901
296.14939617423
294.37678172287
293.91409394033
293.69334328721
293.51192345473
293.3490656744
293.19300964135
293.03036822945
363.52587709184
366.31347025698
365.82356785947
365.30131177905
364.71426782148
364.02058220966
363.22137634555
362.31329442046
361.29252744671
360.15201626735
358.89508801281
357.53672306322
356.09651448428
354.60019595096
353.07599744544
351.55043256751
350.04767854974
348.58506942775
347.1748052596
345.82410102014
344.53595850202
343.31051769051
342.14664968215
341.0412550963
339.99152451102
338.99358707954
338.04492500297
337.14256095467
336.28196518211
335.46098131393
334.67675887007
333.92692407941
333.20895723145
332.5206059452
331.85962927344
331.22473270729
330.61416486603
330.02615284251
329.45947866599
328.9127228196
328.38422712367
327.87397301216
327.37509017684
329.01355477206
323.55495797226
319.94629294948
320.37165729031
319.86102841282
320.4262706348
321.01920802409
321.52680339975
321.88328124103
322.09939102267
322.22860146326
322.28058041701
322.24141160079
322.11520676636
321.93139861759
321.737106641
321.54407526931
321.34598397259
321.12248176306
320.87493037232
320.61534281427
320.35525315208
320.10075101496
319.85699971741
319.62707649778
319.41349707673
319.21956999411
319.05147084863
318.90183918913
318.76125093123
318.62599016859
318.48491833141
318.32907528464
318.1411241525
317.948592885
317.72189822445
317.42252608759
317.04900578525
316.65152828777
316.29109485561
315.9890749078
316.02070495891
315.75408627673
315.45121092904
315.08287908284
314.63164730232
314.0695190764
313.4022280317
312.61651777501
311.73126237768
310.76828291864
309.7588986994
308.70329713057
307.56587546726
306.28579173206
304.76793403212
302.9001395509
300.53921007963
297.52400041839
293.69287135211
288.18434343825
272.40193358936
266.9385193226
260.94821920134
255.03355557203
249.63868794696
245.08902906704
241.56452983771
239.07465491259
237.98559456269
237.88440323721
237.86652250852
237.65483154053
236.89760509235
235.2802620545
232.15986214911
227.79454880352
222.93842267565
216.58849083394
208.38046297711
200.88408927645
194.09202295534
189.37024044287
192.97230178689
214.17160689482
261.48269101708
318.47635825827
314.06378679337
299.66996162202
295.11644463775
294.11161626489
293.83383581051
293.64659881995
293.48098534334
293.33055921988
293.1844460906
293.03016000092
354.32801526236
359.0249609595
359.60401471205
359.81919690822
359.84958509113
359.69217070666
359.33424591515
358.78852284492
358.08537524085
357.23380488302
356.25272927859
355.15618774686
353.96104010313
352.69308708978
351.37968678356
350.04580555198
348.71308405882
347.39981665203
346.11937418215
344.88054988948
343.68877419511
342.54664197523
341.45469584661
340.41205499729
339.41707735886
338.46728406664
337.56025396824
336.69469043676
335.86736328426
335.07579105778
334.31782935307
333.59145137643
332.89425471555
332.22445188692
331.58055216669
330.96106499642
330.36438924409
329.78910498473
329.23395479896
328.6979438583
328.17921560139
327.67802769302
327.18818078136
328.86942018562
324.24657878354
320.0049437515
320.26268647575
320.02331900031
320.52395188569
321.28522348407
322.04987699476
322.56570236211
322.75918278122
322.79489573955
322.7194834702
322.52894947684
322.27138876279
322.01466911585
321.77499284293
321.54615571559
321.28805226613
320.98737264963
320.66979969356
320.35871830934
320.06600509834
319.79606552117
319.54560916264
319.31100252493
319.08753334294
318.86971220914
318.64175464847
318.39173215246
318.09666838891
317.72590980702
317.23468729341
316.56466971261
315.66059394095
314.50905552116
313.2252395478
311.94469011288
310.7521977279
309.81634373582
309.1095156119
308.46657936221
309.34689639096
308.55076601822
307.48436643814
306.09167651715
304.32702102203
302.16430227252
299.64350423694
296.84135918125
293.8127699972
290.61770736769
287.32854269491
283.93935738611
280.34865616857
276.79591189027
273.24401918877
269.3995863348
265.31209817059
261.10517887907
256.97915401995
252.85515449409
248.14842054108
247.00810854688
246.54102117616
246.67136373808
247.28571214469
248.51663573971
249.8956037353
251.18568142157
252.20599219104
252.58514392424
252.01429765544
250.25634818278
247.05805368763
243.01447548946
238.38902115896
232.68767939091
225.92774044058
218.89725034023
213.40248834441
208.68925718454
206.97292814088
212.38642335477
231.12384162787
269.56515489965
321.29386166416
322.27223991473
303.48836614049
296.04588919075
294.27148794521
293.90676869273
293.73224952145
293.57784706433
293.43395924787
293.30124788911
293.16976279445
293.02871833445
349.75875729114
354.03589870613
354.90822550683
355.38157511041
355.67496699444
355.81486182186
355.77788044569
355.56168676639
355.15201674845
354.58987859594
353.88292380668
353.03931936201
352.08533609778
351.04494100761
349.93852101015
348.7904009548
347.62255846665
346.45242379035
345.29529612862
344.16211778094
343.06025431256
341.9942675098
340.96679714872
339.97927832039
339.03168713683
338.12300331975
337.25199133222
336.41644046732
335.61613833326
334.84828195654
334.11099031421
333.4018875552
332.7208007599
332.06571679819
331.43483116498
330.82696501745
330.24057075435
329.67427140552
329.12710985758
328.59817006462
328.0870135728
327.5915025767
327.10998788741
327.03782347702
326.80718882622
320.88870299246
319.65497561207
319.60199222504
319.84341542097
320.82334557299
322.21620702439
323.06922576434
323.27284833283
323.19456939606
322.9614226847
322.62484562052
322.27613910727
321.93453164385
321.68155822723
321.41391241143
321.04344969358
320.58090990606
320.08849340939
319.61753483068
319.18776439844
318.8020631146
318.44556075129
318.0910231272
317.71068676996
317.27034404117
316.72266543034
316.00778844319
315.03883803806
313.70856927076
311.88696427665
309.52059034368
306.61422111747
303.22269205484
299.50126946658
296.01841646202
293.48761859848
291.78264832763
290.39827869375
288.95609037693
290.55983273361
288.81455490287
286.56644410808
283.82520417809
280.6457026438
277.14962401816
273.50300499591
269.86858485895
266.38887481436
263.14815354191
260.17636421874
257.43502213962
254.96745219452
252.80734087374
251.01201270984
249.67078093884
248.8668378098
248.64245511727
249.03280858826
250.94552940628
257.08721533581
259.31907591041
262.05008046706
265.14432354103
267.82540807972
269.76760708755
270.71439475375
270.5856286392
269.44539855534
267.15548257009
263.61558622929
259.54163984589
254.81636841059
249.31329032347
243.27678570264
237.20107707458
232.27536809645
228.40463232502
226.29533447056
227.96461856195
236.21012765771
255.12230125918
288.65345588355
329.06741509091
326.51776915681
306.10724234123
296.93105736757
294.39417636353
293.91717876568
293.76274570125
293.63465800676
293.50782301974
293.38508658554
293.26976613939
293.15340432698
293.02651625928
346.95252145075
350.43723227782
351.32453499649
351.88051526224
352.26708123589
352.52290549122
352.64564368917
352.62018141723
352.43334303247
352.07551669377
351.57827681092
350.955559503
350.21161580372
349.36578817064
348.44456445008
347.46870011969
346.45697430511
345.42674306318
344.39207864768
343.36606826025
342.35760792985
341.37253554174
340.41498981255
339.48748366814
338.59155030189
337.72758678078
336.89551477775
336.09476180368
335.32389713674
334.58198570932
333.86785474889
333.18011918609
332.51743074197
331.87855964913
331.26203366448
330.66682542809
330.09208411704
329.536708376
328.99938789679
328.47970227431
327.97585160695
327.48789450717
327.01476874873
326.54990725322
327.9373912804
324.09659123669
319.91576049618
319.02346645188
319.30852368918
320.65073927184
322.51791516282
323.37809589793
323.51450993224
323.31199066444
322.95121844369
322.5371590031
322.1088660441
321.69895139944
321.36665622737
320.95545236393
320.20792184241
319.21376911664
318.14013204843
317.0950459135
316.11776467118
315.19986736234
314.29789955367
313.34192312737
312.24256516896
310.90252572881
309.22821924475
307.13636401446
304.53575595681
301.28005660791
297.41561258556
293.06932712168
288.52256399787
284.11953044935
280.25191415957
277.39269258011
275.54541704803
274.09115427326
272.69610686868
271.19712486776
271.31735104501
269.51974029219
267.5690252734
265.49778330571
263.40174146974
261.38004709744
259.53688074591
257.95304890814
256.67799116291
255.76108417872
255.22500599485
255.10637854996
255.45858836924
256.32098895197
257.7196698162
259.65311247392
262.08729587205
264.95541668548
268.15874879091
272.2250037662
282.35783617749
285.14165619805
287.62035759506
289.26926056227
289.88501624574
289.3570673813
287.66826188525
284.79537530181
280.98464507104
276.78814943003
271.91903511861
266.6138110373
261.13610464427
255.94738623296
251.78273357227
248.67406776347
247.09929368236
248.30580651001
253.58517057588
264.92083905361
284.54570196789
313.97387367851
336.21399905266
325.31766544945
306.1745935425
297.25060710134
294.41527454083
293.85968577498
293.73290228545
293.63868320417
293.54105788157
293.43877223981
293.33617292109
293.23752541849
293.13616899345
293.02376447241
347.65227667605
347.47039265099
348.49779166495
349.02472991479
349.44343226087
349.74930489995
349.9504119117
350.02635239112
349.96966908083
349.76747562678
349.42487113265
348.96070444755
348.38672411135
347.7129365405
346.95219374093
346.12787667397
345.25757623214
344.356930714
343.43951761274
342.51718979534
341.6002296595
340.69624657213
339.81022486761
338.94549022827
338.10438150918
337.28845278013
336.49829816912
335.73409034073
334.99559098732
334.28246875689
333.59349409028
332.92794948074
332.28516111142
331.66438706337
331.06454842982
330.48436400103
329.92296403109
329.3791958568
328.85265172814
328.34218067898
327.84782924921
327.36773544512
326.90206205442
326.44620812003
327.07925462932
326.5412118269
322.73371971862
320.05140481441
320.1778361718
321.90541316872
323.37497678704
323.57002231813
323.26252544813
322.83133283132
322.38379889431
321.96508020492
321.59465848732
321.17766348733
320.56980586849
319.47520446015
317.35635205322
314.73978369133
312.19875506225
309.76500357129
307.42889204608
305.2012315652
303.06080232236
300.92874902541
298.67337078804
296.20960091416
293.46570890493
290.42380351786
287.1427195135
283.75554353157
280.47727932074
277.56761022145
275.24702328436
273.62424794634
272.74220961701
272.41475974968
272.20130333237
271.74100044662
271.029438679
270.14748382657
268.60844435621
267.58197003144
266.71487344292
266.04419422498
265.65113471505
265.58676769178
265.89030472811
266.5775146237
267.64709449102
269.10368790261
270.94828340883
273.18299681579
275.80591548321
278.78899774704
282.08321849904
285.59862114982
289.20948047971
292.75792024761
296.09175568547
299.45467746901
307.43074682535
308.43188155118
308.4112516953
307.35136311722
305.21540821951
302.03232692101
298.25084272473
293.97816858843
289.22286048368
284.32755147836
279.51455664063
275.28030383608
272.03038463781
269.66272208456
268.92879541327
270.52229722107
275.125034484
283.62973266971
297.14841673743
316.50201760796
334.76453115202
334.97834727143
319.18532310045
303.97626051146
296.8002879851
294.26059300298
293.75104265661
293.65632167171
293.59794727981
293.53083885137
293.45472534143
293.37302077115
293.28905269723
293.20586787311
293.11864439257
293.02070439899
355.06012039598
344.49398670737
346.18050166139
346.66472973443
347.05254338198
347.38153683105
347.61581463047
347.74058414563
347.76691288634
347.67461558974
347.4442460409
347.09385078354
346.65052502479
346.11374848418
345.49318402907
344.80066102764
344.053355268
343.26932060803
342.46026720243
341.63660259011
340.80774785398
339.98209066801
339.16606212627
338.36385811116
337.57840854956
336.81173701379
336.06526085567
335.33972135474
334.63554360942
333.952793991
333.29111723628
332.6500845057
332.02926449301
331.42811068994
330.84570706426
330.28040992411
329.7328500265
329.20195897774
328.68721525405
328.18808435637
327.70320741149
327.23243362719
326.77422996821
326.33007431186
325.93001272261
327.13520085704
325.56203711586
323.8998298861
323.35510758599
324.20897078848
324.28672085889
323.84016545794
323.31918801715
322.76559278923
322.22853467821
321.62191395079
320.85075500315
319.76702266464
317.9228497584
314.73842656354
309.90261714594
304.66369169551
299.97050752799
296.27500713551
293.39324044989
291.00883791535
288.85622188308
286.78606453564
284.73477646415
282.70408989703
280.76748332906
279.04360848976
277.67957200271
276.81453763411
276.53342952275