/*--------------------------------*- C++ -*----------------------------------*\
| =========                 |                                                 |
| \\      /  F ield         | OpenFOAM: The Open Source CFD Toolbox           |
|  \\    /   O peration     | Version:  2312                                  |
|   \\  /    A nd           | Website:  www.openfoam.com                      |
|    \\/     M anipulation  |                                                 |
\*---------------------------------------------------------------------------*/
FoamFile
{
    version     2.0;
    format      ascii;
    arch        "LSB;label=32;scalar=64";
    class       volScalarField;
    location    "3e-05";
    object      TpSat;
}
// * * * * * * * * * * * * * * * * * * * * * * * * * * * * * * * * * * * * * //

dimensions      [0 0 0 1 0 0 0];

internalField   nonuniform List<scalar> 
109340
(
373.00011337201
373.00035465226
372.99987774849
372.99888879725
372.99767602925
372.99641164379
372.99515964935
372.99393724737
372.99271269836
372.99141837752
372.99003640839
372.98855123356
372.98694028195
372.98517387875
372.98321517495
372.98101855468
372.97852709928
372.9756707908
372.97236298134
372.96849738618
372.9639450408
372.95854998865
372.95212446044
372.94444116182
372.93522494055
372.92414211022
372.91078766406
372.89466787735
372.87517688789
372.85153940539
372.82280710616
372.78766406575
372.74423178997
372.68964502204
372.61915994331
372.52397802677
373.00031178441
373.0002286127
372.99945452034
372.9983747562
372.99719352833
372.99599026905
372.99477371134
372.99353617423
372.99226322209
372.99092977902
372.98951332674
372.98799239505
372.9863413424
372.98452855499
372.98251494339
372.98025251703
372.9776818692
372.97472905957
372.97130278569
372.96729162237
372.96256008036
372.95694473671
372.95024857047
372.94223283826
372.9326080674
372.92102272256
372.9070496909
372.89016785499
372.86973024659
372.84492311207
372.8147190876
372.77768159502
372.73172353998
372.67357426321
372.59755173152
372.49218736488
373.00039137924
373.00006902818
372.99916243654
372.9980890892
372.99694073632
372.99575459655
372.99452636115
372.99325936348
372.99195435847
372.99059594057
372.98916212184
372.98762989838
372.98597271584
372.98415876164
372.98214926784
372.97989648857
372.97734121116
372.97440974669
372.97101079257
372.96703265945
372.96233970191
372.95676820842
372.95012017027
372.9421549618
372.93258022375
372.92104027734
372.90710284393
372.89024017946
372.86979290365
372.84494705231
372.81465345499
372.77746092499
372.73125072916
372.67266789976
372.59569132666
372.48702298012
373.00038730713
372.99978032166
372.9987109091
372.99754173405
372.99633310419
372.99508901358
372.99380986132
372.99249611132
372.99114696908
372.9897537684
372.98829933045
372.98676199502
372.98511516254
372.98332830718
372.98136450874
372.97917611457
372.9767047374
372.9738766804
372.97059969795
372.96676281542
372.96222781874
372.95682784955
372.95035791687
372.94256747958
372.93315172636
372.92173858374
372.9078747933
372.89099915346
372.8704301596
372.84530958237
372.81453457944
372.77658560731
372.72924726632
372.66898680241
372.58922148245
372.47340739272
373.00016280065
372.99881853398
372.99716715543
372.99559129997
372.99408387742
372.99263008426
372.99122958319
372.98990019541
372.98864561464
372.98744832421
372.98630045776
372.98518530413
372.98407831391
372.98294814196
372.9817567788
372.98045437901
372.9789775836
372.97724887648
372.97516942013
372.97261064023
372.96937781442
372.96525363306
372.95997859011
372.95323564453
372.94465426905
372.93377437874
372.92002997853
372.90272180423
372.88099091108
372.85376701864
372.8196932792
372.77691291713
372.72281375277
372.65331143534
372.56063840596
372.42193385263
373.00424104318
373.02104326765
373.03900265334
373.0568446544
373.074118163
373.09054845701
373.10599481255
373.1203846054
373.1336669901
373.14586064974
373.15694546635
373.16691533852
373.17580353878
373.18354612438
373.19013051072
373.19552953844
373.19963425054
373.20233661891
373.20361518372
373.20344591073
373.20156027393
373.1976316179
373.19128964247
373.18214459093
373.16955680367
373.15280036633
373.13098568955
373.10303320171
373.0676189996
373.02313764153
372.9677330448
372.89905411016
372.81331672139
372.70504056837
372.56388826275
372.35262770238
372.38885026018
372.18642092694
371.88153313315
371.44570340966
370.85798819199
370.09755197558
369.14715322333
367.99303505088
366.62609058779
365.04231808548
363.2847187178
361.39530420496
359.42124867222
357.42151471809
355.44713406864
353.53904427251
351.71900899751
349.99623680923
348.37363606533
346.84989892065
345.42038833323
344.07867810535
342.81825046085
341.63284905994
340.51633772736
339.46258052001
338.46587348127
337.52151533874
336.62567421743
335.77446589107
334.96372232991
334.18999444486
333.45078275247
332.74369451395
332.06639750743
331.41639171609
330.79183331347
330.19134827804
329.61344282125
329.05637535802
328.51874776605
327.99971549941
327.96225506317
326.04642635275
319.54087452044
319.22271564235
318.53726809165
318.37203850231
318.74535159659
319.0759433476
319.36417583076
319.60967642368
319.81501161626
319.98040070981
320.10568509567
320.18902746244
320.23094701895
320.2369949232
320.21737581779
320.17176891878
320.10758865608
320.02340698758
319.91607619238
319.78176164225
319.62134646992
319.44202977824
319.24899984818
319.05191408538
318.86025609029
318.6853583309
318.53048559124
318.40882066564
318.3354860549
318.32618824545
318.36615147404
318.42525120667
318.48382942437
318.48418008802
318.433023094
318.35135832537
318.24332785848
318.11322469152
317.94930527572
317.75306311809
317.50971980848
317.30337524355
317.13663534886
317.02151095715
316.94239122616
316.8869325534
316.84030279577
316.77662108845
316.69056047701
316.59410289623
316.49107626427
316.3866689783
316.28093779301
316.17383805395
316.0654416236
315.9566645375
315.84818981124
315.7388771722
315.62731602943
315.51170838226
315.35636381504
315.21887346734
315.06460568607
314.88446079493
314.66344722518
314.37893946301
313.99879614613
313.47718537121
312.75103498394
311.74456687267
310.35635876527
308.44306765768
305.82576884996
302.30321473204
297.61548291204
291.42391262547
283.39577239714
273.09777368409
259.55991382009
240.43236085757
218.45618784952
195.10252614075
180
180
180
203.42254854593
283.18395604483
307.04224557513
299.07328056127
295.03186374033
294.12095465619
293.78011297693
293.56402057585
293.380550341
293.20414702946
293.03018948092
372.33504581843
372.08857178727
371.71653574197
371.1975272873
370.51629666228
369.659132195
368.6151423076
367.37721569695
365.94476236107
364.33062066158
362.55960963914
360.67989026171
358.73755418143
356.7799052375
354.85313926734
352.98974380387
351.20985509134
349.52391867834
347.93494865466
346.44093829336
345.03746184198
343.71908921032
342.47990927792
341.31368308916
340.21439386548
339.17658899516
338.19492022865
337.2643779848
336.38093405286
335.54095688089
334.74091889121
333.97756927013
333.24805032677
332.54983528891
331.88068364203
331.23867239287
330.62192446122
330.02847144488
329.45694848155
328.90611173516
328.37426657859
327.86037595993
328.14808752057
324.76440087089
319.33537330419
319.33949563168
318.32897370227
318.63407269558
319.02671300102
319.37735961696
319.68182099196
319.9378493004
320.14797114682
320.31339397771
320.43306548197
320.50266865143
320.52484362107
320.51159578818
320.46448832973
320.39493717804
320.30796998475
320.20134424935
320.06986817001
319.91070703541
319.7281137554
319.52858633271
319.32042280316
319.11198397074
318.91484693246
318.73622197415
318.58202552142
318.46385681486
318.40291070894
318.40018762816
318.44090016695
318.50085628032
318.55252785724
318.52704261949
318.45992108484
318.36253999555
318.24275699561
318.09823584777
317.91802171917
317.70990412683
317.51686704504
317.31537075193
317.14920270112
317.02539350722
316.94662900812
316.88779316189
316.83562165942
316.76912254444
316.68582089218
316.58838957778
316.48310466136
316.37357743222
316.26177568975
316.14937985046
316.0359741366
315.92117344335
315.80463172829
315.6851160438
315.56019988763
315.42626083915
315.23461204761
315.05306099822
314.83501560822
314.56005886271
314.19642132937
313.69622346701
312.99261434704
312.00098279507
310.60251441883
308.65754501405
306.01416609337
302.47179021344
297.77066398361
291.72197260409
284.22279023435
275.05664186659
264.48036246801
253.25484695012
240.64958040962
225.39157759962
208.97053467681
189.81226668449
180
180
180
208.26397029869
287.08134951573
307.26521210325
298.85631420824
294.97757798018
294.10917045079
293.77649169002
293.5622548587
293.37946249036
293.20427754537
293.02981277325
372.31360868628
372.02243048385
371.57580317757
370.96656558358
370.19409647103
369.25450423928
368.14582848892
366.86787660262
365.42186633339
363.82129696177
362.08670846027
360.25274151939
358.36331161549
356.46048733505
354.58311949812
352.7630010025
351.01957941032
349.36406134389
347.80002558646
346.32603543614
344.93898384499
343.63426035453
342.40635000243
341.24942127282
340.15778435751
339.12637097498
338.15006508941
337.22405709133
336.34437680926
335.50751457362
334.71024625984
333.94937006032
333.22200967046
332.52564086682
331.85825621559
331.21785299571
330.60246683238
330.0103141666
329.44008566543
328.89036458611
328.3594428323
327.84696041675
327.76114404599
325.42233823734
319.52696069937
319.49542629635
318.59720359037
318.89396001542
319.33696633072
319.73396798088
320.07490450295
320.35720695769
320.58577523651
320.76156078271
320.88288552329
320.94320007307
320.94886988423
320.90969669644
320.83361091904
320.73587580259
320.62279570257
320.49096717905
320.33391863981
320.1500797773
319.94422436665
319.72389249816
319.497717244
319.27439558003
319.06516492487
318.87703642135
318.71493111749
318.59264273254
318.52261458822
318.50834656496
318.53695620365
318.58921547635
318.63566947516
318.60471570936
318.52557825266
318.41595063814
318.284661942
318.12640178336
317.93502876984
317.71991712843
317.52854670528
317.32828353525
317.16654986846
317.03001583018
316.94757596829
316.88394059827
316.82286501279
316.74658696018
316.65305821562
316.54811670572
316.4350255665
316.31371388469
316.18841989818
316.06156026812
315.93196309106
315.79803009066
315.65732943406
315.50569242184
315.33659664255
315.14045356813
314.82601881894
314.49119423695
314.0477718584
313.43664690954
312.57483124799
311.33796176099
309.55894377664
307.03037437902
303.53917372194
298.92357772958
293.11779740533
285.93169251418
276.94680354871
266.96427957909
257.61154179942
248.6390064572
239.39294543893
230.62515835178
221.65644657461
211.39575898622
199.04942898186
184.14208455444
180
180
180
218.92544857632
294.68422931165
307.42237616728
298.38635869873
294.86348714936
294.07888411214
293.76425037356
293.55508621472
293.37465736815
293.20321905224
293.02937437151
372.26409040143
371.86618664937
371.26558880412
370.49852150601
369.58586795361
368.54135545109
367.36977549145
366.06803741807
364.63794688634
363.08576631987
361.42352816916
359.67309088912
357.86664799377
356.04077770183
354.23129506875
352.46789589909
350.77141082936
349.15393955313
347.62085946577
346.17283607845
344.80743293167
343.52000998361
342.3065414751
341.16167131552
340.08059071222
339.05770668692
338.08869180355
337.16913118429
336.29499760465
335.46270805268
334.66914969443
333.9114695591
333.18723091916
332.49385189087
331.82905200289
331.19079507217
330.57721636772
329.98683617298
329.41838204509
328.86998989088
328.34044435171
327.82939350854
327.55862914464
326.12085546393
319.83940518028
319.69486401075
319.00052198439
319.21908857534
319.7120242598
320.14549638998
320.50808509614
320.80120751444
321.03204923844
321.20340309957
321.312696044
321.35492761699
321.33694399626
321.26747464233
321.16314299411
321.03786897704
320.90029577711
320.74363839715
320.56231559116
320.35731896543
320.13329319323
319.89925942887
319.66273568064
319.43258393719
319.21741539199
319.02375125944
318.85907186615
318.73449926574
318.65322782541
318.62080259208
318.62452017591
318.65475398612
318.68805309242
318.6542044893
318.56181887057
318.43580203619
318.28665634974
318.10796700733
317.90220770425
317.67921989918
317.50706909244
317.30952880825
317.14593528115
317.01069457526
316.90660864521
316.81993250605
316.72980582457
316.62876701388
316.51183456832
316.38192998783
316.24219572915
316.09157681427
315.93393320319
315.76999224442
315.59609972102
315.40708597365
315.19492782762
314.94701833591
314.64473449041
314.26018863886
313.56939787646
312.76450531667
311.63434796856
310.02294961712
307.7315796289
304.50251740213
300.11933148829
294.42904239033
287.07004658671
278.06177693229
269.400597521
261.07343878558
252.31084402415
243.85355374522
236.34965931602
229.94721997972
224.97099134564
219.26631469074
212.40108685919
204.0761476504
193.46407674509
181.04508502625
180
180
180
235.32348646739
303.78584303591
306.99840530931
297.73017534854
294.71536178982
294.02984000668
293.74454106835
293.54354105449
293.36760794624
293.20089814166
293.02974754517
372.10098635459
371.40525491656
370.4957590646
369.50936206563
368.47324583043
367.3819124809
366.21845151048
364.96370788369
363.61049867763
362.15248217042
360.59405237328
358.95029824151
357.24789717073
355.51816988618
353.79281290862
352.10112669315
350.46364748998
348.89417334968
347.40021026058
345.98412264587
344.64475104934
343.37972832499
342.18402210101
341.05363333978
339.98485259404
338.9728790285
338.01286311504
337.10095536219
336.23352132394
335.40704187513
334.61848787927
333.86524403464
333.14478328988
332.45467338138
331.79275973973
331.15726684767
330.54623425258
329.95820193076
329.39165982831
328.84486005772
328.31713393151
327.80754563163
327.41597544703
326.8433462611
320.31650622541
319.88765377114
319.52897510882
319.53094979089
320.06616511761
320.5311069892
320.91175897409
321.20680220078
321.42898786355
321.58797051103
321.67878954008
321.69768032135
321.64522394669
321.54036046845
321.40413755039
321.25319760096
321.09315108286
320.91286549609
320.70893357021
320.48450354215
320.24669608095
320.00518224828
319.76487625681
319.53496733351
319.31982652635
319.12635792557
318.96318013156
318.83237981017
318.74109444337
318.68748160356
318.6577322476
318.64807280599
318.64812338077
318.60784181772
318.49899464309
318.35010329717
318.17058806312
317.95995633591
317.72642076201
317.49767848925
317.36561989392
317.17066180759
317.0042439179
316.84921943084
316.70927785488
316.56864978072
316.4151200136
316.24508658784
316.05645885021
315.84942010168
315.62796089751
315.39211906522
315.14346575725
314.87425834838
314.57286455646
314.2233378525
313.80106175239
313.26886869598
312.57133618949
311.62749761283
309.84762364696
307.71137472263
304.74235648172
300.72033484416
295.3865310451
288.26904830348
280.20517203371
272.50115636894
264.37539018898
255.8770839012
247.97996333538
241.21765996306
235.72175742721
231.42426789039
227.86927526148
224.60247217098
220.78071180705
215.56247826904
209.39034390825
201.05485038541
191.23930906805
180.39862383009
180
180
196.1091392148
257.17026549675
311.39648106892
305.74509961088
296.95366987313
294.55378981362
293.96942714235
293.72030308899
293.52896608362
293.35918765391
293.19744182777
293.03005341426
371.35249048796
369.70836368463
368.60952194771
367.65394707197
366.71463987539
365.74737954276
364.72200214473
363.60671478864
362.38722371941
361.05973625735
359.63016897034
358.11211533421
356.52784142123
354.90636423063
353.27658053184
351.66628577646
350.0972191471
348.58418827298
347.13652344116
345.75845367111
344.45065499344
343.21123085874
342.03761142654
340.92556969608
339.87131544942
338.87175829355
337.92248748184
337.01979124007
336.16032292934
335.34073676301
334.55833707783
333.81043639294
333.09442675743
332.40838796501
331.75021925563
331.11798794312
330.50976514457
329.92428551344
329.3600089698
328.81542978164
328.29001971337
327.78177855933
327.30092115738
327.57950258845
320.9876515165
320.01946757173
320.03439018234
319.78837250599
320.37102592198
320.88305588456
321.29391228467
321.58788662024
321.7941749171
321.93372805347
321.99873740392
321.98311525162
321.88908215277
321.7427484909
321.57441943283
321.40170605703
321.21985428183
321.0148459634
320.78882697288
320.54782530548
320.29904668096
320.05128605386
319.80959783039
319.58104094178
319.36849273596
319.17701818368
319.01452109066
318.87817993061
318.77169753096
318.68356620227
318.60999723239
318.5407128015
318.47652008795
318.40133690817
318.25896821072
318.06024573344
317.81854426361
317.54294066134
317.27042590414
317.02481743289
316.97288363034
316.76708075082
316.56642062435
316.35429977141
316.12018551717
315.85403459112
315.54638183677
315.19627463241
314.80848697762
314.38597514246
313.9370092177
313.46376392567
312.95749270671
312.39689489724
311.73986278304
310.94005996581
309.92962573423
308.60972184332
306.84356985413
304.42289891131
300.10839201885
295.14335211742
288.70853420005
282.02878407588
275.44574655496
268.04354548257
260.31769421168
253.06588662695
246.77371216949
241.56346525902
237.46147083112
234.50368139813
232.21306758166
230.0649985775
227.79996616539
224.94684794964
220.58728125033
215.34007643822
208.67732533285
199.86646076061
191.28776205011
182.08813350134
180
184.29346419828
217.74709537865
282.15974095102
315.47143887581
303.71327505201
296.14912225567
294.37697296583
293.9142650336
293.69348177079
293.51201838684
293.34913078908
293.19305575581
293.03029086271
363.5259011439
366.31361135708
365.82368237963
365.30140521683
364.71435431506
364.02069061008
363.22151486522
362.31346807971
361.29274987048
360.15229967944
358.8954438748
357.53716641938
356.09705684671
354.60084387636
353.07675554579
351.55130022797
350.04865348394
348.58614977356
347.17598599973
345.8253795126
344.53733072447
343.31197913166
342.14819743743
341.0428907456
339.99326582899
338.99544743183
338.04687785312
337.14453571886
336.2840075573
335.46309576616
334.67895873605
333.92919212604
333.21131285925
332.52300528797
331.86213644991
331.22730298391
330.61681571578
330.02887051686
329.46226470359
328.91558555153
328.38720344576
327.87698884164
327.37850544953
329.00468631703
323.55510263618
319.94640654909
320.37176031585
319.86095752342
320.42591785596
321.01908049722
321.52677734567
321.883252987
322.09931366717
322.22846271173
322.28037005089
322.24115090184
322.11493727613
321.93114440163
321.73687454132
321.54388253019
321.34599358213
321.12277240978
320.87555269502
320.61628124374
320.35646470264
320.10217121299
319.8585377158
319.62863756264
319.41496128584
319.22083470857
319.05229661131
318.90224124338
318.76121734633
318.62560881454
318.48420794896
318.32792552346
318.13960985722
317.94638923203
317.72096792038
317.42278584388
317.05035579133
316.65369799861
316.29331373946
315.99073044956
316.02176340922
315.7543921
315.45106972379
315.08233016781
314.63089125507
314.06859113991
313.40145306514
312.61593477838
311.73100500399
310.76829887386
309.75912788052
308.7035028821
307.5660021224
306.28584338718
304.76792328954
302.90004893813
300.53906506262
297.52380454801
293.69266147655
288.18417011986
272.40239129578
266.93803957512
260.94809994182
255.03347239568
249.63867523958
245.08907210622
241.56464742919
239.07489718336
237.98591009302
237.88479561185
237.86695082682
237.65524727509
236.89809550047
235.28056487414
232.16023292398
227.79483661657
222.93857017339
216.5881709164
208.38043544119
200.88357007625
194.0909191017
189.36882990084
192.97019260847
214.17228677409
261.49542436059
318.48847372324
314.05934479061
299.66936856841
295.11620615945
294.11165097519
293.83387294739
293.64662871862
293.48100534237
293.33057479885
293.18445979095
293.03007048692
354.32807637346
359.02503231317
359.60409261349
359.81928536201
359.84969988623
359.69230476577
359.33443337094
358.78874986112
358.08563984699
357.23413477117
356.25314095526
355.15668502247
353.96164100188
352.69379237251
351.3805009432
350.04672888975
348.71411310634
347.40094812937
346.12060487647
344.88187648509
343.69019333322
342.54815294796
341.45629379648
340.41373765955
339.41884047482
338.46911963411
337.56218061308
336.69669912414
335.86943691373
335.07795620978
334.32001318014
333.59378047154
332.89667703475
332.22686958949
331.58310229217
330.9636728696
330.36709369996
329.79184426532
329.23677011695
328.70083238639
328.18222718469
327.68107957385
327.19157161154
328.84917705364
324.2470678135
320.00535416681
320.26283941157
320.02345007343
320.52375098141
321.28515169956
322.04977935077
322.56551220545
322.758943693
322.79459761845
322.719109418
322.52857015599
322.27108975183
322.01436814156
321.77470238265
321.5459341798
321.28830632504
320.98801366571
320.67081356484
320.35996552547
320.06741752883
319.7975213931
319.54706207686
319.3123804173
319.08870841478
318.87055234127
318.64236502132
318.39195022271
318.09654085774
317.72554836121
317.23411206153
316.56399511618
315.65979300225
314.50785515624
313.2230689446
311.94552131314
310.75419601149
309.81840765803
309.11089890128
308.46734409569
309.3472117325
308.55080111476
307.48424924946
306.09142756835
304.32669167275
302.16389211562
299.64322801357
296.84114001335
293.81273488623
290.61781159159
287.32874559624
283.93952643892
280.34881023281
276.79602821545
273.24410340868
269.39963119247
265.31212193026
261.10515234728
256.97910101299
252.85537719018
248.14866545844
247.00825371173
246.54115963018
246.67156646217
247.2860385599
248.5170135646
249.89605291297
251.18618464882
252.20648047278
252.58562835415
252.01479197179
250.25670383453
247.05849245927
243.01477432772
238.38932065799
232.6876800244
225.927788749
218.89715087449
213.40216052003
208.68856892272
206.97186986608
212.38492186163
231.12317819686
269.57326464372
321.30638490192
322.26782958366
303.48691962874
296.04532209929
294.27140476584
293.90680515303
293.7322811329
293.57787091572
293.43397547748
293.30126191295
293.16977598893
293.02863631754
349.7587880036
354.03606387589
354.90838242534
355.38172811079
355.67511184533
355.81505157254
355.77809862157
355.56195658958
355.15232387556
354.59026191104
353.88337449474
353.03986777963
352.08597592197
351.04568970651
349.93937371217
348.79135623671
347.62362351997
346.45358989543
345.29656077507
344.16347558978
343.06170290659
341.99580686071
340.9684254805
339.98099358355
339.03348352672
338.1248786074
337.25394530371
336.41843150999
335.61823111782
334.85045888412
334.11320810176
333.404231226
332.72320979501
332.06819288006
331.43740558165
330.82966328696
330.24330352971
329.67696292384
329.12996286597
328.60110923575
328.08998132823
327.59457189935
327.11314727641
327.00481888493
326.80798962784
320.89015063406
319.65591464354
319.60210940558
319.84334315392
320.82308901629
322.21554850646
323.06864494765
323.27236984311
323.19404890079
322.96090331002
322.62439099511
322.27582792145
321.93393155241
321.68104435809
321.41356418372
321.04399046556
320.5819462449
320.08974178034
319.61884942441
319.18905507785
318.80328660531
318.44668301621
318.09195226445
317.71135485528
317.27082655155
316.72293853962
316.00782038796
315.03871809539
313.70825696722
311.88658603911
309.5202489469
306.6138825923
303.22223673177
299.5002413917
296.01880093725
293.48908387754
291.78390172066
290.39896156446
288.95640171835
290.55987593735
288.81462197098
286.56648323852
283.82511932395
280.64560214631
277.1495010931
273.50292164665
269.8685814993
266.38896380525
263.14829993716
260.17650783619
257.43516606553
254.96757821025
252.80748140189
251.01213578375
249.67089788533
248.86696192011
248.64258716432
249.03296288345
250.94579069584
257.08753000102
259.31940390657
262.05048275901
265.14476797465
267.82590401816
269.76811522868
270.71488937713
270.58612592791
269.44583112228
267.15580978909
263.61608174162
259.54183504048
254.81667619988
249.31335669746
243.27690083248
237.20110114366
232.27525185739
228.40432570065
226.29477709475
227.96378206338
236.20912877832
255.12238587288
288.65973641727
329.07596307306
326.51328792652
306.10554160367
296.93097240039
294.394083847
293.9171973351
293.76276587333
293.6346779811
293.50783831456
293.38509743193
293.26977720356
293.1534159356
293.02644217248
346.95252005498
350.43737016601
351.32478861923
351.88077948908
352.26736549042
352.52313831989
352.64585851793
352.62046442859
352.43375142021
352.07599510745
351.57888331
350.95614416875
350.21231847267
349.36657328788
348.44546178342
347.46969766863
346.45807621653
345.42794770217
344.39338124269
343.36746353364
342.3590921175
341.37410636312
340.41664894872
339.48922919718
338.59338068329
337.72949598188
336.89749854063
336.09683095069
335.32604901779
334.58422815071
333.87013489049
333.18247524997
332.5198759296
331.88107245893
331.264732438
330.66952139624
330.09479703023
329.53950922711
329.0022660537
328.48264509207
327.97888269432
327.49098341871
327.01791082387
326.55182162114
327.93745697585
324.09931394794
319.91871628966
319.02459942895
319.30830904343
320.64955291546
322.51668299773
323.37757925509
323.51409893475
323.31142028056
322.95072994209
322.53679608873
322.10847028374
321.69844723821
321.36557313261
320.95489475858
320.20890752417
319.2151969062
318.14147870285
317.09620207335
316.11873330952
315.20065752353
314.29854606176
313.34240217646
312.24282733918
310.90265493264
309.22822893121
307.1362586343
304.53556782303
301.27982414562
297.41537716018
293.06914464985
288.5224243184
284.11939784635
280.25177895912
277.39288691138
275.54595637225
274.0916591621
272.69643085348
271.19729837472
271.31744165438
269.51986203962
267.5691121651
265.4978064961
263.40177962216
261.38010238009
259.53694397391
257.95312780094
256.67808056067
255.76117481613
255.22509109189
255.10646197181
255.45867925694
256.32109760076
257.71979462446
259.65326373446
262.08748397423
264.95565167524
268.15904143092
272.22537707548
282.35823634579
285.14209588368
287.62083201954
289.2697337825
289.88547660769
289.35749880724
287.66862620026
284.79569936091
280.98498719051
276.7883562882
271.91926424525
266.61391898497
261.13620917075
255.94744424382
251.78268207284
248.67390496066
247.09899004129
248.30535209354
253.58453909958
264.92051864979
284.54718689973
313.97902731992
336.21674027973
325.31367825826
306.17282730607
297.25049549931
294.41526207735
293.85968311057
293.73291349693
293.63869405501
293.5410698749
293.43878247288
293.33618009347
293.23753383019
293.13617965924
293.02369889125
347.65232242584
347.47033266569
348.49799205077
349.02505379144
349.44375840555
349.74965688644
349.95080807615
350.02678378339
349.97005714652
349.76793980495
349.42542248914
348.96141238
348.3874427867
347.71379174392
346.95314679398
346.12892513599
345.2587229076
344.35817902151
343.4408634898
342.51862847097
341.60175969868
340.69786225453
339.81192245697
338.94727084086
338.10624507924
337.2903978695
336.50032044541
335.73619085718
334.99776868193
334.28468314993
333.59576811066
332.93031187375
332.28759790778
331.66690379649
331.067146265
330.48705545344
329.92572131492
329.38201683303
328.85554120081
328.34514155925
327.85083952798
327.37087187824
326.90529142456
326.44957223985
327.01805572585
326.54420386504
322.73740480725
320.04625565794
320.17688720894
321.90327281276
323.37258289086
323.56838653273
323.2611353817
322.83037129338
322.38336606005
321.96588031827
321.59541466847
321.17725859058
320.5683194762
319.47511694698
317.35781919522
314.74136460698
312.1999588587
309.76584232527
307.4294749154
305.2016519377
303.06109417006
300.92891074364
298.67342106911
296.20957751211
293.46563399783
290.42368999733
287.14259220962
283.7554371098
280.47719964789
277.56757367021
275.24703226782
273.62429670224
272.74230666056
272.41490809992
272.20151655904
271.74121839486
271.02963130838
270.1476467398
268.60856984023
267.58210035571
266.71499014848
266.04429922688
265.65124453899
265.58688046544
265.89041494843
266.57762012531
267.64719588627
269.10378724868
270.94838783347
273.1831181399
275.80606613456
278.78918841591
282.08345741682
285.5989124903
289.20982465517
292.75831739313
296.09220102367
299.45516827605
307.43115974915
308.43228425027
308.41164152139
307.35170451474
305.2156797993
302.03264789221
298.25102978359
293.97837426689
289.22297172029
284.32766639985
279.51462865148
275.28036258557
272.03034497782
269.66261526714
268.92861509097
270.52205584595
275.12479202458
283.62971689983
297.14921768671
316.50447250216
334.76699559432
334.97684091029
319.18240232547
303.97581716623
296.80019829155
294.26058811073
293.75102028212
293.65633040733
293.59795234391
293.53084237845
293.45473130956
293.37302778302
293.28905690216
293.20587424148
293.11865355434
293.02064699329
355.06014922974
344.49386463234
346.18041552216
346.66502239345
347.05297167534
347.38199932651
347.61632092436
347.74118776357
347.76756178799
347.67536679008
347.44490815609
347.09457413474
346.6512501022
346.11465938903
345.4941958108
344.80177680628
344.05455944964
343.27062572686
342.46166474852
341.63808832808
340.80931965331
339.98375019102
339.16780385597
338.36567856474
337.58030911831
336.81371720209
336.06731792173
335.34185405039
334.63775183425
333.95508017391
333.29347815788
332.65250985567
332.03175802513
331.4306757135
330.84828737653
330.283175273
329.73562347972
329.20479420344
328.6901191316
328.19106031792
327.70624542096
327.23556334781
326.77747535808
326.33331911038
325.9301967041
327.13601965402
325.55278036759
323.89972406127
323.35379190104
324.20678772221
324.28554742968
323.8390116986
323.31782220905
322.76436778389
322.22771392618
321.62175714564
320.85057991144
319.7661714602
317.92105282355
314.7367765467
309.9042068814
304.66528444879
299.97141644033
296.2755209873
293.39354963055
291.00902288888
288.85632673125
286.78610222857
284.73477086883
282.70405900566
280.76743766048
279.04356758829
277.67954794179
276.81454640853
276.53348177142
276.83705769116
277.64965415699
278.86199241538
280.29329462947
281.7013068902
282.79477379512
283.4349438376
283.71350262002
283.846309829
281.49969165704
281.5508836476