/*--------------------------------*- C++ -*----------------------------------*\
| =========                 |                                                 |
| \\      /  F ield         | OpenFOAM: The Open Source CFD Toolbox           |
|  \\    /   O peration     | Version:  2312                                  |
|   \\  /    A nd           | Website:  www.openfoam.com                      |
|    \\/     M anipulation  |                                                 |
\*---------------------------------------------------------------------------*/
FoamFile
{
    version     2.0;
    format      ascii;
    arch        "LSB;label=32;scalar=64";
    class       volScalarField;
    location    "3e-05";
    object      Y.Liq;
}
// * * * * * * * * * * * * * * * * * * * * * * * * * * * * * * * * * * * * * //

dimensions      [0 0 0 0 0 0 0];

internalField   nonuniform List<scalar> 
109340
(
0.99998999840513
0.99998998517171
0.99998996020642
0.99998991492036
0.99998984053987
0.99998972666442
0.99998956237006
0.99998933873078
0.99998903764493
0.99998863772317
0.99998811901241
0.99998745666947
0.9999866209696
0.99998557627971
0.99998427969462
0.99998267941256
0.99998071273178
0.99997830365954
0.99997536000091
0.99997176977197
0.99996739695542
0.99996207648587
0.99995560819434
0.99994774954224
0.99993820671029
0.9999266235709
0.99991256811414
0.99989551574088
0.9998748274369
0.99984971051306
0.99981919727269
0.99978205137732
0.9997365861757
0.99968027513916
0.99960882222471
0.99951386308966
0.99998999571381
0.99998998097631
0.99998995246457
0.99998990211468
0.99998982060756
0.99998969782723
0.99998952322024
0.99998928262614
0.99998895916185
0.99998853357369
0.99998798382401
0.99998728386502
0.99998640262903
0.99998530284456
0.99998393959854
0.99998225859624
0.99998019411087
0.99997766644625
0.99997457883646
0.99997081369514
0.99996622813164
0.99996064868487
0.9999538649745
0.99994562202025
0.99993561077985
0.99992345642495
0.99990870388495
0.99989080017346
0.99986906951287
0.99984267300473
0.99981058710862
0.99977147819924
0.99972349357512
0.99966376059367
0.99958713936879
0.99948280924205
0.99998999608025
0.99998998207356
0.99998995504991
0.99998990673656
0.99998982805402
0.99998970865795
0.99998953661552
0.99998929818485
0.9999889771223
0.99998855446917
0.99998800811183
0.99998731197443
0.99998643500496
0.99998533996279
0.99998398196511
0.99998230674285
0.99998024855516
0.99997772765222
0.99997464709673
0.99997088897778
0.99996630980805
0.99996073516304
0.99995395333735
0.99994570745594
0.99993568589507
0.99992351021434
0.99990872030831
0.99989075668164
0.99986893346205
0.99984240543583
0.99981013338017
0.99977076844581
0.99972243691553
0.99966221950028
0.99958477019056
0.99947795542928
0.99998999682518
0.99998998453098
0.99998995971213
0.99998991416472
0.9999898388719
0.99998972331803
0.99998955535965
0.9999893209667
0.99998900399638
0.99998858569999
0.99998804406034
0.99998735299844
0.99998648142019
0.99998539196593
0.99998403949537
0.99998236927445
0.99998031489957
0.99997779557562
0.9999747128316
0.99997094649314
0.99996634973258
0.99996074349496
0.9999539097715
0.99994558324885
0.99993544096766
0.99992308945295
0.9999080485151
0.99988973210172
0.99986742049327
0.99984023076765
0.99980706762291
0.99976651863989
0.99971662771398
0.99965434673506
0.99957396313612
0.99946108693782
0.99998999820178
0.99998998898902
0.99998996753685
0.99998992603585
0.99998985547155
0.99998974535336
0.9999895833915
0.9999893552605
0.99998904439411
0.99998863142247
0.99998809355441
0.99998740376157
0.99998652936252
0.99998543063636
0.99998405903768
0.9999823549048
0.99998024483112
0.99997763827428
0.99997442331317
0.99997046316313
0.99996558758387
0.99995958642501
0.99995220065041
0.99994311094012
0.9999319240878
0.99991815584935
0.99990120996639
0.99988035278033
0.99985468101337
0.99982308255573
0.99978418621463
0.99973624432398
0.99967688953985
0.99960252002946
0.99950639689544
0.99936954440227
0.99998999984785
0.99998999546205
0.99998997752148
0.99998993627448
0.9999898602215
0.99998973530702
0.99998954440052
0.99998926680616
0.99998887768789
0.9999883470574
0.99998763835135
0.99998670650912
0.99998549548175
0.99998393512399
0.99998193736489
0.9999793915983
0.99997615929022
0.99997206800438
0.99996690353975
0.99996038697621
0.99995217110631
0.99994182529892
0.99992881561305
0.99991248139773
0.99989200879633
0.99986639801651
0.99983442083738
0.99979457919334
0.99974505076614
0.99968362743467
0.99960766968711
0.99951390113272
0.99939809657554
0.9992544424254
0.99907291436987
0.99882127893608
0.99937935193398
0.99917354098206
0.99885388237007
0.99838821395862
0.99775507812751
0.9969339440614
0.99590752939824
0.99466364090557
0.99319521253996
0.99150228601084
0.98962905186763
0.98762915400953
0.98555411457268
0.98346632046555
0.98142025927825
0.97945698941346
0.97759853923952
0.97585324005436
0.97422194852095
0.9727012226042
0.97128488819477
0.96996529394998
0.96873436680122
0.96758432133728
0.96650793677791
0.96549871064769
0.96455050255318
0.96365806328688
0.96281663634861
0.96202160172847
0.96126867978155
0.96055431559569
0.95987552503067
0.95922960376296
0.95861408307707
0.95802676633351
0.9574655767586
0.95692854752696
0.95641392859222
0.9559201967355
0.95544605007185
0.9549903397479
0.95453418844676
0.94904279574112
0.94305159529899
0.94316460161409
0.94338455277509
0.94352718560392
0.94365582267153
0.9437790737251
0.94389496091647
0.94400142638352
0.9440965564628
0.94417804434627
0.94424367761307
0.94429169703799
0.94432116753566
0.94432912397692
0.94432326939441
0.94430532330936
0.94427614516826
0.94423747763511
0.9441898884401
0.94413275090129
0.94406577165918
0.94398934728839
0.94390427828706
0.94381211388602
0.94371462689603
0.94361350454315
0.94351019869708
0.94340616592129
0.94330294240213
0.94320260967825
0.94310724240709
0.94301808998119
0.94293529630618
0.9428576053568
0.9427821706185
0.94270686212741
0.94263005321126
0.94255108265579
0.94246891878658
0.94238243172414
0.94230436992287
0.9422086472458
0.94211125871247
0.94201328730748
0.94191538242849
0.94182011992317
0.94172871169326
0.94163911877465
0.94154989233739
0.94146058181635
0.94137098964437
0.94128087508803
0.94118993124888
0.94109797987604
0.94100500715807
0.9409111313391
0.9408164761952
0.94072114498619
0.94062521928167
0.9405286629618
0.94040686518916
0.94030850084427
0.94020915624179
0.94010841447914
0.94000555653341
0.93989893301772
0.93978440413424
0.93965379250642
0.93949220337137
0.93927447023424
0.93895873301413
0.93847217242024
0.93769538653367
0.93645587812961
0.93448755954092
0.93137316307737
0.92654228243073
0.91917048338296
0.90783316876989
0.89011317508824
0.86205352372783
0.8174847288286
0.74898662058747
0.65199468974533
0.52668828323859
0.36997349771
0.17993627983967
0.04832436082487
0.0080982245397809
0.00091210830812393
7.0645687080804e-05
4.5105377057817e-06
2.5606118818541e-07
1.3405928991362e-08
6.6749262596287e-10
3.319408892756e-11
0.9993272980879
0.99907490879618
0.99868117052198
0.99812365902598
0.99738841389607
0.99646242235559
0.99533611930401
0.99400442531211
0.99246975537626
0.99074807925368
0.98886974311943
0.98688763877621
0.98485369662225
0.98281757758636
0.98082845024174
0.97891903484586
0.97710895533117
0.97540732000683
0.97381546751768
0.97232967496174
0.97094393194876
0.96965133940665
0.96844451116064
0.96731603950803
0.96625901907443
0.9652669697803
0.96433403958787
0.96345509118692
0.96262551875493
0.96184102975578
0.96109765731658
0.96039200884467
0.95972114618203
0.95908243517624
0.9584734852146
0.95789212174146
0.9573363583992
0.9568043244343
0.95629428547617
0.95580475253768
0.95533445070042
0.9548825891607
0.95433223935461
0.94763972001954
0.94309983585966
0.94339127633322
0.94362812390801
0.94379569694534
0.94395788592613
0.94411208998976
0.94425510394631
0.94438481550113
0.94449959552941
0.94459665619117
0.94467235375595
0.94472219153268
0.94474583479894
0.94474523818524
0.94472919260853
0.94469798387185
0.94465501311146
0.94460270804639
0.94454018463949
0.94446586017927
0.94437979644743
0.94428331400083
0.94417861318027
0.94406853604677
0.94395587051481
0.94384274176868
0.94373113645492
0.94362298556811
0.94352121085931
0.94342732900427
0.9433403045098
0.94325759733903
0.94317718967791
0.94309810530536
0.94301970199649
0.94294032061937
0.94285884829924
0.9427742332475
0.94268399099326
0.94258670541016
0.94245368705871
0.94235129652671
0.94224846461179
0.94214737872784
0.94204823802704
0.94195383261164
0.94186397171844
0.94177436129989
0.94168426070258
0.94159374788636
0.94150289522442
0.94141154609347
0.94131939295616
0.94122633713834
0.94113253529957
0.94103830017166
0.94094388083863
0.94084945589101
0.94075515650587
0.94066087322353
0.94054300017275
0.94044814269106
0.94035173033668
0.94025130540144
0.94014147750997
0.94001117107698
0.93983894282546
0.93958803081447
0.93919362682121
0.93855278579837
0.93752368555541
0.93589027463238
0.93331540125534
0.92936963222854
0.92355833655909
0.91534754368609
0.90438803798145
0.89076314813997
0.87456547868249
0.85516109453865
0.82998871242482
0.79222646905004
0.73152122332246
0.64031923460691
0.51780011109193
0.36131668366835
0.17200727364676
0.045217275723177
0.0074820080661207
0.00083603873171308
6.4534283447605e-05
4.1186266412869e-06
2.3395942053815e-07
1.2264983825117e-08
6.1199851018625e-10
3.059042240409e-11
0.99930887823449
0.99901046360583
0.99853506286895
0.99787818903135
0.99704333528861
0.99602822716548
0.99483278879478
0.99345919152756
0.99191145085586
0.99020608032802
0.98836811000828
0.98643712723032
0.98446050268327
0.98248385601896
0.98054901831044
0.9786868333175
0.97691619486667
0.97524708407899
0.97368173202114
0.97221740953466
0.97084909007116
0.96957067483315
0.96837558121576
0.96725698164749
0.96620836236242
0.96522351353036
0.96429654418224
0.96342251644611
0.96259708119894
0.96181617832353
0.96107602191716
0.96037320715495
0.95970484695167
0.95906831962361
0.95846122761632
0.95788142169837
0.95732696914688
0.95679602758561
0.95628693690608
0.95579827054573
0.95532879347226
0.95487761989843
0.95439858568105
0.9485635017308
0.9432626655426
0.94359482410144
0.94387803869798
0.94408087121267
0.94427491100833
0.94445741853628
0.9446247786972
0.94477562725786
0.94490820821903
0.94501864765506
0.94510426647161
0.94515614865832
0.94517366272712
0.94516729122627
0.94513850816592
0.94509041091047
0.94503047716167
0.94496247611935
0.94488524620689
0.94479699037811
0.94469775103661
0.94458888137478
0.94447270131295
0.94435208719505
0.94423004042026
0.94410899530978
0.94399104903695
0.94387891128117
0.94377539156706
0.94368119095055
0.94359432633396
0.94351145231358
0.94342920868992
0.94334632818581
0.94326321015532
0.94317885973953
0.94309245604844
0.94300243959441
0.94290630411585
0.9428029395233
0.94266183740511
0.94255381442596
0.94244618322632
0.94234254770718
0.94224318250105
0.9421492233929
0.94205863357351
0.94196755415649
0.94187544211386
0.94178248112882
0.94168915461348
0.94159531110876
0.94150073481369
0.94140555070014
0.9413100885401
0.94121470616082
0.94111960563547
0.9410250270888
0.94093065680865
0.9408360609996
0.94071518462953
0.94061146353645
0.94049289952029
0.94034124639361
0.94012119032395
0.93976324186762
0.93914461928102
0.93807886761902
0.93630377546744
0.9334515045772
0.92907590399144
0.92263982430035
0.91361633459051
0.90169411181773
0.88695166274538
0.86978638600028
0.85096951528175
0.83283613525376
0.81638973386407
0.79977372297981
0.78042713634213
0.75110788028468
0.69981648924339
0.61638489722827
0.49814970026124
0.34210501707782
0.1552863461978
0.039034605766227
0.0063071669282795
0.00069230901271645
5.2588220844246e-05
3.3335098098361e-06
1.8855916344692e-07
9.85272258905e-09
4.9074730645963e-10
2.4546641136915e-11
0.99926135514289
0.99885090129292
0.99820686555296
0.99737785749234
0.99639108473674
0.99526288569685
0.99400110103668
0.99260515913252
0.99107766391048
0.98942667226452
0.98766757930401
0.98582652708282
0.98394020504299
0.98204689896693
0.98018474543675
0.97838392478009
0.97666400873867
0.97503596497065
0.97350379635375
0.97206646046211
0.97072026938094
0.96945996150549
0.96827966362568
0.96717338285366
0.9661350553089
0.96515900134255
0.96423962903848
0.96337218785823
0.96255234193662
0.96177614080449
0.96104003318882
0.96034084100974
0.95967581067856
0.95904225953224
0.95843782463931
0.95786037367002
0.9573079965943
0.95677888249814
0.95627145104977
0.95578430260025
0.95531626908648
0.95486617007564
0.95441729776845
0.94951734250569
0.94348191619597
0.94379627178836
0.94412193187347
0.94434720563834
0.94456079126999
0.94476124154967
0.94494391126913
0.94510828347109
0.94525305401978
0.94537351586298
0.94546252443491
0.94551223746493
0.94552117104314
0.94550338936047
0.94545387633297
0.94538483063093
0.94530747242578
0.94522499694702
0.94513521632666
0.94503615992363
0.94492786947713
0.94481170332999
0.94468981895445
0.94456469375634
0.94443887244139
0.94431459262713
0.94419370970212
0.9440785596566
0.94397117828999
0.94387188594847
0.94377933339807
0.94369120750411
0.94360423900572
0.94351622461758
0.94342718129083
0.94333662867781
0.94324419111075
0.94314862635469
0.94304855884497
0.94294346509543
0.94282101608151
0.94271255002234
0.94260450493161
0.94249915743176
0.94239824073427
0.9422993768469
0.94220136389274
0.94210326887607
0.94200517802628
0.9419076696978
0.94181025749935
0.94171268685462
0.94161469583018
0.94151619106194
0.94141712118586
0.94131729709104
0.94121615112693
0.94111237620364
0.94100328812241
0.94088356668943
0.940694855418
0.94047555229969
0.94013524219757
0.93956156466736
0.93856851455399
0.93684834205855
0.93395111728848
0.9293406718477
0.9223962198979
0.91255097177409
0.89956885489292
0.88367869353969
0.86549282903465
0.8458784076413
0.82556309053685
0.80510902813811
0.78653862521121
0.77149427358916
0.7589081892799
0.74640222107879
0.73139344585075
0.70698974608447
0.66144628465351
0.58367564619873
0.46878390229751
0.3127750391196
0.1317581415303
0.031142536290562
0.004840554957149
0.00051066501634823
3.7741343135941e-05
2.3700490413675e-06
1.3350909540148e-07
6.9608693874326e-09
3.4628473420241e-10
1.7179039002278e-11
0.99906907204953
0.99834452743541
0.99737143224119
0.99631100536174
0.99519668293901
0.99402218722543
0.99277180935591
0.99142717541054
0.98998363929847
0.9884365304863
0.98679267686723
0.98506937489795
0.98329557515782
0.98150539845992
0.97973307121808
0.97800797892063
0.97635057886247
0.97477350141969
0.97328273881866
0.97187925456945
0.97056076051964
0.96932315295579
0.96816144825126
0.96707019173648
0.96604429548783
0.96507872444392
0.96416836391088
0.96330859112245
0.96249547499314
0.96172502451492
0.96099392265339
0.96029910458609
0.95963778892853
0.95900758066691
0.95840618784933
0.9578314684409
0.95728152815479
0.95675462070423
0.95624922666223
0.95576394061932
0.95529760335132
0.95484883508775
0.95441275199282
0.95048919844051
0.94379230897969
0.9439434440293
0.94432046276729
0.94457092276145
0.94480568724187
0.94502556733213
0.94522339456471
0.94539905826827
0.94555297089652
0.94568142529746
0.94577089202889
0.94581255878005
0.94581003188199
0.94576750016235
0.94569003742471
0.94559979124689
0.94550764319488
0.94541347985755
0.94531341827686
0.94520520248129
0.94508883431261
0.9449659163426
0.94483865723263
0.94470944403554
0.94458039535972
0.94445334422513
0.94432997124974
0.94421201105024
0.94410054460648
0.94399564999251
0.9438959185139
0.94379825893727
0.94369999502024
0.94360079975094
0.94350151092325
0.94340154689106
0.94330053365561
0.94319744208938
0.94309115610337
0.94298246410099
0.94288392118002
0.94277500071624
0.9426656619975
0.94255756671137
0.94245056404525
0.9423420798067
0.94223161240034
0.94211943776599
0.9420058416547
0.94189115093927
0.94177605320377
0.94166113090698
0.94154527906793
0.94142601748271
0.94130085518206
0.94116641445197
0.94101603646213
0.9408376176454
0.94060923120721
0.94029117591051
0.93960123586345
0.9385907518542
0.93689136608097
0.9340689705901
0.92956034455042
0.92269787189031
0.91283427980668
0.89961531802505
0.88319903441341
0.86421653851646
0.84350545942965
0.82186162991823
0.80042198359227
0.78029536547485
0.76140547949132
0.7441666229668
0.72981006250702
0.71882110115115
0.70945716850163
0.69969872620941
0.68668849599817
0.66369657418486
0.6199079288781
0.54443485631926
0.43056829433979
0.27380446408655
0.10408763480539
0.022807814049715
0.0033631386477781
0.00033377715474618
2.393429099961e-05
1.489103981775e-06
8.353014068695e-08
4.3465554461967e-09
2.1594940789935e-10
1.0626899392678e-11
0.99789736756029
0.99634319385013
0.99526169342709
0.99428101183508
0.99329630816754
0.99226900596005
0.99117286799026
0.98998175656167
0.98868581699796
0.98728235387466
0.98577904229825
0.98419247960474
0.98254717867816
0.98087393296752
0.9792030825988
0.97756448264124
0.97597912965012
0.97446131117969
0.97301894242875
0.97165512577698
0.97036932082095
0.96915877938543
0.96801960181484
0.96694703080744
0.96593623790487
0.96498332766445
0.9640839841257
0.96323344799333
0.96242794715077
0.96166423441309
0.96093897900478
0.96024928478293
0.95959247181231
0.95896612509183
0.95836811635224
0.95779646864476
0.95724927099084
0.95672485315829
0.95622172540129
0.95573848293775
0.95527391579113
0.95482667994857
0.9543965518162
0.95145608574863
0.94426490552777
0.94403851106314
0.94448027490843
0.94475932133387
0.94502103996322
0.94527184545971
0.94549222081374
0.94567666052292
0.94583558232578
0.94596525721649
0.94605055842409
0.94607750391421
0.94605467243264
0.94597712237332
0.94587173862769
0.94576425018768
0.94566023211965
0.94555561242782
0.94544598278386
0.94532916608362
0.94520545017635
0.94507653578131
0.9449445486809
0.94481159632029
0.94467930573979
0.94454923644447
0.94442284540488
0.94430132348542
0.94418456276486
0.94407050941808
0.94395629245882
0.94384021044364
0.94372396315712
0.94360704895845
0.94348816666156
0.94336558480735
0.94323907050794
0.94311150582702
0.94298801909059
0.94287090201487
0.94281095170959
0.94269528615333
0.94257532666752
0.94244978002631
0.94231468486902
0.94216481020738
0.94199867758642
0.94181587781344
0.94161929035784
0.94141301796981
0.94120270041046
0.94099159875892
0.94077409338349
0.9405393425608
0.94026611008226
0.93992800931049
0.93948278233385
0.93885656342588
0.93792452828658
0.93646730550779
0.93316440424205
0.92854650600396
0.92186415558713
0.91251776567436
0.90010924346827
0.8845899095923
0.86627639165648
0.84569219576608
0.82361502040463
0.800847236179
0.77841320489566
0.75730972770526
0.73809120645568
0.72081589099122
0.70537054788696
0.69213005806054
0.68171007080456
0.67366013794916
0.66627027499807
0.65784376181399
0.64497263899904
0.62098823673076
0.57593688118239
0.49956142729265
0.38392404374367
0.22613548032977
0.075990933177507
0.015322785563843
0.0021029706968394
0.0001937576704034
1.3686119769675e-05
8.4572245985227e-07
4.7220428908321e-08
2.4513289308296e-09
1.2157904044082e-10
5.9456019809648e-12
0.98805675058852
0.99233320188722
0.99206231496261
0.99164607587252
0.99109250750467
0.9903915883712
0.98956311583161
0.98860796592486
0.98752868878018
0.98632655735928
0.98500912640896
0.98359267496479
0.98209936350234
0.98055767978089
0.97899737229616
0.97744615822345
0.97592848864922
0.97446152618344
0.97305671063656
0.97171992710996
0.97045320555992
0.96925606734465
0.96812598333792
0.96705963931414
0.96605274505803
0.96510128199538
0.96420227005153
0.96335156229681
0.96254487477654
0.96177919893461
0.96105178958342
0.96035970247235
0.95970029245933
0.95907124301046
0.95847041585566
0.95789591440967
0.9573459570658
0.95681883933821
0.95631304780535
0.95582725198602
0.95536024425978
0.9549110073042
0.95447791473785
0.95341630407782
0.94672662968505
0.94384217140558
0.94441971834699
0.94477404164913
0.94506591989016
0.94538454029751
0.94568696568419
0.945912054046
0.94607807568253
0.94620996901636
0.9462975227032
0.94631983270973
0.94627821867387
0.94617195964233
0.94604348439557
0.9459208537909
0.94580431041715
0.94568933403894
0.94557078207897
0.94544631458214
0.94531636099835
0.94518266868021
0.94504707076769
0.94491115870041
0.94477595679023
0.94464225779645
0.94451082507866
0.94438125691821
0.94425221109266
0.9441232778035
0.94399050777006
0.94384630407046
0.94368389000916
0.94350219674669
0.94331181737681
0.94311383652781
0.94290700725296
0.94270677894195
0.94253181833563
0.94238363135784
0.94239628223696
0.94224929580997
0.94207768819287
0.94187263876794
0.94161974098924
0.94130094969291
0.94090575849503
0.94043411752615
0.93989734760323
0.9393137507239
0.9387027673513
0.93806647989514
0.93738041685986
0.93659268126277
0.93561068450402
0.93430947849527
0.9325052755408
0.92991867263802
0.92615577078462
0.9193220171612
0.88793904592239
0.87509153644063
0.85880858491639
0.83970695609623
0.81825330422697
0.79514210563234
0.77114123999026
0.74693669745008
0.72405423007924
0.7029524401209
0.68389162209745
0.66708807840463
0.65269214009143
0.64053733084608
0.63051755466514
0.62276693085343
0.61693959885209
0.61178517036971
0.60611627181025
0.5978205656773
0.58273763255102
0.55436610951217
0.50378907288582
0.42149481037923
0.29912455010424
0.14339920002187
0.037756447711852
0.0065567906996315
0.00077756087823188
6.3942567328133e-05
4.359651526415e-06
2.6302173366132e-07
1.4459365055559e-08
7.4324374481063e-10
3.6568698221468e-11
1.7651768668344e-12
0.97563226909589
0.98439753607995
0.98522028654053
0.98563949867256
0.9858071855446
0.98573264261016
0.9854080225064
0.98486849425023
0.98415263336146
0.98327482539632
0.98225885015517
0.98112611978029
0.97989855503308
0.97860309664919
0.97726901575455
0.97592242614473
0.97458607805247
0.97327778055737
0.97200987950864
0.97079056269129
0.96962437820868
0.96851323047582
0.96745723592823
0.96645495809391
0.96550430193353
0.9646020831746
0.96374525686518
0.96293171746326
0.96215843512773
0.96142238166178
0.96072116642627
0.96005244568708
0.95941392957435
0.95880358917999
0.95821949720818
0.95766001715543
0.95712363454996
0.95660884419596
0.95611425367929
0.95563871483354
0.95518104659185
0.95474025803423
0.95431474972271
0.95349503910028
0.94774969378467
0.94375090075805
0.94387089421817
0.94411610692789
0.94438942945013
0.94509230227618
0.94601980583181
0.94652633243447
0.94668666084462
0.94676279689437
0.94677760650143
0.94669864794217
0.94653436954678
0.94636071179276
0.94620304670198
0.9460545173341
0.94590979135518
0.9457622613172
0.94561274110698
0.94546116257167
0.94530735881385
0.94515482087683
0.94500394546433
0.94485334180569
0.94470115643948
0.94454448879957
0.94437786885745
0.94419293052953
0.94397623204321
0.94370569834705
0.94334566912686
0.94283958426067
0.94211804239295
0.9411254533201
0.93991138695574
0.93865598107241
0.93755677398342
0.93672921137426
0.93614238974585
0.93561978233116
0.93670213538551
0.93599276593218
0.93498399825689
0.93359581430791
0.93171094080481
0.92920266486641
0.92604509022553
0.92229664520575
0.91808972507421
0.91357426520366
0.90883306565056
0.90382106101006
0.89832348300472
0.8921460860911
0.88505369833972
0.87675274649423
0.86695220393985
0.85538351583413
0.84173342947555
0.82327002381332
0.77285240639834
0.75438058488744
0.73395260134338
0.71237774706554
0.69024028302223
0.66857987254043
0.6482224891011
0.62947923222431
0.61252710762108
0.59757281588473
0.58476269777523
0.57412958824443
0.56563320310866
0.55905356027367
0.55405913118319
0.55012886619995
0.54635115559742
0.54174910880278
0.53449111559509
0.52168379672561
0.49903139986162
0.46016461796651
0.39698841501192
0.30082047363363
0.16961725966214
0.054971533693478
0.011411853430285
0.0016552539144128
0.00016183000820032
1.2297062310983e-05
8.1268068043009e-07
4.8145770830728e-08
2.6197209775659e-09
1.3388506371101e-10
6.5531244691257e-12
3.1323644324799e-13
0.96749781024119
0.97914070397506
0.98024822102071
0.98088569094027
0.98133712946111
0.98159183010518
0.98162882143406
0.98147391294712
0.98108217289738
0.98052206978081
0.97980998848012
0.97895307184574
0.97798206063147
0.97692786599118
0.97581206441726
0.97466057742229
0.97349524406806
0.97233501234005
0.97119513286436
0.97008522112191
0.96901174608617
0.96797876057168
0.96698857411881
0.96604178974627
0.96513809278716
0.96427650468409
0.96345497474398
0.96267143494415
0.96192410652629
0.96121103457428
0.96052997536046
0.95987895810067
0.95925615382336
0.95865984159756
0.95808830302266
0.957540012516
0.95701358563323
0.95650771839774
0.9560211787731
0.95555274700138
0.95510145512377
0.95466623016879
0.95424663106997
0.95382277504727
0.95106171598657
0.94435986347179
0.94252331819125
0.94168263377392
0.94182752227674
0.94323971583439
0.94591810047783
0.94711785763573
0.94724706162955
0.94723581415076
0.9471293405414
0.94690639989596
0.94667555242752
0.94647734746943
0.94628916346211
0.94610182112741
0.94589648584388
0.94565705330078
0.94539179994001
0.94511729788289
0.94485000869286
0.94459861790348
0.94435649448652
0.94410478450989
0.9438214728215
0.94347770950984
0.94303273124812
0.94242251467297
0.94154451229772
0.9402461341981
0.93830727727262
0.93544602369106
0.93137608110453
0.92589419600393
0.91914299015687
0.91224295993793
0.90715403343938
0.90387364173561
0.90133068721101
0.89866257082841
0.9033243342024
0.89987744813854
0.89525013585059
0.88934048995687
0.88205267524572
0.87349482289109
0.86392363369756
0.8536940649216
0.8431861566599
0.83267151301377
0.82231521372791
0.81197541806621
0.80139902980077
0.7902417480714
0.77819437937199
0.76505272560173
0.75072886941622
0.73520762029691
0.71849049422725
0.69961061326793
0.64885654041397
0.63110813437502
0.61273640215984
0.59451664364711
0.57712992003307
0.56093024400625
0.54619876980015
0.53313665763675
0.52185350099076
0.51237977382876
0.50472973519016
0.49877850010823
0.494255114704
0.490759332232
0.48762283446963
0.48414868849695
0.47932519907218
0.47161659613048
0.45875516493814
0.43742030514076
0.40296362858014
0.3491849147708
0.26947898958455
0.16061733258108
0.059310641588536
0.014360857111196
0.0024919795128929
0.00028961123560947
2.4518792508437e-05
1.7850106720062e-06
1.1511032610436e-07
6.7233093375727e-09
3.631717196399e-10
1.8494002798273e-11
9.0205108857392e-13
4.2859772770106e-14
0.95412653630293
0.9753111734646
0.9765378779778
0.97722147035639
0.97774365562387
0.97812635669273
0.97835336452591
0.978384655354
0.9782616738642
0.97792323817255
0.97743785954497
0.97682255189805
0.97607945704018
0.97523205446293
0.97431084651282
0.97333928268646
0.9723367489512
0.97132074398177
0.9703057191362
0.96930527301753
0.96832738418483
0.9673772833297
0.96645828198897
0.96557257407622
0.96472123147035
0.96390434257265
0.96312149226127
0.96237175935242
0.96165376051475
0.96096605395447
0.9603072355283
0.95967584200197
0.95907046581341
0.95848967919227
0.95793214150844
0.95739646686464
0.95688135041095
0.95638575423517
0.95590851855043
0.95544854790423
0.95500500032056
0.95457697501328
0.95416326997995
0.95376452879366
0.95274154223439
0.94828454675686
0.9432706435516
0.94104008783246
0.9408335740346
0.94315436209015
0.94692614139342
0.94777052671078
0.94771850714923
0.94756646933893
0.94727610678845
0.94697277738232
0.94672654379205
0.94649245619137
0.94623899668992
0.9459158386169
0.94542807746272
0.94473717041052
0.94389824616836
0.94298808284776
0.94205917234695
0.94113634802894
0.94019354455849
0.93915135749783
0.93788229141973
0.93622219108299
0.93396451986812
0.93082691436216
0.92644920901246
0.92042146701268
0.91233550461877
0.90192441202112
0.88919113007751
0.87451742373803
0.85887839508079
0.84450657101765
0.83398596251083
0.82692758958745
0.82124044836184
0.81552315951898
0.82255564975694
0.81596544884813
0.80792951656255
0.79857382492069
0.78793918430166
0.77623054484858
0.76379839015032
0.75101997400373
0.73820076252061
0.72552924056123
0.71298723240734
0.70043785607727
0.68769642443217
0.67454944754358
0.66085199857071
0.64654256686759
0.63161993412888
0.61614758433159
0.60020387840581
0.58355035470053
0.53781214797396
0.52295713635076
0.50827244923726
0.49452554851731
0.48197979592427
0.4708186237683
0.46111158666642
0.45289265658296
0.44612854637813
0.44070887683716
0.4364374884909
0.43303457683508
0.42996335572582
0.42671971032414
0.42262595528737
0.4166768874923
0.40741577799331
0.39290314448253
0.37054925823378
0.33670119750584
0.28694255802063
0.21699902699874
0.12695746402688
0.050152481209283
0.013776315636736
0.0027786628716619
0.00037951311575888
3.6103422804594e-05
2.9122061872594e-06
2.0608408552251e-07
1.3057914249082e-08
7.5528063217189e-10
4.0618827316145e-11
2.0647933224566e-12
1.0048485857353e-13
4.7582701233593e-15
0.89515234561372
0.97207838372301
0.97359506118885
0.97430737373444
0.97481908033501
0.97524554473228
0.97554820881859
0.97570547197135
0.97570796549395
0.97556603038218
0.97523508689264
0.97478948297599
0.97423790504338
0.97357631363852
0.97282369621132
0.97200724204232
0.97115033889931
0.97026846208759
0.96937388428571
0.96847835277798
0.96759315712808
0.96672497215439
0.9658782479539
0.96505585177806
0.96425976377438
0.96349099305756
0.96274986752431
0.96203641663853
0.96135029791103
0.96069075582649
0.96005675203313
0.95944717546543
0.95886100457141
0.95829723812333
0.95775486967897
0.95723279853733
0.95673000589324
0.95624556735521
0.95577845821549
0.95532768921889
0.95489246387533
0.954472110839
0.95406585943617
0.95367229498937
0.95323118558564
0.95151638927284
0.94714507882417
0.94292142237203
0.94230676260467
0.9454032045373
0.94814943226118
0.94816792860738
0.94799699475232
0.94767282696468
0.9472820802689
0.94697495131944
0.94667325790413
0.94632384852684
0.94581214724935
0.94481270211105
0.94284124310935
0.93990269856423
0.93633978128228
0.9324620592525
0.92844287014073
0.92441142775767
0.92028799104171
0.9158519893085
0.91078840092262
0.90472116199332
0.89725294135015
0.88796690551728
0.87648562036501
0.86257798650812
0.84624063682428
0.82777501705616
0.80780494276895
0.78722064932814
0.76734002377067
0.74997660557177
0.7365034729963
0.72646819482407
0.71825591292583
0.71044905390184
0.71747951686643
0.70910471616999
0.69963799157323
0.68915158165277
0.67771264072799