/*--------------------------------*- C++ -*----------------------------------*\
| =========                 |                                                 |
| \\      /  F ield         | OpenFOAM: The Open Source CFD Toolbox           |
|  \\    /   O peration     | Version:  2312                                  |
|   \\  /    A nd           | Website:  www.openfoam.com                      |
|    \\/     M anipulation  |                                                 |
\*---------------------------------------------------------------------------*/
FoamFile
{
    version     2.0;
    format      ascii;
    arch        "LSB;label=32;scalar=64";
    class       volScalarField;
    location    "3e-05";
    object      Ybar.Liq;
}
// * * * * * * * * * * * * * * * * * * * * * * * * * * * * * * * * * * * * * //

dimensions      [0 0 0 0 0 0 0];

internalField   nonuniform List<scalar> 
109340
(
0.99901275163267
0.99901096412773
0.99900387247364
0.99899295665716
0.9989779742452
0.99895838285341
0.99893319686294
0.99890152160975
0.99886166870669
0.99881113402306
0.99874742952989
0.99866763123046
0.99856823828049
0.99844502570454
0.99829287375584
0.99810557320294
0.99787556537334
0.99759364444288
0.99724858481878
0.99682667386434
0.996311182284
0.99568172995614
0.99491351226351
0.99397637394349
0.99283367445442
0.99144088028118
0.98974385537927
0.98767668300522
0.98515876394842
0.98208743360653
0.97833592285974
0.97372557832095
0.96798410981839
0.9606524354765
0.95088804339222
0.93699637780176
0.99901417294751
0.99901092353724
0.99900244981482
0.99899032198706
0.99897427276483
0.99895371823313
0.99892762087184
0.99889442597984
0.9988522283362
0.99879881686933
0.99873160957186
0.99864755027384
0.99854297295083
0.99841344887384
0.99825361033274
0.99805693336537
0.99781549085734
0.99751961551435
0.99715750647277
0.99671474883329
0.99617374622548
0.99551306367749
0.99470661009753
0.99372266254423
0.99252265821861
0.99105970303584
0.989276743571
0.98710426756551
0.98445682586036
0.98122547223294
0.9772738914788
0.97240466463968
0.96630833677381
0.95844503063312
0.94777273981223
0.93200504349128
0.99901670340189
0.99901261869467
0.99900334593063
0.99899117887533
0.99897553028839
0.99895549970037
0.99892974017024
0.99889674949847
0.99885475729011
0.99880160378654
0.99873471211873
0.99865102196282
0.99854686633103
0.99841781869552
0.99825851738164
0.99806244927516
0.99782168664387
0.99752655997357
0.99716524945603
0.99672330696989
0.99618306267839
0.99552297512565
0.99471680356149
0.99373260430565
0.99253151153689
0.99106620026474
0.98927902163987
0.98709971224555
0.98444127493334
0.98119546375678
0.97722298247915
0.97232509677805
0.96618822496205
0.95825719675104
0.94741503419059
0.93092824515191
0.99902024533774
0.99901497615825
0.99900541725535
0.99899321624752
0.99897769289614
0.99895781930235
0.99893229753791
0.99889959611959
0.99885792876229
0.99880515429611
0.99873870978434
0.99865553329516
0.99855195017399
0.99842351965532
0.99826484961295
0.99806937316577
0.99782908926563
0.99753421059413
0.99717273779438
0.9967299643956
0.99618781809081
0.99552422088486
0.99471219184222
0.99371879400568
0.99250382296964
0.99101815298837
0.98920182145079
0.98698115645139
0.98426588423859
0.98094304965216
0.97686730486907
0.97183228452879
0.96551209869379
0.95732197097029
0.9460252331223
0.92807535519461
0.99902584151754
0.99901849023542
0.99900767094245
0.99899510122564
0.99897974347784
0.9989603190149
0.99893539192158
0.99890336964278
0.99886238256419
0.99881020911744
0.99874420947139
0.99866122063788
0.99855739336755
0.99842802433143
0.99826733943923
0.99806821640429
0.99782186325367
0.9975173844803
0.99714117486092
0.99667664607025
0.99610289543891
0.99539422926713
0.99451881042198
0.99343730178563
0.99210118710967
0.99045060081733
0.98841194595713
0.98589440642909
0.98278637080327
0.97894885206311
0.97420610935747
0.96831165427898
0.9608851186149
0.95124607272245
0.93790354958154
0.91564435258238
0.99903604414627
0.99902067223358
0.9990088813074
0.99899603425538
0.99898006496972
0.99895912065388
0.99893121295122
0.99889402635151
0.9988447901292
0.99878010185626
0.99869577548991
0.99858660308448
0.99844606269732
0.99826594715862
0.99803590380941
0.99774287615377
0.99737045725979
0.99689822505055
0.99630083575721
0.99554428915268
0.99458710916402
0.99337760133364
0.9918516332545
0.98993002119686
0.98751566448236
0.98449009057723
0.9807093463057
0.9760005997755
0.97015710862141
0.96293274922324
0.95403355833026
0.94306707864769
0.92945402388303
0.91221159771489
0.88918457706445
0.85101319117744
0.91572756370047
0.88195143160384
0.8318176540293
0.76527628873328
0.68531146413706
0.59567470064859
0.50241190042988
0.41058684073428
0.32513765429323
0.24870204538383
0.1879569080274
0.1392794832529
0.10228401933519
0.075221457222621
0.0558003807637
0.042009809234284
0.032087580118114
0.024858839150787
0.019532567630913
0.015570846798115
0.012574102438486
0.010271259851564
0.008478821411328
0.0070693944328018
0.0059517680032191
0.0050520365702078
0.0043189744205909
0.0037173320973332
0.0032209131282483
0.0028081923732404
0.0024612108360089
0.002167183992512
0.0019172477824432
0.0017037080360586
0.0015200632889429
0.0013610198862613
0.0012226315304143
0.00110182871681
0.0009960842649697
0.00090305813819522
0.00082091175562202
0.00074821519208185
0.00072690262128667
0.0040975123157479
0.0037092722791372
0.0035008408068679
0.0017564325294884
0.0016752184020971
0.0020912207167311
0.0025340708639308
0.0029849907107355
0.0034207713986372
0.0038285360788334
0.0041911945313337
0.0044954897405226
0.0047241931074151
0.0048681253143161
0.0049270864666151
0.004919587263283
0.0048687335676478
0.0047874320710355
0.0046634205407693
0.0044838622913514
0.0042420813722516
0.0039537886920816
0.0036467467974106
0.0033415093581661
0.0030641328270578
0.0028312781915384
0.0026576412754087
0.0025395794501396
0.0024946126867104
0.0025494796785512
0.0027439549796407
0.0030741629091963
0.0034870243187162
0.0039252235047662
0.0042029436167752
0.0043170689053486
0.0043255114603842
0.0042484369670896
0.0041102114849527
0.0038729481721492
0.0035651990600008
0.0032048973010298
0.0029439594699355
0.0027989060832169
0.0027915456752185
0.002846369735332
0.0029638517597359
0.0031248061861564
0.0032136094736258
0.003248341095331
0.0032550829023727
0.003246172038853
0.0032342354648319
0.0032175872400493
0.0032009675156619
0.0031836160979162
0.0031678135591431
0.0031549108924833
0.0031437028949257
0.0031320680048759
0.003118057185153
0.0031001604835353
0.003084514345515
0.0030689732105954
0.0030557386506737
0.0030486331892568
0.0030476873012448
0.0030560465891735
0.0030684976626894
0.0030837586632139
0.0030814230099172
0.003066525278105
0.0030580964497408
0.0030447133386393
0.0030068773038024
0.0029508057200787
0.0028726333987405
0.0027513543647339
0.0025803385148409
0.0023688717332627
0.0021210412415964
0.0018373809753798
0.0015216876070398
0.0012020212294238
0.00084782544813462
0.00047782984187479
0.00018934063523206
5.1592308200757e-05
1.1121133703464e-05
1.8223778905812e-06
2.0435445902314e-07
1.5722410716729e-08
9.9719962128643e-10
5.6274736192684e-11
2.930449720669e-12
1.4521210547122e-13
7.1842332152948e-15
0.9062240777272
0.86394357330408
0.80343287247887
0.72734228164389
0.64006111251123
0.54725674433501
0.45456080049627
0.36697480529825
0.28771600063018
0.22089280783508
0.16612271710301
0.12385409689035
0.091737746566286
0.068135785797206
0.051037971160495
0.038682505741642
0.029728271686152
0.023170726717941
0.018311666716664
0.014662870420112
0.01188546464737
0.0097439130249049
0.0080722544387004
0.0067521208640159
0.0056969969877191
0.004846106957532
0.0041527709879119
0.003582058670599
0.0031088339937767
0.0027137296544768
0.0023815797501063
0.0021003673239892
0.0018606375268084
0.001655014406723
0.001477717456527
0.0013242098816066
0.0011907197488322
0.0010741043278701
0.00097179928394193
0.00088163522003447
0.00080182671187084
0.00073133898430625
0.00090059716370754
0.0040010887614442
0.0036458470783733
0.0034096905084851
0.0014655987332081
0.001752001598617
0.0021765982745081
0.0026311873840385
0.0030915306878816
0.0035312005005676
0.0039344506135265
0.0042888172753447
0.0045805001402226
0.0047915629428311
0.0049118051081872
0.0049474327269435
0.0049255668500283
0.0048709626606349
0.0047823751172938
0.0046436493657163
0.0044424322360854
0.0041813312108721
0.0038839005229197
0.0035751343785041
0.0032783873558801
0.0030134334423264
0.0027994040462354
0.0026406673943499
0.0025404760340294
0.0025196484799763
0.0026099852933787
0.0028275972846046
0.0031692646879593
0.0035979470158955
0.0040446807535067
0.0042687369155831
0.0043509350143957
0.004319768444244
0.0042222884256566
0.0040516889319285
0.0037860233041254
0.0034693939806533
0.0032014281431009
0.0029558166296479
0.0028174830987853
0.0028048811177267
0.0028606139515678
0.002974039906977
0.0031166643962717
0.0032037635746627
0.0032530467071666
0.0032683991147907
0.003262522152946
0.0032481608968941
0.0032296368844035
0.0032126027649207
0.0031956863434576
0.0031799742700138
0.0031662845973421
0.0031537200161882
0.003140903486889
0.0031262053357757
0.0031067527511826
0.0030902213825374
0.0030766895082416
0.0030666641879337
0.0030606355792924
0.0030603168632108
0.0030674723484775
0.003073105162277
0.0030815284827321
0.0030658647881267
0.0030354533078956
0.002986827131591
0.0029105758485593
0.0027980288801213
0.0026376921350823
0.0024365458009186
0.0022166346450777
0.0020021363336829
0.0018116822578523
0.0016504620545682
0.0014924783477625
0.001317011317645
0.0010930970792255
0.00079391205496286
0.00045014665053837
0.00017762951672535
4.8153366370911e-05
1.0353258427672e-05
1.6823575898875e-06
1.8730429216536e-07
1.4363108777916e-08
9.1059719764123e-10
5.1419377746736e-11
2.681115592313e-12
1.3314436412407e-13
6.6207684168075e-15
0.90130785435651
0.8493029711922
0.77639305699929
0.68938258597501
0.59612804741334
0.50202248741706
0.41264512775787
0.33159085032677
0.26069982982902
0.20123132208044
0.15301080553587
0.11527144198311
0.086499665962543
0.064984834337418
0.049084031897628
0.037452296546616
0.028932826301839
0.022654084348519
0.017966059215086
0.014421186821279
0.011713422683349
0.0096213795032839
0.0079839504615566
0.0066863421444118
0.0056468940787729
0.0048076044534167
0.0041232909852187
0.0035592821164719
0.0030909203830209
0.0026993709576361
0.0023700261750741
0.0020910127184272
0.0018529232468054
0.0016484492143617
0.0014722616295443
0.0013197315750463
0.0011870314823049
0.0010710342391019
0.00096916134338992
0.00087932843551766
0.00079998375637241
0.00072984968520976
0.00076631712426644
0.0040260553041974
0.0036028293596053
0.0033610293124366
0.001478539603
0.0017135618360182
0.0021412007001697
0.0026068267913891
0.0030797587346986
0.0035290003934208
0.0039401815023303
0.004302035425706
0.0045994945764214
0.0048133978633817
0.004931164237543
0.0049642391679273
0.0049434228750536
0.004892844643855
0.0048058415368952
0.0046634894220986
0.00445350119556
0.0041847856059215
0.0038831718720637
0.0035754621096186
0.0032835256173945
0.0030253767338214
0.0028188438168729
0.0026668425615438
0.0025740264742149
0.0025624922253613
0.002651124421528
0.0028544929140341
0.003177988083025
0.0036039428368991
0.0040607678257098
0.004298132916183
0.004369195682004
0.0043271875944878
0.004220281029066
0.004031898149774
0.0037575261714291
0.0034428208716912
0.0031927289508368
0.0029670052055733
0.0028409986590115
0.0028267074542676
0.0028863749102007
0.0029943732084299
0.0031222964551407
0.0032095604307358
0.0032570277346312
0.0032814413542903
0.0032851634753854
0.0032703205662021
0.003249766701349
0.003231153114162
0.0032139853721661
0.003198328450492
0.0031840063695955
0.0031699065248083
0.0031552939199538
0.0031390845418719
0.003116508106606
0.003100023659873
0.0030893577277349
0.0030825632008596
0.0030774868511148
0.0030746303064002
0.0030706704650576
0.0030511304914042
0.0030086868447466
0.0029234874577819
0.0027903005338201
0.0026043508800336
0.0023790263944255
0.0021353345407495
0.0018889432090366
0.0016663194503792
0.0014801399428041
0.0013441438952869
0.001252298492512
0.0011877980009489
0.0011338561369028
0.0010645753335177
0.00092999157823477
0.0006977814814806
0.00039677693117834
0.00015519074882172
4.1568951392741e-05
8.8576444834046e-06
1.4168098980789e-06
1.5504707498823e-07
1.1699517515216e-08
7.3677234775249e-10
4.1432173198932e-11
2.1535029710138e-12
1.0675246243505e-13
5.3126206785454e-15
0.88946694250731
0.81362769853153
0.71813858266439
0.61790766215099
0.52020867470901
0.43080914861566
0.35173369799872
0.28255346869084
0.22435543481077
0.17613350193471
0.13654815755958
0.10485222398574
0.079936954344991
0.060867657431703
0.046529481128941
0.035832897364939
0.027877091028398
0.021943750576464
0.017482461886569
0.014091607527474
0.011485775424351
0.0094544112088669
0.0078606065866384
0.0065952927818532
0.0055804790215167
0.0047563770009182
0.0040827986494208
0.0035272713396412
0.0030659689873758
0.0026797827166419
0.0023540538335611
0.0020774857582589
0.0018416914440817
0.0016394566487203
0.0014649912113574
0.0013136838040712
0.0011818828132435
0.0010666687974271
0.00096553643225336
0.00087632071435801
0.00079756610628467
0.00072766371666275
0.00070614922359862
0.0040150882398723
0.0035349257579794
0.0032823632839455
0.0015452927285142
0.0016580961263212
0.0020887352823896
0.0025635518509715
0.0030485770871037
0.003511188040131
0.0039316704162355
0.0042984006837828
0.0045988555512025
0.0048146868706159
0.0049300919908858
0.0049626880101228
0.0049479278863826
0.00490308373042
0.0048186881268366
0.0046696889313886
0.0044480660909944
0.0041717183691727
0.0038667786505359
0.0035637889848667
0.0032807064213902
0.0030358238384906
0.0028405115610982
0.0026990415151484
0.0026203516459179
0.0026219973816801
0.002709584803471
0.0028955945768647
0.0031865570314789
0.0035829758157539
0.0040388681824887
0.0043108831805186
0.0043770691864795
0.004326871828644
0.0042049405996486
0.0039923695052092
0.0037089716938258
0.0033995871543402
0.0031778783202845
0.0029819798211766
0.0028721536631466
0.0028639790669341
0.0029199956996713
0.0030135444451339
0.0031199873385926
0.0032032817969126
0.003257839956937
0.0032915591736282
0.0033041441127603
0.0032904434091116
0.0032707838385907
0.0032528913630794
0.0032360854860644
0.0032201589742743
0.0032038433581462
0.0031865508350896
0.0031687729053237
0.0031503288955967
0.0031272081652781
0.0031107016072563
0.0030982131019831
0.0030794672304076
0.0030532474680933
0.0030038488997675
0.0029168481912247
0.002778732861658
0.0025821275820107
0.0023428282848799
0.0020770787724935
0.0018151241454607
0.0015878942926835
0.0013989730032887
0.0012426322593827
0.0011129580464309
0.0010147143198265
0.00095505251496053
0.00092147129791468
0.00090221745836789
0.00088923395713596
0.00086035236725241
0.00076872985910186
0.00058257403283271
0.00032815659722039
0.0001260662434807
3.3319549665836e-05
7.0046486348149e-06
1.0858714026049e-06
1.1425978624051e-07
8.3902108265184e-09
5.2354411172456e-10
2.9325316023364e-11
1.5210753890849e-12
7.531786210281e-14
3.7179305007851e-15
0.84625484255215
0.71392401558312
0.59020705557258
0.48815049265305
0.40483758860406
0.33604615009502
0.27838708068782
0.22890160590918
0.18654858171996
0.14992851539658
0.11884796899705
0.093130853100249
0.072430469612029
0.056108687792832
0.043497011795373
0.033885873664369
0.026602212867642
0.021085163226182
0.016892446621434
0.013678452986181
0.011190338405637
0.0092490494137716
0.0077086476449191
0.0064794652617246
0.0054925167289653
0.0046904311347232
0.0040320304634542
0.0034864638076764
0.0030335129563409
0.0026537080878455
0.0023330497918792
0.0020606601482391
0.0018280351516316
0.0016280598714769
0.0014553015808467
0.0013056470658846
0.0011752587859649
0.0010611456433239
0.00096086276630308
0.00087240404241857
0.00079431121835044
0.0007248299827697
0.0006769185985498
0.0039630708895793
0.0034485528812969
0.0031788429609787
0.001747445426914
0.0015792214308665
0.0020130911435947
0.0024997063061352
0.0030065663937813
0.0034870146095909
0.0039119245073737
0.0042806195176727
0.0045850343715174
0.004801273846172
0.004913113292339
0.0049463633131074
0.0049400584219352
0.0049046087541233
0.0048254122695753
0.004667005354136
0.004431471372253
0.0041457890776264
0.0038398020114067
0.0035444488347918
0.0032741067850102
0.0030481688433922
0.0028674787363341
0.0027403822974318
0.0026793711378113
0.0026941241362098
0.0027851045214783
0.002950030083935
0.0031987508772816
0.0035376123727843
0.003957419395303
0.0042892702656714
0.00436663231036
0.0043185105148142
0.0041762951703997
0.0039384452309529
0.0036316807491835
0.0033500866671732
0.0031574962136063
0.0029953479321128
0.0029126098351272
0.002909065933347
0.0029554520698228
0.0030314232378771
0.0031156539185816
0.0031916772469318
0.003251915478425
0.0032890371387756
0.0033048509764819
0.0032940339557324
0.0032787701555789
0.0032633461090406
0.0032490507885514
0.0032342707627662
0.0032171197894695
0.0031971523910076
0.0031747441787976
0.0031484957379789
0.0031006174912902
0.0030682628243462
0.0030089496273631
0.0029114145238588
0.0027659576036624
0.0025690309145856
0.0023269204333895
0.0020529082188182
0.0017859317260018
0.0015538497938249
0.0013570614492277
0.0011919150944166
0.0010579963544758
0.00095251307342017
0.00086757070824922
0.00080061014401553
0.00075628870023469
0.00073360831634601
0.00072299301690418
0.00072355687463778
0.00072176272580479
0.00070215481854342
0.00062610890633884
0.00046737952515113
0.00025598415512392
9.5490695656883e-05
2.4878448422591e-05
5.0943019283047e-06
7.5358275583188e-07
7.4594754089577e-08
5.3158361060354e-09
3.2872131090277e-10
1.8339217060717e-11
9.4955008628694e-13
4.6962060418762e-14
2.2997688274098e-15
0.58976676219313
0.41695747730908
0.35674558853924
0.31319593964106
0.27539714689797
0.2405271848626
0.20909748794226
0.1790227316932
0.15057417829041
0.1245099619729
0.1013492225917
0.081326437350703
0.064586551516977
0.050980435486304
0.040161484093718
0.031695826051472
0.025145199238503
0.020100909341765
0.016211682957731
0.013199647223981
0.010847763286084
0.0089948374607557
0.0075265466369716
0.006346211299963
0.0053897418498113
0.0046112622155116
0.0039698782060111
0.0034374336413528
0.0029944364790713
0.00262237161376
0.0023078790818195
0.0020402257543086
0.0018109216390287
0.0016139744911834
0.0014438557525107
0.0012961884562259
0.0011672614413827
0.0010543094392141
0.0009550885507278
0.00086766120947454
0.00079028503467153
0.00072120662212754
0.00066005064553506
0.0038747360134364
0.0033521063265532
0.0030588586186121
0.0020540822534426
0.0014802895711884
0.0019163141052795
0.0024200519667132
0.0029566212358848
0.003455510832204
0.0038850948911069
0.0042574384245192
0.0045618958065438
0.0047745576982165
0.0048823371013957
0.0049173785391401
0.004920149350264
0.0049020214623841
0.0048302027870265
0.0046587674955478
0.0044069764355667
0.0041103643944433
0.0038076181801384
0.0035240981822139
0.003272900666215
0.0030666227378031
0.0029052313028719
0.0027958953550682
0.0027560381201959
0.0027820419183929
0.0028745648633098
0.0030158279706509
0.0032154516846865
0.0034856333531039
0.0038328580925878
0.004205613283472
0.0043311729285554
0.0042985615643637
0.0041362802784778
0.0038540687964142
0.0035523971496015
0.0033015302164907
0.0031448278114078
0.003020379910389
0.0029624943931973
0.0029580915803882
0.0029909675630978
0.003046111123444
0.0031078077403824
0.0031721870894173
0.0032302112887363
0.0032662478125199
0.0032824226806243
0.0032729419375346
0.0032594618532077
0.0032443676288694
0.0032248625936328
0.0032020252913788
0.0031735432015872
0.0031365001869913
0.0030861604820984
0.0030171768050018
0.0028992491793921
0.0027474771148638
0.0025425533329804
0.0023010152175711
0.0020383417298968
0.0017831314842907
0.0015543854208615
0.0013533862772794
0.0011822969226747
0.0010392992860772
0.00092230185611837
0.0008279938692792
0.00075339544944094
0.00069532614605724
0.00064980896938042
0.00061686201104065
0.00059927607987002
0.00059199634295116
0.00059288968323503
0.00059933739413794
0.00059733883421327
0.00057562431937089
0.00050107915607747
0.00036018163618567
0.00018828335513776
6.7589897431411e-05
1.7351941878083e-05
3.4108509895619e-06
4.7080114227561e-07
4.3245905225789e-08
3.0364265455048e-09
1.8654965836487e-10
1.0361896533098e-11
5.3534342742596e-13
2.6434510451653e-14
1.2866167570378e-15
0.019912686757732
0.12546952773853
0.16046086268167
0.17461516626589
0.17697482436545
0.16941978641168
0.15634452003719
0.14044828330161
0.12327651646738
0.10583968067446
0.089046985536454
0.073613371012496
0.05996302961617
0.048357362889924
0.038772401388239
0.031036409111001
0.024891501406299
0.020056286772413
0.016268600321953
0.013300863030363
0.010964993986521
0.0091139030285817
0.0076350036182425
0.0064455291666312
0.0054825087182971
0.0046928001386928
0.0040410673789854
0.0035008127598804
0.0030500166691295
0.0026710048817912
0.0023506111574156
0.0020779750167873
0.0018447509200537
0.0016439978119629
0.0014701136776829
0.0013193599862721
0.0011880070183801
0.0010730251911976
0.00097191210405009
0.00088256253021241
0.00080354881696001
0.0007335127558352
0.00067014448078719
0.0029290964473561
0.0033836758137221
0.0030061124978456
0.0025692160100988
0.0013424952019951
0.0016800814108617
0.0021752032724559
0.0027435474764085
0.0032917638064337
0.0037567766796071
0.0041446953290814
0.0044626467109139
0.0046956771457461
0.0048233496305403
0.0048617126708162
0.0048898784371241
0.0049009388565491
0.0048648559274876
0.0047032344775865
0.0044466657502619
0.0041447928625295
0.0038450667966671
0.0035694967200578
0.0033315547923097
0.0031366030803065
0.0029866262648649
0.0028865860096587
0.0028510406651828
0.0028721025257158
0.0029424940270579
0.0030537535742878
0.0031956337515492
0.003386005101175
0.003625650790542
0.0039488514682693
0.0042237677183731
0.0042690927823135
0.0041091272540561
0.0038271931708609
0.0035306847081611
0.0032998975394535
0.0031348493960431
0.0030415554045819
0.0030019279958436
0.0029930598474249
0.0030106979677695
0.0030409317504466
0.0030901548888889
0.003133643526949
0.0031644147077718
0.0031763521551352
0.0031693663936966
0.00315069811647
0.0031223945123792
0.0030886092297497
0.0030452026431567
0.0029892828537362
0.0029154452304633
0.0028155273975148
0.0026824307577232
0.0024725692753149
0.0018638456101711
0.0016492407419075
0.001458522276067
0.0012853333939585
0.0011288939221848
0.0009914303138383
0.00087298617154753
0.0007721553102872
0.00068863902641486
0.0006204279196311
0.00056605099359389
0.00052360801063641
0.00049148118045796
0.00046824212009311
0.0004539608460547
0.00044684346593572
0.00044553791194339
0.00044984232877205
0.00045793506469505
0.0004611917482066
0.00045298684194329
0.00041925391100073
0.00034179017063022
0.00022425629198759
0.00010603203507174
3.455991459233e-05
8.3120295331411e-06
1.4588793279929e-06
1.738115335524e-07
1.4238497955995e-08
9.6541577690316e-10
5.7938809320902e-11
3.1699488703585e-12
1.6222343244362e-13
7.9484587631525e-15
3.8194912876687e-16
0.0071817995334487
0.023327590012339
0.042182045286356
0.057615802544979
0.068819734859968
0.075492825878969
0.078038793525172
0.076250519448409
0.071772688090054
0.065517917807911
0.058137191587923
0.050415321618051
0.042866800327569
0.035922770234806
0.029811508023923
0.024598167742093
0.020253987218264
0.016695214397685
0.013808049797432
0.011476072185608
0.009593036407495
0.0080696014020519
0.0068314856336499
0.0058191331310117
0.0049865295371343
0.0042980051739322
0.0037254694632139
0.0032457565745857
0.0028421438235507
0.0025001501830261
0.0022090094657325
0.001959932555489
0.0017455416928176
0.0015595511420657
0.0013986211099363
0.0012582795692777
0.0011354493019508
0.0010276548370472
0.00093250400216879
0.00084816995102375
0.0007734490552964
0.00070705862268333
0.00064688112813109
0.0024659775047201
0.0030748020980641
0.002560240114784
0.0020420690681155
0.0012581149615606
0.0014683440407423
0.0019964190923406
0.0026867226198574
0.0033268169135386
0.0037969648287067
0.0041714377566024
0.0044599481680212
0.0046389395805346
0.0046998659311958
0.0047431975186637
0.0048233174148162
0.0049101102370663
0.0048464766042838
0.0046014296334895
0.0042844595879844
0.0039752272790075
0.0037051669610871
0.0034838592101282
0.0033085404508374
0.0031772404867526
0.0030899848911266
0.0030486507803018
0.0030414208893608
0.0030644228269796
0.0031166304976762
0.0031883476495183
0.0032729186869395
0.0033603760327088
0.0034480842298241
0.003562268162532
0.0037629253617231
0.0038232765368209
0.0035759392878363
0.0032976062483731
0.0030927810763193
0.0029646217550207
0.002951072837953
0.0028897608864802
0.0028382156205448
0.0027851728956771
0.0027303631263778
0.0026718677220175
0.0025995347889374
0.0025116839244873
0.0024139435259645
0.0023139907509316
0.0022139239323917
0.0021170659163391
0.0020156434423321
0.0019096371450529
0.0017972699467268
0.0016801358834763
0.0015578165578715
0.0014316135718607
0.0013038978208682
0.0011520445727174
0.00086606124887854
0.00078061973930988
0.00070037582976326
0.00062858448455694
0.00056402303023554
0.00050772027379776
0.00046066560616912
0.00042185954604693
0.00039025888605817
0.00036545606311039
0.00034669391124609
0.00033366739498472
0.00032610738369859
0.00032197768050484
0.00032158241107266
0.00032417671380809
0.00032922573590408
0.00033394254493288
0.00033380074078401
0.00032621846006493
0.00030302318641526
0.00025583989520372
0.00018408205194593
0.00010336610038954
4.1234992370716e-05
1.188808117622e-05
2.5078460241692e-06
3.6856222545398e-07
3.6052609657171e-08
2.7281001477998e-09
1.794571374837e-10
1.0584031847663e-11
5.7350240354913e-13
2.9195471826935e-14
1.4236217681474e-15
6.7768480856396e-17
0.0055737053213124
0.009370521490315
0.016062833137335
0.023788874277589
0.030859072269374
0.036755289924422
0.040891354889125
0.043160040653247
0.043300382983893
0.041901970280515
0.039177047560896
0.03561850463659
0.031613359861249
0.027538582067415
0.023650204541967
0.020117613250974
0.017010197841621
0.014341633686806
0.012090780798702
0.010212686730995
0.0086545281433995
0.0073644306086095
0.0062958457957303
0.0054086135515273
0.0046691031323371
0.0040502739046588
0.003529838801322
0.0030904782826152
0.0027181175004019
0.0023999878515793
0.0021270053065567
0.0018919511557376
0.001689267069619
0.0015134883738964
0.0013602840911278
0.001226292170803
0.0011087624368945
0.0010047432392266
0.0009127172595062
0.00083141775094976
0.00075911300374827
0.00069444336659157
0.00063679026836631
0.00069187445107162
0.0029478302711189
0.0022073293857173
0.001624777825469
0.0011421853962854
0.0011295289494476
0.0015941274216065
0.0024109791068329
0.0031898089202561
0.0037121149944551
0.0041085144560622
0.0043915517243189
0.0045102228078094
0.0045290764681085
0.0045120828990347
0.0047286858165662
0.0049519631637362
0.0048472283280604
0.0045135413929095
0.0041535891336491
0.0038590544357254
0.003631730492457
0.0034630254082335
0.0033411142402367
0.003252112533199
0.0031950076413798
0.0031642692263948
0.0031485215772556
0.0031440012528577
0.0031380449561363
0.0031218300044316
0.0030909563261223
0.0030186899931697
0.0028997304899566
0.0027520054916844
0.0026193846608327
0.0025129400778553
0.0023281928435209
0.0021568888626478
0.0020434377502725
0.0019594017084974
0.002039917198232
0.0019589444955212
0.0018722120598209
0.0017769840084765
0.0016744047051202
0.0015684465606917
0.0014660722414988
0.0013700071438115
0.0012818766287769
0.0012028498675922
0.0011321894523501
0.0010678739630436
0.0010073446187279
0.00094789403779123
0.00088776633312272
0.00082690772919998
0.00076573321502877
0.00070507468780714
0.00064594928020306
0.00057951487099759
0.00045205440362333
0.00041387706147766
0.0003781136855728
0.00034605100994579
0.0003185872241787
0.00029569770236542
0.00027724013238585
0.00026278873067682
0.00025180747581469
0.00024425887064002
0.00023974787366327
0.00023736466126819
0.0002372095383296
0.00023884788152556
0.00024171907742797
0.00024445474222231
0.00024508681372601
0.0002421365073172
0.00023296814499567
0.0002133882047765
0.00018027257524228
0.00013394745549762
8.1794774623862e-05
3.7407143895475e-05
1.2577043152245e-05
3.1152068675845e-06
5.5098611547764e-07
6.4356244334469e-08
5.438212431777e-09
3.9451190356537e-10
2.5346255304424e-11
1.474903066991e-12
7.938531484475e-14
4.0288826161892e-15
1.9585317081439e-16
9.2712385175294e-18
0.0039096184302171
0.006558863587815
0.0083885714015145
0.012237104544122
0.016355126883447
0.02023690122837
0.023527820228715
0.02589024340233
0.027220196942258
0.027413781410588
0.026703739100405
0.025241928827438
0.023249894132443
0.020954292617267
0.018565740555234
0.016242924588965
0.014084698757023
0.012144009443236
0.010438812469953
0.00896660046414
0.007709282468168
0.0066419911096257
0.0057388439802686
0.0049753655507891
0.0043294564986125
0.0037819268600314
0.0033163785617929
0.0029189363260618
0.002578538816204
0.0022859965800197
0.0020339177025137
0.0018160317247358
0.0016263862719355
0.001461134131845
0.0013164351955163
0.0011890070510704
0.001076741851836
0.00097766512461663
0.00088985891492945
0.00081182096737966
0.00074222135036078
0.00068005328390699
0.00062406744975271
0.00057240608240738
0.0025453748255746
0.0020437428469358
0.0014108495119714
0.0010128761184405
0.00095963671653779
0.0012781826547663
0.001782094786126
0.0025127909183101
0.0032709860303769
0.0038739621984864
0.00425375320863
0.0043928545578352
0.004344084134878
0.0043067402965871
0.0045773884065715
0.0050066638599243
0.0047865864922667
0.004318809243116
0.0039278111786387
0.0036508446609629
0.0034563042428968
0.0033145837285131
0.003202722489885
0.0031099161016983
0.0030314031937558
0.0029532576444223
0.0028627369963404
0.0027516541103714
0.0026131177129972
0.0024429554786077
0.0022452430494841
0.0020290682430379
0.0018110848986092
0.0016100255959212
0.0014425415879758
0.0013166037083385
0.0012199002007167
0.0011476475256612
0.0010944372165974
0.0010501555794126
0.0010951400213078
0.0010507734627228
0.0010042782573983