/*--------------------------------*- C++ -*----------------------------------*\
| =========                 |                                                 |
| \\      /  F ield         | OpenFOAM: The Open Source CFD Toolbox           |
|  \\    /   O peration     | Version:  2312                                  |
|   \\  /    A nd           | Website:  www.openfoam.com                      |
|    \\/     M anipulation  |                                                 |
\*---------------------------------------------------------------------------*/
FoamFile
{
    version     2.0;
    format      ascii;
    arch        "LSB;label=32;scalar=64";
    class       volScalarField;
    location    "3e-05";
    object      yPlus;
}
// * * * * * * * * * * * * * * * * * * * * * * * * * * * * * * * * * * * * * //

dimensions      [0 0 0 0 0 0 0];

internalField   uniform 0;

boundaryField
{
    inlet
    {
        type            calculated;
        value           uniform 0;
    }
    outlet
    {
        type            calculated;
        value           uniform 0;
    }
    nozzleWalls
    {
        type            calculated;
        value           nonuniform List<scalar> 
144
(
35.848329709602
35.427795086541
34.990299990896
34.558536480546
34.138985950463
33.733852215641
33.343927897891
32.969217753256
32.609788020761
32.265693957017
31.937108054304
31.624312605817
31.32770156843
31.047788987975
30.785201950233
30.540657214914
30.314876311854
30.107739531593
29.916131199396
29.738186732942
29.573812237838
29.423211684993
29.286674198962
29.164568406722
29.057410132595
28.965786668791
28.890737328132
28.833675806314
28.796430996781
28.781836008012
28.794459757839
28.8436115296
28.950775536428
29.165250884366
29.63620626363
31.830376403772
36.090985708314
35.748070459687
35.318622647372
34.881435033142
34.452384029049
34.036300776816
33.634929222166
33.248828344002
32.877926460198
32.522322131304
32.182084431088
31.857415532159
31.548624867995
31.256135559855
30.980491331861
30.722344782698
30.482427589718
30.261414403386
30.058515957329
29.870372484858
29.695815780561
29.534860719037
29.387745966505
29.254776814575
29.136354217793
29.033011250452
28.945422072073
28.874739057405
28.822447668459
28.790455739219
28.782246837771
28.802752712676
28.863707572588
28.991381474457
29.247580007287
29.856565472834
35.941524415345
35.536243191633
35.099584789563
34.665467626054
34.242577155985
33.833718120585
33.439966889188
33.061468206855
32.698211673024
32.350272341545
32.017787123123
31.701011707611
31.400311469783
31.116169048619
30.849186528401
30.600060536043
30.369530436618
30.157934996952
29.962736677059
29.781402452358
29.61362450224
29.45955607893
29.31947197949
29.193715976585
29.082772046553
28.987191644412
28.907877667474
28.846174848078
28.803702850086
28.78318207798
28.788406427958
28.827014663483
28.916548606937
29.096839589748
29.47362936502
30.685803990543
36.025188954414
35.643363059632
35.209131640861
34.773124753154
34.347052803035
33.934539614341
33.53696116535
33.154673609512
32.787591391935
32.435816002602
32.09944733342
31.778714590208
31.473954862541
31.185620767158
30.914286834346
30.660627061901
30.425383678807
30.20910872544
30.010194724469
29.825463386287
29.654293513962
29.496773979607
29.353164296517
29.223787889358
29.109086125757
29.009601755841
28.926115931785
28.859884032349
28.812432970859
28.785855892184
28.784401259615
28.813510319295
28.887802907962
29.039557164217
29.348210093396
30.178297641809
)
;
    }
    tipWalls
    {
        type            calculated;
        value           nonuniform List<scalar> 
304
(
9.0203634696883
1.5244084212435
2.4728729262704
2.155920676367
1.311204878304
0.63560385877394
0.26307733536092
0.25895448366695
0.2442888651769
0.20393215931013
0.15172362695438
0.078023993107421
0.082254541906142
0.12759676290317
0.15153987607126
0.16674977807503
0.17755105251775
0.18584055244491
0.19255528054441
0.19822620770421
0.20311945999866
0.20728522331566
0.21079676736695
0.21377173274525
0.21619397081095
0.21806890097539
0.21953513054477
0.22070084922261
0.22161621649486
0.22231164397538
0.22276753449891
0.22301933771087
0.22308986912689
0.22299632283446
0.22274212764222
0.2223186323425
0.22171276090069
0.22092656163587
0.2199801438322
0.21888888351813
0.21765417611114
0.21627449155049
0.21475805155063
0.21312125940893
0.21137471507188
0.20951553980575
0.20753614973492
0.20543346563067
0.20321281230324
0.2008867774721
0.19846405420845
0.1959470068252
0.19334330648219
0.19067159242495
0.18796340802953
0.18526147426306
0.18261286181664
0.18006407530439
0.17765916751279
0.17543292876418
0.1734286251531
0.17167138130357
0.17020942688629
0.16932939778044
0.17228933815308
0.32789331457952
0.32960828995589
0.32907149418625
0.32799504257115
0.32657411826002
0.32495008314177
0.32318197763336
0.32136294642046
0.31979274398551
0.31909178378429
0.3211043651203
0.33213274817071
0.583986632865
0.58531271772022
0.58385534987523
0.58210315991785
0.57966557720448
0.57668063467233
0.57333006364906
0.56981510638183
0.56630970308422
0.56294657225968
0.55975122201219
0.55670994100159
0.55383751539085
0.55107015715852
0.54842713732515
0.54586319558563
0.54353764429944
0.5411644413704
0.53906087434937
0.5118913159692
1.6264683532659
2.2627486871016
2.3839226672106
1.825104945714
0.86374243497625
0.39427673893187
0.24822431403004
0.25593953083335
0.22499362788113
0.17962334179517
0.11954374493065
0.027965021695531
0.10922438634946
0.14104880546985
0.15988810313736
0.17254958993559
0.18193717701902
0.18935609447408
0.19549760024195
0.20076409529248
0.20529206986179
0.20911330308457
0.21234942977893
0.21505531566928
0.21719274303094
0.21884401520653
0.22015214059717
0.22118686585387
0.22199221885024
0.22256860842015
0.22291457232208
0.22307785713636
0.223062707742
0.2228896787741
0.22255241822192
0.22203896024034
0.22134112495542
0.22047206455033
0.21945227701006
0.21828967605461
0.21698224464028
0.21553239010909
0.21395373181311
0.21226160101202
0.21045975107851
0.20854116385665
0.2065001446732
0.20433723870207
0.20206206074602
0.19968735768576
0.19721707735675
0.19465512755656
0.19201432500311
0.18931945202112
0.18660876511889
0.18392758274325
0.18132314777295
0.17884102986859
0.17651884837678
0.17440179463277
0.17251711628271
0.17089744738279
0.16965014082142
0.16968654161783
0.17470498390721
0.32971549193678
0.32943032022054
0.32859451745611
0.32731749737856
0.32578319785823
0.32408157118612
0.322266660776
0.32051595428206
0.31928339271473
0.31957587676396
0.32443141213085
0.33249887188894
23.265411780179
1.2332244346933
2.42510883657
2.2818888793743
1.5871771769703
0.75934542644335
0.30790875764303
0.25746550370681
0.25248877657492
0.21480259559958
0.16608107521164
0.10070883092944
0.062242693432641
0.11918648473856
0.14660294121749
0.16347276170911
0.1751372870158
0.18394254636167
0.19099139299798
0.19688676920198
0.2019645496301
0.20631045041301
0.20997195758538
0.21307730964561
0.21564276922417
0.21764477670217
0.21919930513365
0.22043470669326
0.22140830268865
0.22215951462821
0.22267463933254
0.22297196637674
0.22308902895353
0.223034510476
0.22282107527069
0.22244116355707
0.22188164949728
0.22113902082975
0.22023066292977
0.21917502820423
0.21797648524393
0.21663277294703
0.21514910598667
0.21354093072035
0.21182160037218
0.20999137006398
0.2080425077885
0.20597057408006
0.20377845363056
0.20147745330821
0.19907867932874
0.1965848595681
0.19400156858682
0.19134442617342
0.18864158984451
0.18593382928705
0.1832674609808
0.18068941928862
0.17824468546428
0.17596904545182
0.1739077292575
0.17208571464392
0.17054105472916
0.16945054145678
0.17052728408361
4.5816024622151
1.9602869297133
2.4590449352204
2.0099201571534
1.0452480272011
0.48849510915246
0.25430433408886
0.26017341887444
0.23451884569473
0.19231680932744
0.13628377914581
0.049892864092969
0.097202760940113
0.13478975069337
0.15593713518174
0.16976349656231
0.17981173049317
0.18764194185535
0.19405531810983
0.19951816161859
0.2042286207802
0.20821861437991
0.21158911108658
0.21443143764051
0.21670998842727
0.21846784982203
0.21985249464972
0.2209513033776
0.22181090215415
0.22244798211777
0.22284695146572
0.22305501309401
0.22308107749843
0.22294806665671
0.22265265272279
0.2221846101841
0.22153248966273
0.22070412749895
0.21972065549303
0.21859378830487
0.21732274674194
0.21590761253065
0.2143595087991
0.21269480804395
0.21092081551952
0.20903216000978
0.20702203340565
0.20488896694141
0.20264055712558
0.20029006883456
0.19784350235641
0.19530369734492
0.19268076063028
0.18999638833207
0.18728554832493
0.1845924857027
0.18196452386585
0.17944774427819
0.17708297550113
0.17491036468868
0.1729649287894
0.17127488928393
0.16990876180879
0.16936396422482
0.17669735632118
)
;
    }
    wedge1
    {
        type            wedge;
    }
    wedge2
    {
        type            wedge;
    }
    defaultFaces
    {
        type            empty;
    }
}


// ************************************************************************* //
