/*--------------------------------*- C++ -*----------------------------------*\
| =========                 |                                                 |
| \\      /  F ield         | OpenFOAM: The Open Source CFD Toolbox           |
|  \\    /   O peration     | Version:  2312                                  |
|   \\  /    A nd           | Website:  www.openfoam.com                      |
|    \\/     M anipulation  |                                                 |
\*---------------------------------------------------------------------------*/
FoamFile
{
    version     2.0;
    format      ascii;
    arch        "LSB;label=32;scalar=64";
    class       volScalarField;
    location    "0.2";
    object      p;
}
// * * * * * * * * * * * * * * * * * * * * * * * * * * * * * * * * * * * * * //

dimensions      [1 -1 -2 0 0 0 0];

internalField   nonuniform List<scalar> 
100
(
300526
299835
299379
299147
298872
298571
298263
297939
297599
297242
296868
296474
296061
295625
295167
294683
294172
293633
293062
292458
291817
291136
290413
289642
288821
287943
287003
285996
284915
283750
282495
281137
279666
278066
276322
274415
272320
270012
267455
264609
261423
257830
253746
249057
243606
237163
229376
219674
206799
188818
144740
120992
107435
97260.7
88839.4
81853.7
75853.6
70697
66142.7
62144.4
58540.6
55334.8
52401.5
49769.1
47331.6
45130.4
43072.4
41207.1
39446.1
37854.8
36321.7
34946.5
33594.7
32423.8
31046
30848.5
44651
113164
155280
158707
159706
161010
162343
163473
164543
165545
166483
167364
168192
168972
169709
170405
171064
171688
172280
172842
173350
173866
174249
173893
)
;

boundaryField
{
    inlet
    {
        type            fixedValue;
        value           uniform 300000;
    }
    outlet
    {
        type            fixedValue;
        value           uniform 175000;
    }
    upperWall
    {
        type            zeroGradient;
    }
    lowerWall
    {
        type            zeroGradient;
    }
    frontAndBack
    {
        type            empty;
    }
}


// ************************************************************************* //
