/*--------------------------------*- C++ -*----------------------------------*\
| =========                 |                                                 |
| \\      /  F ield         | OpenFOAM: The Open Source CFD Toolbox           |
|  \\    /   O peration     | Version:  2312                                  |
|   \\  /    A nd           | Website:  www.openfoam.com                      |
|    \\/     M anipulation  |                                                 |
\*---------------------------------------------------------------------------*/
FoamFile
{
    version     2.0;
    format      ascii;
    arch        "LSB;label=32;scalar=64";
    class       volScalarField;
    location    "0.2";
    object      T;
}
// * * * * * * * * * * * * * * * * * * * * * * * * * * * * * * * * * * * * * //

dimensions      [0 0 0 1 0 0 0];

internalField   nonuniform List<scalar> 
100
(
495.676
495.466
495.332
495.199
495.054
494.903
494.746
494.581
494.407
494.226
494.035
493.834
493.622
493.4
493.165
492.917
492.654
492.377
492.083
491.771
491.44
491.088
490.712
490.312
489.884
489.425
488.934
488.405
487.836
487.222
486.557
485.835
485.05
484.192
483.253
482.221
481.08
479.815
478.403
476.818
475.027
472.986
470.636
467.898
464.657
460.743
455.886
449.618
440.962
427.728
394.447
378.208
366.756
357.052
348.458
340.757
333.766
327.355
321.431
315.918
310.764
305.92
301.356
297.036
292.941
289.046
285.338
281.809
278.421
275.229
272.068
269.155
266.217
263.608
261.386
261.147
318.881
460.276
474.31
475.775
476.787
477.941
478.944
479.856
480.706
481.499
482.239
482.931
483.58
484.189
484.762
485.302
485.811
486.289
486.735
487.143
487.511
487.811
488
488.357
)
;

boundaryField
{
    inlet
    {
        type            totalTemperature;
        gamma           1.4;
        T0              uniform 500;
        value           uniform 495.925;
    }
    outlet
    {
        type            zeroGradient;
    }
    upperWall
    {
        type            zeroGradient;
    }
    lowerWall
    {
        type            zeroGradient;
    }
    frontAndBack
    {
        type            empty;
    }
}


// ************************************************************************* //
