/*--------------------------------*- C++ -*----------------------------------*\
| =========                 |                                                 |
| \\      /  F ield         | OpenFOAM: The Open Source CFD Toolbox           |
|  \\    /   O peration     | Version:  2312                                  |
|   \\  /    A nd           | Website:  www.openfoam.com                      |
|    \\/     M anipulation  |                                                 |
\*---------------------------------------------------------------------------*/
FoamFile
{
    version     2.0;
    format      ascii;
    arch        "LSB;label=32;scalar=64";
    class       volVectorField;
    location    "0.2";
    object      U;
}
// * * * * * * * * * * * * * * * * * * * * * * * * * * * * * * * * * * * * * //

dimensions      [0 1 -1 0 0 0 0];

internalField   nonuniform List<vector> 
100
(
(90.4814 -3.77239e-12 0)
(92.1006 -3.77581e-12 2.2017e-15)
(93.5356 -3.74914e-12 0)
(94.8923 -3.77289e-12 -2.4024e-15)
(96.3105 -3.76679e-12 0)
(97.7746 -3.76833e-12 -2.46068e-15)
(99.2726 -3.75751e-12 0)
(100.819 -3.76525e-12 -2.53141e-15)
(102.418 -3.74098e-12 -2.56851e-15)
(104.068 -3.77012e-12 -2.60697e-15)
(105.775 -3.7629e-12 0)
(107.54 -3.76203e-12 -2.68666e-15)
(109.367 -3.75137e-12 0)
(111.259 -3.75879e-12 0)
(113.221 -3.73958e-12 -2.81581e-15)
(115.255 -3.76921e-12 0)
(117.367 -3.76005e-12 -5.81771e-15)
(119.561 -3.75685e-12 0)
(121.842 -3.75177e-12 -3.00806e-15)
(124.216 -3.74971e-12 -3.0601e-15)
(126.689 -3.74196e-12 -3.11378e-15)
(129.267 -3.74193e-12 0)
(131.957 -3.73061e-12 -3.22669e-15)
(134.769 -3.73854e-12 0)
(137.709 -3.71934e-12 -3.34777e-15)
(140.789 -3.73814e-12 0)
(144.019 -3.70948e-12 0)
(147.411 -3.71058e-12 0)
(150.978 -3.69987e-12 -3.61781e-15)
(154.736 -3.7052e-12 0)
(158.701 -3.69229e-12 -3.76876e-15)
(162.892 -3.7072e-12 0)
(167.333 -3.68605e-12 0)
(172.048 -3.67976e-12 0)
(177.066 -3.67974e-12 -4.10781e-15)
(182.421 -3.67147e-12 -4.20116e-15)
(188.155 -3.67806e-12 0)
(194.313 -3.66328e-12 0)
(200.953 -3.67726e-12 0)
(208.145 -3.68859e-12 0)
(215.975 -3.67214e-12 0)
(224.553 -3.6913e-12 0)
(234.017 -3.68961e-12 0)
(244.557 -3.68794e-12 0)
(256.431 -3.68599e-12 5.2001e-15)
(270.016 -3.68506e-12 0)
(285.891 -3.68397e-12 -5.4277e-15)
(305.019 -3.68342e-12 0)
(329.418 -3.68161e-12 0)
(363.513 -3.68205e-12 0)
(438.624 -3.6741e-12 0)
(481.636 -3.68416e-12 0)
(507.49 -3.67455e-12 0)
(527.21 -3.67385e-12 4.36249e-15)
(544.539 -3.67145e-12 0)
(558.981 -3.66918e-12 3.89044e-15)
(572.24 -3.6675e-12 0)
(583.556 -3.66481e-12 0)
(594.319 -3.67167e-12 0)
(603.596 -3.66752e-12 0)
(612.672 -3.66987e-12 0)
(620.506 -3.6705e-12 0)
(628.355 -3.66873e-12 0)
(635.108 -3.66743e-12 0)
(642.017 -3.6662e-12 2.58286e-15)
(647.927 -3.66396e-12 0)
(654.093 -3.66549e-12 2.39467e-15)
(659.318 -3.65899e-12 0)
(664.882 -3.65514e-12 2.22927e-15)
(669.521 -3.65676e-12 0)
(674.617 -3.65128e-12 0)
(678.779 -3.65072e-12 0)
(683.497 -3.65154e-12 1.95217e-15)
(687.161 -3.65107e-12 0)
(692.025 -3.65232e-12 1.80783e-15)
(692.716 -3.65161e-12 0)
(635.584 -3.65174e-12 1.75862e-15)
(328.301 -3.64677e-12 0)
(233.3 -3.66059e-12 -2.99511e-15)
(225.011 -3.65467e-12 0)
(220.578 -3.66214e-12 5.90531e-15)
(215.381 -3.64614e-12 0)
(210.32 -3.66324e-12 2.88829e-15)
(205.702 -3.6369e-12 2.84786e-15)
(201.283 -3.65701e-12 -2.80442e-15)
(197.081 -3.64467e-12 2.7626e-15)
(193.079 -3.65185e-12 0)
(189.26 -3.63883e-12 0)
(185.61 -3.64684e-12 2.64344e-15)
(182.116 -3.63322e-12 0)
(178.768 -3.64648e-12 2.56897e-15)
(175.555 -3.64777e-12 2.53322e-15)
(172.468 -3.64692e-12 2.49822e-15)
(169.496 -3.6478e-12 0)
(166.638 -3.64542e-12 2.432e-15)
(163.888 -3.64349e-12 2.39303e-15)
(161.192 -3.63813e-12 2.3583e-15)
(158.728 -3.63656e-12 0)
(156.414 -3.62779e-12 -2.19454e-15)
(152.939 -3.62542e-12 0)
)
;

boundaryField
{
    inlet
    {
        type            zeroGradient;
    }
    outlet
    {
        type            zeroGradient;
    }
    upperWall
    {
        type            slip;
    }
    lowerWall
    {
        type            slip;
    }
    frontAndBack
    {
        type            empty;
    }
}


// ************************************************************************* //
