/*--------------------------------*- C++ -*----------------------------------*\
| =========                 |                                                 |
| \\      /  F ield         | OpenFOAM: The Open Source CFD Toolbox           |
|  \\    /   O peration     | Version:  2312                                  |
|   \\  /    A nd           | Website:  www.openfoam.com                      |
|    \\/     M anipulation  |                                                 |
\*---------------------------------------------------------------------------*/
FoamFile
{
    version     2.0;
    format      ascii;
    arch        "LSB;label=32;scalar=64";
    class       volScalarField;
    location    "0.005";
    object      alphat;
}
// * * * * * * * * * * * * * * * * * * * * * * * * * * * * * * * * * * * * * //

dimensions      [1 -1 -1 0 0 0 0];

internalField   nonuniform List<scalar> 
48128
(
1.1449e-07
1.48293e-07
1.98237e-07
2.0076e-07
1.85439e-07
1.61204e-07
1.33611e-07
1.07189e-07
8.26145e-08
5.73709e-08
1.32549e-07
8.3786e-07
2.77618e-06
5.09166e-06
7.03073e-06
8.62512e-06
9.97342e-06
1.11529e-05
1.22334e-05
1.32595e-05
1.42639e-05
1.52695e-05
1.62914e-05
1.73405e-05
1.84305e-05
1.95715e-05
2.07779e-05
2.20835e-05
2.34834e-05
2.50092e-05
2.6658e-05
2.844e-05
3.03749e-05
3.24784e-05
3.47473e-05
3.72351e-05
3.99613e-05
4.29535e-05
4.61087e-05
4.95383e-05
5.31683e-05
5.69513e-05
6.09467e-05
6.52006e-05
6.9633e-05
7.427e-05
7.88732e-05
8.38076e-05
8.86279e-05
9.35736e-05
9.81448e-05
0.000103154
0.000107834
0.00011278
0.00011707
0.000122757
0.000128987
0.000134988
0.000140916
0.000146484
0.000151856
0.000156896
0.000161657
0.000166222
0.000170592
0.000174789
0.000178741
0.00018246
0.000184863
0.000177482
0.000170699
0.000164483
0.000158919
0.000153684
0.000148859
0.000144316
0.000140055
0.000136107
0.000132352
0.000128853
0.000125539
0.000122525
0.000119566
0.000116856
0.00011422
0.000111819
0.000109478
0.000107356
0.000105281
0.000103388
0.000101528
9.98356e-05
9.81904e-05
9.66638e-05
9.51606e-05
9.37188e-05
9.23051e-05
9.10065e-05
8.98328e-05
8.87673e-05
8.77832e-05
8.68515e-05
8.59294e-05
8.50408e-05
8.42079e-05
8.34271e-05
8.27123e-05
8.20397e-05
8.14172e-05
8.08305e-05
8.02976e-05
7.98064e-05
7.93722e-05
7.89729e-05
7.86145e-05
7.8276e-05
7.79417e-05
7.75239e-05
7.70922e-05
7.65185e-05
7.60662e-05
7.61485e-05
7.58695e-05
7.55678e-05
7.55393e-05
7.54317e-05
7.53007e-05
7.51769e-05
7.50253e-05
7.48651e-05
7.46889e-05
7.45195e-05
7.4354e-05
7.4184e-05
7.40133e-05
7.38321e-05
7.3673e-05
7.35389e-05
7.34167e-05
7.3303e-05
7.31963e-05
7.31021e-05
7.30168e-05
7.29399e-05
7.28768e-05
7.28258e-05
7.27738e-05
7.27233e-05
7.26567e-05
7.25878e-05
7.25054e-05
7.24298e-05
7.23578e-05
7.2287e-05
7.2211e-05
7.21199e-05
7.20236e-05
7.18928e-05
7.17541e-05
7.16226e-05
7.14755e-05
7.13446e-05
7.12758e-05
7.1188e-05
7.11119e-05
7.10582e-05
7.10107e-05
7.09817e-05
7.09513e-05
7.09232e-05
7.08869e-05
7.08446e-05
7.0793e-05
7.07346e-05
7.0662e-05
7.05782e-05
7.04898e-05
7.04028e-05
7.03043e-05
7.02129e-05
7.01431e-05
7.0083e-05
7.00291e-05
7.00011e-05
6.99764e-05
6.99511e-05
6.99309e-05
6.99144e-05
6.98954e-05
6.98678e-05
6.9825e-05
6.97685e-05
6.97093e-05
6.9637e-05
6.95666e-05
6.94939e-05
6.94332e-05
6.93785e-05
6.93299e-05
6.92931e-05
6.92623e-05
6.92377e-05
6.9223e-05
6.92109e-05
6.9195e-05
6.91771e-05
6.91464e-05
6.91169e-05
6.90794e-05
6.8997e-05
6.89463e-05
6.88931e-05
6.88351e-05
6.87858e-05
6.87411e-05
6.8702e-05
6.86741e-05
6.8649e-05
6.86262e-05
6.86059e-05
6.85902e-05
6.85702e-05
6.85518e-05
6.8523e-05
6.84693e-05
6.84308e-05
6.83822e-05
6.83278e-05
6.82833e-05
6.82399e-05
6.81973e-05
6.8157e-05
6.81257e-05
6.80978e-05
6.80722e-05
6.8049e-05
6.80278e-05
6.80058e-05
6.7985e-05
6.79351e-05
8.58543e-07
6.74959e-07
4.70778e-07
3.155e-07
2.34549e-07
1.91858e-07
1.96019e-07
3.3242e-07
7.01649e-07
1.31226e-06
2.82931e-06
5.83888e-06
1.07132e-05
1.83444e-05
2.69092e-05
3.61535e-05
4.55328e-05
5.47258e-05
6.37839e-05
7.28113e-05
8.20244e-05
9.15152e-05
0.000101618
0.000112294
0.000123807
0.000136166
0.00014957
0.000164085
0.000179237
0.000196351
0.000214923
0.000234507
0.000255553
0.000278052
0.000301201
0.000325694
0.000349447
0.000375486
0.000402317
0.0004309
0.000460938
0.000491446
0.000522783
0.000555078
0.000587223
0.000620614
0.000653372
0.000688732
0.000723562
0.000760122
0.000793204
0.000829696
0.000863932
0.000900244
0.00093171
0.000963257
0.000993097
0.00102025
0.00104594
0.00106936
0.00109083
0.00110989
0.00112708
0.00114267
0.00115682
0.00116974
0.00118084
0.00119033
0.00119818
0.00120478
0.0012115
0.00121583
0.00121979
0.00122176
0.00122229
0.00122199
0.00121916
0.00121614
0.00121098
0.00120574
0.00119839
0.0011917
0.00118326
0.00117537
0.0011657
0.00115653
0.001146
0.0011361
0.00112509
0.00111478
0.00110357
0.00109297
0.0010818
0.00107108
0.00105992
0.00104874
0.00103712
0.00102565
0.00101448
0.00100374
0.000993335
0.00098337
0.000973364
0.000963358
0.0009536
0.000943969
0.000934767
0.000925693
0.00091708
0.000908582
0.000900596
0.000892812
0.000885613
0.000878601
0.000872206
0.000865803
0.000859998
0.000853238
0.000846602
0.000838978
0.000832081
0.000827754
0.000821419
0.000815485
0.000811153
0.000807087
0.000803226
0.000799804
0.000796195
0.000792552
0.000788686
0.000784859
0.000780993
0.000777095
0.000773099
0.000769073
0.000765063
0.000761312
0.000757614
0.000754165
0.000750791
0.000747645
0.000744615
0.000741764
0.000739143
0.000735026
0.000730969
0.000726904
0.000722838
0.000718904
0.000714953
0.000711104
0.000707307
0.000703679
0.000700173
0.000696682
0.000693272
0.000689665
0.000686158
0.000682576
0.000679042
0.000675374
0.000671973
0.000668575
0.000665252
0.000662189
0.000659163
0.000656507
0.00065389
0.000651524
0.000649311
0.000647159
0.000645224
0.000643177
0.000641409
0.000639421
0.000637583
0.000635609
0.000633591
0.000631529
0.000629362
0.00062734
0.000625226
0.000623519
0.000621814
0.000620221
0.000618734
0.000617375
0.000616117
0.000615013
0.000613916
0.000612889
0.000611629
0.000610662
0.000609472
0.000608286
0.000606959
0.000605636
0.000604319
0.000603078
0.000601887
0.000600761
0.000599754
0.000598859
0.000598082
0.000597383
0.000596712
0.000596145
0.000595407
0.000594814
0.000594084
0.000593275
0.000592437
0.000591522
0.000590592
0.000589637
0.00058881
0.000587987
0.000587263
0.000586583
0.000586002
0.000585539
0.00058509
0.000584705
0.000584287
0.000583823
0.000583252
0.00058272
0.000582111
0.00058145
0.000580749
0.000580027
0.000579373
0.000578764
0.00057819
0.0005777
0.000577252
0.00057689
0.000576592
0.000576115
1.14691e-06
1.28282e-06
1.36448e-06
9.63665e-07
6.49317e-07
6.97704e-07
1.28327e-06
2.57339e-06
4.76436e-06
8.55824e-06
1.54112e-05
2.80513e-05
4.81715e-05
7.70242e-05
0.000108441
0.000139516
0.000168375
0.000195004
0.000219767
0.000243423
0.000266766
0.000289454
0.000313225
0.000337458
0.000362959
0.000389597
0.00041773
0.000447547
0.000478624
0.000511846
0.000546593
0.000582884
0.000621062
0.00066071
0.000700699
0.00074273
0.000785577
0.000831612
0.000878336
0.000927269
0.0009784
0.00103005
0.00108242
0.00113605
0.00118877
0.00124316
0.00129543
0.00135145
0.00140577
0.00146275
0.00151374
0.00156907
0.00162088
0.00167495
0.00172228
0.00177089
0.00181643
0.00185878
0.00189916
0.00193663
0.00197087
0.00200163
0.0020297
0.00205535
0.00207884
0.00210039
0.00211931
0.00213597
0.00215013
0.00216057
0.00217018
0.00217555
0.00218082
0.00218277
0.00218307
0.00218182
0.00217744
0.00217248
0.00216436
0.00215627
0.00214492
0.00213461
0.00212117
0.00210863
0.00209307
0.00207842
0.00206147
0.00204564
0.00202783
0.00201116
0.00199284
0.00197555
0.00195715
0.00193942
0.0019207
0.00190173
0.00188196
0.00186243
0.00184339
0.00182501
0.00180711
0.00178969
0.001772
0.00175417
0.00173667
0.00171927
0.00170256
0.00168591
0.00167002
0.00165415
0.00163914
0.00162432
0.0016105
0.00159685
0.00158426
0.0015714
0.00155973
0.00154594
0.00153253
0.00151751
0.00150315
0.00149376
0.00148128
0.00146876
0.00145918
0.00145016
0.0014413
0.00143299
0.00142432
0.00141562
0.00140656
0.00139756
0.00138852
0.00137945
0.00137024
0.00136098
0.0013518
0.00134306
0.0013345
0.0013263
0.00131826
0.0013106
0.00130313
0.00129604
0.00128921
0.00128286
0.00127675
0.00127103
0.00126527
0.00125979
0.00125424
0.00124889
0.00124371
0.0012387
0.00123378
0.00122872
0.00122365
0.00121804
0.00121227
0.00120639
0.00120043
0.00119446
0.0011892
0.00118382
0.0011789
0.00117423
0.00117007
0.00116616
0.00116263
0.00115931
0.00115611
0.00115303
0.00114988
0.0011468
0.00114343
0.00113984
0.00113607
0.0011322
0.00112812
0.00112401
0.00112008
0.00111629
0.00111278
0.0011097
0.00110688
0.00110428
0.00110192
0.00109985
0.00109791
0.00109604
0.00109403
0.00109182
0.00108946
0.00108696
0.0010843
0.00108153
0.00107872
0.00107599
0.00107333
0.00107094
0.00106878
0.00106683
0.0010652
0.0010638
0.0010625
0.00106133
0.00106004
0.00105884
0.00105734
0.00105559
0.00105388
0.00105197
0.00104997
0.00104796
0.00104605
0.00104417
0.00104262
0.00104116
0.00103994
0.00103881
0.00103796
0.00103709
0.00103638
0.00103552
0.00103442
0.00103335
0.00103207
0.00103069
0.0010293
0.00102788
0.00102646
0.00102506
0.00102384
0.00102278
0.00102182
0.00102104
0.00102035
0.00101979
0.00101928
0.00101826
1.3611e-06
2.12989e-06
2.8663e-06
2.09118e-06
1.9034e-06
2.96835e-06
5.25513e-06
9.38209e-06
1.62975e-05
2.8572e-05
5.08521e-05
8.60754e-05
0.000134014
0.000190062
0.000243613
0.000291647
0.000333733
0.000371836
0.000406888
0.000439734
0.000472007
0.000503687
0.000536364
0.000569588
0.000604187
0.000640059
0.00067746
0.000716535
0.000757076
0.000799616
0.00084354
0.000889239
0.000936077
0.000984788
0.00103408
0.00108544
0.00113795
0.0011937
0.00124968
0.00130733
0.00136708
0.00142737
0.00148809
0.00155029
0.00161113
0.00167343
0.00173252
0.00179523
0.0018558
0.00191869
0.00197545
0.00203596
0.00209283
0.00215151
0.00220405
0.00225866
0.0023092
0.00235729
0.00240344
0.00244635
0.00248599
0.00252248
0.00255655
0.00258816
0.00261749
0.00264467
0.00266899
0.00269149
0.00271123
0.00272673
0.00274181
0.00275199
0.00276246
0.00276866
0.00277349
0.00277586
0.0027756
0.00277448
0.00276975
0.00276508
0.00275714
0.0027502
0.00273935
0.00272922
0.00271582
0.00270311
0.00268795
0.00267369
0.00265731
0.00264179
0.00262443
0.00260802
0.00259021
0.00257295
0.00255416
0.00253468
0.00251413
0.00249376
0.00247404
0.00245502
0.0024365
0.00241828
0.00239942
0.00238024
0.00236128
0.00234232
0.00232407
0.00230577
0.0022883
0.00227068
0.00225404
0.00223747
0.00222207
0.00220677
0.00219265
0.00217814
0.00216485
0.00214862
0.00213258
0.00211472
0.00209654
0.00208551
0.00207152
0.00205653
0.00204514
0.0020348
0.00202426
0.00201406
0.00200332
0.00199251
0.00198111
0.00196968
0.0019581
0.0019464
0.00193445
0.00192235
0.00191031
0.00189878
0.00188747
0.00187658
0.00186583
0.00185555
0.00184546
0.00183583
0.0018265
0.00181773
0.0018092
0.00180116
0.00179299
0.0017852
0.00177724
0.00176957
0.00176205
0.00175478
0.00174753
0.00174014
0.00173262
0.00172442
0.00171593
0.00170733
0.00169859
0.00168979
0.00168196
0.00167411
0.00166675
0.0016598
0.0016535
0.00164759
0.00164216
0.001637
0.00163201
0.00162712
0.00162213
0.0016172
0.00161185
0.00160625
0.00160037
0.0015944
0.00158809
0.00158186
0.00157583
0.00157013
0.00156471
0.0015599
0.00155538
0.00155123
0.00154735
0.00154393
0.00154061
0.00153744
0.00153403
0.00153037
0.00152656
0.00152239
0.0015181
0.00151363
0.00150922
0.00150494
0.00150076
0.00149702
0.00149357
0.00149046
0.0014877
0.0014853
0.00148303
0.00148095
0.00147873
0.0014766
0.0014741
0.00147111
0.0014682
0.00146516
0.00146202
0.00145887
0.00145588
0.00145298
0.00145053
0.00144823
0.00144623
0.00144439
0.00144291
0.00144139
0.00144016
0.00143864
0.00143679
0.00143501
0.00143296
0.0014308
0.00142864
0.00142648
0.00142432
0.00142224
0.00142039
0.00141878
0.0014173
0.00141607
0.00141496
0.00141402
0.00141315
0.00141154
1.5323e-06
4.05918e-06
5.77912e-06
4.13404e-06
5.33658e-06
8.18421e-06
1.34971e-05
2.2934e-05
3.98996e-05
7.00264e-05
0.000116288
0.000179452
0.000249847
0.000319375
0.000382649
0.000438705
0.000489026
0.000533473
0.000574684
0.00061362
0.000651678
0.000689184
0.000727346
0.000766046
0.00080588
0.000846846
0.000889075
0.000932722
0.000977627
0.00102417
0.00107163
0.00112034
0.00116991
0.00122142
0.00127335
0.00132732
0.00138216
0.00144007
0.00149782
0.00155632
0.00161683
0.00167764
0.00173879
0.00180138
0.00186165
0.00192264
0.00197957
0.00203946
0.00209705
0.00215619
0.00220959
0.00226667
0.00232028
0.00237531
0.0024128
0.00246313
0.00249195
0.00253469
0.0025711
0.00260807
0.00264813
0.00268607
0.00273295
0.00277491
0.00281964
0.00285377
0.00289436
0.00293307
0.00296395
0.0029853
0.00300548
0.00302068
0.0030363
0.00304681
0.00305672
0.00306329
0.00306817
0.00307194
0.00307243
0.00307307
0.00307127
0.00307021
0.00306515
0.0030603
0.00305244
0.00304483
0.00303498
0.0030257
0.00301443
0.00300368
0.00299124
0.00297953
0.00296627
0.00295337
0.00293852
0.00292263
0.00290554
0.00288848
0.00287216
0.00285641
0.00284114
0.00282594
0.00280987
0.00279334
0.00277689
0.00276033
0.00274439
0.0027283
0.00271297
0.0026974
0.00268275
0.0026681
0.00265457
0.00264112
0.00262876
0.00261605
0.00260419
0.0025893
0.00257393
0.00255711
0.00253871
0.00252842
0.00251666
0.00250291
0.0024924
0.00248326
0.00247388
0.00246449
0.00245449
0.0024444
0.00243351
0.00242249
0.00241117
0.00239959
0.00238767
0.00237549
0.00236328
0.00235157
0.00234006
0.00232895
0.00231794
0.00230738
0.00229702
0.00228709
0.00227747
0.00226842
0.0022596
0.00225129
0.00224277
0.00223463
0.0022262
0.0022181
0.00221003
0.00220228
0.00219438
0.00218636
0.00217801
0.00216889
0.00215933
0.00214966
0.00213973
0.00212963
0.00212066
0.00211178
0.00210337
0.00209544
0.00208824
0.00208153
0.00207535
0.00206948
0.00206379
0.00205819
0.00205242
0.00204666
0.00204033
0.00203372
0.00202671
0.00201959
0.00201199
0.0020045
0.00199722
0.00199043
0.00198388
0.00197809
0.00197262
0.00196765
0.00196298
0.00195883
0.00195477
0.00195087
0.00194666
0.0019421
0.00193733
0.00193219
0.00192678
0.00192119
0.00191567
0.0019103
0.00190507
0.00190044
0.00189609
0.00189221
0.0018887
0.00188569
0.00188277
0.00188011
0.00187726
0.00187449
0.00187133
0.00186751
0.00186367
0.00185977
0.00185575
0.0018517
0.0018479
0.00184423
0.00184112
0.00183819
0.00183564
0.00183328
0.00183138
0.00182942
0.0018278
0.00182586
0.00182347
0.00182113
0.0018185
0.00181574
0.00181295
0.00181021
0.00180747
0.00180485
0.00180254
0.00180053
0.00179867
0.00179713
0.00179574
0.00179455
0.00179345
0.00179143
1.68414e-06
7.61307e-06
9.99533e-06
7.88098e-06
1.07592e-05
1.6509e-05
2.71776e-05
4.64433e-05
8.10914e-05
0.000133904
0.00020492
0.000284241
0.00036445
0.000439691
0.000507662
0.000569122
0.000622535
0.000670978
0.000715999
0.000758548
0.000799914
0.000840598
0.000881472
0.000922673
0.000964536
0.00100723
0.00105073
0.00109527
0.00114056
0.00118691
0.00123354
0.00128136
0.00132957
0.00137965
0.00142967
0.00148099
0.00153244
0.00158678
0.0016403
0.00169325
0.00174821
0.00180284
0.00185795
0.00191445
0.0019512
0.00197177
0.00199277
0.0020124
0.00203028
0.00204528
0.00207144
0.00210258
0.00212391
0.00215364
0.00217554
0.00223559
0.00226066
0.00229164
0.00233228
0.00235558
0.00240092
0.00242869
0.00247877
0.00251471
0.00255817
0.00258693
0.00262434
0.00265978
0.00269482
0.00273535
0.00276977
0.00281182
0.00284823
0.00288504
0.00292104
0.0029534
0.00299139
0.00302464
0.00305781
0.00309206
0.00312914
0.00316061
0.00317113
0.00317236
0.00317115
0.00316983
0.00316664
0.00316377
0.00315918
0.00315492
0.00314895
0.00314365
0.00313664
0.00312984
0.00312068
0.00311035
0.00309878
0.00308709
0.00307616
0.00306551
0.00305525
0.00304485
0.00303351
0.00302166
0.00300973
0.00299758
0.00298589
0.00297395
0.00296264
0.00295102
0.00294018
0.0029293
0.00291936
0.00290948
0.00290058
0.00289124
0.0028823
0.00287058
0.00285787
0.0028442
0.00282823
0.00281983
0.00281188
0.00280161
0.00279341
0.0027868
0.00278015
0.00277317
0.00276557
0.00275788
0.00274928
0.00274048
0.00273117
0.00272152
0.00271147
0.0027011
0.00269062
0.00268057
0.00267065
0.00266108
0.00265159
0.00264251
0.0026336
0.00262506
0.00261682
0.00260909
0.0026016
0.00259457
0.00258729
0.00258036
0.00257308
0.00256613
0.00255907
0.00255236
0.00254536
0.0025382
0.00253057
0.00252212
0.00251312
0.00250396
0.00249446
0.00248461
0.00247597
0.00246757
0.00245953
0.002452
0.00244516
0.00243889
0.00243316
0.00242777
0.00242253
0.00241737
0.00241193
0.00240648
0.00240034
0.00239385
0.00238691
0.00237977
0.00237209
0.00236449
0.00235706
0.0023502
0.00234356
0.00233775
0.00233231
0.00232744
0.00232286
0.0023188
0.00231483
0.002311
0.00230683
0.0023022
0.0022973
0.00229198
0.00228629
0.00228042
0.00227457
0.00226894
0.0022634
0.00225859
0.00225401
0.00224999
0.00224636
0.00224332
0.00224033
0.00223765
0.00223472
0.00223183
0.00222859
0.00222452
0.00222033
0.00221609
0.00221176
0.00220734
0.00220324
0.00219927
0.00219597
0.00219284
0.00219018
0.00218768
0.00218574
0.00218373
0.00218205
0.00218009
0.00217756
0.00217501
0.00217219
0.0021692
0.00216614
0.00216317
0.0021602
0.00215737
0.00215492
0.0021528
0.00215087
0.00214929
0.0021479
0.00214672
0.00214565
0.00214362
1.8402e-06
1.17939e-05
1.43035e-05
1.2877e-05
1.8666e-05
2.93893e-05
4.84225e-05
8.3699e-05
0.000138683
0.000212874
0.000296616
0.000383834
0.000467887
0.00054534
0.00061633
0.000678678
0.000733874
0.000784471
0.00083141
0.000875644
0.000918298
0.000960031
0.00100134
0.00104263
0.00108404
0.00112587
0.00116798
0.00121064
0.00125337
0.00129668
0.00133974
0.00138356
0.00142702
0.00147192
0.00151613
0.00156139
0.00160579
0.00165323
0.00169934
0.00171332
0.00172418
0.00172258
0.00173106
0.00174211
0.00175616
0.00176595
0.00177994
0.00179545
0.00181046
0.00182633
0.00184499
0.00188323
0.00190046
0.00193122
0.00194061
0.00200587
0.00202808
0.00203693
0.00207685
0.0020894
0.0021273
0.0021451
0.0021875
0.00221303
0.00224932
0.00227089
0.00229961
0.00232727
0.00235641
0.00238999
0.00242035
0.00245797
0.00249134
0.00252648
0.00256063
0.00259332
0.0026307
0.0026647
0.00269997
0.00273765
0.00277546
0.00281111
0.00284552
0.00288109
0.00291671
0.0029506
0.00298478
0.00301773
0.00304853
0.00308056
0.00311164
0.00313168
0.00313275
0.00313355
0.00313167
0.00312854
0.0031242
0.00311958
0.0031156
0.00311167
0.00310794
0.00310383
0.00309886
0.00309331
0.00308745
0.00308117
0.0030751
0.00306854
0.00306245
0.00305594
0.00305007
0.00304404
0.00303871
0.00303341
0.00302896
0.00302377
0.00301864
0.00301119
0.00300261
0.00299341
0.00298171
0.002976
0.00297227
0.00296685
0.0029618
0.00295831
0.00295518
0.00295144
0.00294721
0.00294283
0.00293754
0.00293194
0.00292568
0.00291904
0.00291196
0.00290459
0.00289703
0.00288976
0.00288254
0.00287562
0.00286878
0.00286227
0.00285591
0.00284986
0.00284406
0.00283869
0.00283356
0.00282879
0.00282383
0.00281909
0.00281409
0.0028093
0.00280435
0.00279967
0.00279466
0.0027894
0.00278361
0.00277703
0.0027698
0.00276239
0.00275462
0.00274621
0.00273903
0.00273234
0.0027258
0.00271976
0.0027143
0.0027095
0.00270519
0.0027012
0.00269732
0.00269356
0.0026894
0.00268517
0.00268023
0.00267488
0.00266904
0.00266286
0.00265623
0.00264959
0.00264302
0.00263703
0.00263129
0.00262639
0.00262189
0.00261795
0.00261428
0.00261111
0.00260801
0.00260503
0.00260168
0.00259782
0.00259364
0.00258892
0.00258384
0.00257857
0.00257323
0.00256815
0.0025631
0.00255889
0.0025548
0.00255136
0.00254827
0.00254588
0.00254343
0.00254136
0.00253897
0.00253657
0.00253388
0.00253021
0.00252636
0.00252242
0.00251844
0.0025143
0.00251051
0.00250684
0.00250391
0.00250112
0.00249887
0.00249674
0.00249523
0.00249364
0.00249235
0.00249083
0.00248865
0.00248637
0.00248384
0.0024811
0.00247826
0.0024755
0.00247276
0.00247017
0.00246801
0.00246618
0.00246456
0.00246333
0.00246228
0.00246148
0.00246077
0.00245923
2.06905e-06
1.57421e-05
1.9571e-05
1.97442e-05
3.04753e-05
4.79422e-05
7.97301e-05
0.000133232
0.000206532
0.000291731
0.000382579
0.000472774
0.000557696
0.000636293
0.000707032
0.000769111
0.000824989
0.00087619
0.000923528
0.00096793
0.00101021
0.0010512
0.00109114
0.00113062
0.00116965
0.00120864
0.00124729
0.00128601
0.00132406
0.00136227
0.00139945
0.001437
0.00147359
0.00151123
0.00154739
0.0015579
0.0015535
0.00155317
0.00153413
0.00153103
0.00153267
0.00152652
0.00153842
0.00155065
0.00156748
0.00157844
0.00159411
0.00161867
0.0016322
0.00165151
0.00165787
0.00170401
0.00171474
0.00174257
0.00174661
0.00179482
0.00181223
0.00180407
0.00183323
0.001837
0.00186344
0.00187335
0.00190361
0.00191934
0.00194613
0.00196244
0.00198142
0.00200242
0.00202492
0.00205083
0.00207616
0.00210497
0.0021335
0.00216034
0.00218969
0.00221674
0.00224749
0.00227805
0.00230529
0.00234312
0.00236969
0.00240803
0.00243335
0.00247817
0.00250558
0.002552
0.00258157
0.00262834
0.00265757
0.00270414
0.002737
0.00278273
0.00281103
0.00285305
0.00287848
0.00291707
0.00295098
0.00298839
0.00300993
0.00301477
0.00301908
0.00302271
0.00302548
0.00302745
0.00302883
0.00302963
0.00303046
0.00303063
0.00303111
0.00303097
0.00303124
0.00303125
0.00303159
0.00303197
0.00303278
0.00303253
0.003032
0.00302989
0.00302671
0.00302306
0.00301717
0.00301493
0.0030155
0.00301556
0.00301467
0.00301469
0.00301529
0.00301541
0.00301511
0.00301462
0.00301324
0.00301148
0.00300891
0.00300601
0.00300261
0.002999
0.00299513
0.0029913
0.00298747
0.00298391
0.0029804
0.00297714
0.00297398
0.0029711
0.00296838
0.00296601
0.00296383
0.0029619
0.00295987
0.00295797
0.00295585
0.00295392
0.00295168
0.00294966
0.00294727
0.00294458
0.00294138
0.00293742
0.00293281
0.00292796
0.00292272
0.0029168
0.00291191
0.00290763
0.00290344
0.00289965
0.0028963
0.00289367
0.00289145
0.00288951
0.00288766
0.00288591
0.00288374
0.00288143
0.00287843
0.00287501
0.00287096
0.00286665
0.00286191
0.00285705
0.00285213
0.00284783
0.00284379
0.00284052
0.00283763
0.00283529
0.00283321
0.00283156
0.00282997
0.00282847
0.0028266
0.00282424
0.00282145
0.00281807
0.00281435
0.00281043
0.00280633
0.00280252
0.00279869
0.00279576
0.00279284
0.00279062
0.00278868
0.00278753
0.00278622
0.00278534
0.00278405
0.00278273
0.00278119
0.00277854
0.00277569
0.00277269
0.00276968
0.00276644
0.0027636
0.0027608
0.00275883
0.00275691
0.00275561
0.00275436
0.00275378
0.0027531
0.00275266
0.00275207
0.00275076
0.00274923
0.0027475
0.00274553
0.00274341
0.00274136
0.00273934
0.00273747
0.00273605
0.00273494
0.00273408
0.00273359
0.0027333
0.00273327
0.00273329
0.00273283
2.34585e-06
2.06415e-05
2.65066e-05
3.00469e-05
4.63949e-05
7.34684e-05
0.000120968
0.000190682
0.000273977
0.000365451
0.00045923
0.000549681
0.000634051
0.000712588
0.000781314
0.000842625
0.000898087
0.000948728
0.000995256
0.00103847
0.00107897
0.00111776
0.00115483
0.00119094
0.001226
0.00126055
0.00129412
0.00132732
0.00135914
0.00139082
0.00142069
0.00145043
0.00145879
0.0014426
0.00141552
0.00139095
0.00137917
0.00137327
0.00135404
0.00135629
0.001366
0.00136799
0.00139639
0.00140787
0.00142232
0.00143733
0.00144423
0.00147741
0.00148276
0.00150035
0.00149075
0.00152952
0.00153094
0.00155013
0.00155003
0.00156449
0.00159051
0.00158462
0.0016008
0.00160353
0.00162466
0.00163479
0.001656
0.00167204
0.0016917
0.00171038
0.00172405
0.00174541
0.00176443
0.0017895
0.00181123
0.00183493
0.00186259
0.00187885
0.00191014
0.00192811
0.00195661
0.00198295
0.00200135
0.00204026
0.00205344
0.00209046
0.00210968
0.00214859
0.002167
0.00220612
0.00222767
0.0022658
0.00228838
0.00232498
0.00235283
0.00238922
0.00241694
0.0024542
0.00248139
0.00252112
0.0025617
0.0026029
0.00263607
0.00267198
0.00270034
0.0027317
0.00276259
0.00279582
0.0028262
0.0028479
0.00285798
0.00286691
0.00287571
0.0028836
0.00289158
0.00289921
0.00290672
0.002914
0.0029213
0.00292705
0.00293222
0.00293676
0.0029403
0.00294302
0.00294449
0.00294729
0.00295286
0.00295855
0.00296283
0.00296718
0.00297199
0.00297661
0.00298088
0.00298492
0.00298807
0.0029909
0.00299267
0.00299421
0.00299512
0.00299595
0.00299643
0.00299668
0.00299685
0.00299722
0.00299755
0.00299809
0.00299864
0.00299942
0.00300026
0.00300133
0.00300252
0.00300387
0.00300515
0.00300653
0.0030077
0.00300909
0.00300999
0.00301106
0.0030117
0.00301203
0.00301186
0.00301099
0.00300962
0.00300793
0.00300581
0.00300304
0.00300105
0.00299964
0.00299831
0.00299729
0.00299665
0.00299655
0.00299687
0.00299739
0.00299803
0.00299873
0.00299904
0.00299911
0.00299857
0.00299762
0.00299591
0.00299411
0.00299183
0.00298935
0.00298674
0.00298472
0.00298293
0.00298178
0.00298097
0.00298078
0.00298076
0.0029811
0.00298147
0.00298193
0.00298206
0.00298168
0.00298084
0.0029794
0.00297761
0.00297562
0.00297339
0.00297142
0.0029694
0.00296827
0.00296711
0.00296658
0.00296632
0.00296684
0.00296719
0.00296795
0.00296826
0.00296849
0.0029686
0.00296755
0.00296625
0.00296472
0.00296323
0.00296147
0.00296009
0.00295872
0.00295819
0.00295765
0.00295777
0.00295788
0.00295866
0.00295933
0.00296019
0.00296096
0.00296099
0.00296069
0.00296024
0.00295951
0.00295859
0.00295773
0.0029569
0.00295621
0.00295597
0.00295604
0.00295632
0.00295701
0.00295784
0.00295897
0.0029601
0.00296129
2.65188e-06
2.63852e-05
3.26393e-05
4.36339e-05
6.7274e-05
0.000106168
0.000168711
0.000247748
0.000337184
0.000431386
0.000525426
0.000614721
0.000698298
0.000774503
0.000841232
0.000901197
0.000955363
0.00100446
0.00104905
0.00108986
0.00112737
0.0011626
0.00119544
0.0012268
0.00125649
0.00128525
0.00131237
0.00133893
0.00136351
0.00138758
0.00136408
0.00133032
0.00129961
0.00127422
0.00124657
0.00122612
0.00122457
0.00122621
0.00121694
0.00122506
0.0012496
0.00125443
0.00128198
0.00129065
0.00129513
0.00131797
0.00130905
0.00134113
0.00133209
0.00134412
0.00132929
0.001353
0.00135468
0.00137271
0.00138451
0.00136617
0.00140476
0.00141118
0.00141082
0.00142041
0.00142688
0.00144811
0.00145621
0.00147559
0.00148706
0.00151362
0.0015225
0.00154927
0.00156137
0.00159292
0.00160611
0.00163195
0.00165923
0.00166799
0.00170577
0.00171248
0.00174848
0.001761
0.0017918
0.00180982
0.00182658
0.00184938
0.00187195
0.00189728
0.00192104
0.00194658
0.00196563
0.00198742
0.00200726
0.0020278
0.00204871
0.00206909
0.00209003
0.00211059
0.00213552
0.00216227
0.00219619
0.00222519
0.00225508
0.00228297
0.00230948
0.00233768
0.00237031
0.00240372
0.00243796
0.00247142
0.00250389
0.00253581
0.00256801
0.00259918
0.0026239
0.00264193
0.00265934
0.00267567
0.0026916
0.00270515
0.00271815
0.00273076
0.00274303
0.00275433
0.00276445
0.00277471
0.00278652
0.00279851
0.00280912
0.00281909
0.00282919
0.0028392
0.00284888
0.00285839
0.00286704
0.00287535
0.00288245
0.00288931
0.00289553
0.00290168
0.00290739
0.00291258
0.00291755
0.00292261
0.0029275
0.00293251
0.00293739
0.00294239
0.00294737
0.00295238
0.00295742
0.00296253
0.00296756
0.00297265
0.00297757
0.00298263
0.00298716
0.00299167
0.00299574
0.00299954
0.00300277
0.00300546
0.0030078
0.00300972
0.0030112
0.00301215
0.00301347
0.00301535
0.00301731
0.00301944
0.00302183
0.00302461
0.00302783
0.00303112
0.00303456
0.003038
0.00304113
0.00304399
0.00304618
0.00304809
0.00304925
0.00305032
0.00305094
0.00305132
0.00305145
0.00305216
0.003053
0.00305435
0.00305603
0.00305828
0.00306066
0.00306333
0.00306601
0.00306875
0.00307121
0.00307316
0.00307472
0.00307563
0.00307621
0.00307661
0.00307671
0.00307702
0.00307727
0.00307832
0.00307934
0.0030809
0.00308271
0.0030852
0.00308761
0.00309032
0.00309261
0.00309477
0.00309693
0.00309792
0.00309863
0.00309902
0.00309949
0.00309966
0.0031002
0.00310069
0.003102
0.00310327
0.00310518
0.00310704
0.00310954
0.00311193
0.00311444
0.00311695
0.00311875
0.00312006
0.00312132
0.00312224
0.00312296
0.00312371
0.00312448
0.00312539
0.00312673
0.00312835
0.00313016
0.00313238
0.00313469
0.00313733
0.00313991
0.00314328
2.93738e-06
3.29015e-05
4.09319e-05
6.04731e-05
9.28986e-05
0.000144245
0.000216963
0.000301694
0.000393795
0.000488517
0.000581233
0.000668617
0.000750658
0.00082382
0.000888456
0.000946508
0.000998588
0.00104518
0.00108675
0.00112398
0.00115724
0.00118755
0.00121484
0.00124011
0.00126312
0.00128492
0.00130466
0.00132365
0.00128876
0.00124831
0.0012039
0.00116553
0.00114083
0.00112479
0.00111068
0.00110131
0.00110963
0.00111774
0.00111422
0.00112248
0.00116959
0.00116817
0.00116696
0.00118755
0.00117571
0.00120012
0.00118142
0.00120747
0.00119544
0.00121721
0.00120903
0.00121424
0.00121326
0.00122287
0.00123865
0.00121018
0.00122434
0.00124503
0.00122929
0.00124866
0.00123809
0.00126792
0.00125728
0.00128098
0.00127384
0.00131622
0.00131318
0.00130581
0.00130502
0.00129944
0.00130082
0.00129997
0.00130434
0.0013073
0.00131123
0.00131799
0.00132318
0.00133294
0.00134288
0.00135657
0.00136724
0.00138108
0.00139547
0.0014126
0.00142934
0.00144962
0.00146943
0.00149251
0.0015156
0.00154078
0.00156706
0.00159508
0.00162368
0.00165438
0.00168539
0.00171826
0.00175324
0.00178786
0.00182288
0.0018572
0.00189109
0.00192464
0.00195969
0.00199485
0.00202992
0.00206429
0.00209821
0.00213108
0.0021637
0.00219497
0.00222584
0.00225507
0.00228325
0.00230999
0.00233583
0.00235925
0.00238237
0.00240521
0.00242805
0.00245022
0.00247092
0.00249112
0.00251089
0.00253053
0.00254886
0.00256636
0.00258309
0.00259992
0.00261621
0.00263263
0.00264793
0.00266316
0.00267695
0.00269054
0.00270348
0.00271611
0.00272827
0.00273969
0.00275062
0.00276146
0.00277189
0.00278235
0.0027924
0.00280257
0.00281237
0.00282219
0.00283178
0.00284137
0.0028508
0.00286034
0.00286955
0.00287894
0.00288755
0.00289614
0.0029041
0.00291191
0.00291914
0.00292598
0.00293246
0.00293858
0.00294419
0.00294941
0.00295461
0.00296023
0.00296588
0.00297155
0.00297741
0.00298343
0.00298982
0.00299619
0.00300275
0.00300925
0.00301542
0.00302137
0.0030267
0.00303183
0.00303621
0.00304048
0.0030444
0.00304799
0.00305131
0.00305507
0.00305888
0.00306306
0.00306749
0.00307246
0.00307749
0.00308274
0.00308798
0.00309321
0.00309828
0.00310288
0.0031071
0.0031107
0.003114
0.0031171
0.00311991
0.00312282
0.0031257
0.00312921
0.00313274
0.00313666
0.00314082
0.00314553
0.00315026
0.00315515
0.00315976
0.00316408
0.00316859
0.00317196
0.00317501
0.00317768
0.00318045
0.00318292