/*--------------------------------*- C++ -*----------------------------------*\
| =========                 |                                                 |
| \\      /  F ield         | OpenFOAM: The Open Source CFD Toolbox           |
|  \\    /   O peration     | Version:  2312                                  |
|   \\  /    A nd           | Website:  www.openfoam.com                      |
|    \\/     M anipulation  |                                                 |
\*---------------------------------------------------------------------------*/
FoamFile
{
    version     2.0;
    format      ascii;
    arch        "LSB;label=32;scalar=64";
    class       volScalarField;
    location    "0.005";
    object      cSound;
}
// * * * * * * * * * * * * * * * * * * * * * * * * * * * * * * * * * * * * * //

dimensions      [0 1 -1 0 0 0 0];

internalField   nonuniform List<scalar> 
48128
(
378.15
378.206
378.053
377.961
377.99
377.979
378.008
378.063
378.032
377.819
376.845
375.913
375.304
374.778
374.345
373.527
372.814
372.133
371.495
370.906
370.378
369.877
369.397
368.954
368.555
368.206
367.914
367.696
367.554
367.478
367.457
367.533
367.685
367.91
368.197
368.544
368.95
369.408
369.882
370.404
370.95
371.5
372.045
372.585
373.103
373.59
374.042
374.457
374.828
375.154
375.408
375.627
375.771
375.865
375.875
375.832
375.715
375.535
375.296
375.002
374.656
374.264
373.83
373.355
372.84
372.281
371.689
371.073
370.425
369.763
369.066
368.355
367.629
366.877
366.129
365.351
364.589
363.816
363.041
362.291
361.538
360.817
360.086
359.377
358.661
357.986
357.304
356.667
356.032
355.428
354.828
354.259
353.702
353.162
352.624
352.091
351.562
351.061
350.596
350.173
349.779
349.396
349.012
348.638
348.279
347.938
347.617
347.316
347.031
346.76
346.508
346.272
346.06
345.865
345.685
345.517
345.337
345.142
344.934
344.691
344.329
344.351
344.262
344.059
344.077
344.039
343.983
343.917
343.841
343.756
343.666
343.573
343.48
343.386
343.291
343.196
343.106
343.033
342.971
342.914
342.862
342.819
342.782
342.752
342.724
342.711
342.711
342.715
342.719
342.725
342.731
342.74
342.752
342.768
342.778
342.788
342.785
342.777
342.762
342.745
342.721
342.707
342.717
342.724
342.737
342.764
342.8
342.846
342.895
342.949
342.996
343.042
343.076
343.111
343.125
343.141
343.141
343.142
343.133
343.13
343.136
343.149
343.169
343.202
343.242
343.285
343.333
343.384
343.435
343.48
343.516
343.537
343.563
343.566
343.573
343.571
343.576
343.587
343.605
343.629
343.659
343.696
343.741
343.791
343.838
343.883
343.922
343.955
343.994
343.993
344.001
344.011
344.016
344.027
344.043
344.066
344.095
344.13
344.168
344.21
344.256
344.297
344.34
344.376
344.394
344.415
344.436
344.444
344.456
344.472
344.491
344.515
344.543
344.575
344.611
344.65
344.691
344.731
344.768
344.813
377.931
378.029
377.902
377.802
377.844
377.897
378.028
378.194
377.979
377.257
375.983
374.794
373.751
372.548
371.276
370.253
369.352
368.558
367.881
367.311
366.844
366.446
366.1
365.821
365.612
365.478
365.421
365.413
365.511
365.685
365.936
366.275
366.678
367.147
367.665
368.231
368.83
369.469
370.119
370.773
371.435
372.077
372.686
373.256
373.773
374.233
374.624
374.952
375.204
375.393
375.481
375.497
375.411
375.257
375.013
374.695
374.28
373.787
373.216
372.577
371.875
371.118
370.311
369.456
368.556
367.61
366.63
365.621
364.577
363.535
362.47
361.408
360.346
359.267
358.202
357.115
356.05
354.989
353.937
352.91
351.903
350.923
349.946
348.989
348.047
347.139
346.246
345.39
344.555
343.746
342.952
342.19
341.447
340.722
340.003
339.291
338.583
337.905
337.267
336.672
336.111
335.565
335.02
334.488
333.973
333.478
333.005
332.554
332.121
331.705
331.311
330.935
330.587
330.259
329.949
329.659
329.358
329.045
328.719
328.357
327.863
327.761
327.559
327.244
327.148
327.012
326.861
326.704
326.542
326.374
326.201
326.028
325.855
325.681
325.507
325.331
325.159
325.005
324.862
324.727
324.598
324.479
324.369
324.268
324.175
324.094
324.019
323.951
323.882
323.816
323.747
323.685
323.628
323.575
323.519
323.462
323.398
323.328
323.251
323.172
323.089
323.001
322.953
322.902
322.848
322.822
322.794
322.791
322.789
322.793
322.797
322.799
322.797
322.792
322.779
322.763
322.739
322.713
322.679
322.644
322.62
322.606
322.593
322.599
322.611
322.628
322.652
322.681
322.711
322.74
322.763
322.774
322.789
322.785
322.783
322.773
322.771
322.773
322.78
322.793
322.813
322.839
322.874
322.915
322.957
323
323.039
323.074
323.12
323.123
323.133
323.148
323.156
323.169
323.186
323.21
323.239
323.274
323.314
323.358
323.407
323.455
323.505
323.554
323.583
323.615
323.649
323.668
323.69
323.716
323.743
323.775
323.811
323.852
323.896
323.945
323.996
324.048
324.099
324.169
377.818
377.917
377.836
377.759
377.832
377.954
378.172
378.009
377.048
375.523
374.053
372.773
371.697
370.895
370.203
369.523
368.942
368.441
367.994
367.616
367.326
367.077
366.876
366.73
366.644
366.616
366.655
366.764
366.955
367.217
367.546
367.943
368.392
368.896
369.432
370
370.585
371.187
371.787
372.37
372.938
373.472
373.954
374.379
374.731
375.011
375.204
375.322
375.342
375.286
375.121
374.876
374.516
374.078
373.55
372.94
372.229
371.445
370.584
369.664
368.683
367.658
366.591
365.485
364.34
363.158
361.957
360.736
359.497
358.27
357.028
355.806
354.588
353.369
352.169
350.957
349.778
348.612
347.462
346.342
345.259
344.199
343.153
342.129
341.134
340.172
339.233
338.332
337.456
336.607
335.776
334.977
334.2
333.442
332.692
331.951
331.215
330.513
329.851
329.229
328.64
328.064
327.491
326.934
326.392
325.871
325.372
324.895
324.434
323.99
323.568
323.164
322.786
322.428
322.088
321.766
321.436
321.095
320.74
320.355
319.854
319.712
319.475
319.152
319.008
318.833
318.647
318.457
318.265
318.069
317.87
317.673
317.475
317.278
317.081
316.882
316.689
316.511
316.344
316.184
316.029
315.885
315.75
315.624
315.504
315.399
315.3
315.209
315.118
315.029
314.939
314.855
314.775
314.7
314.623
314.544
314.46
314.371
314.276
314.178
314.077
313.97
313.901
313.829
313.754
313.707
313.657
313.633
313.608
313.592
313.577
313.56
313.541
313.519
313.491
313.46
313.423
313.384
313.339
313.293
313.255
313.229
313.199
313.195
313.196
313.2
313.211
313.228
313.247
313.265
313.279
313.283
313.288
313.282
313.275
313.262
313.253
313.25
313.253
313.261
313.275
313.295
313.324
313.36
313.397
313.435
313.471
313.505
313.547
313.552
313.564
313.579
313.588
313.602
313.62
313.643
313.672
313.706
313.745
313.789
313.838
313.887
313.937
313.989
314.022
314.058
314.096
314.12
314.147
314.177
314.208
314.244
314.283
314.327
314.375
314.427
314.482
314.537
314.594
314.672
377.755
377.853
377.847
377.805
377.919
378.1
377.934
376.993
375.296
373.705
372.522
371.684
371.078
370.636
370.255
369.79
369.38
369.025
368.717
368.46
368.275
368.119
368.001
367.93
367.908
367.945
368.048
368.215
368.449
368.745
369.097
369.505
369.955
370.451
370.967
371.499
372.034
372.567
373.083
373.561
374.006
374.402
374.728
374.98
375.14
375.213
375.175
375.051
374.805
374.476
374.023
373.482
372.813
372.061
371.224
370.299
369.271
368.182
367.019
365.809
364.545
363.257
361.936
360.592
359.221
357.823
356.43
355.025
353.629
352.259
350.89
349.561
348.24
346.937
345.654
344.379
343.149
341.936
340.75
339.603
338.505
337.427
336.374
335.349
334.364
333.415
332.493
331.611
330.757
329.929
329.121
328.346
327.594
326.861
326.138
325.427
324.721
324.053
323.421
322.827
322.264
321.712
321.165
320.633
320.116
319.62
319.143
318.688
318.246
317.822
317.417
317.03
316.668
316.321
315.995
315.683
315.361
315.032
314.686
314.317
313.852
313.702
313.471
313.182
313.015
312.838
312.653
312.463
312.273
312.079
311.883
311.688
311.493
311.298
311.104
310.908
310.719
310.543
310.376
310.216
310.062
309.917
309.78
309.652
309.529
309.42
309.318
309.224
309.129
309.038
308.945
308.859
308.777
308.698
308.618
308.536
308.449
308.358
308.261
308.162
308.06
307.952
307.878
307.803
307.726
307.673
307.618
307.588
307.556
307.535
307.513
307.49
307.466
307.438
307.405
307.37
307.329
307.287
307.238
307.19
307.148
307.119
307.085
307.076
307.071
307.073
307.079
307.091
307.104
307.118
307.128
307.129
307.131
307.123
307.115
307.1
307.091
307.085
307.087
307.094
307.105
307.123
307.15
307.183
307.218
307.254
307.287
307.321
307.36
307.368
307.38
307.396
307.407
307.422
307.44
307.464
307.493
307.528
307.568
307.611
307.66
307.71
307.761
307.812
307.848
307.886
307.926
307.953
307.984
308.016
308.051
308.089
308.131
308.177
308.227
308.281
308.339
308.397
308.456
308.538
377.719
377.821
377.933
377.926
378.039
377.864
377.011
375.333
373.734
372.628
371.891
371.412
371.103
370.814
370.563
370.257
369.989
369.752
369.544
369.369
369.256
369.163
369.101
369.08
369.108
369.193
369.334
369.535
369.792
370.106
370.465
370.871
371.306
371.776
372.255
372.732
373.191
373.63
374.034
374.376
374.661
374.879
375.005
375.037
374.948
374.76
374.431
374
373.418
372.738
371.922
371.007
369.952
368.811
367.59
366.286
364.878
363.436
361.917
360.379
358.8
357.225
355.641
354.055
352.467
350.861
349.295
347.731
346.207
344.729
343.266
341.873
340.492
339.151
337.839
336.549
335.321
334.118
332.949
331.832
330.776
329.739
328.736
327.769
326.848
325.962
325.106
324.289
323.502
322.739
321.998
321.287
320.604
319.94
319.288
318.647
318.011
317.416
316.851
316.319
315.816
315.323
314.835
314.363
313.904
313.464
313.041
312.637
312.243
311.869
311.509
311.166
310.846
310.538
310.251
309.971
309.684
309.391
309.078
308.75
308.346
308.205
308.002
307.77
307.594
307.44
307.277
307.107
306.937
306.764
306.588
306.413
306.237
306.062
305.887
305.709
305.54
305.381
305.229
305.084
304.944
304.813
304.689
304.572
304.46
304.361
304.269
304.183
304.097
304.014
303.93
303.853
303.779
303.707
303.635
303.56
303.481
303.397
303.309
303.218
303.124
303.025
302.956
302.888
302.818
302.77
302.718
302.69
302.661
302.641
302.621
302.6
302.578
302.553
302.522
302.489
302.451
302.412
302.366
302.321
302.282
302.255
302.224
302.215
302.211
302.213
302.219
302.231
302.244
302.258
302.267
302.269
302.273
302.265
302.259
302.246
302.239
302.235
302.238
302.245
302.258
302.276
302.303
302.337
302.371
302.407
302.441
302.475
302.513
302.524
302.538
302.556
302.569
302.587
302.607
302.633
302.664
302.7
302.741
302.785
302.835
302.886
302.939
302.991
303.03
303.07
303.112
303.142
303.175
303.211
303.248
303.289
303.334
303.382
303.435
303.491
303.551
303.612
303.674
303.759
377.702
377.859
378.017
377.982
377.86
377.149
375.611
373.994
372.872
372.175
371.748
371.492
371.3
371.125
370.977
370.789
370.623
370.469
370.334
370.222
370.163
370.121
370.106
370.131
370.2
370.321
370.491
370.715
370.987
371.307
371.663
372.052
372.456
372.878
373.294
373.688
374.036
374.342
374.588
374.747
374.813
374.779
374.629
374.358
373.933
373.382
372.654
371.794
370.75
369.585
368.277
366.855
365.287
363.638
361.899
360.138
358.253
356.373
354.435
352.493
350.576
348.668
346.828
345
343.219
341.414
339.714
338.029
336.425
334.892
333.392
332.004
330.629
329.327
328.061
326.836
325.692
324.581
323.513
322.51
321.583
320.667
319.793
318.95
318.159
317.396
316.666
315.971
315.307
314.661
314.039
313.444
312.879
312.328
311.792
311.262
310.735
310.248
309.781
309.346
308.935
308.533
308.138
307.756
307.384
307.029
306.685
306.358
306.039
305.739
305.449
305.175
304.918
304.672
304.443
304.216
303.983
303.748
303.49
303.225
302.904
302.779
302.626
302.463
302.304
302.188
302.061
301.927
301.793
301.655
301.516
301.375
301.233
301.09
300.948
300.802
300.667
300.537
300.412
300.294
300.181
300.075
299.974
299.881
299.791
299.713
299.64
299.572
299.505
299.44
299.374
299.315
299.257
299.201
299.144
299.084
299.021
298.952
298.881
298.806
298.728
298.646
298.588
298.534
298.479
298.441
298.4
298.382
298.362
298.35
298.338
298.325
298.31
298.293
298.27
298.245
298.215
298.184
298.148
298.111
298.08
298.059
298.037
298.033
298.034
298.04
298.051
298.067
298.084
298.101
298.115
298.121
298.131
298.125
298.126
298.117
298.115
298.116
298.123
298.134
298.15
298.172
298.202
298.238
298.275
298.314
298.349
298.387
298.425
298.442
298.46
298.48
298.498
298.519
298.544
298.573
298.606
298.645
298.689
298.736
298.788
298.841
298.896
298.95
298.993
299.036
299.08
299.114
299.151
299.19
299.231
299.276
299.324
299.375
299.431
299.49
299.553
299.616
299.681
299.771
377.717
377.889
378.032
377.82
377.324
376.04
374.392
373.203
372.474
372.059
371.822
371.674
371.582
371.496
371.417
371.313
371.218
371.128
371.053
370.995
370.982
370.984
371.01
371.074
371.177
371.325
371.516
371.753
372.027
372.339
372.674
373.024
373.371
373.713
374.028
374.296
374.485
374.596
374.609
374.494
374.247
373.85
373.295
372.584
371.661
370.563
369.244
367.746
366.031
364.16
362.148
360.039
357.768
355.465
353.01
350.779
348.345
345.897
343.537
341.109
338.876
336.586
334.547
332.481
330.563
328.59
326.812
325.066
323.458
321.962
320.524
319.251
317.989
316.843
315.732
314.687
313.738
312.832
311.974
311.196
310.502
309.814
309.16
308.533
307.957
307.4
306.878
306.383
305.917
305.464
305.032
304.617
304.224
303.839
303.469
303.094
302.721
302.382
302.054
301.754
301.47
301.192
300.919
300.657
300.398
300.152
299.913
299.688
299.467
299.264
299.065
298.882
298.708
298.543
298.389
298.234
298.073
297.917
297.732
297.546
297.328
297.224
297.146
297.055
296.945
296.871
296.793
296.707
296.622
296.532
296.443
296.348
296.252
296.154
296.057
295.955
295.864
295.774
295.687
295.607
295.53
295.46
295.392
295.332
295.273
295.225
295.18
295.139
295.099
295.06
295.02
294.987
294.954
294.92
294.886
294.849
294.808
294.76
294.714
294.661
294.607
294.548
294.508
294.475
294.44
294.419
294.396
294.391
294.386
294.387
294.389
294.388
294.388
294.384
294.373
294.363
294.344
294.329
294.305
294.282
294.264
294.255
294.245
294.249
294.259
294.275
294.294
294.318
294.342
294.367
294.388
294.402
294.422
294.423
294.432
294.432
294.438
294.447
294.461
294.479
294.502
294.53
294.565
294.606
294.649
294.692
294.732
294.775
294.816
294.842
294.865
294.89
294.914
294.941
294.971
295.005
295.044
295.087
295.135
295.186
295.242
295.299
295.358
295.415
295.462
295.509
295.558
295.597
295.639
295.682
295.728
295.777
295.829
295.884
295.944
296.007
296.072
296.139
296.207
296.303
377.752
377.834
377.889
377.431
376.469
374.913
373.626
372.806
372.345
372.111
371.982
371.916
371.893
371.868
371.844
371.8
371.758
371.722
371.696
371.684
371.708
371.749
371.809
371.903
372.029
372.194
372.393
372.628
372.887
373.17
373.456
373.737
373.987
374.203
374.359
374.435
374.374
374.194
373.845
373.302
372.558
371.582
370.405
369.014
367.355
365.444
363.282
360.909
358.293
355.519
352.565
349.69
346.595
343.577
340.301
337.65
334.697
331.592
328.904
326.009
323.535
320.91
318.764
316.523
314.562
312.523
310.748
309.033
307.516
306.134
304.85
303.765
302.703
301.802
300.927
300.159
299.478
298.868
298.295
297.834
297.423
297.052
296.676
296.381
296.086
295.844
295.596
295.4
295.193
295.023
294.843
294.692
294.524
294.376
294.22
294.06
293.89
293.758
293.614
293.488
293.365
293.244
293.12
293.008
292.888
292.779
292.671
292.572
292.47
292.385
292.296
292.222
292.148
292.082
292.021
291.955
291.879
291.816
291.718
291.633
291.527
291.469
291.47
291.453
291.417
291.395
291.375
291.347
291.322
291.291
291.262
291.224
291.185
291.142
291.1
291.052
291.015
290.974
290.934
290.901
290.869
290.842
290.816
290.797
290.778
290.766
290.757
290.751
290.744
290.739
290.731
290.732
290.729
290.726
290.72
290.711
290.7
290.677
290.666
290.638
290.615
290.587
290.57
290.561
290.552
290.553
290.554
290.567
290.582
290.601
290.62
290.639
290.656
290.67
290.676
290.688
290.682
290.688
290.68
290.675
290.676
290.682
290.688
290.705
290.728
290.756
290.788
290.823
290.858
290.893
290.926
290.952
290.983
290.996
291.016
291.028
291.045
291.064
291.089
291.117
291.149
291.186
291.229
291.278
291.328
291.378
291.425
291.475
291.521
291.56
291.589
291.621
291.654
291.689
291.726
291.767
291.813
291.862
291.916
291.973
292.034
292.096
292.16
292.222
292.277
292.328
292.382
292.428
292.476
292.525
292.576
292.631
292.688
292.749
292.813
292.88
292.951
293.022
293.094
293.196
377.781
377.674
377.592
376.831
375.516
374.15
373.2
372.646
372.376
372.239
372.186
372.178
372.204
372.222
372.235
372.238
372.24
372.245
372.259
372.285
372.338
372.408
372.493
372.606
372.744
372.912
373.102
373.314
373.533
373.754
373.953
374.12
374.214
374.233
374.124
373.883
373.414
372.752
371.803
370.578
369.069
367.232
365.212
362.869
360.215
357.241
353.997
350.633
346.985
343.26
339.227
335.695
331.831
328.23
324.214
321.212
317.894
314.246
311.328
308.093
305.565
302.784
300.679
298.443
296.573
294.658
293.005
291.482
290.168
289.013
288.011
287.15
286.404
285.741
285.165
284.682
284.261
283.984
283.63
283.524
283.332
283.314
283.143
283.231
283.147
283.281
283.254
283.417
283.429
283.591
283.647
283.812
283.873
284.029
284.085
284.213
284.285
284.412
284.48
284.575
284.635
284.705
284.757
284.828
284.877
284.932
284.974
285.021
285.059
285.109
285.147
285.198
285.243
285.289
285.343
285.368
285.393
285.427
285.436
285.476
285.472
285.501
285.567
285.639
285.681
285.727
285.767
285.812
285.85
285.893
285.929
285.961
285.983
286.004
286.026
286.04
286.065
286.08
286.096
286.116
286.136
286.159
286.183
286.21
286.238
286.27
286.302
286.336
286.368
286.405
286.436
286.475
286.506
286.541
286.568
286.594
286.614
286.626
286.653
286.656
286.671
286.675
286.688
286.709
286.731
286.758
286.786
286.822
286.861
286.903
286.945
286.986
287.024
287.061
287.088
287.123
287.138
287.164
287.18
287.198
287.218
287.244
287.27
287.303
287.342
287.387
287.434
287.483
287.533
287.582
287.629
287.669
287.715
287.743
287.776
287.804
287.835
287.868
287.906
287.946
287.991
288.038
288.092
288.151
288.21
288.271
288.327
288.385
288.439
288.492
288.531
288.572
288.615
288.659
288.706
288.756
288.81
288.868
288.929
288.994
289.062
289.13
289.201
289.269
289.333
289.39
289.45
289.505
289.56
289.616
289.674
289.735
289.799
289.866
289.936
290.009
290.085
290.161
290.239
290.349
377.799
377.469
377.175
376.13
374.777
373.691
373.004
372.65
372.472
372.407
372.402
372.44
372.495
372.543
372.586
372.623
372.659
372.697
372.741
372.794
372.868
372.956
373.054
373.172
373.306
373.457
373.615
373.776
373.917
374.033
374.085
374.061
373.888
373.57
373.01
372.229
371.11
369.69
367.844
365.64
363.115
360.167
357.166
353.63
349.769
345.697
341.243
337.001
332.346
327.837
322.773
318.83
314.323
310.414
306.069
302.68
299.372
295.655
292.765
289.572
287.212
284.629
282.701
280.781
279.121
277.584
276.166
275.043
273.999
273.215
272.518
271.915
271.551
271.029
270.829
270.517
270.36
270.359
270.124
270.344
270.234
270.494
270.474
270.789
270.845
271.197
271.329
271.688
271.874
272.224
272.473
272.821
273.079
273.419
273.675
274.006
274.303
274.636
274.912
275.208
275.464
275.727
275.972
276.233
276.469
276.702
276.913
277.12
277.313
277.513
277.694
277.879
278.051
278.221
278.388
278.522
278.658
278.791
278.924
279.077
279.198
279.318
279.466
279.626
279.75
279.87
279.985
280.103
280.215
280.333
280.441
280.548
280.64
280.732
280.822
280.907
280.998
281.074
281.152
281.231
281.309
281.387
281.466
281.546
281.625
281.706
281.784
281.863
281.94
282.02
282.097
282.178
282.25
282.323
282.389
282.454
282.513
282.565
282.628
282.673
282.725
282.768
282.816
282.87
282.926
282.984
283.042
283.106
283.173
283.241
283.308
283.375
283.439
283.5
283.553
283.613
283.655
283.704
283.746
283.79
283.834
283.883
283.931
283.984
284.043
284.107
284.173
284.239
284.305
284.371
284.434
284.492
284.554
284.6
284.65
284.695
284.744
284.793
284.846
284.902
284.961
285.022
285.088
285.159
285.231
285.303
285.37
285.439
285.503
285.572
285.621
285.674
285.729
285.785
285.843
285.904
285.968
286.036
286.107
286.18
286.256
286.333
286.411
286.488
286.562
286.627
286.694
286.76
286.823
286.887
286.953
287.022
287.094
287.168
287.245
287.325
287.407
287.49
287.574
287.693
377.767
377.231
376.701
375.473
374.298
373.452
372.968
372.712
372.608
372.586
372.619
372.685
372.759
372.829
372.893
372.954
373.013
373.074
373.138
373.209
373.292
373.385
373.482
373.589
373.698
373.808
373.9
373.969
373.977
373.913
373.703
373.341
372.706
371.828
370.558
368.951
366.909
364.437
361.426
357.97
354.391
350.231
346.027
341.299
336.179
331.221
325.58
320.749
315.211
310.307
304.639
300.556
295.823
292.032
287.923
284.274
281.338
278.055
275.32
272.708
270.524
268.639
266.914
265.572
264.159
263.27
262.107
261.572
260.716
260.438
259.916
259.653
259.582
259.154
259.329
259.021
259.188
259.205
259.208
259.55
259.442
259.847
259.894
260.313
260.414
260.847
261.038
261.46
261.715
262.134
262.443
262.87
263.188
263.613
263.963
264.39
264.797
265.238
265.634
266.048
266.427
266.82
267.204
267.606
267.987
268.367
268.726
269.081
269.421
269.764
270.082
270.4
270.697
270.989
271.261
271.506
271.752
271.995
272.25
272.517
272.763
272.98
273.212
273.458
273.67
273.867
274.059
274.256
274.446
274.641
274.825
275.011
275.174
275.343
275.504
275.663
275.825
275.967
276.111
276.252
276.391
276.53
276.666
276.802
276.936
277.069
277.196
277.325
277.45
277.578
277.702
277.83
277.945
278.062
278.169
278.276
278.376
278.473
278.576
278.665
278.759
278.844
278.931
279.022
279.113
279.207
279.298
279.393
279.489
279.586
279.682
279.777
279.868
279.957
280.04
280.126
280.198
280.274
280.346
280.418
280.489
280.563
280.636
280.712
280.793
280.878
280.965
281.051
281.136
281.22
281.302
281.38
281.461
281.527
281.596
281.662
281.729
281.798
281.868
281.941
282.016
282.093
282.174
282.259
282.344
282.43
282.51
282.592
282.669
282.753
282.816
282.883
282.951
283.021
283.092
283.165
283.241
283.32
283.402
283.486
283.572
283.658
283.745
283.831
283.917
283.991
284.067
284.145
284.217
284.291
284.367
284.445
284.525
284.608
284.693
284.781
284.871
284.961
285.052
285.181
377.707
376.987
376.222
375.022
374.029
373.369
372.985
372.813
372.757
372.766
372.825
372.908
372.993
373.075
373.153
373.228
373.302
373.375
373.449
373.526
373.608
373.692
373.77
373.844
373.9
373.933
373.911
373.822
373.587
373.201
372.535
371.608
370.264
368.55
366.3
363.576
360.371
356.652
352.37
347.516
343.035
337.671
331.979
326.451
320.207
314.66
308.169
303.11
297.175
292.424
286.794
282.842
278.222
274.827
271.22
267.984
265.237
262.971
260.43
258.756
256.836
255.802
254.291
253.77
252.443
252.457
251.42
251.622
250.843
251.163
250.638
250.921
250.772
250.869
251.049
250.893
251.318
251.121
251.525
251.86
251.731
252.214
252.217
252.652
252.716
253.162
253.296
253.711
253.899
254.31
254.538
254.947
255.207
255.615
255.92
256.335
256.719
257.15
257.544
257.963
258.353
258.771
259.188
259.63
260.063
260.502
260.93
261.362
261.787
262.212
262.623
263.034
263.428
263.811
264.171
264.509
264.847
265.194
265.554
265.927
266.282
266.599
266.905
267.228
267.524
267.796
268.065
268.339
268.604
268.876
269.133
269.398
269.635
269.88
270.113
270.346
270.58
270.79
271
271.206
271.408
271.607
271.803
271.997
272.187
272.374
272.553
272.733
272.908
273.086
273.26
273.436
273.596
273.759
273.91
274.06
274.206
274.348
274.494
274.628
274.767
274.897
275.025
275.155
275.285
275.416
275.542
275.67
275.797
275.926
276.052
276.178
276.299
276.418
276.531
276.647
276.75
276.856
276.959
277.063
277.162
277.264
277.364
277.466
277.571
277.679
277.789
277.896
278.001
278.106
278.209
278.308
278.41
278.498
278.588
278.677
278.765
278.854
278.945
279.036
279.13
279.224
279.322
279.421
279.522
279.622
279.717
279.814
279.907
280.005
280.085
280.167
280.251
280.335
280.421
280.508
280.597
280.689
280.783
280.879
280.976
281.073
281.171
281.267
281.366
281.45
281.537
281.627
281.71
281.794
281.881
281.969
282.059
282.152
282.246
282.343
282.441
282.539
282.639
282.78
377.564
376.734
375.791
374.687
373.849
373.33
373.047
372.93
372.908
372.938
373.012
373.103
373.194
373.282
373.366
373.446
373.525
373.601
373.675
373.746
373.812
373.869
373.906
373.919
373.881
373.784
373.552
373.175
372.518
371.593
370.227
368.469
366.164
363.346
359.89
355.824
351.296
346.444
340.97
334.747
329.319
322.97
315.827
309.935
302.965
297.351
290.664
285.751
279.852
275.624
270.438
266.899
262.748
259.885
256.823
254.494
252.051
250.858
248.558
248.027
246.387
246.283
244.97
245.299
244.217
244.914
244.116
244.863
244.283
245.046
244.631
245.374
245.066
245.811
245.714
246.149
246.588
246.43
246.987
247.185
247.219
247.772
247.685
248.175
248.183
248.637
248.671
249.064
249.134
249.497
249.581
249.925
250.026
250.353
250.52
250.838
251.076
251.4
251.655
251.969
252.234
252.556
252.877
253.235
253.587
253.962
254.344
254.737
255.137
255.543
255.954
256.368
256.778
257.175
257.563
257.936
258.316
258.719
259.139
259.574
260.004
260.398
260.756
261.127
261.485
261.82
262.151
262.488
262.816
263.153
263.476
263.808
264.113
264.428
264.727
265.029
265.329
265.603
265.878
266.145
266.408
266.665
266.92
267.17
267.416
267.655
267.886
268.116
268.342
268.57
268.794
269.019
269.225
269.434
269.629
269.823
270.014
270.202
270.393
270.573
270.757
270.936
271.105
271.275
271.445
271.615
271.778
271.94
272.1
272.26
272.419
272.576
272.728
272.879
273.023
273.171
273.307
273.445
273.58
273.717
273.847
273.977
274.106
274.235
274.365
274.499
274.632
274.762
274.89
275.016
275.142
275.264
275.388
275.499
275.612
275.726
275.836
275.947
276.059
276.17
276.284
276.398
276.513
276.629
276.746
276.862
276.973
277.085
277.195
277.31
277.408
277.507
277.607
277.708
277.81
277.912
278.015
278.121
278.228
278.337
278.446
278.556
278.664
278.773
278.884
278.981
279.08
279.182
279.278
279.374
279.472
279.572
279.673
279.776
279.881
279.987
280.095
280.202
280.31
280.465
377.382
376.457
375.434
374.457
373.764
373.342
373.129
373.054
373.051
373.096
373.178
373.27
373.361
373.448
373.53
373.609
373.683
373.753
373.815
373.867
373.901
373.909
373.873
373.783
373.575
373.237
372.635
371.77
370.459
368.743
366.436
363.589
360.109
356.003
351.269
345.833
339.899
334.161
327.695
320.422
313.626
306.839
299.003
293.051
285.877
280.544
274.138
269.68
264.223
260.643
256.04
253.25
249.73
247.694
245.119
243.874
241.951
241.395
239.685
240.14
238.922
239.517
238.529
239.479
238.704
239.856
239.299
240.502
240.148
241.312
241.009
242.103
241.863
242.917
242.731
243.575
243.856
244.083
244.724
244.568
245.094
245.645
245.507
246.069
246.067
246.536
246.516
246.926
246.936
247.287
247.279
247.591
247.583
247.869
247.917
248.172
248.259
248.491
248.579
248.78
248.884
249.07
249.219
249.427
249.6
249.819
250.041
250.282
250.534
250.799
251.081
251.371
251.665
251.966
252.262
252.554
252.878
253.237
253.624
254.032
254.455
254.845
255.21
255.572
255.938
256.294
256.646
257.005
257.36
257.727
258.085
258.455
258.805
259.164
259.51
259.86
260.209
260.533
260.859
261.175
261.488
261.795
262.101
262.4
262.694
262.98
263.259
263.535
263.808
264.082
264.352
264.623
264.872
265.125
265.361
265.599
265.834
266.066
266.3
266.526
266.755
266.98
267.191
267.402
267.611
267.818
268.018
268.216
268.408
268.601
268.791
268.981
269.164
269.347
269.524
269.703
269.872
270.043
270.212
270.382
270.544
270.704
270.863
271.019
271.176
271.335
271.492
271.646
271.797
271.946
272.095
272.241
272.388
272.524
272.661
272.8
272.935
273.069
273.202
273.335
273.47
273.603
273.737
273.871
274.005
274.139
274.267
274.396
274.523
274.655
274.773
274.89
275.007
275.126
275.244
275.362
275.481
275.602
275.723
275.847
275.969
276.091
276.212
276.334
276.458
276.568
276.68
276.796
276.904
277.014
277.125
277.236
277.349
277.464
277.579
277.696
277.814
277.931
278.049
278.218
377.219
376.182
375.166
374.299
373.715
373.375
373.218
373.174
373.184
373.237
373.321
373.409
373.494
373.575
373.649
373.719
373.78
373.833
373.87
373.886
373.866
373.793
373.629
373.35
372.837
372.082
370.895
369.301
367.105
364.362
360.915
356.775
351.992
346.641
340.658
334.043
326.66
320.219
312.893
305.247
296.824
290.298
282.437
276.602
269.686
264.907
259.231
255.391
250.747
247.809
244.018
242.136
239.259
238.138
235.988
235.682
234.387
233.519
233.886
234.054
233.856
234.922
234.214
235.677
235.154
236.703
236.36
237.962
237.688
239.176
238.917
240.247
240.058
241.292
241.149
242.253
242.137
242.917
243.614
243.436
244.115
244.605
244.522
245.155
245.137
245.656
245.633
246.109
246.098
246.488
246.445
246.778
246.734
247.03
247.028
247.279
247.297
247.514
247.516
247.687
247.707
247.839
247.885
248.012
248.059
248.182
248.277
248.394
248.51
248.634
248.765
248.902
249.029
249.17
249.281
249.405
249.574
249.78
250.016
250.276
250.559
250.839
251.086
251.347
251.62
251.901
252.187
252.491
252.793
253.123
253.444
253.788
254.124
254.474
254.819
255.17
255.522
255.861
256.2
256.534
256.868
257.198
257.53
257.855
258.178
258.493
258.805
259.112
259.42
259.727
260.032
260.337
260.621
260.91
261.18
261.455
261.728
261.999
262.272
262.538
262.806
263.073
263.325
263.573
263.818
264.059
264.295
264.525
264.748
264.973
265.193
265.413
265.626
265.84
266.049
266.26
266.462
266.665
266.867
267.07
267.263
267.453
267.642
267.826
268.009
268.193
268.374
268.552
268.727
268.899
269.072
269.241
269.412
269.573
269.736
269.9
270.059
270.217
270.373
270.528
270.684
270.838
270.991
271.143
271.294
271.446
271.593
271.739
271.885
272.033
272.173
272.308
272.444
272.58
272.716
272.852
272.987
273.123
273.259
273.398
273.533
273.669
273.802
273.938
274.076
274.2
274.327
274.456
274.579
274.702
274.826
274.951
275.076
275.203
275.33
275.458
275.586
275.714
275.842
276.027
377.044
375.939
374.957
374.188
373.698
373.424
373.308
373.282
373.303
373.361
373.441
373.522
373.596
373.665
373.726
373.778
373.818
373.841
373.838
373.796
373.685
373.469
373.071
372.457
371.449
370.055
368.06
365.513
362.24
358.293
353.586
348.088
341.925
335.562
328.368
320.863
312.176
305.085
296.785
289.167
280.329
274
266.625
261.241
255.299
251.133
246.565
243.268
239.654
237.069
234.455
233.146
231.091
230.796
229.372
230.017
229.116
229.657
230.124
229.802
231.077
231.761
231.281
233.08
232.621
234.545
234.23
236.148
235.897
237.651
237.42
239.041
238.891
240.301
240.176
241.461
241.388
242.399
242.853
242.958
243.772
244.01
244.21
244.907
244.846
245.433
245.419
245.936