/*--------------------------------*- C++ -*----------------------------------*\
| =========                 |                                                 |
| \\      /  F ield         | OpenFOAM: The Open Source CFD Toolbox           |
|  \\    /   O peration     | Version:  2312                                  |
|   \\  /    A nd           | Website:  www.openfoam.com                      |
|    \\/     M anipulation  |                                                 |
\*---------------------------------------------------------------------------*/
FoamFile
{
    version     2.0;
    format      ascii;
    arch        "LSB;label=32;scalar=64";
    class       volScalarField;
    location    "0.005";
    object      k;
}
// * * * * * * * * * * * * * * * * * * * * * * * * * * * * * * * * * * * * * //

dimensions      [0 2 -2 0 0 0 0];

internalField   nonuniform List<scalar> 
48128
(
7.21502
9.35015
12.5636
12.8006
11.8321
10.3056
8.55543
6.88281
5.32375
3.71273
8.53038
54.1007
180.966
338.772
479.544
601.349
707.118
800.965
886.589
966.345
1042.05
1115.15
1186.26
1255.59
1323.52
1390.25
1456.07
1521.36
1586.63
1652.74
1718.7
1784.51
1850.91
1917.59
1984.59
2053.84
2126.29
2202.36
2276.76
2353.09
2428.19
2499.33
2569.63
2641.49
2713.2
2780.33
2839.81
2899.24
2949.08
2990.25
3011.73
3040.73
3054.18
3070.17
3058.95
3099.52
3160.2
3208.81
3251.26
3279.62
3300.14
3309.87
3311.14
3307.97
3300.96
3291.37
3277.76
3260.55
3238.7
3209.54
3177.6
3142.32
3108.28
3073.06
3037.65
3002.51
2965.93
2930.26
2893.75
2857.64
2820.42
2785.4
2749.9
2716.94
2683.39
2652.04
2620.3
2590.62
2560.63
2532.81
2505.11
2479.2
2453.82
2430.02
2407.12
2385.63
2365.14
2345.89
2327.73
2310.28
2293.49
2277.43
2262.17
2247.58
2234.05
2221.17
2209.25
2197.75
2187.05
2176.79
2167.26
2158.15
2149.64
2141.37
2133.58
2125.93
2118.68
2111.18
2104.38
2096.19
2094.65
2091.25
2085.39
2081.67
2077.2
2072.17
2067
2062.17
2057.31
2052.82
2048.5
2044.7
2041.17
2037.96
2034.96
2032.17
2029.85
2027.7
2025.64
2023.57
2021.62
2019.68
2017.77
2015.83
2014.03
2012.07
2009.91
2007.51
2004.91
2002.18
1999.37
1996.59
1993.78
1990.99
1988.18
1985.41
1982.71
1979.98
1977.49
1975.44
1973.32
1972.01
1970.65
1969.19
1967.72
1966.14
1964.44
1962.53
1960.4
1958.07
1955.59
1952.99
1950.47
1947.88
1945.57
1943.31
1941.41
1939.74
1938.23
1937.07
1936.05
1934.99
1933.92
1932.74
1931.34
1929.74
1927.96
1926.01
1923.91
1921.72
1919.41
1917.42
1915.35
1913.73
1912.25
1911.11
1910.13
1909.18
1908.21
1907.17
1906.01
1904.71
1903.23
1901.54
1899.7
1897.74
1895.71
1893.83
1891.69
1889.96
1888.76
1887.55
1886.54
1885.62
1884.66
1883.65
1882.54
1881.27
1879.85
1878.28
1876.56
1874.77
1872.91
1870.91
1869.15
1867.66
1866.1
1864.87
1863.8
1862.73
1861.63
1860.48
1859.27
1857.95
1856.49
1854.92
1853.24
1851.5
1849.7
1847.11
19.5607
9.82273
5.486
3.82881
2.9716
2.53382
2.7789
5.11877
13.3087
32.7714
82.3192
180.93
332.959
515.092
691.991
866.583
1037.42
1205.04
1371.99
1540.06
1712.87
1891.16
2079
2274.3
2480.49
2696.07
2922.95
3161.24
3404.88
3664.8
3933.73
4207.94
4491.73
4780.28
5069.68
5362.36
5653.2
5952.29
6246.82
6541.45
6833.56
7112.34
7378.44
7632.21
7865.19
8085.21
8284.64
8483.09
8663.47
8831.03
8946.64
9067.43
9154.34
9237.67
9259.03
9274.65
9279.23
9256.18
9209.82
9137.09
9043.76
8930.35
8801.03
8660.48
8512.34
8359.77
8200.92
8037.16
7868.3
7696.59
7526.44
7351.86
7180.82
7007.6
6837.11
6668.33
6500.33
6334.89
6172.45
6013.7
5856.47
5705.09
5557.52
5415.8
5276.76
5142.93
5012.35
4887.18
4765.52
4649.2
4536.85
4429.23
4325.98
4226.87
4131.86
4039.88
3951.36
3866.26
3785.22
3707.96
3634.84
3565.09
3498.39
3433.97
3372.76
3313.81
3258.13
3204.55
3154.09
3105.52
3059.82
3016.06
2975.12
2935.9
2899.4
2864.13
2831.05
2797.52
2765.31
2732.63
2700.12
2674.79
2648.54
2621.16
2598.97
2578.21
2558.31
2539.83
2521.63
2503.9
2486.12
2468.93
2451.89
2435.43
2418.98
2403.15
2387.52
2372.89
2358.73
2345.55
2332.77
2320.86
2309.45
2298.73
2288.71
2278.97
2269.3
2260.03
2250.84
2242.06
2233.33
2225.08
2217.02
2209.46
2201.96
2194.7
2187.42
2180.03
2172.67
2165.27
2158.04
2150.73
2144.5
2138.16
2132.68
2127.19
2122.56
2118.16
2114.22
2110.65
2107.2
2103.97
2100.71
2097.46
2094
2090.36
2086.53
2082.56
2078.44
2074.19
2070.35
2066.49
2063.11
2060.1
2057.42
2054.96
2052.8
2050.88
2049.18
2047.47
2045.62
2043.58
2041.39
2038.93
2036.28
2033.47
2030.63
2027.86
2025.2
2022.81
2020.65
2018.74
2017.19
2015.88
2014.72
2013.58
2012.38
2011.09
2009.57
2007.69
2005.71
2003.58
2001.36
1999.1
1996.94
1994.86
1993.13
1991.51
1990.17
1988.91
1987.95
1986.97
1986.05
1984.94
1983.58
1982.09
1980.43
1978.63
1976.77
1974.89
1973.02
1971.25
1969.64
1968.24
1966.94
1965.85
1964.82
1963.92
1962.95
1961.32
26.126
13.7585
8.53871
5.17934
3.5934
4.36029
10.8563
31.7616
75.2771
150.194
277.561
479.05
744.773
1066.34
1385.24
1693.06
1984.9
2263.5
2532.99
2798.19
3063.66
3331.03
3608.07
3892.2
4187.68
4493.66
4811.88
5143.31
5483.45
5835.54
6197.12
6566.85
6946.24
7332.75
7720.68
8113.96
8510.45
8914.81
9311.56
9701.86
10090.3
10462.6
10811.6
11141.1
11438
11715
11956.9
12191.2
12398.2
12591.1
12714.5
12826.6
12898.5
12952.4
12940.3
12903.2
12842.3
12745.7
12620.2
12464.4
12284.6
12081.8
11860.8
11626.2
11382.6
11134.3
10880
10622.4
10360.7
10093.4
9828.02
9558.4
9296.34
9033.41
8778.17
8526.22
8280.34
8038.21
7803.84
7575.51
7352.44
7137.18
6928.72
6728.14
6532.68
6344.46
6162.04
5987.24
5818.11
5656.5
5500.65
5351.69
5208.55
5071.36
4939.46
4811.78
4689
4570.75
4457.86
4349.95
4247.36
4149.22
4055.13
3964.21
3877.45
3793.76
3714.23
3637.5
3564.78
3494.6
3428.04
3364.1
3303.55
3245.47
3190.68
3137.59
3087.8
3037.58
2989.54
2941.74
2893.53
2853.54
2812.91
2771.09
2734.9
2701.05
2668.37
2637.48
2607.37
2578.28
2549.58
2521.84
2494.59
2468.24
2442.22
2416.99
2392.26
2368.54
2345.57
2323.65
2302.42
2282.14
2262.61
2243.98
2226.11
2209.18
2192.84
2177.25
2162.02
2147.37
2133.02
2119.18
2105.71
2092.83
2080.23
2067.95
2055.87
2043.69
2031.69
2019.68
2007.92
1996.06
1985.27
1974.69
1964.55
1954.9
1945.92
1937.47
1929.62
1922.2
1915.15
1908.36
1901.76
1895.35
1888.88
1882.39
1875.84
1869.26
1862.62
1855.92
1849.5
1843.29
1837.37
1831.87
1826.76
1821.98
1817.49
1813.41
1809.58
1805.99
1802.37
1798.68
1794.96
1791.06
1787.05
1782.95
1778.82
1774.81
1770.88
1767.15
1763.7
1760.44
1757.59
1755.02
1752.68
1750.48
1748.35
1746.18
1744.04
1741.55
1738.96
1736.31
1733.54
1730.72
1727.98
1725.31
1722.92
1720.65
1718.66
1716.77
1715.24
1713.74
1712.4
1711.03
1709.45
1707.78
1706.03
1704.14
1702.18
1700.19
1698.17
1696.27
1694.45
1692.83
1691.29
1690
1688.77
1687.76
1686.72
1685.19
31.0447
18.0572
12.5342
7.73338
8.03581
18.4886
48.3184
108.28
205.031
361.193
603.738
942.813
1344.57
1764.31
2155.58
2520.06
2859.92
3184.79
3500.66
3812.82
4126.36
4444.64
4773.6
5113.2
5466.97
5835.28
6218.36
6616.9
7029.51
7456.7
7896.67
8348.81
8811.44
9287.18
9766.28
10248.5
10732.7
11226.5
11711.4
12178.3
12642
13089.5
13501.3
13886.4
14224.6
14534.9
14796.4
15039.5
15244.9
15428.6
15535
15609.5
15638.1
15631.5
15564.7
15453
15307.6
15123.6
14909
14664
14395.7
14106.3
13800.1
13480.9
13153.6
12823.7
12490.5
12158.6
11826.1
11490.5
11161.3
10830.3
10510
10191.2
9883.64
9580.46
9288.49
9001.06
8725.33
8457.22
8198.04
7947.44
7705.81
7472.77
7247.19
7029.82
6820.6
6619.92
6426.89
6242.14
6064.6
5894.85
5731.87
5575.55
5425.03
5279.12
5139.02
5003.9
4875.05
4751.77
4634.47
4521.98
4413.93
4309.43
4209.53
4113.08
4021.23
3932.53
3848.27
3766.8
3689.32
3614.7
3543.76
3475.63
3410.96
3348.32
3289.35
3230.06
3173.17
3116.94
3059.64
3011.83
2963.66
2914.08
2870.34
2829.19
2789.21
2751.01
2713.83
2677.96
2642.71
2608.62
2575.28
2543
2511.28
2480.47
2450.34
2421.25
2393.11
2366.02
2339.77
2314.49
2290.08
2266.61
2244
2222.41
2201.56
2181.64
2162.2
2143.51
2125.22
2107.56
2090.33
2073.81
2057.62
2041.88
2026.43
2010.98
1995.78
1980.68
1965.9
1951.05
1937.26
1923.82
1910.66
1898.11
1886.2
1874.88
1864.17
1853.93
1844.19
1834.77
1825.62
1816.76
1807.91
1799.2
1790.49
1781.93
1773.28
1764.8
1756.42
1748.5
1740.67
1733.38
1726.44
1719.9
1713.62
1707.83
1702.25
1697.04
1691.82
1686.71
1681.56
1676.36
1671.16
1665.91
1660.72
1655.61
1650.64
1645.91
1641.42
1637.13
1633.2
1629.55
1626.15
1622.92
1619.85
1616.79
1613.85
1610.67
1607.41
1604.17
1600.86
1597.51
1594.25
1591.05
1588.13
1585.3
1582.73
1580.27
1578.14
1576.08
1574.22
1572.4
1570.44
1568.44
1566.41
1564.3
1562.13
1559.96
1557.76
1555.67
1553.64
1551.8
1550.01
1548.47
1546.98
1545.73
1544.47
1542.71
34.9546
25.9499
18.905
13.8818
25.3887
58.6967
124.206
231.515
401.084
664.264
1029.82
1475.65
1918.36
2345.06
2750.71
3137.38
3506.87
3864.71
4216.54
4566.81
4920.83
5282.8
5657.92
6047.77
6455.58
6881.64
7326.69
7791.44
8275.24
8778.1
9296.93
9830.26
10376.1
10939.5
11508.2
12076.4
12641.5
13217.5
13786
14318.9
14841.6
15348
15802.9
16222.4
16578.1
16893.3
17147.1
17365.2
17532.7
17662.2
17714
17709.2
17654.4
17549.7
17388.6
17169.6
16909.3
16612.9
16287.3
15939.9
15572
15193.6
14803.8
14410.4
14012.7
13617.9
13225.8
12839.5
12457.9
12079.1
11709.3
11343.3
10989.7
10640.3
10305.5
9975.87
9662.37
9353.71
9060.29
8775.19
8502.55
8238.19
7985.12
7740.52
7505.96
7279.4
7063.09
6854.92
6656.04
6465.06
6282.36
6107.16
5939.23
5777.95
5622.43
5471.59
5326.92
5187.06
5053.93
4926.29
4804.82
4688.07
4575.79
4467.08
4362.98
4262.39
4166.43
4073.67
3985.4
3899.86
3818.39
3739.66
3664.71
3592.51
3523.84
3457.31
3394.38
3331.4
3270.62
3210.85
3149.27
3097.56
3046.47
2993.9
2946.26
2901.37
2857.76
2815.84
2775.07
2735.73
2697.09
2659.7
2623.13
2587.7
2552.95
2519.18
2486.12
2454.14
2423.21
2393.31
2364.32
2336.28
2309.17
2282.99
2257.71
2233.42
2209.96
2187.47
2165.55
2144.44
2123.77
2103.82
2084.3
2065.58
2047.2
2029.38
2011.83
1994.42
1977.29
1960.33
1943.72
1927.06
1911.43
1896.26
1881.3
1866.99
1853.25
1840.14
1827.64
1815.61
1804.13
1792.97
1782.16
1771.62
1761.2
1750.95
1740.76
1730.82
1720.78
1711.02
1701.31
1692.18
1683.05
1674.51
1666.28
1658.53
1651.03
1644.01
1637.2
1630.79
1624.4
1618.19
1611.92
1605.77
1599.61
1593.47
1587.45
1581.49
1575.73
1570.23
1564.94
1559.87
1555.13
1550.65
1546.44
1542.41
1538.56
1534.76
1531.17
1527.37
1523.5
1519.74
1515.93
1512.11
1508.42
1504.79
1501.42
1498.15
1495.11
1492.19
1489.58
1487.06
1484.73
1482.5
1480.17
1477.81
1475.5
1473.14
1470.73
1468.36
1465.97
1463.69
1461.47
1459.43
1457.44
1455.68
1453.95
1452.48
1451.01
1448.99
38.4142
37.972
30.5317
30.2727
62.9383
126.432
231.315
398.472
658.292
1024.03
1471.87
1920.68
2358.75
2784.87
3198.5
3600.2
3991.47
4376.14
4758.41
5141.62
5531.75
5933.2
6351.35
6788.44
7247.39
7729.48
8235.78
8767.08
9322.18
9900.92
10498.7
11113.8
11741.4
12388.8
13044.2
13694.2
14331.3
14975.2
15616.5
16201.3
16758.3
17295
17757.5
18169.4
18504.3
18782.3
18983.2
19119.6
19190.8
19195.5
19131.8
18985.6
18776.2
18521.8
18237.4
17881.9
17484.2
17067
16622.3
16172.8
15707.9
15251
14787.8
14324.3
13864.5
13412.4
12976.2
12553.6
12142.8
11749.8
11366.2
10998
10643
10296.1
9968.05
9644.73
9343.94
9046.23
8768.11
8496.36
8241.41
7992.06
7755.22
7523.54
7303.98
7090.08
6887.93
6691.64
6505.79
6325.99
6154.99
5990.07
5832.81
5681.2
5534.82
5392.69
5256.36
5123.95
4997.93
4876.57
4760.97
4649.59
4542.43
4438.5
4338.73
4242.14
4149.73
4060.21
3974.8
3891.77
3812.53
3735.67
3662.37
3591.48
3524.01
3458.39
3396.14
3333.95
3273.68
3214.59
3153.32
3101.22
3050.56
2998.9
2950.29
2904.76
2860.75
2818.2
2776.81
2736.83
2697.52
2659.43
2622.09
2585.86
2550.35
2515.81
2481.94
2449.12
2417.34
2386.54
2356.66
2327.67
2299.63
2272.42
2246.14
2220.73
2196.22
2172.59
2149.61
2127.4
2105.68
2084.67
2064.08
2044.34
2024.89
2006.1
1987.5
1969.24
1951.17
1933.35
1915.88
1898.36
1881.77
1865.76
1849.9
1834.72
1820.01
1805.94
1792.47
1779.44
1767
1754.84
1743.07
1731.51
1720.22
1708.99
1697.97
1687.16
1676.31
1665.78
1655.25
1645.35
1635.41
1626.1
1617.11
1608.57
1600.28
1592.44
1584.83
1577.6
1570.45
1563.49
1556.47
1549.64
1542.83
1536.07
1529.46
1522.95
1516.62
1510.57
1504.71
1499.08
1493.77
1488.72
1483.92
1479.31
1474.89
1470.54
1466.46
1462.18
1457.84
1453.66
1449.49
1445.31
1441.28
1437.32
1433.61
1430
1426.62
1423.35
1420.37
1417.5
1414.8
1412.26
1409.62
1406.96
1404.42
1401.83
1399.21
1396.67
1394.11
1391.67
1389.3
1387.1
1384.94
1383.01
1381.11
1379.45
1377.81
1375.56
41.9224
54.2841
52.7433
61.3358
120.756
215.465
366.824
606.56
950.912
1383.32
1825.94
2264.16
2693.91
3116.71
3533.61
3945.16
4352.81
4758.7
5165.92
5577.65
5999.54
6436.72
6894.3
7375.16
7882.7
8419.45
8986.2
9583.46
10209
10862.5
11538.4
12233.7
12939.1
13662.3
14396.2
15120.3
15815.4
16503
17189.6
17804.5
18358.3
18874.6
19279.2
19611.2
19851.4
20011.6
20078.2
20052.4
19965.6
19795.5
19556.7
19212.2
18807.6
18334
17840.6
17275.3
16669.2
16081.9
15482.6
14899.4
14331.4
13785.6
13268
12758
12281
11808
11373.6
10960.7
10567.4
10208.7
9856.18
9537.4
9227.27
8934.07
8660.85
8392.07
8151.57
7909.33
7692.16
7475.07
7279.35
7082.47
6901.93
6719.9
6552.54
6384.07
6228.38
6072.57
5927.82
5784.18
5649.58
5516.44
5389.25
5263.75
5142.87
5023.94
4909.89
4797.6
4690.68
4587.15
4488.44
4392.98
4301.16
4211.69
4125.36
4041.31
3960.46
3881.78
3806.36
3732.74
3662.17
3593.42
3527.49
3463.59
3402.49
3342.75
3285.96
3229.34
3174.43
3120.34
3064.22
3014.99
2968.16
2920.95
2874.88
2831.74
2790.43
2750.14
2711.1
2673.16
2635.91
2599.64
2563.99
2529.37
2495.36
2462.26
2429.7
2398.07
2367.35
2337.5
2308.52
2280.32
2253
2226.41
2200.67
2175.65
2151.55
2128.14
2105.5
2083.42
2061.97
2041.02
2020.58
2000.85
1981.45
1962.7
1944.08
1925.97
1907.88
1890.15
1872.73
1855.18
1838.48
1822.46
1806.5
1791.22
1776.27
1762
1748.28
1734.96
1722.22
1709.72
1697.63
1685.67
1674.12
1662.5
1651.22
1640.05
1628.96
1618.13
1607.3
1597.04
1586.82
1577.18
1567.84
1558.92
1550.25
1541.98
1533.97
1526.28
1518.76
1511.35
1504.03
1496.77
1489.66
1482.56
1475.62
1468.81
1462.18
1455.82
1449.63
1443.66
1438.02
1432.63
1427.48
1422.51
1417.74
1413.05
1408.65
1404.07
1399.45
1394.99
1390.59
1386.2
1381.95
1377.78
1373.86
1370.04
1366.44
1362.95
1359.71
1356.62
1353.67
1350.92
1348.07
1345.2
1342.5
1339.76
1336.99
1334.34
1331.67
1329.13
1326.65
1324.36
1322.09
1320.05
1318.03
1316.25
1314.49
1312.08
47.032
76.6327
86.3024
107.281
193.719
322.954
529.833
838.655
1239.49
1670.46
2100.65
2525.04
2944.4
3361.48
3777.67
4194.59
4613.21
5034.51
5461.26
5896.93
6345.78
6814.31
7306.79
7828.02
8381.75
8971.09
9596.55
10258
10951.4
11677.6
12427.7
13198.7
13975.1
14760.9
15554.9
16336.8
17067.9
17758.7
18428.9
19016.7
19489.2
19895.8
20139.3
20317.3
20383.7
20337.3
20196.7
19908.6
19512.2
19003.5
18445.6
17776.2
17065
16317.5
15580.4
14830.2
14065.9
13315.8
12641.4
11963.1
11375.6
10790.2
10292
9790.66
9361.28
8927.63
8553.74
8201.23
7880.96
7600.95
7327.14
7100.9
6873.91
6677.29
6493.16
6318.44
6169.56
6017.77
5891.42
5761.82
5651.91
5538.6
5439.53
5336.79
5246.42
5152.59
5068.02
4980.69
4901.02
4819.71
4743.7
4665.68
4589.23
4511.07
4435.19
4358.32
4283.72
4208.17
4135.53
4062.28
3992.04
3922.9
3856.08
3789.78
3725.05
3661.3
3599.53
3538.94
3480.31
3422.64
3366.79
3312.21
3259.08
3207.76
3157.71
3108.86
3062.03
3015.74
2970.77
2925.65
2879.35
2836.23
2796.46
2756.79
2717.24
2679.31
2643.62
2608.33
2574.51
2541.12
2508.6
2476.52
2445.03
2414.33
2384.05
2354.56
2325.37
2296.89
2269.13
2242.07
2215.73
2190.02
2165.02
2140.61
2116.93
2093.75
2071.45
2049.61
2028.62
2007.93
1987.94
1968.24
1949.1
1930.43
1912.19
1894.41
1876.87
1859.78
1842.64
1825.92
1809.36
1792.74
1776.76
1761.45
1746.21
1731.52
1717.11
1703.3
1690
1677.05
1664.61
1652.42
1640.59
1628.92
1617.57
1606.25
1595.14
1584.24
1573.41
1562.76
1552.14
1541.99
1531.94
1522.37
1513.1
1504.19
1495.53
1487.22
1479.18
1471.42
1463.88
1456.4
1449.11
1441.75
1434.64
1427.53
1420.55
1413.71
1407.03
1400.61
1394.36
1388.3
1382.55
1377.05
1371.78
1366.68
1361.77
1356.96
1352.44
1347.75
1343.04
1338.49
1334.02
1329.57
1325.25
1321.02
1317.02
1313.12
1309.43
1305.85
1302.5
1299.31
1296.24
1293.4
1290.45
1287.49
1284.73
1281.93
1279.11
1276.41
1273.71
1271.14
1268.64
1266.31
1264.01
1261.92
1259.86
1258.03
1256.21
1253.74
53.1854
106.725
129.684
166.46
279.246
448.411
711.26
1070.85
1476.86
1894.68
2308.51
2717.58
3124.77
3533.47
3945.21
4362.83
4786.83
5218.09
5659.1
6113.44
6584
7078.84
7602.1
8160.46
8757.51
9396.87
10078.5
10801.4
11559.4
12354
13171.7
14008.7
14844
15671.5
16488.2
17284.1
17998.2
18617.7
19175.3
19636.1
19923.9
20119.5
20114
19990.6
19734.9
19315.1
18787.7
18094.1
17315.7
16440.4
15540.8
14598.4
13658.3
12750.4
11856.2
11083.5
10354.8
9610.22
9005.13
8386.62
7889.19
7383.77
6982.21
6574.12
6246.5
5913.79
5641.37
5381.54
5162.44
4967.42
4787.88
4644.62
4500.26
4387.78
4278.44
4184.86
4106.86
4029.14
3971.84
3911.96
3867.28
3820.89
3784.94
3747.34
3717.84
3686.51
3660.63
3633.16
3608.88
3583.6
3559.84
3535.1
3510.82
3485.78
3460.54
3434.49
3407.94
3379.85
3350.77
3320.23
3288.96
3256.87
3223.94
3189.93
3155.06
3119.36
3083.09
3046.41
3009.91
2973.25
2937.01
2901.38
2865.92
2831.4
2796.86
2763.08
2729.91
2698.01
2666.1
2633.83
2600.74
2567.89
2538
2508.12
2478.12
2448.53
2420.82
2393.21
2366.89
2340.54
2314.99
2289.43
2264.33
2239.64
2215.21
2191.3
2167.45
2144.01
2121.01
2098.49
2076.44
2054.81
2033.69
2012.93
1992.74
1972.8
1953.6
1934.68
1916.48
1898.47
1881.06
1863.8
1847
1830.5
1814.43
1798.61
1783.17
1767.89
1752.79
1737.88
1723.1
1708.28
1693.84
1679.95
1666.18
1652.78
1639.65
1626.94
1614.7
1602.75
1591.23
1579.97
1568.97
1558.22
1547.6
1537.2
1526.76
1516.69
1506.59
1496.63
1486.69
1477.15
1467.71
1458.62
1449.81
1441.34
1433.08
1425.1
1417.41
1409.94
1402.73
1395.54
1388.56
1381.52
1374.7
1367.89
1361.18
1354.58
1348.14
1341.92
1335.87
1329.97
1324.35
1318.97
1313.81
1308.8
1303.98
1299.26
1294.82
1290.23
1285.66
1281.18
1276.82
1272.48
1268.26
1264.12
1260.2
1256.37
1252.73
1249.2
1245.87
1242.71
1239.65
1236.84
1233.94
1231.01
1228.29
1225.54
1222.77
1220.13
1217.49
1214.98
1212.54
1210.26
1207.99
1205.95
1203.91
1202.11
1200.31
1197.89
59.9722
141.853
178.254
235.838
376.779
587.159
895.535
1266.75
1664.7
2064.35
2459.78
2852.41
3245.4
3642.59
4046.63
4460.45
4884.76
5320.65
5770.46
6237.77
6725.29
7241.92
7792.34
8384.79
9022.57
9709.43
10444.2
11226.4
12044.8
12900.4
13773.7
14655.6
15519.7
16346.1
17119
17836.3
18440.4
18896.4
19243.9
19442.2
19371.6
19168.8
18813.2
18276.1
17615
16780.4
15847.1
14806.8
13727.3
12630.2
11585.8
10633.4
9727.79
8890.34
8105.56
7419.27
6832.93
6221.28
5744.55
5257.86
4887.86
4511.96
4225.86
3936.35
3716.11
3492.64
3319.2
3151.22
3021.06
2899.3
2798.93
2714.29
2637.67
2579.2
2523.4
2482.74
2446.72
2418.23
2400.11
2380.49
2372.11
2363.39
2362.07
2362.24
2365.25
2369.48
2375.66
2382.19
2389.61
2396.59
2404.14
2411.82
2420.39
2428.67
2437.25
2445.25
2453.8
2459.75
2464.46
2467.1
2467.46
2466.73
2465.12
2462.25
2457.95
2452.03
2444.47
2435.39
2425.06
2413.58
2401.15
2387.69
2373.11
2357.6
2341.37
2324.75
2307.94
2291.89
2275.35
2258.24
2239.84
2220.72
2202.58
2184.38
2165.77
2146.92
2128.94
2110.95
2093.69
2076.3
2059.33
2042.16
2025.15
2008.14
1991.26
1974.54
1957.68
1940.85
1924.17
1907.64
1891.34
1875.17
1859.29
1843.47
1828.03
1812.59
1797.66
1782.84
1768.54
1754.31
1740.55
1726.75
1713.32
1699.99
1687
1674.16
1661.66
1649.12
1636.9
1624.64
1612.51
1600.26
1588.17
1576.45
1564.85
1553.43
1542.23
1531.29
1520.73
1510.39
1500.4
1490.65
1481.07
1471.75
1462.46
1453.44
1444.32
1435.51
1426.67
1417.9
1409.1
1400.62
1392.21
1384.04
1376.11
1368.46
1360.99
1353.73
1346.74
1339.92
1333.38
1326.84
1320.51
1314.11
1307.9
1301.7
1295.57
1289.52
1283.59
1277.85
1272.26
1266.78
1261.53
1256.5
1251.68
1247
1242.47
1238.07
1233.91
1229.65
1225.41
1221.22
1217.15
1213.09
1209.15
1205.27
1201.57
1197.97
1194.53
1191.2
1188.04
1185.04
1182.14
1179.49
1176.75
1173.99
1171.44
1168.85
1166.25
1163.78
1161.3
1158.95
1156.66
1154.51
1152.38
1150.46
1148.53
1146.84
1145.15
1142.89
66.2765
180.224
230.987
312.658
482.48
729.76
1058.29
1425.73
1807.06
2186.4
2562.5
2937.29
3313.95
3697.23
4090.35
4496.28
4916.26
5351.75
5805.24
6280.41
6781.03
7316.22
7891.23
8515.84
9192.94
9925.69
10712
11550
12421
13319.9
14225.2
15110.5
15937.3
16677.6
17319.2
17874.6
18243.3
18380.3
18333.1
18142
17688.9
17052.5
16320.2
15378.9
14334.4
13195.5
12024.1
10932.4
9826.76
8839.06
7865.48
7046.26
6291.92
5619.67
5028.01
4485.14
4060.48
3628.63
3298.4
2971.73
2726.22
2486.55
2304.82
2126.44
1993.84
1863.36
1766.46
1667.74
1596.64
1524.22
1473.13
1421.43
1386.23
1353.26
1326.4
1308.98
1290.22
1283.81
1277.41
1275.05
1277.21
1281.53
1289.41
1299.63
1312.86
1327.77
1344.88
1363.13
1383.08
1403.69
1425.85
1448.33
1472.12
1496.15
1521.11
1546.15
1572.37
1596.39
1620.61
1642.3
1662.96
1682.04
1701.43
1719.74
1737.3
1753.28
1767.99
1780.8
1792.21
1801.59
1809.58
1815.42
1819.7
1822.37
1823.89
1824.37
1824.53
1824.5
1823.9
1822.39
1819.31
1814.83
1809.76
1804.08
1797.53
1790.33
1782.94
1775.37
1767.95
1760.34
1752.77
1744.89
1736.85
1728.59
1720.22
1711.67
1702.78
1693.62
1684.25
1674.73
1665.11
1655.38
1645.6
1635.72
1625.85
1615.87
1606.1
1596.26
1586.74
1577.15
1567.83
1558.37
1549.09
1539.74
1530.61
1521.55
1512.7
1503.77
1495.05
1486.25
1477.41
1468.44
1459.42
1450.58
1441.77
1432.99
1424.31
1415.74
1407.44
1399.28
1391.37
1383.64
1376.03
1368.63
1361.22
1354.04
1346.76
1339.68
1332.58
1325.46
1318.27
1311.29
1304.33
1297.5
1290.84
1284.39
1278.08
1271.91
1265.98
1260.17
1254.63
1249.07
1243.7
1238.28
1233
1227.71
1222.45
1217.25
1212.12
1207.13
1202.26
1197.46
1192.83
1188.38
1184.13
1180
1176
1172.13
1168.46
1164.75
1161.03
1157.33
1153.74
1150.16
1146.67
1143.22
1139.92
1136.71
1133.62
1130.64
1127.79
1125.11
1122.5
1120.14
1117.71
1115.26
1112.98
1110.7
1108.4
1106.19
1104
1101.91
1099.86
1097.95
1096.05
1094.34
1092.62
1091.13
1089.62
1087.64
71.5225
219.465
285.99
392.954
590.334
860.632
1191.58
1547.78
1908.8
2267.04
2622.91
2978.48
3336.91
3704.28
4084.7
4480.4
4892.46
5323.15
5775.67
6254.57
6765.09
7317
7916.18
8573.22
9290.45
10069.6
10903.4
11786.5
12697.2
13608.3
14481.3
15296.9
16015.9
16581.3
16959.5
17203.3
17211.8
16981.2
16535.6
15923.4
15112.2
14101.3
13021.1
11854.4
10650.7
9530.56
8384.93
7427.53
6458.92
5665.45
4895.69
4270.83
3716.6
3243.2
2847.38
2492.6
2207.16
1952.18
1749.48
1558.89
1416.67
1279.28
1177.51
1079.05
1007.53
938.051
887.651
836.483
799.609
761.931
735.331
707.452
690.058
671.295
658.89
648.511
637.74
633.554
628.656
627.693
628.665
630.674
634.818
640.648
648.492
657.671
668.674
680.977
695.055
710.296
727.373
745.639
765.704
786.933
809.761
833.594
858.851
884.609
911.162
937.673
964.645
991.556
1019
1046.09
1073.45
1100.06
1126.39
1151.33
1175.57
1197.91
1219.33
1238.44
1256.55
1273.39
1289.17
1304.13
1318.62
1332.86
1346.23
1358.53
1369.16
1377.02
1383.66
1389.26
1394.2
1397.64
1401.01
1403.61
1406.3
1408.37
1410.53
1411.98
1413.32
1414.03
1414.72
1414.67
1414.13
1412.99
1411.31
1409.18
1406.64
1403.74
1400.51
1396.97
1393.18
1389.13
1384.97
1380.67
1376.38
1371.98
1367.56
1362.94
1358.25
1353.43
1348.63
1343.83
1339.11
1334.33
1329.57
1324.7
1319.71
1314.48
1309.1
1303.64
1298.1
1292.48
1286.8
1281.07
1275.5
1269.95
1264.58
1259.29
1254.08
1249.01
1243.93
1238.99
1233.98
1229.06
1224.09
1219.03
1213.88
1208.78
1203.64
1198.54
1193.52
1188.62
1183.8
1179.07
1174.52
1170.04
1165.81
1161.56
1157.45
1153.3
1149.24
1145.16
1141.07
1136.98
1132.93
1128.95
1125.06
1121.18
1117.42
1113.79
1110.33
1106.98
1103.73
1100.58
1097.63
1094.66
1091.67
1088.67
1085.75
1082.83
1079.97
1077.13
1074.4
1071.73
1069.16
1066.68
1064.3
1062.07
1059.89
1057.96
1055.98
1053.98
1052.11
1050.25
1048.37
1046.56
1044.76
1043.04
1041.35
1039.78
1038.21
1036.8
1035.39
1034.18
1032.94
1031.39
76.5287
258.933
342.001
471.785
689.471
970.556
1296.32
1635.52
1974.61
2311.34
2645.96
2981.35
3323.66
3675.62
4040.71
4422.04
4822.19
5244.52
5693.12
6174.15
6694.07
7263.9
7889.58
8582.77
9341.56
10164.1
11041.7
11953
12858.9
13723.2
14503.4
15157.4
15660.4
15936.4
15968.9
15835.4
15530.5
14923.3
14091.7
13092.8
12019.5
10831.8
9602.7
8474.75
7324.29
6369.73
5400.23
4648.68
3908.68
3343.11
2820.03
2401.99
2046.48
1751.88
1514.05
1311.09
1143.35
1011.56
901.326
804.061
731.822
664.351
614.827
568.172
533.865
501.308
477.139
452.998
434.825
416.387
402.525
388.21
378.116
367.31
360.155
352.757
346.395
341.893
337.128
334.368
332.661
330.758
330.528
330.914
332.156
334.072
336.912
340.467
344.976
350.247
356.556
363.746
372.116
381.458
392.028
403.552
416.326
430.054
444.95
460.764
477.698
495.604
514.663
534.653
555.717
577.642
600.337
623.566
647.209
670.988
695.031
718.506
741.777
764.61
787.121
809.697
832.441
854.962
877.249
898.468
918.788
936.393
952.312
966.592
980.984
993.625
1006.27
1017.81
1029.53
1040.34
1051.28
1061.32
1071.19
1080.15
1088.85
1096.69
1103.97
1110.31
1116.06
1121.09
1125.64
1129.51
1133
1135.82
1138.37
1140.31
1142.16
1143.54
1144.93
1145.72
1146.55
1146.8
1146.92
1146.78
1146.57
1146.27
1145.93
1145.49
1144.97
1144.28
1143.41
1142.22
1140.72
1138.97
1136.98
1134.78
1132.39
1129.84
1127.25
1124.6
1122.04
1119.47
1116.94
1114.5
1112.03
1109.64
1107.18
1104.7
1102.15
1099.46
1096.63
1093.72
1090.7
1087.62
1084.52
1081.44
1078.38
1075.39
1072.47
1069.6
1066.94
1064.25
1061.67
1059.05
1056.46
1053.83
1051.16
1048.45
1045.72
1042.99
1040.29
1037.57
1034.91
1032.3
1029.85
1027.48
1025.19
1022.97
1020.92
1018.88
1016.8
1014.7
1012.63
1010.55
1008.49
1006.44
1004.44
1002.48
1000.58
998.747
996.977
995.344
993.751
992.38
990.983
989.559
988.226
986.914
985.584
984.286
982.996
981.756
980.545
979.412
978.283
977.274
976.259
975.426
974.559
973.556
89.2497
295.81
394.602
541.89
773.124
1057.05
1372.8
1692.5
2009.27
2323.7
2639.01
2957.47
3280.6
3613.68
3960.96
4326.08
4712.54
5125.12
5569.43
6053.98
6586.31
7179.64
7838.52
8570.85
9374.73
10240.8
11140.9
12037.2
12888.8
13638.4
14231.7
14638.5
14854.9
14779.3
14510.1
14009.1
13352.9
12439.2
11327.7
10095.3
8905.17
7751.16
6571.73
5607.63
4658.35
3925.03
3214.13
2687.27
2196.6
1840.78
1526.61
1284.51
1086.16
926.188
801.826
699.396
615.395
555.985
502.024
461.361
428.559
398.577
375.741
354.339
337.93
322.033
309.512
296.867
286.841
276.536
268.083
259.488
252.683
245.664
240.239
234.582
230.376
226.345
222.213
218.82
216.14
213.389
211.379
209.334
208.138
206.891
206.375
205.851
205.935
206.218
206.872
207.882
209.361
211.265
213.686
216.531
219.911
223.775
228.233
233.229
238.87
245.128
252.128
259.843
268.407
277.791
288.045
299.141
311.081
323.835
337.404
351.687
366.717
382.471
399.064
416.646
435.192
454.553
474.572
494.984
515.797
535.695
555.237
573.573
592.177
609.821
627.647
644.697
662.005
678.715
695.677
711.963
728.312
743.681
758.795
772.836
786.711
799.579
811.958
823.436
834.472
844.558
854.273
862.993
871.446
878.929
886.316
892.824
899.388
905.144
911.002
916.034
921.077
925.545
929.987
934.165
938.374
942.314
946.238
949.841
953.319
956.317
958.777
960.817
962.489
963.809
964.84
965.522
966.115
966.51
966.918
967.242
967.564
967.911
968.223
968.578
968.767
968.958
968.94
968.782
968.417
967.872
967.139
966.261
965.266
964.205
963.097
962.002
960.906
959.846
958.918
957.978
957.094
956.177
955.239
954.24
953.169
952.012
950.779
949.492
948.166
946.789
945.396
944.008
942.731
941.508
940.344
939.222
938.239
937.287
936.275
935.231
934.178
933.101
932.001
930.88
929.767
928.664
927.584
926.531
925.519
924.61
923.74
923.05
922.353
921.633
920.967
920.319
919.655
918.987
918.323
917.675
917.043
916.453
915.866
915.351
914.843
914.478
914.049
913.754
103.145
326.128
440.137
600.945
839.78
1121.27
1422.6
1722.17
2017
2312.76
2609.47
2907.36
3210.01
3523.46
3852.4
4201.03
4573.86
4977.79
5420.73
5914.34
6466.4
7090.2
7790.92
8572.45
9422.56
10317.7
11204.7
12039.5
12770.1
13329.3
13669.5
13770.7
13679.1
13313.4
12716.1
11871.7
10884.8
9727.14
8509.1
7275.35
6089.15
5109.74
4137.22
3394.8
2720.39
2220.38
1780.04
1462.39
1188
995.772
830.617
710.428
610.501
532.93
472.111
423.136
384.748
355.493
331.342
315.304
299.064
284.332
272.356
260.246
250.371
240.227
232.268
224.03
217.129
210.062
204.209
197.935
193.022
187.982
184.012
179.779
176.519
173.408
170.262
167.441
165.042
162.627
160.66
158.638
156.958
155.238
153.91
152.549
151.5
150.431
149.618
148.865
148.313
147.939
147.718
147.719
147.835
148.123
148.596
149.243
150.104
151.166
152.473
154.027
155.888
158.06
160.575
163.438
166.673
170.302
174.349
178.826
183.789
189.287
195.43
202.327
210.013
218.477
227.722
237.732
248.486
259.785
271.515
283.681
296.385
309.558
323.266
337.431
352.174
367.393
383.204
399.428
416.058
432.897
450.005
466.856
483.889
500.365
516.731
532.375
547.836
562.403
576.767
590.099
603.272
615.331
627.356
638.257
649.249
659.408
669.7
679.152
688.677
697.497
706.324
714.717
723.169
731.232
739.206
746.799
754.106
760.949
767.221
772.954
778.248
783.078
787.553
791.559
795.384
798.912
802.377
805.722
808.988
812.292
815.465
818.661
821.574
824.455
827.092
829.548
831.676
833.589
835.191
836.629
837.816
838.907
839.845
840.791
841.644
842.506
843.403
844.298
845.221
846.079
846.913
847.643
848.277
848.77
849.141
849.4
849.585
849.65
849.646
849.616
849.63
849.668
849.736
849.843
850.024
850.267
850.435
850.554
850.65
850.684
850.662
850.595
850.492
850.361
850.212
850.056
849.915
849.834
849.821
849.892
850.002
850.09
850.198
850.322
850.421
850.491
850.554
850.595
850.64
850.687
850.737
850.807
850.907
851.087
851.211
851.687
114.814
348.151
477.271
647.438
888.762
1163.71
1448.13
1727.69
2006.09
2282.71
2558.2
2834.91
3117.1
3411.37
3722.76
4056.46
4418.08
4817.82
5266.26
5777.94
6360.6
7030.67
7785.84
8624.86
9514.59
10413.8
11234.1
11949
12499.6
12802.5
12831
12646.4
12262.5
11570.3
10659.9
9538.07
8276.59
7034.04
5852.07
4790.02
3792.42
3048.38
2389.63
1905.93
1505.79
1214.84
982.865
816.11
680.222
583.8
501.165
443.764
391.24
353.595
321.741
298.44
279.447
263.929
252.09
241.705
230.273
221.876
213.372
204.757
197.601
190.301
184.429
178.498
173.577
168.524
164.329
160.173
156.687
153.138
150.189
147.196
144.802
142.339
140.145
138.282
136.363
134.489
132.989
131.421
129.945
128.456
127.252
126.03
124.947
123.847
122.905
121.947
121.152
120.35
119.713