/*--------------------------------*- C++ -*----------------------------------*\
| =========                 |                                                 |
| \\      /  F ield         | OpenFOAM: The Open Source CFD Toolbox           |
|  \\    /   O peration     | Version:  2312                                  |
|   \\  /    A nd           | Website:  www.openfoam.com                      |
|    \\/     M anipulation  |                                                 |
\*---------------------------------------------------------------------------*/
FoamFile
{
    version     2.0;
    format      ascii;
    arch        "LSB;label=32;scalar=64";
    class       volScalarField;
    location    "0.005";
    object      minKappa;
}
// * * * * * * * * * * * * * * * * * * * * * * * * * * * * * * * * * * * * * //

dimensions      [0 0 0 0 0 0 0];

internalField   nonuniform List<scalar> 
48128
(
0.614603
0.614446
0.61469
0.614646
0.614599
0.614618
0.61457
0.61448
0.614531
0.614878
0.616468
0.617995
0.618998
0.619867
0.620584
0.621944
0.623133
0.624272
0.625345
0.626339
0.627231
0.628081
0.628897
0.629651
0.630333
0.630931
0.631432
0.631806
0.632051
0.632181
0.632217
0.632087
0.631824
0.631438
0.630947
0.630352
0.629863
0.628826
0.62787
0.626874
0.625855
0.624851
0.623883
0.622954
0.622091
0.621303
0.620602
0.619886
0.619276
0.618852
0.618706
0.618572
0.618525
0.618574
0.618767
0.619064
0.619503
0.620059
0.62073
0.621503
0.622375
0.623333
0.624371
0.625487
0.626777
0.628185
0.629668
0.631217
0.632848
0.634492
0.636193
0.637912
0.639644
0.641428
0.643201
0.645036
0.646848
0.648672
0.650497
0.652291
0.654073
0.655811
0.657562
0.659287
0.661007
0.66267
0.664321
0.665908
0.667468
0.668985
0.670483
0.671929
0.673344
0.67473
0.676112
0.67749
0.678865
0.68019
0.681439
0.682604
0.683703
0.684777
0.685851
0.686904
0.687927
0.688912
0.689854
0.690752
0.691615
0.692446
0.693232
0.693981
0.694675
0.695326
0.695941
0.696516
0.697115
0.697743
0.698398
0.699134
0.700168
0.700344
0.700734
0.701393
0.701548
0.701796
0.70208
0.70238
0.702695
0.703024
0.703363
0.703707
0.704052
0.704399
0.704749
0.705102
0.705447
0.705753
0.706035
0.706299
0.706551
0.706781
0.706989
0.70718
0.707354
0.707504
0.707641
0.707763
0.707889
0.708009
0.708133
0.708245
0.708346
0.708438
0.708536
0.708639
0.708756
0.708886
0.709033
0.709184
0.709346
0.709518
0.677856
0.677842
0.677815
0.677761
0.677692
0.677601
0.677503
0.677398
0.677304
0.677213
0.677145
0.677077
0.709733
0.677017
0.677017
0.677016
0.677034
0.677038
0.677027
0.677002
0.676963
0.676897
0.676818
0.676733
0.676639
0.676538
0.676437
0.67635
0.676278
0.676237
0.676186
0.67618
0.676167
0.67617
0.67616
0.676139
0.676104
0.676057
0.675997
0.675924
0.675836
0.675739
0.675646
0.675557
0.67548
0.675416
0.675339
0.675341
0.675326
0.675306
0.675295
0.675274
0.675242
0.675197
0.675141
0.675073
0.674997
0.674916
0.674824
0.674744
0.674661
0.67459
0.674555
0.674514
0.674473
0.674457
0.674432
0.674401
0.674364
0.674318
0.674264
0.6742
0.674129
0.674053
0.673973
0.673895
0.673822
0.673734
0.614603
0.614446
0.61469
0.614646
0.614599
0.614618
0.614523
0.614267
0.614531
0.614878
0.616468
0.617995
0.618998
0.619867
0.620584
0.621944
0.623133
0.624272
0.625345
0.626339
0.627231
0.628081
0.628897
0.629651
0.630333
0.630931
0.631432
0.631806
0.632051
0.632181
0.632217
0.632087
0.631824
0.631083
0.63015
0.629151
0.628112
0.627032
0.625948
0.624878
0.623821
0.622812
0.621877
0.621026
0.620284
0.619649
0.619163
0.618968
0.618935
0.618852
0.618706
0.618572
0.618525
0.618574
0.618767
0.619064
0.619503
0.620059
0.62073
0.621503
0.622375
0.623333
0.624371
0.625487
0.626777
0.628185
0.629668
0.631217
0.632848
0.634492
0.636193
0.637912
0.639644
0.641428
0.643201
0.645036
0.646848
0.648672
0.650497
0.652291
0.654073
0.655811
0.657562
0.659287
0.661007
0.66267
0.664321
0.665908
0.667468
0.668985
0.670483
0.671929
0.673344
0.67473
0.676112
0.67749
0.678865
0.68019
0.681439
0.682604
0.683703
0.684777
0.685851
0.686904
0.687927
0.688912
0.689854
0.690752
0.691615
0.692446
0.693232
0.693981
0.694675
0.695326
0.695941
0.696516
0.697115
0.697743
0.698398
0.699134
0.700168
0.700344
0.700734
0.701393
0.701548
0.701796
0.70208
0.70238
0.702695
0.703024
0.703363
0.703707
0.704052
0.704399
0.704749
0.705102
0.705447
0.705753
0.706035
0.706299
0.706551
0.706781
0.706989
0.70718
0.707354
0.707504
0.707641
0.707763
0.707889
0.708009
0.708133
0.708245
0.708346
0.708438
0.708536
0.708639
0.708756
0.708886
0.709033
0.709184
0.709346
0.709518
0.677856
0.677842
0.677815
0.677761
0.677692
0.677601
0.677503
0.677398
0.677304
0.677213
0.677145
0.677077
0.709733
0.677017
0.677017
0.677016
0.677034
0.677038
0.677027
0.677002
0.676963
0.676897
0.676818
0.676733
0.676639
0.676538
0.676437
0.67635
0.676278
0.676237
0.676186
0.67618
0.676167
0.67617
0.67616
0.676139
0.676104
0.676057
0.675997
0.675924
0.675836
0.675739
0.675646
0.675557
0.67548
0.675416
0.675339
0.675341
0.675326
0.675306
0.675295
0.675274
0.675242
0.675197
0.675141
0.675073
0.674997
0.674916
0.674824
0.674744
0.674661
0.67459
0.674555
0.674514
0.674473
0.674457
0.674432
0.674401
0.674364
0.674318
0.674264
0.6742
0.674129
0.674053
0.673973
0.673895
0.673822
0.673734
0.614828
0.614666
0.614841
0.614941
0.614847
0.614611
0.614304
0.614267
0.61466
0.616253
0.61859
0.620769
0.622868
0.624962
0.626619
0.628062
0.629322
0.630428
0.631198
0.631682
0.632029
0.632328
0.632551
0.632686
0.63273
0.632687
0.632539
0.63225
0.631841
0.631316
0.630731
0.630043
0.6291
0.628234
0.627327
0.626379
0.625413
0.624438
0.623479
0.622565
0.621691
0.620886
0.620179
0.61958
0.619268
0.619148
0.619163
0.618968
0.618935
0.61894
0.619003
0.619191
0.61956
0.620049
0.620689
0.621458
0.622395
0.623461
0.62466
0.625971
0.627393
0.628905
0.630503
0.632184
0.633947
0.635792
0.637694
0.63965
0.641665
0.643682
0.645744
0.647799
0.649864
0.651958
0.654036
0.656159
0.658243
0.660326
0.662398
0.664431
0.666442
0.668458
0.670468
0.672455
0.674406
0.676308
0.678179
0.679987
0.681755
0.68348
0.685179
0.686819
0.688427
0.690001
0.69157
0.693128
0.694683
0.696178
0.697595
0.698929
0.700197
0.70144
0.70268
0.703894
0.705077
0.706219
0.707317
0.708368
0.709386
0.710369
0.711307
0.712206
0.713047
0.713846
0.714607
0.715323
0.716063
0.716829
0.717625
0.718496
0.719648
0.719958
0.720495
0.721254
0.721553
0.721942
0.722359
0.722786
0.723221
0.723664
0.724115
0.724565
0.725014
0.725463
0.725913
0.726368
0.726812
0.727218
0.727601
0.727966
0.728318
0.728647
0.728953
0.72924
0.72951
0.729749
0.729971
0.730175
0.730383
0.730584
0.730788
0.730979
0.731158
0.731328
0.731501
0.731679
0.731871
0.732074
0.732292
0.732516
0.732748
0.732994
0.733149
0.733313
0.733485
0.733587
0.733697
0.733746
0.733796
0.733824
0.733854
0.733887
0.733923
0.733969
0.734029
0.734096
0.734177
0.734263
0.730444
0.730537
0.730607
0.730652
0.730702
0.730699
0.730684
0.730659
0.73062
0.730567
0.73051
0.730455
0.730413
0.730395
0.730372
0.730385
0.730394
0.73042
0.730433
0.730435
0.730422
0.730398
0.73036
0.730307
0.730232
0.730144
0.730053
0.72996
0.729875
0.729796
0.729694
0.729685
0.729661
0.729625
0.729606
0.729576
0.729536
0.729482
0.729416
0.729336
0.729246
0.729146
0.729033
0.728922
0.728808
0.728692
0.728621
0.728544
0.728462
0.728413
0.728357
0.728294
0.728227
0.72815
0.728064
0.727968
0.727862
0.727748
0.727627
0.727504
0.727381
0.727214
0.614952
0.614795
0.61476
0.614863
0.614645
0.61442
0.614304
0.614719
0.616898
0.620075
0.622341
0.624112
0.625526
0.626575
0.627396
0.628
0.628553
0.629033
0.629439
0.629777
0.630001
0.630191
0.630339
0.630418
0.630413
0.630308
0.6301
0.629786
0.629367
0.628847
0.628102
0.627399
0.626635
0.625801
0.624942
0.624071
0.62321
0.622364
0.62156
0.62084
0.620187
0.619699
0.619491
0.61944
0.619268
0.619148
0.619187
0.619192
0.619379
0.619696
0.620208
0.620858
0.621713
0.622703
0.623844
0.625132
0.626596
0.628182
0.629904
0.631728
0.633661
0.635665
0.637747
0.639898
0.64212
0.644417
0.646743
0.649113
0.65151
0.653891
0.656301
0.658673
0.661052
0.663432
0.665792
0.668172
0.670495
0.672804
0.675088
0.677317
0.679477
0.681609
0.683714
0.685781
0.687791
0.689743
0.691653
0.693495
0.695289
0.69704
0.698758
0.700415
0.702035
0.703619
0.705193
0.70675
0.708304
0.709787
0.711194
0.712545
0.713841
0.715116
0.716387
0.717628
0.718839
0.720005
0.721129
0.722206
0.723253
0.724261
0.725228
0.726155
0.727024
0.727857
0.728644
0.729396
0.730169
0.730967
0.731801
0.732699
0.733845
0.734201
0.734771
0.735506
0.735886
0.736326
0.736783
0.737249
0.737719
0.738196
0.738681
0.739162
0.739643
0.740123
0.740603
0.741088
0.741559
0.741994
0.742408
0.742804
0.743188
0.74355
0.743889
0.744209
0.744514
0.744786
0.745039
0.745274
0.745511
0.745741
0.745974
0.746189
0.746397
0.746594
0.746794
0.746999
0.747217
0.747447
0.747689
0.747937
0.748194
0.748463
0.748646
0.748836
0.749032
0.749163
0.749301
0.749377
0.749457
0.749511
0.749566
0.749624
0.749684
0.749753
0.749835
0.749924
0.750025
0.750131
0.750253
0.750374
0.748872
0.748938
0.750637
0.750658
0.750671
0.750668
0.750653
0.750625
0.750591
0.750558
0.750535
0.750532
0.748852
0.748869
0.748887
0.748921
0.748942
0.748953
0.748947
0.74893
0.748899
0.748853
0.748785
0.748702
0.748615
0.748526
0.748443
0.748362
0.748262
0.748248
0.748219
0.748181
0.748157
0.748123
0.748079
0.748022
0.747953
0.747869
0.747775
0.74767
0.747552
0.747433
0.747311
0.747187
0.747104
0.747016
0.746922
0.746861
0.746792
0.746717
0.746638
0.74655
0.746452
0.746344
0.746226
0.7461
0.745966
0.745829
0.74569
0.745499
0.615026
0.614836
0.614567
0.614658
0.61452
0.61442
0.614885
0.617059
0.620301
0.622544
0.624149
0.625256
0.625984
0.626342
0.626657
0.627041
0.627373
0.627684
0.627975
0.628219
0.628364
0.62848
0.628545
0.628541
0.628458
0.628284
0.628019
0.627659
0.627211
0.626533
0.625915
0.625228
0.6245
0.623726
0.622943
0.622183
0.62147
0.6208
0.620198
0.619919
0.61981
0.619699
0.619491
0.61944
0.619427
0.619522
0.619825
0.620284
0.620971
0.621809
0.622865
0.624082
0.625529
0.627126
0.628872
0.630773
0.632864
0.635052
0.637386
0.639796
0.642307
0.644858
0.647467
0.650119
0.652819
0.655585
0.658332
0.661111
0.663868
0.66658
0.669297
0.671931
0.674567
0.677166
0.679736
0.682295
0.684768
0.687214
0.689617
0.691941
0.694168
0.69637
0.698522
0.700621
0.702641
0.704598
0.706503
0.708335
0.71011
0.711843
0.713537
0.715169
0.716754
0.718302
0.719833
0.721344
0.722852
0.724275
0.725631
0.726908
0.728124
0.729319
0.730506
0.731662
0.732789
0.733872
0.734918
0.735919
0.736895
0.737829
0.738727
0.739586
0.740397
0.741194
0.74194
0.742666
0.743412
0.744176
0.744987
0.745843
0.746911
0.747269
0.747814
0.748455
0.748899
0.749315
0.749754
0.750207
0.750662
0.751124
0.751593
0.75206
0.752528
0.752996
0.753462
0.753936
0.754389
0.754813
0.75522
0.755608
0.755983
0.756338
0.756673
0.756988
0.757291
0.757561
0.757812
0.758047
0.758281
0.758508
0.758739
0.75895
0.759155
0.759351
0.75955
0.759754
0.75997
0.760197
0.760436
0.760682
0.760936
0.761202
0.761389
0.761576
0.761769
0.761903
0.762046
0.762125
0.762209
0.762269
0.762329
0.762391
0.762457
0.76253
0.762615
0.762708
0.762813
0.762923
0.763047
0.763171
0.763278
0.763356
0.763444
0.76347
0.763488
0.763488
0.763477
0.763453
0.763425
0.763396
0.763376
0.763377
0.762402
0.76242
0.762439
0.762473
0.762494
0.762506
0.762499
0.762483
0.762453
0.762406
0.762339
0.762256
0.762169
0.762079
0.761996
0.761911
0.761814
0.761792
0.761758
0.761717
0.761686
0.761646
0.761597
0.761535
0.76146
0.761372
0.761272
0.761162
0.761039
0.760913
0.760784
0.760655
0.760562
0.760465
0.760363
0.760291
0.760212
0.760128
0.760038
0.75994
0.759832
0.759715
0.759587
0.75945
0.759305
0.759157
0.759007
0.758799
0.615056
0.614764
0.614532
0.614613
0.61452
0.614996
0.616951
0.620055
0.622316
0.623823
0.624799
0.625283
0.625509
0.625706
0.625869
0.626093
0.626314
0.626519
0.626697
0.626841
0.626901
0.626935
0.626926
0.626851
0.626705
0.626477
0.626173
0.625784
0.625176
0.624625
0.624024
0.623379
0.622717
0.622043
0.621386
0.620781
0.620353
0.620168
0.620146
0.619919
0.61981
0.619782
0.619803
0.62
0.620425
0.621038
0.621915
0.622992
0.624351
0.625901
0.627695
0.629681
0.631924
0.634329
0.636898
0.639582
0.642491
0.645453
0.648563
0.651725
0.654933
0.65816
0.661365
0.664591
0.667807
0.671095
0.674273
0.677465
0.680567
0.683581
0.686573
0.689406
0.692237
0.694974
0.697665
0.70031
0.702824
0.705294
0.707699
0.709992
0.712152
0.714292
0.716361
0.718367
0.720276
0.722124
0.723909
0.725621
0.72727
0.728879
0.730443
0.731947
0.733391
0.734802
0.736187
0.737555
0.738922
0.740196
0.741417
0.742563
0.743651
0.744719
0.745776
0.7468
0.747801
0.748759
0.749687
0.750574
0.75144
0.752261
0.753055
0.753808
0.754516
0.755196
0.755829
0.756455
0.757097
0.757748
0.758456
0.759191
0.760092
0.760424
0.760868
0.761361
0.76181
0.762151
0.762528
0.762923
0.76332
0.763723
0.764134
0.764546
0.764961
0.765375
0.765789
0.766211
0.766608
0.766986
0.76735
0.767694
0.768027
0.768341
0.768638
0.768915
0.769185
0.769421
0.769642
0.769849
0.770052
0.770252
0.770453
0.770636
0.770814
0.770986
0.771162
0.771341
0.771533
0.771735
0.771949
0.772171
0.772398
0.77264
0.772812
0.772974
0.773143
0.773261
0.77339
0.773454
0.773523
0.773572
0.773619
0.77367
0.773725
0.773787
0.773859
0.773943
0.774034
0.774134
0.774244
0.774356
0.774452
0.774521
0.774595
0.774616
0.774624
0.77462
0.774602
0.774572
0.774538
0.774503
0.774477
0.774472
0.773836
0.773853
0.773861
0.773888
0.7739
0.773904
0.773891
0.773868
0.773831
0.773779
0.773705
0.773616
0.773523
0.773428
0.773339
0.773246
0.773148
0.773113
0.773071
0.773023
0.772982
0.772933
0.772875
0.772804
0.772721
0.772625
0.772517
0.772399
0.772268
0.772135
0.771997
0.771861
0.771757
0.77165
0.771539
0.771457
0.771366
0.771271
0.771171
0.771061
0.770943
0.770815
0.770676
0.770529
0.770373
0.770215
0.770053
0.769829
0.615009
0.614764
0.614532
0.614613
0.614956
0.616554
0.619497
0.621823
0.623368
0.6243
0.624732
0.624891
0.624962
0.625031
0.625116
0.625242
0.625357
0.625462
0.625548
0.625606
0.625598
0.62556
0.625488
0.625356
0.625163
0.624899
0.624572
0.624018
0.62355
0.623026
0.622475
0.621912
0.621366
0.620843
0.620561
0.620434
0.620353
0.620168
0.620146
0.620127
0.620278
0.620634
0.621219
0.622035
0.623158
0.624538
0.626259
0.628253
0.630602
0.633207
0.63608
0.639165
0.642552
0.646076
0.649857
0.653501
0.657488
0.661531
0.665598
0.669783
0.673807
0.677928
0.681782
0.685696
0.689457
0.693339
0.696954
0.700558
0.703966
0.707212
0.710389
0.713293
0.716195
0.71891
0.721567
0.724124
0.726496
0.7288
0.731011
0.73307
0.734955
0.736827
0.738623
0.740357
0.741976
0.743547
0.745043
0.746473
0.747834
0.749162
0.75044
0.75167
0.752839
0.753985
0.755098
0.756212
0.757325
0.758347
0.759335
0.760251
0.761118
0.761968
0.762807
0.763615
0.76441
0.765167
0.765904
0.766603
0.767289
0.767927
0.768551
0.769133
0.769683
0.770208
0.770697
0.771188
0.771694
0.772196
0.772765
0.773348
0.774042
0.774338
0.774638
0.774967
0.775315
0.775561
0.775826
0.776114
0.776397
0.776693
0.77699
0.777299
0.777608
0.77793
0.778255
0.778588
0.778895
0.779193
0.779481
0.779748
0.780007
0.780249
0.780478
0.780688
0.780894
0.781069
0.781232
0.781384
0.781531
0.781679
0.781824
0.781957
0.782081
0.78221
0.782336
0.782472
0.782616
0.782775
0.78294
0.783115
0.783298
0.783492
0.783627
0.783748
0.783874
0.783959
0.784051
0.784085
0.784125
0.784145
0.784165
0.784189
0.784215
0.784249
0.784297
0.784351
0.78442
0.784489
0.784571
0.784658
0.784728
0.784773
0.784819
0.784824
0.784815
0.784791
0.784755
0.784708
0.784657
0.784606
0.784564
0.784541
0.784091
0.784099
0.784085
0.784097
0.784092
0.784079
0.784051
0.784013
0.783962
0.783896
0.783809
0.783707
0.783602
0.783494
0.783394
0.783288
0.783184
0.783128
0.783073
0.783014
0.782957
0.782894
0.782823
0.782739
0.782644
0.782535
0.782415
0.782286
0.782143
0.781999
0.781849
0.781703
0.781584
0.781466
0.781344
0.781247
0.781144
0.781036
0.780922
0.7808
0.780669
0.780528
0.780377
0.780217
0.78005
0.779879
0.779705
0.779463
0.614955
0.614809
0.614532
0.615008
0.616123
0.618701
0.621141
0.622814
0.623809
0.624266
0.624393
0.624435
0.624415
0.62442
0.624429
0.624465
0.624497
0.624523
0.624534
0.624522
0.624457
0.624363
0.624242
0.624069
0.623848
0.623568
0.62308
0.622683
0.622253
0.621797
0.621344
0.620957
0.620801
0.62077
0.620561
0.620434
0.620444
0.6205
0.620779
0.621325
0.622149
0.623293
0.624743
0.626512
0.628697
0.631263
0.634257
0.637619
0.641424
0.645554
0.650028
0.654582
0.659556
0.664563
0.670042
0.674784
0.680094
0.685652
0.690789
0.696288
0.701227
0.706458
0.710978
0.715688
0.719988
0.724489
0.728524
0.732498
0.736126
0.739501
0.742723
0.745537
0.748333
0.750815
0.753239
0.755466
0.757481
0.759367
0.761152
0.762711
0.764104
0.765444
0.766752
0.76793
0.769043
0.770069
0.771059
0.771953
0.772822
0.77363
0.774425
0.775162
0.775892
0.776588
0.777276
0.777976
0.778689
0.779307
0.779928
0.78049
0.781026
0.781554
0.782078
0.782574
0.783076
0.783546
0.784008
0.784439
0.784869
0.785251
0.785637
0.78598
0.786311
0.78662
0.786907
0.787204
0.78752
0.787815
0.788193
0.788559
0.788994
0.789211
0.789315
0.789461
0.789658
0.789787
0.789919
0.790074
0.790222
0.790385
0.790545
0.790725
0.790906
0.791097
0.791286
0.791487
0.791661
0.791838
0.79201
0.792163
0.792316
0.792456
0.79259
0.792703
0.792818
0.792906
0.792986
0.793057
0.793127
0.793193
0.793267
0.793315
0.79337
0.793426
0.793486
0.793558
0.793631
0.793738
0.793819
0.793935
0.794051
0.794168
0.794254
0.794317
0.794382
0.794415
0.794448
0.794446
0.794434
0.794413
0.794391
0.79437
0.794352
0.794343
0.794359
0.794356
0.794401
0.794412
0.794462
0.794506
0.794532
0.794542
0.794551
0.794528
0.794487
0.794432
0.794366
0.794291
0.794214
0.794136
0.794066
0.794015
0.793667
0.79365
0.793609
0.793593
0.793563
0.793524
0.793472
0.79341
0.793335
0.793248
0.793141
0.793019
0.792895
0.792767
0.79265
0.792526
0.792408
0.792321
0.792249
0.792172
0.792095
0.792012
0.791921
0.79182
0.791706
0.791581
0.791444
0.791298
0.791141
0.790981
0.790815
0.790655
0.790517
0.790385
0.790249
0.790133
0.790013
0.789888
0.789759
0.78962
0.789474
0.789317
0.789152
0.788977
0.788795
0.78861
0.788422
0.788159
0.61491
0.614984
0.614881
0.615829
0.617784
0.620275
0.622133
0.623279
0.62384
0.623989
0.624013
0.623979
0.62391
0.623855
0.623808
0.623774
0.623742
0.623706
0.623658
0.623591
0.623485
0.623353
0.6232
0.623007
0.622781
0.622351
0.622033
0.621689
0.621345
0.621102
0.621015
0.620957
0.620801
0.62077
0.620755
0.620892
0.621332
0.622031
0.623113
0.624592
0.626487
0.628869
0.631596
0.634812
0.638568
0.642874
0.647706
0.652915
0.658698
0.664808
0.671501
0.677762
0.684695
0.691424
0.69899
0.704974
0.711734
0.719155
0.72551
0.732969
0.73905
0.745872
0.751146
0.756983
0.761869
0.767127
0.771618
0.776022
0.779771
0.783261
0.786292
0.788912
0.791394
0.793361
0.795404
0.796938
0.798429
0.799542
0.80067
0.801384
0.802021
0.802428
0.803099
0.80315
0.803565
0.803479
0.803759
0.803561
0.803755
0.80355
0.80365
0.80343
0.80352
0.803325
0.803436
0.803354
0.803496
0.803508
0.803619
0.803667
0.803757
0.803833
0.803936
0.803998
0.804098
0.804177
0.804272
0.804348
0.804439
0.80449
0.804564
0.804598
0.80464
0.80467
0.804682
0.80474
0.804812
0.804854
0.80498
0.805046
0.8052
0.805242
0.805148
0.805074
0.805066
0.805034
0.805006
0.804985
0.804968
0.804951
0.804942
0.804952
0.804975
0.805008
0.805036
0.805084
0.805102
0.805139
0.805172
0.805192
0.805209
0.805216
0.805218
0.805207
0.805195
0.805173
0.805147
0.805112
0.805085
0.805042
0.805015
0.804966
0.804932
0.804891
0.804868
0.804847
0.804842
0.804865
0.804842
0.804887
0.804896
0.804941
0.804951
0.80494
0.804924
0.804891
0.804853
0.804791
0.804718
0.804638
0.804557
0.804478
0.804404
0.804337
0.804298
0.804235
0.804229
0.804186
0.80418
0.804011
0.804141
0.804099
0.80406
0.803995
0.803911
0.803813
0.803707
0.803594
0.803478
0.803365
0.803258
0.803169
0.802867
0.802811
0.802738
0.802682
0.802616
0.802542
0.802457
0.802362
0.802255
0.802139
0.802005
0.801855
0.801704
0.801551
0.801408
0.801259
0.801121
0.800995
0.800901
0.8008
0.800696
0.800587
0.80047
0.800345
0.800208
0.80006
0.799901
0.799734
0.799557
0.799377
0.799192
0.799013
0.79885
0.7987
0.798546
0.798405
0.798266
0.798121
0.797971
0.797813
0.797648
0.797473
0.797289
0.797096
0.796897
0.796695
0.79649
0.796202
0.61491
0.615244
0.615489
0.616982
0.619258
0.621288
0.622651
0.623402
0.623624
0.623673
0.623641
0.623553
0.623445
0.623347
0.623257
0.623175
0.623096
0.623014
0.622923
0.622819
0.622688
0.622537
0.622374
0.622187
0.621827
0.62158
0.621331
0.621209
0.621195
0.621102
0.621015
0.621006
0.621072
0.62132
0.621875
0.622726
0.624054
0.6258
0.628163
0.631082
0.634553
0.638719
0.643148
0.648412
0.654345
0.660887
0.668181
0.675554
0.683786
0.692154
0.701634
0.70963
0.71884
0.727779
0.738086
0.745845
0.754278
0.764
0.771522
0.7805
0.786959
0.794782
0.800327
0.806403
0.811407
0.816647
0.821084
0.825158
0.828492
0.831515
0.83384
0.836127
0.837638
0.839354
0.840493
0.84145
0.842393
0.842425
0.843483
0.842988
0.843328
0.84274
0.8429
0.842087
0.841976
0.841022
0.840703
0.839704
0.839238
0.838277
0.837608
0.836672
0.83598
0.835077
0.834443
0.833589
0.832857
0.832015
0.831363
0.830647
0.830064
0.829468
0.828938
0.828366
0.827873
0.82739
0.82698
0.82658
0.826216
0.825832
0.825494
0.825137
0.824808
0.824481
0.824142
0.823905
0.82367
0.823431
0.823223
0.822944
0.822776
0.822559
0.822249
0.821913
0.821673
0.821433
0.821209
0.820974
0.820759
0.820525
0.820317
0.820117
0.819954
0.819791
0.81963
0.819487
0.819321
0.81919
0.819055
0.818914
0.818773
0.818627
0.81848
0.818326
0.818173
0.818014
0.817859
0.817699
0.817546
0.817382
0.817229
0.817059
0.816915
0.816765
0.816634
0.816505
0.816398
0.816308
0.816183
0.816117
0.816025
0.815961
0.815878
0.815775
0.815668
0.81555
0.815428
0.815288
0.81514
0.814987
0.814834
0.814682
0.81454
0.814404
0.814292
0.814161
0.814081
0.813979
0.813795
0.813707
0.813615
0.813509
0.813521
0.813401
0.813264
0.813113
0.812954
0.812793
0.812631
0.812471
0.812318
0.812041
0.811887
0.811783
0.811666
0.811561
0.811449
0.811331
0.811204
0.811068
0.810921
0.810768
0.810598
0.810414
0.810229
0.810042
0.809869
0.809688
0.809522
0.809351
0.809227
0.809094
0.808957
0.808815
0.808667
0.808511
0.808345
0.808169
0.807983
0.80779
0.807587
0.807383
0.807174
0.806972
0.806779
0.806607
0.80643
0.80626
0.806096
0.805927
0.805754
0.805572
0.805383
0.805186
0.804981
0.804767
0.804548
0.804326
0.8041
0.803783
0.614936
0.615615
0.616269
0.618178
0.620265
0.621869
0.622845
0.623252
0.623365
0.623364
0.623286
0.623162
0.623028
0.622902
0.622783
0.62267
0.622559
0.622447
0.622332
0.622209
0.622071
0.621924
0.621778
0.621478
0.621323
0.621268
0.621305
0.621209
0.621195
0.621202
0.621332
0.621653
0.622325
0.623323
0.624855
0.626866
0.629547
0.632878
0.637086
0.642057
0.647507
0.653971
0.660653
0.668489
0.677214
0.686227
0.696582
0.70617
0.71734
0.728543
0.741784
0.751741
0.763579
0.77369
0.78505
0.795377
0.803703
0.81428
0.82243
0.8314
0.838328
0.845289
0.85094
0.856354
0.860971
0.86518
0.869139
0.872019
0.874951
0.876803
0.87853
0.880269
0.880383
0.882652
0.882073
0.883349
0.8832
0.882804
0.883437
0.882272
0.882604
0.881371
0.881142
0.87977
0.879376
0.877957
0.877234
0.875824
0.874881
0.873488
0.872345
0.870923
0.869795
0.868384
0.867181
0.865783
0.864434
0.863003
0.861733
0.86042
0.859229
0.858017
0.856851
0.855646
0.854521
0.853417
0.852396
0.8514
0.850468
0.849526
0.848676
0.847829
0.847055
0.84629
0.845579
0.844962
0.844346
0.84375
0.843125
0.842464
0.841874
0.84136
0.840764
0.840127
0.839607
0.839121
0.83865
0.838165
0.837705
0.837224
0.83678
0.836334
0.83595
0.835552
0.835173
0.834805
0.834424
0.834096
0.833765
0.833435
0.83311
0.832786
0.832466
0.832144
0.831827
0.831507
0.831204
0.830895
0.830597
0.83029
0.829992
0.829684
0.82941
0.829129
0.828874
0.828623
0.82839
0.82817
0.827929
0.827733
0.827519
0.827334
0.827137
0.826925
0.826712
0.826491
0.826273
0.826043
0.825806
0.825566
0.825329
0.825092
0.824869
0.824651
0.824454
0.824243
0.824078
0.82382
0.823653
0.823485
0.823317
0.823138
0.822962
0.822865
0.822663
0.822449
0.822229
0.82201
0.821792
0.821577
0.821368
0.821066
0.820858
0.820697
0.820525
0.820363
0.820196
0.820024
0.819846
0.819661
0.819467
0.819267
0.819055
0.81883
0.818605
0.818377
0.818165
0.817947
0.817743
0.817525
0.817362
0.81719
0.817014
0.816833
0.816648
0.816455
0.816254
0.816045
0.815826
0.815601
0.815369
0.815135
0.814898
0.814667
0.814438
0.81424
0.814035
0.813831
0.813639
0.813442
0.81324
0.813031
0.812815
0.812592
0.812361
0.812122
0.811879
0.811634
0.811385
0.811034
0.615011
0.616031
0.617092
0.619091
0.620886
0.622137
0.622832
0.62305
0.623103
0.623069
0.622958
0.622813
0.622665
0.622524
0.622389
0.622259
0.622133
0.622008
0.621885
0.621762
0.621638
0.621521
0.621425
0.621291
0.621323
0.621268
0.621305
0.62133
0.621518
0.621893
0.622622
0.623699
0.625358
0.627546
0.630538
0.63426
0.638828
0.644301
0.650869
0.658517
0.666111
0.67531
0.685135
0.695634
0.707644
0.719309
0.733868
0.745961
0.760512
0.773158
0.788483
0.799737
0.81329
0.823798
0.835237
0.846371
0.85538
0.864184
0.872807
0.880113
0.887013
0.892029
0.897566
0.900779
0.905851
0.906956
0.911052
0.911267
0.9144
0.914017
0.916101
0.915882
0.916141
0.916927
0.915791
0.917389
0.91588
0.916656
0.915466
0.914021
0.914773
0.913159
0.912988
0.911527
0.9112
0.90962
0.908974
0.907459
0.90659
0.905058
0.904008
0.902462
0.901281
0.899718
0.898425
0.896821
0.895249
0.89359
0.892005
0.890398
0.888864
0.887286
0.885718
0.884093
0.882508
0.880936
0.879435
0.877938
0.87649
0.875056
0.873699
0.872357
0.87109
0.869866
0.868738
0.867697
0.866669
0.865635
0.864567
0.863465
0.86244
0.861545
0.860648
0.859697
0.85885
0.858081
0.857325
0.856556
0.855814
0.855058
0.854349
0.853621
0.852982
0.852318
0.851692
0.85107
0.850438
0.849884
0.849327
0.848781
0.848246
0.847718
0.8472
0.846685
0.846184
0.845685
0.845214
0.844736
0.844274
0.843803
0.843344
0.842877
0.842456
0.842029
0.841632
0.841243
0.840867
0.840503
0.840124
0.839786
0.839432
0.839108
0.838782
0.838448
0.838114
0.837774
0.837448
0.837113
0.836777
0.836438
0.836105
0.835773
0.835455
0.835144
0.834852
0.834479
0.834218
0.833946
0.833684
0.833422
0.833168
0.832906
0.832647
0.832381
0.832185
0.831899
0.831607
0.831321
0.83104
0.830761
0.830399
0.830138
0.829866
0.82964
0.829404
0.829174
0.828944
0.828711
0.828474
0.828232
0.827982
0.827729
0.827467
0.827195
0.826922
0.826648
0.826391
0.826129
0.825878
0.825611
0.825401
0.825183
0.824961
0.824735
0.824506
0.824271
0.82403
0.823781
0.823525
0.823262
0.822995
0.822728
0.822459
0.822194
0.821926
0.821695
0.821458
0.821216
0.820991
0.820761
0.820525
0.820284
0.820038
0.819784
0.819524
0.819257
0.818987
0.818715
0.81844
0.81805
0.615108
0.616433
0.617841
0.619741
0.621258
0.622239
0.622693
0.62284
0.622856
0.622793
0.622663
0.62251
0.622359
0.622213
0.622075
0.621942
0.621815
0.621694
0.621581
0.621478
0.621394
0.62134
0.62134
0.621291
0.621339
0.621392
0.621603
0.62199
0.622733
0.623828
0.625534
0.6278
0.630908
0.634808
0.639787
0.645814
0.652815
0.660758
0.670036
0.680887
0.690899
0.70312
0.717211
0.730449
0.746608
0.760662
0.778049
0.791641
0.808473
0.821422
0.837594
0.849505
0.863548
0.87411
0.885069
0.894743
0.904108
0.909397
0.918675
0.922324
0.929117
0.930747
0.936263
0.936147
0.940815
0.939
0.942488
0.940479
0.943113
0.940946
0.942744
0.940564
0.941865
0.939606
0.939806
0.938917
0.936963
0.938278
0.936326
0.934926
0.935707
0.933625
0.933856
0.932154
0.932105
0.930435
0.93021
0.928781
0.928409
0.927045
0.926568
0.925239
0.924671
0.923395
0.922564
0.921287
0.920148
0.918804
0.917582
0.916247
0.915002
0.913605
0.912153
0.910609
0.909044
0.907442
0.905813
0.904166
0.902507
0.900847
0.899194
0.897549
0.895935
0.894404
0.892913
0.891503
0.89011
0.888667
0.887186
0.885669
0.88421
0.88288
0.881691
0.880436
0.879257
0.878174
0.87711
0.876034
0.874993
0.873933
0.872929
0.8719
0.870973
0.870016
0.869115
0.868213
0.867313
0.866507
0.8657
0.864916
0.86415
0.863399
0.862662
0.861937
0.861229
0.860537
0.859878
0.859215
0.85857
0.85792
0.857282
0.85664
0.856057
0.855466
0.854915
0.854371
0.853838
0.853316
0.852677
0.852185
0.851681
0.8512
0.850738
0.85027
0.849898
0.849427
0.848978
0.848526
0.848081
0.847634
0.847192
0.846755
0.846333
0.845918
0.84544
0.845035
0.844669
0.844294
0.843928
0.843561
0.84321
0.842856
0.842506
0.842154
0.841795
0.841427
0.841058
0.840776
0.840342
0.839991
0.839644
0.83931
0.838967
0.838667
0.838358
0.838052
0.837752
0.83745
0.837146
0.83684
0.836527
0.836214
0.835895
0.83557
0.835244
0.834918
0.834609
0.834297
0.833993
0.833674
0.833408
0.833138
0.832864
0.832587
0.832308
0.832026
0.831739
0.831446
0.831146
0.830842
0.830536
0.830229
0.829924
0.82962
0.829309
0.829041
0.828766
0.828483
0.82822
0.827952
0.82768
0.827403
0.827121
0.826834
0.826541
0.826242
0.82594
0.825639
0.825334
0.8249
0.61541
0.616857
0.618489
0.620208
0.621478
0.622242
0.622537
0.622631
0.622626
0.622544
0.622406
0.622255
0.622109
0.621969
0.621838
0.621715
0.621602
0.621501
0.621418
0.621362
0.621321
0.62134
0.62134
0.621404
0.621609
0.62197
0.622665
0.623702
0.625354
0.627582
0.630707
0.634669
0.639716
0.645863
0.653287
0.662115
0.672113
0.682554
0.694719
0.708999
0.722436
0.738007
0.75684
0.771958
0.791153
0.806518
0.825865
0.840046
0.858161
0.870644
0.887215
0.89825
0.911731
0.920646
0.930889
0.937239
0.945723
0.947292
0.957862
0.955522
0.962292
0.960836
0.965322
0.962524
0.966121
0.962286
0.964935
0.960916
0.96248
0.958494
0.959778
0.955917
0.956964
0.95317
0.953984
0.951192
0.949334
0.949519
0.947144
0.947703
0.945965
0.943733
0.944367
0.942348
0.942329
0.940633
0.9407
0.939269
0.939192
0.937934
0.937898
0.936757
0.936719
0.935657
0.935384
0.934418
0.933965
0.933066
0.932572
0.931768
0.931221
0.930428
0.929687
0.928761
0.92789
0.9269
0.925846
0.924733
0.923559
0.922333
0.921032
0.919699
0.91833
0.916956
0.915558
0.914206
0.912769
0.911214
0.909571
0.907865
0.906123
0.90456
0.90307
0.901628
0.900193
0.898825
0.897491
0.896152
0.894843
0.893515
0.892225
0.890914
0.889699
0.888459
0.887284
0.886103
0.884931
0.883862
0.88279
0.881759
0.880746
0.879759
0.878783
0.877834
0.876905
0.876006
0.875139
0.87428
0.873437
0.872593
0.871763
0.870933