/*--------------------------------*- C++ -*----------------------------------*\
| =========                 |                                                 |
| \\      /  F ield         | OpenFOAM: The Open Source CFD Toolbox           |
|  \\    /   O peration     | Version:  2312                                  |
|   \\  /    A nd           | Website:  www.openfoam.com                      |
|    \\/     M anipulation  |                                                 |
\*---------------------------------------------------------------------------*/
FoamFile
{
    version     2.0;
    format      ascii;
    arch        "LSB;label=32;scalar=64";
    class       volScalarField;
    location    "0.005";
    object      nut;
}
// * * * * * * * * * * * * * * * * * * * * * * * * * * * * * * * * * * * * * //

dimensions      [0 2 -1 0 0 0 0];

internalField   nonuniform List<scalar> 
48128
(
3.34181e-06
4.32912e-06
5.80103e-06
5.89258e-06
5.44511e-06
4.73844e-06
3.93092e-06
3.15827e-06
2.43873e-06
1.69729e-06
3.90954e-06
2.46946e-05
8.16736e-05
0.000150153
0.00020855
0.000257274
0.000298632
0.000334763
0.000367523
0.000398082
0.000427301
0.000455801
0.000483915
0.000511821
0.000539764
0.000567887
0.000596395
0.000625733
0.000655872
0.000687284
0.000719624
0.000752898
0.000787347
0.000822928
0.000859456
0.000897691
0.000937808
0.000979903
0.00102174
0.00106482
0.00110765
0.00114916
0.00119032
0.0012318
0.00127263
0.00131181
0.00134743
0.00138299
0.00141427
0.00144257
0.00146354
0.00148663
0.0015038
0.00152135
0.00152953
0.00155317
0.00158198
0.00160622
0.00162785
0.00164453
0.00165826
0.00166823
0.0016752
0.00168039
0.00168401
0.00168646
0.00168734
0.00168682
0.00167502
0.00157815
0.00149032
0.00141189
0.00134188
0.00127767
0.00121981
0.00116611
0.00111749
0.00107246
0.00103119
0.000992833
0.000957587
0.000925224
0.000894857
0.000866894
0.00084064
0.000816583
0.000793813
0.000773
0.000753234
0.000735071
0.000717765
0.000701867
0.000686818
0.000672818
0.000659494
0.000646932
0.000635005
0.000623999
0.000613911
0.000604612
0.000595959
0.000587746
0.000579874
0.000572401
0.000565439
0.000558902
0.000552866
0.000547173
0.000541871
0.000536849
0.000532214
0.000527851
0.000523854
0.000520075
0.000516559
0.000513207
0.000509895
0.000506459
0.000503129
0.000499271
0.00049625
0.000495184
0.000492935
0.000490485
0.000489196
0.000487515
0.000485701
0.000483914
0.00048208
0.000480295
0.000478528
0.000476879
0.000475297
0.000473789
0.000472331
0.000470919
0.000469642
0.000468514
0.000467457
0.000466452
0.000465487
0.000464591
0.000463739
0.000462931
0.000462169
0.000461463
0.000460747
0.000460018
0.00045924
0.000458442
0.000457618
0.000456832
0.000456064
0.000455315
0.000454542
0.000453762
0.000452965
0.000452127
0.000451306
0.000450574
0.000449807
0.000449205
0.000448789
0.000448326
0.000447877
0.000447506
0.000447125
0.000446787
0.00044641
0.000446014
0.000445569
0.00044509
0.000444591
0.00044407
0.000443536
0.000443006
0.000442506
0.000442049
0.000441591
0.000441212
0.000440927
0.000440675
0.000440436
0.000440258
0.000440063
0.000439842
0.000439609
0.00043936
0.000439082
0.00043876
0.000438379
0.000437997
0.000437621
0.000437243
0.000436907
0.000436611
0.000436386
0.000436193
0.000436026
0.000435876
0.00043573
0.000435586
0.000435445
0.000435282
0.000435081
0.000434852
0.000434582
0.000434317
0.000434039
0.000433641
0.000433408
0.000433191
0.000432987
0.000432829
0.00043269
0.000432571
0.000432458
0.000432339
0.000432206
0.000432059
0.000431905
0.000431716
0.000431521
0.000431279
0.000430991
0.00043078
0.000430561
0.000430342
0.000430184
0.00043004
0.000429902
0.000429778
0.00042966
0.000429539
0.000429409
0.000429268
0.000429115
0.000428948
0.000428761
0.000428457
2.51073e-05
1.97212e-05
1.37754e-05
9.25193e-06
6.87782e-06
5.6305e-06
5.75729e-06
9.77683e-06
2.06337e-05
3.8508e-05
8.25315e-05
0.000169887
0.00031133
0.000533802
0.000784876
0.00105553
0.00133293
0.0016054
0.00187303
0.00213748
0.0024041
0.00267481
0.00295832
0.00325214
0.00356225
0.00388688
0.00422908
0.00459002
0.00495127
0.00534624
0.00575885
0.00617194
0.00659646
0.00702663
0.00744151
0.00785433
0.00821489
0.00859145
0.00895116
0.00930891
0.00966018
0.00998276
0.0102849
0.010568
0.010817
0.0110492
0.0112491
0.0114519
0.0116289
0.011796
0.0118967
0.0120159
0.0120931
0.0121751
0.0121868
0.0121825
0.0121535
0.0120908
0.0120118
0.0119119
0.0117954
0.0116613
0.0115162
0.0113649
0.0112101
0.0110545
0.0108936
0.0107294
0.0105617
0.0103991
0.010245
0.0100864
0.00993346
0.00977619
0.00962091
0.00946629
0.00930774
0.00915199
0.00899482
0.00884093
0.00868373
0.00853414
0.00838465
0.0082422
0.00809721
0.00795877
0.00781896
0.00768603
0.00755263
0.00742634
0.00730031
0.00718035
0.00706208
0.00694888
0.00683829
0.0067312
0.00662591
0.006523
0.00642285
0.00632621
0.00623305
0.0061439
0.00605774
0.00597364
0.00589271
0.00581362
0.00573805
0.0056642
0.00559404
0.0055253
0.00546026
0.00539668
0.00533684
0.00527832
0.00522369
0.00516972
0.00511974
0.00506842
0.00502002
0.00496945
0.00492373
0.00487875
0.00483292
0.00478949
0.00475053
0.00471387
0.00467913
0.00464711
0.00461535
0.0045845
0.00455362
0.00452376
0.00449415
0.00446539
0.00443661
0.00440877
0.00438097
0.00435464
0.0043286
0.0043041
0.00428007
0.00425735
0.00423529
0.00421425
0.00419434
0.00416576
0.00413735
0.00410887
0.00408083
0.00405361
0.0040268
0.00400065
0.00397484
0.00395015
0.00392633
0.00390336
0.00388111
0.00385929
0.00383858
0.00381784
0.00379797
0.00377759
0.00375732
0.00373774
0.00371786
0.0036993
0.00368033
0.00366316
0.00364594
0.0036299
0.00361489
0.00360025
0.00358733
0.00357386
0.00356281
0.00355107
0.00354072
0.0035299
0.00351941
0.00350879
0.00349734
0.00348652
0.0034749
0.00346481
0.0034545
0.00344465
0.00343511
0.00342604
0.00341744
0.00340988
0.00340268
0.0033966
0.00338939
0.00338444
0.00337852
0.003373
0.0033667
0.00336035
0.00335392
0.00334745
0.00334102
0.00333467
0.00332857
0.00332283
0.00331771
0.00331294
0.00330867
0.00330502
0.00330077
0.00329847
0.00329515
0.00329166
0.00328828
0.00328441
0.00328037
0.00327606
0.00327198
0.00326776
0.00326389
0.00326007
0.00325653
0.00325369
0.00325078
0.00324849
0.0032468
0.0032447
0.00324246
0.00324065
0.00323841
0.00323591
0.00323319
0.00323033
0.00322747
0.0032247
0.00322195
0.0032195
0.00321711
0.00321517
0.00321342
0.00321138
3.35044e-05
3.74687e-05
3.99128e-05
2.82554e-05
1.90406e-05
2.04874e-05
3.7736e-05
7.56618e-05
0.000139639
0.000249107
0.000446913
0.000812373
0.00139398
0.00222963
0.00315558
0.00408552
0.0049507
0.00574746
0.0064854
0.0071835
0.00786294
0.00851187
0.00917897
0.00984257
0.0105221
0.0112095
0.0119099
0.012625
0.0133365
0.0140632
0.0147853
0.015493
0.0161959
0.0168724
0.0174966
0.0181045
0.0186679
0.0192337
0.0197512
0.0202432
0.0207127
0.0211251
0.0214875
0.0218085
0.0220616
0.0222772
0.0224262
0.0225703
0.0226663
0.0227445
0.0227185
0.0227067
0.0226391
0.0225684
0.02241
0.0222483
0.0220549
0.0218254
0.0215751
0.0213058
0.0210141
0.020704
0.0203847
0.020062
0.01974
0.0194222
0.0191035
0.0187869
0.0184696
0.01815
0.0178395
0.0175245
0.0172253
0.0169237
0.0166339
0.0163467
0.0160641
0.0157857
0.0155113
0.0152438
0.0149754
0.0147189
0.0144644
0.0142218
0.0139772
0.0137438
0.0135098
0.0132873
0.0130647
0.0128536
0.0126433
0.0124429
0.0122451
0.0120553
0.011869
0.0116879
0.0115101
0.0113362
0.0111668
0.0110027
0.0108437
0.0106901
0.0105406
0.0103941
0.0102524
0.0101132
0.00997956
0.00984806
0.00972253
0.00959847
0.00948051
0.00936408
0.00925388
0.00914496
0.00904269
0.00894006
0.00884526
0.00874598
0.00865295
0.00855644
0.00846589
0.00837962
0.00829119
0.00820432
0.00812676
0.00805201
0.00797983
0.00791168
0.00784386
0.00777788
0.00771211
0.00764819
0.007585
0.00752345
0.00746213
0.00740247
0.00734319
0.00728627
0.00723036
0.00717666
0.00712389
0.00707325
0.00702371
0.00697622
0.00692991
0.00688597
0.00684314
0.00680237
0.00676205
0.00672346
0.00668525
0.00664829
0.00661233
0.00657754
0.00654358
0.00651012
0.00647714
0.00644387
0.00641061
0.00637752
0.00634494
0.00631276
0.00628211
0.00625168
0.00622261
0.00619466
0.00616835
0.00614302
0.00611912
0.00609612
0.00607407
0.00605268
0.00603187
0.00601152
0.00599122
0.00597067
0.00595012
0.0059296
0.00590894
0.00588839
0.00586819
0.00584857
0.00582976
0.00581223
0.00579565
0.00577992
0.00576495
0.00575112
0.00573789
0.00572539
0.00571271
0.00570027
0.00568722
0.00567476
0.00566185
0.00564895
0.00563583
0.00562304
0.00561045
0.00559848
0.0055873
0.00557674
0.00556722
0.00555842
0.00555018
0.00554246
0.00553468
0.00552762
0.00551946
0.00551196
0.00550438
0.00549611
0.00548779
0.00547938
0.00547127
0.00546309
0.00545587
0.00544883
0.00544271
0.00543678
0.00543183
0.00542691
0.00542267
0.00541796
0.00541342
0.00540887
0.00540386
0.00539873
0.00539352
0.00538823
0.00538294
0.00537768
0.00537271
0.00536835
0.00536419
0.00536074
0.00535748
0.00535484
0.00535226
0.00534828
3.9758e-05
6.22555e-05
8.38652e-05
6.13473e-05
5.58556e-05
8.72532e-05
0.000154385
0.000274288
0.000473093
0.000826138
0.00146862
0.00248744
0.00388241
0.0055373
0.00713047
0.00857567
0.00984997
0.0110037
0.0120602
0.0130394
0.0139857
0.0148964
0.0158149
0.0167223
0.0176377
0.0185534
0.0194697
0.0203845
0.0212841
0.0221759
0.0230391
0.0238722
0.024661
0.0254098
0.026094
0.0267383
0.0273304
0.0278977
0.0283907
0.0288258
0.0292166
0.0295367
0.0297878
0.0299853
0.0301007
0.030159
0.0301338
0.0300859
0.0299864
0.0298548
0.029626
0.0293932
0.029115
0.0288241
0.0284667
0.0281131
0.0277257
0.0273208
0.0269031
0.0264734
0.0260297
0.0255807
0.0251333
0.0246903
0.0242557
0.0238323
0.0234163
0.0230124
0.0226154
0.0222195
0.0218415
0.0214638
0.0211074
0.0207515
0.0204137
0.0200791
0.0197589
0.0194428
0.0191362
0.0188378
0.0185439
0.0182615
0.0179842
0.017718
0.0174538
0.0171999
0.0169487
0.0167078
0.0164697
0.0162414
0.0160163
0.0158003
0.015588
0.0153833
0.0151819
0.0149849
0.0147918
0.0146026
0.0144188
0.0142403
0.0140673
0.0138989
0.0137344
0.0135723
0.0134152
0.0132604
0.0131114
0.0129642
0.0128233
0.0126833
0.0125499
0.0124174
0.0122918
0.0121669
0.0120493
0.0119306
0.0118206
0.0117039
0.0115941
0.0114804
0.0113692
0.0112691
0.0111656
0.0110609
0.0109683
0.0108789
0.0107909
0.0107067
0.0106227
0.0105406
0.0104584
0.0103782
0.0102985
0.0102205
0.0101426
0.0100664
0.00999051
0.00991725
0.00984512
0.00977542
0.0097066
0.00964021
0.00957488
0.00951198
0.00945025
0.00939115
0.00933305
0.00927753
0.00922223
0.00916914
0.0091163
0.00906514
0.00901489
0.00896635
0.00891839
0.00887146
0.0088246
0.00877774
0.00873052
0.00868379
0.0086375
0.0085918
0.00854789
0.00850481
0.00846292
0.00842282
0.00838463
0.00834786
0.00831278
0.00827883
0.00824613
0.00821406
0.00818277
0.00815194
0.00812118
0.00809031
0.00805937
0.00802872
0.00799763
0.00796731
0.00793731
0.00790855
0.00788038
0.00785412
0.00782871
0.0078047
0.00778149
0.00776002
0.00773893
0.00771911
0.00769888
0.00767917
0.00765889
0.00763867
0.00761838
0.00759803
0.00757792
0.00755823
0.00753895
0.00752074
0.00750346
0.00748725
0.00747199
0.0074579
0.00744439
0.00743179
0.00741922
0.00740752
0.00739443
0.00738157
0.00736897
0.00735605
0.00734312
0.00733015
0.00731773
0.0073054
0.00729432
0.00728357
0.00727392
0.00726468
0.00725664
0.00724858
0.00724177
0.00723396
0.00722634
0.00721895
0.00721107
0.00720314
0.0071952
0.00718733
0.00717945
0.00717189
0.00716467
0.00715828
0.00715215
0.00714692
0.00714197
0.00713782
0.00713374
0.00712771
4.47359e-05
0.000118724
0.000169201
0.000121354
0.000156708
0.000240361
0.000394523
0.000665533
0.00115199
0.00202048
0.00335958
0.00520416
0.00727413
0.00935026
0.0112566
0.0129679
0.0145087
0.0158699
0.0171246
0.018296
0.0194205
0.0205055
0.0215818
0.0226393
0.0236909
0.0247293
0.0257505
0.0267512
0.0277179
0.0286523
0.0295327
0.0303528
0.0311093
0.0318098
0.0324321
0.0329965
0.0334967
0.0339461
0.0343075
0.0345791
0.0347906
0.0349246
0.0349843
0.0349785
0.0348739
0.0346894
0.0344182
0.0341069
0.0337534
0.0333546
0.0328835
0.0324
0.0318926
0.0313705
0.0306574
0.0300885
0.029301
0.0287078
0.0280664
0.0274694
0.0269347
0.0264138
0.026007
0.0255825
0.0252132
0.0247817
0.0244422
0.0241109
0.0237501
0.0233477
0.0229608
0.0225797
0.0222193
0.0218625
0.0215287
0.0211984
0.0208904
0.0205858
0.0202979
0.0200185
0.0197508
0.019492
0.019243
0.0190014
0.0187659
0.018537
0.0183143
0.0180985
0.0178883
0.017685
0.0174872
0.0172961
0.0171099
0.0169292
0.0167515
0.0165767
0.0164055
0.0162372
0.016074
0.015915
0.015761
0.0156105
0.0154632
0.0153176
0.0151761
0.0150363
0.0149015
0.0147678
0.0146397
0.014512
0.0143899
0.0142682
0.0141526
0.0140373
0.0139284
0.0138186
0.0137161
0.0136073
0.0135033
0.0133964
0.0132871
0.0131938
0.0130979
0.0129985
0.0129093
0.0128239
0.0127394
0.0126577
0.0125761
0.0124963
0.0124159
0.0123371
0.0122585
0.0121814
0.0121039
0.0120279
0.0119517
0.011878
0.0118052
0.0117346
0.0116645
0.0115968
0.0115298
0.0114651
0.0114013
0.01134
0.0112796
0.0112217
0.0111638
0.011108
0.0110521
0.010998
0.0109443
0.0108926
0.0108408
0.0107905
0.0107394
0.0106887
0.010637
0.0105861
0.0105351
0.0104846
0.010436
0.0103885
0.0103419
0.0102973
0.0102545
0.0102134
0.010174
0.0101359
0.010099
0.0100627
0.0100271
0.00999183
0.00995649
0.00992101
0.00988531
0.00984997
0.00981377
0.0097786
0.00974369
0.0097105
0.00967755
0.00964687
0.00961705
0.00958897
0.00956162
0.00953624
0.00951115
0.00948744
0.00946317
0.00943942
0.00941491
0.00939079
0.00936611
0.00934151
0.0093172
0.00929342
0.0092701
0.00924825
0.00922723
0.0092077
0.00918897
0.00917184
0.00915515
0.00913964
0.00912404
0.0091095
0.00909357
0.00907751
0.00906159
0.00904562
0.00902964
0.00901362
0.00899842
0.0089834
0.00896987
0.00895674
0.00894492
0.00893356
0.00892372
0.00891372
0.0089053
0.00889571
0.00888624
0.00887702
0.00886732
0.00885759
0.00884783
0.00883836
0.00882885
0.00881987
0.0088113
0.00880377
0.00879654
0.00879041
0.0087846
0.00877969
0.00877493
0.00876798
4.9141e-05
0.000222664
0.000292671
0.000231402
0.000315679
0.000482822
0.000789391
0.00134117
0.00233814
0.00386696
0.00593966
0.0082749
0.0106646
0.0129405
0.0150136
0.0169086
0.0185624
0.0200609
0.0214442
0.0227359
0.0239684
0.0251529
0.026311
0.0274396
0.0285439
0.0296188
0.0306569
0.0316536
0.0325943
0.0334757
0.0342774
0.0350066
0.0356545
0.036229
0.0367112
0.0371042
0.0374187
0.0376584
0.0378003
0.0378203
0.0377682
0.0376286
0.0374251
0.0371527
0.0364725
0.035426
0.0344295
0.0333563
0.0323067
0.0311887
0.0303068
0.0294528
0.0285288
0.0277112
0.0268574
0.0264436
0.0256769
0.0250045
0.0244631
0.0237848
0.023355
0.022796
0.0224695
0.0220459
0.0217199
0.0213023
0.0209933
0.0206905
0.0204221
0.0202188
0.0199894
0.0198499
0.0196773
0.0195448
0.0194226
0.0193
0.0192379
0.0191505
0.0190955
0.0190481
0.0190398
0.0189962
0.0188601
0.0186714
0.0184919
0.0183145
0.0181463
0.0179811
0.017824
0.0176708
0.0175234
0.0173803
0.0172425
0.0171077
0.0169748
0.0168431
0.0167144
0.0165864
0.0164627
0.0163415
0.0162247
0.0161099
0.0159978
0.0158863
0.0157778
0.0156698
0.0155655
0.0154617
0.015362
0.015262
0.0151663
0.0150703
0.014979
0.0148876
0.0148013
0.0147137
0.0146317
0.0145445
0.0144604
0.0143738
0.0142821
0.0142067
0.0141302
0.0140501
0.0139755
0.0139054
0.0138364
0.0137689
0.0137016
0.0136356
0.0135688
0.0135032
0.0134372
0.0133723
0.0133068
0.0132424
0.0131774
0.0131144
0.0130518
0.0129911
0.0129307
0.012872
0.0128138
0.0127575
0.0127018
0.0126482
0.0125952
0.0125443
0.0124934
0.0124442
0.0123947
0.0123468
0.0122988
0.0122528
0.0122062
0.0121612
0.0121148
0.0120691
0.0120218
0.0119752
0.0119282
0.0118813
0.0118362
0.0117922
0.0117488
0.0117072
0.011667
0.0116286
0.0115917
0.011556
0.0115215
0.0114874
0.0114538
0.0114205
0.0113869
0.011353
0.0113189
0.0112848
0.0112499
0.0112157
0.0111817
0.0111495
0.0111173
0.0110875
0.0110584
0.0110312
0.0110045
0.0109798
0.0109553
0.0109321
0.0109083
0.0108849
0.0108606
0.0108367
0.010812
0.0107875
0.010763
0.0107393
0.0107158
0.010694
0.0106727
0.0106533
0.0106344
0.0106174
0.0106006
0.0105853
0.0105696
0.010555
0.0105392
0.0105229
0.0105067
0.0104904
0.0104742
0.0104578
0.0104425
0.0104272
0.0104136
0.0104004
0.0103886
0.0103772
0.0103676
0.0103577
0.0103496
0.0103402
0.0103309
0.0103217
0.0103122
0.0103025
0.0102928
0.0102835
0.0102741
0.0102653
0.010257
0.0102499
0.0102431
0.0102375
0.0102323
0.010228
0.0102239
0.010218
5.36335e-05
0.000344797
0.00041863
0.000377754
0.000545889
0.00085484
0.00139964
0.0024132
0.00400221
0.00616383
0.0086261
0.0112255
0.0137613
0.0161303
0.018319
0.0202612
0.0219867
0.0235659
0.0250206
0.0263751
0.0276569
0.0288795
0.0300572
0.0311911
0.0322818
0.0333253
0.0343121
0.0352359
0.0360806
0.0368425
0.0375077
0.0380793
0.03855
0.0389211
0.0391894
0.0393501
0.0394204
0.0393984
0.0392797
0.0383402
0.0372447
0.0358732
0.0347143
0.0335709
0.0325155
0.0313307
0.0302712
0.029185
0.0281492
0.0271024
0.0261652
0.0254559
0.0245417
0.0237927
0.0228548
0.0225314
0.0218185
0.0209886
0.020499
0.0198024
0.0193728
0.0188064
0.0184835
0.0180509
0.0177406
0.0173497
0.0170529
0.0167686
0.0165344
0.0163511
0.0161678
0.0160642
0.0159376
0.0158602
0.0157858
0.0157278
0.0157141
0.0156868
0.0156946
0.0157156
0.0157556
0.0157828
0.0158298
0.0158802
0.0159474
0.0160022
0.016074
0.0161357
0.0162002
0.0162693
0.0163457
0.0163612
0.0162912
0.0162187
0.0161467
0.0160732
0.0160013
0.0159274
0.0158571
0.0157877
0.0157214
0.0156555
0.0155912
0.015526
0.0154618
0.0153967
0.0153334
0.0152693
0.0152076
0.0151446
0.0150842
0.0150228
0.0149641
0.0149051
0.0148492
0.0147917
0.0147385
0.014681
0.0146261
0.0145678
0.014504
0.014452
0.0144019
0.0143485
0.0142958
0.0142473
0.0142004
0.0141539
0.0141078
0.0140623
0.0140161
0.0139704
0.0139239
0.0138782
0.0138317
0.0137859
0.0137392
0.0136937
0.0136483
0.0136042
0.0135601
0.0135173
0.0134746
0.0134332
0.0133921
0.0133524
0.0133133
0.0132756
0.0132381
0.0132015
0.0131649
0.013129
0.0130932
0.0130588
0.0130238
0.0129899
0.0129547
0.0129202
0.0128837
0.012848
0.0128113
0.0127742
0.0127388
0.0127045
0.0126702
0.0126375
0.0126055
0.0125754
0.0125464
0.0125184
0.0124913
0.0124647
0.0124382
0.0124119
0.0123854
0.0123583
0.012331
0.0123034
0.0122751
0.0122472
0.0122192
0.0121927
0.0121663
0.012142
0.0121183
0.0120963
0.0120747
0.0120548
0.0120351
0.0120165
0.0119974
0.0119785
0.0119587
0.011939
0.0119186
0.0118983
0.0118777
0.0118581
0.0118382
0.0118203
0.0118024
0.0117866
0.011771
0.0117576
0.011744
0.011732
0.0117193
0.0117079
0.0116953
0.011682
0.0116687
0.0116551
0.0116419
0.0116282
0.0116156
0.0116029
0.0115921
0.0115813
0.0115723
0.0115633
0.0115563
0.0115489
0.0115432
0.0115365
0.0115296
0.0115228
0.0115157
0.0115084
0.0115009
0.0114939
0.0114868
0.0114803
0.0114744
0.0114695
0.0114651
0.0114618
0.0114589
0.011457
0.0114552
0.0114529
6.019e-05
0.000459862
0.000571681
0.000577141
0.000887103
0.00138737
0.00229946
0.00384247
0.00597204
0.00847106
0.0111709
0.0138889
0.0164802
0.018907
0.0211112
0.0230627
0.0248244
0.026436
0.0279154
0.0292862
0.0305686
0.0317778
0.0329237
0.0340091
0.0350326
0.0359902
0.0368716
0.0376687
0.0383644
0.038956
0.0394312
0.0397934
0.0400418
0.0401633
0.0401767
0.0394003
0.0382311
0.0370326
0.0354072
0.0341421
0.0328996
0.0314898
0.0304543
0.0293814
0.0284249
0.0273047
0.0263123
0.025404
0.0243872
0.0234328
0.0223693
0.0217825
0.0208553
0.0201234
0.0192009
0.0187293
0.0180543
0.017156
0.0166452
0.0159695
0.015531
0.0149933
0.0146572
0.0142399
0.0139429
0.0136063
0.013329
0.0130822
0.0128844
0.012722
0.012582
0.0124864
0.0123961
0.0123322
0.0122871
0.0122567
0.0122538
0.0122613
0.0122708
0.0123378
0.012358
0.0124428
0.0124792
0.0126158
0.0126746
0.012828
0.0129083
0.0130707
0.0131579
0.0133274
0.0134399
0.0136112
0.0137084
0.0138679
0.0139588
0.0141133
0.0142509
0.0144018
0.0144783
0.0144726
0.0144664
0.0144576
0.0144485
0.0144361
0.0144228
0.0144072
0.0143922
0.0143751
0.0143587
0.0143395
0.0143212
0.0143008
0.0142811
0.0142606
0.0142407
0.0142191
0.0142002
0.0141787
0.0141587
0.0141337
0.0141049
0.01408
0.0140596
0.0140369
0.0140113
0.0139878
0.0139667
0.013945
0.0139242
0.0139028
0.0138813
0.0138591
0.0138363
0.0138138
0.0137902
0.0137672
0.0137426
0.0137187
0.0136944
0.0136708
0.0136469
0.0136237
0.0136003
0.0135777
0.0135549
0.0135329
0.0135113
0.0134904
0.0134699
0.0134497
0.0134295
0.0134095
0.0133895
0.0133703
0.0133507
0.0133316
0.0133117
0.013292
0.0132706
0.0132496
0.0132276
0.0132046
0.0131829
0.0131622
0.0131411
0.013121
0.0131013
0.013083
0.0130656
0.0130489
0.0130329
0.0130173
0.0130017
0.0129861
0.0129702
0.0129538
0.0129369
0.0129199
0.0129021
0.0128843
0.0128661
0.0128492
0.0128322
0.012817
0.0128021
0.0127887
0.0127755
0.0127638
0.0127521
0.0127416
0.0127304
0.0127194
0.0127075
0.0126955
0.0126827
0.0126701
0.0126568
0.0126445
0.0126317
0.0126209
0.0126096
0.0126004
0.0125912
0.0125842
0.0125766
0.0125708
0.012564
0.0125586
0.012552
0.0125446
0.0125372
0.0125293
0.0125218
0.0125136
0.0125066
0.0124992
0.0124937
0.012488
0.0124842
0.01248
0.012478
0.0124754
0.0124745
0.0124727
0.0124705
0.0124684
0.012466
0.0124633
0.0124604
0.0124578
0.0124552
0.0124532
0.0124517
0.0124511
0.012451
0.0124519
0.0124532
0.0124555
0.0124578
0.0124617
6.80898e-05
0.000602082
0.000771833
0.000874256
0.0013437
0.00211966
0.00348671
0.00550563
0.00793977
0.010647
0.013462
0.0162155
0.0188155
0.0212608
0.0234231
0.0253664
0.0271291
0.0287358
0.030202
0.0315481
0.0327893
0.0339405
0.0350095
0.0360001
0.0369102
0.0377356
0.0384662
0.0390915
0.0395977
0.0399802
0.0402263
0.0403407
0.0397987
0.038449
0.0368088
0.035166
0.0338654
0.0325792
0.0309928
0.0298877
0.0288501
0.0276408
0.0269486
0.0258799
0.0248879
0.0238521
0.022732
0.0219603
0.020873
0.0199384
0.018743
0.0180991
0.0171641
0.0164281
0.0155788
0.0148688
0.0143656
0.0136222
0.0131103
0.0125405
0.0121619
0.0117309
0.0114197
0.0110973
0.0108358
0.0106011
0.0103707
0.010201
0.0100501
0.00994263
0.00984537
0.00976783
0.00972773
0.009652
0.0096589
0.00962378
0.00964094
0.00966458
0.00965933
0.00975709
0.00974206
0.00984422
0.00987734
0.010003
0.0100439
0.0101788
0.0102437
0.010381
0.0104585
0.010596
0.010703
0.0108456
0.0109588
0.0111113
0.011228
0.0114009
0.0115802
0.0117594
0.0119055
0.012061
0.0121842
0.0123203
0.0124555
0.0126007
0.0127343
0.0128286
0.0128706
0.0129076
0.0129423
0.0129725
0.0130017
0.013028
0.013053
0.0130757
0.0130969
0.0131156
0.0131352
0.013154
0.0131721
0.0131854
0.0131956
0.0132033
0.0132149
0.0132246
0.0132304
0.0132358
0.0132432
0.0132495
0.0132566
0.0132625
0.0132683
0.0132728
0.0132765
0.0132799
0.0132821
0.0132844
0.0132846
0.0132848
0.0132841
0.0132836
0.0132822
0.0132811
0.0132792
0.0132776
0.0132755
0.0132733
0.0132714
0.0132695
0.013268
0.0132663
0.0132647
0.0132628
0.0132607
0.0132588
0.0132566
0.0132547
0.0132522
0.0132495
0.0132459
0.0132419
0.0132371
0.013231
0.0132253
0.0132204
0.0132149
0.0132098
0.0132048
0.0132005
0.013197
0.0131937
0.0131912
0.0131887
0.0131864
0.0131838
0.0131811
0.0131778
0.0131737
0.01317
0.0131651
0.0131601
0.0131542
0.0131496
0.0131444
0.0131406
0.013137
0.0131346
0.0131321
0.0131309
0.0131296
0.0131293
0.0131285
0.0131277
0.0131261
0.0131243
0.0131218
0.0131194
0.013116
0.0131134
0.0131102
0.0131088
0.0131067
0.0131064
0.0131059
0.0131075
0.0131083
0.0131109
0.0131123
0.013115
0.0131167
0.0131177
0.0131184
0.0131185
0.0131191
0.0131188
0.0131196
0.0131198
0.0131219
0.0131234
0.0131269
0.0131297
0.0131347
0.013139
0.0131448
0.0131499
0.0131545
0.0131591
0.0131635
0.0131674
0.0131711
0.013175
0.0131789
0.0131833
0.013188
0.0131937
0.0131996
0.0132066
0.0132137
0.0132221
0.01323
0.0132426
7.67956e-05
0.000767691
0.000947171
0.0012637
0.00194115
0.00305843
0.00486435
0.00716467
0.00979478
0.0126098
0.0154581
0.0182013
0.0207974
0.0231898
0.0253066
0.0272216
0.0289561
0.0305261
0.0319445
0.0332278
0.0343883
0.0354398
0.0363896
0.037242
0.0379962
0.0386464
0.0391848
0.0396031
0.0398874
0.0400326
0.0387502
0.0370799
0.0354937
0.0339299
0.032311
0.0308036
0.0297819
0.028692
0.0273495
0.0263701
0.0256296
0.0244833
0.0237546
0.0226473
0.021485
0.0205816
0.0192798
0.0185115
0.017326
0.0164077
0.0152791
0.014567
0.0137586
0.0131275
0.0125288
0.0116689
0.0113439
0.0108346
0.0103245
0.00992035
0.00954014
0.0092827
0.00897162
0.00875315
0.00851827
0.00840074
0.00820933
0.00813379
0.00799711
0.00797155
0.00787595
0.00784343
0.00783909
0.00775795
0.0078229
0.00776075
0.00783063
0.00781237
0.00787967
0.00789201
0.00791448
0.00796373
0.00802306
0.00809119
0.00816885
0.00824672
0.00831156
0.00838098
0.00845603
0.00852869
0.00861153
0.00869032
0.0087797
0.00886538
0.00897875
0.00909765
0.00924879
0.00937733
0.00951423
0.00964065
0.00976381
0.00989358
0.0100418
0.0101926
0.0103484
0.0105006
0.0106487
0.0107939
0.0109387
0.0110785
0.0111891
0.0112701
0.0113471
0.0114184
0.0114867
0.0115505
0.0116141
0.011676
0.0117375
0.0117936
0.0118458
0.011894
0.011941
0.0119851
0.0120259
0.0120646
0.0121029
0.0121403
0.0121776
0.0122139
0.0122492
0.0122835
0.0123165
0.0123484
0.0123792
0.0124093
0.0124371
0.0124639
0.0124892
0.0125141
0.0125374
0.0125605
0.0125821
0.0126034
0.0126236
0.0126432
0.0126624
0.0126814
0.0127002
0.0127188
0.0127372
0.0127548
0.0127721
0.0127892
0.0128058
0.0128225
0.0128388
0.0128547
0.0128701
0.0128849
0.0128986
0.012911
0.012923
0.0129352
0.0129468
0.012958
0.0129692
0.0129802
0.012992
0.0130036
0.0130159
0.0130279
0.0130401
0.0130521
0.0130639
0.0130753
0.0130858
0.0130966
0.0131063
0.0131156
0.0131238
0.013133
0.0131413
0.0131504
0.0131595
0.0131697
0.0131794
0.0131901
0.0132006
0.013212
0.013223
0.0132341
0.0132444
0.0132545
0.0132639
0.0132733
0.0132816
0.0132905
0.0132987
0.0133082
0.0133171
0.0133272
0.013337
0.0133486
0.0133595
0.0133719
0.0133832
0.0133957
0.0134074
0.0134184
0.0134291
0.0134389
0.0134494
0.0134587
0.0134691
0.0134786
0.0134899
0.0135004
0.0135128
0.0135242
0.0135377
0.0135504
0.0135646
0.0135782
0.0135913
0.0136041
0.013617
0.0136292
0.0136411
0.0136533
0.0136653
0.0136776
0.0136903
0.0137037
0.0137172
0.0137318
0.0137463
0.013762
0.0137772
0.0138006
8.48835e-05
0.00095468
0.00118384
0.00174425
0.0026739
0.00415246
0.00625998
0.00873861
0.0114695
0.0143225
0.0171547
0.0198592
0.022425
0.0247394
0.0268043
0.0286708
0.0303511
0.0318542
0.0331899
0.0343715
0.0354102
0.0363194
0.0371063
0.037777
0.0383331
0.0387674
0.0390807
0.0392647
0.0378009
0.0360741
0.0342204
0.0324382
0.03104
0.0297424
0.0284875
0.0272603
0.0264627
0.0254994
0.0242795
0.0232727
0.0229253
0.0216978
0.0204413
0.0195399
0.018172
0.0173246
0.0160019
0.0152355
0.0141412
0.0134505
0.0125444
0.0117845
0.0110776
0.0104955
0.010056
0.00927656
0.0088609
0.00858085
0.00808331
0.00785588
0.00746489
0.00734647
0.00700702
0.00689541
0.00663148
0.00665324
0.00646132
0.00627163
0.0061252
0.00597104
0.00586427
0.0057525
0.00567948
0.00560824
0.00555277
0.0055183
0.00548044
0.0054743
0.00546546
0.00547415
0.00548925
0.00551291
0.00554483
0.00558611
0.0056377
0.0056979
0.00576615
0.00584306
0.00592892
0.00602079
0.00612167
0.00622913
0.00634607
0.00646946
0.00660127
0.00673883
0.00688642
0.00703129
0.00718377
0.00733242
0.00748326
0.00763266
0.00778783
0.00794271
0.00809893
0.00825271
0.00840547
0.00855392
0.00870024
0.0088408
0.00897842
0.00910861
0.00923356
0.00935199
0.00946659
0.00957684
0.00968689
0.00979466
0.00990162
0.0100043
0.0101015
0.0101939
0.0102803
0.0103625
0.0104405
0.0105164
0.0105885
0.0106602
0.0107299
0.0107997
0.0108674
0.0109345
0.0109996
0.0110636
0.0111261
0.0111867
0.0112449
0.0113016
0.0113557
0.0114087
0.0114591
0.0115087
0.0115558
0.0116024
0.0116467
0.0116904
0.0117326
0.0117744
0.0118153
0.0118561
0.0118956
0.0119349
0.0119729
0.0120104
0.0120472
0.0120842
0.0121205
0.0121566
0.012192
0.012227
0.0122603
0.0122927
0.0123237
0.0123543
0.012384
0.0124128
0.0124411
0.0124686
0.0124967
0.012524
0.012552
0.0125795
0.0126072
0.0126347
0.012662
0.0126889
0.0127152
0.0127415
0.0127669
0.0127914
0.0128149
0.0128388
0.0128615
0.0128847
0.0129074
0.0129309
0.0129537
0.0129773
0.0130006
0.0130245
0.0130483
0.0130721
0.0130954
0.0131184
0.0131408
0.013163
0.0131842
0.0132056
0.0132263
0.0132478
0.0132687
0.0132901
0.0133114
0.0133338
0.013356
0.013379
0.0134015
0.0134245
0.0134475
0.0134696
0.0134914
0.0135122
0.0135336
0.0135539
0.013575
0.0135951
0.0136167
0.0136374
0.0136597
0.0136811
0.0137041
0.0137264
0.01375
0.0137733
0.0137961
0.0138184
0.013841
0.0138628
0.0138843
0.0139058
0.0139272
0.0139488
0.0139705
0.0139929
0.0140152
0.0140385
0.0140615
0.0140859
0.0141094
0.0141454
9.165e-05
0.00114747
0.00151485
0.00230024
0.00350213
0.005282
0.00757359
0.0101641
0.0129319
0.0157733
0.0185584
0.0212114
0.0237103
0.0259458
0.027955
0.0297605
0.0313618
0.0327637
0.0339742
0.0350062
0.0358727
0.0365897
0.0371679
0.0376108
0.0379304
0.0381191
0.0368369
0.0350081
0.0331273
0.0313444
0.0297974
0.028393
0.0274536
0.0264431
0.0253978
0.0242422
0.0235108
0.022897
0.0218276
0.0206706
0.020228
0.0189377
0.0172481
0.0165905
0.015257
0.0145202
0.0134166
0.0126878
0.01171
0.0111049
0.0103604
0.0095581
0.00890286
0.00829394
0.00788686
0.00742567
0.00684875
0.00675235
0.00629858
0.00608762
0.00576393
0.00543793
0.0051944
0.00495142
0.00477561
0.00460052
0.0044779
0.00434766
0.00425738
0.00416134
0.00409558
0.00402401
0.00398074
0.00393168
0.00390041
0.00387242
0.00384277
0.00383065
0.00381614
0.00381168
0.00381329
0.00381752
0.00382763
0.00384274
0.00386397
0.00388992
0.00392215
0.00395972
0.00400418
0.0040543
0.00411182
0.00417576
0.00424633
0.0043253
0.00441008
0.00450517
0.00460531
0.00471545
0.00482998
0.00495164
0.00507904
0.00521155
0.00535298
0.0054981
0.00564926
0.0058021
0.00595953
0.00611601
0.00627527
0.00643086
0.00658805
0.00673904
0.00688973
0.00703811
0.00718483
0.00733068
0.00747719
0.00762493
0.00777114
0.00791477
0.00805333
0.00818016
0.00830301
0.00842014
0.00853473
0.00864317
0.00875077
0.0088556
0.00896012
0.0090627
0.0091655
0.0092654
0.00936543
0.0094623
0.00955943
0.00965212
0.00974281
0.00983119
0.00991629
0.00999909
0.0100788
0.0101568
0.0102318
0.0103053
0.0103759
0.0104457
0.0105127
0.0105797
0.0106444
0.0107094
0.0107719
0.0108344
0.0108946
0.0109545
0.0110131
0.011072
0.0111298
0.011188
0.0112447
0.0113014
0.011356
0.0114095
0.0114615
0.0115119
0.0115609