/*--------------------------------*- C++ -*----------------------------------*\
| =========                 |                                                 |
| \\      /  F ield         | OpenFOAM: The Open Source CFD Toolbox           |
|  \\    /   O peration     | Version:  2312                                  |
|   \\  /    A nd           | Website:  www.openfoam.com                      |
|    \\/     M anipulation  |                                                 |
\*---------------------------------------------------------------------------*/
FoamFile
{
    version     2.0;
    format      ascii;
    arch        "LSB;label=32;scalar=64";
    class       volScalarField;
    location    "0.005";
    object      omega;
}
// * * * * * * * * * * * * * * * * * * * * * * * * * * * * * * * * * * * * * //

dimensions      [0 0 -1 0 0 0 0];

internalField   nonuniform List<scalar> 
48128
(
2.15902e+06
2.15983e+06
2.16575e+06
2.17232e+06
2.17298e+06
2.17489e+06
2.17645e+06
2.1793e+06
2.183e+06
2.18744e+06
2.18194e+06
2.1908e+06
2.21573e+06
2.25618e+06
2.29942e+06
2.33739e+06
2.36786e+06
2.39264e+06
2.41234e+06
2.4275e+06
2.43868e+06
2.44657e+06
2.45138e+06
2.45318e+06
2.45204e+06
2.44811e+06
2.44145e+06
2.43132e+06
2.41911e+06
2.40475e+06
2.38834e+06
2.3702e+06
2.35081e+06
2.33021e+06
2.30912e+06
2.28791e+06
2.2673e+06
2.24752e+06
2.22831e+06
2.20985e+06
2.19219e+06
2.17492e+06
2.15878e+06
2.14441e+06
2.13197e+06
2.11946e+06
2.10757e+06
2.09636e+06
2.08522e+06
2.07286e+06
2.05784e+06
2.04539e+06
2.03098e+06
2.01806e+06
1.99993e+06
1.9956e+06
1.99762e+06
1.99774e+06
1.99727e+06
1.99426e+06
1.99012e+06
1.98406e+06
1.97657e+06
1.96858e+06
1.96018e+06
1.95165e+06
1.94256e+06
1.93296e+06
1.92251e+06
1.91056e+06
1.89807e+06
1.88505e+06
1.8725e+06
1.85984e+06
1.84737e+06
1.83504e+06
1.82259e+06
1.81037e+06
1.79813e+06
1.78599e+06
1.77369e+06
1.76196e+06
1.75026e+06
1.73925e+06
1.72818e+06
1.71774e+06
1.70724e+06
1.69733e+06
1.68738e+06
1.67806e+06
1.66883e+06
1.66011e+06
1.65161e+06
1.64357e+06
1.63587e+06
1.62863e+06
1.62177e+06
1.61528e+06
1.6091e+06
1.60313e+06
1.59735e+06
1.5918e+06
1.58654e+06
1.58152e+06
1.57685e+06
1.57239e+06
1.56823e+06
1.56421e+06
1.56045e+06
1.55683e+06
1.55344e+06
1.55017e+06
1.54709e+06
1.54406e+06
1.54119e+06
1.53836e+06
1.53566e+06
1.533e+06
1.53062e+06
1.5279e+06
1.52738e+06
1.52577e+06
1.52371e+06
1.52233e+06
1.52052e+06
1.51856e+06
1.51655e+06
1.51465e+06
1.51277e+06
1.51105e+06
1.50942e+06
1.50798e+06
1.50664e+06
1.50544e+06
1.50433e+06
1.50332e+06
1.50246e+06
1.50166e+06
1.50088e+06
1.5001e+06
1.49936e+06
1.49861e+06
1.49788e+06
1.49713e+06
1.49641e+06
1.49563e+06
1.49478e+06
1.49385e+06
1.49286e+06
1.49183e+06
1.49079e+06
1.48975e+06
1.48871e+06
1.48767e+06
1.48663e+06
1.48563e+06
1.48465e+06
1.48373e+06
1.4829e+06
1.48224e+06
1.48157e+06
1.4812e+06
1.48075e+06
1.48028e+06
1.47979e+06
1.47925e+06
1.47864e+06
1.47795e+06
1.47716e+06
1.4763e+06
1.47539e+06
1.47443e+06
1.47352e+06
1.47258e+06
1.47177e+06
1.471e+06
1.47037e+06
1.46983e+06
1.46937e+06
1.46904e+06
1.46874e+06
1.46842e+06
1.46809e+06
1.46769e+06
1.46719e+06
1.46663e+06
1.46598e+06
1.46527e+06
1.46449e+06
1.46369e+06
1.46287e+06
1.46217e+06
1.46146e+06
1.46093e+06
1.46046e+06
1.46012e+06
1.45984e+06
1.45957e+06
1.45928e+06
1.45895e+06
1.45857e+06
1.45812e+06
1.4576e+06
1.45699e+06
1.45632e+06
1.4556e+06
1.45488e+06
1.45421e+06
1.45345e+06
1.45289e+06
1.45251e+06
1.45213e+06
1.45184e+06
1.45157e+06
1.45129e+06
1.45099e+06
1.45063e+06
1.4502e+06
1.44971e+06
1.44916e+06
1.44855e+06
1.44791e+06
1.44723e+06
1.44652e+06
1.44593e+06
1.44542e+06
1.44491e+06
1.44453e+06
1.4442e+06
1.44387e+06
1.44354e+06
1.44318e+06
1.44279e+06
1.44235e+06
1.44185e+06
1.44131e+06
1.44072e+06
1.4401e+06
1.43946e+06
1.43856e+06
779087
498080
398247
413839
432055
450017
482675
523561
644997
851030
997427
1.06501e+06
1.06948e+06
964951
881656
820997
778304
750618
732499
720500
712480
707025
702763
699324
696327
693633
691154
688720
687678
685491
683075
681785
680929
680309
681270
682727
688165
692815
697878
702709
707395
712462
717402
722200
727113
731745
736470
740759
744997
748648
752026
754619
756988
758732
759762
761312
763505
765557
766733
767057
766717
765811
764228
762038
759345
756235
752818
749082
744984
740121
734645
728891
722892
716803
710651
704430
698379
692187
686223
680211
674419
668502
662822
657082
651677
646196
641050
635852
630975
626042
621460
616854
612565
608281
604224
600172
596349
592712
589337
586126
583156
580265
577508
574854
572361
570008
567812
565756
563830
562054
560380
558874
557468
556219
555047
554021
552967
551951
550856
549885
548389
548254
548021
547273
547090
546941
546749
546540
546357
546165
545966
545771
545573
545401
545232
545084
544976
544912
544918
544957
545030
545141
545286
545466
545666
545884
546102
546326
546556
546779
547011
547256
547513
547787
548046
548321
548570
548818
549074
549307
549552
549796
550157
550583
551044
551487
551980
552480
552989
553503
553968
554436
554828
555274
555566
555966
556226
556504
556801
557056
557399
557736
558158
558463
558828
559205
559583
559946
560313
560608
560881
561055
561345
561403
561521
561607
561745
561904
562085
562268
562470
562653
562861
563078
563284
563446
563610
563652
563815
563736
563660
563686
563657
563664
563691
563747
563806
563880
563941
564013
564092
564136
564167
564167
564079
563967
563894
563774
563660
563580
563495
563466
563427
563396
563365
563326
563289
563236
563151
563023
779776
367199
213934
183304
188722
212828
287691
419784
539083
602929
621064
589693
534278
478260
438982
414405
400933
393826
390568
389530
389633
391339
393080
395446
397990
400878
404023
407391
411160
414951
419140
423858
428888
434600
441267
448174
455887
463499
471443
479266
487154
495270
503156
510860
518459
525874
533167
540145
546989
553588
559654
564884
569745
573917
577435
579966
582286
583987
584941
585023
584589
583549
581848
579517
576626
573274
569526
565416
560959
556112
550915
545432
539691
533773
527729
521586
515455
509208
503108
496958
490969
484900
479019
473088
467381
461624
456117
450599
445330
440072
435063
430100
425357
420674
416163
411688
407382
403200
399208
395353
391688
388137
384713
381392
378201
375130
372184
369362
366651
364079
361588
359256
356990
354892
352846
350959
349091
347312
345494
343804
341787
340533
339265
337759
336531
335450
334390
333365
332410
331489
330595
329730
328884
328072
327282
326512
325780
325068
324406
323779
323197
322644
322140
321661
321231
320824
320443
320072
319728
319385
319064
318756
318453
318179
317903
317652
317404
317153
316925
316687
316460
316194
316020
315866
315711
315578
315468
315395
315342
315314
315299
315292
315286
315287
315275
315274
315261
315243
315220
315183
315173
315169
315172
315175
315195
315226
315265
315314
315374
315436
315502
315544
315614
315618
315630
315626
315627
315631
315639
315648
315663
315676
315703
315741
315787
315830
315890
315901
315979
315958
315922
315916
315890
315860
315829
315811
315793
315783
315772
315770
315776
315785
315786
315807
315779
315736
315706
315655
315597
315538
315474
315428
315380
315335
315293
315254
315217
315184
315141
315090
780841
290050
149456
126059
143867
211897
312974
394768
433384
437207
411094
379030
346322
318623
302306
293862
290348
289429
290265
292407
295042
298371
301842
305772
309959
314513
319386
324605
330271
336253
342751
349730
357303
365495
374273
383291
392701
402418
412510
422479
432699
443160
453248
463107
472566
481943
491024
499886
508395
516788
524369
531057
537114
542308
546769
549674
552108
553558
554174
553915
553049
551443
549076
546001
542287
538079
533411
528351
522923
517137
511013
504583
497931
491107
484168
477136
470092
462950
455959
448949
442088
435203
428476
421761
415221
408714
402425
396217
390225
384334
378652
373085
367710
362442
357335
352295
347424
342671
338105
333685
329451
325348
321378
317516
313787
310178
306698
303339
300101
296990
293972
291100
288302
285662
283085
280649
278272
275981
273688
271502
269118
267264
265428
263457
261694
260063
258477
256942
255475
254061
252687
251357
250064
248813
247598
246411
245266
244145
243076
242038
241050
240087
239176
238290
237454
236650
235889
235153
234456
233774
233123
232491
231875
231288
230716
230163
229634
229100
228598
228090
227600
227083
226635
226204
225768
225353
224959
224594
224253
223936
223643
223369
223105
222862
222617
222390
222163
221945
221726
221505
221287
221089
220886
220697
220527
220367
220217
220080
219959
219849
219749
219647
219557
219458
219359
219256
219153
219047
218949
218850
218755
218656
218577
218500
218439
218375
218331
218263
218252
218202
218133
218075
218008
217936
217862
217791
217721
217654
217589
217528
217476
217433
217381
217364
217321
217266
217223
217168
217107
217043
216975
216912
216847
216784
216720
216662
216604
216555
216502
216439
781354
218573
111731
114391
162013
244203
314826
347864
348167
328766
306531
283552
263724
250802
244365
241935
241708
243524
246227
249607
253383
257629
262162
267135
272492
278278
284525
291256
298553
306366
314802
323867
333536
343904
354839
365990
377395
389366
401835
414092
426598
439462
451714
463783
475372
486988
498198
509140
519435
529529
538688
546580
553557
559130
564180
566783
568716
569352
569059
568010
566046
563258
559549
555050
549815
544112
537953
531416
524542
517358
509970
502366
494604
486691
478686
470595
462526
454377
446366
438355
430491
422644
414962
407366
399979
392696
385660
378756
372089
365568
359255
353094
347123
341300
335637
330078
324702
319455
314416
309538
304854
300315
295915
291631
287490
283473
279599
275847
272232
268734
265351
262098
258942
255926
252996
250192
247475
244824
242208
239680
237017
234774
232593
230326
228227
226247
224325
222461
220663
218924
217229
215585
213985
212431
210920
209445
208013
206612
205267
203954
202693
201460
200279
199125
198022
196950
195925
194932
193980
193053
192160
191292
190447
189633
188842
188072
187331
186591
185887
185180
184499
183799
183157
182534
181910
181309
180725
180169
179637
179127
178645
178180
177734
177307
176890
176489
176096
175718
175344
174976
174607
174262
173913
173581
173264
172962
172672
172396
172134
171889
171655
171429
171209
170994
170787
170579
170378
170173
169980
169787
169600
169409
169239
169067
168915
168760
168626
168479
168379
168259
168127
168008
167884
167759
167632
167508
167385
167264
167147
167032
166923
166828
166724
166654
166569
166476
166398
166313
166225
166135
166043
165954
165863
165773
165683
165598
165512
165436
165358
165259
781714
170535
104321
130823
199374
261861
293030
297107
281545
264815
247804
232109
221176
215206
213040
212921
215030
218143
221898
226145
230793
235885
241395
247396
253903
260966
268643
276970
286007
295764
306286
317478
329309
341957
355319
369075
382997
397659
413132
428377
443713
459622
474482
489048
502922
516898
530363
543167
554939
565889
575751
583124
589450
593557
597704
598174
597763
596575
594191
591176
587078
582414
576786
570585
563799
556709
549269
541525
533510
525230
516766
508096
499303
490371
481415
472381
463458
454465
445646
436812
428183
419569
411197
402945
394982
387129
379578
372148
365001
357992
351245
344648
338280
332084
326061
320171
314482
308925
303591
298417
293440
288616
283941
279392
274991
270720
266599
262598
258743
254997
251382
247882
244500
241240
238089
235046
232108
229225
226389
223642
220788
218293
215890
213443
211104
208894
206756
204679
202664
200712
198803
196948
195137
193375
191657
189982
188348
186751
185211
183706
182254
180832
179464
178124
176836
175577
174369
173193
172059
170955
169885
168844
167828
166847
165890
164959
164055
163164
162303
161445
160617
159777
158985
158220
157455
156717
155996
155301
154633
153984
153366
152762
152182
151614
151070
150532
150012
149507
149007
148521
148032
147571
147105
146662
146233
145820
145420
145034
144664
144309
143968
143638
143313
142999
142696
142393
142103
141810
141532
141254
140986
140715
140466
140214
139984
139752
139541
139322
139143
138952
138754
138571
138386
138204
138021
137843
137667
137495
137325
137161
137000
136854
136701
136579
136447
136310
136190
136067
135941
135817
135692
135570
135448
135328
135207
135093
134976
134870
134764
134621
781647
157438
125990
162370
221209
252053
262084
251351
237597
224425
211676
201699
195760
193220
192893
194715
197974
201932
206467
211474
216927
222882
229372
236451
244184
252644
261896
271980
282949
294837
307627
321269
335644
351025
367350
384249
401200
418874
437620
456390
474775
493838
511063
527219
542272
556774
570722
582352
592771
601170
609373
613164
616029
616941
618146
615924
612238
608373
603296
597845
591505
584884
577517
569703
561355
552728
543995
535166
526238
517281
508219
499163
490065
480897
471878
462774
453956
445030
436449
427776
419463
411065
403025
394918
387195
379419
372024
364603
357553
350526
343822
337166
330806
324548
318508
312566
306844
301217
295810
290552
285499
280603
275870
271267
266810
262479
258290
254222
250294
246473
242782
239197
235730
232376
229136
225988
222951
219966
217039
214194
211267
208620
206094
203571
201100
198756
196503
194303
192170
190094
188063
186082
184143
182255
180409
178607
176845
175122
173454
171822
170243
168697
167203
165739
164326
162940
161609
160304
159049
157817
156627
155459
154323
153219
152141
151094
150067
149067
148085
147117
146177
145229
144322
143450
142579
141739
140912
140115
139346
138593
137873
137165
136485
135811
135169
134526
133908
133301
132704
132122
131539
130984
130428
129895
129378
128876
128389
127914
127458
127015
126591
126172
125769
125367
124986
124602
124235
123866
123513
123162
122824
122483
122166
121847
121550
121251
120974
120692
120446
120191
119932
119689
119447
119210
118974
118745
118517
118298
118078
117869
117660
117467
117269
117100
116923
116742
116581
116417
116251
116091
115930
115775
115619
115467
115315
115170
115023
114886
114751
114564
781391
166643
150963
185884
218373
232782
230416
218259
207548
197196
188047
181802
178663
177790
178941
181877
185834
190441
195636
201356
207591
214436
221931
230175
239256
249265
260269
272322
285458
299763
315174
331680
349013
367523
387161
407718
428195
449087
471041
492646
512102
531773
548059
562720
576223
587599
598783
605503
612057
615713
619790
618753
616767
612787
607799
600610
591818
583304
574340
565308
556112
547060
537933
528716
519573
510168
501287
492388
483641
475249
466728
458697
450520
442669
434910
427176
419857
412381
405405
398240
391545
384673
378190
371507
365214
358745
352636
346383
340505
334534
328867
323083
317529
311894
306520
301099
295893
290655
285636
280688
275953
271338
266883
262521
258274
254131
250103
246186
242384
238686
235092
231610
228209
224938
221738
218639
215633
212695
209819
206998
204138
201437
198900
196397
193933
191546
189280
187044
184895
182777
180718
178692
176711
174777
172880
171027
169208
167428
165698
164005
162361
160750
159189
157657
156174
154715
153312
151930
150604
149292
148028
146779
145569
144382
143228
142099
140994
139917
138851
137809
136786
135766
134777
133826
132881
131965
131064
130192
129347
128520
127723
126941
126183
125436
124714
123998
123302
122620
121950
121292
120638
120007
119383
118778
118191
117619
117063
116518
115995
115482
114991
114502
114035
113564
113118
112669
112237
111804
111389
110976
110579
110179
109803
109427
109074
108718
108386
108050
107747
107436
107125
106829
106536
106250
105965
105689
105415
105151
104887
104636
104384
104149
103911
103698
103481
103260
103059
102857
102654
102458
102263
102074
101885
101702
101519
101344
101167
101001
100837
100608
781108
177260
168021
190402
207818
211549
203992
194502
186008
177954
171484
167591
166074
166197
168433
171992
176446
181589
187375
193781
200797
208567
217144
226679
237265
249019
262009
276312
291922
309004
327439
347260
367999
390084
413312
437491
460496
482551
504612
525805
542168
557908
569676
579955
589894
596091
602649
602940
601988
598429
594033
586925
578546
568955
558543
548613
537792
526583
516204
505559
495618
485414
476067
466438
457565
448312
439979
431541
423738
416299
408920
402320
395512
389465
383298
377482
371961
366332
361248
355951
351105
346101
341359
336444
331785
326971
322360
317621
313074
308443
303999
299495
295193
290836
286642
282411
278271
274085
270020
265951
262024
258153
254348
250567
246836
243158
239546
236017
232564
229197
225895
222703
219561
216539
213552
210671
207832
205110
202405
199754
197091
194488
192055
189655
187304
184992
182798
180627
178544
176478
174475
172491
170551
168648
166782
164953
163154
161388
159666
157976
156332
154717
153148
151603
150107
148629
147204
145799
144444
143105
141810
140529
139284
138059
136870
135697
134556
133430
132327
131240
130172
129112
128076
127073
126083
125118
124171
123249
122353
121478
120628
119798
118985
118192
117411
116650
115894
115163
114438
113726
113020
112335
111660
111001
110361
109736
109128
108530
107955
107389
106846
106305
105786
105264
104764
104265
103780
103297
102831
102368
101922
101475
101050
100628
100227
99825.7
99447.1
99066.8
98715
98358.6
98004.2
97662.6
97325.3
96996.7
96669.3
96352.3
96037.6
95734.7
95431.9
95143.2
94853.2
94581.9
94307.2
94057
93803.5
93548.3
93310.7
93073.8
92837.5
92609.1
92381.7
92161.1
91942.1
91729.9
91517.5
91314.1
91110.5
90916.8
90726.2
90457.2
780933
184779
175208
186625
194101
191980
184102
176804
169958
163709
159126
156715
156049
157078
159904
163857
168695
174298
180640
187727
195569
204344
214136
225144
237460
251237
266536
283472
301970
322248
344214
367870
392220
417273
442194
466882
489149
508437
526072
543120
553800
563741
571349
575505
578936
577605
575259
569489
562062
552378
542159
531051
519224
506594
492865
481193
468813
455025
442569
429384
418092
406166
396098
385623
376871
367675
359964
352087
345677
339380
333781
328999
324157
320313
316323
313103
309878
306944
304358
301633
299248
296769
294410
291952
289545
287048
284526
281908
279230
276458
273641
270774
267949
265089
262213
259308
256367
253365
250319
247237
244138
241069
238047
235044
232047
229066
226098
223165
220263
217413
214597
211861
209137
206474
203833
201267
198718
196291
193854
191479
189083
186709
184455
182258
180093
177952
175904
173880
171930
169995
168120
166253
164427
162624
160856
159118
157407
155717
154067
152440
150856
149291
147772
146268
144810
143365
141968
140587
139253
137931
136651
135380
134145
132925
131738
130564
129425
128289
127186
126089
125015
123945
122895
121873
120867
119882
118915
117971
117051
116152
115275
114420
113578
112760
111947
111159
110373
109609
108853
108108
107370
106650
105942
105247
104571
103910
103266
102632
102021
101417
100838
100259
99702.9
99144.6
98606
98069.3
97546
97025.3
96520
96019.8
95535.7
95052.7
94588.8
94130.1
93691.7
93255.3
92838.1
92423.3
92032.4
91639.5
91250.3
90872.1
90498.6
90134.5
89772.1
89420.7
89072
88735.8
88400.1
88079.1
87757.4
87454.3
87148.6
86866.3
86581.4
86296.9
86027.7
85760.6
85495.3
85237.8
84982.1
84733.4
84487.2
84248.2
84010
83780.7
83552.4
83333.7
83118.9
82814.1
780794
188779
175275
179251
180441
175742
169056
163153
157553
152655
149376
147906
147779
149447
152601
156824
161980
168008
174910
182722
191500
201441
212666
225424
239818
256032
274099
294157
316119
340100
365663
392412
418198
443021
465795
486859
505457
519263
531284
543714
547197
549227
551568
549268
545724
538806
530071
519169
506870
492988
478024
462534
446283
429634
412670
395769
381282
365634
352353
338457
327031
315175
305504
295514
287583
279368
272753
265918
260668
255268
251205
247098
244076
241298
238872
237206
235422
234517
233723
232922
232675
232460
232542
232654
232872
233027
233237
233290
233276
233140
232918
232509
231973
231263
230427
229439
228329
227041
225593
223978
222224
220374
218473
216518
214509
212449
210338
208185
205996
203782
201548
199308
197074
194865
192666
190499
188351
186275
184202
182160
180103
178031
176042
174097
172169
170241
168385
166543
164769
162999
161288
159577
157901
156242
154612
153009
151427
149856
148317
146795
145310
143837
142404
140980
139598
138223
136892
135571
134295
133025
131798
130573
129383
128201
127052
125913
124805
123700
122625
121555
120504
119456
118424
117415
116422
115444
114484
113544
112626
111728
110849
109992
109146
108323
107505
106710
105917
105143
104378
103621
102870
102136
101413
100701
100008
99327.5
98664.8
98010.9
97378.7
96753.9
96152.6
95552.4
94972.7
94392.6
93829.7
93269.5
92720.9
92176.2
91644.7
91119.6
90608.7
90101.3
89609.6
89125.5
88658.6
88197.9
87751.7
87312.4
86890.8
86472.4
86057.1
85651.1
85250
84858.5
84469
84090.5
83715
83352
82990.4
82643
82295.9
81966.3
81636
81326.8
81016.6
80708.3
80412.4
80120.7
79831.2
79548.9
79269.4
78996.7
78727.3
78465
78204.6
77952.8
77702.9
77462.4
77226.3
76890.1
780387
191259
172760
170832
168565
162937
157333
152279
147604
143726
141333
140419
140737
142770
146117
150548
156001
162471
170002
178670
188586
199975
212984
227946
244935
264161
285643
309446
335021
362135
389079
415713
439750
461197
479188
494677
509575
517631
522217
526772
525461
522088
518581
510971
501329
489089
474986
459191
441291
421942
400829
381077
361727
343406
326574
309604
295393
280915
268676
256075
245781
235250
226687
217928
210974
203901
198229
192398
187817
183098
179543
175808
173349
170740
168928
167469
165959
165391
164736
164676
164861
165205
165851
166716
167831
169070
170487
171976
173582
175196
176898
178564
180321
181937
183616
185031
186492
187598
188647
189366
189926
190261
190362
190263
190016
189597
189006
188248
187334
186274
185082
183771
182380
180928
179430
177900
176353
174802
173235
171645
170012
168336
166646
164992
163356
161705
160102
158500
156951
155402
153896
152392
150909
149439
147992
146566
145146
143725
142323
140930
139564
138207
136879
135558
134270
132986
131742
130501
129306
128109
126956
125797
124672
123550
122457
121373
120318
119265
118239
117216
116213
115209
114217
113243
112283
111337
110406
109490
108594
107717
106857
106017
105187
104379
103575
102792
102013
101247
100492
99743
98999.3
98268.4
97548.9
96838
96143.9
95460.8
94794.7
94137.2
93499.4
92868.7
92260.2
91653.6
91065.3
90477.6
89904.9
89335.1
88775.1
88219.7
87675
87137.4
86611.9
86091.5
85583.6
85085.1
84600.6
84125.8
83661.2
83206.9
82765.1
82331
81898.6
81474.1
81054.7
80644.3
80236.5
79838.7
79444.5
79061.8
78681.8
78314.4
77949.1
77599.1
77250.7
76920.5
76591.5
76265.3
75948.6
75638
75329.5
75027.7
74729.2
74437.3
74149.1
73868.1
73589.4
73319
73051.3
72792.9
72539
72176.5
780592
192756
167938
162353
158380
152901
147935
143395
139365
136250
134450
133875
134537
136763
140247
144882
150673
157683
166008
175792
187194
200482
215855
233680
253984
276975
302279
329554
357182
384849
410249
434133
454732
471062
483633
494008
503905
504657
503316
500635
496492
488217
478204
465328
449899
432124
411415
389508
365952
344613
322592
302916
284346
267274
252358
238178
225432
214280
204081
193943
185628
177156
170165
163053
157283
151463
146715
141889
137969
133974
130803
127535
125105
122557
120753
118975
117418
116336
115232
114543
114192
113834
113888
114083
114501
115099
115918
116910
118108
119458
121004
122697
124584
126595
128763
130997
133335
135678
138094
140393
142731
144909
147120
149109
151068
152815
154441
155813
157033
157969
158758
159251
159599
159669
159594
159412
159118
158710
158189
157548
156773
155858
154833
153751
152630
151471
150294
149101
147916
146718
145527
144326
143116
141900
140686
139472
138261
137040
135825
134611
133408
132209
131026
129846
128687
127531
126403
125280
124191
123093
122029
120957
119912
118865
117844
116830
115841
114854
113891
112929
111986
111042
110104
109180
108266
107364
106474
105595
104734
103889
103060
102249
101448
100666
99889.5
99132
98378.5
97636.6
96903.9
96176.9
95453.5
94740.4
94036.7
93340.2
92658.1
91985.7
91328.6
90680.7
90049.7
89425.9
88822.7
88222.1
87637.9
87055.3
86485
85918.2
85359
84805
84259
83720.4
83191.9
82669.1
82156
81653.5
81162.2
80682.9
80210.6
79750.2
79298.9
78858.6
78418
77984.5
77556.2
77135.8
76718.3
76309.4
75904.8
75510.2
75119.4
74739.1
74362.7
73999.3
73639.5
73294.9
72953.6
72615.5
72284.8
71960.9
71639.3
71323.7
71011.7
70706
70404.1
70109
69816.8
69532.4
69251
68978.9
68711.2
68328.3
783130
191812
162080
154720
149777
144716
140168
135998
132373
129799
128394
128046
128948
131298
134929
139835
146096
153860
163298
174644
188088
204010
222530
244083
268440
295432
323657
352698
379959
405874
428250
447950
464257
474542
482279
486026
489195
486412
480563
471676
462519
449354
432847
413815
391436
367401
341159
318049
293984
274614
255082
238557
223429
209857
198173
187405
177385
169257
160967
153758
147240
140604
134991
129331
124674
119963
116088
112166
108968
105707
103016
100280
98074.3
95816.3
94039.9
92235.2
90791.3
89484.7
88201.9
87121.3
86281.2
85428.7
84843
84265.3
83921.7
83628.8
83501.9
83518.7
83637.2
83860
84223.1
84716.9
85370.6
86167.9
87132.2
88229.4
89482.8
90869.9
92413.5
94082
95890.4
97804.6
99839.3
101962
104186
106476
108820
111178
113563
115847
118133
120261
122324
124255
126074
127804
129445
130925
132257
133384
134323
135003
135432
135685
135753
135685
135525
135264
134925
134505
134023
133475
132864
132190
131459
130679
129865
129012
128130
127226
126302
125364
124413
123452
122485
121510
120543
119569
118617
117657
116719
115773
114843
113909
112992
112079
111186
110295
109422
108550
107693
106835
105972
105114
104262
103419
102583
101754
100940
100138
99350.8
98578.8
97816.1
97072
96332.9
95611.6
94892.5
94184.3
93482.3
92786.5
92092.1
91405.6
90725.5
90052.5
89390.2
88737.4
88097.4
87467.5
86851.7
86243.5
85653.8
85067.7
84496.1
83927.1
83367.9
82812.9
82263.7
81719.7
81181.3
80650.5
80127.5
79610.9
79101.6
78603
78113.8
77637.6
77166.4
76707.7
76255.6
75816.7
75376.3
74942.2
74513
74090.4
73671.3
73259.1
72851.5
72452.4
72057.7
71671.9
71290.9
70921.2
70556.1
70203.8
69856.7
69512.6
69174.4
68843.4
68514.5
68191
67871.1
67556.9
67246.6
66942.8
66641.8
66348.3
66057.7
65776.7
65499.4
65102.4
785808
189817
156023
147761
142514
137799
133560
129663
126360
124117
122976
122793
123871
126357
130226
135575
142572
151481
162583
176168
192511
212003
234655
260729
289081
319146
348506
377299
402599
425355
443826
458109
469373
474189
476045
474388
471535
464994
455027
440722
424293
404443
380074
353653
325179
300327
275072
255078
235061
219896
205008
193012
181701
171820
162864
154599
146862
139901
133346
127921
122366
116898
112323
107696
103856
99953.7
96871.4
93740.1
91149.1
88512.8
86330.4
84054.4
82234.5
80381.7
78907.3
77387
76160.7
75012.1
73906.2
72914.3
72049.5
71193.5
70495.3
69780.6
69190.6
68590.7
68125.9
67653
67299.6
66941.9
66692.2
66461.5
66327.1
66246.9
66270.4
66343
66483.9
66702.6
67009.1
67400.9
67889.9
68469.5
69151.1
69935
70836.1
71851.4
72986.5
74235
75596.5
77062.3
78628.1
80281.4
82025.2
83857.2
85788.4
87824.6
89947.9
92124.4
94342.8
96524.6
98728.9
100784
102751
104488
106213
107712
109189
110442
111674
112700
113688
114487
115209
115738
116186
116440
116632
116622
116539
116368
116109
115770
115359
114884
114353
113774
113155
112500
111823
111128
110424
109706
108980
108243
107504
106758
106020
105275
104534
103788
103043
102293
101536
100777
100018
99261.7
98508.1
97756.7
97015.1
96280.3
95558.5
94848.3
94146.4
93460.7
92780.1
92111.3
91440.9
90779.6
90120.7
89466.9
88812.8
88163.1
87516.8
86877.4
86244.2
85620.4
85006.2
84403.1
83810.8
83225.9
82656.4
82091.5
81539
80989.8
80448
79910.9
79378.3
78850.3
78326.1
77809
77297.7
76793.2
76294.3
75805.1
75324.3
74855.9
74392.3
73940.2
73493.8
73061.2
72627.3
72198.4
71774.3
71355.5
70940.7
70531.3
70126.5
69728.9
69335.8
68950.3
68570.1
68199.7
67834.6
67480.1
67132.4
66787.7
66447.4
66114.5
65783.6
65457.5
65134.9
64817.4
64503.5
64195.8
63890.7
63592.9
63297.6
63011.9
62729.2
62324.5
788296
187096
150089
141384
136179
131774
127791
124141
121133
119062
118091
118054
119310
122035
126344
132469
140672
151370
164882
181765
202128
226351
253886
284509
315853
347482
376133
402942
425228
443577
457215
465039
470994
470280
467784
461517
452553
439994
423879
402829
376530
347624
316595
289569
263595
242480
223199
207952
193796
182614
171805
163039
154105
146422
138784
131941
125223
119117
113673
108631
103358
99188.4
95387.4
91601.6
88493.3
85472.4
83038.2
80581.9
78515.5
76412
74689.8
72981.7
71595.3
70196.6
69057.2
67909.3
66972.1
66032
65179.1
64436.9
63687
62963.2
62349.7
61717.1
61136.9
60550
60051.9
59546.6
59099.9
58646.7
58255.9
57859.1
57526.5
57189.2
56919
56650
56436.7
56212.5
56040.3
55886.2
55780.2
55701.8
55658.4
55668.6
55715.2
55807
55950.6
56147.2
56400
56711.3
57083.7
57520.3
58028.9
58618.3
59306
60101.4
61007.1
62022.8
63145.8
64364
65678.3
67075.4
68539
70056.8
71636.9
73270.4
74961.1
76692.5
78471.9
80278.5
82124.1
83974.6
85865.9
87664.3
89478
91139
92747.4
94205.1
95536.6
96712.5
97753.6
98636.3
99384
99987.1
100460
100816
101045
101197
101212
101163
101055
100883
100654
100371
100045
99679
99282.4
98854.6
98399.5
97916
97405.2
96869.2
96310.6
95733.8
95142.7
94540.1
93927.8
93308.3
92684.5
92057.8
91435.9
90817.6
90202
89594.5
88988.8
88392.7
87795.5
87203.8
86612.4
86023
85431.3
84839.8
84248.6
83662.3
83077.6
82500.8
81930.6
81370.6
80815.5
80265.7
79726.9
79193.2
78668.9
78149
77633.4
77123
76615.3
76111.2
75609.3
75113.4
74621.9
74135.9
73654.3
73180.1
72713.5
72257.4
71806.8
71365.6
70930.3
70507.7
70085.1
69666.4
69251.9
68841.9
68435.7
68033.8
67636.1
67244.2
66856.6
66475.8
66100
65733
65371.5
65018.9
64674.5
64332.8
63994.7
63663.8
63334.9
63010.4
62688.9
62372.1
62058.4
61750.8
61445.1
61146.8
60850.5
60563.7
60279.3
59872.1
790416
184116
144433
135539
130535
126415
122659
119254
116494
114594
113709
113851
115373
118561
123678
131106
141225
154595
171789
193353
219086
248963
281370
315849
348280
379296
406010
429285
447438
459896
467519
468947
468855
464764
457317
444926
427752
406257
379330
348435
314914
285542
258536
236316
217121
201382
187923
176589
166289
157223
148740
141163
133481
126485
119406
113185
107047
101746
96829.9
92059.4
88025.7
84934.4
81767
78945.1
76658.8
74466.5
72539.7
70556.7
68931.8
67370.1