/*--------------------------------*- C++ -*----------------------------------*\
| =========                 |                                                 |
| \\      /  F ield         | OpenFOAM: The Open Source CFD Toolbox           |
|  \\    /   O peration     | Version:  2312                                  |
|   \\  /    A nd           | Website:  www.openfoam.com                      |
|    \\/     M anipulation  |                                                 |
\*---------------------------------------------------------------------------*/
FoamFile
{
    version     2.0;
    format      ascii;
    arch        "LSB;label=32;scalar=64";
    class       volScalarField;
    location    "0.005";
    object      p;
}
// * * * * * * * * * * * * * * * * * * * * * * * * * * * * * * * * * * * * * //

dimensions      [1 -1 -2 0 0 0 0];

internalField   nonuniform List<scalar> 
48128
(
3499.34
3499.85
3488.64
3476.46
3475.59
3471.74
3469.15
3465
3457.97
3446.48
3439.12
3424.65
3419.83
3402.1
3374.48
3341.05
3315.61
3295.5
3281.27
3273.06
3270.9
3273.68
3281.32
3294.28
3312.91
3337.46
3368.46
3408.23
3455.05
3509.92
3572.77
3644.66
3725.4
3815.83
3914.98
4024.18
4143.18
4272.68
4410.03
4559.21
4717.92
4885.54
5062.33
5248.46
5440.56
5644.25
5849.73
6069.36
6288.87
6520.88
6750.58
6993.11
7232.47
7480.64
7724.07
7974.16
8221.16
8465.71
8708.94
8947.23
9181.54
9409.87
9632.67
9849.1
10058.4
10260.1
10453.3
10638.8
10816.9
10983.1
11143.8
11290.8
11432.8
11564.4
11684.9
11799.6
11899.6
11998.7
12083
12167.7
12240
12314.6
12374.8
12435.3
12484.5
12534.8
12576.4
12619.5
12655.2
12691.6
12720.7
12751
12775.4
12799.3
12815.7
12827.7
12832.9
12838.8
12847.4
12859.2
12872.2
12885.3
12893.2
12898.8
12903.1
12907.6
12912.9
12918.8
12924.9
12931.6
12939.4
12948.9
12960.9
12974.7
12990.2
13006.1
13021.1
13024.4
13021.9
13006.6
12981.1
13024.7
13029.5
13027.2
13057.9
13081.4
13103.2
13124.9
13142.4
13156.6
13167.2
13175.6
13183
13187.5
13190.5
13190.3
13190.8
13192.8
13195.9
13199.5
13203.6
13208.7
13214.7
13221.5
13229.7
13239.7
13250.8
13262.8
13273.5
13284.4
13293.7
13303.4
13313.5
13323.6
13332.9
13339.8
13345.2
13345.1
13342.4
13338.3
13331.7
13324
13324.2
13322.1
13322.3
13325.4
13330.5
13338.7
13348.1
13358.9
13369.1
13379
13387
13394.4
13397.8
13399.2
13397.5
13394.9
13389.3
13383.2
13379
13376.2
13374.7
13377.3
13381.7
13386.9
13393.9
13402.3
13411.1
13419.1
13425.4
13427.9
13430
13427.9
13425.2
13420.2
13415.8
13411.9
13409
13408.4
13409.3
13411.9
13416.9
13423.4
13430.2
13437.4
13442.8
13447.8
13452.2
13448.4
13446.4
13443.5
13439
13435.1
13431.9
13429.8
13430.1
13431.6
13434.2
13438.1
13443.4
13448.5
13454.4
13459.1
13458.9
13459.6
13458.5
13455.3
13452.4
13449.6
13447
13444.8
13444.5
13445.3
13447.2
13450
13453.8
13457.8
13462.5
13465.7
3488.67
3493.54
3486.12
3476.7
3477.61
3475.77
3475.36
3473.7
3470.17
3464.31
3461.53
3448.48
3433.49
3406.89
3375.71
3353.9
3328.67
3307.45
3291.94
3282.74
3279.63
3281.65
3288.49
3300.63
3318.42
3342.42
3373.3
3409.54
3454.48
3508.09
3569.67
3641
3720.58
3810.06
3908.16
4016.19
4133.37
4261.42
4397.89
4545.34
4702.13
4868.14
5042.87
5226.94
5417.31
5618.82
5822.44
6039.43
6256.71
6486.24
6714.37
6954.22
7191.64
7437.32
7679.91
7929.3
8176.29
8421.16
8663.48
8901.22
9135.02
9363.3
9586.25
9802.84
10012.4
10214
10407.5
10593.3
10770.5
10936.5
11097.6
11246.2
11389.2
11521.9
11643.6
11759.1
11860.7
11961.1
12046.7
12132.7
12207
12283
12344.4
12405.9
12456.6
12508
12550.9
12595.2
12632.2
12669.6
12699.8
12731.1
12756.5
12781.4
12798.6
12811.3
12817
12823.7
12833.2
12845.9
12859.8
12873.5
12881.8
12887.9
12892.7
12897.8
12903.6
12910
12916.5
12923.6
12931.8
12941.7
12954
12968.1
12984
13000.3
13015.4
13019
13016.5
13001.9
12975.6
13019
13025.9
13023.9
13053.3
13078
13100
13121.4
13139.1
13153.4
13164.1
13172.7
13180.1
13184.8
13187.9
13187.8
13188.4
13190.5
13193.8
13197.5
13201.7
13206.9
13213
13219.9
13228.1
13238
13249.2
13261.3
13272.1
13283
13292.3
13302.1
13312.3
13322.4
13331.8
13338.7
13344.2
13344.1
13341.6
13337.5
13331
13323.2
13323.7
13321.5
13321.7
13324.8
13330
13338.3
13347.7
13358.4
13368.6
13378.7
13386.6
13394
13397.5
13398.8
13397.4
13394.7
13389.1
13383
13378.8
13376.1
13374.5
13377.3
13381.5
13386.8
13393.8
13402.2
13411
13419.1
13425.4
13427.8
13430
13428
13425.2
13420.2
13415.8
13412
13409.1
13408.5
13409.4
13411.9
13417
13423.5
13430.3
13437.4
13442.9
13447.8
13452.4
13448.6
13446.4
13443.6
13439.1
13435.2
13432
13429.9
13430.2
13431.7
13434.4
13438.2
13443.6
13448.7
13454.5
13459.3
13459.1
13459.7
13458.7
13455.4
13452.6
13449.8
13447.2
13445
13444.7
13445.5
13447.3
13450.2
13454
13458
13462.6
13465.8
3490.33
3492.72
3486.05
3476.37
3477.32
3474.83
3473.87
3471.41
3464.68
3460.54
3446.29
3427.34
3410.22
3394.45
3364.06
3330.67
3306.75
3289.85
3277.77
3271.04
3269.79
3272.97
3280.75
3293.64
3312.2
3336.75
3368.01
3406.07
3451.83
3505.69
3567.21
3638.13
3717.25
3806.4
3904.07
4011.62
4128.01
4255.16
4390.63
4536.78
4692.72
4857.91
5031.74
5215.16
5404.73
5605.68
5808.5
6024.84
6241.11
6469.81
6697.08
6936.45
7173.01
7418.17
7660.04
7907.62
8150.91
8393.18
8634.84
8872.28
9105.95
9334.44
9557.88
9775.13
9985.3
10187.4
10381.6
10568
10746.6
10914
11076.2
11226
11370.3
11503.8
11626.5
11742.7
11845.3
11946.7
12032.8
12119.7
12195.4
12272.5
12334.5
12396.5
12447.6
12499.6
12542.9
12587.8
12625.2
12663.1
12693.5
12725.3
12751
12776.3
12793.8
12806.5
12812.3
12819.3
12829.1
12842.1
12856.3
12870.2
12878.6
12884.8
12889.7
12895
12901
12907.5
12914.1
12921.4
12929.7
12939.7
12952.1
12966.3
12982.3
12998.7
13013.6
13017.3
13014.4
13000.9
12975
13015.1
13024.6
13024.9
13051.6
13077.1
13099.4
13120.5
13137.9
13152.3
13163.1
13171.8
13179.2
13183.8
13187
13186.9
13187.6
13189.8
13193.1
13196.9
13201.1
13206.3
13212.4
13219.3
13227.5
13237.4
13248.7
13260.7
13271.5
13282.5
13291.8
13301.7
13311.9
13322
13331.4
13338.2
13343.7
13343.5
13341.1
13337
13330.7
13322.9
13323.2
13321.3
13321.5
13324.6
13329.7
13338
13347.4
13358.2
13368.4
13378.4
13386.4
13393.8
13397.3
13398.5
13397.1
13394.4
13388.9
13382.8
13378.6
13376
13374.4
13377.3
13381.4
13386.7
13393.7
13402.1
13411
13419
13425.3
13427.7
13429.8
13428
13425.1
13420.1
13415.7
13411.9
13409
13408.5
13409.3
13412
13416.9
13423.5
13430.3
13437.4
13442.9
13447.8
13452.3
13448.7
13446.3
13443.5
13439.1
13435.2
13432
13429.9
13430.2
13431.7
13434.4
13438.2
13443.6
13448.7
13454.5
13459.3
13459.1
13459.7
13458.7
13455.5
13452.6
13449.8
13447.2
13445
13444.7
13445.5
13447.4
13450.2
13454
13458
13462.6
13465.8
3489.47
3488.98
3485.33
3475.38
3476.41
3473.92
3472.82
3472.41
3465.72
3449.98
3432.24
3414.65
3395.08
3367.93
3345.46
3321.79
3302.05
3286.97
3276.26
3270.27
3269.52
3272.87
3280.68
3293.58
3311.91
3336.07
3366.69
3404.18
3449.14
3502.08
3562.81
3632.79
3710.83
3799.04
3895.45
4001.85
4116.37
4242.36
4376.31
4520.65
4675.14
4838.64
5010.65
5192.69
5380.38
5579.8
5780.49
5995.29
6209.97
6437.37
6662.86
6901.33
7136.28
7380.56
7621.3
7868.99
8112.27
8354.46
8595.69
8832.66
9065.77
9294.25
9517.87
9735.72
9946.43
10148.8
10343.1
10529.8
10708.6
10876.9
11040
11190.7
11336.8
11470.8
11594.8
11711.2
11814.9
11917.5
12004
12091.8
12169.2
12247.9
12310.4
12373.4
12425.7
12479
12523.4
12569.6
12608
12646.9
12678.2
12711
12737.5
12763.8
12781.9
12795.2
12801.5
12809.4
12820
12833.6
12848.5
12862.7
12871.4
12878.2
12883.6
12889.3
12895.7
12902.5
12909.5
12917.1
12925.7
12936
12948.6
12963
12979
12995.6
13010
13014
13010.5
12998.8
12974.7
13008.6
13021.9
13025.9
13049.3
13075.2
13098
13118.5
13135.7
13150.3
13161.2
13170
13177.4
13182.1
13185.3
13185.4
13186.3
13188.6
13191.9
13195.7
13200
13205.2
13211.5
13218.5
13226.7
13236.6
13247.8
13259.9
13270.7
13281.7
13291.1
13301
13311.2
13321.3
13330.7
13337.4
13342.8
13342.6
13340.4
13336.4
13330.3
13322.6
13322.5
13321
13321.4
13324.4
13329.5
13337.8
13347.2
13357.9
13368.1
13378.1
13386
13393.4
13396.8
13398.1
13396.8
13394.1
13388.7
13382.6
13378.4
13375.9
13374.4
13377.2
13381.3
13386.7
13393.7
13402
13410.8
13418.8
13425.1
13427.5
13429.7
13427.8
13424.9
13420
13415.6
13411.9
13409
13408.5
13409.4
13412
13416.9
13423.5
13430.3
13437.4
13442.9
13447.7
13452.1
13448.8
13446.3
13443.4
13439.1
13435.2
13432
13430
13430.3
13431.8
13434.5
13438.3
13443.6
13448.8
13454.4
13459.3
13459.2
13459.6
13458.6
13455.5
13452.6
13449.8
13447.2
13445
13444.8
13445.6
13447.5
13450.3
13454.1
13458.1
13462.7
13465.8
3490.57
3486.14
3484.67
3475.4
3476.29
3472.62
3473.36
3467.49
3455.55
3437.39
3419.42
3397.67
3378.74
3354.76
3334.2
3312.71
3295.75
3282.69
3273.51
3268.4
3268.13
3271.7
3279.57
3292.34
3310.31
3334.04
3364.05
3400.88
3445.09
3497.31
3557.22
3626.35
3703.38
3790.86
3886.21
3991.82
4104.78
4230.1
4362.81
4505.82
4659.62
4821.97
4992.52
5173.95
5360.59
5560.05
5759.69
5974.3
6188.05
6415.19
6639.09
6878.27
7112.36
7356.62
7596.03
7845.13
8087.69
8330.15
8570.84
8807.66
9040.73
9269.19
9493.7
9712.23
9923.76
10125.8
10319.8
10506.8
10684.4
10853.5
11016.9
11168.3
11316.2
11450
11575.2
11691.1
11795.7
11899.2
11985.5
12074
12152.7
12232.7
12295.5
12359.1
12412
12466.1
12510.9
12557.9
12596.9
12636.4
12668
12701.6
12728.4
12755.3
12773.5
12787
12793.6
12802.3
12813.4
12827.4
12842.5
12856.7
12865.5
12872.7
12878.4
12884.5
12891.1
12898.1
12905.3
12913.2
12922.1
12932.7
12945.5
12960
12976.2
12992.6
13006.2
13010.6
13006.6
12997.2
12975.7
13002.6
13019.8
13027.9
13047.9
13073.7
13096.7
13116.7
13133.7
13148.4
13159.5
13168.5
13175.8
13180.5
13183.8
13184.1
13185.4
13187.8
13191
13194.8
13199.2
13204.5
13210.7
13217.8
13226
13236
13247.2
13259.1
13269.9
13280.9
13290.4
13300.5
13310.6
13320.7
13329.9
13336.5
13341.8
13341.6
13339.6
13335.7
13330.1
13322.4
13321.9
13320.9
13321.4
13324.5
13329.4
13337.7
13347
13357.6
13367.8
13377.8
13385.6
13392.9
13396.2
13397.6
13396.3
13393.6
13388.4
13382.5
13378.3
13375.9
13374.6
13377.2
13381.2
13386.7
13393.7
13402
13410.7
13418.5
13424.8
13427.3
13429.4
13427.5
13424.6
13419.8
13415.5
13411.8
13409
13408.6
13409.5
13412.1
13417
13423.5
13430.3
13437.3
13442.8
13447.5
13451.7
13448.9
13446.2
13443.2
13439.1
13435.2
13432.1
13430.1
13430.4
13431.9
13434.6
13438.3
13443.7
13448.8
13454.3
13459.2
13459.3
13459.5
13458.6
13455.5
13452.6
13449.9
13447.3
13445.1
13444.9
13445.7
13447.6
13450.4
13454.2
13458.1
13462.7
13465.8
3492.24
3486.92
3485.88
3475.58
3475.9
3474.03
3469.5
3459.72
3444.26
3426.04
3405.58
3386.06
3365.24
3342.8
3323.96
3305.39
3290.53
3278.94
3270.85
3266.37
3266.36
3270.07
3277.89
3290.43
3307.88
3331.11
3360.41
3396.66
3440.05
3491.63
3550.72
3619.08
3695.03
3781.96
3876.25
3981.24
4092.54
4217.58
4349.19
4491.01
4644.8
4806.87
4976.74
5158.23
5343.11
5542.6
5741.28
5956.79
6170.19
6398.18
6621.45
6862.56
7095.66
7340.54
7577.92
7832.16
8071.3
8314.02
8554.91
8789.64
9024.73
9251.46
9478.58
9697.73
9910.32
10110.9
10304.8
10491.9
10667.9
10837.8
11000.9
11152.9
11302.2
11435.3
11561.5
11676
11781.5
11885.4
11971.1
12060.2
12140
12220.4
12282.3
12345.9
12399.2
12454.2
12499.3
12547.4
12586.6
12626.8
12658.7
12693.2
12720
12747.5
12765.7
12779.4
12786.5
12796.4
12808.2
12822.5
12837.4
12851.3
12860.2
12867.9
12874.1
12880.6
12887.5
12894.6
12902
12910.2
12919.4
12930.3
12943.2
12957.7
12973.9
12989.7
13002.1
13006.9
13002.4
12995.4
12977.9
12997.3
13017.7
13030
13047.4
13072.2
13095.1
13114.5
13131.2
13146
13157.4
13166.6
13174
13178.6
13182.1
13182.8
13184.5
13187
13190.2
13194
13198.5
13203.9
13210.2
13217.4
13225.6
13235.6
13246.6
13258.4
13269.2
13280.1
13289.7
13300
13310.1
13320
13329.1
13335.5
13340.6
13340.3
13338.7
13335
13329.8
13322.3
13321.4
13320.9
13321.7
13324.7
13329.6
13337.7
13346.9
13357.4
13367.5
13377.4
13385.1
13392.3
13395.5
13397
13395.7
13393.1
13388.1
13382.5
13378.3
13376
13374.8
13377.2
13381.2
13386.8
13393.9
13402
13410.5
13418.2
13424.4
13426.9
13429.2
13427.1
13424.4
13419.6
13415.5
13411.9
13409.1
13408.9
13409.8
13412.3
13417.1
13423.6
13430.3
13437.2
13442.7
13447.2
13451.3
13449
13446.1
13443.1
13439.1
13435.2
13432.2
13430.2
13430.6
13432.1
13434.8
13438.5
13443.7
13448.9
13454.1
13459
13459.4
13459.4
13458.5
13455.6
13452.7
13449.9
13447.3
13445.2
13445.1
13445.9
13447.7
13450.5
13454.3
13458.2
13462.7
13465.8
3496.51
3488.94
3487.71
3475.74
3477.33
3472.53
3463.83
3450.56
3433.88
3414.82
3395.65
3373.93
3353.23
3332.76
3315.19
3298.75
3285.42
3275.01
3267.84
3263.93
3264.05
3267.98
3275.51
3287.69
3304.61
3327.34
3355.94
3391.63
3434.2
3485.26
3543.48
3611.21
3686.04
3772.64
3865.88
3970.7
4080.46
4205.85
4336.52
4476.59
4631.33
4793.75
4963.41
5145.54
5328.92
5528.47
5726.3
5942.67
6155.03
6383.03
6605.63
6849.9
7079.93
7325.77
7558.02
7824.44
8056.6
8293.93
8540.69
8769.25
9007.2
9230.09
9461.29
9680.44
9896.05
10094.5
10287.8
10475.3
10650.5
10822.6
10985.5
11139.2
11290.3
11422.7
11550.2
11663.2
11770.3
11874.3
11959.7
12049.9
12131.1
12211.5
12272.3
12336
12389.6
12445.4
12490.9
12539.8
12579
12619.8
12651.7
12686.5
12712.5
12740.3
12758.3
12772.2
12780.3
12792
12804.4
12818.9
12833.4
12846.7
12855.6
12864.1
12870.8
12877.8
12885
12892.1
12899.7
12908.3
12917.9
12929.1
12942.1
12956.4
12972.7
12987.2
12998
13003
12998.5
12994.2
12981.3
12994
13016
13032.6
13048.9
13071.3
13093.7
13112.5
13129
13143.9
13155.6
13165
13172.3
13176.9
13180.5
13181.8
13184.1
13186.6
13189.6
13193.5
13198.1
13203.5
13209.9
13217.1
13225.4
13235.4
13246.2
13257.8
13268.5
13279.4
13289.1
13299.7
13309.6
13319.4
13328.2
13334.4
13339.3
13338.9
13337.7
13334.2
13329.8
13322.5
13321
13321.3
13322.2
13325.2
13330
13338
13347.1
13357.3
13367.1
13377
13384.6
13391.6
13394.6
13396.4
13394.9
13392.5
13387.8
13382.6
13378.4
13376.3
13375.3
13377.4
13381.5
13387.1
13394.1
13402
13410.3
13417.8
13423.9
13426.5
13428.8
13426.5
13424.1
13419.5
13415.5
13412
13409.3
13409.2
13410.1
13412.6
13417.3
13423.8
13430.3
13437.1
13442.6
13446.9
13450.8
13449
13446
13442.9
13439.1
13435.3
13432.3
13430.4
13430.8
13432.3
13435
13438.7
13443.7
13448.9
13454
13458.8
13459.5
13459.3
13458.3
13455.6
13452.7
13449.9
13447.4
13445.4
13445.3
13446
13447.9
13450.7
13454.4
13458.3
13462.7
13465.7
3503.75
3490.67
3491.88
3481.01
3477.81
3469.44
3457.34
3442.2
3424.75
3406.14
3384.93
3363.14
3343.05
3324.19
3307.66
3292.82
3280.67
3271.23
3264.77
3261.38
3261.44
3265.39
3272.52
3284.37
3300.71
3322.96
3350.82
3386
3427.73
3478.35
3535.65
3602.87
3676.63
3763.47
3855.44
3959.75
4067.97
4194.7
4325.4
4463.61
4618.69
4780.97
4950.53
5133.32
5315.54
5514.46
5711.1
5928.23
6137.06
6362.88
6580.36
6832.87
7055.03
7301.45
7524.4
7803.76
8031.68
8258.81
8510.17
8732.72
8970.8
9190.91
9426.23
9645.59
9865.13
10062.1
10253.4
10441.4
10615.7
10791.1
10953.6
11111.1
11264.5
11397.1
11527.3
11639
11749.8
11853.7
11940.4
12033.1
12116.2
12197.8
12259
12325
12378.9
12437.1
12482.1
12533.6
12571.4
12614.5
12645.4
12681.8
12705.5
12734.3
12750.6
12766.2
12775.1
12790
12801.6
12816.2
12829.3
12841.9
12850.9
12860.4
12867.7
12875.5
12882.8
12890.2
12898
12907.1
12916.9
12928.8
12941.6
12955.9
12972.1
12984.8
12993.1
12998.2
12994.1
12993.8
12985.5
12993.6
13015.1
13034.9
13051.6
13071.6
13092.2
13110.5
13126.6
13141.8
13153.5
13163.5
13170.5
13175.2
13179
13180.9
13184
13186.4
13189.4
13193.3
13197.9
13203.5
13209.8
13217.3
13225.6
13235.5
13246.1
13257.4
13267.9
13278.9
13288.5
13299.7
13309.2
13319
13327.2
13333.3
13337.7
13337.3
13336.8
13333.4
13329.4
13323.1
13321.1
13321.6
13323
13326
13330.7
13338.4
13347.4
13357.3
13366.8
13376.5
13384.1
13390.7
13393.6
13395.8
13393.8
13391.9
13387.5
13382.8
13378.7
13376.6
13375.9
13377.9
13381.9
13387.5
13394.4
13402.1
13410.1
13417.4
13423.3
13426.1
13428.3
13426.1
13423.6
13419.4
13415.5
13412.1
13409.6
13409.6
13410.6
13413
13417.6
13423.9
13430.4
13437
13442.3
13446.4
13450.2
13448.9
13445.8
13442.7
13439.1
13435.4
13432.5
13430.7
13431.1
13432.6
13435.3
13438.9
13443.8
13449
13453.7
13458.5
13459.5
13459.1
13458.1
13455.7
13452.7
13450
13447.6
13445.6
13445.5
13446.3
13448.1
13450.9
13454.5
13458.3
13462.7
13465.6
3512.13
3492.94
3497.43
3485.98
3477.72
3465.76
3451.53
3435.32
3417.76
3397.16
3375.3
3353.91
3334.59
3316.92
3301.33
3287.67
3276.44
3267.76
3261.83
3258.7
3258.55
3262.45
3269.19
3280.63
3296.36
3318.14
3345.21
3379.99
3420.76
3471.11
3527.74
3594.58
3666.36
3753.35
3844.76
3949.41
4056.15
4183.39
4313.87
4451.35
4606.71
4767.45
4936.65
5116.48
5296.71
5493.2
5686.87
5907.99
6109.12
6333.14
6537.63
6802.37
7015.24
7261.2
7470.4
7754.48
7991.88
8205.19
8453.45
8669.54
8909.21
9125.74
9364.57
9585.72
9808.35
10005.8
10194.4
10383.6
10558.6
10738.4
10900.1
11064
11218.5
11352.6
11486.9
11597.9
11713.6
11819.2
11905.6
12006.5
12086.3
12175
12231
12307.7
12355.4
12423.3
12462.9
12523
12555.1
12604.7
12633.1
12674.7
12694.7
12727.5
12739.8
12758.9
12770
12789.1
12799.2
12814.8
12825.4
12837.3
12846.2
12857.4
12865.2
12873.6
12880.8
12888.3
12896.6
12906.4
12916.5
12929
12941.8
12955.9
12972.2
12981.6
12987.3
12991.9
12990.4
12993.1
12989.1
12996.5
13015.6
13037.8
13054.7
13072.7
13090.4
13108.5
13123.8
13139.7
13151.1
13162.1
13168.2
13173.5
13177.4
13180.1
13184.3
13186.5
13189.5
13193.5
13198.1
13203.8
13210.2
13217.8
13226.2
13236
13246.2
13257.2
13267.3
13278.5
13288.2
13299.8
13308.9
13318.6
13326.1
13332.1
13335.7
13335.6
13335.7
13332.5
13329.4
13323.6
13321.7
13322.3
13323.9
13327.1
13331.9
13339.2
13347.8
13357.3
13366.5
13376
13383.4
13389.7
13392.6
13394.9
13392.9
13391.1
13387.3
13383
13379.1
13377.3
13376.8
13378.6
13382.4
13388.1
13394.9
13402.3
13409.9
13416.9
13422.7
13425.5
13427.6
13425.6
13423.1
13419.3
13415.6
13412.4
13410.1
13410.2
13411.2
13413.6
13418
13424.1
13430.5
13436.9
13442.1
13445.7
13449.5
13448.7
13445.7
13442.5
13439.1
13435.6
13432.8
13431.1
13431.5
13432.9
13435.6
13439.2
13444
13449
13453.5
13458.2
13459.5
13458.8
13457.9
13455.7
13452.8
13450.1
13447.7
13445.8
13445.8
13446.5
13448.3
13451.1
13454.6
13458.4
13462.6
13465.4
3520.56
3497.91
3501.64
3489.22
3477.03
3462.53
3446.8
3429.97
3411.39
3388.94
3367.07
3346.27
3327.71
3310.94
3296.15
3283.36
3272.83
3264.69
3259.02
3255.95
3255.64
3259.31
3265.63
3276.65
3291.7
3313.09
3339.33
3373.82
3413.86
3463.65
3518.69
3585.72
3656.08
3743.51
3834.23
3939.34
4044.9
4172.08
4300.51
4436.34
4591.87
4747.39
4917.54
5090.5
5267.61
5466.24
5647.47
5877.08
6065.78
6288.91
6474.22
6743.98
6948.45
7197.03
7394.31
7661.51
7927.48
8132.29
8365.96
8575.75
8812.71
9027.32
9265.69
9493.14
9714.76
9916.57
10103.3
10292.2
10469.9
10654.5
10817.7
10988.5
11148.5
11281.1
11423.9
11534.1
11658
11768.7
11851.7
11971.6
12038.4
12136.6
12192
12281.5
12322.3
12400.3
12436.1
12502.8
12532.7
12585.4
12615.9
12658.2
12680.1
12712.7
12724.2
12745.9
12762
12784.3
12795.2
12811.2
12820.2
12831
12840.8
12853.5
12862.3
12871.5
12878.9
12886.8
12895.6
12906
12916.8
12929.3
12942.2
12956.3
12971.5
12977.2
12980.8
12984.3
12986.8
12992.4
12993.9
13000.5
13018.2
13041
13057.7
13073.2
13089.2
13106.1
13121
13136.8
13148.7
13160
13165.8
13171.6
13175.6
13179.6
13184.5
13186.7
13189.8
13193.8
13198.6
13204.3
13210.8
13218.5
13227.1
13236.7
13246.5
13257
13267
13277.9
13288
13299.8
13308.7
13317.9
13325
13330.6
13333.5
13334
13334.3
13331.7
13329.1
13324.4
13322.5
13323.3
13325.2
13328.6
13333.1
13340.1
13348.4
13357.4
13366.3
13375.5
13382.7
13388.7
13391.3
13393.7
13392
13390.2
13387.1
13383.3
13379.7
13378.1
13377.9
13379.5
13383.2
13388.7
13395.5
13402.5
13409.8
13416.4
13421.9
13424.6
13426.9
13424.9
13422.6
13419.2
13415.8
13412.8
13410.6
13410.8
13411.9
13414.3
13418.5
13424.4
13430.6
13436.8
13441.6
13445.1
13448.8
13448.5
13445.5
13442.3
13439
13435.8
13433.2
13431.6
13432
13433.4
13436
13439.6
13444.1
13449.1
13453.2
13457.8
13459.5
13458.6
13457.6
13455.6
13452.8
13450.2
13447.9
13446.1
13446.1
13446.9
13448.6
13451.4
13454.8
13458.5
13462.6
13465.2
3527.42
3503.04
3504.56
3491.27
3476.73
3460.47
3443.72
3425.65
3404.86
3382.09
3360.24
3340.2
3322.3
3306.24
3292.09
3279.94
3269.88
3262.02
3256.39
3253.39
3252.87
3256.11
3261.99
3272.6
3286.9
3308.08
3333.65
3367.55
3405.89
3455.72
3509.38
3577.25
3646.74
3734.66
3824
3928.17
4032.11
4158.39
4281.95
4414.64
4576.75
4717.07
4882.47
5056.73
5222.88
5428.38
5590.12
5824.01
5999.51
6224.19
6388.99
6648.43
6846.09
7097.61
7293.73
7530.21
7811.86
8012.76
8234.11
8443.42
8669.81
8896.53
9130.88
9358.83
9574.3
9794.22
9973.19
10175.5
10344.4
10543.6
10703.9
10882.7
11053.6
11182.4
11343.4
11445.9
11585.2
11685.3
11791.7
11924.6
11975.3
12082.1
12142.2
12239.8
12281
12364.7
12403.4
12472.7
12506.6
12560.4
12593.9
12638.8
12659
12693.3
12706.6
12731.1
12751.1
12777.4
12789.2
12805.7
12813
12822.8
12833.1
12847.1
12857.4
12867.8
12875.9
12884.7
12894.4
12905.5
12916.9
12929.8
12942.7
12956.3
12968.7
12971.3
12973
12976.6
12982.5
12992.1
12999.2
13007.4
13022.5
13043.7
13060.2
13073.8
13087.8
13103.4
13117.9
13133.5
13145.2
13157.4
13162.8
13169.4
13173.8
13178.8
13184.7
13187
13190.3
13194.4
13199.2
13205
13211.7
13219.6
13228.2
13237.5
13246.8
13256.8
13266.7
13277.5
13287.9
13299.9
13308.2
13317.4
13323.4
13328.6
13331.3
13332.1
13332.6
13330.7
13328.9
13325.5
13323.7
13324.6
13326.7
13330.2
13334.8
13341.3
13349.1
13357.6
13366.2
13375
13381.6
13387.4
13390
13392.4
13390.9
13389.3
13386.8
13383.7
13380.6
13379.2
13379.2
13380.6
13384.1
13389.6
13396.1
13402.8
13409.7
13415.7
13421
13423.8
13426
13424.2
13422.1
13419.1
13416
13413.3
13411.4
13411.6
13412.8
13415.2
13419.2
13424.7
13430.7
13436.6
13441.2
13444.4
13447.9
13448
13445.3
13442.2
13439
13436
13433.6
13432.1
13432.5
13433.9
13436.5
13440
13444.3
13449.1
13452.9
13457.3
13459.4
13458.3
13457.3
13455.6
13452.9
13450.3
13448.1
13446.4
13446.5
13447.2
13449
13451.7
13455
13458.6
13462.5
13465
3533.91
3508.52
3507.09
3492.79
3476.29
3459.25
3439.93
3422.48
3399.45
3376.56
3354.92
3335.6
3318.27
3302.78
3289.13
3277.39
3267.57
3259.78
3254.16
3251.09
3250.29
3253.01
3258.4
3268.72
3282.34
3303.17
3327.23
3361
3397.8
3448.54
3501.48
3569.72
3637.83
3725.44
3812.35
3913.19
4015.84
4142.23
4257.38
4379.84
4553.93
4676.6
4822.43
5016.22
5160.1
5367.01
5510.61
5741.16
5904.06
6128.95
6276.25
6509.62
6695.02
6939.99
7150
7369.28
7629.17
7858.85
8060.01
8273.08
8488.19
8734.16
8941.69
9196.14
9376.72
9637.37
9790.85
10034.9
10179.8
10411.1
10551.8
10752.8
10904.1
11070.3
11224.8
11342.3
11500.6
11576.3
11723.5
11842.1
11898.7
12019.1
12077
12179.6
12228.4
12318.8
12361.1
12433.9
12471
12529.8
12561.5
12610.2
12631.6
12669.5
12684.3
12713.4
12736.9
12767.7
12781.2
12799.2
12805.1
12815
12825.6
12841.3
12852.4
12864
12873
12882.8
12893.4
12904.9
12916.8
12930.3
12942.7
12955.3
12963.6
12963.6
12964
12968.5
12977.8
12991.8
13005.8
13015.1
13027.8
13046.4
13062.4
13074
13086.3
13100.5
13114.4
13129.4
13141.1
13153.9
13159.4
13166.7
13171.7
13177.8
13184.7
13187.3
13190.8
13195
13200
13205.9
13212.8
13220.7
13229.4
13238.5
13247.3
13256.8
13266.4
13277.1
13287.8
13299.8
13307.7
13316.5
13321.6
13326.3
13328.8
13329.9
13330.8
13329.5
13328.7
13326.7
13325.3
13326.2
13328.5
13332.2
13336.7
13342.8
13349.9
13357.9
13365.9
13374.3
13380.4
13385.9
13388.4
13390.9
13389.7
13388.3
13386.4
13384.2
13381.6
13380.4
13380.6
13382
13385.4
13390.6
13396.8
13403.1
13409.5
13414.9
13420
13422.8
13424.9
13423.4
13421.5
13419
13416.3
13413.9
13412.2
13412.5
13413.7
13416.2
13420
13425.2
13430.8
13436.4
13440.7
13443.6
13446.9
13447.5
13445
13442
13439.1
13436.3
13434.1
13432.7
13433.2
13434.5
13437
13440.4
13444.6
13449.1
13452.5
13456.8
13459.1
13457.9
13457
13455.5
13453
13450.4
13448.4
13446.8
13446.9
13447.7
13449.4
13452
13455.2
13458.6
13462.4
13464.8
3535.71
3513.38
3507.02
3492.23
3475.45
3457.22
3438.07
3418.68
3395.1
3372.3
3351.15
3332.42
3315.57
3300.54
3287.21
3275.69
3265.9
3258.08
3252.45
3249.13
3247.98
3250.17
3254.98
3265.2
3277.43
3298.04
3320.72
3355.29
3391.38
3442.69
3494.44
3562.1
3628.15
3714.26
3797.39
3891.24
3991.82
4125.17
4227.09
4328.01
4502.72
4627.58
4748.35
4948.87
5072.87
5277.29
5407.13
5623.14
5767.7
5986.76
6130.55
6340.08
6518.59
6736.49
6951.49
7168
7393.27
7652.02
7829.78
8082.92
8261.89
8540.52
8709.64
8991.46
9138.02
9433.64
9578.75
9855.25
9992.51
10249.7
10376.8
10605.7
10725.8
10938
11056.4
11234.7
11380.1
11461
11630.1
11720.8
11812.4
11953.4
11995.6
12105.2
12159.1
12261.6
12305.5
12385.8
12423.6
12490.4
12518.8
12573.1
12592.9
12635.7
12655.3
12690.5
12716
12751.1
12766.1
12787.5
12792.4
12804.3
12816.1
12833.5
12844.4
12858.2
12869.4
12881.1
12893.2
12905.4
12918.4
12932.9
12944.8
12954.9
12958.3
12956
12956.2
12962.3
12974.2
12992.5
13011.6
13023.8
13034.6
13049.5
13063.7
13073.8
13084.5
13097
13109.7
13124.3
13135.8
13149.1
13155.2
13163.4
13169.3
13176.7
13184.4
13187.4
13191.3
13195.7
13200.9
13206.9
13214
13222.1
13230.7
13239.4
13247.7
13256.7
13266.1
13276.7
13287.6
13299.6
13306.8
13315.2
13319.3
13323.5
13326
13327.3
13328.7
13328.2
13328.4
13327.9
13327.1
13328.1
13330.6
13334.3
13338.8
13344.4
13350.9
13358.2
13365.6
13373.5
13378.9
13384.2
13386.6
13389.1
13388.2
13387.2
13386.1
13384.7
13382.7
13381.8
13382.2
13383.6
13386.8
13391.7
13397.6
13403.4
13409.3
13414
13418.8
13421.6
13423.7
13422.4
13420.8
13418.8
13416.6
13414.6
13413.2
13413.5
13414.9
13417.3
13420.9
13425.6
13430.9
13436.1
13440.2
13442.7
13445.9
13446.8
13444.6
13441.8
13439.1
13436.6
13434.7
13433.5
13433.9
13435.2
13437.7
13441
13444.8
13449.1
13452.2
13456.2
13458.8
13457.6
13456.6
13455.4
13453
13450.6
13448.7
13447.3
13447.4
13448.2
13449.9
13452.4
13455.5
13458.7
13462.3
13464.6
3534.13
3513.89
3505.89
3490.86
3474.09
3455.12
3437.22
3415.6
3391.95
3369.3
3348.84
3330.61
3314.13
3299.43
3286.27
3274.79
3264.92
3257.08
3251.22
3247.56
3246.01
3247.82
3251.64
3261.55
3272.48
3293.66
3315.79
3351.11
3386.25
3437.39
3487.04
3552.24
3615.78
3699.43
3778.35
3860.89
3951.01
4096.55
4193.53
4270.17
4406.35
4569.97
4662.69
4849.82
4958.76
5153.47
5270.49
5471.05
5604.26
5804.32
5944.31
6140.36
6306.36
6512.61
6704.74
6937.87
7116.2
7376.34
7551.61
7848.12
8017.56
8314.5
8449.95
8747.18
8878.53
9182.62
9327.9
9631.88
9766.33
10050.5
10173.5
10429.7
10536.3
10778.7
10886
11097
11228.1
11368.8
11540.5
11589.8
11732.9
11879.7
11913.5
12036.2
12093.4
12204.3
12247.9
12338.8
12377
12450.9
12475.1
12534.8
12551.9
12602.6
12623.5
12668.1
12690.8
12729.4
12744.1
12769.1
12775.1
12790.2
12801.8
12820.5
12830.9
12847.6
12860.9
12875.4
12889.1
12902.6
12917.1
12932.4
12943
12951.2
12950.1
12946.4
12948.7
12957.9
12973.2
12994.5
13019.4
13034.2
13044
13054.4
13065.5
13075
13084.2
13094.8
13105.9
13119.7
13130.6
13144.3
13151.2
13160.4
13167
13175.3
13183.6
13187.5
13191.9
13196.6
13202
13208.2
13215.5
13223.5
13232
13240.1
13248
13256.6
13265.8
13276.1
13287.1
13299.1
13305.5
13313.6
13316.7
13320.3
13322.7
13324.5
13326.3
13326.7
13328
13329.1
13329
13330.3
13332.9
13336.7
13341.1
13346.2
13351.9
13358.5
13365.2
13372.4
13377.2
13382.2
13384.5
13387
13386.6
13386.1
13385.6
13385.2
13383.9
13383.4
13383.9
13385.4
13388.4
13393
13398.4
13403.6
13409
13413.1
13417.5
13420.2
13422.3
13421.2
13420.1
13418.7
13416.9
13415.3
13414.3
13414.7
13416.1
13418.6
13421.9
13426.2
13431
13435.8
13439.6
13441.8
13444.7
13445.9
13444.2
13441.6
13439.2
13437
13435.3
13434.3
13434.7
13436
13438.4
13441.6
13445.1
13449
13451.8
13455.6
13458.3
13457.1
13456.3
13455.2
13453.1
13450.8
13449
13447.8
13447.9
13448.7
13450.4
13452.8
13455.7
13458.8
13462.2
13464.3
3533.49
3512.57
3504.09
3489.13
3472.47
3454.08
3435.84
3413.34
3389.96
3367.61
3347.91
3330.1
3313.89
3299.41
3286.26
3274.69
3264.7
3256.73
3250.51
3246.53
3244.37
3245.65
3248.32
3258.49
3268.86
3291.01
3312.37
3347.8
3381.26
3430.96
3477.27
3536.88
3598
3681.34
3751.6
3825.68
3894.35
4042.32
4135.66
4220.66
4305.4
4475.6
4555.98
4720.66
4816.87
4995.39
5107.54
5285.09
5405.74
5585.8
5724.52
5924.45
6068.5
6274.41
6411.38
6645.27
6762.63
6961.97
7187.78
7455.64
7664.12
7961.41
8099.89
8418.75
8560.85
8896.27
9034.16
9365.37
9506.71
9824.79
9937.66
10219.6
10329.5
10597.2
10695.1
10933.8
11026.5
11230.5
11396.6
11450.7
11620
11748
11802.4
11944.9
11996.9
12112.8
12158.3
12263.2
12303.1
12388
12412.6
12480.7
12498.2
12555.8
12580.8
12636.2
12660.6
12704.7
12718.8
12749.6
12758.2
12778.8
12788.9
12808.1
12816.8
12836.7
12851.7
12868.7
12883.8
12898.6
12914.1
12928.9
12936.6
12941.6
12937.1
12932.7
12938.7
12951.4
12969.8
12993.2
13021.5
13043.3
13050.9
13058.1
13066.8
13075.3
13083.4
13092.7
13102.1
13115.1
13125
13139.1
13147.3
13158
13165.8
13174.8
13183.5
13188.8
13193.6
13198.3
13203.8
13210.3
13217.7
13225.6
13233.8
13241.2
13248.8
13256.8
13265.9
13275.9
13286.6
13298.2
13303.9
13311.5
13313.5
13316.7
13319.1
13321.3
13323.6
13325.1
13327.6
13330.3
13331.1
13332.7
13335.4
13339.2
13343.5
13348.1
13353.1
13358.7
13364.7
13371.2
13375.2
13379.9
13382.1
13384.7
13384.7
13384.8
13385.2
13385.6
13385.1
13385.1
13385.8
13387.4
13390.3
13394.4
13399.2
13403.8
13408.6
13412
13416
13418.7
13420.7
13419.9
13419.3
13418.5
13417.3
13416.2
13415.5
13415.9
13417.5
13419.9
13423
13426.8
13431
13435.4
13438.8
13440.8
13443.4
13444.9
13443.6
13441.4
13439.2
13437.4
13436
13435.2
13435.6
13436.8
13439.2
13442.2
13445.4
13448.9
13451.4
13454.9
13457.8
13456.7
13455.9
13455
13453.1
13451
13449.4
13448.3
13448.5
13449.3
13450.9
13453.3
13455.9
13458.8
13462.1
13464
3531.05
3510.04
3501.64
3487.25
3471.11
3453.81
3434.62
3411.98
3389.1
3367.35
3348.3
3330.82
3314.74
3300.36
3287.1
3275.35
3265.23
3257
3250.38
3245.9
3242.72
3243.9
3245.93
3257.1
3266.71
3289.37
3309.21
3343.52
3374.06
3420.52
3463.26
3514.87
3568.45
3659.07
3714.9
3792.57
3832.34
3968.76
4044.64
4164.46
4209.93
4350.96
4423.26
4563.04
4655.96
4799.62
4906.1
5064.99
5177.22
5320.28
5431.82
5596.84
5711.9
5896.29
6024.52
6269.43
6420.05
6629.92
6872.93
7076.92
7384.48
7617.76
7780.97
8116.39
8249.55
8594.96
8738.09
9097.62
9237.92
9570.85
9697.64
10010
10127.2
10408.2
10514.5
10774.9
10876.2
11108.2
11238.9
11349.9
11541
11627.7
11733.9
11892.2
11934.5
12056
12105.4
12220.7
12256.1
12345.2
12368.9
12442.9
12460.8
12525.4
12552.5
12611.6
12634
12678.2
12687.5
12722.2
12734.2
12762
12772.9
12793.4
12801.1
12822.4
12838.2
12858.1
12875
12891.4
12908.3
12922.2
12927.9
12931.7
12923.8
12921.1
12928.9
12946