/*--------------------------------*- C++ -*----------------------------------*\
| =========                 |                                                 |
| \\      /  F ield         | OpenFOAM: The Open Source CFD Toolbox           |
|  \\    /   O peration     | Version:  2312                                  |
|   \\  /    A nd           | Website:  www.openfoam.com                      |
|    \\/     M anipulation  |                                                 |
\*---------------------------------------------------------------------------*/
FoamFile
{
    version     2.0;
    format      ascii;
    arch        "LSB;label=32;scalar=64";
    class       surfaceScalarField;
    location    "0.005";
    object      phi;
}
// * * * * * * * * * * * * * * * * * * * * * * * * * * * * * * * * * * * * * //

dimensions      [1 0 -1 0 0 0 0];

oriented        oriented;

internalField   nonuniform List<scalar> 
95760
(
1.4569e-08
-1.45692e-08
1.89999e-08
-4.43113e-09
1.95962e-08
-5.96505e-10
1.85564e-08
1.0396e-09
1.72568e-08
1.29929e-09
1.57471e-08
1.50944e-09
1.41057e-08
1.64116e-09
1.21995e-08
1.906e-09
9.20201e-09
2.99719e-09
2.53737e-09
6.66442e-09
-8.75694e-09
1.12942e-08
-2.76293e-08
1.88723e-08
-5.36568e-08
2.60274e-08
-7.71076e-08
2.34508e-08
-9.57113e-08
1.86037e-08
-1.10607e-07
1.48961e-08
-1.22343e-07
1.17357e-08
-1.32075e-07
9.73164e-09
-1.40452e-07
8.37742e-09
-1.47872e-07
7.42e-09
-1.54585e-07
6.71233e-09
-1.60812e-07
6.22688e-09
-1.6662e-07
5.80802e-09
-1.72069e-07
5.44911e-09
-1.77177e-07
5.10738e-09
-1.81939e-07
4.76228e-09
-1.86432e-07
4.49308e-09
-1.90358e-07
3.92581e-09
-1.94094e-07
3.7366e-09
-1.97562e-07
3.46794e-09
-2.00402e-07
2.8404e-09
-2.02749e-07
2.34702e-09
-2.04628e-07
1.87902e-09
-2.05856e-07
1.228e-09
-2.06598e-07
7.42249e-10
-2.06627e-07
2.88512e-11
-2.06156e-07
-4.71741e-10
-2.04625e-07
-1.53174e-09
-2.02317e-07
-2.30906e-09
-1.99081e-07
-3.2363e-09
-1.94511e-07
-4.57053e-09
-1.88894e-07
-5.61791e-09
-1.82221e-07
-6.67185e-09
-1.74135e-07
-8.08675e-09
-1.64927e-07
-9.20864e-09
-1.54304e-07
-1.06241e-08
-1.42688e-07
-1.16167e-08
-1.29448e-07
-1.3242e-08
-1.14801e-07
-1.46477e-08
-9.83529e-08
-1.64484e-08
-8.10407e-08
-1.73126e-08
-6.17656e-08
-1.9282e-08
-4.10955e-08
-2.06844e-08
-1.82915e-08
-2.28317e-08
5.35269e-09
-2.36903e-08
3.06701e-08
-2.53701e-08
5.79153e-08
-2.72985e-08
8.64815e-08
-2.86085e-08
1.16605e-07
-3.01474e-08
1.47705e-07
-3.11063e-08
1.79832e-07
-3.21202e-08
2.12603e-07
-3.27598e-08
2.45975e-07
-3.33625e-08
2.7998e-07
-3.40001e-08
3.14632e-07
-3.46497e-08
3.50043e-07
-3.54094e-08
3.85827e-07
-3.57828e-08
4.21932e-07
-3.61017e-08
4.57963e-07
-3.60275e-08
4.93729e-07
-3.57665e-08
5.29448e-07
-3.57224e-08
5.64513e-07
-3.50719e-08
5.997e-07
-3.51906e-08
6.34389e-07
-3.46916e-08
6.68802e-07
-3.44119e-08
7.02763e-07
-3.39585e-08
7.35781e-07
-3.30183e-08
7.68408e-07
-3.26269e-08
8.00024e-07
-3.16174e-08
8.30706e-07
-3.06845e-08
8.60212e-07
-2.95112e-08
8.89255e-07
-2.90493e-08
9.17377e-07
-2.81273e-08
9.44787e-07
-2.7415e-08
9.71054e-07
-2.62713e-08
9.96612e-07
-2.55591e-08
1.02101e-06
-2.43997e-08
1.04466e-06
-2.36514e-08
1.06725e-06
-2.25952e-08
1.08922e-06
-2.19672e-08
1.11013e-06
-2.09122e-08
1.13035e-06
-2.0221e-08
1.14967e-06
-1.93233e-08
1.16843e-06
-1.87488e-08
1.18651e-06
-1.80796e-08
1.20403e-06
-1.7508e-08
1.22062e-06
-1.65914e-08
1.2363e-06
-1.56754e-08
1.2511e-06
-1.48098e-08
1.26515e-06
-1.40477e-08
1.27858e-06
-1.34392e-08
1.29162e-06
-1.30432e-08
1.30411e-06
-1.24953e-08
1.31605e-06
-1.19384e-08
1.32741e-06
-1.13639e-08
1.33822e-06
-1.0806e-08
1.34852e-06
-1.02947e-08
1.35834e-06
-9.82135e-09
1.36773e-06
-9.38919e-09
1.37668e-06
-8.9489e-09
1.38527e-06
-8.58876e-09
1.39345e-06
-8.18314e-09
1.40131e-06
-7.86613e-09
1.40886e-06
-7.54766e-09
1.41614e-06
-7.28556e-09
1.4232e-06
-7.05464e-09
1.43029e-06
-7.09574e-09
1.43686e-06
-6.57282e-09
1.44352e-06
-6.6639e-09
1.44906e-06
-5.53785e-09
1.45642e-06
-7.36129e-09
1.46055e-06
-4.13372e-09
1.46399e-06
-3.44532e-09
1.4696e-06
-5.6166e-09
1.47369e-06
-4.09325e-09
1.47787e-06
-4.18252e-09
1.48251e-06
-4.64098e-09
1.48721e-06
-4.70896e-09
1.49167e-06
-4.46261e-09
1.49598e-06
-4.31284e-09
1.50009e-06
-4.12017e-09
1.50406e-06
-3.97561e-09
1.50785e-06
-3.79345e-09
1.51142e-06
-3.57223e-09
1.51477e-06
-3.354e-09
1.51789e-06
-3.12276e-09
1.52077e-06
-2.8835e-09
1.52346e-06
-2.70071e-09
1.52599e-06
-2.52905e-09
1.5284e-06
-2.41262e-09
1.53068e-06
-2.28108e-09
1.53285e-06
-2.17277e-09
1.5349e-06
-2.05626e-09
1.53687e-06
-1.97595e-09
1.53883e-06
-1.96106e-09
1.54055e-06
-1.71669e-09
1.5422e-06
-1.64953e-09
1.54366e-06
-1.46145e-09
1.54502e-06
-1.35818e-09
1.54631e-06
-1.28454e-09
1.54744e-06
-1.1321e-09
1.54849e-06
-1.04557e-09
1.54948e-06
-9.84548e-10
1.5504e-06
-9.20443e-10
1.55133e-06
-9.30751e-10
1.5521e-06
-7.59654e-10
1.55282e-06
-7.22087e-10
1.55327e-06
-4.40715e-10
1.55357e-06
-3.04153e-10
1.5538e-06
-2.2368e-10
1.55383e-06
-3.11008e-11
1.55387e-06
-3.69031e-11
1.55372e-06
1.5445e-10
1.55343e-06
2.93911e-10
1.55316e-06
2.75132e-10
1.55292e-06
2.38079e-10
1.55262e-06
3.0446e-10
1.55235e-06
2.71642e-10
1.55209e-06
2.59659e-10
1.55189e-06
1.97635e-10
1.55173e-06
1.53568e-10
1.55164e-06
9.25579e-11
1.5516e-06
4.26463e-11
1.55149e-06
1.04969e-10
1.55155e-06
-5.53679e-11
1.55126e-06
2.91123e-10
1.55113e-06
1.35507e-10
1.55086e-06
2.66418e-10
1.55045e-06
4.11658e-10
1.55003e-06
4.19227e-10
1.54936e-06
6.79489e-10
1.54872e-06
6.34346e-10
1.54793e-06
7.91784e-10
1.54742e-06
5.12173e-10
1.54676e-06
6.6519e-10
1.54614e-06
6.20702e-10
1.54556e-06
5.73315e-10
1.54503e-06
5.33902e-10
1.54456e-06
4.64093e-10
1.54417e-06
3.92092e-10
1.54382e-06
3.46756e-10
1.5435e-06
3.1798e-10
1.54295e-06
5.45495e-10
1.54267e-06
2.86383e-10
1.54216e-06
5.11703e-10
1.54166e-06
5.01105e-10
1.54096e-06
7.0378e-10
1.5402e-06
7.59924e-10
1.53935e-06
8.44519e-10
1.53854e-06
8.15263e-10
1.53769e-06
8.4482e-10
1.53694e-06
7.50104e-10
1.53619e-06
7.48616e-10
1.53549e-06
7.02096e-10
1.53485e-06
6.37604e-10
1.53425e-06
5.97741e-10
1.53372e-06
5.27106e-10
1.5333e-06
4.26072e-10
1.53256e-06
7.40721e-10
1.53217e-06
3.85312e-10
1.53166e-06
5.04922e-10
1.53093e-06
7.30714e-10
1.53025e-06
6.82027e-10
1.52945e-06
8.02291e-10
1.52856e-06
8.83689e-10
1.52761e-06
9.52857e-10
1.52671e-06
9.03767e-10
1.52579e-06
9.18577e-10
1.52495e-06
8.43986e-10
1.52411e-06
8.38086e-10
1.52334e-06
7.72189e-10
1.52261e-06
7.22927e-10
1.52194e-06
6.74567e-10
1.52123e-06
7.04391e-10
1.52067e-06
5.62149e-10
1.52006e-06
6.11059e-10
1.51931e-06
7.4646e-10
1.51863e-06
6.84505e-10
1.51783e-06
7.92204e-10
1.51696e-06
8.71341e-10
1.51604e-06
9.24255e-10
1.51503e-06
1.01399e-09
1.51405e-06
9.74354e-10
1.51308e-06
9.7292e-10
1.51214e-06
9.39485e-10
1.51127e-06
8.72542e-10
1.51042e-06
8.51977e-10
1.50965e-06
7.71324e-10
1.50894e-06
7.08371e-10
8.03284e-10
1.31253e-08
-2.76947e-08
1.69621e-08
-8.2682e-09
1.81695e-08
-1.80404e-09
1.74523e-08
1.75652e-09
1.57943e-08
2.95711e-09
1.26012e-08
4.70229e-09
7.25546e-09
6.98663e-09
-1.29316e-09
1.04544e-08
-1.45741e-08
1.6278e-08
-3.50742e-08
2.71644e-08
-6.33423e-08
3.95623e-08
-8.87008e-08
4.42307e-08
-1.07814e-07
4.51405e-08
-1.22874e-07
3.85109e-08
-1.34279e-07
3.00089e-08
-1.42615e-07
2.32318e-08
-1.49983e-07
1.91034e-08
-1.56204e-07
1.59525e-08
-1.61498e-07
1.36718e-08
-1.66119e-07
1.20413e-08
-1.70174e-07
1.07667e-08
-1.73826e-07
9.87935e-09
-1.771e-07
9.08156e-09
-1.80026e-07
8.37493e-09
-1.82612e-07
7.69386e-09
-1.84898e-07
7.0474e-09
-1.86849e-07
6.44434e-09
-1.88552e-07
5.6289e-09
-1.89604e-07
4.78884e-09
-1.90091e-07
3.95534e-09
-1.90194e-07
2.94311e-09
-1.89816e-07
1.96989e-09
-1.88814e-07
8.76574e-10
-1.87133e-07
-4.52912e-10
-1.84815e-07
-1.57587e-09
-1.81824e-07
-2.96183e-09
-1.78068e-07
-4.22794e-09
-1.73259e-07
-6.34116e-09
-1.67538e-07
-8.0301e-09
-1.60817e-07
-9.95853e-09
-1.52788e-07
-1.25999e-08
-1.43561e-07
-1.48445e-08
-1.332e-07
-1.70335e-08
-1.21476e-07
-1.98105e-08
-1.08592e-07
-2.20929e-08
-9.41581e-08
-2.50588e-08
-7.85155e-08
-2.72602e-08
-6.10976e-08
-3.06611e-08
-4.21306e-08
-3.36157e-08
-2.12224e-08
-3.73569e-08
8.42228e-10
-3.93766e-08
2.49498e-08
-4.33913e-08
5.06187e-08
-4.63578e-08
7.84422e-08
-5.06675e-08
1.07263e-07
-5.25368e-08
1.37924e-07
-5.60643e-08
1.70621e-07
-6.00321e-08
2.0476e-07
-6.27785e-08
2.40473e-07
-6.58776e-08
2.77235e-07
-6.78725e-08
3.15144e-07
-7.00237e-08
3.53784e-07
-7.13902e-08
3.93151e-07
-7.27214e-08
4.33266e-07
-7.41108e-08
4.74142e-07
-7.55247e-08
5.15831e-07
-7.70985e-08
5.57836e-07
-7.77858e-08
6.0024e-07
-7.85032e-08
6.4281e-07
-7.85945e-08
6.85086e-07
-7.80424e-08
7.27486e-07
-7.81249e-08
7.69154e-07
-7.67463e-08
8.10811e-07
-7.68503e-08
8.51896e-07
-7.57792e-08
8.92603e-07
-7.51182e-08
9.32794e-07
-7.41467e-08
9.72011e-07
-7.22351e-08
1.01066e-06
-7.12786e-08
1.04825e-06
-6.92081e-08
1.08491e-06
-6.73466e-08
1.12035e-06
-6.49554e-08
1.15524e-06
-6.39373e-08
1.18903e-06
-6.19261e-08
1.22207e-06
-6.04582e-08
1.25386e-06
-5.80682e-08
1.28485e-06
-5.65484e-08
1.31462e-06
-5.4177e-08
1.34358e-06
-5.26128e-08
1.37143e-06
-5.04438e-08
1.39852e-06
-4.90625e-08
1.42455e-06
-4.69395e-08
1.44982e-06
-4.54942e-08
1.47415e-06
-4.36536e-08
1.49777e-06
-4.23576e-08
1.52054e-06
-4.08415e-08
1.54253e-06
-3.95e-08
1.56362e-06
-3.76717e-08
1.58388e-06
-3.59363e-08
1.60339e-06
-3.43223e-08
1.62223e-06
-3.28947e-08
1.64042e-06
-3.16329e-08
1.65801e-06
-3.06381e-08
1.67491e-06
-2.94043e-08
1.69119e-06
-2.82195e-08
1.70687e-06
-2.70408e-08
1.72199e-06
-2.59216e-08
1.73659e-06
-2.48957e-08
1.7507e-06
-2.39213e-08
1.76432e-06
-2.301e-08
1.77748e-06
-2.21085e-08
1.79025e-06
-2.13604e-08
1.80263e-06
-2.0569e-08
1.81471e-06
-1.99423e-08
1.82646e-06
-1.92983e-08
1.83789e-06
-1.87244e-08
1.84903e-06
-1.81893e-08
1.85977e-06
-1.78397e-08
1.86979e-06
-1.65944e-08
1.87962e-06
-1.64978e-08
1.88793e-06
-1.38573e-08
1.89889e-06
-1.83207e-08
1.90724e-06
-1.24875e-08
1.91428e-06
-1.04881e-08
1.92313e-06
-1.44719e-08
1.93161e-06
-1.25715e-08
1.93961e-06
-1.21846e-08
1.94764e-06
-1.26786e-08
1.95556e-06
-1.26349e-08
1.96309e-06
-1.19961e-08
1.97029e-06
-1.15139e-08
1.97716e-06
-1.09942e-08
1.98378e-06
-1.06053e-08
1.99013e-06
-1.01485e-08
1.99617e-06
-9.62009e-09
2.00191e-06
-9.09704e-09
2.00737e-06
-8.58569e-09
2.01261e-06
-8.12645e-09
2.01774e-06
-7.83533e-09
2.02269e-06
-7.48356e-09
2.02747e-06
-7.1934e-09
2.03207e-06
-6.89077e-09
2.03656e-06
-6.66132e-09
2.04091e-06
-6.40896e-09
2.04517e-06
-6.2427e-09
2.04933e-06
-6.12252e-09
2.05347e-06
-5.86255e-09
2.05754e-06
-5.7118e-09
2.06152e-06
-5.44975e-09
2.06536e-06
-5.19169e-09
2.06909e-06
-5.01622e-09
2.07264e-06
-4.67884e-09
2.07612e-06
-4.51677e-09
2.07951e-06
-4.37514e-09
2.0828e-06
-4.20011e-09
2.08592e-06
-4.04906e-09
2.08884e-06
-3.68228e-09
2.09148e-06
-3.3565e-09
2.09383e-06
-2.78925e-09
2.09582e-06
-2.2869e-09
2.0977e-06
-2.09762e-09
2.09925e-06
-1.5828e-09
2.10118e-06
-1.95891e-09
2.10255e-06
-1.2125e-09
2.10392e-06
-1.07659e-09
2.1054e-06
-1.19917e-09
2.10695e-06
-1.31589e-09
2.10858e-06
-1.32137e-09
2.1102e-06
-1.34514e-09
2.11189e-06
-1.42707e-09
2.11349e-06
-1.40762e-09
2.11504e-06
-1.40022e-09
2.11652e-06
-1.38184e-09
2.11786e-06
-1.29954e-09
2.11907e-06
-1.10453e-09
2.12003e-06
-1.01338e-09
2.12081e-06
-4.86719e-10
2.12133e-06
-3.82004e-10
2.12167e-06
-7.68655e-11
2.12192e-06
1.70319e-10
2.12211e-06
2.26716e-10
2.12223e-06
5.65927e-10
2.12228e-06
5.81694e-10
2.12261e-06
4.64261e-10
2.12289e-06
2.31512e-10
2.12321e-06
3.47606e-10
2.12354e-06
2.88558e-10
2.12395e-06
1.68388e-10
2.1244e-06
8.1836e-11
2.12481e-06
5.02342e-11
2.12515e-06
5.55002e-11
2.12534e-06
1.5426e-10
2.1254e-06
2.57308e-10
2.12526e-06
6.77335e-10
2.12503e-06
5.16889e-10
2.12462e-06
9.21481e-10
2.1241e-06
1.02433e-09
2.12351e-06
1.29919e-09
2.12286e-06
1.41171e-09
2.12225e-06
1.45049e-09
2.1217e-06
1.36437e-09
2.12122e-06
1.32411e-09
2.1209e-06
1.07477e-09
2.12059e-06
1.05913e-09
2.12031e-06
9.82712e-10
2.12004e-06
9.01345e-10
2.1198e-06
8.3794e-10
2.11938e-06
9.47901e-10
2.11912e-06
6.81776e-10
2.11812e-06
1.74788e-09
2.1175e-06
9.95761e-10
2.11681e-06
1.19795e-09
2.11581e-06
1.72718e-09
2.11481e-06
1.68003e-09
2.11377e-06
1.84003e-09
2.11271e-06
1.94372e-09
2.11168e-06
1.98383e-09
2.11072e-06
1.86317e-09
2.10983e-06
1.80884e-09
2.10901e-06
1.6707e-09
2.10827e-06
1.58041e-09
2.10751e-06
1.52568e-09
2.10679e-06
1.44555e-09
2.10611e-06
1.35665e-09
2.10499e-06
1.82028e-09
2.10413e-06
1.42626e-09
2.10318e-06
1.55413e-09
2.10198e-06
1.9446e-09
2.10079e-06
1.88179e-09
2.09956e-06
2.02156e-09
2.09826e-06
2.16337e-09
2.09695e-06
2.23426e-09
2.09562e-06
2.35071e-09
2.09436e-06
2.23576e-09
2.09315e-06
2.1775e-09
2.092e-06
2.08876e-09
2.0909e-06
1.97386e-09
2.08987e-06
1.88898e-09
2.08885e-06
1.79182e-09
2.08782e-06
1.73552e-09
1.99484e-09
9.45694e-09
-3.71518e-08
1.32363e-08
-1.20477e-08
1.45349e-08
-3.10292e-09
1.3084e-08
3.20723e-09
9.6986e-09
6.34226e-09
3.47858e-09
1.09221e-08
-7.08057e-09
1.75455e-08
-2.3834e-08
2.72076e-08
-4.92895e-08
4.17333e-08
-7.53081e-08
5.3183e-08
-9.52817e-08
5.95358e-08
-1.09858e-07
5.88067e-08
-1.19566e-07
5.4849e-08
-1.26047e-07
4.49921e-08
-1.32882e-07
3.68433e-08
-1.39193e-07
2.95427e-08
-1.44317e-07
2.42278e-08
-1.48629e-07
2.02646e-08
-1.52329e-07
1.73715e-08
-1.5562e-07
1.53321e-08
-1.58492e-07
1.36384e-08
-1.61037e-07
1.24246e-08
-1.63268e-07
1.13129e-08
-1.652e-07
1.0306e-08
-1.66856e-07
9.34981e-09
-1.6814e-07
8.33208e-09
-1.68947e-07
7.25122e-09
-1.69315e-07
5.99692e-09
-1.6928e-07
4.7532e-09
-1.68701e-07
3.37646e-09
-1.67632e-07
1.87425e-09
-1.65936e-07
2.74533e-10
-1.63583e-07
-1.47628e-09
-1.60476e-07
-3.55951e-09
-1.56623e-07
-5.42894e-09
-1.51972e-07
-7.61264e-09
-1.46462e-07
-9.73813e-09
-1.39824e-07
-1.29796e-08
-1.32142e-07
-1.57122e-08
-1.23409e-07
-1.86909e-08
-1.13271e-07
-2.27376e-08
-1.01745e-07
-2.63712e-08
-8.89553e-08
-2.98231e-08
-7.46848e-08
-3.40817e-08
-5.91347e-08
-3.76432e-08
-4.18717e-08
-4.23217e-08
-2.32394e-08
-4.58932e-08
-2.62103e-09
-5.12806e-08
1.96771e-08
-5.59149e-08
4.41406e-08
-6.18206e-08
6.98931e-08
-6.51274e-08
9.79541e-08
-7.14499e-08
1.27665e-07
-7.60642e-08
1.59669e-07
-8.26695e-08
1.92691e-07
-8.55659e-08
2.27851e-07
-9.12361e-08
2.65015e-07
-9.7213e-08
3.03497e-07
-1.01276e-07
3.43729e-07
-1.06118e-07
3.85017e-07
-1.09162e-07
4.27576e-07
-1.12578e-07
4.70819e-07
-1.14627e-07
5.14852e-07
-1.16748e-07
5.59628e-07
-1.18884e-07
6.05188e-07
-1.21085e-07
6.51525e-07
-1.23437e-07
6.97962e-07
-1.24222e-07
7.4478e-07
-1.25319e-07
7.9137e-07
-1.25182e-07
8.37623e-07
-1.24294e-07
8.83716e-07
-1.24219e-07
9.28983e-07
-1.22018e-07
9.74116e-07
-1.21985e-07
1.01846e-06
-1.20126e-07
1.06237e-06
-1.19028e-07
1.10549e-06
-1.17258e-07
1.14754e-06
-1.14286e-07
1.18888e-06
-1.12623e-07
1.22904e-06
-1.09359e-07
1.26816e-06
-1.06471e-07
1.30603e-06
-1.02831e-07
1.34319e-06
-1.01101e-07
1.37912e-06
-9.78599e-08
1.4141e-06
-9.54431e-08
1.44772e-06
-9.16938e-08
1.48042e-06
-8.92498e-08
1.51185e-06
-8.56111e-08
1.54242e-06
-8.31855e-08
1.57183e-06
-7.98528e-08
1.60041e-06
-7.76419e-08
1.62787e-06
-7.43997e-08
1.65457e-06
-7.22012e-08
1.68028e-06
-6.93554e-08
1.7052e-06
-6.72765e-08
1.72914e-06
-6.47714e-08
1.75218e-06
-6.25365e-08
1.77422e-06
-5.97074e-08
1.7955e-06
-5.721e-08
1.81612e-06
-5.49441e-08
1.83618e-06
-5.29595e-08
1.85562e-06
-5.10868e-08
1.87441e-06
-4.94275e-08
1.89242e-06
-4.7422e-08
1.90978e-06
-4.55813e-08
1.92653e-06
-4.37883e-08
1.94274e-06
-4.21302e-08
1.95847e-06
-4.06191e-08
1.97372e-06
-3.9169e-08
1.98849e-06
-3.77876e-08
2.00283e-06
-3.64483e-08
2.01683e-06
-3.53518e-08
2.03047e-06
-3.42159e-08
2.04388e-06
-3.33566e-08
2.05698e-06
-3.23991e-08
2.06981e-06
-3.15587e-08
2.08235e-06
-3.07316e-08
2.09429e-06
-2.97747e-08
2.1054e-06
-2.77071e-08
2.11612e-06
-2.72243e-08
2.12541e-06
-2.31455e-08
2.13687e-06
-2.97908e-08
2.14669e-06
-2.23103e-08
2.15547e-06
-1.92657e-08
2.16507e-06
-2.40786e-08
2.17527e-06
-2.27677e-08
2.1851e-06
-2.2023e-08
2.19465e-06
-2.22304e-08
2.20392e-06
-2.19065e-08
2.21274e-06
-2.082e-08
2.22114e-06
-1.99212e-08
2.22912e-06
-1.89819e-08
2.2368e-06
-1.82866e-08
2.24414e-06
-1.75023e-08
2.25113e-06
-1.6614e-08
2.25776e-06
-1.57357e-08
2.26408e-06
-1.49067e-08
2.27022e-06
-1.42695e-08
2.27629e-06
-1.39056e-08
2.2822e-06
-1.3396e-08
2.28795e-06
-1.29438e-08
2.29353e-06
-1.2477e-08
2.29901e-06
-1.21465e-08
2.30437e-06
-1.17709e-08
2.30967e-06
-1.15402e-08
2.31484e-06
-1.12968e-08
2.32003e-06
-1.10563e-08
2.32513e-06
-1.08115e-08
2.33015e-06
-1.04741e-08
2.33499e-06
-1.00264e-08
2.33969e-06
-9.71888e-09
2.34419e-06
-9.17146e-09
2.34862e-06
-8.94916e-09
2.35297e-06
-8.71636e-09
2.35718e-06
-8.40913e-09
2.36118e-06
-8.04472e-09
2.36494e-06
-7.43238e-09
2.36832e-06
-6.7335e-09
2.37133e-06
-5.80273e-09
2.37393e-06
-4.88046e-09
2.37637e-06
-4.53362e-09
2.37849e-06
-3.69989e-09
2.38096e-06
-4.42969e-09
2.38301e-06
-3.25734e-09
2.38507e-06
-3.13748e-09
2.38727e-06
-3.38986e-09
2.3896e-06
-3.65026e-09
2.39206e-06
-3.7712e-09
2.39454e-06
-3.83338e-09
2.39705e-06
-3.93063e-09
2.39951e-06
-3.87367e-09
2.40187e-06
-3.75507e-09
2.40407e-06
-3.58915e-09
2.4061e-06
-3.33016e-09
2.40793e-06
-2.92979e-09
2.40939e-06
-2.47333e-09
2.41064e-06
-1.73635e-09
2.41157e-06
-1.30986e-09
2.41223e-06
-7.34495e-10
2.41269e-06
-2.81728e-10
2.41314e-06
-2.24841e-10
2.41364e-06
6.11112e-11
2.4141e-06
1.23796e-10
2.41484e-06
-2.75473e-10
2.41553e-06
-4.53115e-10
2.41631e-06
-4.31049e-10
2.41715e-06
-5.56092e-10
2.41808e-06
-7.54657e-10
2.41905e-06
-8.93017e-10
2.41994e-06
-8.37496e-10
2.42069e-06
-6.88579e-10
2.42118e-06
-3.41753e-10
2.42144e-06
-8.06904e-12
2.42157e-06
5.51305e-10
2.42139e-06
6.92077e-10
2.42103e-06
1.28201e-09
2.42051e-06
1.54328e-09
2.41998e-06
1.82882e-09
2.41944e-06
1.95631e-09
2.41891e-06
1.97592e-09
2.4185e-06
1.77402e-09
2.41825e-06
1.58202e-09
2.41811e-06
1.21446e-09
2.41804e-06
1.12439e-09
2.41802e-06
1.00677e-09
2.41798e-06
9.44203e-10
2.41796e-06
8.53375e-10
2.41767e-06
1.23821e-09
2.41743e-06
9.16252e-10
2.41653e-06
2.656e-09
2.41569e-06
1.83003e-09
2.41486e-06
2.02804e-09
2.41377e-06
2.81863e-09
2.41259e-06
2.85043e-09
2.41142e-06
3.01543e-09
2.41027e-06
3.0966e-09
2.40919e-06
3.0568e-09
2.40821e-06
2.84929e-09
2.40732e-06
2.69493e-09
2.40651e-06
2.48415e-09
2.40582e-06
2.26902e-09
2.40512e-06
2.22322e-09
2.40438e-06
2.18852e-09
2.4037e-06
2.03092e-09
2.40247e-06
3.04834e-09
2.40141e-06
2.48791e-09
2.40028e-06
2.68059e-09
2.39885e-06
3.37748e-09
2.39738e-06
3.35111e-09
2.39591e-06
3.49636e-09
2.39438e-06
3.6916e-09
2.39284e-06
3.77003e-09
2.39133e-06
3.86699e-09
2.3899e-06
3.66439e-09
2.38855e-06
3.52439e-09
2.38728e-06
3.36122e-09
2.38606e-06
3.19123e-09
2.38492e-06
3.03213e-09
2.38374e-06
2.97137e-09
2.38256e-06
2.9165e-09
3.3722e-09
5.96502e-09
-4.3117e-08
8.72031e-09
-1.48032e-08
9.31585e-09
-3.6987e-09
5.98127e-09
6.54157e-09
-4.18706e-10
1.2742e-08
-1.10867e-08
2.15899e-08
-2.81405e-08
3.45991e-08
-5.25117e-08
5.15787e-08
-7.50195e-08
6.42411e-08
-9.2018e-08
7.01814e-08
-1.0373e-07
7.12478e-08
-1.11384e-07
6.64603e-08
-1.16499e-07
5.99641e-08
-1.21492e-07
4.99854e-08
-1.25969e-07
4.132e-08
-1.30006e-07
3.35792e-08
-1.33563e-07
2.7785e-08
-1.3672e-07
2.34214e-08
-1.39505e-07
2.01572e-08
-1.41983e-07
1.781e-08
-1.44162e-07
1.58172e-08
-1.4604e-07
1.43024e-08
-1.47631e-07
1.29044e-08
-1.48927e-07
1.16017e-08
-1.49844e-07
1.02668e-08
-1.5032e-07
8.8081e-09
-1.50392e-07
7.32286e-09
-1.50016e-07
5.62047e-09
-1.49124e-07
3.86165e-09
-1.47604e-07
1.85677e-09
-1.45492e-07
-2.37655e-10
-1.42669e-07
-2.54891e-09
-1.39115e-07
-5.03008e-09
-1.34668e-07
-8.00575e-09
-1.29342e-07
-1.07548e-08
-1.2308e-07
-1.38746e-08
-1.15912e-07
-1.69063e-08
-1.07486e-07
-2.14055e-08
-9.78368e-08
-2.53607e-08
-8.7066e-08
-2.94614e-08
-7.4748e-08
-3.50555e-08
-6.08324e-08
-4.02867e-08
-4.55088e-08
-4.51475e-08
-2.85284e-08
-5.1063e-08
-1.01383e-08
-5.60331e-08
1.01685e-08
-6.26279e-08
3.19982e-08
-6.77234e-08
5.61185e-08
-7.54022e-08
8.20705e-08
-8.18684e-08
1.10515e-07
-9.02647e-08
1.4032e-07
-9.49291e-08
1.72779e-07
-1.03901e-07
2.07007e-07
-1.10277e-07
2.43702e-07
-1.19347e-07
2.81314e-07
-1.23163e-07
3.21435e-07
-1.31346e-07
3.63629e-07
-1.39405e-07
4.07058e-07
-1.44708e-07
4.52362e-07
-1.51425e-07
4.98609e-07
-1.55411e-07
5.46286e-07
-1.60254e-07
5.94477e-07
-1.62814e-07
6.43554e-07
-1.65822e-07
6.93302e-07
-1.6863e-07
7.43817e-07
-1.716e-07
7.94861e-07
-1.74483e-07
8.45816e-07
-1.75177e-07
8.97029e-07
-1.7653e-07
9.47571e-07
-1.75719e-07
9.97721e-07
-1.7444e-07
1.04731e-06
-1.73802e-07
1.09596e-06
-1.70674e-07
1.14428e-06
-1.70308e-07
1.19154e-06
-1.67386e-07
1.23817e-06
-1.6565e-07
1.28363e-06
-1.62723e-07
1.3279e-06
-1.58546e-07
1.37124e-06
-1.55961e-07
1.41315e-06
-1.51267e-07
1.4539e-06
-1.47227e-07
1.49336e-06
-1.42292e-07
1.53188e-06
-1.39617e-07
1.56891e-06
-1.34901e-07
1.60477e-06
-1.31306e-07
1.6391e-06
-1.26019e-07
1.67239e-06
-1.22551e-07
1.70429e-06
-1.17515e-07
1.7353e-06
-1.14195e-07
1.76505e-06
-1.09606e-07
1.79391e-06
-1.065e-07
1.82157e-06
-1.02061e-07
1.8485e-06
-9.91244e-08
1.87432e-06
-9.51771e-08
1.89929e-06
-9.22407e-08
1.9231e-06
-8.85757e-08
1.94591e-06
-8.53322e-08
1.96759e-06
-8.13897e-08
1.9886e-06
-7.8215e-08
2.00904e-06
-7.53842e-08
2.02901e-06
-7.29352e-08
2.04841e-06
-7.04881e-08
2.06709e-06
-6.81125e-08
2.08493e-06
-6.52661e-08
2.1021e-06
-6.27575e-08
2.11866e-06
-6.03467e-08
2.13471e-06
-5.81838e-08
2.15031e-06
-5.62203e-08
2.16548e-06
-5.43304e-08
2.18019e-06
-5.2496e-08
2.1945e-06
-5.07592e-08
2.20849e-06
-4.93465e-08
2.22219e-06
-4.79154e-08
2.23575e-06
-4.69197e-08
2.24899e-06
-4.56436e-08
2.26206e-06
-4.46211e-08
2.27481e-06
-4.34913e-08
2.28686e-06
-4.18193e-08
2.298e-06
-3.88532e-08
2.30852e-06
-3.77521e-08
2.31799e-06
-3.26191e-08
2.32835e-06
-4.01507e-08
2.33881e-06
-3.27745e-08
2.34863e-06
-2.90809e-08
2.35816e-06
-3.36155e-08
2.36881e-06
-3.34152e-08
2.37928e-06
-3.24975e-08
2.38932e-06
-3.22773e-08
2.399e-06
-3.15808e-08
2.40819e-06
-3.00166e-08
2.41694e-06
-2.86788e-08
2.42522e-06
-2.72701e-08
2.43316e-06
-2.62336e-08
2.44074e-06
-2.50853e-08
2.44793e-06
-2.38079e-08
2.45473e-06
-2.25437e-08
2.46119e-06
-2.13673e-08
2.46752e-06
-2.0602e-08
2.4738e-06
-2.01912e-08
2.47994e-06
-1.95398e-08
2.48595e-06
-1.89542e-08
2.49182e-06
-1.83462e-08
2.49761e-06
-1.79446e-08
2.5033e-06
-1.74609e-08
2.50896e-06
-1.71989e-08
2.51451e-06
-1.68547e-08
2.5201e-06
-1.66433e-08
2.52559e-06
-1.63074e-08
2.531e-06
-1.58852e-08
2.5362e-06
-1.52256e-08
2.54125e-06
-1.47693e-08
2.54607e-06
-1.39836e-08
2.55086e-06
-1.37335e-08
2.55553e-06
-1.33849e-08
2.56007e-06
-1.29421e-08
2.56436e-06
-1.2333e-08
2.56837e-06
-1.14398e-08
2.57195e-06
-1.03142e-08
2.57511e-06
-8.95912e-09
2.57785e-06
-7.61557e-09
2.58038e-06
-7.0611e-09
2.5826e-06
-5.91836e-09
2.5851e-06
-6.93088e-09
2.58736e-06
-5.50792e-09
2.58964e-06
-5.41976e-09
2.59206e-06
-5.80324e-09
2.59465e-06
-6.24294e-09
2.59743e-06
-6.5426e-09
2.60028e-06
-6.68659e-09
2.60316e-06
-6.80756e-09
2.60601e-06
-6.72367e-09
2.60872e-06
-6.47067e-09
2.61126e-06
-6.12888e-09
2.6136e-06
-5.67365e-09
2.61568e-06
-5.00664e-09
2.61734e-06
-4.13489e-09
2.61877e-06
-3.16563e-09
2.61985e-06
-2.38428e-09
2.62063e-06
-1.51345e-09
2.62111e-06
-7.58286e-10
2.62162e-06
-7.33462e-10
2.62226e-06
-5.79256e-10
2.6229e-06
-5.1151e-10
2.62375e-06
-1.13455e-09
2.62464e-06
-1.3418e-09
2.62564e-06
-1.42598e-09
2.6267e-06
-1.61999e-09
2.6279e-06
-1.94505e-09
2.62915e-06
-2.14372e-09
2.6303e-06
-1.98922e-09
2.63127e-06
-1.65908e-09
2.63193e-06
-1.00527e-09
2.63233e-06
-4.03867e-10
2.63252e-06
3.54537e-10
2.63236e-06
8.50627e-10
2.632e-06
1.64381e-09
2.63146e-06
2.0812e-09
2.63091e-06
2.38146e-09
2.6304e-06
2.46545e-09
2.62988e-06
2.49242e-09
2.62953e-06
2.12795e-09
2.62937e-06
1.74097e-09
2.62931e-06
1.27455e-09
2.62933e-06
1.10207e-09
2.62948e-06
8.58379e-10
2.62957e-06
8.5367e-10
2.62964e-06
7.89968e-10
2.6295e-06
1.37269e-09
2.62924e-06
1.18042e-09
2.62845e-06
3.44955e-09
2.62746e-06
2.80993e-09
2.62649e-06
3.00338e-09
2.62532e-06
3.98097e-09
2.62403e-06
4.14614e-09
2.62273e-06
4.31018e-09
2.62149e-06
4.34049e-09
2.62035e-06
4.19526e-09
2.61932e-06
3.87715e-09
2.61841e-06
3.60595e-09
2.61759e-06
3.31047e-09
2.61691e-06
2.94313e-09
2.61623e-06
2.89952e-09
2.61547e-06
2.95309e-09
2.61477e-06
2.72558e-09
2.61351e-06
4.30604e-09
2.61232e-06
3.68114e-09
2.61105e-06
3.9452e-09
2.60946e-06
4.96992e-09
2.60781e-06
5.00184e-09
2.60614e-06
5.16249e-09
2.60443e-06
5.40149e-09
2.60272e-06
5.48177e-09
2.60106e-06
5.5302e-09
2.5995e-06
5.22901e-09
2.59803e-06
4.99183e-09
2.59665e-06
4.73721e-09
2.59534e-06
4.50329e-09
2.59411e-06
4.26381e-09
2.59284e-06
4.24868e-09
2.59154e-06
4.20838e-09
4.89704e-09
3.11656e-09
-4.62338e-08
4.1001e-09
-1.5787e-08
3.80093e-09
-3.39977e-09
-1.87871e-09
1.2221e-08
-1.22686e-08
2.31317e-08
-2.83251e-08
3.76462e-08
-5.04457e-08
5.67195e-08
-7.01524e-08
7.12854e-08
-8.50449e-08
7.91335e-08
-9.5609e-08
8.07455e-08
-1.02355e-07
7.79934e-08
-1.07413e-07
7.15191e-08
-1.10467e-07
6.30177e-08
-1.13406e-07
5.29247e-08
-1.16202e-07
4.41157e-08
-1.18989e-07
3.63659e-08
-1.21613e-07
3.04088e-08
-1.24004e-07
2.58132e-08
-1.26141e-07
2.22942e-08
-1.28008e-07
1.96765e-08
-1.29617e-07
1.74264e-08
-1.30928e-07
1.5613e-08
-1.31937e-07
1.39136e-08
-1.32569e-07
1.22334e-08
-1.32812e-07
1.05097e-08
-1.32642e-07
8.63817e-09
-1.3199e-07
6.67142e-09
-1.30781e-07
4.41101e-09
-1.28966e-07
2.04694e-09
-1.26438e-07
-6.71508e-10
-1.23218e-07
-3.45745e-09
-1.19181e-07
-6.58564e-09
-1.14328e-07
-9.88335e-09
-1.08429e-07
-1.39051e-08
-1.01503e-07
-1.76799e-08
-9.348e-08
-2.18978e-08
-8.44699e-08
-2.59159e-08
-7.40181e-08
-3.18567e-08
-6.21232e-08
-3.72551e-08
-4.90149e-08
-4.25692e-08
-3.41498e-08
-4.99201e-08
-1.74239e-08
-5.70125e-08
8.99366e-10
-6.3472e-08
2.1122e-08
-7.12871e-08
4.28786e-08
-7.77889e-08
6.69262e-08
-8.66743e-08
9.26836e-08
-9.34815e-08
1.21224e-07
-1.03944e-07
1.51761e-07
-1.12407e-07
1.85248e-07
-1.23752e-07
2.20168e-07
-1.29845e-07
2.58323e-07
-1.42044e-07
2.98326e-07
-1.50257e-07
3.41135e-07
-1.62125e-07
3.84835e-07
-1.66831e-07
4.31602e-07
-1.78083e-07
4.80528e-07
-1.8831e-07
5.30311e-07
-1.9448e-07
5.82388e-07
-2.03498e-07
6.35079e-07
-2.08104e-07
6.89394e-07
-2.14572e-07
7.43777e-07
-2.17198e-07
7.99033e-07
-2.2108e-07
8.54734e-07
-2.24331e-07
9.10901e-07
-2.27768e-07
9.67337e-07
-2.30922e-07
1.02337e-06
-2.31215e-07
1.07931e-06
-2.32466e-07
1.13425e-06
-2.30652e-07
1.18863e-06
-2.2882e-07
1.24208e-06
-2.27244e-07
1.29437e-06
-2.22965e-07
1.34599e-06
-2.21929e-07
1.39615e-06
-2.17543e-07
1.44533e-06
-2.14822e-07
1.49291e-06
-2.10309e-07
1.53906e-06
-2.04691e-07
1.58396e-06
-2.00859e-07
1.62704e-06
-1.94343e-07
1.66885e-06
-1.89035e-07
1.70919e-06
-1.82634e-07
1.74828e-06
-1.78705e-07
1.78541e-06
-1.72031e-07
1.82113e-06
-1.67032e-07
1.8551e-06
-1.5999e-07
1.88799e-06
-1.55449e-07
1.91934e-06
-1.4886e-07
1.94981e-06
-1.44675e-07
1.9789e-06
-1.38695e-07
2.00706e-06
-1.34662e-07
2.03393e-06
-1.28926e-07
2.06006e-06
-1.25252e-07
2.08492e-06
-1.20034e-07
2.10882e-06
-1.16133e-07
2.13136e-06
-1.11112e-07
2.15282e-06
-1.06783e-07
2.17306e-06
-1.01625e-07
2.19279e-06
-9.79452e-08
2.21203e-06
-9.46282e-08
2.23089e-06
-9.18014e-08
2.2492e-06
-8.87933e-08
2.26673e-06
-8.56465e-08
2.28337e-06
-8.19093e-08
2.29935e-06
-7.87446e-08
2.31473e-06
-7.57284e-08
2.32966e-06
-7.31204e-08
2.34419e-06
-7.0749e-08
2.35833e-06
-6.84649e-08
2.37205e-06
-6.62102e-08
2.38544e-06
-6.41473e-08
2.39857e-06
-6.24797e-08
2.41148e-06
-6.08277e-08
2.42433e-06
-5.97693e-08
2.43687e-06
-5.81866e-08
2.44936e-06
-5.71137e-08
2.46149e-06
-5.56276e-08
2.47282e-06
-5.31502e-08
2.48318e-06
-4.9215e-08
2.49272e-06
-4.7286e-08
2.50171e-06
-4.1619e-08
2.51047e-06
-4.89103e-08
2.52064e-06
-4.29423e-08
2.53055e-06
-3.89998e-08
2.53958e-06
-4.26468e-08
2.54991e-06
-4.37418e-08
2.56021e-06
-4.28044e-08
2.57004e-06
-4.21108e-08
2.57944e-06
-4.09793e-08
2.58834e-06
-3.89207e-08
2.59681e-06
-3.71524e-08
2.60478e-06
-3.52428e-08
2.61239e-06
-3.38496e-08
2.6196e-06
-3.23042e-08
2.62641e-06
-3.06234e-08
2.63283e-06
-2.89693e-08
2.63889e-06
-2.74268e-08
2.64488e-06
-2.65965e-08
2.65084e-06
-2.61499e-08
2.65667e-06
-2.53728e-08
2.66241e-06
-2.4701e-08
2.66805e-06
-2.39815e-08
2.67365e-06
-2.35437e-08
2.67915e-06
-2.2969e-08
2.68466e-06
-2.27038e-08
2.69012e-06
-2.23236e-08
2.69564e-06
-2.21603e-08
2.70108e-06
-2.17511e-08
2.70644e-06
-2.12441e-08
2.71159e-06
-2.03759e-08
2.71659e-06
-1.97686e-08
2.72134e-06
-1.87285e-08
2.72609e-06
-1.84883e-08
2.73071e-06
-1.79936e-08
2.73519e-06
-1.74246e-08
2.73941e-06
-1.65436e-08
2.74331e-06
-1.5343e-08
2.74675e-06
-1.37483e-08
2.74972e-06
-1.19237e-08
2.75229e-06
-1.01889e-08
2.75461e-06
-9.37378e-09
2.75666e-06
-7.96551e-09
2.75885e-06
-9.12016e-09
2.76095e-06
-7.61395e-09
2.76318e-06
-7.64543e-09
2.76555e-06
-8.16753e-09
2.76809e-06
-8.78474e-09
2.77087e-06
-9.32099e-09
2.77377e-06
-9.58384e-09
2.77673e-06
-9.76821e-09
2.77966e-06
-9.65809e-09
2.78246e-06
-9.2653e-09
2.78507e-06
-8.7375e-09
2.78746e-06
-8.06999e-09
2.78954e-06
-7.09009e-09
2.79118e-06
-5.76776e-09
2.79258e-06
-4.56532e-09
2.79359e-06
-3.39197e-09
2.79426e-06
-2.18048e-09
2.79464e-06
-1.13988e-09
2.79505e-06
-1.13663e-09
2.79561e-06
-1.1443e-09
2.79621e-06
-1.1092e-09
2.79703e-06
-1.95487e-09
2.79792e-06
-2.23251e-09
2.79895e-06
-2.45813e-09
2.8001e-06
-2.76927e-09
2.80139e-06
-3.22972e-09
2.80272e-06
-3.47338e-09
2.80396e-06
-3.23226e-09
2.805e-06
-2.69726e-09
2.8057e-06
-1.70143e-09
2.8061e-06
-8.01479e-10
2.80626e-06
1.93239e-10
2.80603e-06
1.07994e-09
2.80557e-06
2.10466e-09
2.80493e-06
2.71291e-09
2.80428e-06
3.03519e-09
2.80367e-06
3.07215e-09
2.80312e-06
3.0394e-09
2.80274e-06
2.50858e-09
2.80256e-06
1.92508e-09
2.8025e-06
1.33104e-09
2.80254e-06
1.06e-09
2.80275e-06
6.56909e-10
2.80288e-06
7.21538e-10
2.80295e-06
7.17003e-10
2.80288e-06
1.45055e-09
2.80252e-06
1.53298e-09
2.80177e-06
4.20784e-09
2.80065e-06
3.91998e-09
2.7995e-06
4.15786e-09
2.79823e-06
5.24511e-09
2.7968e-06
5.5799e-09
2.79536e-06
5.74381e-09
2.794e-06
5.70298e-09
2.79276e-06
5.43292e-09
2.79166e-06
4.98284e-09
2.79068e-06
4.58277e-09
2.78981e-06
4.18254e-09
2.78908e-06
3.67177e-09
2.78839e-06
3.58783e-09
2.78758e-06
3.76489e-09
2.78683e-06
3.47831e-09