/*--------------------------------*- C++ -*----------------------------------*\
| =========                 |                                                 |
| \\      /  F ield         | OpenFOAM: The Open Source CFD Toolbox           |
|  \\    /   O peration     | Version:  2312                                  |
|   \\  /    A nd           | Website:  www.openfoam.com                      |
|    \\/     M anipulation  |                                                 |
\*---------------------------------------------------------------------------*/
FoamFile
{
    version     2.0;
    format      ascii;
    arch        "LSB;label=32;scalar=64";
    class       volScalarField;
    location    "0.005";
    object      rho;
}
// * * * * * * * * * * * * * * * * * * * * * * * * * * * * * * * * * * * * * //

dimensions      [1 -3 0 0 0 0 0];

internalField   nonuniform List<scalar> 
48128
(
0.0342598
0.0342548
0.0341726
0.0340699
0.0340561
0.0340205
0.0339898
0.0339393
0.033876
0.0338015
0.033904
0.0339289
0.0339911
0.0339099
0.0337124
0.033525
0.033397
0.033316
0.0332862
0.0333085
0.0333814
0.0335004
0.0336659
0.0338799
0.0341454
0.0344638
0.0348391
0.0352922
0.0358048
0.0363884
0.0370443
0.037774
0.0385788
0.0394669
0.0404295
0.0414788
0.0426114
0.0438345
0.0451276
0.0465228
0.0480008
0.0495591
0.0512021
0.0529311
0.0547158
0.0566166
0.0585359
0.0605991
0.0626667
0.0648657
0.0670599
0.069388
0.0717081
0.0741316
0.0765397
0.079036
0.081535
0.0840408
0.0865658
0.0890738
0.0915753
0.0940495
0.0965
0.0989191
0.101301
0.103643
0.105931
0.108168
0.110364
0.112462
0.114539
0.116498
0.11843
0.120285
0.122035
0.123758
0.12533
0.126911
0.128349
0.129784
0.1311
0.132427
0.133615
0.134798
0.135873
0.136935
0.137913
0.138882
0.139771
0.14065
0.141451
0.142243
0.142964
0.14367
0.144293
0.144867
0.145361
0.145844
0.146329
0.146817
0.147297
0.14777
0.148186
0.148569
0.148925
0.14927
0.149607
0.149934
0.150252
0.150565
0.150875
0.151191
0.151516
0.151849
0.152189
0.152523
0.152859
0.15307
0.153225
0.153261
0.153282
0.153778
0.153914
0.154068
0.154415
0.154727
0.155035
0.155352
0.155628
0.155873
0.15608
0.156265
0.156437
0.156576
0.156698
0.156783
0.156871
0.156962
0.157056
0.15715
0.157247
0.157347
0.157452
0.157561
0.157684
0.157815
0.157947
0.158088
0.158211
0.158336
0.158441
0.158548
0.158657
0.158763
0.158865
0.158938
0.159005
0.15901
0.158992
0.158959
0.158903
0.158824
0.158818
0.158786
0.158775
0.158787
0.158816
0.158871
0.158938
0.159016
0.159093
0.159169
0.159232
0.159287
0.159315
0.159317
0.159297
0.159265
0.159207
0.159136
0.159081
0.159036
0.159
0.159
0.159014
0.159037
0.159075
0.159128
0.159185
0.159239
0.15928
0.15929
0.159291
0.159264
0.159225
0.159167
0.15911
0.159054
0.159004
0.158974
0.158957
0.158953
0.158971
0.159003
0.159039
0.159082
0.15911
0.159139
0.159155
0.159111
0.15908
0.159036
0.158977
0.158921
0.158869
0.158823
0.158799
0.158785
0.158781
0.158788
0.158809
0.158832
0.158861
0.158883
0.158865
0.158853
0.158821
0.158775
0.158731
0.158683
0.158634
0.158587
0.158557
0.158537
0.158525
0.158523
0.15853
0.158541
0.158562
0.158558
0.034195
0.0342251
0.0341753
0.034101
0.0341023
0.0340747
0.0340471
0.0340008
0.034005
0.0340776
0.0342815
0.0343693
0.0344111
0.0343655
0.0342846
0.0342516
0.03416
0.0340886
0.0340538
0.034064
0.0341186
0.0342137
0.0343498
0.0345293
0.0347551
0.0350321
0.0353669
0.0357482
0.0362002
0.0367269
0.0373204
0.0379957
0.0387409
0.0395711
0.0404758
0.0414669
0.0425382
0.0437046
0.0449458
0.046289
0.0477153
0.0492295
0.05083
0.0525244
0.054287
0.0561681
0.058082
0.0601413
0.0622211
0.0644391
0.0666742
0.0690498
0.07144
0.0739412
0.0764526
0.0790691
0.081713
0.0843825
0.0870764
0.0897727
0.0924791
0.0951773
0.0978686
0.100544
0.103195
0.105816
0.108398
0.110942
0.113445
0.115854
0.118253
0.120542
0.122796
0.124974
0.127045
0.129088
0.130984
0.132883
0.134631
0.136382
0.138004
0.139639
0.141123
0.142604
0.143964
0.145315
0.146567
0.147814
0.148967
0.150112
0.151167
0.152216
0.153184
0.154137
0.154998
0.155803
0.156526
0.157237
0.157948
0.158663
0.159366
0.160056
0.160681
0.161268
0.161827
0.162372
0.162907
0.163429
0.163939
0.164441
0.164936
0.165437
0.165943
0.166455
0.166971
0.167476
0.167977
0.168344
0.168645
0.168827
0.168994
0.169665
0.169963
0.170265
0.17075
0.171215
0.171661
0.172108
0.17251
0.172876
0.1732
0.173497
0.17378
0.174026
0.174254
0.174442
0.174633
0.174828
0.175025
0.17522
0.175416
0.175613
0.175812
0.176013
0.176224
0.176445
0.176676
0.176911
0.17713
0.177349
0.177549
0.177747
0.177946
0.17814
0.178327
0.178483
0.178627
0.178702
0.178753
0.178786
0.178791
0.178785
0.178844
0.178872
0.178934
0.179004
0.179104
0.179219
0.179347
0.179488
0.179621
0.179754
0.179862
0.179967
0.180029
0.180064
0.180071
0.180065
0.180028
0.179985
0.179954
0.179933
0.179927
0.179958
0.180001
0.180053
0.18012
0.180201
0.180286
0.180362
0.180421
0.180442
0.180454
0.180432
0.180396
0.18034
0.180283
0.18023
0.180183
0.18016
0.18015
0.180156
0.180184
0.180226
0.18027
0.180318
0.180348
0.180375
0.180384
0.18033
0.18029
0.180236
0.180166
0.1801
0.180038
0.179983
0.179955
0.179936
0.179927
0.17993
0.179947
0.179961
0.179984
0.179993
0.179958
0.179931
0.179879
0.179816
0.179752
0.179687
0.179621
0.179556
0.179513
0.179478
0.179453
0.179438
0.179432
0.179428
0.179433
0.179398
0.0342317
0.0342372
0.0341866
0.0341055
0.0341016
0.0340552
0.0340065
0.0340118
0.0341191
0.0343557
0.0344837
0.03453
0.0345568
0.0345458
0.0343647
0.034149
0.0340104
0.0339287
0.0338864
0.0338864
0.033927
0.0340059
0.0341242
0.0342855
0.034495
0.0347559
0.0350741
0.0354493
0.0358881
0.0363961
0.0369686
0.0376223
0.0383468
0.0391591
0.0400476
0.0410247
0.0420817
0.0432372
0.04447
0.0458065
0.0472367
0.0487598
0.0503743
0.0520921
0.0538844
0.0558043
0.0577639
0.0598776
0.0620205
0.0643123
0.0666302
0.0691019
0.0715962
0.0742166
0.0768532
0.0795968
0.0823594
0.0851659
0.0880254
0.0908971
0.0937882
0.0966784
0.0995695
0.10245
0.105311
0.108144
0.110938
0.113695
0.116414
0.11904
0.121651
0.124144
0.126605
0.128977
0.131243
0.133471
0.135547
0.137623
0.139535
0.141452
0.14323
0.145025
0.146647
0.148268
0.149749
0.151226
0.152591
0.153955
0.155214
0.156467
0.15762
0.158769
0.159831
0.160877
0.161824
0.162709
0.163506
0.164291
0.165078
0.16587
0.16665
0.167416
0.168111
0.168766
0.169392
0.170003
0.170604
0.171192
0.171768
0.172334
0.172896
0.173463
0.174035
0.174615
0.175198
0.175771
0.176335
0.17676
0.177111
0.177353
0.177554
0.178261
0.178657
0.179022
0.179552
0.1801
0.180618
0.181124
0.181584
0.182007
0.182384
0.182731
0.183061
0.183353
0.183625
0.183855
0.184089
0.184327
0.184568
0.184808
0.185047
0.185289
0.185533
0.18578
0.186036
0.1863
0.186574
0.186852
0.187113
0.187373
0.187612
0.187851
0.18809
0.188323
0.188548
0.188739
0.188918
0.189023
0.189103
0.189163
0.189195
0.189213
0.1893
0.18936
0.189455
0.189555
0.189689
0.189835
0.19
0.190171
0.190336
0.190499
0.190634
0.190767
0.190851
0.190907
0.190932
0.19094
0.190918
0.190887
0.190872
0.190866
0.19088
0.190926
0.190984
0.191055
0.191141
0.19124
0.191344
0.191435
0.191509
0.191538
0.191562
0.191544
0.191511
0.191456
0.191403
0.191354
0.191309
0.191291
0.191287
0.191299
0.191334
0.191385
0.191436
0.191491
0.191526
0.191554
0.191566
0.191508
0.191461
0.191402
0.191328
0.191255
0.191189
0.191131
0.1911
0.191079
0.19107
0.191071
0.191088
0.191101
0.191121
0.191127
0.191084
0.191048
0.190988
0.190913
0.19084
0.190764
0.190689
0.190614
0.190563
0.190521
0.190489
0.190467
0.190454
0.190443
0.19044
0.190391
0.0342347
0.0342121
0.0341774
0.0340875
0.0340771
0.03402
0.0340392
0.0342053
0.0344488
0.034585
0.0346259
0.034604
0.0345181
0.0343239
0.0341651
0.0340087
0.0338817
0.0337918
0.033738
0.0337234
0.0337494
0.0338128
0.0339151
0.0340616
0.0342554
0.0344982
0.0347955
0.035151
0.03557
0.0360579
0.0366134
0.0372501
0.0379578
0.0387562
0.0396292
0.040595
0.0416368
0.0427884
0.0440174
0.0453529
0.0467913
0.0483254
0.0499562
0.0517016
0.0535246
0.0554868
0.0574942
0.0596702
0.0618882
0.0642672
0.0666795
0.0692662
0.0718815
0.0746428
0.0774257
0.0803419
0.0832875
0.086282
0.089337
0.0924081
0.0955058
0.0986087
0.10172
0.104825
0.107912
0.11097
0.11398
0.116958
0.119885
0.122718
0.125532
0.128215
0.130877
0.13342
0.135865
0.138246
0.140474
0.142699
0.144738
0.146783
0.148682
0.150601
0.15232
0.154037
0.1556
0.157159
0.158593
0.160026
0.161345
0.162657
0.16386
0.165062
0.166166
0.167256
0.168237
0.169149
0.169968
0.170775
0.171585
0.1724
0.173203
0.173991
0.174702
0.175374
0.176015
0.17664
0.177256
0.177857
0.178449
0.17903
0.179606
0.180189
0.180777
0.181374
0.181974
0.182567
0.183142
0.183582
0.183936
0.184203
0.184406
0.185064
0.185528
0.185927
0.18646
0.187041
0.187589
0.188111
0.188588
0.189031
0.189427
0.189791
0.190135
0.19044
0.190725
0.190967
0.191213
0.191463
0.191717
0.191969
0.192223
0.19248
0.19274
0.193002
0.193275
0.193557
0.193848
0.194143
0.19442
0.194696
0.194951
0.195206
0.19546
0.195707
0.195946
0.19615
0.19634
0.196454
0.196543
0.196611
0.196653
0.196675
0.196769
0.196843
0.196948
0.197059
0.197206
0.197367
0.197547
0.197733
0.197912
0.19809
0.198237
0.198382
0.198475
0.19854
0.198573
0.198588
0.198571
0.198544
0.198534
0.198535
0.198557
0.198609
0.198676
0.198755
0.19885
0.198959
0.199073
0.199173
0.199254
0.199288
0.199318
0.199301
0.199268
0.199214
0.199161
0.199113
0.199068
0.199052
0.199051
0.199066
0.199104
0.199158
0.199214
0.199272
0.199311
0.199338
0.199352
0.199295
0.199241
0.199178
0.1991
0.199023
0.198952
0.198891
0.198858
0.198835
0.198824
0.198823
0.198839
0.198851
0.198868
0.198874
0.198826
0.198783
0.198717
0.198636
0.198554
0.198471
0.198388
0.198307
0.198249
0.198202
0.198164
0.198137
0.198119
0.198103
0.198094
0.198035
0.034252
0.0341901
0.0341554
0.0340659
0.0340542
0.0340497
0.0342112
0.0344596
0.0346354
0.0346583
0.0346138
0.0344824
0.0343473
0.0341568
0.0339935
0.0338302
0.0337057
0.0336154
0.033559
0.0335384
0.0335561
0.0336098
0.0337018
0.033837
0.0340164
0.0342446
0.0345265
0.0348666
0.0352707
0.0357446
0.0362864
0.0369107
0.0376064
0.0383975
0.039262
0.0402259
0.0412625
0.0424223
0.0436587
0.0450076
0.0464731
0.0480362
0.0497019
0.0514995
0.0533824
0.0554243
0.0575152
0.059796
0.0621288
0.0646444
0.0671943
0.069959
0.0727529
0.0757179
0.0787021
0.0818629
0.0850466
0.0882929
0.0916078
0.0949445
0.0983164
0.101692
0.105085
0.108469
0.111832
0.115156
0.118417
0.121649
0.124797
0.127863
0.130896
0.133778
0.136652
0.139363
0.141984
0.144506
0.14687
0.149226
0.151367
0.153512
0.155501
0.157511
0.159286
0.161057
0.162659
0.164257
0.165717
0.167179
0.168514
0.169844
0.171053
0.172266
0.173366
0.174454
0.175418
0.17631
0.177107
0.177892
0.178683
0.179479
0.180263
0.181028
0.181713
0.182362
0.182977
0.183578
0.184169
0.184746
0.185315
0.185874
0.186432
0.186996
0.187567
0.18815
0.188733
0.189313
0.189864
0.190288
0.190614
0.190881
0.191065
0.191637
0.192143
0.192554
0.19307
0.193644
0.194192
0.194704
0.195172
0.19561
0.196
0.196358
0.196693
0.196988
0.197264
0.197498
0.197735
0.197977
0.198223
0.198469
0.198716
0.198968
0.199225
0.199484
0.199755
0.200036
0.200326
0.200619
0.200897
0.201172
0.201427
0.201682
0.201935
0.202182
0.202419
0.20262
0.202806
0.202914
0.203001
0.203065
0.203104
0.203119
0.203205
0.203281
0.203383
0.203495
0.203641
0.203803
0.203985
0.204174
0.204356
0.204537
0.204687
0.204833
0.204925
0.204991
0.205022
0.205035
0.205017
0.204988
0.204976
0.204977
0.204999
0.20505
0.205117
0.205199
0.205298
0.205408
0.205524
0.205626
0.205709
0.205744
0.205773
0.205753
0.205718
0.205661
0.205606
0.205554
0.205507
0.205492
0.205489
0.205503
0.20554
0.205595
0.205651
0.205709
0.205749
0.205773
0.205786
0.205729
0.205667
0.205599
0.205517
0.205434
0.205359
0.205293
0.205256
0.20523
0.205216
0.205213
0.205226
0.205236
0.205248
0.205252
0.205202
0.205151
0.205079
0.204992
0.204903
0.204812
0.204723
0.204635
0.204571
0.204518
0.204475
0.204442
0.204419
0.204398
0.204384
0.204315
0.0342715
0.0341909
0.0341521
0.0340575
0.0340826
0.0341928
0.0344286
0.0346289
0.034682
0.0346279
0.0345003
0.0343498
0.0341739
0.033978
0.0338135
0.0336587
0.0335374
0.033447
0.033389
0.0333634
0.0333737
0.0334195
0.033502
0.0336256
0.0337913
0.0340063
0.0342739
0.0346018
0.0349926
0.0354559
0.0359871
0.0366033
0.0372904
0.0380813
0.0389436
0.0399143
0.0409538
0.0421362
0.0433938
0.0447709
0.0462878
0.0479115
0.0496446
0.0515294
0.0534978
0.055659
0.0578797
0.0603304
0.062844
0.0655776
0.0683491
0.0713882
0.0744479
0.0777173
0.0810034
0.0845417
0.0880423
0.0916493
0.0953389
0.0990373
0.102801
0.10654
0.110317
0.114067
0.11778
0.121439
0.125009
0.12855
0.131956
0.135288
0.138562
0.141654
0.144747
0.147612
0.150394
0.153026
0.155495
0.157941
0.160132
0.162329
0.164348
0.166381
0.16814
0.169905
0.171488
0.173078
0.174506
0.17595
0.177243
0.178539
0.1797
0.180875
0.181913
0.182949
0.183842
0.184666
0.185397
0.186122
0.186856
0.18759
0.188309
0.189004
0.18962
0.190206
0.190758
0.191296
0.191828
0.192344
0.192855
0.193357
0.193863
0.194375
0.194897
0.19543
0.195969
0.1965
0.19699
0.197366
0.197634
0.197874
0.198025
0.198486
0.198998
0.199402
0.199878
0.200411
0.200931
0.201408
0.201844
0.202256
0.202618
0.20295
0.203255
0.203519
0.203765
0.203974
0.204184
0.204399
0.204618
0.204838
0.205062
0.205291
0.205527
0.205766
0.206019
0.206282
0.206554
0.206832
0.207092
0.207354
0.207594
0.207838
0.208075
0.208309
0.20853
0.208714
0.208882
0.208974
0.209047
0.209095
0.209122
0.209119
0.209187
0.209254
0.209344
0.209445
0.209579
0.209732
0.209905
0.210087
0.210262
0.210436
0.210579
0.210716
0.210798
0.210857
0.210878
0.210882
0.210855
0.210819
0.210796
0.21079
0.210803
0.210846
0.210908
0.210987
0.211082
0.211188
0.211298
0.211396
0.211474
0.211505
0.211526
0.211501
0.211458
0.211395
0.211333
0.211274
0.211221
0.211202
0.211193
0.211202
0.211235
0.211287
0.211339
0.211393
0.21143
0.211447
0.211456
0.211397
0.211325
0.21125
0.211162
0.211071
0.210989
0.210917
0.210875
0.210843
0.210824
0.210816
0.210824
0.21083
0.210835
0.210836
0.210782
0.210721
0.210644
0.21055
0.210453
0.210354
0.210257
0.210162
0.210092
0.210031
0.209982
0.209943
0.209914
0.209887
0.209866
0.209788
0.0343108
0.0342054
0.0341674
0.0340883
0.0341937
0.0343799
0.0345964
0.0346838
0.0346515
0.0345361
0.0343859
0.0341932
0.0340003
0.0338083
0.0336443
0.0334964
0.0333781
0.0332884
0.0332291
0.0331997
0.0332032
0.0332427
0.0333146
0.0334271
0.0335805
0.0337844
0.0340399
0.0343581
0.0347381
0.0351954
0.0357192
0.0363335
0.0370175
0.037818
0.0386873
0.0396794
0.0407351
0.0419618
0.0432625
0.0446873
0.0462933
0.0480186
0.0498658
0.0518933
0.0540099
0.056365
0.0587998
0.0615195
0.0643165
0.0673862
0.0705132
0.07398
0.0774381
0.0811686
0.0849106
0.0890256
0.0929525
0.0970497
0.101315
0.105513
0.109808
0.114062
0.118349
0.1226
0.126789
0.130889
0.134851
0.138788
0.142516
0.146167
0.149701
0.153009
0.156318
0.159298
0.162211
0.164888
0.16741
0.169869
0.172032
0.174199
0.176158
0.178112
0.179757
0.181427
0.182896
0.184387
0.18569
0.187022
0.188178
0.189348
0.190364
0.191409
0.192296
0.193206
0.193951
0.194643
0.195247
0.195863
0.19648
0.197095
0.197689
0.198258
0.198756
0.199235
0.199682
0.200119
0.200549
0.200962
0.201377
0.201784
0.202203
0.202627
0.203067
0.203516
0.203981
0.204423
0.204813
0.205108
0.205291
0.205481
0.205578
0.205922
0.20638
0.20677
0.20718
0.20764
0.208106
0.208526
0.208906
0.209271
0.209583
0.209868
0.21012
0.210332
0.210528
0.210693
0.210859
0.211028
0.211201
0.211377
0.21156
0.211749
0.211947
0.21215
0.212368
0.212597
0.212836
0.213081
0.213311
0.213543
0.213757
0.213976
0.214183
0.21439
0.214581
0.214736
0.214873
0.214937
0.214984
0.215006
0.215014
0.214982
0.215015
0.215069
0.215135
0.215215
0.215326
0.215461
0.215615
0.215778
0.215935
0.216095
0.21622
0.216338
0.216402
0.216445
0.21645
0.216433
0.216392
0.216343
0.216301
0.21628
0.216278
0.216307
0.216357
0.216426
0.21651
0.216604
0.216701
0.216787
0.216854
0.216874
0.216883
0.216845
0.216791
0.216717
0.216644
0.216574
0.21651
0.216483
0.216464
0.216462
0.216486
0.21653
0.216574
0.216619
0.216648
0.216655
0.216658
0.216591
0.216508
0.216422
0.216325
0.216224
0.216133
0.216052
0.216002
0.215962
0.215935
0.21592
0.215919
0.21592
0.215914
0.215909
0.21585
0.215778
0.215692
0.215591
0.215484
0.215376
0.21527
0.215166
0.215088
0.215019
0.214962
0.214916
0.21488
0.214845
0.214817
0.214726
0.0343753
0.0342322
0.0342341
0.0342104
0.0343537
0.0345562
0.0346734
0.0346735
0.0345832
0.0344386
0.0342479
0.0340396
0.0338404
0.0336538
0.0334908
0.0333487
0.033233
0.0331438
0.0330831
0.0330508
0.0330472
0.0330798
0.0331414
0.0332446
0.0333874
0.0335825
0.0338279
0.03414
0.0345127
0.0349693
0.0354909
0.0361114
0.0368014
0.0376271
0.0385146
0.0395404
0.0406344
0.0419406
0.0433282
0.0448429
0.0465864
0.0484769
0.0505156
0.0527764
0.0551448
0.0578082
0.0605843
0.0637173
0.0669286
0.0704785
0.0741139
0.0782286
0.0822207
0.0865941
0.0909651
0.0958293
0.100376
0.105157
0.110136
0.115032
0.119982
0.124946
0.129876
0.134786
0.139579
0.14423
0.148656
0.153065
0.15716
0.161203
0.165011
0.168581
0.172111
0.175178
0.178211
0.180859
0.183412
0.185791
0.187868
0.189914
0.191754
0.193528
0.194993
0.196434
0.197685
0.19894
0.199994
0.201087
0.201975
0.202901
0.203648
0.204443
0.205059
0.20573
0.206212
0.20669
0.207073
0.207501
0.207892
0.208309
0.208696
0.209075
0.209397
0.209713
0.210003
0.210286
0.210563
0.210825
0.2111
0.211372
0.211662
0.211963
0.21228
0.212611
0.212966
0.213271
0.213518
0.213694
0.21377
0.21389
0.21391
0.214128
0.21448
0.214832
0.21516
0.215522
0.215892
0.216236
0.216538
0.216835
0.217072
0.217293
0.217465
0.217609
0.217735
0.217837
0.217945
0.218045
0.218154
0.218269
0.218393
0.218526
0.21867
0.218822
0.218989
0.21917
0.219359
0.219555
0.21974
0.219929
0.220101
0.220285
0.220446
0.220613
0.220758
0.220873
0.220962
0.220991
0.221
0.220984
0.220955
0.220892
0.220885
0.220907
0.220943
0.220993
0.221069
0.221178
0.221302
0.221437
0.221566
0.221699
0.221798
0.221886
0.221926
0.221944
0.221921
0.221879
0.221818
0.221747
0.221679
0.221635
0.221614
0.221622
0.221653
0.221702
0.221769
0.221843
0.221921
0.221988
0.222035
0.222043
0.22203
0.221975
0.221904
0.221815
0.221726
0.22164
0.221561
0.221519
0.221485
0.22147
0.221479
0.22151
0.22154
0.221572
0.221589
0.22158
0.221572
0.221493
0.221397
0.221297
0.221188
0.221075
0.220971
0.220879
0.220817
0.220765
0.220728
0.220702
0.220691
0.220681
0.220662
0.220648
0.220582
0.220496
0.2204
0.220289
0.22017
0.220051
0.219934
0.21982
0.219733
0.219654
0.219588
0.219532
0.219486
0.219442
0.219404
0.219299
0.0344524
0.0342835
0.0343424
0.0343685
0.0345277
0.0346605
0.0346941
0.034634
0.0345069
0.0343242
0.034113
0.0338984
0.0336984
0.0335166
0.0333566
0.0332181
0.0331042
0.0330156
0.0329533
0.0329171
0.0329062
0.0329331
0.0329861
0.0330816
0.0332156
0.0334049
0.0336431
0.0339543
0.0343236
0.0347876
0.0353175
0.0359545
0.0366541
0.03752
0.0384561
0.0395538
0.0407249
0.0421517
0.0436887
0.0453795
0.0473482
0.0494918
0.0518166
0.0544
0.0571492
0.0602603
0.0635332
0.0672764
0.071037
0.0752493
0.0795367
0.084508
0.0891942
0.0943583
0.0994966
0.10522
0.110717
0.116326
0.122103
0.127868
0.133586
0.139358
0.145013
0.150671
0.156121
0.16134
0.166242
0.171101
0.175563
0.179983
0.183967
0.187855
0.191472
0.194659
0.19776
0.200349
0.202948
0.205177
0.207193
0.209105
0.210781
0.212354
0.213588
0.214795
0.215754
0.216736
0.217467
0.218265
0.218807
0.21942
0.219828
0.220295
0.220549
0.220874
0.221001
0.221134
0.221213
0.221346
0.221416
0.221538
0.221627
0.221723
0.221796
0.221879
0.221937
0.221997
0.222055
0.222111
0.222195
0.222286
0.2224
0.222536
0.222687
0.222856
0.223054
0.223174
0.223235
0.22326
0.223221
0.223204
0.223141
0.223223
0.223449
0.223716
0.22394
0.224178
0.224417
0.224658
0.22486
0.225064
0.225203
0.225341
0.22541
0.225468
0.2255
0.225524
0.225556
0.225571
0.225597
0.225634
0.225682
0.225742
0.225814
0.225901
0.226
0.226117
0.226241
0.226374
0.226497
0.226629
0.226744
0.226882
0.226987
0.227099
0.227184
0.227243
0.227272
0.227253
0.227212
0.227152
0.227075
0.22697
0.226917
0.226896
0.226888
0.226899
0.226936
0.227003
0.227087
0.227183
0.227275
0.227371
0.227435
0.227484
0.227491
0.227474
0.227416
0.227344
0.227255
0.227153
0.227056
0.226983
0.226935
0.226913
0.226914
0.22694
0.226982
0.227029
0.22708
0.22712
0.227145
0.227128
0.227092
0.227013
0.22692
0.226811
0.2267
0.226593
0.226495
0.226433
0.22638
0.226346
0.226335
0.226347
0.22636
0.226373
0.226373
0.226343
0.226322
0.226225
0.226114
0.225996
0.225871
0.225742
0.225623
0.225516
0.225439
0.225372
0.225321
0.225281
0.225255
0.225233
0.225197
0.22517
0.225093
0.224992
0.224883
0.22476
0.224628
0.224495
0.224366
0.22424
0.22414
0.22405
0.223971
0.223904
0.223846
0.223791
0.223741
0.223619
0.0345317
0.0343696
0.0344598
0.0345287
0.0346569
0.0347133
0.0346831
0.0345792
0.0344248
0.0342103
0.0339904
0.0337736
0.0335763
0.0333985
0.0332415
0.033106
0.0329935
0.0329048
0.0328399
0.0327996
0.0327834
0.0328049
0.0328513
0.0329413
0.0330688
0.0332567
0.0334917
0.0338086
0.0341841
0.0346612
0.035202
0.0358772
0.0366152
0.0375545
0.0385802
0.0398043
0.0411179
0.042737
0.0444961
0.0464564
0.0487561
0.0512361
0.0539678
0.0569891
0.0602808
0.0640364
0.0678975
0.0724483
0.0768838
0.0819196
0.0870005
0.0928808
0.0984607
0.104568
0.110506
0.117078
0.123834
0.130248
0.136648
0.143182
0.149566
0.156001
0.162313
0.168578
0.174573
0.180178
0.18546
0.190474
0.195242
0.199826
0.203925
0.208065
0.211661
0.215005
0.218048
0.22066
0.223287
0.225411
0.227396
0.229323
0.23079
0.232226
0.233321
0.234487
0.235167
0.236043
0.236494
0.237135
0.237377
0.237762
0.237903
0.238092
0.238053
0.238071
0.237841
0.237673
0.237457
0.237295
0.237022
0.236807
0.236535
0.236282
0.236043
0.235829
0.235587
0.235358
0.235136
0.234929
0.234762
0.234614
0.234505
0.234419
0.234362
0.23433
0.234324
0.234201
0.234038
0.233878
0.233699
0.233544
0.233369
0.233286
0.233357
0.233499
0.23359
0.233667
0.233761
0.233865
0.233946
0.234028
0.234059
0.234083
0.234032
0.233983
0.233904
0.233832
0.233768
0.233681
0.233606
0.233546
0.233501
0.233471
0.233457
0.23346
0.233481
0.233516
0.233559
0.233612
0.233662
0.233721
0.23377
0.233843
0.233882
0.233922
0.233937
0.233928
0.233883
0.233802
0.233704
0.233586
0.233452
0.2333
0.233187
0.233113
0.233055
0.233017
0.233
0.233017
0.233052
0.233099
0.233143
0.233192
0.233213
0.233218
0.233176
0.233119
0.233019
0.232908
0.232784
0.232647
0.232513
0.232405
0.232322
0.232262
0.23223
0.232222
0.232231
0.232245
0.232263
0.23227
0.232263
0.232216
0.232152
0.232044
0.231923
0.231789
0.231652
0.231519
0.231396
0.231309
0.231232
0.231174
0.23114
0.231126
0.231116
0.231106
0.231081
0.231028
0.230987
0.230871
0.23074
0.230601
0.230456
0.230309
0.230171
0.230046
0.229949
0.229865
0.229796
0.229739
0.229694
0.229656
0.2296
0.229556
0.229467
0.229347
0.229223
0.229084
0.228937
0.228788
0.228644
0.228504
0.22839
0.228285
0.228192
0.228111
0.22804
0.22797
0.227906
0.227763
0.0346048
0.0344634
0.0345755
0.03467
0.0347428
0.0347371
0.0346588
0.0345243
0.034334
0.0341083
0.0338819
0.0336679
0.0334741
0.0333
0.033146
0.0330129
0.0329012
0.0328114
0.0327435
0.032701
0.0326811
0.0326974
0.0327394
0.0328271
0.0329513
0.0331442
0.0333839
0.033711
0.0340933
0.0346039
0.0351808
0.0359307
0.0367536
0.0378177
0.0389882
0.0404
0.0419319
0.0438338
0.0458914
0.0482315
0.0510175
0.0538383
0.0570886
0.0607754
0.064699
0.0692728
0.0738301
0.0792535
0.0845358
0.0904956
0.0963802
0.103038
0.109523
0.116514
0.123176
0.130455
0.138174
0.145094
0.152079
0.158946
0.165854
0.172588
0.179431
0.185774
0.19209
0.197831
0.203238
0.20821
0.213058
0.217623
0.221822
0.225985
0.229659
0.233103
0.236139
0.23884
0.241437
0.24349
0.245702
0.247815
0.249077
0.250517
0.251671
0.252877
0.253533
0.254413
0.254837
0.255432
0.255629
0.255909
0.255986
0.256067
0.255856
0.255722
0.255313
0.254979
0.254594
0.254272
0.253749
0.253287
0.25271
0.252159
0.251635
0.251155
0.250641
0.250135
0.249625
0.249134
0.248695
0.248277
0.24791
0.247576
0.247278
0.247006
0.246745
0.24635
0.245938
0.245564
0.245217
0.244917
0.244609
0.244375
0.244243
0.244201
0.244131
0.244034
0.243953
0.243892
0.243825
0.243768
0.243659
0.243556
0.243367
0.243189
0.242986
0.242799
0.242623
0.242415
0.242223
0.24205
0.241895
0.24176
0.241644
0.24155
0.241474
0.241412
0.24136
0.241318
0.24128
0.241255
0.241227
0.241222
0.241174
0.241137
0.24106
0.24097
0.240844
0.24069
0.240523
0.240335
0.24014
0.239932
0.239751
0.239611
0.239492
0.239394
0.23932
0.239275
0.239249
0.239236
0.239225
0.23922
0.239183
0.239133
0.239039
0.238935
0.238786
0.238628
0.23846
0.238284
0.238107
0.237956
0.237832
0.237729
0.237654
0.237607
0.237576
0.237549
0.237527
0.237491
0.237447
0.237366
0.237267
0.237125
0.236971
0.236807
0.236639
0.236477
0.236324
0.236207
0.236101
0.236014
0.23595
0.235906
0.235868
0.235829
0.235777
0.235694
0.235627
0.23549
0.235336
0.235171
0.235003
0.234834
0.234674
0.234527
0.234408
0.234301
0.234212
0.234134
0.234068
0.234008
0.23393
0.233865
0.23376
0.233619
0.233477
0.23332
0.233155
0.232988
0.232826
0.232669
0.232539
0.232417
0.232308
0.232211
0.232122
0.232036
0.231956
0.231789
0.0346794
0.034562
0.0346885
0.0347685
0.0347884
0.0347404
0.0346174
0.0344737
0.0342519
0.0340196
0.033791
0.0335814
0.0333916
0.0332212
0.0330701
0.0329388
0.0328271
0.032736
0.0326666
0.0326224
0.0326
0.0326127
0.0326531
0.0327435
0.0328701
0.0330729
0.0333177
0.0336719
0.0340832
0.0346639
0.035322
0.0361902
0.0371491
0.0383985
0.0397784
0.0414447
0.0432918
0.0455904
0.0480035
0.0507735
0.0541798
0.0574209
0.0612593
0.0658972
0.0704572
0.0758889
0.0812362
0.0874835
0.0935953
0.100343
0.106828
0.113919
0.121087
0.128638
0.136078
0.14366
0.151823
0.1591
0.166373
0.172987
0.180149
0.18687
0.193592
0.199918
0.205993
0.211695
0.216845
0.221894
0.226496
0.231053
0.235159
0.239097
0.24275
0.24626
0.249338
0.252262
0.254918
0.256999
0.259431
0.261359
0.262878
0.264522
0.265789
0.267126
0.26806
0.269091
0.269729
0.270431
0.270835
0.271235
0.271435
0.271613
0.271519
0.271466
0.271135
0.270877
0.270567
0.270314
0.269772
0.269274
0.268586
0.267925
0.267285
0.266703
0.266046
0.265389
0.264703
0.264031
0.263391
0.262772
0.262191
0.261645
0.261112
0.260609
0.260065
0.259401
0.258747
0.258161
0.257646
0.257201
0.256791
0.256364
0.256026
0.255773
0.255522
0.255227
0.254956
0.254711
0.254477
0.254255
0.253995
0.253743
0.253403
0.253083
0.252743
0.252426
0.25212
0.251779
0.251455
0.251154
0.250875
0.25062
0.250389
0.250181
0.249996
0.249824
0.249662
0.249512
0.249373
0.249248
0.249132
0.249035
0.248891
0.24876
0.248581
0.248397
0.24818
0.247943
0.247696
0.24743
0.247165
0.246893
0.246638
0.246423
0.246233
0.246065
0.245924
0.245807
0.245712
0.24563
0.245553
0.245482
0.24538
0.24527
0.245115
0.244954
0.24475
0.244538
0.244321
0.244098
0.243875
0.243675
0.243502
0.243349
0.243226
0.243132
0.243053
0.242979
0.24291
0.242826
0.242737
0.242615
0.242477
0.242296
0.242105
0.241905
0.241703
0.241506
0.24132
0.241167
0.241027
0.240907
0.240808
0.240729
0.240657
0.240584
0.240499
0.240384
0.240284
0.240125
0.239942
0.239749
0.239554
0.23936
0.239175
0.239002
0.238858
0.238725
0.238611
0.238509
0.238417
0.238332
0.238228
0.238139
0.238015
0.23785
0.237686
0.23751
0.237325
0.237137
0.236955
0.23678
0.23663
0.236488
0.23636
0.236245
0.236137
0.236032
0.235933
0.235738
0.0347235
0.0346565
0.0347674
0.0348253
0.0348134
0.0347271
0.0345873
0.0344136
0.0341805
0.0339454
0.0337191
0.0335143
0.0333286
0.0331619
0.0330132
0.0328832
0.0327712
0.0326794
0.03261
0.0325643
0.0325412
0.0325533
0.032595
0.0326951
0.0328243
0.0330479
0.0333164
0.0337312
0.0342145
0.0349052
0.0356918
0.036731
0.0378845
0.0393877
0.0410463
0.0430275
0.0452847
0.0481175
0.0509024
0.0540733
0.0581261
0.0621095
0.0666459
0.0721263
0.0773743
0.0835602
0.0896012
0.096412
0.103104
0.110328
0.117352
0.124603
0.132191
0.139637
0.14755
0.154942
0.162925
0.170235
0.177428
0.18395
0.190534
0.197125
0.20319
0.209202
0.214501
0.220181
0.225033
0.230117
0.234431
0.23897
0.242755
0.24661
0.25003
0.253433
0.256379
0.259594
0.262019
0.264219
0.266909
0.268562
0.270585
0.272594
0.273748
0.275158
0.276366
0.277678
0.278597
0.279531
0.280225
0.280915
0.281364
0.281806
0.282023
0.282243
0.282302
0.28237
0.282401
0.282453
0.282212
0.281981
0.281494
0.28104
0.280587
0.280171
0.279634
0.279107
0.278511
0.277906
0.277293
0.276676
0.276065
0.275484
0.274858
0.274223
0.27347
0.272631
0.271833
0.271115
0.270485
0.269958
0.269463
0.2689
0.268385
0.267927
0.267485
0.267008
0.266552
0.266122
0.265715
0.265331
0.264913
0.264515
0.264025
0.263561
0.263084
0.262633
0.262192
0.261711
0.261247
0.260811
0.260398
0.260014
0.259658
0.259329
0.259022
0.258728
0.258445
0.258176
0.257926
0.257693
0.257475
0.257277
0.257022
0.256787
0.256495
0.256206
0.25589
0.255561
0.255227
0.254876
0.254534
0.254189
0.253856
0.253557
0.253288
0.253042
0.252824
0.252627
0.252454
0.252293
0.252141
0.251997
0.25182
0.251641
0.251418
0.251194
0.250929
0.250657
0.250386
0.25011
0.249836
0.249583
0.249354
0.249146
0.248969
0.24882
0.248687
0.248558
0.248437
0.248297
0.248159
0.24799
0.247806
0.247581
0.247349
0.247109
0.246869
0.246633
0.24641
0.246216
0.246038
0.245881
0.245743
0.245622
0.245511
0.2454
0.245277
0.245126
0.244988
0.244802
0.244589
0.244365
0.244139
0.243917
0.243703
0.243502
0.243328
0.243167
0.243024
0.242894
0.242772
0.242659
0.242526
0.242409
0.242262
0.242072
0.241884
0.241684
0.241477
0.241266
0.241062
0.240866
0.240693
0.24053
0.240381
0.240244
0.240114
0.239988
0.239867
0.239642
0.0347415
0.0347125
0.0348224
0.0348544
0.0348156
0.0347039
0.0345634
0.0343598
0.0341226
0.0338864
0.033666
0.0334661
0.0332844
0.0331213
0.0329746
0.0328455
0.0327335
0.0326428
0.0325733
0.0325276
0.0325061
0.0325228
0.0325674
0.0326823
0.0328284
0.0331007
0.0334309
0.0339444
0.0345436
0.0353924
0.0363571
0.0376191
0.0390357
0.0408653
0.0428698
0.0451941
0.047878
0.0513613
0.0546724
0.0582276
0.0627165
0.0679549
0.0730152
0.0790617
0.0849459
0.09167
0.0981836
0.105318
0.112384
0.119616
0.126944
0.134037
0.141568
0.148611
0.156227
0.163314
0.170185
0.177219
0.184029
0.190531
0.196633
0.202905
0.207921
0.213531
0.218148
0.223457
0.22805
0.233133
0.237083
0.241635