/*--------------------------------*- C++ -*----------------------------------*\
| =========                 |                                                 |
| \\      /  F ield         | OpenFOAM: The Open Source CFD Toolbox           |
|  \\    /   O peration     | Version:  2312                                  |
|   \\  /    A nd           | Website:  www.openfoam.com                      |
|    \\/     M anipulation  |                                                 |
\*---------------------------------------------------------------------------*/
FoamFile
{
    version     2.0;
    format      ascii;
    arch        "LSB;label=32;scalar=64";
    class       volScalarField;
    location    "0.005";
    object      T;
}
// * * * * * * * * * * * * * * * * * * * * * * * * * * * * * * * * * * * * * //

dimensions      [0 0 0 1 0 0 0];

internalField   nonuniform List<scalar> 
48128
(
355.893
355.997
355.71
355.537
355.592
355.569
355.625
355.729
355.67
355.27
353.439
351.694
350.556
349.574
348.766
347.243
345.918
344.657
343.475
342.387
341.413
340.49
339.607
338.794
338.061
337.42
336.886
336.487
336.226
336.088
336.049
336.188
336.467
336.879
337.404
338.041
338.786
339.628
340.5
341.462
342.468
343.484
344.493
345.493
346.456
347.361
348.202
348.976
349.666
350.275
350.749
351.159
351.428
351.604
351.623
351.543
351.323
350.987
350.54
349.991
349.346
348.614
347.806
346.924
345.966
344.931
343.834
342.696
341.501
340.281
338.999
337.694
336.363
334.99
333.625
332.208
330.824
329.422
328.02
326.667
325.31
324.014
322.702
321.433
320.154
318.949
317.736
316.603
315.476
314.409
313.346
312.344
311.361
310.412
309.467
308.532
307.606
306.729
305.917
305.18
304.493
303.826
303.159
302.51
301.887
301.296
300.741
300.221
299.728
299.259
298.824
298.418
298.053
297.717
297.408
297.118
296.808
296.473
296.117
295.699
295.078
295.116
294.963
294.616
294.647
294.581
294.486
294.373
294.243
294.097
293.942
293.784
293.625
293.464
293.303
293.139
292.986
292.861
292.755
292.659
292.57
292.495
292.433
292.381
292.334
292.312
292.312
292.318
292.326
292.335
292.345
292.361
292.382
292.409
292.425
292.442
292.437
292.425
292.399
292.37
292.329
292.305
292.322
292.334
292.357
292.403
292.463
292.542
292.626
292.717
292.798
292.877
292.935
292.994
293.019
293.046
293.046
293.047
293.032
293.028
293.038
293.059
293.093
293.15
293.219
293.292
293.374
293.461
293.549
293.625
293.687
293.723
293.767
293.772
293.784
293.781
293.79
293.808
293.838
293.879
293.931
293.994
294.072
294.156
294.237
294.314
294.381
294.437
294.504
294.503
294.516
294.533
294.543
294.561
294.589
294.628
294.677
294.737
294.803
294.874
294.954
295.024
295.096
295.158
295.19
295.225
295.261
295.275
295.297
295.324
295.356
295.396
295.444
295.5
295.563
295.629
295.699
295.768
295.832
295.909
355.48
355.664
355.425
355.237
355.317
355.417
355.662
355.976
355.571
354.214
351.825
349.603
347.661
345.425
343.071
341.183
339.525
338.066
336.825
335.783
334.929
334.203
333.573
333.063
332.683
332.44
332.335
332.322
332.499
332.816
333.273
333.891
334.625
335.483
336.431
337.467
338.566
339.739
340.936
342.142
343.364
344.553
345.681
346.74
347.701
348.557
349.287
349.898
350.369
350.721
350.886
350.917
350.756
350.468
350.011
349.418
348.645
347.726
346.665
345.48
344.178
342.778
341.29
339.716
338.063
336.329
334.538
332.7
330.803
328.914
326.99
325.077
323.168
321.237
319.336
317.399
315.51
313.632
311.776
309.969
308.202
306.488
304.784
303.12
301.485
299.914
298.373
296.9
295.466
294.08
292.724
291.424
290.159
288.928
287.711
286.506
285.312
284.171
283.099
282.101
281.162
280.248
279.339
278.453
277.595
276.773
275.988
275.242
274.526
273.838
273.187
272.569
271.995
271.456
270.947
270.47
269.977
269.463
268.93
268.338
267.532
267.365
267.036
266.522
266.365
266.144
265.899
265.644
265.38
265.106
264.827
264.545
264.264
263.983
263.7
263.415
263.137
262.888
262.656
262.438
262.229
262.037
261.86
261.697
261.547
261.416
261.295
261.186
261.074
260.967
260.857
260.757
260.665
260.579
260.49
260.397
260.294
260.182
260.058
259.931
259.798
259.656
259.579
259.496
259.41
259.368
259.324
259.319
259.315
259.321
259.327
259.33
259.328
259.32
259.299
259.273
259.235
259.192
259.138
259.081
259.044
259.022
259
259.01
259.029
259.057
259.094
259.141
259.19
259.236
259.273
259.291
259.315
259.308
259.305
259.29
259.286
259.289
259.301
259.322
259.353
259.395
259.452
259.518
259.586
259.655
259.717
259.773
259.847
259.852
259.868
259.892
259.905
259.925
259.954
259.992
260.038
260.095
260.159
260.229
260.309
260.387
260.466
260.546
260.593
260.644
260.699
260.729
260.765
260.806
260.85
260.902
260.96
261.025
261.097
261.175
261.258
261.341
261.425
261.537
355.268
355.454
355.301
355.156
355.294
355.524
355.933
355.627
353.821
350.964
348.222
345.843
343.849
342.368
341.09
339.838
338.771
337.852
337.032
336.34
335.809
335.355
334.987
334.722
334.564
334.513
334.583
334.783
335.133
335.611
336.213
336.939
337.762
338.687
339.672
340.716
341.795
342.907
344.016
345.095
346.149
347.141
348.038
348.83
349.485
350.008
350.369
350.59
350.626
350.522
350.213
349.756
349.084
348.268
347.286
346.153
344.835
343.383
341.794
340.097
338.295
336.417
334.467
332.452
330.373
328.232
326.064
323.869
321.648
319.456
317.245
315.078
312.924
310.776
308.668
306.547
304.491
302.464
300.472
298.539
296.674
294.855
293.067
291.32
289.628
287.997
286.409
284.889
283.417
281.991
280.601
279.268
277.973
276.714
275.47
274.244
273.03
271.874
270.785
269.765
268.8
267.859
266.925
266.017
265.136
264.291
263.482
262.71
261.964
261.249
260.568
259.917
259.311
258.735
258.19
257.675
257.145
256.6
256.033
255.419
254.621
254.395
254.017
253.504
253.275
252.997
252.703
252.402
252.097
251.787
251.472
251.16
250.848
250.536
250.225
249.911
249.607
249.327
249.062
248.811
248.568
248.341
248.129
247.93
247.743
247.576
247.422
247.28
247.136
246.996
246.855
246.724
246.599
246.481
246.361
246.237
246.105
245.966
245.817
245.664
245.506
245.339
245.231
245.118
245.001
244.927
244.849
244.812
244.773
244.749
244.724
244.698
244.669
244.635
244.591
244.542
244.485
244.424
244.353
244.281
244.222
244.182
244.136
244.13
244.13
244.137
244.154
244.181
244.21
244.239
244.26
244.267
244.275
244.265
244.254
244.233
244.22
244.215
244.22
244.232
244.253
244.285
244.331
244.386
244.444
244.504
244.559
244.612
244.679
244.687
244.704
244.729
244.743
244.764
244.792
244.828
244.873
244.927
244.988
245.056
245.132
245.209
245.288
245.368
245.421
245.476
245.536
245.573
245.616
245.662
245.711
245.767
245.828
245.897
245.972
246.053
246.139
246.226
246.315
246.437
355.15
355.334
355.323
355.243
355.457
355.798
355.485
353.717
350.54
347.574
345.378
343.825
342.706
341.888
341.186
340.331
339.576
338.924
338.358
337.886
337.548
337.261
337.046
336.916
336.874
336.943
337.131
337.437
337.866
338.41
339.056
339.806
340.634
341.547
342.5
343.484
344.473
345.461
346.419
347.308
348.135
348.872
349.48
349.95
350.25
350.386
350.315
350.083
349.623
349.009
348.166
347.16
345.918
344.524
342.975
341.267
339.376
337.378
335.249
333.042
330.745
328.411
326.027
323.61
321.154
318.66
316.182
313.696
311.233
308.826
306.43
304.114
301.819
299.564
297.354
295.165
293.059
290.992
288.976
287.034
285.182
283.368
281.601
279.888
278.247
276.668
275.141
273.682
272.276
270.913
269.589
268.32
267.092
265.899
264.724
263.571
262.428
261.349
260.331
259.376
258.472
257.588
256.712
255.863
255.038
254.248
253.49
252.767
252.067
251.396
250.756
250.144
249.573
249.027
248.514
248.023
247.518
247.002
246.459
245.882
245.154
244.921
244.559
244.11
243.849
243.573
243.285
242.99
242.693
242.392
242.088
241.785
241.483
241.181
240.88
240.576
240.284
240.013
239.754
239.507
239.269
239.045
238.834
238.636
238.447
238.279
238.123
237.978
237.832
237.691
237.548
237.416
237.29
237.169
237.046
236.92
236.787
236.646
236.498
236.346
236.189
236.024
235.911
235.796
235.677
235.597
235.512
235.466
235.418
235.385
235.351
235.316
235.279
235.237
235.187
235.133
235.071
235.005
234.932
234.857
234.794
234.749
234.697
234.684
234.676
234.678
234.688
234.706
234.727
234.748
234.762
234.764
234.767
234.755
234.742
234.72
234.706
234.697
234.701
234.71
234.728
234.756
234.797
234.847
234.9
234.955
235.006
235.058
235.118
235.129
235.148
235.172
235.189
235.212
235.24
235.277
235.321
235.375
235.435
235.502
235.577
235.653
235.731
235.81
235.865
235.923
235.985
236.026
236.073
236.123
236.175
236.234
236.298
236.369
236.446
236.529
236.617
236.707
236.798
236.924
355.082
355.273
355.484
355.47
355.683
355.354
353.752
350.609
347.628
345.573
344.209
343.322
342.752
342.218
341.754
341.191
340.697
340.259
339.877
339.556
339.348
339.176
339.064
339.025
339.077
339.232
339.491
339.86
340.333
340.911
341.574
342.322
343.127
343.995
344.883
345.767
346.619
347.436
348.187
348.824
349.354
349.763
349.997
350.056
349.891
349.54
348.927
348.123
347.04
345.778
344.266
342.574
340.629
338.53
336.294
333.912
331.349
328.734
325.994
323.228
320.402
317.596
314.784
311.984
309.192
306.379
303.651
300.938
298.306
295.764
293.26
290.884
288.538
286.27
284.059
281.895
279.841
277.837
275.896
274.049
272.307
270.601
268.959
267.378
265.878
264.438
263.051
261.73
260.462
259.234
258.045
256.908
255.816
254.757
253.72
252.703
251.695
250.754
249.861
249.024
248.233
247.458
246.693
245.954
245.235
244.549
243.889
243.259
242.647
242.066
241.507
240.977
240.48
240.005
239.562
239.129
238.686
238.235
237.753
237.249
236.628
236.411
236.101
235.745
235.476
235.24
234.99
234.73
234.47
234.206
233.938
233.671
233.403
233.135
232.869
232.598
232.341
232.1
231.868
231.649
231.436
231.237
231.048
230.872
230.701
230.551
230.412
230.281
230.152
230.026
229.899
229.783
229.67
229.562
229.453
229.34
229.22
229.093
228.961
228.823
228.682
228.533
228.428
228.326
228.22
228.147
228.069
228.028
227.984
227.954
227.924
227.892
227.858
227.82
227.774
227.724
227.667
227.608
227.54
227.471
227.413
227.371
227.325
227.312
227.306
227.309
227.319
227.336
227.356
227.376
227.391
227.393
227.399
227.388
227.378
227.359
227.348
227.342
227.347
227.357
227.376
227.404
227.445
227.495
227.547
227.601
227.652
227.704
227.761
227.777
227.799
227.825
227.845
227.871
227.902
227.941
227.988
228.042
228.103
228.17
228.246
228.322
228.402
228.48
228.539
228.599
228.663
228.708
228.759
228.812
228.869
228.931
228.998
229.071
229.151
229.236
229.326
229.418
229.511
229.641
355.05
355.345
355.642
355.576
355.347
354.011
351.128
348.113
346.027
344.734
343.943
343.47
343.115
342.792
342.518
342.171
341.865
341.581
341.332
341.125
341.018
340.939
340.911
340.958
341.085
341.308
341.622
342.035
342.536
343.129
343.786
344.506
345.255
346.037
346.811
347.542
348.19
348.76
349.219
349.515
349.638
349.576
349.295
348.79
347.998
346.973
345.622
344.028
342.1
339.953
337.55
334.949
332.092
329.1
325.961
322.796
319.426
316.082
312.653
309.236
305.883
302.562
299.378
296.23
293.179
290.103
287.221
284.38
281.687
279.126
276.632
274.332
272.065
269.926
267.855
265.857
264
262.202
260.479
258.867
257.38
255.917
254.523
253.183
251.929
250.722
249.571
248.475
247.433
246.421
245.447
244.517
243.636
242.779
241.946
241.125
240.308
239.557
238.836
238.166
237.533
236.916
236.309
235.724
235.154
234.611
234.086
233.587
233.1
232.644
232.202
231.786
231.396
231.023
230.676
230.332
229.979
229.624
229.234
228.833
228.35
228.161
227.93
227.684
227.445
227.271
227.08
226.878
226.677
226.47
226.262
226.049
225.836
225.622
225.409
225.192
224.989
224.794
224.607
224.432
224.263
224.104
223.954
223.815
223.68
223.563
223.454
223.353
223.254
223.156
223.058
222.97
222.884
222.801
222.715
222.627
222.532
222.43
222.325
222.212
222.097
221.974
221.888
221.809
221.727
221.67
221.609
221.582
221.553
221.535
221.517
221.497
221.476
221.45
221.417
221.379
221.335
221.289
221.235
221.18
221.134
221.103
221.07
221.064
221.066
221.075
221.091
221.114
221.139
221.165
221.185
221.195
221.21
221.201
221.202
221.189
221.186
221.188
221.198
221.214
221.238
221.271
221.315
221.368
221.424
221.481
221.534
221.589
221.646
221.671
221.698
221.728
221.755
221.786
221.822
221.866
221.916
221.974
222.038
222.108
222.186
222.265
222.347
222.427
222.49
222.554
222.621
222.672
222.727
222.785
222.846
222.912
222.983
223.06
223.143
223.232
223.324
223.419
223.515
223.65
355.077
355.4
355.67
355.271
354.339
351.932
348.854
346.641
345.288
344.519
344.081
343.807
343.636
343.478
343.332
343.139
342.963
342.798
342.658
342.551
342.528
342.532
342.58
342.698
342.887
343.162
343.514
343.952
344.459
345.039
345.659
346.309
346.954
347.589
348.175
348.675
349.026
349.234
349.259
349.045
348.583
347.844
346.813
345.491
343.783
341.754
339.326
336.579
333.446
330.046
326.409
322.618
318.561
314.473
310.145
306.236
302.001
297.772
293.722
289.585
285.807
281.956
278.551
275.121
271.955
268.719
265.819
262.986
260.391
257.988
255.688
253.662
251.659
249.849
248.1
246.461
244.977
243.563
242.23
241.023
239.949
238.887
237.879
236.915
236.032
235.179
234.381
233.624
232.914
232.225
231.569
230.939
230.345
229.762
229.203
228.637
228.074
227.564
227.07
226.618
226.193
225.776
225.366
224.974
224.586
224.219
223.862
223.527
223.196
222.895
222.598
222.325
222.066
221.822
221.593
221.363
221.124
220.892
220.618
220.342
220.019
219.866
219.75
219.615
219.453
219.344
219.229
219.101
218.977
218.843
218.712
218.571
218.43
218.286
218.142
217.993
217.859
217.726
217.598
217.48
217.367
217.263
217.164
217.076
216.989
216.918
216.852
216.792
216.734
216.676
216.618
216.568
216.52
216.471
216.421
216.365
216.306
216.236
216.169
216.09
216.011
215.925
215.866
215.817
215.766
215.735
215.701
215.695
215.688
215.689
215.691
215.691
215.69
215.684
215.668
215.654
215.626
215.603
215.569
215.534
215.509
215.495
215.481
215.487
215.502
215.524
215.553
215.587
215.623
215.659
215.69
215.711
215.741
215.741
215.755
215.755
215.763
215.776
215.797
215.823
215.857
215.898
215.95
216.01
216.072
216.136
216.195
216.257
216.317
216.355
216.389
216.426
216.462
216.501
216.545
216.595
216.652
216.716
216.786
216.861
216.943
217.027
217.114
217.197
217.267
217.336
217.407
217.466
217.527
217.591
217.658
217.73
217.807
217.889
217.976
218.069
218.166
218.264
218.365
218.505
355.144
355.297
355.401
354.539
352.736
349.825
347.427
345.905
345.05
344.616
344.376
344.254
344.212
344.167
344.122
344.039
343.963
343.895
343.847
343.826
343.869
343.946
344.057
344.23
344.464
344.77
345.139
345.574
346.055
346.58
347.112
347.634
348.1
348.502
348.792
348.934
348.82
348.486
347.835
346.825
345.444
343.637
341.464
338.904
335.862
332.377
328.456
324.18
319.497
314.569
309.363
304.338
298.975
293.791
288.214
283.742
278.8
273.652
269.233
264.514
260.514
256.304
252.888
249.345
246.265
243.082
240.329
237.685
235.357
233.245
231.292
229.65
228.046
226.691
225.378
224.23
223.213
222.304
221.454
220.769
220.16
219.612
219.057
218.62
218.185
217.828
217.464
217.175
216.872
216.622
216.357
216.135
215.889
215.673
215.444
215.209
214.96
214.768
214.557
214.374
214.194
214.017
213.836
213.672
213.498
213.34
213.181
213.037
212.889
212.765
212.635
212.527
212.42
212.324
212.236
212.139
212.03
211.938
211.795
211.672
211.518
211.433
211.436
211.411
211.358
211.326
211.298
211.257
211.22
211.175
211.134
211.079
211.023
210.959
210.899
210.829
210.775
210.716
210.659
210.61
210.564
210.525
210.488
210.46
210.432
210.416
210.402
210.393
210.383
210.377
210.365
210.366
210.362
210.358
210.349
210.336
210.319
210.287
210.27
210.231
210.196
210.156
210.131
210.119
210.106
210.107
210.109
210.127
210.15
210.177
210.205
210.232
210.257
210.277
210.284
210.302
210.293
210.302
210.291
210.284
210.285
210.293
210.302
210.326
210.36
210.401
210.447
210.497
210.549
210.6
210.647
210.684
210.73
210.748
210.777
210.795
210.819
210.847
210.883
210.923
210.97
211.023
211.086
211.157
211.229
211.303
211.371
211.442
211.509
211.565
211.608
211.655
211.702
211.753
211.807
211.867
211.933
212.005
212.083
212.166
212.255
212.345
212.438
212.528
212.608
212.683
212.76
212.828
212.897
212.969
213.044
213.123
213.206
213.295
213.388
213.487
213.589
213.693
213.799
213.947
355.197
354.996
354.843
353.413
350.951
348.403
346.636
345.607
345.106
344.852
344.754
344.739
344.787
344.821
344.845
344.85
344.855
344.865
344.89
344.938
345.036
345.167
345.324
345.533
345.788
346.101
346.454
346.848
347.254
347.666
348.036
348.348
348.522
348.557
348.355
347.906
347.034
345.805
344.045
341.783
339.004
335.638
331.957
327.71
322.934
317.624
311.882
305.982
299.648
293.248
286.399
280.466
274.046
268.131
261.61
256.787
251.509
245.77
241.227
236.239
232.379
228.168
225.008
221.673
218.904
216.086
213.669
211.453
209.551
207.886
206.447
205.214
204.149
203.206
202.387
201.702
201.106
200.714
200.214
200.064
199.793
199.769
199.527
199.651
199.533
199.721
199.684
199.914
199.931
200.159
200.238
200.471
200.557
200.778
200.856
201.038
201.14
201.32
201.416
201.55
201.636
201.734
201.808
201.908
201.979
202.056
202.116
202.182
202.236
202.307
202.362
202.433
202.497
202.562
202.639
202.676
202.71
202.759
202.771
202.828
202.823
202.864
202.958
203.06
203.12
203.185
203.243
203.306
203.36
203.422
203.472
203.518
203.55
203.579
203.611
203.631
203.667
203.687
203.71
203.738
203.767
203.8
203.834
203.873
203.913
203.959
204.004
204.053
204.098
204.15
204.195
204.25
204.296
204.344
204.383
204.421
204.45
204.466
204.504
204.509
204.531
204.536
204.555
204.584
204.615
204.654
204.694
204.746
204.802
204.861
204.921
204.98
205.035
205.087
205.125
205.175
205.197
205.235
205.257
205.283
205.312
205.349
205.385
205.433
205.489
205.553
205.621
205.691
205.762
205.832
205.899
205.957
206.022
206.062
206.11
206.15
206.194
206.242
206.296
206.354
206.418
206.486
206.563
206.648
206.733
206.82
206.9
206.984
207.061
207.137
207.192
207.252
207.313
207.377
207.444
207.516
207.594
207.677
207.765
207.858
207.956
208.054
208.156
208.254
208.346
208.429
208.515
208.595
208.673
208.754
208.838
208.926
209.018
209.115
209.216
209.322
209.431
209.541
209.654
209.812
355.232
354.611
354.059
352.101
349.572
347.548
346.271
345.616
345.285
345.164
345.155
345.225
345.327
345.417
345.496
345.565
345.631
345.701
345.783
345.882
346.019
346.182
346.365
346.584
346.832
347.114
347.408
347.706
347.968
348.184
348.282
348.237
347.914
347.324
346.284
344.835
342.764
340.147
336.757
332.734
328.155
322.848
317.491
311.234
304.476
297.427
289.813
282.652
274.897
267.489
259.289
252.993
245.891
239.812
233.146
228.012
223.055
217.551
213.319
208.691
205.303
201.628
198.904
196.212
193.898
191.769
189.815
188.274
186.847
185.781
184.834
184.017
183.524
182.819
182.55
182.129
181.918
181.916
181.601
181.896
181.748
182.098
182.071
182.495
182.572
183.046
183.224
183.709
183.961
184.434
184.773
185.244
185.595
186.058
186.407
186.857
187.263
187.718
188.095
188.501
188.851
189.212
189.548
189.907
190.232
190.553
190.843
191.128
191.396
191.671
191.921
192.177
192.416
192.651
192.882
193.068
193.256
193.441
193.626
193.838
194.006
194.173
194.379
194.601
194.774
194.941
195.1
195.265
195.421
195.586
195.737
195.887
196.015
196.143
196.269
196.388
196.515
196.622
196.731
196.841
196.95
197.06
197.17
197.282
197.393
197.507
197.616
197.728
197.835
197.948
198.055
198.17
198.27
198.373
198.466
198.557
198.639
198.714
198.802
198.865
198.939
198.999
199.067
199.143
199.221
199.303
199.385
199.476
199.569
199.665
199.76
199.854
199.944
200.03
200.106
200.189
200.249
200.318
200.378
200.44
200.502
200.571
200.639
200.715
200.798
200.888
200.981
201.075
201.169
201.261
201.351
201.432
201.521
201.586
201.656
201.721
201.789
201.86
201.935
202.013
202.097
202.184
202.278
202.379
202.48
202.582
202.678
202.776
202.868
202.965
203.035
203.11
203.188
203.268
203.351
203.437
203.529
203.625
203.726
203.83
203.939
204.048
204.16
204.269
204.375
204.467
204.563
204.657
204.747
204.839
204.933
205.032
205.134
205.24
205.351
205.465
205.582
205.701
205.821
205.991
355.172
354.164
353.169
350.871
348.678
347.104
346.205
345.729
345.536
345.496
345.558
345.681
345.818
345.946
346.066
346.178
346.288
346.401
346.52
346.652
346.807
346.98
347.161
347.359
347.561
347.766
347.938
348.065
348.08
347.961
347.57
346.898
345.719
344.091
341.746
338.787
335.047
330.548
325.108
318.921
312.576
305.28
297.995
289.908
281.275
273.039
263.819
256.048
247.282
239.648
230.974
224.823
217.798
212.252
206.32
201.124
196.991
192.42
188.654
185.092
182.138
179.609
177.31
175.532
173.668
172.502
170.981
170.283
169.171
168.811
168.135
167.794
167.702
167.149
167.375
166.978
167.194
167.215
167.219
167.662
167.521
168.045
168.106
168.648
168.779
169.341
169.589
170.138
170.469
171.016
171.42
171.977
172.394
172.952
173.411
173.972
174.509
175.09
175.613
176.161
176.663
177.185
177.696
178.23
178.739
179.246
179.725
180.201
180.656
181.116
181.544
181.971
182.371
182.765
183.133
183.464
183.795
184.125
184.471
184.833
185.166
185.461
185.776
186.111
186.399
186.668
186.93
187.199
187.458
187.725
187.976
188.23
188.454
188.686
188.906
189.124
189.347
189.542
189.739
189.933
190.125
190.315
190.503
190.69
190.874
191.059
191.234
191.412
191.584
191.761
191.933
192.11
192.268
192.43
192.579
192.726
192.866
193
193.142
193.265
193.396
193.514
193.635
193.761
193.888
194.018
194.145
194.276
194.41
194.545
194.678
194.811
194.938
195.062
195.177
195.298
195.398
195.504
195.604
195.705
195.804
195.907
196.009
196.116
196.229
196.348
196.469
196.59
196.708
196.826
196.941
197.05
197.163
197.255
197.352
197.445
197.539
197.636
197.735
197.836
197.942
198.05
198.164
198.283
198.402
198.523
198.635
198.751
198.86
198.977
199.067
199.161
199.257
199.355
199.455
199.558
199.665
199.777
199.892
200.01
200.132
200.254
200.377
200.498
200.619
200.724
200.832
200.941
201.043
201.148
201.255
201.366
201.48
201.597
201.718
201.842
201.969
202.097
202.227
202.41
355.059
353.707
352.273
350.029
348.177
346.949
346.237
345.917
345.813
345.831
345.939
346.093
346.252
346.404
346.549
346.688
346.824
346.961
347.099
347.242
347.395
347.55
347.696
347.833
347.937
347.998
347.957
347.792
347.356
346.638
345.401
343.685
341.203
338.051
333.936
328.988
323.213
316.577
309.02
300.565
292.865
283.778
274.291
265.233
255.183
246.418
236.357
228.66
219.794
212.822
204.706
199.104
192.652
187.979
183.077
178.735
175.089
172.11
168.8
166.637
164.173
162.854
160.935
160.277
158.605
158.623
157.322
157.574
156.601
157.001
156.345
156.698
156.512
156.633
156.858
156.664
157.194
156.949
157.454
157.873
157.711
158.317
158.321
158.868
158.948
159.51
159.678
160.203
160.44
160.959
161.248
161.766
162.097
162.616
163.004
163.533
164.024
164.574
165.08
165.617
166.118
166.656
167.194
167.765
168.324
168.893
169.449
170.01
170.563
171.117
171.655
172.192
172.709
173.211
173.684
174.129
174.574
175.032
175.508
176.001
176.472
176.892
177.298
177.727
178.121
178.484
178.843
179.208
179.563
179.926
180.27
180.625
180.943
181.273
181.585
181.898
182.214
182.496
182.78
183.058
183.331
183.6
183.865
184.128
184.384
184.638
184.88
185.125
185.363
185.604
185.841
186.081
186.299
186.52
186.727
186.931
187.13
187.324
187.523
187.707
187.896
188.075
188.25
188.428
188.606
188.785
188.958
189.134
189.309
189.485
189.659
189.831
189.998
190.161
190.317
190.477
190.619
190.765
190.907
191.05
191.187
191.327
191.465
191.606
191.751
191.9
192.052
192.201
192.346
192.491
192.634
192.771
192.912
193.034
193.159
193.282
193.405
193.529
193.654
193.781
193.911
194.042
194.178
194.316
194.456
194.596
194.728
194.862
194.992
195.13
195.241
195.355
195.472
195.59
195.709
195.831
195.955
196.083
196.215
196.349
196.484
196.62
196.757
196.892
197.03
197.149
197.27
197.395
197.512
197.631
197.752
197.876
198.003
198.132
198.265
198.401
198.539
198.677
198.817
199.016
354.79
353.231
351.466
349.403
347.842
346.878
346.351
346.135
346.093
346.149
346.287
346.456
346.625
346.788
346.943
347.094
347.239
347.381
347.518
347.65
347.774
347.88
347.949
347.973
347.902
347.721
347.29
346.59
345.369
343.657
341.136
337.903
333.688
328.572
322.351
315.108
307.141
298.714
289.348
278.884
269.912
259.605
248.249
239.073
228.442
220.054
210.267
203.22
194.915
189.071
182.023
177.29
171.818
168.094
164.157
161.193
158.113
156.619
153.761
153.104
151.086
150.959
149.354
149.755
148.436
149.285
148.314
149.224
148.518
149.447
148.94
149.846
149.47
150.38
150.262
150.795
151.333
151.139
151.823
152.066
152.109
152.79
152.683
153.287
153.297
153.859
153.901
154.388
154.475
154.924
155.029
155.457
155.582
155.989
156.198
156.595
156.892
157.297
157.616
158.01
158.343
158.747
159.15
159.602
160.045
160.519
161.003
161.501
162.009
162.524
163.048
163.575
164.098
164.606
165.104
165.582
166.071
166.589
167.131
167.692
168.248
168.758
169.223
169.705
170.17
170.607
171.039
171.478
171.907
172.348
172.771
173.207
173.608
174.022
174.417
174.814
175.211
175.573
175.936
176.289
176.638
176.98
177.318
177.65
177.977
178.296
178.603
178.911
179.212
179.516
179.816
180.118
180.393
180.673
180.935
181.196
181.453
181.705
181.961
182.205
182.453
182.693
182.921
183.152
183.38
183.61
183.83
184.051
184.267
184.484
184.699
184.912
185.119
185.323
185.52
185.72
185.905
186.093
186.277
186.464
186.64
186.818
186.994
187.17
187.348
187.53
187.712
187.89
188.065
188.238
188.41
188.576
188.747
188.899
189.054
189.21
189.362
189.515
189.668
189.821
189.977
190.133
190.292
190.452
190.613
190.774
190.927
191.081
191.233
191.391
191.527
191.663
191.801
191.941
192.081
192.223
192.366
192.512
192.66
192.812
192.963
193.114
193.265
193.416
193.57
193.705
193.842
193.984
194.116
194.251
194.387
194.526
194.667
194.81
194.956
195.104
195.254
195.403
195.555
195.771
354.448
352.712
350.798
348.974
347.684
346.899
346.504
346.365
346.359
346.443
346.595
346.766
346.934
347.096
347.25
347.396
347.534
347.663
347.779
347.875
347.939
347.955
347.887
347.72
347.333
346.705
345.587
343.985
341.562
338.405
334.185
329.012
322.744
315.427
307.092
297.662
287.535
277.908
267.257
255.526
244.802
234.321
222.506
213.736
203.399
195.88
187.038
181.003
173.753
169.076
163.157
159.62
155.214
152.694
149.536
148.021
145.695
145.027
142.979
143.522
142.07
142.778
141.603
142.733
141.811
143.183
142.518
143.955
143.532
144.926
144.563
145.879
145.589
146.861
146.636
147.657
147.998
148.274
149.054
148.864
149.505
150.178
150.009
150.697
150.694
151.269
151.245
151.748
151.76
152.192
152.183
152.567
152.557
152.91
152.969
153.284
153.391
153.678
153.787
154.036
154.165
154.395
154.579
154.838
155.052
155.325
155.602
155.901
156.216
156.546
156.898
157.261
157.629
158.006
158.377
158.744
159.152
159.605
160.093
160.607
161.143
161.637
162.101
162.562
163.027
163.481
163.93
164.39
164.843
165.314
165.773
166.25
166.7
167.163
167.61
168.062
168.513
168.934
169.356
169.767
170.174
170.574
170.973
171.363
171.748
172.122
172.487
172.849
173.207
173.567
173.922
174.279
174.607
174.941
175.253
175.567
175.878
176.186
176.495
176.795
177.098
177.398
177.678
177.959
178.237
178.513
178.78
179.044
179.3
179.558
179.813
180.066
180.312
180.556
180.794
181.035
181.262
181.492
181.719
181.948
182.165
182.38
182.595
182.806
183.017
183.232
183.444
183.653
183.857
184.058
184.26
184.457
184.657
184.841
185.028
185.216
185.399
185.581
185.763
185.943
186.126
186.309
186.491
186.673
186.855
187.038
187.214
187.389
187.564
187.743
187.905
188.064
188.226
188.388
188.55
188.712
188.875
189.04
189.207
189.376
189.544
189.712
189.878
190.045
190.217
190.368
190.523
190.682
190.831
190.982
191.135
191.289
191.445
191.603
191.763
191.925
192.087
192.249
192.412
192.646
354.142
352.197
350.298
348.68
347.593
346.961
346.669
346.587
346.605
346.705
346.86
347.024
347.182
347.332
347.471
347.6
347.714
347.812
347.882
347.912
347.874
347.739
347.433
346.915
345.962
344.562
342.368
339.431
335.406
330.412
324.19
316.795
308.358
299.055
288.82
277.713
265.572
255.202
243.659
231.896
219.275
209.738
198.534
190.415
181.011
174.654
167.25
162.331
156.481
152.835
148.195
145.918
142.471
141.139
138.602
138.242
136.727
135.717
136.145
136.339
136.109
137.353
136.526
138.237
137.624
139.443
139.04
140.93
140.606
142.372
142.065
143.651
143.425
144.902
144.731
146.059
145.919
146.861
147.705
147.489
148.312
148.909
148.808
149.58
149.557
150.191
150.163
150.746
150.732
151.21
151.158
151.566
151.513
151.876
151.874
152.182
152.205
152.472
152.474
152.686
152.709
152.873
152.93
153.086
153.144
153.296
153.413
153.557
153.701
153.854
154.017
154.186
154.344
154.519
154.656
154.81
155.02
155.277
155.57
155.893
156.246
156.596
156.905
157.231
157.573
157.924
158.283
158.665
159.045
159.46
159.865
160.3
160.724
161.167
161.605
162.051
162.497
162.929
163.361
163.787
164.214
164.637
165.061
165.479
165.893
166.298
166.699
167.095
167.493
167.89
168.284
168.68
169.047
169.423
169.774
170.131
170.486
170.84
171.196
171.543
171.895
172.244
172.573
172.899
173.22
173.537
173.847
174.15
174.444
174.74
175.03
175.321
175.603
175.886
176.162
176.442
176.71
176.98
177.248
177.517
177.774
178.026
178.278
178.524
178.768
179.013
179.255
179.493
179.727
179.956
180.188
180.415
180.644
180.861
181.079
181.299
181.512
181.725
181.935
182.143
182.353
182.562
182.768
182.973
183.177
183.382
183.58
183.778
183.975
184.176
184.366
184.548
184.733
184.918
185.102
185.286
185.47
185.655
185.84
186.029
186.213
186.398
186.58
186.765
186.953
187.123
187.295
187.472
187.64
187.808
187.978
188.148
188.32
188.493
188.667
188.843
189.019
189.194
189.37
189.623
353.813
351.743
349.907
348.473
347.562
347.053
346.837
346.789
346.827
346.935
347.084
347.234
347.372
347.5
347.613
347.71
347.784
347.827
347.821
347.743
347.537
347.136
346.396
345.257
343.39
340.817
337.153
332.503
326.575
319.496
311.157
301.557
290.972
280.244
268.357
256.23
242.543
231.649
219.217
208.108
195.58
186.849
176.926
169.852
162.214
156.963
151.305
147.285
142.942
139.875
136.807
135.284
132.91
132.57
130.94
131.677
130.647
131.265
131.8
131.431
132.894
133.682
133.129
135.208
134.675
136.912
136.545
138.79
138.496
140.563
140.289
142.212
142.033
143.715
143.565
145.106
145.018
146.235
146.783
146.911
147.897
148.185
148.428
149.277
149.202
149.919
149.901