/*--------------------------------*- C++ -*----------------------------------*\
| =========                 |                                                 |
| \\      /  F ield         | OpenFOAM: The Open Source CFD Toolbox           |
|  \\    /   O peration     | Version:  2312                                  |
|   \\  /    A nd           | Website:  www.openfoam.com                      |
|    \\/     M anipulation  |                                                 |
\*---------------------------------------------------------------------------*/
FoamFile
{
    version     2.0;
    format      ascii;
    arch        "LSB;label=32;scalar=64";
    class       volScalarField;
    location    "0.005";
    object      thermo:psiLiqEff;
}
// * * * * * * * * * * * * * * * * * * * * * * * * * * * * * * * * * * * * * //

dimensions      [-2 4 2 0 0 0 0];

internalField   nonuniform List<scalar> 
48128
(
4.05257e-13
4.05139e-13
4.05466e-13
4.05663e-13
4.056e-13
4.05626e-13
4.05563e-13
4.05444e-13
4.05511e-13
4.05968e-13
4.08071e-13
4.10096e-13
4.11428e-13
4.12584e-13
4.13539e-13
4.15354e-13
4.16944e-13
4.1847e-13
4.1991e-13
4.21245e-13
4.22446e-13
4.23592e-13
4.24693e-13
4.25713e-13
4.26635e-13
4.27446e-13
4.28124e-13
4.28631e-13
4.28964e-13
4.2914e-13
4.2919e-13
4.29013e-13
4.28657e-13
4.28132e-13
4.27467e-13
4.26661e-13
4.25722e-13
4.24667e-13
4.23578e-13
4.22386e-13
4.21144e-13
4.19898e-13
4.18668e-13
4.17456e-13
4.16296e-13
4.15212e-13
4.14208e-13
4.1329e-13
4.12474e-13
4.11756e-13
4.112e-13
4.10719e-13
4.10405e-13
4.102e-13
4.10177e-13
4.10271e-13
4.10527e-13
4.1092e-13
4.11445e-13
4.1209e-13
4.12851e-13
4.13717e-13
4.14678e-13
4.15733e-13
4.16883e-13
4.18135e-13
4.19469e-13
4.20863e-13
4.22335e-13
4.23849e-13
4.25452e-13
4.27097e-13
4.28786e-13
4.30544e-13
4.32306e-13
4.34149e-13
4.35966e-13
4.37821e-13
4.39692e-13
4.41514e-13
4.43356e-13
4.4513e-13
4.46939e-13
4.48704e-13
4.50497e-13
4.52198e-13
4.53925e-13
4.55549e-13
4.57176e-13
4.58729e-13
4.60284e-13
4.61762e-13
4.6322e-13
4.64637e-13
4.66056e-13
4.67467e-13
4.68875e-13
4.70215e-13
4.71463e-13
4.72602e-13
4.73669e-13
4.74708e-13
4.75754e-13
4.76774e-13
4.77759e-13
4.78696e-13
4.79579e-13
4.8041e-13
4.812e-13
4.81954e-13
4.82655e-13
4.83311e-13
4.83904e-13
4.8445e-13
4.84954e-13
4.85426e-13
4.85934e-13
4.86483e-13
4.87069e-13
4.87756e-13
4.88783e-13
4.8872e-13
4.88973e-13
4.8955e-13
4.89498e-13
4.89607e-13
4.89765e-13
4.89954e-13
4.90171e-13
4.90413e-13
4.90672e-13
4.90936e-13
4.91203e-13
4.91472e-13
4.91742e-13
4.92017e-13
4.92274e-13
4.92484e-13
4.92662e-13
4.92824e-13
4.92973e-13
4.93099e-13
4.93205e-13
4.93292e-13
4.93371e-13
4.93409e-13
4.93409e-13
4.93398e-13
4.93385e-13
4.93369e-13
4.93352e-13
4.93326e-13
4.9329e-13
4.93245e-13
4.93217e-13
4.93188e-13
4.93197e-13
4.93219e-13
4.93262e-13
4.93311e-13
4.93379e-13
4.9342e-13
4.93392e-13
4.93372e-13
4.93333e-13
4.93255e-13
4.93154e-13
4.93021e-13
4.92879e-13
4.92726e-13
4.92589e-13
4.92457e-13
4.92359e-13
4.92259e-13
4.92218e-13
4.92173e-13
4.92173e-13
4.92171e-13
4.92197e-13
4.92203e-13
4.92187e-13
4.9215e-13
4.92094e-13
4.91998e-13
4.91883e-13
4.91759e-13
4.91623e-13
4.91477e-13
4.91329e-13
4.91203e-13
4.91099e-13
4.91038e-13
4.90965e-13
4.90956e-13
4.90936e-13
4.90941e-13
4.90926e-13
4.90896e-13
4.90846e-13
4.90777e-13
4.90691e-13
4.90585e-13
4.90456e-13
4.90315e-13
4.9018e-13
4.90051e-13
4.8994e-13
4.89847e-13
4.89735e-13
4.89738e-13
4.89716e-13
4.89687e-13
4.89671e-13
4.8964e-13
4.89594e-13
4.89529e-13
4.89448e-13
4.89349e-13
4.89239e-13
4.89121e-13
4.88989e-13
4.88873e-13
4.88752e-13
4.8865e-13
4.88598e-13
4.8854e-13
4.88479e-13
4.88457e-13
4.88421e-13
4.88376e-13
4.88323e-13
4.88256e-13
4.88177e-13
4.88084e-13
4.87982e-13
4.87872e-13
4.87756e-13
4.87643e-13
4.87538e-13
4.8741e-13
4.05728e-13
4.05518e-13
4.05791e-13
4.06006e-13
4.05914e-13
4.058e-13
4.05521e-13
4.05163e-13
4.05625e-13
4.07179e-13
4.09944e-13
4.12549e-13
4.14854e-13
4.17539e-13
4.20404e-13
4.22731e-13
4.24796e-13
4.26629e-13
4.28201e-13
4.2953e-13
4.30625e-13
4.3156e-13
4.32376e-13
4.33038e-13
4.33532e-13
4.3385e-13
4.33986e-13
4.34004e-13
4.33773e-13
4.3336e-13
4.32765e-13
4.31964e-13
4.31016e-13
4.29914e-13
4.28703e-13
4.27386e-13
4.25999e-13
4.24528e-13
4.23037e-13
4.21546e-13
4.20045e-13
4.18596e-13
4.17229e-13
4.15955e-13
4.14805e-13
4.13787e-13
4.12922e-13
4.12201e-13
4.11646e-13
4.11233e-13
4.11039e-13
4.11003e-13
4.11192e-13
4.1153e-13
4.12066e-13
4.12766e-13
4.13681e-13
4.14774e-13
4.16044e-13
4.17471e-13
4.1905e-13
4.20761e-13
4.22597e-13
4.24555e-13
4.26631e-13
4.2883e-13
4.31126e-13
4.33508e-13
4.35995e-13
4.38498e-13
4.41079e-13
4.43674e-13
4.46294e-13
4.48978e-13
4.51652e-13
4.54407e-13
4.57128e-13
4.59865e-13
4.62604e-13
4.65301e-13
4.67968e-13
4.70585e-13
4.73216e-13
4.75815e-13
4.78395e-13
4.80901e-13
4.83386e-13
4.85783e-13
4.88141e-13
4.90442e-13
4.92715e-13
4.94913e-13
4.97071e-13
4.99187e-13
5.01301e-13
5.03408e-13
5.05516e-13
5.07546e-13
5.09468e-13
5.1127e-13
5.12978e-13
5.14651e-13
5.16326e-13
5.17968e-13
5.1957e-13
5.21113e-13
5.22595e-13
5.24011e-13
5.25379e-13
5.26699e-13
5.27953e-13
5.29152e-13
5.30267e-13
5.31321e-13
5.32319e-13
5.33258e-13
5.34232e-13
5.3525e-13
5.36312e-13
5.37494e-13
5.39115e-13
5.39451e-13
5.40117e-13
5.41158e-13
5.41476e-13
5.41926e-13
5.42425e-13
5.42947e-13
5.43488e-13
5.44048e-13
5.44623e-13
5.45202e-13
5.45781e-13
5.46364e-13
5.4695e-13
5.47542e-13
5.48119e-13
5.4864e-13
5.49124e-13
5.4958e-13
5.50018e-13
5.50422e-13
5.50792e-13
5.51135e-13
5.51453e-13
5.51729e-13
5.51984e-13
5.52216e-13
5.52451e-13
5.52678e-13
5.52911e-13
5.53123e-13
5.53319e-13
5.53501e-13
5.53691e-13
5.53888e-13
5.54108e-13
5.54347e-13
5.54609e-13
5.5488e-13
5.55166e-13
5.55469e-13
5.55634e-13
5.55811e-13
5.55996e-13
5.56085e-13
5.56181e-13
5.56191e-13
5.56199e-13
5.56186e-13
5.56173e-13
5.56166e-13
5.56171e-13
5.56188e-13
5.56235e-13
5.56289e-13
5.56371e-13
5.56463e-13
5.5658e-13
5.56701e-13
5.56782e-13
5.56829e-13
5.56876e-13
5.56855e-13
5.56813e-13
5.56754e-13
5.56673e-13
5.56573e-13
5.56467e-13
5.56368e-13
5.56289e-13
5.56251e-13
5.56199e-13
5.56215e-13
5.56221e-13
5.56253e-13
5.56261e-13
5.56255e-13
5.5623e-13
5.56185e-13
5.56118e-13
5.56028e-13
5.55906e-13
5.55764e-13
5.55619e-13
5.55472e-13
5.55338e-13
5.55219e-13
5.5506e-13
5.55051e-13
5.55016e-13
5.54963e-13
5.54936e-13
5.54893e-13
5.54833e-13
5.54752e-13
5.54652e-13
5.54532e-13
5.54396e-13
5.54245e-13
5.54075e-13
5.5391e-13
5.53741e-13
5.53571e-13
5.53472e-13
5.53364e-13
5.53247e-13
5.53183e-13
5.53106e-13
5.53019e-13
5.52925e-13
5.52816e-13
5.52693e-13
5.52555e-13
5.52402e-13
5.52238e-13
5.52063e-13
5.51886e-13
5.5171e-13
5.51474e-13
4.0597e-13
4.05757e-13
4.05932e-13
4.06098e-13
4.05941e-13
4.05678e-13
4.05211e-13
4.0556e-13
4.07631e-13
4.10949e-13
4.14186e-13
4.17035e-13
4.19454e-13
4.21268e-13
4.22847e-13
4.24404e-13
4.25741e-13
4.269e-13
4.27938e-13
4.28819e-13
4.29497e-13
4.30078e-13
4.3055e-13
4.30892e-13
4.31095e-13
4.31161e-13
4.3107e-13
4.30813e-13
4.30364e-13
4.2975e-13
4.28981e-13
4.28056e-13
4.27013e-13
4.25846e-13
4.24612e-13
4.2331e-13
4.21974e-13
4.20605e-13
4.1925e-13
4.17938e-13
4.16665e-13
4.15475e-13
4.14403e-13
4.13463e-13
4.12687e-13
4.12071e-13
4.11646e-13
4.11387e-13
4.11344e-13
4.11466e-13
4.11829e-13
4.12367e-13
4.13161e-13
4.14129e-13
4.15301e-13
4.1666e-13
4.18253e-13
4.2002e-13
4.21973e-13
4.24079e-13
4.26339e-13
4.28719e-13
4.31218e-13
4.33832e-13
4.36562e-13
4.3941e-13
4.42331e-13
4.45329e-13
4.48404e-13
4.51482e-13
4.54628e-13
4.57756e-13
4.60906e-13
4.64092e-13
4.67262e-13
4.70495e-13
4.73672e-13
4.76847e-13
4.80009e-13
4.83117e-13
4.86154e-13
4.89153e-13
4.92139e-13
4.9509e-13
4.97981e-13
5.00803e-13
5.03579e-13
5.06266e-13
5.08896e-13
5.11469e-13
5.14004e-13
5.16457e-13
5.18864e-13
5.21224e-13
5.23579e-13
5.25918e-13
5.28258e-13
5.30503e-13
5.32637e-13
5.34651e-13
5.3657e-13
5.38456e-13
5.4034e-13
5.42185e-13
5.43987e-13
5.45726e-13
5.47403e-13
5.49012e-13
5.50574e-13
5.52082e-13
5.53526e-13
5.54911e-13
5.56209e-13
5.57447e-13
5.58624e-13
5.59741e-13
5.60893e-13
5.62085e-13
5.6333e-13
5.64684e-13
5.66453e-13
5.66958e-13
5.67801e-13
5.6895e-13
5.69465e-13
5.7009e-13
5.70754e-13
5.71435e-13
5.72126e-13
5.7283e-13
5.73547e-13
5.74261e-13
5.74975e-13
5.7569e-13
5.76406e-13
5.77131e-13
5.77835e-13
5.78483e-13
5.79098e-13
5.79683e-13
5.80249e-13
5.8078e-13
5.81276e-13
5.81742e-13
5.82183e-13
5.82573e-13
5.82937e-13
5.83273e-13
5.83612e-13
5.83942e-13
5.84276e-13
5.84587e-13
5.84882e-13
5.85162e-13
5.85448e-13
5.85742e-13
5.86056e-13
5.86389e-13
5.86744e-13
5.87109e-13
5.87487e-13
5.87887e-13
5.88146e-13
5.88416e-13
5.88699e-13
5.88875e-13
5.89063e-13
5.89153e-13
5.89247e-13
5.89304e-13
5.89363e-13
5.89427e-13
5.89497e-13
5.8958e-13
5.89686e-13
5.89803e-13
5.89941e-13
5.90088e-13
5.90259e-13
5.90433e-13
5.90575e-13
5.90672e-13
5.90784e-13
5.90799e-13
5.90798e-13
5.90781e-13
5.9074e-13
5.90676e-13
5.90605e-13
5.90535e-13
5.90484e-13
5.90467e-13
5.90448e-13
5.90472e-13
5.90499e-13
5.90549e-13
5.9058e-13
5.90594e-13
5.90582e-13
5.90552e-13
5.905e-13
5.90423e-13
5.90313e-13
5.90179e-13
5.90039e-13
5.89895e-13
5.89762e-13
5.89634e-13
5.89474e-13
5.89454e-13
5.89412e-13
5.89354e-13
5.89319e-13
5.89268e-13
5.89202e-13
5.89114e-13
5.89006e-13
5.88877e-13
5.88729e-13
5.88566e-13
5.88382e-13
5.88198e-13
5.88009e-13
5.87817e-13
5.87691e-13
5.87558e-13
5.87415e-13
5.87327e-13
5.87225e-13
5.87114e-13
5.86996e-13
5.86864e-13
5.86717e-13
5.86553e-13
5.86374e-13
5.86181e-13
5.85976e-13
5.85768e-13
5.85557e-13
5.85268e-13
4.06105e-13
4.05895e-13
4.05907e-13
4.05999e-13
4.05755e-13
4.05365e-13
4.05722e-13
4.0775e-13
4.11446e-13
4.14957e-13
4.17596e-13
4.19483e-13
4.20853e-13
4.21859e-13
4.22728e-13
4.2379e-13
4.24732e-13
4.25549e-13
4.2626e-13
4.26857e-13
4.27284e-13
4.27648e-13
4.27921e-13
4.28086e-13
4.28139e-13
4.28051e-13
4.27813e-13
4.27424e-13
4.26882e-13
4.26195e-13
4.25384e-13
4.24444e-13
4.23412e-13
4.2228e-13
4.21105e-13
4.19899e-13
4.18693e-13
4.17495e-13
4.16341e-13
4.15276e-13
4.14289e-13
4.13413e-13
4.12693e-13
4.12139e-13
4.11787e-13
4.11626e-13
4.1171e-13
4.11983e-13
4.12525e-13
4.1325e-13
4.14251e-13
4.15451e-13
4.16943e-13
4.1863e-13
4.20521e-13
4.22625e-13
4.24981e-13
4.27498e-13
4.30213e-13
4.33063e-13
4.36071e-13
4.39171e-13
4.42382e-13
4.45687e-13
4.49094e-13
4.5261e-13
4.56157e-13
4.59773e-13
4.63411e-13
4.67024e-13
4.70674e-13
4.7426e-13
4.77866e-13
4.81463e-13
4.85043e-13
4.8864e-13
4.92152e-13
4.95648e-13
4.99107e-13
5.02482e-13
5.05747e-13
5.08985e-13
5.12178e-13
5.15313e-13
5.18353e-13
5.21311e-13
5.24205e-13
5.26999e-13
5.29721e-13
5.32386e-13
5.35002e-13
5.37532e-13
5.40003e-13
5.42426e-13
5.44834e-13
5.47218e-13
5.49602e-13
5.51869e-13
5.54029e-13
5.56069e-13
5.58013e-13
5.59929e-13
5.61839e-13
5.63705e-13
5.65528e-13
5.67284e-13
5.68981e-13
5.70608e-13
5.72195e-13
5.7372e-13
5.75187e-13
5.76593e-13
5.77913e-13
5.7918e-13
5.80375e-13
5.81526e-13
5.8271e-13
5.83929e-13
5.85214e-13
5.8659e-13
5.88331e-13
5.88891e-13
5.89761e-13
5.90848e-13
5.9148e-13
5.9215e-13
5.92852e-13
5.93571e-13
5.94297e-13
5.95034e-13
5.95784e-13
5.9653e-13
5.97276e-13
5.98024e-13
5.9877e-13
5.99527e-13
6.00256e-13
6.00935e-13
6.01583e-13
6.02203e-13
6.02802e-13
6.03368e-13
6.039e-13
6.04401e-13
6.0488e-13
6.05307e-13
6.05704e-13
6.06074e-13
6.06445e-13
6.06805e-13
6.0717e-13
6.07507e-13
6.07831e-13
6.08141e-13
6.08456e-13
6.08779e-13
6.09123e-13
6.09485e-13
6.09866e-13
6.10259e-13
6.10664e-13
6.11091e-13
6.11383e-13
6.11682e-13
6.11991e-13
6.12199e-13
6.1242e-13
6.12539e-13
6.12665e-13
6.12751e-13
6.12839e-13
6.1293e-13
6.13026e-13
6.13136e-13
6.13266e-13
6.13408e-13
6.1357e-13
6.1374e-13
6.13933e-13
6.14128e-13
6.14293e-13
6.14411e-13
6.14547e-13
6.14581e-13
6.14602e-13
6.14595e-13
6.1457e-13
6.14524e-13
6.14469e-13
6.14414e-13
6.14376e-13
6.1437e-13
6.14364e-13
6.14394e-13
6.14428e-13
6.14485e-13
6.14523e-13
6.14546e-13
6.14537e-13
6.14513e-13
6.14466e-13
6.14393e-13
6.14286e-13
6.14154e-13
6.14015e-13
6.13871e-13
6.13738e-13
6.13604e-13
6.13446e-13
6.13418e-13
6.13368e-13
6.13305e-13
6.13261e-13
6.13202e-13
6.13127e-13
6.13032e-13
6.12916e-13
6.12777e-13
6.1262e-13
6.12447e-13
6.12252e-13
6.12054e-13
6.11851e-13
6.11646e-13
6.11502e-13
6.11352e-13
6.11193e-13
6.11085e-13
6.10965e-13
6.10836e-13
6.10699e-13
6.10548e-13
6.10381e-13
6.10199e-13
6.09999e-13
6.09786e-13
6.09559e-13
6.09329e-13
6.09094e-13
6.0877e-13
4.06183e-13
4.05964e-13
4.05723e-13
4.0574e-13
4.05496e-13
4.05872e-13
4.0771e-13
4.11365e-13
4.14893e-13
4.1736e-13
4.19014e-13
4.20097e-13
4.20796e-13
4.21453e-13
4.22024e-13
4.22722e-13
4.23334e-13
4.23879e-13
4.24355e-13
4.24757e-13
4.25017e-13
4.25233e-13
4.25373e-13
4.25423e-13
4.25357e-13
4.25162e-13
4.24838e-13
4.24377e-13
4.23786e-13
4.23068e-13
4.22248e-13
4.21324e-13
4.20336e-13
4.19274e-13
4.18195e-13
4.17127e-13
4.16101e-13
4.15123e-13
4.14226e-13
4.1347e-13
4.12842e-13
4.1236e-13
4.12084e-13
4.12015e-13
4.12209e-13
4.12623e-13
4.13347e-13
4.14302e-13
4.15595e-13
4.17113e-13
4.18944e-13
4.21014e-13
4.23417e-13
4.26042e-13
4.28876e-13
4.31936e-13
4.35277e-13
4.38739e-13
4.42428e-13
4.46213e-13
4.50149e-13
4.54127e-13
4.58184e-13
4.62297e-13
4.66471e-13
4.70754e-13
4.74983e-13
4.79265e-13
4.83494e-13
4.87651e-13
4.91815e-13
4.95832e-13
4.99864e-13
5.03824e-13
5.07746e-13
5.11645e-13
5.15401e-13
5.19118e-13
5.22771e-13
5.26294e-13
5.2966e-13
5.32999e-13
5.36255e-13
5.39425e-13
5.4247e-13
5.45424e-13
5.483e-13
5.51067e-13
5.53749e-13
5.56372e-13
5.58937e-13
5.61412e-13
5.63808e-13
5.66151e-13
5.68467e-13
5.70753e-13
5.73041e-13
5.75191e-13
5.77246e-13
5.79186e-13
5.81034e-13
5.82853e-13
5.8466e-13
5.86418e-13
5.88136e-13
5.89786e-13
5.91383e-13
5.92914e-13
5.9441e-13
5.95837e-13
5.97215e-13
5.98531e-13
5.99766e-13
6.00955e-13
6.02066e-13
6.03156e-13
6.04276e-13
6.0542e-13
6.06647e-13
6.07935e-13
6.09531e-13
6.1009e-13
6.10893e-13
6.11815e-13
6.12515e-13
6.13127e-13
6.13781e-13
6.14459e-13
6.15141e-13
6.15835e-13
6.1654e-13
6.17246e-13
6.17954e-13
6.18664e-13
6.19372e-13
6.20092e-13
6.20779e-13
6.21424e-13
6.22045e-13
6.22635e-13
6.23206e-13
6.23744e-13
6.24254e-13
6.24731e-13
6.25191e-13
6.25599e-13
6.25978e-13
6.26332e-13
6.26684e-13
6.27027e-13
6.27374e-13
6.2769e-13
6.27998e-13
6.28294e-13
6.28595e-13
6.28904e-13
6.29233e-13
6.2958e-13
6.29944e-13
6.30324e-13
6.30714e-13
6.31125e-13
6.31415e-13
6.31697e-13
6.31989e-13
6.32193e-13
6.32409e-13
6.32523e-13
6.32644e-13
6.32728e-13
6.32812e-13
6.32899e-13
6.32993e-13
6.331e-13
6.33226e-13
6.33365e-13
6.33524e-13
6.3369e-13
6.33879e-13
6.3407e-13
6.34232e-13
6.34349e-13
6.34479e-13
6.34513e-13
6.34532e-13
6.34524e-13
6.34496e-13
6.34448e-13
6.34392e-13
6.34336e-13
6.34295e-13
6.34287e-13
6.34272e-13
6.34303e-13
6.3433e-13
6.34383e-13
6.34414e-13
6.3443e-13
6.34417e-13
6.34388e-13
6.34336e-13
6.34257e-13
6.34143e-13
6.34005e-13
6.33858e-13
6.33707e-13
6.33568e-13
6.33422e-13
6.33263e-13
6.3322e-13
6.33159e-13
6.33087e-13
6.33029e-13
6.32957e-13
6.3287e-13
6.32763e-13
6.32634e-13
6.32483e-13
6.32313e-13
6.32127e-13
6.31918e-13
6.31706e-13
6.31487e-13
6.31269e-13
6.31107e-13
6.30941e-13
6.30766e-13
6.3064e-13
6.30501e-13
6.30354e-13
6.30198e-13
6.30028e-13
6.29842e-13
6.2964e-13
6.29421e-13
6.29188e-13
6.28941e-13
6.2869e-13
6.28434e-13
6.28079e-13
4.0622e-13
4.05882e-13
4.05543e-13
4.05619e-13
4.0588e-13
4.07412e-13
4.10757e-13
4.14315e-13
4.16813e-13
4.18376e-13
4.19339e-13
4.19916e-13
4.20351e-13
4.20746e-13
4.21083e-13
4.2151e-13
4.21888e-13
4.22239e-13
4.22547e-13
4.22803e-13
4.22936e-13
4.23034e-13
4.23068e-13
4.23011e-13
4.22853e-13
4.22576e-13
4.22187e-13
4.21678e-13
4.21061e-13
4.20334e-13
4.1953e-13
4.18653e-13
4.17745e-13
4.16801e-13
4.1587e-13
4.14996e-13
4.14223e-13
4.13546e-13
4.13002e-13
4.12653e-13
4.12507e-13
4.12581e-13
4.12913e-13
4.1351e-13
4.14451e-13
4.15675e-13
4.17301e-13
4.19234e-13
4.21597e-13
4.2426e-13
4.2728e-13
4.30599e-13
4.34303e-13
4.38251e-13
4.42473e-13
4.4681e-13
4.51525e-13
4.56302e-13
4.61306e-13
4.66405e-13
4.71518e-13
4.76694e-13
4.81765e-13
4.86884e-13
4.91952e-13
4.97168e-13
5.02157e-13
5.07174e-13
5.12023e-13
5.1672e-13
5.21381e-13
5.25751e-13
5.30132e-13
5.34334e-13
5.38464e-13
5.42512e-13
5.46329e-13
5.50076e-13
5.53714e-13
5.57163e-13
5.60382e-13
5.63585e-13
5.66673e-13
5.69672e-13
5.72508e-13
5.75264e-13
5.77918e-13
5.80466e-13
5.82912e-13
5.85307e-13
5.87629e-13
5.89864e-13
5.91997e-13
5.94086e-13
5.96132e-13
5.98163e-13
6.00195e-13
6.02078e-13
6.03895e-13
6.05596e-13
6.07209e-13
6.08791e-13
6.10355e-13
6.11869e-13
6.13353e-13
6.14772e-13
6.16151e-13
6.17467e-13
6.18757e-13
6.19971e-13
6.21151e-13
6.22265e-13
6.23315e-13
6.24322e-13
6.25259e-13
6.26196e-13
6.27155e-13
6.28124e-13
6.29194e-13
6.30296e-13
6.3163e-13
6.32154e-13
6.32794e-13
6.33477e-13
6.34143e-13
6.34629e-13
6.35162e-13
6.35728e-13
6.36292e-13
6.36873e-13
6.37461e-13
6.38059e-13
6.38661e-13
6.39267e-13
6.39871e-13
6.4049e-13
6.41068e-13
6.41622e-13
6.42156e-13
6.42658e-13
6.43143e-13
6.43599e-13
6.44031e-13
6.4443e-13
6.44819e-13
6.45156e-13
6.4547e-13
6.45762e-13
6.4605e-13
6.46333e-13
6.46617e-13
6.46872e-13
6.47121e-13
6.47364e-13
6.47612e-13
6.47869e-13
6.48145e-13
6.48442e-13
6.4875e-13
6.49079e-13
6.49416e-13
6.49774e-13
6.50026e-13
6.50259e-13
6.505e-13
6.50666e-13
6.50845e-13
6.50924e-13
6.5101e-13
6.51064e-13
6.51116e-13
6.51173e-13
6.51237e-13
6.51313e-13
6.5141e-13
6.5152e-13
6.51652e-13
6.51787e-13
6.51946e-13
6.52108e-13
6.52242e-13
6.52334e-13
6.52432e-13
6.5245e-13
6.52444e-13
6.52417e-13
6.52369e-13
6.52301e-13
6.52227e-13
6.52153e-13
6.52092e-13
6.52065e-13
6.52021e-13
6.52045e-13
6.52044e-13
6.5208e-13
6.5209e-13
6.52085e-13
6.52056e-13
6.52008e-13
6.51937e-13
6.51841e-13
6.51709e-13
6.51553e-13
6.5139e-13
6.51222e-13
6.51067e-13
6.50903e-13
6.50735e-13
6.50663e-13
6.50584e-13
6.50496e-13
6.50417e-13
6.50325e-13
6.50219e-13
6.50092e-13
6.49945e-13
6.49776e-13
6.49586e-13
6.49382e-13
6.49155e-13
6.48924e-13
6.48685e-13
6.48451e-13
6.48267e-13
6.48081e-13
6.47888e-13
6.47739e-13
6.47579e-13
6.4741e-13
6.47233e-13
6.4704e-13
6.46833e-13
6.4661e-13
6.46369e-13
6.46114e-13
6.45846e-13
6.45572e-13
6.45294e-13
6.44906e-13
4.06189e-13
4.05819e-13
4.05512e-13
4.05967e-13
4.07035e-13
4.09819e-13
4.13435e-13
4.16074e-13
4.17705e-13
4.18637e-13
4.19171e-13
4.19505e-13
4.19713e-13
4.19907e-13
4.20085e-13
4.20321e-13
4.20537e-13
4.20739e-13
4.20911e-13
4.21042e-13
4.21072e-13
4.21066e-13
4.21007e-13
4.20863e-13
4.2063e-13
4.20293e-13
4.19862e-13
4.19328e-13
4.1871e-13
4.18007e-13
4.17257e-13
4.16474e-13
4.15699e-13
4.1494e-13
4.14241e-13
4.13647e-13
4.13231e-13
4.12984e-13
4.12955e-13
4.13209e-13
4.13756e-13
4.14635e-13
4.15868e-13
4.17458e-13
4.19534e-13
4.22024e-13
4.25044e-13
4.28513e-13
4.3254e-13
4.36996e-13
4.41865e-13
4.47058e-13
4.52752e-13
4.58637e-13
4.65039e-13
4.70974e-13
4.77579e-13
4.84363e-13
4.91042e-13
4.98058e-13
5.04642e-13
5.11534e-13
5.17789e-13
5.24244e-13
5.30347e-13
5.36734e-13
5.4259e-13
5.48436e-13
5.53903e-13
5.59063e-13
5.64091e-13
5.68598e-13
5.73122e-13
5.77274e-13
5.81345e-13
5.85211e-13
5.88756e-13
5.92175e-13
5.95434e-13
5.98417e-13
6.01096e-13
6.03767e-13
6.06325e-13
6.08794e-13
6.1107e-13
6.13287e-13
6.15375e-13
6.17369e-13
6.19252e-13
6.21089e-13
6.22849e-13
6.24548e-13
6.2616e-13
6.27749e-13
6.2928e-13
6.30838e-13
6.32394e-13
6.33813e-13
6.35191e-13
6.36458e-13
6.37655e-13
6.38833e-13
6.39994e-13
6.4111e-13
6.42217e-13
6.43267e-13
6.44294e-13
6.45262e-13
6.46217e-13
6.47091e-13
6.47954e-13
6.48749e-13
6.49505e-13
6.50222e-13
6.50891e-13
6.5157e-13
6.52274e-13
6.52959e-13
6.53768e-13
6.54589e-13
6.55548e-13
6.56007e-13
6.56352e-13
6.56754e-13
6.5724e-13
6.57568e-13
6.57911e-13
6.58296e-13
6.5867e-13
6.59072e-13
6.59468e-13
6.59892e-13
6.60318e-13
6.60755e-13
6.6119e-13
6.61643e-13
6.62051e-13
6.62455e-13
6.62844e-13
6.63202e-13
6.63547e-13
6.63866e-13
6.64168e-13
6.64437e-13
6.64703e-13
6.64921e-13
6.65124e-13
6.65308e-13
6.65487e-13
6.65665e-13
6.65844e-13
6.65995e-13
6.66143e-13
6.66296e-13
6.66449e-13
6.6662e-13
6.66803e-13
6.6702e-13
6.67227e-13
6.67469e-13
6.67716e-13
6.67981e-13
6.68161e-13
6.68313e-13
6.68471e-13
6.68568e-13
6.68673e-13
6.68693e-13
6.68716e-13
6.6871e-13
6.68705e-13
6.68705e-13
6.68709e-13
6.68727e-13
6.68775e-13
6.68819e-13
6.68907e-13
6.68977e-13
6.69083e-13
6.69191e-13
6.69271e-13
6.69313e-13
6.69357e-13
6.69338e-13
6.69292e-13
6.69223e-13
6.69134e-13
6.69028e-13
6.68916e-13
6.68805e-13
6.68707e-13
6.68642e-13
6.68551e-13
6.6855e-13
6.68505e-13
6.68507e-13
6.68481e-13
6.6844e-13
6.68376e-13
6.68295e-13
6.68191e-13
6.68065e-13
6.67903e-13
6.67717e-13
6.67525e-13
6.67329e-13
6.67147e-13
6.66955e-13
6.66769e-13
6.66651e-13
6.66547e-13
6.66434e-13
6.66323e-13
6.66202e-13
6.66066e-13
6.65912e-13
6.65737e-13
6.65542e-13
6.65326e-13
6.65096e-13
6.64844e-13
6.64588e-13
6.64323e-13
6.64067e-13
6.63852e-13
6.63642e-13
6.63425e-13
6.63247e-13
6.6306e-13
6.62865e-13
6.62661e-13
6.62442e-13
6.62209e-13
6.6196e-13
6.61693e-13
6.61412e-13
6.61119e-13
6.60821e-13
6.60517e-13
6.60092e-13
4.06112e-13
4.05938e-13
4.05819e-13
4.06805e-13
4.08885e-13
4.12287e-13
4.15133e-13
4.1696e-13
4.17993e-13
4.1852e-13
4.18811e-13
4.1896e-13
4.19011e-13
4.19066e-13
4.19121e-13
4.19221e-13
4.19315e-13
4.19397e-13
4.19456e-13
4.19482e-13
4.19429e-13
4.19335e-13
4.192e-13
4.18989e-13
4.18705e-13
4.18332e-13
4.17886e-13
4.17359e-13
4.16779e-13
4.16148e-13
4.1551e-13
4.14885e-13
4.14331e-13
4.13852e-13
4.13508e-13
4.13339e-13
4.13475e-13
4.13872e-13
4.14645e-13
4.15853e-13
4.17516e-13
4.19712e-13
4.22383e-13
4.25574e-13
4.29428e-13
4.33931e-13
4.39111e-13
4.44904e-13
4.51425e-13
4.58499e-13
4.66214e-13
4.73913e-13
4.82414e-13
4.90927e-13
5.00427e-13
5.08315e-13
5.17327e-13
5.2706e-13
5.35711e-13
5.45268e-13
5.53641e-13
5.62737e-13
5.7034e-13
5.78443e-13
5.85679e-13
5.93348e-13
6.00146e-13
6.06823e-13
6.12826e-13
6.18374e-13
6.23595e-13
6.28057e-13
6.32473e-13
6.36254e-13
6.39962e-13
6.43239e-13
6.46169e-13
6.48811e-13
6.51302e-13
6.53324e-13
6.5513e-13
6.56765e-13
6.58431e-13
6.59746e-13
6.61061e-13
6.62143e-13
6.63252e-13
6.64135e-13
6.65064e-13
6.65831e-13
6.66647e-13
6.6733e-13
6.68092e-13
6.68762e-13
6.69472e-13
6.70202e-13
6.70979e-13
6.71581e-13
6.72239e-13
6.72815e-13
6.7338e-13
6.73938e-13
6.74506e-13
6.75024e-13
6.75574e-13
6.76077e-13
6.7658e-13
6.77037e-13
6.77508e-13
6.77901e-13
6.78318e-13
6.78661e-13
6.79002e-13
6.7931e-13
6.79594e-13
6.79903e-13
6.80253e-13
6.80549e-13
6.81006e-13
6.81404e-13
6.819e-13
6.82172e-13
6.82165e-13
6.82246e-13
6.82414e-13
6.82518e-13
6.8261e-13
6.82743e-13
6.82861e-13
6.83006e-13
6.83141e-13
6.83319e-13
6.835e-13
6.83706e-13
6.83902e-13
6.84127e-13
6.84302e-13
6.84494e-13
6.8468e-13
6.84838e-13
6.84989e-13
6.85117e-13
6.85236e-13
6.85326e-13
6.85417e-13
6.85471e-13
6.85516e-13
6.85545e-13
6.85578e-13
6.85598e-13
6.85637e-13
6.85633e-13
6.85648e-13
6.85661e-13
6.85689e-13
6.85732e-13
6.85786e-13
6.85892e-13
6.85946e-13
6.86076e-13
6.86187e-13
6.8632e-13
6.864e-13
6.8644e-13
6.86482e-13
6.86478e-13
6.86473e-13
6.86414e-13
6.8634e-13
6.86251e-13
6.8616e-13
6.86072e-13
6.85991e-13
6.85924e-13
6.859e-13
6.85843e-13
6.85871e-13
6.85843e-13
6.85877e-13
6.85901e-13
6.85899e-13
6.8587e-13
6.85841e-13
6.85763e-13
6.85653e-13
6.85521e-13
6.8537e-13
6.85207e-13
6.85039e-13
6.84873e-13
6.8472e-13
6.84597e-13
6.84449e-13
6.84392e-13
6.84298e-13
6.84239e-13
6.84161e-13
6.84068e-13
6.83953e-13
6.83822e-13
6.8367e-13
6.83499e-13
6.83295e-13
6.83065e-13
6.82832e-13
6.82594e-13
6.82374e-13
6.82143e-13
6.81927e-13
6.81746e-13
6.81608e-13
6.81458e-13
6.81305e-13
6.81143e-13
6.80968e-13
6.80776e-13
6.80564e-13
6.80332e-13
6.80081e-13
6.79817e-13
6.79532e-13
6.79243e-13
6.78945e-13
6.78659e-13
6.78404e-13
6.78164e-13
6.77917e-13
6.77701e-13
6.77481e-13
6.77252e-13
6.77016e-13
6.76764e-13
6.76499e-13
6.76219e-13
6.75922e-13
6.7561e-13
6.75287e-13
6.74958e-13
6.74625e-13
6.74157e-13
4.06051e-13
4.06281e-13
4.06456e-13
4.08101e-13
4.10965e-13
4.1397e-13
4.1608e-13
4.17319e-13
4.17925e-13
4.18233e-13
4.18352e-13
4.1837e-13
4.18312e-13
4.18271e-13
4.18241e-13
4.18235e-13
4.1823e-13
4.18218e-13
4.18187e-13
4.18129e-13
4.1801e-13
4.17852e-13
4.17661e-13
4.17409e-13
4.17101e-13
4.16724e-13
4.16299e-13
4.15826e-13
4.1534e-13
4.14848e-13
4.14407e-13
4.14036e-13
4.13829e-13
4.13787e-13
4.14027e-13
4.14561e-13
4.15603e-13
4.1708e-13
4.19214e-13
4.21989e-13
4.25448e-13
4.29715e-13
4.34481e-13
4.40111e-13
4.46621e-13
4.54089e-13
4.62449e-13
4.71367e-13
4.81331e-13
4.91837e-13
5.03601e-13
5.14254e-13
5.26302e-13
5.37914e-13
5.51324e-13
5.6168e-13
5.73466e-13
5.86859e-13
5.97913e-13
6.10537e-13
6.20682e-13
6.32137e-13
6.41016e-13
6.50661e-13
6.58893e-13
6.67484e-13
6.75038e-13
6.82112e-13
6.88304e-13
6.93817e-13
6.98653e-13
7.0285e-13
7.06517e-13
7.09797e-13
7.12671e-13
7.15091e-13
7.17211e-13
7.18611e-13
7.20404e-13
7.20946e-13
7.21922e-13
7.22011e-13
7.22885e-13
7.22437e-13
7.22863e-13
7.22183e-13
7.22317e-13
7.21486e-13
7.21425e-13
7.20601e-13
7.20319e-13
7.19481e-13
7.19173e-13
7.18379e-13
7.181e-13
7.17451e-13
7.17089e-13
7.16446e-13
7.16105e-13
7.15629e-13
7.15325e-13
7.14974e-13
7.14713e-13
7.14358e-13
7.14109e-13
7.13836e-13
7.13623e-13
7.1339e-13
7.132e-13
7.1295e-13
7.12758e-13
7.12505e-13
7.1228e-13
7.12051e-13
7.11781e-13
7.11652e-13
7.11531e-13
7.1136e-13
7.11317e-13
7.11118e-13
7.11138e-13
7.10993e-13
7.10663e-13
7.10305e-13
7.10096e-13
7.09869e-13
7.09667e-13
7.09447e-13
7.09258e-13
7.09043e-13
7.08866e-13
7.08707e-13
7.08597e-13
7.08493e-13
7.08385e-13
7.08313e-13
7.0819e-13
7.08117e-13
7.08038e-13
7.0794e-13
7.07841e-13
7.07726e-13
7.07607e-13
7.07473e-13
7.07333e-13
7.07176e-13
7.0702e-13
7.06849e-13
7.06692e-13
7.06511e-13
7.06356e-13
7.06165e-13
7.06009e-13
7.05841e-13
7.05708e-13
7.05578e-13
7.05477e-13
7.05419e-13
7.0529e-13
7.05271e-13
7.05197e-13
7.0518e-13
7.05115e-13
7.05014e-13
7.04906e-13
7.04773e-13
7.04633e-13
7.04456e-13
7.04263e-13
7.04059e-13
7.03854e-13
7.03653e-13
7.03463e-13
7.03285e-13
7.03152e-13
7.02982e-13
7.02907e-13
7.02777e-13
7.02702e-13
7.02614e-13
7.02515e-13
7.02386e-13
7.02263e-13
7.02101e-13
7.01907e-13
7.01689e-13
7.01457e-13
7.01218e-13
7.00976e-13
7.00737e-13
7.00509e-13
7.00313e-13
7.00091e-13
6.99955e-13
6.99794e-13
6.99658e-13
6.99507e-13
6.99344e-13
6.99163e-13
6.98966e-13
6.9875e-13
6.98519e-13
6.98258e-13
6.97973e-13
6.97684e-13
6.97392e-13
6.97121e-13
6.96839e-13
6.96578e-13
6.96323e-13
6.96137e-13
6.95938e-13
6.95732e-13
6.95517e-13
6.95291e-13
6.9505e-13
6.9479e-13
6.94513e-13
6.94217e-13
6.93908e-13
6.93581e-13
6.93252e-13
6.92913e-13
6.92588e-13
6.92281e-13
6.92006e-13
6.91722e-13
6.91456e-13
6.91196e-13
6.90927e-13
6.90651e-13
6.90359e-13
6.90056e-13
6.89737e-13
6.89403e-13
6.89055e-13
6.88696e-13
6.88333e-13
6.87964e-13
6.87445e-13
4.06012e-13
4.06722e-13
4.07356e-13
4.09622e-13
4.12586e-13
4.14988e-13
4.16519e-13
4.17309e-13
4.17709e-13
4.17856e-13
4.17866e-13
4.17781e-13
4.17658e-13
4.1755e-13
4.17453e-13
4.1737e-13
4.1729e-13
4.17206e-13
4.17107e-13
4.16987e-13
4.16823e-13
4.16626e-13
4.16407e-13
4.16143e-13
4.15846e-13
4.15508e-13
4.15156e-13
4.148e-13
4.14488e-13
4.1423e-13
4.14113e-13
4.14167e-13
4.14551e-13
4.15256e-13
4.16504e-13
4.18253e-13
4.20781e-13
4.24019e-13
4.28287e-13
4.33465e-13
4.39515e-13
4.46741e-13
4.54279e-13
4.63412e-13
4.73699e-13
4.84926e-13
4.97667e-13
5.10277e-13
5.24673e-13
5.39205e-13
5.5626e-13
5.70104e-13
5.8657e-13
6.01441e-13
6.18639e-13
6.32571e-13
6.46629e-13
6.62991e-13
6.76146e-13
6.91143e-13
7.02548e-13
7.15357e-13
7.25153e-13
7.35102e-13
7.43876e-13
7.52135e-13
7.59879e-13
7.66098e-13
7.7195e-13
7.76383e-13
7.80361e-13
7.83826e-13
7.85929e-13
7.88963e-13
7.90124e-13
7.91949e-13
7.92868e-13
7.92878e-13
7.94255e-13
7.92964e-13
7.93612e-13
7.92085e-13
7.92203e-13
7.90362e-13
7.90029e-13
7.87983e-13
7.87214e-13
7.85135e-13
7.84063e-13
7.82048e-13
7.80616e-13
7.78628e-13
7.77157e-13
7.75223e-13
7.73773e-13
7.71907e-13
7.70236e-13
7.68367e-13
7.66826e-13
7.65174e-13
7.63756e-13
7.62299e-13
7.60945e-13
7.5951e-13
7.58211e-13
7.56933e-13
7.55783e-13
7.54655e-13
7.53601e-13
7.52519e-13
7.51538e-13
7.50535e-13
7.49605e-13
7.48689e-13
7.47793e-13
7.47071e-13
7.46344e-13
7.45632e-13
7.4492e-13
7.44105e-13
7.43461e-13
7.4282e-13
7.42033e-13
7.41186e-13
7.40529e-13
7.39892e-13
7.39288e-13
7.38664e-13
7.38075e-13
7.37451e-13
7.36882e-13
7.36319e-13
7.3584e-13
7.35358e-13
7.34884e-13
7.34441e-13
7.33966e-13
7.33565e-13
7.3316e-13
7.32749e-13
7.32344e-13
7.31934e-13
7.31526e-13
7.31112e-13
7.30699e-13
7.30279e-13
7.29877e-13
7.29464e-13
7.29068e-13
7.28652e-13
7.28256e-13
7.27835e-13
7.27467e-13
7.27089e-13
7.26749e-13
7.26415e-13
7.26115e-13
7.25843e-13
7.2552e-13
7.25291e-13
7.25022e-13
7.24801e-13
7.24555e-13
7.24279e-13
7.23996e-13
7.23697e-13
7.23398e-13
7.23071e-13
7.22732e-13
7.22386e-13
7.22042e-13
7.217e-13
7.21378e-13
7.21065e-13
7.20794e-13
7.20492e-13
7.20277e-13
7.20028e-13
7.19812e-13
7.19592e-13
7.19368e-13
7.1912e-13
7.18877e-13
7.18607e-13
7.18309e-13
7.17987e-13
7.17654e-13
7.17319e-13
7.16984e-13
7.16654e-13
7.16336e-13
7.16046e-13
7.15732e-13
7.15502e-13
7.15252e-13
7.15021e-13
7.1478e-13
7.14529e-13
7.14264e-13
7.13986e-13
7.1369e-13
7.13384e-13
7.13052e-13
7.12698e-13
7.12341e-13
7.1198e-13
7.11646e-13
7.11299e-13
7.10979e-13
7.10639e-13
7.10392e-13
7.10129e-13
7.09858e-13
7.09579e-13
7.0929e-13
7.08988e-13
7.0867e-13
7.08335e-13
7.07984e-13
7.07621e-13
7.07244e-13
7.06865e-13
7.06478e-13
7.06103e-13
7.05736e-13
7.05415e-13
7.05085e-13
7.04761e-13
7.04454e-13
7.04137e-13
7.03811e-13
7.03473e-13
7.03123e-13
7.02759e-13
7.02381e-13
7.0199e-13
7.01589e-13
7.01185e-13
7.00775e-13
7.00197e-13
4.0608e-13
4.07236e-13
4.08383e-13
4.11058e-13
4.13644e-13
4.1552e-13
4.16599e-13
4.17172e-13
4.17405e-13
4.17454e-13
4.17379e-13
4.17231e-13
4.17065e-13
4.16911e-13
4.16766e-13
4.16631e-13
4.16498e-13
4.16363e-13
4.1622e-13
4.16062e-13
4.15875e-13
4.15668e-13
4.15452e-13
4.15215e-13
4.14973e-13
4.14729e-13
4.14524e-13
4.14372e-13
4.14354e-13
4.14496e-13
4.14962e-13
4.15767e-13
4.17184e-13
4.19158e-13
4.22035e-13
4.2572e-13
4.30473e-13
4.36333e-13
4.43634e-13
4.52242e-13
4.61422e-13
4.72451e-13
4.84002e-13
4.97504e-13
5.12776e-13
5.28244e-13