/*--------------------------------*- C++ -*----------------------------------*\
| =========                 |                                                 |
| \\      /  F ield         | OpenFOAM: The Open Source CFD Toolbox           |
|  \\    /   O peration     | Version:  2312                                  |
|   \\  /    A nd           | Website:  www.openfoam.com                      |
|    \\/     M anipulation  |                                                 |
\*---------------------------------------------------------------------------*/
FoamFile
{
    version     2.0;
    format      ascii;
    arch        "LSB;label=32;scalar=64";
    class       volScalarField;
    location    "0.005";
    object      thermo:psiGasEff;
}
// * * * * * * * * * * * * * * * * * * * * * * * * * * * * * * * * * * * * * //

dimensions      [-2 4 2 0 0 0 0];

internalField   nonuniform List<scalar> 
48128
(
0.00834122
0.00834121
0.00838812
0.0084429
0.00844846
0.00846666
0.00848062
0.00850342
0.00853661
0.00858398
0.00857632
0.00860624
0.00860261
0.00866817
0.0087903
0.00892787
0.00903086
0.00910806
0.00915575
0.00917259
0.00915858
0.00911831
0.00905234
0.00895978
0.0088401
0.00869403
0.00852124
0.00831368
0.00808357
0.00782961
0.00755568
0.00726357
0.00695789
0.00664014
0.0063179
0.00599096
0.00566422
0.00533929
0.00502478
0.0047146
0.00441571
0.00413013
0.003858
0.00359963
0.00335926
0.00312932
0.0029204
0.00271889
0.00253741
0.00236417
0.002209
0.00206084
0.00192817
0.00180326
0.00169148
0.00158668
0.00149184
0.00140555
0.00132644
0.00125476
0.00118934
0.00112995
0.00107579
0.00102642
0.000981418
0.000940393
0.000903081
0.000868978
0.000837661
0.000809599
0.000783455
0.000760247
0.000738562
0.000718896
0.000701283
0.000684793
0.000670523
0.000656701
0.000644809
0.000633247
0.000623184
0.0006132
0.00060479
0.000596568
0.000589515
0.000582599
0.000576552
0.000570574
0.000565345
0.000560202
0.000555756
0.000551346
0.00054752
0.000543811
0.00054077
0.000538123
0.000536077
0.000534056
0.00053193
0.000529675
0.000527414
0.000525191
0.000523398
0.000521825
0.000520403
0.000519016
0.000517636
0.000516271
0.000514933
0.0005136
0.000512236
0.000510786
0.000509223
0.000507564
0.000505825
0.0005041
0.000502416
0.000501592
0.00050118
0.000501657
0.000502571
0.000499271
0.000498649
0.00049824
0.000495948
0.000494062
0.000492258
0.000490444
0.000488918
0.000487624
0.000486585
0.000485698
0.000484893
0.000484298
0.00048381
0.000483557
0.000483269
0.000482913
0.000482511
0.000482088
0.000481643
0.000481151
0.000480611
0.000480033
0.00047936
0.000478602
0.0004778
0.000476942
0.000476188
0.000475421
0.000474773
0.000474107
0.000473421
0.00047275
0.000472112
0.000471654
0.000471264
0.000471254
0.000471402
0.000471646
0.000472044
0.00047255
0.000472561
0.000472732
0.000472757
0.000472613
0.000472343
0.000471888
0.00047136
0.000470751
0.000470163
0.000469587
0.000469125
0.000468702
0.000468499
0.000468447
0.000468563
0.000468751
0.000469116
0.000469538
0.000469849
0.000470081
0.000470241
0.000470146
0.000469952
0.000469701
0.000469344
0.000468895
0.000468416
0.000467979
0.00046764
0.000467523
0.000467445
0.000467599
0.000467808
0.000468155
0.000468476
0.000468773
0.000469023
0.000469132
0.000469153
0.000469074
0.000468847
0.000468524
0.00046818
0.000467805
0.000467533
0.000467274
0.000467075
0.000467335
0.000467499
0.000467726
0.000468057
0.000468358
0.000468622
0.000468833
0.000468893
0.000468882
0.0004688
0.000468647
0.000468399
0.000468153
0.000467865
0.000467634
0.000467695
0.000467707
0.000467838
0.000468085
0.000468315
0.000468555
0.000468789
0.000469007
0.000469104
0.000469136
0.000469106
0.000469012
0.000468859
0.000468689
0.000468466
0.000468366
0.00838257
0.00836354
0.00839353
0.00843462
0.00843209
0.00844339
0.00845124
0.00846678
0.00847435
0.0084706
0.00842697
0.00843727
0.00846381
0.00854119
0.00864044
0.00870499
0.0087945
0.00886947
0.00892034
0.00894269
0.00893685
0.00890652
0.00885276
0.00877438
0.0086706
0.0085403
0.00838199
0.00820445
0.0079966
0.00776149
0.00750629
0.00722845
0.00693777
0.00663269
0.00632167
0.00600461
0.00568743
0.00536931
0.00505902
0.00475286
0.00445706
0.00417265
0.00390124
0.00364243
0.00340032
0.00316858
0.00295701
0.00275316
0.00256872
0.00239253
0.00223376
0.00208252
0.00194639
0.00181843
0.00170314
0.00159499
0.00149676
0.00140727
0.00132558
0.00125143
0.00118371
0.00112212
0.00106588
0.0010146
0.000967845
0.000925237
0.000886408
0.000850893
0.000818419
0.000789241
0.00076201
0.000737655
0.000715028
0.000694475
0.000676016
0.000658778
0.000643681
0.000629161
0.000616578
0.000604345
0.000593608
0.000583029
0.000574025
0.000565246
0.000557631
0.000550177
0.000543612
0.000537129
0.000531412
0.0005258
0.00052089
0.000516027
0.000511746
0.000507594
0.000504094
0.000500991
0.000498457
0.000495943
0.000493344
0.000490637
0.000487945
0.000485322
0.000483123
0.000481136
0.000479297
0.0004775
0.000475718
0.000473964
0.00047225
0.000470551
0.00046884
0.000467062
0.000465198
0.000463261
0.000461265
0.000459299
0.000457396
0.000456272
0.000455546
0.000455566
0.000456037
0.000452718
0.000451688
0.000450954
0.00044866
0.000446596
0.000444689
0.00044281
0.000441185
0.000439771
0.000438593
0.000437556
0.000436597
0.000435826
0.000435152
0.000434689
0.000434191
0.000433637
0.000433041
0.000432437
0.000431818
0.000431166
0.000430478
0.000429762
0.000428982
0.000428124
0.000427203
0.000426246
0.000425373
0.000424497
0.000423722
0.000422938
0.000422143
0.000421363
0.000420622
0.000420039
0.000419526
0.000419354
0.000419314
0.000419366
0.000419558
0.000419817
0.000419664
0.000419666
0.000419514
0.000419252
0.000418856
0.000418328
0.000417734
0.00041707
0.000416443
0.000415824
0.000415327
0.000414854
0.000414603
0.000414481
0.00041451
0.00041461
0.000414867
0.000415154
0.000415355
0.000415489
0.000415554
0.000415395
0.000415164
0.000414879
0.000414509
0.000414064
0.000413595
0.000413174
0.000412844
0.000412721
0.000412627
0.000412737
0.000412906
0.000413189
0.000413456
0.000413694
0.000413892
0.000413962
0.000413958
0.000413867
0.000413648
0.000413349
0.00041304
0.00041271
0.000412473
0.000412259
0.0004121
0.00041234
0.000412498
0.000412708
0.000413006
0.000413278
0.000413517
0.000413708
0.000413765
0.000413763
0.0004137
0.000413578
0.000413372
0.000413182
0.000412951
0.000412784
0.000412871
0.000412914
0.000413063
0.000413309
0.000413541
0.000413779
0.00041401
0.000414228
0.000414338
0.000414392
0.000414393
0.00041434
0.000414239
0.000414125
0.00041397
0.000413951
0.00836961
0.00836252
0.00839094
0.00843431
0.00843297
0.00845051
0.00846495
0.00846962
0.00845941
0.0084112
0.0084146
0.00844978
0.00848562
0.00852776
0.00865015
0.00879207
0.00889174
0.00895894
0.00900318
0.00902169
0.00901434
0.0089847
0.00893232
0.00885548
0.0087524
0.0086228
0.00846525
0.00828208
0.00807234
0.00783739
0.00758297
0.00730594
0.00701534
0.00670892
0.00639595
0.00607624
0.00575659
0.00543535
0.0051216
0.00481199
0.00451124
0.00422171
0.00394523
0.00368096
0.00343371
0.00319671
0.00298043
0.00277198
0.00258347
0.00240333
0.00224101
0.00208628
0.00194719
0.00181636
0.00169866
0.00158876
0.00148964
0.00139897
0.00131564
0.00123998
0.00117092
0.00110811
0.00105078
0.00099854
0.000950965
0.000907687
0.000868271
0.000832274
0.000799328
0.000769704
0.000742156
0.000717546
0.000694664
0.000673978
0.000655355
0.000638037
0.000622821
0.000608219
0.000595593
0.000583305
0.000572493
0.000561853
0.000552844
0.00054407
0.000536476
0.000529028
0.000522486
0.000516009
0.000510306
0.000504707
0.000499813
0.000494955
0.000490676
0.00048652
0.000483012
0.000479908
0.000477354
0.000474811
0.000472187
0.000469459
0.000466743
0.000464106
0.000461889
0.000459871
0.000457997
0.000456164
0.000454347
0.00045256
0.000450809
0.000449076
0.00044733
0.000445522
0.000443632
0.000441674
0.000439662
0.000437676
0.000435777
0.000434605
0.00043384
0.0004337
0.000434073
0.000431018
0.000429751
0.000428863
0.00042672
0.000424597
0.000422656
0.0004208
0.000419177
0.000417744
0.000416539
0.000415474
0.000414491
0.000413686
0.000412974
0.000412459
0.000411913
0.000411312
0.000410673
0.000410024
0.000409362
0.000408668
0.00040794
0.000407186
0.000406374
0.000405492
0.000404554
0.000403586
0.000402694
0.000401803
0.000401008
0.000400203
0.000399389
0.000398592
0.000397835
0.000397228
0.000396691
0.000396474
0.000396379
0.000396374
0.000396496
0.000396687
0.000396499
0.00039643
0.000396224
0.000395923
0.000395491
0.00039494
0.00039432
0.000393648
0.000393006
0.000392374
0.000391865
0.000391375
0.000391102
0.000390949
0.00039094
0.000391001
0.000391208
0.000391451
0.000391604
0.000391693
0.000391711
0.000391533
0.000391293
0.000390991
0.000390612
0.000390165
0.000389695
0.000389277
0.000388945
0.000388814
0.000388705
0.000388796
0.000388947
0.000389202
0.000389438
0.000389648
0.000389822
0.000389875
0.000389858
0.000389758
0.000389542
0.000389249
0.000388948
0.000388631
0.000388399
0.000388202
0.00038805
0.000388269
0.000388432
0.000388633
0.000388912
0.000389173
0.000389399
0.000389579
0.000389633
0.000389632
0.000389574
0.000389461
0.000389271
0.000389096
0.000388889
0.000388737
0.000388829
0.000388887
0.000389039
0.000389283
0.000389516
0.000389752
0.000389981
0.000390197
0.00039031
0.000390373
0.000390385
0.000390347
0.000390264
0.00039017
0.000390043
0.000390051
0.00837092
0.00837763
0.00839491
0.00844115
0.00844126
0.00846148
0.00845937
0.00841929
0.00837594
0.00838099
0.00841437
0.00846306
0.00853301
0.00865046
0.00874908
0.00885192
0.00893824
0.0090031
0.00904694
0.00906746
0.00906255
0.0090363
0.0089876
0.00891388
0.00881439
0.00868895
0.00853637
0.00835699
0.00815089
0.00791905
0.00766598
0.0073898
0.0070995
0.00679181
0.0064778
0.00615555
0.00583457
0.00550893
0.0051912
0.00487746
0.0045713
0.00427662
0.003995
0.00372481
0.00347243
0.00322992
0.00300892
0.00279533
0.00260197
0.00241714
0.00225085
0.00209192
0.00194945
0.00181519
0.00169467
0.00158175
0.00148005
0.00138727
0.00130223
0.00122517
0.00115496
0.00109111
0.00103289
0.000979867
0.000931669
0.000887932
0.000848247
0.000811983
0.000778943
0.000749184
0.000721569
0.000696951
0.000673982
0.000653413
0.000634793
0.000617656
0.000602524
0.000588022
0.00057556
0.000563418
0.000552691
0.00054214
0.000533299
0.00052467
0.00051721
0.000509896
0.000503496
0.000497151
0.000491582
0.000486117
0.00048136
0.00047662
0.000472466
0.00046842
0.00046503
0.000462044
0.000459593
0.000457139
0.000454606
0.000451976
0.000449358
0.000446828
0.00044471
0.000442773
0.000440976
0.000439219
0.000437476
0.000435766
0.000434087
0.000432424
0.000430749
0.000429016
0.000427205
0.000425324
0.000423397
0.000421486
0.000419698
0.000418562
0.000417869
0.000417638
0.000417954
0.000415382
0.00041392
0.000412904
0.000410986
0.000408898
0.000406995
0.00040523
0.000403675
0.000402283
0.00040111
0.000400073
0.000399124
0.000398344
0.000397651
0.000397144
0.000396606
0.000396019
0.000395396
0.000394761
0.000394112
0.000393431
0.000392715
0.000391974
0.000391176
0.000390313
0.000389397
0.000388454
0.000387582
0.000386714
0.000385934
0.000385143
0.000384349
0.000383571
0.000382835
0.000382243
0.000381719
0.000381504
0.000381394
0.000381376
0.000381469
0.000381648
0.000381467
0.000381367
0.000381152
0.00038085
0.000380422
0.000379875
0.000379262
0.000378602
0.00037797
0.000377348
0.000376846
0.000376362
0.000376091
0.000375931
0.000375907
0.000375955
0.000376138
0.000376359
0.000376495
0.000376565
0.000376563
0.000376388
0.000376146
0.000375845
0.000375469
0.00037503
0.00037457
0.000374159
0.000373832
0.000373699
0.000373584
0.000373668
0.000373812
0.00037405
0.000374271
0.000374465
0.000374629
0.000374673
0.000374651
0.000374549
0.00037434
0.000374055
0.000373762
0.000373456
0.000373229
0.000373045
0.000372899
0.000373095
0.000373267
0.000373464
0.00037373
0.000373985
0.000374205
0.000374378
0.000374431
0.000374432
0.000374378
0.000374274
0.000374094
0.000373929
0.00037374
0.000373595
0.000373685
0.000373755
0.000373907
0.000374147
0.000374381
0.000374616
0.000374845
0.000375059
0.000375174
0.000375243
0.000375262
0.000375234
0.000375163
0.000375082
0.00037497
0.000374994
0.00836407
0.00838986
0.00840191
0.00844646
0.00844719
0.00845727
0.00841552
0.00836901
0.0083553
0.00839389
0.00844886
0.00853533
0.00861692
0.00872693
0.00882294
0.00892304
0.00900206
0.00906217
0.00910284
0.00912266
0.00911863
0.00909414
0.00904752
0.00897645
0.00888062
0.00875863
0.00860966
0.00843332
0.00822974
0.00799936
0.00774722
0.00747099
0.00718027
0.00687003
0.00655391
0.00622763
0.00590411
0.00557257
0.00525004
0.00493107
0.00461794
0.00431725
0.00403002
0.00375296
0.00349453
0.00324505
0.00301869
0.00279924
0.00260108
0.00241135
0.0022416
0.00207815
0.00193257
0.00179524
0.00167273
0.00155709
0.00145385
0.00135963
0.00127363
0.00119583
0.00112505
0.0010609
0.00100236
0.000949238
0.000901067
0.000857596
0.000818309
0.000782386
0.000749973
0.000720586
0.000693447
0.00066931
0.000646674
0.000626686
0.000608462
0.000591917
0.000577223
0.000563168
0.000551204
0.000539517
0.000529168
0.000519
0.000510595
0.000502382
0.000495315
0.000488366
0.000482332
0.00047632
0.000471088
0.000465937
0.000461488
0.000457027
0.000453173
0.000449397
0.000446287
0.000443563
0.000441339
0.000439092
0.000436768
0.000434357
0.000431961
0.00042966
0.000427748
0.000425989
0.000424366
0.000422779
0.000421203
0.000419661
0.000418139
0.000416626
0.000415093
0.000413502
0.000411836
0.000410102
0.000408324
0.000406559
0.000404954
0.000403916
0.000403349
0.000403079
0.000403355
0.000401321
0.000399733
0.000398632
0.000396957
0.000395002
0.000393193
0.000391562
0.000390118
0.000388809
0.000387708
0.000386738
0.000385863
0.000385149
0.000384513
0.000384047
0.000383551
0.000383014
0.000382445
0.000381861
0.000381258
0.000380624
0.000379953
0.000379257
0.000378506
0.00037769
0.000376826
0.000375936
0.00037511
0.000374287
0.000373546
0.000372791
0.00037204
0.000371305
0.000370614
0.000370062
0.000369577
0.000369386
0.000369284
0.000369274
0.000369359
0.000369545
0.000369401
0.000369293
0.000369091
0.000368806
0.000368403
0.000367882
0.000367298
0.000366665
0.00036606
0.000365464
0.000364983
0.000364523
0.000364269
0.000364115
0.000364095
0.000364145
0.000364318
0.00036453
0.000364668
0.00036473
0.000364729
0.000364566
0.000364337
0.000364042
0.000363677
0.000363256
0.000362817
0.000362423
0.00036211
0.000361981
0.000361871
0.000361957
0.000362098
0.000362327
0.000362541
0.000362731
0.000362891
0.000362928
0.00036291
0.000362814
0.000362616
0.000362343
0.000362062
0.000361772
0.000361553
0.000361385
0.000361248
0.000361423
0.000361607
0.000361805
0.00036206
0.000362313
0.000362529
0.0003627
0.000362755
0.000362762
0.000362714
0.000362618
0.000362452
0.000362294
0.000362126
0.000361988
0.000362073
0.000362157
0.000362309
0.000362544
0.000362781
0.000363016
0.000363245
0.00036346
0.000363577
0.000363652
0.000363678
0.000363659
0.000363598
0.000363529
0.000363431
0.000363469
0.00835531
0.0083878
0.00839983
0.00844811
0.00844114
0.00841846
0.0083717
0.00834682
0.00837143
0.00842912
0.00851109
0.00859769
0.00869538
0.00880422
0.00889723
0.00898833
0.00906158
0.0091182
0.00915664
0.00917621
0.00917344
0.00915046
0.00910617
0.00903808
0.00894634
0.00882778
0.00868249
0.00850842
0.00830727
0.00807763
0.00782594
0.00754886
0.00725747
0.00694338
0.00662449
0.00629293
0.00596641
0.00562705
0.00529863
0.00497348
0.00465122
0.00434208
0.00404746
0.00376222
0.0034984
0.00324154
0.00300929
0.0027826
0.00257892
0.00238335
0.00220961
0.00204121
0.00189302
0.00175289
0.0016291
0.00151024
0.00140723
0.00131238
0.00122607
0.00114876
0.00107787
0.00101455
0.000956345
0.000904003
0.000856721
0.000814424
0.000776286
0.000741435
0.000710385
0.000682027
0.000656036
0.00063297
0.00061126
0.000592423
0.000575117
0.00055968
0.000545862
0.000532713
0.000521661
0.0005108
0.000501206
0.000491825
0.000484229
0.000476727
0.000470296
0.000463919
0.00045846
0.000452958
0.000448253
0.000443582
0.000439606
0.000435564
0.000432164
0.000428791
0.0004261
0.000423744
0.000421838
0.000419869
0.000417833
0.000415736
0.000413668
0.0004117
0.00041008
0.000408571
0.000407193
0.000405842
0.000404501
0.000403193
0.000401894
0.000400594
0.000399266
0.000397878
0.000396418
0.000394894
0.000393316
0.000391777
0.000390429
0.000389543
0.000389149
0.000388886
0.000389112
0.00038763
0.000386027
0.000384882
0.00038345
0.000381709
0.000380054
0.000378592
0.000377295
0.000376101
0.000375104
0.000374227
0.000373458
0.000372842
0.000372293
0.000371892
0.00037146
0.000371
0.000370515
0.000370009
0.000369478
0.000368917
0.000368316
0.000367689
0.000367009
0.000366265
0.000365477
0.000364663
0.000363908
0.00036315
0.000362467
0.000361761
0.000361077
0.000360402
0.000359775
0.000359284
0.000358858
0.000358708
0.000358628
0.000358644
0.000358736
0.000358944
0.000358852
0.000358749
0.000358575
0.000358322
0.00035796
0.000357482
0.000356941
0.000356352
0.000355788
0.000355229
0.000354784
0.000354362
0.00035414
0.000354003
0.000354001
0.000354062
0.00035424
0.000354448
0.0003546
0.000354669
0.000354678
0.000354542
0.000354333
0.000354052
0.000353706
0.000353315
0.000352907
0.00035254
0.000352248
0.00035213
0.000352036
0.000352133
0.000352274
0.000352506
0.000352717
0.00035291
0.000353072
0.000353109
0.0003531
0.000353019
0.000352837
0.000352581
0.000352318
0.000352048
0.000351842
0.000351694
0.000351573
0.000351732
0.000351927
0.000352133
0.000352383
0.000352636
0.000352853
0.000353025
0.000353086
0.000353101
0.000353061
0.000352977
0.000352827
0.00035268
0.000352534
0.000352405
0.000352485
0.000352586
0.000352741
0.000352973
0.000353213
0.000353452
0.000353682
0.000353898
0.00035402
0.000354102
0.000354136
0.000354126
0.000354078
0.00035402
0.000353936
0.000353988
0.00833557
0.00837938
0.00839166
0.00844009
0.00841024
0.00837624
0.00834474
0.00835573
0.00840412
0.00847929
0.0085644
0.0086681
0.0087711
0.00887507
0.00896562
0.00905008
0.00911902
0.00917264
0.00920918
0.00922838
0.00922705
0.00920503
0.00916404
0.00909935
0.00901142
0.00889585
0.00875383
0.00858148
0.0083824
0.00815228
0.00790075
0.0076215
0.00732879
0.007009
0.00668626
0.00634699
0.0060162
0.0056662
0.00533024
0.00499883
0.00466418
0.00434425
0.00404033
0.00374505
0.00347446
0.00320912
0.00296996
0.0027353
0.00252608
0.00232489
0.00214692
0.00197334
0.00182396
0.00168174
0.00155822
0.00143559
0.00133532
0.00124235
0.00115567
0.00108077
0.00101106
0.000949842
0.00089307
0.000842588
0.000796995
0.000756852
0.000720809
0.000687833
0.000658818
0.000632152
0.000608072
0.000586716
0.000566611
0.000549568
0.000533742
0.000519987
0.000507494
0.000495768
0.000486041
0.000476398
0.000467947
0.000459767
0.000453304
0.00044681
0.000441306
0.000435772
0.000431142
0.000426398
0.000422458
0.00041849
0.000415208
0.00041181
0.00040907
0.000406256
0.000404125
0.000402249
0.000400751
0.000399127
0.000397485
0.000395798
0.000394162
0.000392626
0.00039137
0.000390172
0.000389095
0.000388034
0.000386987
0.000385976
0.000384956
0.000383923
0.000382844
0.00038171
0.000380502
0.000379244
0.000377903
0.000376663
0.000375635
0.000374952
0.000374744
0.000374522
0.000374717
0.000373727
0.000372266
0.000371091
0.000369896
0.000368444
0.000366989
0.000365725
0.0003646
0.000363553
0.00036269
0.000361936
0.000361304
0.000360811
0.000360377
0.000360062
0.000359714
0.000359359
0.000358982
0.000358577
0.000358143
0.000357677
0.000357169
0.000356631
0.000356042
0.000355391
0.000354702
0.000353985
0.000353316
0.000352644
0.000352032
0.000351391
0.00035079
0.000350195
0.000349651
0.000349237
0.000348888
0.000348792
0.000348748
0.000348803
0.000348908
0.00034915
0.000349137
0.000349042
0.00034891
0.000348701
0.000348395
0.00034797
0.000347485
0.000346956
0.000346449
0.000345938
0.000345539
0.000345172
0.000344993
0.000344878
0.000344908
0.000344998
0.000345183
0.000345395
0.000345571
0.000345659
0.000345689
0.000345587
0.000345402
0.000345148
0.000344833
0.00034448
0.000344113
0.000343783
0.000343521
0.000343422
0.000343349
0.000343468
0.000343617
0.000343852
0.00034407
0.000344271
0.000344441
0.000344488
0.000344494
0.000344434
0.000344274
0.000344039
0.000343801
0.000343558
0.000343371
0.000343249
0.000343147
0.000343298
0.000343506
0.000343722
0.000343973
0.00034423
0.000344451
0.000344628
0.000344699
0.000344726
0.000344698
0.000344629
0.0003445
0.000344366
0.000344246
0.000344131
0.000344207
0.000344327
0.000344489
0.000344719
0.000344966
0.00034521
0.000345444
0.000345663
0.000345791
0.000345882
0.000345927
0.000345928
0.000345893
0.000345848
0.00034578
0.00034585
0.00830273
0.00836867
0.0083653
0.00839724
0.0083699
0.00834092
0.00834182
0.00837851
0.00844319
0.00852496
0.00862613
0.00873513
0.00883939
0.00893882
0.00902721
0.00910652
0.00917207
0.00922331
0.00925852
0.00927719
0.00927801
0.00925769
0.00922032
0.00915856
0.00907423
0.00896113
0.00882213
0.00865065
0.00845308
0.00822129
0.00796919
0.00768612
0.00739071
0.00706172
0.00673442
0.00638692
0.00604963
0.00568413
0.00533583
0.00499598
0.00464753
0.00431469
0.00399874
0.00369115
0.00341152
0.00313695
0.00289015
0.00264739
0.0024346
0.00222992
0.00205046
0.00187082
0.00172393
0.00158162
0.00146101
0.00133721
0.0012404
0.00115145
0.00106692
0.000995478
0.000929076
0.000870803
0.000816833
0.000769176
0.000726237
0.000689058
0.000656069
0.000625702
0.000599387
0.000574857
0.000553261
0.00053387
0.000515798
0.00050087
0.000486784
0.000475053
0.000464026
0.000454067
0.000445789
0.000437588
0.000430418
0.000423617
0.000418337
0.000413043
0.000408643
0.000404166
0.000400587
0.000396772
0.000393841
0.000390702
0.000388318
0.000385697
0.000383822
0.000381706
0.000380326
0.000378983
0.000378017
0.000376798
0.00037575
0.000374569
0.000373492
0.00037245
0.000371618
0.000370781
0.000370062
0.000369339
0.000368644
0.000367975
0.000367275
0.000366541
0.000365763
0.000364908
0.000364002
0.000363033
0.000361976
0.000361105
0.000360456
0.00036002
0.000360005
0.000359812
0.000360006
0.000359415
0.000358235
0.000357104
0.000356101
0.00035496
0.000353795
0.000352737
0.000351816
0.000350927
0.00035023
0.000349609
0.000349147
0.000348792
0.00034849
0.000348277
0.000348021
0.000347797
0.000347547
0.000347259
0.000346941
0.000346584
0.000346189
0.000345753
0.000345271
0.000344728
0.000344158
0.000343557
0.000342997
0.000342417
0.000341901
0.000341329
0.000340836
0.000340327
0.000339895
0.000339563
0.000339314
0.000339279
0.000339278
0.00033939
0.000339535
0.000339794
0.000339856
0.000339808
0.000339718
0.000339564
0.000339326
0.000338964
0.000338547
0.00033809
0.000337652
0.000337205
0.000336864
0.000336562
0.00033643
0.000336349
0.000336432
0.000336543
0.000336747
0.000336975
0.000337181
0.000337298
0.000337349
0.000337287
0.000337137
0.000336923
0.000336647
0.000336342
0.000336023
0.00033574
0.000335521
0.000335439
0.000335403
0.000335542
0.000335711
0.000335951
0.000336184
0.000336399
0.000336582
0.000336645
0.000336672
0.000336635
0.000336507
0.0003363
0.000336093
0.00033588
0.00033572
0.000335632
0.00033555
0.000335702
0.000335923
0.000336154
0.00033641
0.000336674
0.000336904
0.00033709
0.000337175
0.000337218
0.000337207
0.000337155
0.000337049
0.000336934
0.000336844
0.000336747
0.000336822
0.000336964
0.000337136
0.000337366
0.000337622
0.000337874
0.000338114
0.000338339
0.000338476
0.000338578
0.000338635
0.00033865
0.00033863
0.000338602
0.000338551
0.000338641
0.00826438
0.00835072
0.00832569
0.00834669
0.00832795
0.00832465
0.00835091
0.00840486
0.00847916
0.00857598
0.00868496
0.00879566
0.00889916
0.00899509
0.00908091
0.00915667
0.00921966
0.00926897
0.00930337
0.00932254
0.00932604
0.00930732
0.0092732
0.00921418
0.00913319
0.00902184
0.00888549
0.00871346
0.00851696
0.00828147
0.00802627
0.00773745
0.00744119
0.00710098
0.0067634
0.00640146
0.00605376
0.00567096
0.00530596
0.0049505
0.00458464
0.0042382
0.00390929
0.00359278
0.00330357
0.00302095
0.00276775
0.00251592
0.00230429
0.00209835
0.00192315
0.00173957
0.00159816
0.00145953
0.00134539
0.0012256
0.00113016
0.00104769
0.000968812
0.000902074
0.000840232
0.000786322
0.000736383
0.000692381
0.000653045
0.000619448
0.000590063
0.000562858
0.000539464
0.000517405
0.000498687
0.000481135
0.000465542
0.000452513
0.000440211
0.000430362
0.000420653
0.000412366
0.00040539
0.000398308
0.000392531
0.000386786
0.000382792
0.000378267
0.000375134
0.000371393
0.000368968
0.000365855
0.000364014
0.000361568
0.000360085
0.000358145
0.000357168
0.000355722
0.000355177
0.00035443
0.000353998
0.000353256
0.000352864
0.00035224
0.000351809
0.000351331
0.00035097
0.000350536
0.00035023
0.000349907
0.00034962
0.00034933
0.000348973
0.000348564
0.000348112
0.000347564
0.000346985
0.000346345
0.000345602
0.000345168
0.000344921
0.000344759
0.000344859
0.000344816
0.000345018
0.000344695
0.00034384
0.000342847
0.000342059
0.000341226
0.000340402
0.000339565
0.000338867
0.000338149
0.000337647
0.00033716
0.000336899
0.000336676
0.00033653
0.000336424
0.000336271
0.000336191
0.000336077
0.00033592
0.000335731
0.000335499
0.000335228
0.000334906
0.000334545
0.000334124
0.000333687
0.000333214
0.000332778
0.000332304
0.000331893
0.000331402
0.000331023
0.000330618
0.000330307
0.000330074
0.000329943
0.000329972
0.00033003
0.000330195
0.000330385
0.000330682
0.000330807
0.000330821
0.000330793
0.000330698
0.000330525
0.000330246
0.000329911
0.000329538
0.000329177
0.000328804
0.00032853
0.000328306
0.000328225
0.000328193
0.000328326
0.000328473
0.000328696
0.000328948
0.000329185
0.000329337
0.000329415
0.000329405
0.00032931
0.000329133
0.000328903
0.000328655
0.000328394
0.000328165
0.000327988
0.000327944
0.000327944
0.000328107
0.000328302
0.000328553
0.000328805
0.000329038
0.000329239
0.000329326
0.000329378
0.000329369
0.000329277
0.000329108
0.000328934
0.000328759
0.000328632
0.000328586
0.000328525
0.000328683
0.00032892
0.00032917
0.000329436
0.00032971
0.00032995
0.00033015
0.000330253
0.000330316
0.000330325
0.000330295
0.000330216
0.000330124
0.000330067
0.000329993
0.00033007
0.000330237
0.00033042
0.000330655
0.000330921
0.000331184
0.000331433
0.000331666
0.000331813
0.000331929
0.000332001
0.000332032
0.00033203
0.00033202
0.000331989
0.000332102
0.00822566
0.00831797
0.00828736
0.00830026
0.00829856
0.00831975
0.00836502
0.00843132
0.00851524
0.00862542
0.00873758
0.00884834
0.00894998
0.0090432
0.00912667
0.00919972
0.00926079
0.00930891
0.00934353
0.00936383
0.00936937
0.00935268
0.00932138
0.00926467
0.00918674
0.00907587
0.00894136
0.00876698
0.00856901
0.00832957
0.00807333
0.00777329
0.00747004
0.00711311
0.00676017
0.00637743
0.00601259
0.00560846
0.00522587
0.0048521
0.00446664
0.0041112
0.00376805
0.00344705
0.00314925
0.00285683
0.00260791
0.0023486
0.00214426
0.00194105
0.00177538
0.00159646
0.00146167
0.00132876
0.00122381
0.00111484
0.00101865
0.000944101
0.000874741
0.000814404
0.00075868
0.00071009
0.00066492
0.000624867
0.000589647
0.000559678
0.000533685
0.000510101
0.000489198
0.000469695
0.000453309
0.000437382
0.000423782
0.00041229
0.000401451
0.00039291
0.000384161
0.00037696
0.000371054
0.000364249
0.000359928
0.000354807
0.000351537
0.00034724
0.00034509
0.000341646
0.000340012
0.000337285
0.000336138
0.000334187
0.000333182
0.000331806
0.000331288
0.000330413
0.000330433
0.000330102
0.000329987
0.000329636
0.000329735
0.000329623
0.000329769
0.000329843
0.000329925
0.0003299
0.000330013
0.000330098
0.000330219
0.000330308
0.000330316
0.000330259
0.000330136
0.000329937
0.000329688
0.000329375
0.000328999
0.000329026
0.000329164
0.000329299
0.000329489
0.000329566
0.000329774
0.000329724
0.000329176
0.000328399
0.000327853
0.000327356
0.000326824
0.000326258
0.000325774
0.00032527
0.000324932
0.000324619
0.000324547
0.000324472
0.000324482
0.000324486
0.000324452
0.000324518
0.000324546
0.000324532
0.000324477
0.000324379
0.000324238
0.000324045
0.000323805
0.000323522
0.000323223
0.000322894
0.000322581
0.000322233
0.000321923
0.000321538
0.000321267
0.000320991
0.0003208
0.000320677
0.000320669
0.000320769
0.000320896
0.000321119
0.000321367
0.000321689
0.00032189
0.000321975
0.000322009
0.00032198
0.000321893
0.000321702
0.000321453
0.000321171
0.000320897
0.000320611
0.000320409
0.000320258
0.000320252
0.000320274
0.000320452
0.000320647
0.000320894
0.000321172
0.000321444
0.000321633
0.000321752
0.000321797
0.000321752
0.000321631
0.000321456
0.000321268
0.00032107
0.000320902
0.000320779
0.000320779
0.000320813
0.000321009
0.000321232
0.0003215
0.000321772
0.000322028
0.000322251
0.000322368
0.000322449
0.000322473
0.000322419
0.000322297
0.000322162
0.000322028
0.000321946
0.000321938
0.000321907
0.000322075
0.000322329
0.0003226
0.000322882
0.000323167
0.000323422
0.000323638
0.000323763
0.00032385
0.000323882
0.000323877
0.00032383
0.000323766
0.000323744
0.000323697
0.000323781
0.000323973
0.000324171
0.000324414
0.000324691
0.000324967
0.000325227
0.00032547
0.000325632
0.000325764
0.000325853
0.000325901
0.000325921
0.000325931
0.000325923
0.000326063
0.00819232
0.00828318
0.00825274
0.00826157
0.00827875
0.00831899
0.00837836
0.00845536
0.00855415
0.00866872
0.0087834
0.00889224
0.00899192
0.00908284
0.00916423
0.00923528
0.00929515
0.00934305
0.00937861
0.00939947
0.0094067
0.00939263
0.00936369
0.00930838
0.00923297
0.00912044
0.00898552
0.00880873
0.00861192
0.00836251
0.00809959
0.00778011
0.00746097
0.00708034
0.00670732
0.00630128
0.00591456
0.00548613
0.00508893
0.0046965
0.00428275
0.00393765
0.00358766
0.00325389
0.00295932
0.0026593
0.00242296
0.0021665
0.00197171
0.00177537
0.00162398
0.00145977
0.00133368
0.00120923
0.00111308
0.00101796
0.000926463
0.000860138
0.000798583
0.000745131
0.000695442
0.00065128
0.000610364
0.000575171
0.000543735
0.000516098
0.000493358
0.000472003
0.000453731
0.000435819
0.000421166
0.000406617
0.000393924
0.000383634
0.000373327
0.000365802
0.000357513
0.000351464
0.000345155
0.0003384
0.00033526
0.000330384
0.000327241
0.000323086
0.000321168
0.00031789
0.000316371
0.000313881
0.000312789
0.000311107
0.000310189
0.000308986
0.000308749
0.000308075
0.000308246
0.000308057
0.000308038
0.000307793
0.000308142
0.000308308
0.000308836
0.000309272
0.00030967
0.000309923