/*--------------------------------*- C++ -*----------------------------------*\
| =========                 |                                                 |
| \\      /  F ield         | OpenFOAM: The Open Source CFD Toolbox           |
|  \\    /   O peration     | Version:  2312                                  |
|   \\  /    A nd           | Website:  www.openfoam.com                      |
|    \\/     M anipulation  |                                                 |
\*---------------------------------------------------------------------------*/
FoamFile
{
    version     2.0;
    format      ascii;
    arch        "LSB;label=32;scalar=64";
    class       volVectorField;
    location    "0.005";
    object      U;
}
// * * * * * * * * * * * * * * * * * * * * * * * * * * * * * * * * * * * * * //

dimensions      [0 1 -1 0 0 0 0];

internalField   nonuniform List<vector> 
48128
(
(12.2716 -4.82355 0)
(17.255 -2.60509 0)
(20.3741 -0.337466 0)
(19.8419 0.570973 0)
(18.5917 0.699832 0)
(17.215 0.740143 0)
(15.5882 0.70407 0)
(13.784 0.71727 0)
(11.3032 1.19002 0)
(6.3236 3.11973 0)
(-3.13749 5.3795 0)
(-18.91 7.74683 0)
(-42.5861 10.268 0)
(-68.7944 9.97539 0)
(-91.1826 7.54445 0)
(-109.415 4.68131 0)
(-124.044 3.66476 0)
(-135.805 3.01188 0)
(-145.629 2.61693 0)
(-153.967 2.3356 0)
(-161.025 2.142 0)
(-167.234 2.00755 0)
(-172.754 1.89518 0)
(-177.561 1.80109 0)
(-181.667 1.71236 0)
(-185.072 1.63579 0)
(-187.756 1.64473 0)
(-189.623 1.81686 0)
(-190.693 1.6668 0)
(-191.117 1.51107 0)
(-190.811 1.15255 0)
(-189.558 0.915617 0)
(-187.537 0.680524 0)
(-184.737 0.400948 0)
(-181.215 0.21434 0)
(-177.047 -0.0385403 0)
(-172.214 -0.234341 0)
(-166.598 -0.662127 0)
(-160.228 -0.921498 0)
(-153.401 -1.22974 0)
(-145.743 -1.62433 0)
(-137.492 -1.8852 0)
(-128.842 -2.1406 0)
(-119.705 -2.46904 0)
(-110.1 -2.68223 0)
(-100.287 -2.94843 0)
(-90.1028 -3.08629 0)
(-79.8869 -3.36394 0)
(-69.2038 -3.56075 0)
(-58.3896 -3.81688 0)
(-47.4784 -3.84936 0)
(-36.5715 -4.10609 0)
(-25.443 -4.22261 0)
(-14.1666 -4.46483 0)
(-2.95621 -4.44393 0)
(8.13136 -4.25336 0)
(19.379 -3.70834 0)
(30.5993 -3.2613 0)
(41.7923 -3.28685 0)
(52.8253 -3.25939 0)
(63.6708 -3.23655 0)
(74.2552 -3.17574 0)
(84.5539 -3.11035 0)
(94.5999 -3.04911 0)
(104.428 -2.99092 0)
(114.1 -2.94988 0)
(123.568 -2.88093 0)
(132.805 -2.80948 0)
(141.858 -2.75838 0)
(150.478 -2.71588 0)
(158.942 -2.6316 0)
(166.994 -2.50612 0)
(174.827 -2.43787 0)
(182.504 -2.33702 0)
(189.867 -2.25473 0)
(197.19 -2.17014 0)
(204.062 -2.05516 0)
(210.854 -1.97948 0)
(217.259 -1.87682 0)
(223.518 -1.77902 0)
(229.33 -1.66683 0)
(234.99 -1.59576 0)
(240.394 -1.51364 0)
(245.703 -1.44403 0)
(250.716 -1.35721 0)
(255.549 -1.29388 0)
(260.139 -1.21236 0)
(264.513 -1.15122 0)
(268.658 -1.07765 0)
(272.65 -1.02834 0)
(276.468 -0.961924 0)
(280.1 -0.912224 0)
(283.559 -0.855519 0)
(286.909 -0.814955 0)
(290.179 -0.774057 0)
(293.42 -0.742193 0)
(296.587 -0.696232 0)
(299.564 -0.645549 0)
(302.291 -0.595359 0)
(304.767 -0.55016 0)
(307.041 -0.512816 0)
(309.249 -0.490251 0)
(311.443 -0.46535 0)
(313.566 -0.438774 0)
(315.596 -0.410961 0)
(317.514 -0.383135 0)
(319.308 -0.357249 0)
(320.988 -0.33373 0)
(322.577 -0.313407 0)
(324.084 -0.292366 0)
(325.481 -0.275106 0)
(326.784 -0.255674 0)
(327.957 -0.239684 0)
(329.038 -0.223944 0)
(330.031 -0.212507 0)
(330.956 -0.198571 0)
(331.944 -0.206177 0)
(333.006 -0.189198 0)
(334.133 -0.199412 0)
(335.452 -0.16992 0)
(337.376 -0.17886 0)
(337.359 -0.119836 0)
(337.868 -0.0932093 0)
(338.974 -0.128666 0)
(338.948 -0.0935406 0)
(339.178 -0.0915724 0)
(339.5 -0.102389 0)
(339.876 -0.108071 0)
(340.302 -0.105177 0)
(340.771 -0.102773 0)
(341.271 -0.0978997 0)
(341.781 -0.0930865 0)
(342.298 -0.0881574 0)
(342.82 -0.0822761 0)
(343.348 -0.0765882 0)
(343.88 -0.0700185 0)
(344.398 -0.0618381 0)
(344.819 -0.0541074 0)
(345.201 -0.0482253 0)
(345.538 -0.0449363 0)
(345.869 -0.0413448 0)
(346.142 -0.0379482 0)
(346.395 -0.0346534 0)
(346.597 -0.0313074 0)
(346.802 -0.0321118 0)
(346.911 -0.0227509 0)
(346.993 -0.0202159 0)
(347.029 -0.0142015 0)
(347.069 -0.0114987 0)
(347.1 -0.00971756 0)
(347.139 -0.00691263 0)
(347.146 -0.00345672 0)
(347.136 -0.00201707 0)
(347.114 -0.00095917 0)
(347.116 -0.00229769 0)
(347.132 -0.000230177 0)
(347.185 -0.00173291 0)
(347.269 0.00293094 0)
(347.396 0.00450031 0)
(347.532 0.00611221 0)
(347.691 0.0097677 0)
(347.86 0.0158626 0)
(347.849 0.0151626 0)
(347.865 0.0189954 0)
(347.844 0.0206585 0)
(347.758 0.0206061 0)
(347.63 0.0236034 0)
(347.446 0.0225044 0)
(347.242 0.0233624 0)
(347.016 0.0199788 0)
(346.813 0.0178941 0)
(346.614 0.0151912 0)
(346.468 0.0109801 0)
(346.318 0.0129322 0)
(346.269 0.00374667 0)
(346.216 0.0114526 0)
(346.231 0.00757474 0)
(346.25 0.00889521 0)
(346.306 0.0117754 0)
(346.364 0.0131117 0)
(346.35 0.0179447 0)
(346.31 0.0174217 0)
(346.238 0.0249038 0)
(346.1 0.0176396 0)
(345.925 0.0207309 0)
(345.734 0.0197056 0)
(345.516 0.0189744 0)
(345.28 0.0185318 0)
(345.039 0.016323 0)
(344.83 0.0135463 0)
(344.658 0.0113616 0)
(344.562 0.00839453 0)
(344.438 0.0142813 0)
(344.434 0.00622623 0)
(344.414 0.00971073 0)
(344.434 0.00983386 0)
(344.416 0.0132687 0)
(344.375 0.0147641 0)
(344.3 0.0173991 0)
(344.194 0.0170878 0)
(344.056 0.0180873 0)
(343.884 0.0172515 0)
(343.671 0.0169916 0)
(343.433 0.0159561 0)
(343.203 0.014231 0)
(342.979 0.0135234 0)
(342.783 0.0102563 0)
(342.62 0.00918486 0)
(342.418 0.0100838 0)
(342.425 0.00660475 0)
(342.39 0.00764512 0)
(342.337 0.0106947 0)
(342.314 0.00938639 0)
(342.264 0.0115006 0)
(342.188 0.0131769 0)
(342.078 0.0150357 0)
(341.939 0.0146547 0)
(341.769 0.0154572 0)
(341.578 0.014195 0)
(341.371 0.0144904 0)
(341.136 0.0127056 0)
(340.926 0.0120098 0)
(340.706 0.0110663 0)
(340.513 0.00846462 0)
(340.415 0.00738984 0)
(340.305 0.00746338 0)
(340.188 0.00852551 0)
(340.144 0.00740708 0)
(340.076 0.00906824 0)
(339.992 0.0103876 0)
(339.894 0.0113759 0)
(339.772 0.013076 0)
(339.627 0.0129934 0)
(339.459 0.0132495 0)
(339.27 0.012948 0)
(339.068 0.0117614 0)
(338.852 0.0116322 0)
(338.641 0.0103473 0)
(338.439 0.00852258 0)
(338.189 0.00898578 0)
(13.3026 -13.3249 0)
(14.673 -3.93704 0)
(18.7333 -0.725848 0)
(18.6952 0.851354 0)
(17.3562 1.29457 0)
(14.8696 1.81068 0)
(10.445 2.30085 0)
(3.24718 2.95035 0)
(-8.11305 4.38744 0)
(-25.5575 7.98956 0)
(-51.0014 11.269 0)
(-78.5249 15.6382 0)
(-101.402 18.1708 0)
(-119.292 15.122 0)
(-133.31 11.7709 0)
(-143.752 10.595 0)
(-152.241 8.4933 0)
(-159.692 7.07775 0)
(-165.914 6.06309 0)
(-171.057 5.33005 0)
(-175.194 4.75981 0)
(-178.603 4.34921 0)
(-181.465 3.97934 0)
(-183.708 3.648 0)
(-185.331 3.32855 0)
(-186.328 3.02272 0)
(-186.704 2.76708 0)
(-186.514 2.50485 0)
(-185.558 2.17662 0)
(-183.696 1.87095 0)
(-181.103 1.46686 0)
(-177.8 1.10355 0)
(-173.691 0.753592 0)
(-168.858 0.344446 0)
(-163.291 0.0520964 0)
(-157.138 -0.299331 0)
(-150.352 -0.571216 0)
(-142.882 -1.08064 0)
(-134.711 -1.40575 0)
(-126.093 -1.76277 0)
(-116.806 -2.30492 0)
(-106.973 -2.69272 0)
(-96.7607 -3.04111 0)
(-86.1848 -3.49956 0)
(-75.2798 -3.80529 0)
(-64.1967 -4.20574 0)
(-52.7592 -4.41408 0)
(-41.2891 -4.8137 0)
(-29.3997 -5.0957 0)
(-17.4333 -5.47125 0)
(-5.34708 -5.52973 0)
(6.681 -5.88743 0)
(18.8804 -6.05241 0)
(31.1211 -6.38998 0)
(43.2479 -6.35985 0)
(55.181 -6.58455 0)
(67.2248 -6.9208 0)
(79.168 -7.05509 0)
(91.003 -7.14541 0)
(102.609 -7.09563 0)
(113.975 -7.05838 0)
(125.03 -6.94555 0)
(135.763 -6.83286 0)
(146.209 -6.73544 0)
(156.409 -6.64523 0)
(166.417 -6.57523 0)
(176.158 -6.43984 0)
(185.633 -6.3061 0)
(194.91 -6.11762 0)
(203.792 -5.88758 0)
(212.495 -5.72824 0)
(220.78 -5.47288 0)
(228.803 -5.3502 0)
(236.64 -5.14382 0)
(244.135 -4.9801 0)
(251.561 -4.80105 0)
(258.538 -4.56774 0)
(265.398 -4.41368 0)
(271.897 -4.18993 0)
(278.211 -3.98674 0)
(284.116 -3.76474 0)
(289.839 -3.63904 0)
(295.342 -3.45879 0)
(300.694 -3.31187 0)
(305.8 -3.11771 0)
(310.679 -2.98142 0)
(315.367 -2.79983 0)
(319.803 -2.67062 0)
(324.06 -2.51298 0)
(328.123 -2.40473 0)
(332.065 -2.2573 0)
(335.786 -2.15119 0)
(339.387 -2.02805 0)
(342.839 -1.93917 0)
(346.241 -1.84353 0)
(349.567 -1.7596 0)
(352.847 -1.64954 0)
(355.948 -1.54439 0)
(358.838 -1.4467 0)
(361.504 -1.35969 0)
(363.998 -1.28619 0)
(366.409 -1.23074 0)
(368.797 -1.16491 0)
(371.11 -1.10174 0)
(373.339 -1.0393 0)
(375.462 -0.980101 0)
(377.476 -0.925952 0)
(379.383 -0.875481 0)
(381.205 -0.829194 0)
(382.949 -0.784022 0)
(384.591 -0.745983 0)
(386.146 -0.706108 0)
(387.583 -0.673383 0)
(388.928 -0.641161 0)
(390.195 -0.612596 0)
(391.379 -0.587288 0)
(392.604 -0.575362 0)
(393.876 -0.529459 0)
(395.197 -0.523485 0)
(396.653 -0.43629 0)
(398.641 -0.595678 0)
(399.037 -0.331959 0)
(399.837 -0.276251 0)
(401.093 -0.435263 0)
(401.465 -0.334213 0)
(402 -0.325671 0)
(402.594 -0.352732 0)
(403.213 -0.351416 0)
(403.855 -0.328018 0)
(404.518 -0.312708 0)
(405.197 -0.296304 0)
(405.877 -0.283926 0)
(406.556 -0.268613 0)
(407.235 -0.251154 0)
(407.916 -0.234305 0)
(408.6 -0.217942 0)
(409.268 -0.202285 0)
(409.863 -0.190699 0)
(410.42 -0.178087 0)
(410.939 -0.168594 0)
(411.443 -0.158832 0)
(411.901 -0.150929 0)
(412.327 -0.142512 0)
(412.716 -0.136546 0)
(413.083 -0.133915 0)
(413.394 -0.122193 0)
(413.68 -0.117108 0)
(413.939 -0.106638 0)
(414.202 -0.0993596 0)
(414.457 -0.0941666 0)
(414.718 -0.0846931 0)
(414.959 -0.0798593 0)
(415.18 -0.0757274 0)
(415.389 -0.0708202 0)
(415.606 -0.0687894 0)
(415.834 -0.0586348 0)
(416.086 -0.0533529 0)
(416.361 -0.0382965 0)
(416.663 -0.029043 0)
(416.973 -0.0248658 0)
(417.299 -0.0145509 0)
(417.645 -0.0198489 0)
(417.837 -0.00337979 0)
(418.044 0.00093914 0)
(418.262 -0.00134641 0)
(418.367 -0.00357397 0)
(418.483 -0.00184889 0)
(418.502 -0.00241143 0)
(418.524 -0.004025 0)
(418.516 -0.0045036 0)
(418.514 -0.00596306 0)
(418.519 -0.00738516 0)
(418.534 -0.00754906 0)
(418.566 -0.00449454 0)
(418.628 -0.00723058 0)
(418.703 0.00676373 0)
(418.805 0.002158 0)
(418.918 0.00804843 0)
(419.059 0.0140251 0)
(419.2 0.0139722 0)
(419.306 0.0250236 0)
(419.366 0.0232153 0)
(419.43 0.0253474 0)
(419.408 0.0167322 0)
(419.367 0.0217787 0)
(419.309 0.0202868 0)
(419.227 0.0176936 0)
(419.124 0.0156842 0)
(419.014 0.0136311 0)
(418.911 0.0115569 0)
(418.833 0.0105721 0)
(418.798 0.0105187 0)
(418.755 0.0184749 0)
(418.774 0.0115132 0)
(418.79 0.0192513 0)
(418.831 0.0192231 0)
(418.853 0.0264992 0)
(418.85 0.0286355 0)
(418.826 0.0307402 0)
(418.781 0.0295946 0)
(418.711 0.0300113 0)
(418.614 0.0254817 0)
(418.482 0.0254969 0)
(418.329 0.0238688 0)
(418.172 0.0216452 0)
(418.012 0.0200624 0)
(417.868 0.0191388 0)
(417.739 0.0140677 0)
(417.57 0.0292944 0)
(417.561 0.0142044 0)
(417.525 0.0183459 0)
(417.471 0.027117 0)
(417.444 0.0259786 0)
(417.398 0.029336 0)
(417.334 0.0317453 0)
(417.247 0.0333854 0)
(417.137 0.0312145 0)
(417.004 0.0309468 0)
(416.853 0.0282869 0)
(416.685 0.0275021 0)
(416.496 0.0259052 0)
(416.313 0.023725 0)
(416.125 0.022385 0)
(415.937 0.0259133 0)
(415.825 0.0194247 0)
(415.703 0.0214329 0)
(415.573 0.0265744 0)
(415.502 0.0244493 0)
(415.414 0.0273118 0)
(415.317 0.0295099 0)
(415.21 0.0306888 0)
(415.087 0.0328915 0)
(414.948 0.031082 0)
(414.79 0.0305214 0)
(414.616 0.0292094 0)
(414.429 0.0271454 0)
(414.229 0.0261089 0)
(414.027 0.0237738 0)
(413.825 0.0224755 0)
(413.555 0.0255837 0)
(9.38379 -20.398 0)
(10.7252 -6.58589 0)
(15.1157 -1.73487 0)
(14.7536 1.49327 0)
(11.9608 2.77751 0)
(7.05854 4.68219 0)
(-1.66508 7.26264 0)
(-15.8456 11.0473 0)
(-37.7624 16.4775 0)
(-64.6107 22.4021 0)
(-87.5364 28.6265 0)
(-105.538 28.9447 0)
(-118.148 27.6671 0)
(-126.787 23.7657 0)
(-133.783 19.1605 0)
(-141.733 15.8978 0)
(-148.227 12.9938 0)
(-153.493 10.7244 0)
(-157.931 9.08165 0)
(-161.628 7.91647 0)
(-164.509 6.96627 0)
(-166.915 6.29089 0)
(-168.813 5.67742 0)
(-170.171 5.12731 0)
(-170.973 4.63262 0)
(-171.217 4.16041 0)
(-170.763 3.62537 0)
(-169.584 3.01744 0)
(-167.73 2.4499 0)
(-165.065 1.81841 0)
(-161.678 1.17793 0)
(-157.587 0.562171 0)
(-152.69 -0.0989503 0)
(-147.075 -0.840627 0)
(-140.684 -1.46118 0)
(-133.677 -2.15389 0)
(-126.002 -2.7881 0)
(-117.683 -3.707 0)
(-108.633 -4.38678 0)
(-99.1397 -5.10342 0)
(-89.0345 -6.056 0)
(-78.3386 -6.79015 0)
(-67.2429 -7.42375 0)
(-55.8153 -8.19708 0)
(-44.0717 -8.72662 0)
(-32.1817 -9.43519 0)
(-19.9323 -9.83198 0)
(-7.66323 -10.5456 0)
(5.00201 -11.0482 0)
(17.7112 -11.7129 0)
(30.5411 -11.8387 0)
(43.2599 -12.4458 0)
(56.1289 -12.721 0)
(68.9495 -13.2703 0)
(81.5809 -13.1916 0)
(94.0196 -13.4325 0)
(106.498 -13.6785 0)
(118.747 -13.6523 0)
(130.831 -13.7444 0)
(142.623 -13.6117 0)
(154.138 -13.5118 0)
(165.286 -13.2675 0)
(176.074 -13.0289 0)
(186.537 -12.8097 0)
(196.723 -12.6062 0)
(206.682 -12.4397 0)
(216.311 -12.1392 0)
(225.636 -11.8698 0)
(234.71 -11.5329 0)
(243.305 -11.134 0)
(251.696 -10.8327 0)
(259.633 -10.3599 0)
(267.301 -10.0906 0)
(274.766 -9.69888 0)
(281.886 -9.38007 0)
(288.919 -9.0401 0)
(295.512 -8.61759 0)
(301.959 -8.3119 0)
(308.093 -7.91104 0)
(314.002 -7.54734 0)
(319.539 -7.14431 0)
(324.886 -6.89222 0)
(330.057 -6.55676 0)
(335.039 -6.2843 0)
(339.81 -5.93518 0)
(344.325 -5.67973 0)
(348.689 -5.35815 0)
(352.792 -5.11989 0)
(356.748 -4.83661 0)
(360.511 -4.63007 0)
(364.178 -4.36933 0)
(367.627 -4.17371 0)
(370.977 -3.95161 0)
(374.183 -3.77908 0)
(377.351 -3.59351 0)
(380.434 -3.42805 0)
(383.483 -3.23322 0)
(386.352 -3.05255 0)
(389.039 -2.8865 0)
(391.528 -2.7391 0)
(393.87 -2.60481 0)
(396.14 -2.49058 0)
(398.388 -2.36281 0)
(400.561 -2.24313 0)
(402.66 -2.12776 0)
(404.662 -2.02001 0)
(406.568 -1.92163 0)
(408.378 -1.82885 0)
(410.116 -1.74219 0)
(411.781 -1.65822 0)
(413.355 -1.58663 0)
(414.854 -1.51408 0)
(416.244 -1.4543 0)
(417.559 -1.39412 0)
(418.799 -1.33941 0)
(419.967 -1.28771 0)
(421.17 -1.2441 0)
(422.409 -1.14564 0)
(423.699 -1.12578 0)
(425.089 -0.936618 0)
(426.917 -1.2116 0)
(427.395 -0.867749 0)
(428.227 -0.722017 0)
(429.379 -0.933537 0)
(429.862 -0.839985 0)
(430.462 -0.801373 0)
(431.103 -0.811161 0)
(431.763 -0.79693 0)
(432.433 -0.750581 0)
(433.116 -0.712406 0)
(433.81 -0.673131 0)
(434.5 -0.642476 0)
(435.186 -0.609413 0)
(435.873 -0.573236 0)
(436.557 -0.537956 0)
(437.246 -0.504134 0)
(437.915 -0.474582 0)
(438.523 -0.455535 0)
(439.1 -0.4331 0)
(439.643 -0.413434 0)
(440.171 -0.393485 0)
(440.66 -0.377967 0)
(441.118 -0.361519 0)
(441.543 -0.349809 0)
(441.947 -0.339137 0)
(442.302 -0.325551 0)
(442.632 -0.315004 0)
(442.937 -0.300957 0)
(443.244 -0.285138 0)
(443.543 -0.273791 0)
(443.846 -0.254884 0)
(444.128 -0.244792 0)
(444.393 -0.235733 0)
(444.647 -0.225259 0)
(444.906 -0.214442 0)
(445.173 -0.195854 0)
(445.46 -0.176732 0)
(445.765 -0.149881 0)
(446.091 -0.123494 0)
(446.425 -0.113563 0)
(446.771 -0.0880643 0)
(447.136 -0.106619 0)
(447.371 -0.0718599 0)
(447.615 -0.0664477 0)
(447.871 -0.0717989 0)
(448.028 -0.0763976 0)
(448.197 -0.0769046 0)
(448.275 -0.077434 0)
(448.359 -0.0802714 0)
(448.409 -0.0781843 0)
(448.461 -0.0759694 0)
(448.518 -0.0732383 0)
(448.581 -0.0677995 0)
(448.656 -0.0585352 0)
(448.754 -0.0510781 0)
(448.862 -0.0317103 0)
(448.989 -0.0232298 0)
(449.125 -0.0103956 0)
(449.285 -0.000911043 0)
(449.442 0.00168002 0)
(449.575 0.0115452 0)
(449.664 0.0133568 0)
(449.769 0.00557797 0)
(449.781 -0.000224083 0)
(449.778 0.00203231 0)
(449.761 -0.000400035 0)
(449.722 -0.00459445 0)
(449.664 -0.00756364 0)
(449.599 -0.00782818 0)
(449.534 -0.00610837 0)
(449.489 -0.000518871 0)
(449.475 0.00464293 0)
(449.462 0.0184973 0)
(449.485 0.0163812 0)
(449.511 0.0294669 0)
(449.558 0.034114 0)
(449.589 0.0414247 0)
(449.603 0.044866 0)
(449.593 0.0448925 0)
(449.566 0.041437 0)
(449.519 0.0388252 0)
(449.448 0.0306278 0)
(449.346 0.029044 0)
(449.223 0.0267082 0)
(449.095 0.0244379 0)
(448.963 0.0222828 0)
(448.842 0.0278432 0)
(448.726 0.0191509 0)
(448.581 0.0535941 0)
(448.564 0.0325603 0)
(448.527 0.0373246 0)
(448.475 0.0529533 0)
(448.444 0.0519162 0)
(448.399 0.0553215 0)
(448.338 0.0574348 0)
(448.259 0.0576368 0)
(448.16 0.0536807 0)
(448.04 0.051122 0)
(447.904 0.0469332 0)
(447.754 0.0433939 0)
(447.584 0.0418807 0)
(447.414 0.0398768 0)
(447.24 0.0367312 0)
(447.063 0.0520741 0)
(446.947 0.0410252 0)
(446.824 0.0439138 0)
(446.693 0.0547524 0)
(446.611 0.0534478 0)
(446.516 0.0561481 0)
(446.414 0.0593186 0)
(446.305 0.0605403 0)
(446.181 0.0626599 0)
(446.044 0.0591643 0)
(445.891 0.0568808 0)
(445.723 0.0540648 0)
(445.542 0.0509076 0)
(445.35 0.0481391 0)
(445.155 0.0459147 0)
(444.957 0.044417 0)
(444.687 0.0507753 0)
(5.79315 -25.1068 0)
(6.77899 -8.32979 0)
(10.2892 -2.15208 0)
(8.46564 2.54453 0)
(3.06121 5.34705 0)
(-5.7193 9.3753 0)
(-20.1113 15.0476 0)
(-41.7348 22.1869 0)
(-65.7193 29.9497 0)
(-85.5453 35.4284 0)
(-100.382 36.9911 0)
(-110.66 35.7306 0)
(-117.887 33.1283 0)
(-123.265 27.5275 0)
(-128.702 22.5692 0)
(-133.725 17.9945 0)
(-138.279 14.6507 0)
(-142.187 12.2257 0)
(-145.575 10.4303 0)
(-148.46 9.15091 0)
(-150.638 8.06423 0)
(-152.466 7.25337 0)
(-153.812 6.50891 0)
(-154.657 5.83214 0)
(-154.968 5.16835 0)
(-154.64 4.43908 0)
(-153.647 3.73456 0)
(-151.919 2.94725 0)
(-149.479 2.17588 0)
(-146.254 1.34726 0)
(-142.241 0.493011 0)
(-137.481 -0.395506 0)
(-131.89 -1.31809 0)
(-125.544 -2.35337 0)
(-118.344 -3.23159 0)
(-110.492 -4.18632 0)
(-101.944 -5.05195 0)
(-92.7909 -6.34444 0)
(-82.8269 -7.33617 0)
(-72.4153 -8.31923 0)
(-61.4317 -9.64174 0)
(-49.807 -10.7079 0)
(-37.7617 -11.5792 0)
(-25.4105 -12.6337 0)
(-12.7422 -13.3531 0)
(0.0277652 -14.3557 0)
(13.1685 -14.9132 0)
(26.3021 -15.9225 0)
(39.84 -16.5974 0)
(53.3843 -17.5292 0)
(67.0253 -17.6652 0)
(80.4819 -18.5094 0)
(94.0707 -18.8365 0)
(107.505 -19.5339 0)
(120.635 -19.326 0)
(133.508 -19.728 0)
(146.363 -20.0952 0)
(158.875 -20.0547 0)
(171.155 -20.1319 0)
(183.044 -19.8668 0)
(194.618 -19.686 0)
(205.738 -19.2615 0)
(216.459 -18.8908 0)
(226.804 -18.5242 0)
(236.834 -18.1931 0)
(246.593 -17.8802 0)
(255.948 -17.3715 0)
(264.967 -16.9481 0)
(273.669 -16.3566 0)
(281.827 -15.7456 0)
(289.771 -15.2444 0)
(297.218 -14.5507 0)
(304.399 -14.1363 0)
(311.355 -13.5408 0)
(317.962 -13.074 0)
(324.463 -12.5447 0)
(330.528 -11.943 0)
(336.421 -11.4909 0)
(342.049 -10.9139 0)
(347.409 -10.3981 0)
(352.426 -9.84474 0)
(357.266 -9.47653 0)
(361.95 -8.99794 0)
(366.421 -8.6078 0)
(370.686 -8.12443 0)
(374.703 -7.76845 0)
(378.588 -7.32987 0)
(382.225 -7.00597 0)
(385.732 -6.62119 0)
(389.068 -6.33646 0)
(392.318 -5.98426 0)
(395.373 -5.72488 0)
(398.339 -5.4212 0)
(401.175 -5.18348 0)
(403.982 -4.91876 0)
(406.7 -4.68342 0)
(409.4 -4.41671 0)
(411.915 -4.18756 0)
(414.279 -3.98048 0)
(416.475 -3.79688 0)
(418.548 -3.62102 0)
(420.561 -3.45855 0)
(422.556 -3.27832 0)
(424.478 -3.11683 0)
(426.34 -2.96304 0)
(428.112 -2.82271 0)
(429.805 -2.6947 0)
(431.413 -2.57269 0)
(432.965 -2.457 0)
(434.446 -2.34732 0)
(435.853 -2.25583 0)
(437.196 -2.16444 0)
(438.439 -2.0926 0)
(439.628 -2.01298 0)
(440.738 -1.94256 0)
(441.801 -1.87262 0)
(442.894 -1.78681 0)
(444.014 -1.64559 0)
(445.193 -1.59341 0)
(446.441 -1.35252 0)
(448.034 -1.69724 0)
(448.51 -1.30846 0)
(449.271 -1.13079 0)
(450.232 -1.34154 0)
(450.765 -1.29971 0)
(451.338 -1.24421 0)
(451.941 -1.23109 0)
(452.56 -1.19597 0)
(453.184 -1.12506 0)
(453.819 -1.06458 0)
(454.462 -1.00391 0)
(455.102 -0.957948 0)
(455.74 -0.908098 0)
(456.377 -0.854146 0)
(457.011 -0.801599 0)
(457.652 -0.754182 0)
(458.269 -0.719096 0)
(458.836 -0.69675 0)
(459.379 -0.666726 0)
(459.891 -0.63965 0)
(460.389 -0.612267 0)
(460.853 -0.592181 0)
(461.291 -0.569821 0)
(461.699 -0.554942 0)
(462.091 -0.538249 0)
(462.436 -0.524745 0)
(462.756 -0.508685 0)
(463.052 -0.489426 0)
(463.35 -0.464753 0)
(463.637 -0.446517 0)
(463.93 -0.419046 0)
(464.197 -0.406431 0)
(464.454 -0.392972 0)
(464.7 -0.375863 0)
(464.95 -0.355811 0)
(465.207 -0.326944 0)
(465.482 -0.293421 0)
(465.773 -0.252329 0)
(466.08 -0.211668 0)
(466.397 -0.195018 0)
(466.723 -0.161108 0)
(467.066 -0.190364 0)
(467.298 -0.143297 0)
(467.534 -0.138478 0)
(467.779 -0.148357 0)
(467.94 -0.15904 0)
(468.112 -0.163888 0)
(468.2 -0.164565 0)
(468.295 -0.16602 0)
(468.358 -0.162333 0)
(468.423 -0.155572 0)
(468.491 -0.146716 0)
(468.565 -0.134827 0)
(468.649 -0.118389 0)
(468.751 -0.0979917 0)
(468.863 -0.07167 0)
(468.992 -0.0541584 0)
(469.128 -0.0326178 0)
(469.284 -0.0150831 0)
(469.439 -0.0139966 0)
(469.573 -0.0064946 0)
(469.666 -0.0049636 0)
(469.774 -0.0188943 0)
(469.8 -0.0246332 0)
(469.812 -0.0244829 0)
(469.805 -0.0286785 0)
(469.781 -0.0351646 0)
(469.74 -0.039408 0)
(469.693 -0.0362404 0)
(469.646 -0.0299918 0)
(469.613 -0.0171554 0)
(469.608 -0.00479441 0)
(469.604 0.0119006 0)
(469.628 0.0193121 0)
(469.656 0.037281 0)
(469.704 0.0458261 0)
(469.735 0.0529903 0)
(469.754 0.0554513 0)
(469.747 0.0559256 0)
(469.726 0.0490651 0)
(469.688 0.0417967 0)
(469.628 0.0310657 0)
(469.539 0.0276528 0)
(469.431 0.0236397 0)
(469.316 0.022446 0)
(469.198 0.0197082 0)
(469.09 0.0316121 0)
(468.98 0.0240616 0)
(468.852 0.0710047 0)
(468.83 0.0527491 0)
(468.792 0.0565133 0)
(468.741 0.0765151 0)
(468.707 0.0782551 0)
(468.66 0.081437 0)
(468.6 0.0823967 0)
(468.522 0.0799128 0)
(468.428 0.073696 0)
(468.314 0.0686261 0)
(468.186 0.0627179 0)
(468.044 0.056125 0)
(467.883 0.0548245 0)
(467.722 0.0543009 0)
(467.555 0.0496467 0)
(467.387 0.0763413 0)
(467.27 0.063212 0)
(467.147 0.0671829 0)
(467.017 0.0842546 0)
(466.93 0.0837297 0)
(466.832 0.0861679 0)
(466.726 0.0899802 0)
(466.614 0.0910157 0)
(466.489 0.0920144 0)
(466.352 0.0864902 0)
(466.201 0.0822884 0)
(466.036 0.0777468 0)
(465.859 0.0733424 0)
(465.671 0.0690187 0)
(465.479 0.0677709 0)
(465.284 0.0663603 0)
(465.015 0.0762592 0)
(2.9041 -27.9526 0)
(3.3827 -9.81898 0)
(5.10614 -2.439 0)
(1.82273 5.72204 0)
(-7.19069 10.6924 0)
(-20.8979 17.473 0)
(-40.7957 26.4304 0)
(-61.9228 35.7944 0)
(-79.4196 41.4659 0)
(-92.5702 43.2172 0)
(-101.845 43.0114 0)
(-108.541 40.0888 0)
(-113.229 35.3082 0)
(-116.363 29.4203 0)
(-120.046 24.3391 0)
(-123.5 19.8771 0)
(-126.884 16.4895 0)
(-129.886 13.8877 0)
(-132.528 11.9117 0)
(-134.789 10.4484 0)
(-136.393 9.19191 0)
(-137.724 8.20304 0)
(-138.572 7.29113 0)
(-138.929 6.42154 0)
(-138.697 5.5262 0)
(-137.821 4.59677 0)
(-136.246 3.65228 0)
(-133.951 2.60891 0)
(-130.873 1.55403 0)
(-126.979 0.394941 0)
(-122.233 -0.755261 0)
(-116.699 -1.97898 0)
(-110.29 -3.22118 0)
(-103.095 -4.64316 0)
(-94.956 -5.87908 0)
(-86.1249 -7.18808 0)
(-76.545 -8.3551 0)
(-66.392 -10.0528 0)
(-55.324 -11.4148 0)
(-43.8072 -12.671 0)
(-31.7558 -14.4043 0)
(-19.0012 -15.8723 0)
(-5.79871 -17.0294 0)
(7.67217 -18.3947 0)
(21.4538 -19.2644 0)
(35.281 -20.5442 0)
(49.5073 -21.2344 0)
(63.7029 -22.5635 0)
(78.3019 -23.3717 0)
(92.8489 -24.5761 0)
(107.46 -24.688 0)
(121.786 -25.765 0)
(136.206 -26.0682 0)
(150.341 -26.8828 0)
(164.108 -26.4673 0)
(177.497 -27.0067 0)
(190.832 -27.3051 0)
(203.601 -27.0421 0)
(216.092 -27.0852 0)
(228.045 -26.5627 0)
(239.611 -26.2938 0)
(250.594 -25.5816 0)
(261.072 -25.0482 0)
(271.103 -24.4785 0)
(280.728 -23.9695 0)
(290.08 -23.4557 0)
(298.912 -22.7111 0)
(307.37 -22.0993 0)
(315.468 -21.2593 0)
(322.993 -20.4507 0)
(330.315 -19.7295 0)
(337.102 -18.8188 0)
(343.632 -18.2284 0)
(349.916 -17.4203 0)
(355.852 -16.7819 0)
(361.662 -16.0541 0)
(367.039 -15.2744 0)
(372.235 -14.6625 0)
(377.197 -13.9049 0)
(381.87 -13.2449 0)
(386.216 -12.5459 0)
(390.418 -12.0427 0)
(394.45 -11.3955 0)
(398.252 -10.869 0)
(401.856 -10.2425 0)
(405.24 -9.78651 0)
(408.511 -9.22839 0)
(411.567 -8.82538 0)
(414.511 -8.33794 0)
(417.313 -7.97616 0)
(420.042 -7.53142 0)
(422.604 -7.21334 0)
(425.084 -6.8282 0)
(427.45 -6.52419 0)
(429.79 -6.17438 0)
(432.046 -5.8685 0)
(434.3 -5.52816 0)
(436.369 -5.25852 0)
(438.328 -5.01619 0)
(440.147 -4.80271 0)
(441.868 -4.58853 0)
(443.54 -4.37796 0)
(445.197 -4.14507 0)
(446.787 -3.94304 0)
(448.331 -3.75204 0)
(449.796 -3.5822 0)
(451.202 -3.42746 0)
(452.537 -3.28016 0)
(453.83 -3.13802 0)
(455.057 -3.00626 0)
(456.227 -2.89502 0)
(457.343 -2.78562 0)
(458.374 -2.70364 0)
(459.368 -2.60352 0)
(460.284 -2.52288 0)
(461.183 -2.43071 0)
(462.104 -2.3088 0)
(463.043 -2.12298 0)
(464.049 -2.03472 0)
(465.094 -1.75477 0)
(466.4 -2.08919 0)
(466.825 -1.76074 0)
(467.454 -1.56011 0)
(468.178 -1.73297 0)
(468.717 -1.74097 0)
(469.188 -1.67516 0)
(469.692 -1.6392 0)
(470.215 -1.58455 0)
(470.742 -1.4916 0)
(471.278 -1.41112 0)
(471.822 -1.32783 0)
(472.366 -1.26434 0)
(472.911 -1.19735 0)
(473.456 -1.12609 0)
(473.998 -1.05678 0)
(474.548 -0.991951 0)
(475.072 -0.95083 0)
(475.558 -0.925712 0)
(476.028 -0.889355 0)
(476.469 -0.856499 0)
(476.897 -0.823538 0)
(477.297 -0.799904 0)
(477.676 -0.773142 0)
(478.028 -0.756306 0)
(478.368 -0.73544 0)
(478.666 -0.721559 0)
(478.944 -0.701185 0)
(479.201 -0.678177 0)
(479.457 -0.643907 0)
(479.706 -0.619391 0)
(479.959 -0.58145 0)
(480.186 -0.56827 0)
(480.408 -0.547957 0)
(480.621 -0.525907 0)
(480.838 -0.496257 0)
(481.062 -0.457105 0)
(481.301 -0.408149 0)
(481.555 -0.352282 0)
(481.821 -0.297873 0)
(482.099 -0.273518 0)
(482.384 -0.228515 0)
(482.684 -0.263619 0)
(482.893 -0.214342 0)
(483.096 -0.21066 0)
(483.306 -0.221155 0)
(483.449 -0.235478 0)
(483.602 -0.246758 0)
(483.679 -0.252 0)
(483.761 -0.254208 0)
(483.816 -0.248711 0)
(483.873 -0.236839 0)
(483.932 -0.221982 0)
(483.997 -0.203841 0)
(484.071 -0.178549 0)
(484.161 -0.145613 0)
(484.26 -0.112999 0)
(484.375 -0.0843671 0)
(484.495 -0.0545712 0)
(484.633 -0.028101 0)
(484.771 -0.0280035 0)
(484.889 -0.0263962 0)
(484.972 -0.0226997 0)
(485.066 -0.0425276 0)
(485.09 -0.0483936 0)
(485.1 -0.0528957 0)
(485.091 -0.0580809 0)
(485.068 -0.0679509 0)
(485.029 -0.0741843 0)
(484.986 -0.0682051 0)
(484.942 -0.0567716 0)
(484.91 -0.0352908 0)
(484.904 -0.0160655 0)
(484.893 0.0064434 0)
(484.916 0.0230268 0)
(484.936 0.0457937 0)
(484.976 0.058821 0)
(485 0.0660547 0)
(485.012 0.0671465 0)
(485.002 0.0672458 0)
(484.98 0.0561909 0)
(484.941 0.0440531 0)
(484.882 0.0312687 0)
(484.797 0.025958 0)
(484.694 0.0181778 0)
(484.585 0.0184725 0)
(484.472 0.0174637 0)
(484.368 0.0324104 0)
(484.261 0.0299092 0)
(484.143 0.0862022 0)
(484.112 0.0748968 0)
(484.068 0.0785874 0)
(484.016 0.101346 0)
(483.975 0.105942 0)
(483.923 0.10894 0)
(483.859 0.108264 0)
(483.78 0.103255 0)
(483.684 0.0944509 0)
(483.573 0.0867138 0)
(483.446 0.0789042 0)
(483.307 0.069007 0)
(483.152 0.0672842 0)
(482.994 0.0691189 0)
(482.83 0.0629326 0)
(482.669 0.100109 0)
(482.549 0.0867445 0)
(482.425 0.0921736 0)
(482.295 0.115125 0)
(482.202 0.115778 0)
(482.099 0.118377 0)
(481.989 0.122657 0)
(481.873 0.123421 0)
(481.746 0.123029 0)
(481.607 0.115477 0)
(481.455 0.109206 0)
(481.29 0.102704 0)
(481.114 0.0969571 0)
(480.928 0.0910107 0)
(480.738 0.0904182 0)
(480.545 0.0892443 0)
(480.276 0.103214 0)
(0.426286 -29.3414 0)
(0.772509 -9.66148 0)
(-2.23545 -1.5547 0)
(-7.2671 9.74515 0)
(-19.634 18.1175 0)
(-37.2774 27.965 0)
(-56.1665 38.6576 0)
(-72.0908 45.5007 0)
(-84.0772 48.5603 0)
(-92.7652 48.757 0)
(-99.0656 46.6362 0)
(-103.2 41.9971 0)
(-105.728 36.575 0)
(-107.746 30.7626 0)
(-110.137 25.6876 0)
(-112.603 21.2577 0)
(-115.084 17.7953 0)
(-117.329 15.0772 0)
(-119.291 12.9615 0)
(-120.947 11.3524 0)
(-121.97 9.95857 0)
(-122.779 8.80037 0)
(-123.077 7.70547 0)
(-122.859 6.61302 0)
(-121.999 5.52339 0)
(-120.509 4.35047 0)
(-118.276 3.13933 0)
(-115.284 1.79179 0)
(-111.438 0.424351 0)
(-106.737 -1.09356 0)
(-101.105 -2.57878 0)
(-94.6322 -4.17527 0)
(-87.226 -5.76051 0)
(-79.008 -7.6209 0)
(-69.7313 -9.25409 0)
(-59.7232 -10.9629 0)
(-48.8812 -12.4377 0)
(-37.4944 -14.6214 0)
(-25.055 -16.4125 0)
(-12.1756 -17.9044 0)
(1.1924 -20.0644 0)
(15.3278 -21.936 0)
(29.9667 -23.3583 0)
(44.8536 -25.0566 0)
(60.1585 -26.1196 0)
(75.5278 -27.7633 0)
(91.3549 -28.5668 0)
(107.133 -30.2603 0)
(123.314 -31.1344 0)
(139.357 -32.5879 0)
(155.329 -32.5239 0)
(170.849 -33.8559 0)
(186.401 -34.0081 0)
(201.417 -34.8591 0)
(216.1 -34.1035 0)
(229.882 -34.696 0)
(243.705 -34.891 0)
(256.669 -34.2397 0)
(269.244 -34.2266 0)
(281.249 -33.3876 0)
(292.539 -32.8804 0)
(303.281 -31.8435 0)
(313.173 -31.0357 0)
(322.649 -30.1962 0)
(331.517 -29.4313 0)
(340.229 -28.6974 0)
(348.231 -27.663 0)
(355.834 -26.8088 0)
(363.04 -25.6764 0)
(369.608 -24.652 0)
(376.019 -23.6889 0)
(381.791 -22.5628 0)
(387.372 -21.7904 0)
(392.642 -20.7592 0)
(397.59 -19.9519 0)
(402.398 -19.0172 0)
(406.763 -18.0741 0)
(410.966 -17.3076 0)
(414.951 -16.373 0)
(418.655 -15.5934 0)
(422.032 -14.7653 0)
(425.323 -14.1464 0)
(428.474 -13.3567 0)
(431.451 -12.7344 0)
(434.259 -11.9848 0)
(436.904 -11.4496 0)
(439.457 -10.7875 0)
(441.838 -10.3216 0)
(444.128 -9.7434 0)
(446.309 -9.31877 0)
(448.432 -8.79234 0)
(450.418 -8.41646 0)
(452.314 -7.94229 0)
(454.117 -7.57415 0)
(455.893 -7.14389 0)
(457.61 -6.77527 0)
(459.335 -6.36961 0)
(460.888 -6.0824 0)
(462.384 -5.8164 0)
(463.764 -5.58677 0)
(465.072 -5.3443 0)
(466.34 -5.09172 0)
(467.595 -4.81309 0)
(468.791 -4.57883 0)
(469.961 -4.35918 0)
(471.063 -4.16975 0)
(472.131 -3.99596 0)
(473.139 -3.82986 0)
(474.123 -3.66816 0)
(475.043 -3.52131 0)
(475.929 -3.39998 0)
(476.765 -3.28095 0)
(477.541 -3.19683 0)
(478.289 -3.08063 0)
(478.973 -2.99991 0)
(479.661 -2.88887 0)
(480.366 -2.72211 0)
(481.077 -2.49155 0)
(481.862 -2.36239 0)
(482.662 -2.08226 0)
(483.64 -2.36678 0)
(483.993 -2.13653 0)
(484.442 -1.934 0)
(484.915 -2.04773 0)
(485.39 -2.10314 0)
(485.722 -2.04798 0)
(486.089 -1.98779 0)
(486.481 -1.91059 0)
(486.873 -1.79729 0)
(487.277 -1.69813 0)
(487.685 -1.59484 0)
(488.101 -1.51683 0)
(488.519 -1.43326 0)
(488.94 -1.34598 0)
(489.359 -1.26171 0)
(489.787 -1.18461 0)
(490.186 -1.14232 0)
(490.564 -1.11463 0)
(490.932 -1.07378 0)
(491.272 -1.03853 0)
(491.603 -1.00052 0)
(491.91 -0.975797 0)
(492.202 -0.944006 0)
(492.469 -0.927108 0)
(492.73 -0.905791 0)
(492.954 -0.893341 0)
(493.162 -0.869226 0)
(493.355 -0.841636 0)
(493.546 -0.801374 0)
(493.732 -0.770245 0)
(493.921 -0.724351 0)
(494.087 -0.709805 0)
(494.25 -0.685326 0)
(494.409 -0.657433 0)
(494.572 -0.618051 0)
(494.743 -0.568368 0)
(494.927 -0.50389 0)
(495.125 -0.432813 0)