distance,T,p,U_0,U_1,U_2
0.00155556,266.403,13212.2,424.372,-1.13641,0
0.00311111,179.132,5296.77,571.712,-164.957,0
0.00466667,144.535,4100.15,611.921,-189.968,0
0.00622222,131.077,3850.55,623.867,-204.883,0
0.00777778,120.993,3620.4,635.984,-206.197,0
0.00933333,113.769,3522.82,644.356,-209.652,0
0.0108889,108.638,3468.3,651.489,-210.421,0
0.0124444,105.507,3441.22,656.181,-212.116,0
0.014,104.264,3426.88,659.136,-212.494,0
0.0155556,104.307,3428.83,659.902,-212.788,0
0.0171111,104.756,3470.52,659.931,-212.091,0
0.0186667,104.205,3466.43,661.278,-211.778,0
0.0202222,103.938,3481.21,661.885,-211.693,0
0.0217778,104.042,3492.33,662.056,-210.996,0
0.0233333,104.234,3492.62,661.825,-210.842,0
0.0248889,104.474,3485.47,661.511,-210.676,0
0.0264444,104.593,3489.56,661.397,-210.465,0
0.028,104.665,3508.8,661.399,-210.065,0
0.0295556,104.544,3510.46,661.643,-209.856,0
0.0311111,104.615,3516.99,661.612,-209.632,0
0.0326667,103.016,3329.12,661.551,-217.356,0
0.0342222,104.807,3521.96,661.408,-209.353,0
0.0357778,104.879,3527.46,661.365,-209.147,0
0.0373333,104.848,3530.29,661.488,-208.915,0
0.0388889,104.785,3531.69,661.63,-208.779,0
0.0404444,104.837,3537.17,661.594,-208.652,0
0.042,104.889,3539.73,661.563,-208.508,0
0.0435556,104.938,3541.57,661.53,-208.384,0
0.0451111,104.941,3542.91,661.546,-208.331,0
0.0466667,104.971,3546.31,661.539,-208.232,0
0.0482222,104.946,3546.91,661.604,-208.159,0
0.0497778,104.965,3548.79,661.622,-208.017,0
0.0513333,105.011,3551.49,661.579,-207.935,0
0.0528889,105.035,3554.77,661.556,-207.895,0
0.0544444,105.01,3554.43,661.627,-207.803,0
0.056,105.037,3556.29,661.628,-207.684,0
0.0575556,105.062,3557.87,661.596,-207.667,0
0.0591111,105.068,3560.13,661.607,-207.615,0
0.0606667,105.107,3563.3,661.577,-207.523,0
0.0622222,105.108,3563.77,661.602,-207.444,0
0.0637778,105.101,3563.77,661.628,-207.399,0
0.0653333,105.166,3567.06,661.557,-207.311,0
0.0668889,105.153,3568.31,661.59,-207.274,0
0.0684444,104.587,3496.42,661.432,-210.488,0
0.07,105.594,3616.23,661.083,-206.19,0
0.0715556,123.034,5474.65,646.345,-147.518,0
0.0731111,138.046,7968.33,635.846,-81.1352,0
0.0746667,154.878,11201.9,616.764,-15.6022,0
0.0762222,158.806,12154.3,610.721,-14.9385,0
0.0777778,159.488,12358.1,609.699,-9.41639,0
0.0793333,159.278,12384.6,610.062,-7.93287,0
0.0808889,159.718,12525.4,609.329,-6.07273,0
0.0824444,160.019,12604.7,608.828,-5.8863,0
0.084,160.268,12720,608.431,-4.95068,0
0.0855556,160.169,12736.7,608.605,-4.35186,0
0.0871111,160.491,12831.4,608.613,-3.04925,0
0.0886667,160.633,12860.4,608.353,-2.8197,0
0.0902222,160.381,12845.1,608.28,-2.94079,0
0.0917778,160.441,12884.3,608.191,-2.36175,0
0.0933333,160.523,12906.6,608.06,-2.21864,0
0.0948889,160.584,12942.5,607.967,-1.97821,0
0.0964444,160.593,12956.2,607.959,-1.86618,0
0.098,160.638,12972.8,607.893,-1.75663,0
0.0995556,160.917,12996.5,607.693,-1.31275,0
0.101111,160.674,13003.4,607.848,-1.37324,0
0.102667,160.727,13020.8,607.765,-1.33703,0
0.104222,160.832,13058,607.6,-1.241,0
0.105778,160.857,13072.4,607.562,-1.15487,0
0.107333,160.907,13088.6,607.482,-1.08559,0
0.108889,160.907,13096.2,607.483,-1.00944,0
0.110444,160.941,13112.3,607.43,-0.931992,0
0.112,160.96,13121,607.399,-0.922532,0
0.113556,160.985,13131.4,607.358,-0.924223,0
0.115111,161.022,13143.7,607.296,-0.909694,0
0.116667,161.041,13154.2,607.265,-0.846506,0
0.118222,161.069,13173.6,607.219,-0.564865,0
0.119778,161.138,13189.1,607.103,-0.350933,0
0.121333,161.086,13188.9,607.191,-0.0932113,0
0.122889,161.166,13202.4,607.056,0.120488,0
0.124444,161.389,13211,606.758,0.38086,0
0.126,161.182,13212.9,607.028,0.474267,0
0.127556,161.159,13214.4,607.065,0.595812,0
0.129111,161.204,13227.4,606.99,0.669862,0
0.130667,161.219,13233.7,606.963,0.666677,0
0.132222,161.236,13240.6,606.933,0.650767,0
0.133778,161.255,13248.2,606.9,0.624569,0
0.135333,161.508,13255.1,606.528,0.66123,0
0.136889,161.527,13263.2,606.494,0.619886,0
0.138444,161.553,13272.3,606.447,0.593639,0
0.14,161.578,13281.6,606.401,0.576454,0
0.141556,161.371,13291.1,606.698,0.49914,0
0.143111,161.398,13300,606.65,0.521807,0
0.144667,161.409,13306.6,606.632,0.574521,0
0.146222,161.44,13315.8,606.577,0.635884,0
0.147778,161.435,13319.5,606.584,0.727599,0
0.149333,161.471,13327.8,606.523,0.842694,0
0.150889,161.437,13326.3,606.577,0.984565,0
0.152444,161.482,13333.7,606.501,1.11427,0
0.154,161.448,13332,606.556,1.25391,0
