/*--------------------------------*- C++ -*----------------------------------*\
| =========                 |                                                 |
| \\      /  F ield         | OpenFOAM: The Open Source CFD Toolbox           |
|  \\    /   O peration     | Version:  2312                                  |
|   \\  /    A nd           | Website:  www.openfoam.com                      |
|    \\/     M anipulation  |                                                 |
\*---------------------------------------------------------------------------*/
FoamFile
{
    version     2.0;
    format      ascii;
    arch        "LSB;label=32;scalar=64";
    class       surfaceScalarField;
    location    "600";
    object      phi;
}
// * * * * * * * * * * * * * * * * * * * * * * * * * * * * * * * * * * * * * //

dimensions      [1 0 -1 0 0 0 0];

oriented        oriented;

internalField   nonuniform List<scalar> 
40240
(
2.47519e-05
-2.47519e-05
-4.46072e-05
6.93591e-05
-0.00022351
0.000178903
-0.000492239
0.000268729
-0.000823497
0.000331257
-0.00119224
0.000368745
-0.00157958
0.000387337
-0.0019746
0.000395021
-0.00236963
0.000395035
-0.00275859
0.000388954
-0.00313734
0.000378752
-0.0035035
0.00036616
-0.00385574
0.000352234
-0.00419318
0.000337449
-0.00451514
0.000321953
-0.00482099
0.000305849
-0.00511036
0.00028937
-0.00538303
0.000272673
-0.00563837
0.000255337
-0.00587516
0.000236795
-0.00609255
0.000217393
-0.00629004
0.000197483
-0.00646721
0.000177172
-0.00662364
0.000156434
-0.00675885
0.000135208
-0.00687233
0.000113481
-0.00696362
9.12846e-05
-0.00703219
6.85693e-05
-0.00707739
4.52068e-05
-0.00709913
2.17393e-05
-0.00709772
-1.41057e-06
-0.00707216
-2.55629e-05
-0.00702246
-4.96935e-05
-0.00694855
-7.39117e-05
-0.00685211
-9.6439e-05
-0.00673514
-0.000116973
-0.00659351
-0.000141628
-0.00642579
-0.000167721
-0.00623412
-0.000191676
-0.00601979
-0.000214323
-0.00578312
-0.000236671
-0.00552499
-0.000258128
-0.00525005
-0.000274943
-0.00496321
-0.000286842
-0.00466225
-0.000300959
-0.00433955
-0.000322694
-0.00399698
-0.000342578
-0.00363827
-0.000358708
-0.00326855
-0.000369722
-0.00289875
-0.0003698
-0.00252838
-0.000370366
-0.00213762
-0.000390763
-0.00174343
-0.000394185
-0.00134337
-0.000400065
-0.000937375
-0.000405994
-0.000536197
-0.000401177
-0.000137077
-0.00039912
0.000262141
-0.000399218
0.00066229
-0.000400149
0.00106134
-0.000399047
0.00145689
-0.000395558
0.00184707
-0.000390179
0.00223046
-0.000383387
0.00260596
-0.000375497
0.00297268
-0.000366721
0.00332989
-0.000357207
0.00367696
-0.000347072
0.00401337
-0.000336416
0.0043387
-0.000325328
0.0046526
-0.000313895
0.00495479
-0.000302194
0.00524509
-0.000290294
0.00552332
-0.000278233
0.00578931
-0.000265993
0.00604305
-0.000253741
0.00628462
-0.000241565
0.00651416
-0.00022954
0.00673184
-0.000217683
0.00693786
-0.000206021
0.00713246
-0.000194603
0.00731593
-0.000183469
0.00748858
-0.000172651
0.00765075
-0.000162163
0.00780276
-0.000152014
0.00794497
-0.000142213
0.00807774
-0.000132768
0.00820143
-0.000123689
0.00831641
-0.000114984
0.00842307
-0.000106659
0.00852179
-9.87172e-05
0.00861295
-9.11602e-05
0.00869694
-8.39864e-05
0.00877413
-7.71924e-05
0.0088449
-7.07726e-05
0.00890962
-6.47199e-05
0.00896865
-5.90257e-05
0.00902233
-5.36802e-05
0.009071
-4.86727e-05
0.00911499
-4.39915e-05
0.00915462
-3.96247e-05
0.00919018
-3.55595e-05
0.00922196
-3.17831e-05
0.00925024
-2.82825e-05
0.00927529
-2.50443e-05
0.00929734
-2.20556e-05
0.00931665
-1.93034e-05
0.00933342
-1.67748e-05
0.00934788
-1.44572e-05
0.00936022
-1.23384e-05
0.00937062
-1.04063e-05
0.00937927
-8.64949e-06
0.00938633
-7.0566e-06
0.00939194
-5.61684e-06
0.00939626
-4.31971e-06
0.00939942
-3.15478e-06
0.00940153
-2.11214e-06
0.00940272
-1.18723e-06
0.0094031
-3.84422e-07
0.00940278
3.21463e-07
0.00940181
9.74851e-07
0.00940026
1.5439e-06
0.00939824
2.0271e-06
0.0093958
2.43442e-06
0.00939303
2.77459e-06
0.00938997
3.05251e-06
0.0093867
3.27375e-06
0.00938326
3.44471e-06
0.00937968
3.57146e-06
0.00937602
3.65931e-06
0.00937231
3.71279e-06
0.00936858
3.73548e-06
0.00936485
3.73012e-06
0.00936115
3.70001e-06
0.0093575
3.649e-06
0.00935392
3.57998e-06
0.00935042
3.49558e-06
0.00934702
3.39857e-06
0.00934373
3.29113e-06
0.00934056
3.17515e-06
0.0093375
3.05237e-06
0.00933458
2.92411e-06
0.00933179
2.79138e-06
0.00932913
2.6551e-06
0.00932662
2.51616e-06
0.00932424
2.37546e-06
0.00932201
2.23387e-06
0.00931992
2.09223e-06
0.00931797
1.95126e-06
0.00931615
1.81167e-06
0.00931448
1.67405e-06
0.00931294
1.53893e-06
0.00931153
1.40676e-06
0.00931026
1.27795e-06
0.0093091
1.15281e-06
0.00930807
1.03163e-06
0.00930716
9.14628e-07
0.00930635
8.01977e-07
0.00930566
6.9381e-07
0.00930507
5.9022e-07
0.00930458
4.91259e-07
0.00930418
3.9694e-07
0.00930388
3.07204e-07
0.00930365
2.21909e-07
0.00930351
1.41076e-07
0.00930345
6.5483e-08
0.00930345
-4.2127e-09
0.00930352
-6.95766e-08
0.00930365
-1.32095e-07
0.00930384
-1.90825e-07
0.00930409
-2.45668e-07
0.00930438
-2.9503e-07
0.00930473
-3.4264e-07
0.00930511
-3.84232e-07
0.00930553
-4.22048e-07
0.00930599
-4.56964e-07
0.00930648
-4.89164e-07
0.009307
-5.18665e-07
0.00930754
-5.4562e-07
0.00930811
-5.68683e-07
0.0093087
-5.88499e-07
0.00930931
-6.05553e-07
0.00930993
-6.20349e-07
0.00931056
-6.33173e-07
0.0093112
-6.44152e-07
0.00931186
-6.53417e-07
0.00931252
-6.60352e-07
0.00931318
-6.65154e-07
0.00931385
-6.68008e-07
0.00931452
-6.69172e-07
0.00931519
-6.68874e-07
0.00931586
-6.67295e-07
0.00931652
-6.64613e-07
0.00931718
-6.60982e-07
0.00931784
-6.56463e-07
0.00931849
-6.50832e-07
0.00931913
-6.44125e-07
0.00931977
-6.36406e-07
0.0093204
-6.27817e-07
0.00932102
-6.18544e-07
0.00932162
-6.08727e-07
0.00932222
-5.98429e-07
0.00932281
-5.87662e-07
0.00932339
-5.76458e-07
0.00932395
-5.64871e-07
0.00932451
-5.52992e-07
0.00932505
-5.40978e-07
0.00932558
-5.28949e-07
0.00932609
-5.16821e-07
0.0093266
-5.04441e-07
0.00932709
-4.91818e-07
0.00932757
-4.79055e-07
0.00932803
-4.66242e-07
0.00932849
-4.53444e-07
0.00932893
-4.40711e-07
0.00932936
-4.2807e-07
0.00932977
-4.15533e-07
0.00933017
-4.0311e-07
0.00933057
-3.90816e-07
0.00933094
-3.78666e-07
0.00933131
-3.66677e-07
0.00933167
-3.54861e-07
0.00933201
-3.43231e-07
0.00933234
-3.31801e-07
0.00933266
-3.20582e-07
0.00933297
-3.09586e-07
0.00933327
-2.98817e-07
0.00933356
-2.8828e-07
0.00933384
-2.77976e-07
0.0093341
-2.67909e-07
0.00933436
-2.58082e-07
0.00933461
-2.48499e-07
0.00933485
-2.39162e-07
0.00933508
-2.30071e-07
0.0093353
-2.2123e-07
0.00933551
-2.12637e-07
0.00933572
-2.04292e-07
0.00933591
-1.96193e-07
0.0093361
-1.88338e-07
0.00933628
-1.80727e-07
0.00933646
-1.73355e-07
0.00933662
-1.6622e-07
0.00933678
-1.59318e-07
0.00933693
-1.52646e-07
0.00933708
-1.46201e-07
0.00933722
-1.39976e-07
0.00933735
-1.3397e-07
0.00933748
-1.28177e-07
0.00933761
-1.22592e-07
0.00933772
-1.17211e-07
0.00933783
-1.12029e-07
0.00933794
-1.07041e-07
0.00933804
-1.02242e-07
0.00933814
-9.76278e-08
0.00933823
-9.31927e-08
0.00933832
-8.89316e-08
0.00933841
-8.4839e-08
0.00933849
-8.09107e-08
0.00933857
-7.71411e-08
0.00933864
-7.35261e-08
0.00933871
-7.00605e-08
0.00933878
-6.67398e-08
0.00933884
-6.35585e-08
0.0093389
-6.05129e-08
0.00933896
-5.75976e-08
0.00933901
-5.48085e-08
0.00933907
-5.21409e-08
0.00933911
-4.95907e-08
0.00933916
-4.71533e-08
0.00933921
-4.48252e-08
0.00933925
-4.26021e-08
0.00933929
-4.04803e-08
0.00933933
-3.84557e-08
0.00933937
-3.65248e-08
0.0093394
-3.46831e-08
0.00933943
-3.29268e-08
0.00933946
-3.12517e-08
0.00933949
-2.96557e-08
0.00933952
-2.81354e-08
0.00933955
-2.66886e-08
0.00933957
-2.53114e-08
0.0093396
-2.40014e-08
0.00933962
-2.27557e-08
0.00933964
-2.15704e-08
0.00933966
-2.04437e-08
0.00933968
-1.93721e-08
0.0093397
-1.8354e-08
0.00933972
-1.7387e-08
0.00933973
-1.64683e-08
0.00933975
-1.55965e-08
0.00933976
-1.47689e-08
0.00933978
-1.39828e-08
0.00933979
-1.32368e-08
0.0093398
-1.25297e-08
0.00933982
-1.18595e-08
0.00933983
-1.12247e-08
0.00933984
-1.06229e-08
0.00933985
-1.00528e-08
0.00933986
-9.51251e-09
0.00933987
-9.00031e-09
0.00933987
-8.51463e-09
0.00933988
-8.0545e-09
0.00933989
-7.61864e-09
0.0093399
-7.20548e-09
0.0093399
-6.81447e-09
0.00933991
-6.44495e-09
0.00933992
-6.095e-09
0.00933992
-5.76393e-09
0.00933993
-5.4509e-09
0.00933993
-5.15531e-09
0.00933994
-4.87565e-09
0.00933994
-4.61176e-09
0.00933995
-4.36206e-09
0.00933995
-4.1251e-09
0.00933996
-3.9011e-09
0.00933996
-3.68868e-09
0.00933996
-3.48764e-09
0.00933997
-3.29771e-09
0.00933997
-3.11834e-09
0.00933997
-2.9484e-09
0.00933997
-2.78765e-09
0.00933998
-2.63545e-09
0.00933998
-2.49117e-09
0.00933998
-2.35466e-09
0.00933998
-2.2254e-09
0.00933999
-2.10364e-09
0.00933999
-1.98821e-09
0.00933999
-1.87919e-09
0.00933999
-1.7752e-09
0.00933999
-1.67704e-09
0.00934
-1.58292e-09
0.00934
-1.4937e-09
0.00934
-1.40903e-09
0.00934
-1.32871e-09
0.00934
-1.25201e-09
0.00934
-1.17937e-09
0.00934
-1.10978e-09
0.00934
-1.04369e-09
0.00934001
-9.80479e-10
0.00934001
-9.20116e-10
0.00934001
-8.62408e-10
0.00934001
-8.07323e-10
0.00934001
-7.54724e-10
0.00934001
-7.03834e-10
0.00934001
-6.55004e-10
0.00934001
-6.07969e-10
0.00934001
-5.63204e-10
0.00934001
-5.19922e-10
0.00934001
-4.77786e-10
0.00934001
-4.36752e-10
0.00934001
-3.97479e-10
0.00934001
-3.59129e-10
0.00934001
-3.21471e-10
0.00934001
-2.85445e-10
0.00934001
-2.50057e-10
0.00934001
-2.15678e-10
0.00934001
-1.82014e-10
0.00934001
-1.49232e-10
0.00934001
-1.16978e-10
0.00934001
-8.49898e-11
0.00934001
-5.40167e-11
0.00934002
-2.39951e-11
0.00934001
6.17608e-12
0.00934001
3.50073e-11
0.00934001
6.45133e-11
0.00934001
9.40152e-11
0.00934001
1.22904e-10
0.00934001
1.51373e-10
0.00934001
1.79516e-10
0.00934001
2.07737e-10
0.00934001
2.35534e-10
0.00934001
2.6343e-10
0.00934001
2.90751e-10
0.00934001
3.18247e-10
0.00934001
3.45888e-10
0.00934001
3.73332e-10
0.00934001
4.00458e-10
0.00934001
4.27711e-10
0.00934001
4.55191e-10
0.00934001
4.82138e-10
0.00934001
5.09292e-10
0.00934001
5.36448e-10
0.00934001
5.63328e-10
0.00934001
5.90667e-10
0.00934001
6.1802e-10
0.00934001
6.45046e-10
0.00934001
6.72145e-10
0.00934001
6.99142e-10
0.00934
7.26798e-10
0.00934
7.53677e-10
0.00934
7.81275e-10
0.00934
8.08702e-10
0.00934
8.35782e-10
0.00934
8.62949e-10
0.00934
8.90184e-10
0.00934
9.17262e-10
0.00934
9.44579e-10
0.00934
9.71672e-10
0.00934
9.98747e-10
0.00934
1.02592e-09
0.00933999
1.05265e-09
0.00933999
1.07974e-09
0.00933999
1.10658e-09
0.00933999
1.13355e-09
0.00933999
1.15991e-09
0.00933999
1.18641e-09
0.00933999
1.21299e-09
0.00933999
1.23893e-09
0.00933998
1.26493e-09
0.00933998
1.29094e-09
0.00933998
1.31634e-09
0.00933998
1.34181e-09
0.00933998
1.36673e-09
0.00933998
1.39151e-09
0.00933998
1.41596e-09
0.00933998
1.44026e-09
0.00933997
1.46407e-09
0.00933997
1.48751e-09
0.00933997
1.51065e-09
0.00933997
1.53348e-09
0.00933997
1.55608e-09
0.00933997
1.57818e-09
0.00933996
1.59941e-09
0.00933996
1.6204e-09
0.00933996
1.64103e-09
0.00933996
1.66086e-09
0.00933996
1.68039e-09
0.00933996
1.69928e-09
0.00933995
1.7177e-09
0.00933995
1.73529e-09
0.00933995
1.75235e-09
0.00933995
1.76892e-09
0.00933995
1.78456e-09
0.00933995
1.79961e-09
0.00933994
1.8137e-09
0.00933994
1.82744e-09
0.00933994
1.8404e-09
0.00933994
1.85236e-09
0.00933994
1.86359e-09
0.00933993
1.8739e-09
0.00933993
1.88362e-09
0.00933993
1.89195e-09
0.00933993
1.89983e-09
0.00933993
1.9063e-09
0.00933993
1.91209e-09
0.00933992
1.91681e-09
0.00933992
1.92079e-09
0.00933992
1.92379e-09
0.00933992
1.92621e-09
0.00933992
1.9275e-09
0.00933991
1.92808e-09
0.00933991
1.92756e-09
0.00933991
1.92574e-09
0.00933991
1.92293e-09
0.00933991
1.91913e-09
0.0093399
1.91402e-09
0.0093399
1.90814e-09
0.0093399
1.90111e-09
0.0093399
1.893e-09
0.0093399
1.88353e-09
0.00933989
1.87317e-09
0.00933989
1.86212e-09
0.00933989
1.84988e-09
0.00933989
1.8364e-09
0.00933989
1.82184e-09
0.00933989
1.80688e-09
0.00933988
1.7899e-09
0.00933988
1.77286e-09
0.00933988
1.75453e-09
0.00933988
1.73534e-09
0.00933988
1.71528e-09
0.00933987
1.69416e-09
0.00933987
1.6725e-09
0.00933987
1.64998e-09
0.00933987
1.62682e-09
0.00933987
1.60267e-09
0.00933987
1.57816e-09
0.00933987
1.55302e-09
0.00933986
1.52737e-09
0.00933986
1.50158e-09
0.00933986
1.47513e-09
0.00933986
1.44876e-09
0.00933986
1.42206e-09
0.00933986
1.39522e-09
0.00933985
1.36886e-09
0.00933985
1.34268e-09
0.00933985
1.31671e-09
0.00933985
1.29183e-09
0.00933985
1.26758e-09
0.00933985
1.24492e-09
0.00933985
1.22362e-09
0.00933985
1.20535e-09
0.00933984
1.19019e-09
0.00933984
1.18047e-09
0.00933984
1.17919e-09
0.00933984
1.19249e-09
0.00933984
1.23006e-09
0.00933984
1.30838e-09
0.00933984
1.48367e-09
0.00933984
1.92033e-09
2.66363e-09
-7.11346e-05
4.63827e-05
-0.00036396
0.000362184
-0.000893671
0.000708614
-0.00162085
0.000995911
-0.00249267
0.00120308
-0.00345836
0.00133444
-0.00447577
0.00140475
-0.0055127
0.00143194
-0.00654683
0.00142917
-0.00756219
0.00140431
-0.00854821
0.00136478
-0.00949824
0.00131618
-0.010408
0.00126196
-0.0112744
0.0012039
-0.0120953
0.00114279
-0.0128687
0.00107927
-0.0135936
0.00101425
-0.0142692
0.00094831
-0.0148941
0.000880272
-0.0154658
0.000808504
-0.0159826
0.0007342
-0.0164436
0.00065839
-0.0168477
0.000581363
-0.0171944
0.000503057
-0.0174825
0.000423331
-0.0177112
0.000342154
-0.0178795
0.000259608
-0.0179869
0.00017594
-0.0180334
9.17532e-05
-0.01802
8.35974e-06
-0.0179439
-7.75722e-05
-0.0178051
-0.000164311
-0.0176026
-0.000252195
-0.0173371
-0.000339404
-0.0170118
-0.000421719
-0.0166335
-0.000495287
-0.0161936
-0.000581577
-0.0156901
-0.000671172
-0.0151286
-0.000753225
-0.014512
-0.000830886
-0.0138417
-0.000906978
-0.0131187
-0.000981139
-0.0123498
-0.00104385
-0.0115439
-0.00109271
-0.0107019
-0.00114293
-0.00981599
-0.00120865
-0.00889398
-0.00126459
-0.00794216
-0.00131053
-0.00696225
-0.00134963
-0.00594942
-0.00138263
-0.00491252
-0.00140726
-0.00388003
-0.00142325
-0.00283585
-0.00143836
-0.00178232
-0.00145359
-0.000711185
-0.00147713
0.000358666
-0.00147103
0.00143037
-0.00147082
0.00250092
-0.00146977
0.00356867
-0.0014679
0.00462901
-0.00145939
0.00567794
-0.00144449
0.00671203
-0.00142427
0.00772834
-0.00139969
0.00872437
-0.00137153
0.00969798
-0.00134033
0.0106473
-0.00130656
0.0115708
-0.00127059
0.0124672
-0.00123274
0.0133352
-0.00119334
0.014174
-0.00115267
0.0149828
-0.001111
0.0157611
-0.0010686
0.0165085
-0.00102566
0.0172247
-0.000982234
0.0179095
-0.000938546
0.0185629
-0.000894961
0.0191851
-0.000851718
0.0197765
-0.000809061
0.0203375
-0.000767062
0.0208688
-0.000725894
0.021371
-0.000685679
0.0218449
-0.000646519
0.0222912
-0.000608473
0.0227108
-0.00057158
0.0231044
-0.000535878
0.0234731
-0.000501406
0.0238176
-0.000468203
0.0241389
-0.0004363
0.024438
-0.000405724
0.0247157
-0.00037649
0.0249732
-0.000348607
0.0252113
-0.000322075
0.025431
-0.000296884
0.0256332
-0.000273021
0.025819
-0.000250464
0.0259891
-0.000229187
0.0261446
-0.000209158
0.0262863
-0.000190344
0.026415
-0.000172706
0.0265316
-0.000156205
0.0266368
-0.000140798
0.0267315
-0.000126441
0.0268163
-0.000113092
0.0268919
-0.000100704
0.0269591
-8.92322e-05
0.0270184
-7.86318e-05
0.0270705
-6.88581e-05
0.0271159
-5.9867e-05
0.0271552
-5.16152e-05
0.0271889
-4.40603e-05
0.0272174
-3.71612e-05
0.0272412
-3.08777e-05
0.0272608
-2.51709e-05
0.0272764
-2.00032e-05
0.0272886
-1.5338e-05
0.0272976
-1.11404e-05
0.0273038
-7.38139e-06
0.0273075
-4.04186e-06
0.0273089
-1.09404e-06
0.0273084
1.51708e-06
0.0273061
3.83023e-06
0.0273023
5.85591e-06
0.0272971
7.61196e-06
0.0272907
9.10734e-06
0.0272834
1.03604e-05
0.0272753
1.13918e-05
0.0272665
1.22237e-05
0.0272572
1.2878e-05
0.0272475
1.33742e-05
0.0272375
1.37296e-05
0.0272273
1.39595e-05
0.0272169
1.40773e-05
0.0272065
1.40939e-05
0.0271962
1.40188e-05
0.0271859
1.38641e-05
0.0271757
1.36429e-05
0.0271658
1.33654e-05
0.027156
1.30403e-05
0.0271465
1.26754e-05
0.0271373
1.22774e-05
0.0271284
1.1852e-05
0.0271198
1.14033e-05
0.0271115
1.09354e-05
0.0271035
1.04522e-05
0.027096
9.95728e-06
0.0270887
9.45434e-06
0.0270819
8.9467e-06
0.0270754
8.43745e-06
0.0270693
7.92939e-06
0.0270635
7.42502e-06
0.0270581
6.92657e-06
0.0270531
6.43598e-06
0.0270484
5.95496e-06
0.0270441
5.48495e-06
0.0270401
5.02722e-06
0.0270364
4.58279e-06
0.0270331
4.15253e-06
0.02703
3.73713e-06
0.0270273
3.33713e-06
0.0270248
2.95292e-06
0.0270226
2.58475e-06
0.0270207
2.23277e-06
0.027019
1.89698e-06
0.0270176
1.57756e-06
0.0270164
1.27508e-06
0.0270154
9.89675e-07
0.0270146
7.20084e-07
0.027014
4.64938e-07
0.0270136
2.24735e-07
0.0270134
-6.03432e-09
0.0270133
-2.0995e-07
0.0270133
-4.03405e-07
0.0270135
-5.81154e-07
0.0270139
-7.49048e-07
0.0270143
-9.05077e-07
0.0270149
-1.04889e-06
0.0270155
-1.18093e-06
0.0270163
-1.30277e-06
0.0270171
-1.41036e-06
0.0270181
-1.50671e-06
0.027019
-1.59315e-06
0.0270201
-1.67071e-06
0.0270212
-1.74e-06
0.0270224
-1.80145e-06
0.0270236
-1.85585e-06
0.0270248
-1.90109e-06
0.0270261
-1.93834e-06
0.0270274
-1.96821e-06
0.0270287
-1.99153e-06
0.02703
-2.00901e-06
0.0270314
-2.02117e-06
0.0270328
-2.02855e-06
0.0270341
-2.03168e-06
0.0270355
-2.03089e-06
0.0270369
-2.02542e-06
0.0270382
-2.01549e-06
0.0270396
-2.00151e-06
0.027041
-1.98405e-06
0.0270423
-1.96363e-06
0.0270436
-1.94064e-06
0.027045
-1.91534e-06
0.0270463
-1.88783e-06
0.0270475
-1.8583e-06
0.0270488
-1.82695e-06
0.02705
-1.79409e-06
0.0270513
-1.76022e-06
0.0270525
-1.72574e-06
0.0270536
-1.69041e-06
0.0270548
-1.65386e-06
0.0270559
-1.61617e-06
0.027057
-1.57768e-06
0.0270581
-1.5387e-06
0.0270591
-1.49944e-06
0.0270601
-1.46006e-06
0.0270611
-1.42067e-06
0.0270621
-1.38135e-06
0.027063
-1.34214e-06
0.027064
-1.30313e-06
0.0270648
-1.26438e-06
0.0270657
-1.22596e-06
0.0270665
-1.18793e-06
0.0270673
-1.15034e-06
0.0270681
-1.11325e-06
0.0270689
-1.07671e-06
0.0270696
-1.04077e-06
0.0270703
-1.00547e-06
0.027071
-9.70808e-07
0.0270717
-9.36822e-07
0.0270723
-9.0353e-07
0.0270729
-8.70952e-07
0.0270735
-8.39105e-07
0.0270741
-8.08006e-07
0.0270746
-7.77666e-07
0.0270751
-7.48096e-07
0.0270756
-7.19301e-07
0.0270761
-6.91285e-07
0.0270766
-6.64051e-07
0.027077
-6.37595e-07
0.0270775
-6.11918e-07
0.0270779
-5.87013e-07
0.0270783
-5.62875e-07
0.0270787
-5.39498e-07
0.027079
-5.1687e-07
0.0270794
-4.94984e-07
0.0270797
-4.73827e-07
0.02708
-4.5339e-07
0.0270803
-4.33659e-07
0.0270806
-4.14621e-07
0.0270809
-3.96262e-07
0.0270812
-3.78569e-07
0.0270814
-3.61526e-07
0.0270817
-3.45119e-07
0.0270819
-3.29333e-07
0.0270821
-3.14151e-07
0.0270823
-2.99558e-07
0.0270825
-2.85537e-07
0.0270827
-2.72072e-07
0.0270829
-2.59149e-07
0.0270831
-2.46751e-07
0.0270833
-2.34863e-07
0.0270834
-2.23469e-07
0.0270836
-2.12554e-07
0.0270837
-2.02102e-07
0.0270838
-1.92099e-07
0.027084
-1.82528e-07
0.0270841
-1.73376e-07
0.0270842
-1.64627e-07
0.0270843
-1.56268e-07
0.0270844
-1.48285e-07
0.0270845
-1.40664e-07
0.0270846
-1.33392e-07
0.0270847
-1.26457e-07
0.0270848
-1.19846e-07
0.0270849
-1.13544e-07
0.0270849
-1.07536e-07
0.027085
-1.01813e-07
0.0270851
-9.63623e-08
0.0270851
-9.11755e-08
0.0270852
-8.62419e-08
0.0270852
-8.15513e-08
0.0270853
-7.70936e-08
0.0270853
-7.28574e-08
0.0270854
-6.8834e-08
0.0270854
-6.5013e-08
0.0270855
-6.13849e-08
0.0270855
-5.79416e-08
0.0270856
-5.46746e-08
0.0270856
-5.15771e-08
0.0270856
-4.86415e-08
0.0270857
-4.58591e-08
0.0270857
-4.32222e-08
0.0270857
-4.07249e-08
0.0270857
-3.83616e-08
0.0270858
-3.61265e-08
0.0270858
-3.40133e-08
0.0270858
-3.20155e-08
0.0270858
-3.01265e-08
0.0270858
-2.83403e-08
0.0270859
-2.66515e-08
0.0270859
-2.50558e-08
0.0270859
-2.3548e-08
0.0270859
-2.21236e-08
0.0270859
-2.07787e-08
0.0270859
-1.95098e-08
0.0270859
-1.83134e-08
0.027086
-1.71846e-08
0.027086
-1.61213e-08
0.027086
-1.51205e-08
0.027086
-1.41776e-08
0.027086
-1.32905e-08
0.027086
-1.24545e-08
0.027086
-1.1667e-08
0.027086
-1.0925e-08
0.027086
-1.02252e-08
0.027086
-9.56589e-09
0.027086
-8.94514e-09
0.027086
-8.36126e-09
0.027086
-7.81201e-09
0.0270861
-7.29516e-09
0.0270861
-6.80921e-09
0.0270861
-6.35198e-09
0.0270861
-5.92109e-09
0.0270861
-5.51644e-09
0.0270861
-5.13522e-09
0.0270861
-4.77731e-09
0.0270861
-4.44081e-09
0.0270861
-4.12312e-09
0.0270861
-3.82377e-09
0.0270861
-3.54153e-09
0.0270861
-3.2747e-09
0.0270861
-3.02275e-09
0.0270861
-2.78485e-09
0.0270861
-2.55992e-09
0.0270861
-2.34776e-09
0.0270861
-2.14669e-09
0.0270861
-1.95666e-09
0.0270861
-1.7763e-09
0.0270861
-1.60524e-09
0.0270861
-1.44213e-09
0.0270861
-1.28731e-09
0.0270861
-1.13928e-09
0.0270861
-9.98502e-10
0.0270861
-8.64136e-10
0.0270861
-7.3627e-10
0.0270861
-6.12824e-10
0.0270861
-4.94304e-10
0.0270861
-3.80117e-10
0.0270861
-2.69025e-10
0.0270861
-1.60663e-10
0.0270861
-5.70536e-11
0.0270861
4.4761e-11
0.0270861
1.44191e-10
0.0270861
2.40092e-10
0.0270861
3.34457e-10
0.0270861
4.26376e-10
0.0270861
5.16893e-10
0.0270861
6.05827e-10
0.0270861
6.93824e-10
0.0270861
7.80678e-10
0.0270861
8.66433e-10
0.0270861
9.51073e-10
0.0270861
1.03519e-09
0.0270861
1.11868e-09
0.0270861
1.20245e-09
0.0270861
1.28628e-09
0.0270861
1.37004e-09
0.0270861
1.45348e-09
0.0270861
1.53755e-09
0.0270861
1.62131e-09
0.0270861
1.70497e-09
0.0270861
1.78949e-09
0.0270861
1.87435e-09
0.0270861
1.95918e-09
0.0270861
2.04439e-09
0.0270861
2.13043e-09
0.0270861
2.21705e-09
0.0270861
2.30424e-09
0.0270861
2.39163e-09
0.0270861
2.47998e-09
0.0270861
2.56881e-09
0.0270861
2.6579e-09
0.027086
2.7477e-09
0.027086
2.83858e-09
0.027086
2.92966e-09
0.027086
3.02177e-09
0.027086
3.11413e-09
0.027086
3.20721e-09
0.027086
3.30073e-09
0.027086
3.39519e-09
0.027086
3.48982e-09
0.027086
3.58475e-09
0.027086
3.68027e-09
0.027086
3.77615e-09
0.027086
3.87243e-09
0.027086
3.96906e-09
0.027086
4.06573e-09
0.027086
4.16313e-09
0.027086
4.26063e-09
0.027086
4.35805e-09
0.027086
4.45521e-09
0.027086
4.55237e-09
0.027086
4.64995e-09
0.027086
4.7473e-09
0.027086
4.84466e-09
0.027086
4.94145e-09
0.027086
5.03782e-09
0.027086
5.13399e-09
0.027086
5.22959e-09
0.027086
5.32472e-09
0.027086
5.41947e-09
0.027086
5.51337e-09
0.027086
5.60629e-09
0.0270859
5.69895e-09
0.0270859
5.79e-09
0.0270859
5.87982e-09
0.0270859
5.96896e-09
0.0270859
6.05715e-09
0.0270859
6.14333e-09
0.0270859
6.22857e-09
0.0270859
6.31239e-09
0.0270859
6.39453e-09
0.0270859
6.47491e-09
0.0270859
6.55368e-09
0.0270859
6.63078e-09
0.0270859
6.70562e-09
0.0270859
6.77841e-09
0.0270859
6.84919e-09
0.0270859
6.91773e-09
0.0270859
6.98399e-09
0.0270859
7.04789e-09
0.0270859
7.10922e-09
0.0270859
7.16817e-09
0.0270858
7.22387e-09
0.0270858
7.27711e-09
0.0270858
7.3275e-09
0.0270858
7.37468e-09
0.0270858
7.4194e-09
0.0270858
7.46026e-09
0.0270858
7.49801e-09
0.0270858
7.53253e-09
0.0270858
7.56368e-09
0.0270858
7.59131e-09
0.0270858
7.61509e-09
0.0270858
7.63535e-09
0.0270858
7.65191e-09
0.0270858
7.66455e-09
0.0270858
7.67352e-09
0.0270858
7.67928e-09
0.0270858
7.68165e-09
0.0270858
7.6803e-09
0.0270857
7.67454e-09
0.0270857
7.66456e-09
0.0270857
7.65047e-09
0.0270857
7.63202e-09
0.0270857
7.60935e-09
0.0270857
7.58237e-09
0.0270857
7.55109e-09
0.0270857
7.5153e-09
0.0270857
7.47569e-09
0.0270857
7.43168e-09
0.0270857
7.38311e-09
0.0270857
7.33108e-09
0.0270857
7.27432e-09
0.0270857
7.21368e-09
0.0270857
7.14883e-09
0.0270857
7.0807e-09
0.0270857
7.00799e-09
0.0270857
6.9314e-09
0.0270856
6.85142e-09
0.0270856
6.76731e-09
0.0270856
6.68037e-09
0.0270856
6.58966e-09
0.0270856
6.49613e-09
0.0270856
6.39935e-09
0.0270856
6.2996e-09
0.0270856
6.19737e-09
0.0270856
6.09261e-09
0.0270856
5.98629e-09
0.0270856
5.87742e-09
0.0270856
5.76746e-09
0.0270856
5.65612e-09
0.0270856
5.54426e-09
0.0270856
5.43189e-09
0.0270856
5.31954e-09
0.0270856
5.20781e-09
0.0270856
5.09719e-09
0.0270856
4.98939e-09
0.0270856
4.88384e-09
0.0270856
4.78298e-09
0.0270856
4.68741e-09
0.0270856
4.6e-09
0.0270856
4.52326e-09
0.0270855
4.46263e-09
0.0270855
4.42668e-09
0.0270855
4.43144e-09
0.0270855
4.49474e-09
0.0270855
4.65173e-09
0.0270855
5.00916e-09
0.0270855
5.74149e-09
6.7076e-09
-0.000192863
0.000239246
-0.000746817
0.000916138
-0.00162368
0.00158548
-0.00276082
0.00213306
-0.00408802
0.00253027
-0.00553993
0.00278635
-0.0070618
0.00292662
-0.00860769
0.00297783
-0.0101424
0.0029639
-0.0116426
0.0029045
-0.013093
0.00281514
-0.0144835
0.00270668
-0.0158073
0.00258583
-0.0170597
0.0024563
-0.0182369
0.00231992
-0.0193358
0.00217825
-0.0203551
0.0020335
-0.0212943
0.00188755
-0.0221521
0.00173801
-0.0229244
0.00158082
-0.0236097
0.00141954
-0.0242073
0.00125601
-0.0247165
0.00109053
-0.0251364
0.000922986
-0.0254662
0.000753142
-0.0257053
0.000581185
-0.0258538
0.000408098
-0.0259118
0.000233929
-0.0258786
5.8592e-05
-0.0257528
-0.000117455
-0.0255351
-0.000295213
-0.0252247
-0.000474798
-0.0248214
-0.000655412
-0.0243258
-0.000835087
-0.0237392
-0.00100832
-0.0230755
-0.00115898
-0.0223242
-0.00133289
-0.0214875
-0.00150784
-0.0205725
-0.0016682
-0.0195824
-0.00182095
-0.0185204
-0.00196906
-0.0173891
-0.00211244
-0.0161862
-0.00224667
-0.0149082
-0.00237074
-0.0135679
-0.00248325
-0.0121929
-0.0025837
-0.010784
-0.00267346
-0.00933884
-0.00275567
-0.00785352
-0.00283495
-0.00632069
-0.00291547
-0.00475094
-0.00297701
-0.00317643
-0.00299777
-0.00158524
-0.00302955
1.84844e-05
-0.00305732
0.00162617
-0.00308482
0.00324729
-0.00309215
0.00486922
-0.00309276
0.00648576
-0.00308631
0.00809036
-0.0030725
0.00967967
-0.0030487
0.01125
-0.00301483
0.0127976
-0.00297187
0.0143189
-0.00292096
0.0158105
-0.00286315
0.0172695
-0.00279935
0.0186933
-0.00273034
0.0200796
-0.00265685
0.0214263
-0.00257952
0.022732
-0.00249897
0.0239951
-0.00241577
0.0252145
-0.00233048
0.0263895
-0.00224359
0.0275195
-0.00215558
0.028604
-0.00206678
0.0296429
-0.00197746
0.0306361
-0.00188814
0.0315836
-0.00179925
0.0324859
-0.00171132
0.0333435
-0.00162463
0.0341571
-0.00153957
0.0349278
-0.00145638
0.0356566
-0.00137526
0.0363444
-0.00129632
0.0369925
-0.00121965
0.0376019
-0.00114533
0.038174
-0.00107346
0.0387099
-0.00100413
0.039211
-0.000937407
0.0396787
-0.00087335
0.0401142
-0.000812002
0.0405189
-0.000753383
0.0408944
-0.0006975
0.0412418
-0.000644343
0.0415627
-0.000593889
0.0418583
-0.0005461
0.0421301
-0.000500929
0.0423792
-0.000458321
0.0426071
-0.000418209
0.0428149
-0.000380524
0.0430039
-0.000345188
0.0431752
-0.00031212
0.04333
-0.000281235
0.0434694
-0.000252447
0.0435943
-0.000225666
0.0437059
-0.000200804
0.043805
-0.00017777
0.0438927
-0.000156475
0.0439696
-0.00013683
0.0440368
-0.000118749
0.0440948
-0.000102145
0.0441446
-8.69334e-05
0.0441868
-7.30336e-05
0.044222
-6.03654e-05
0.0442508
-4.88516e-05
0.0442739
-3.84175e-05
0.0442917
-2.89914e-05
0.0443049
-2.05082e-05
0.0443137
-1.29146e-05
0.0443188
-6.16046e-06
0.0443205
-1.57351e-07
0.0443192
5.13426e-06
0.0443152
9.79585e-06
0.044309
1.38546e-05
0.0443007
1.73894e-05
0.0442907
2.04096e-05
0.0442791
2.29443e-05
0.0442663
2.50372e-05
0.0442524
2.67332e-05
0.0442377
2.80733e-05
0.0442224
2.90943e-05
0.0442065
2.98294e-05
0.0441903
3.03086e-05
0.0441738
3.05584e-05
0.0441572
3.06017e-05
0.0441406
3.04587e-05
0.0441241
3.01517e-05
0.0441078
2.97068e-05
0.0440917
2.91465e-05
0.0440759
2.84878e-05
0.0440604
2.77464e-05
0.0440453
2.69346e-05
0.0440307
2.60622e-05
0.0440165
2.51386e-05
0.0440027
2.41726e-05
0.0439895
2.31729e-05
0.0439768
2.21479e-05
0.0439647
2.11051e-05
0.0439531
2.00516e-05
0.043942
1.89937e-05
0.0439315
1.79374e-05
0.0439215
1.68876e-05
0.0439121
1.58491e-05
0.0439032
1.48257e-05
0.0438949
1.3821e-05
0.0438871
1.2838e-05
0.0438798
1.18793e-05
0.043873
1.09471e-05
0.0438667
1.00431e-05
0.0438609
9.16877e-06
0.0438555
8.32537e-06
0.0438506
7.51374e-06
0.0438461
6.73449e-06
0.043842
5.98804e-06
0.0438383
5.27477e-06
0.0438349
4.5951e-06
0.043832
3.94905e-06
0.0438294
3.33573e-06
0.0438271
2.75406e-06
0.0438251
2.20354e-06
0.0438234
1.68383e-06
0.043822
1.19877e-06
0.0438209
7.44465e-07
0.04382
3.19546e-07
0.0438193
-7.94947e-08
0.0438188
-4.52337e-07
0.0438186
-7.98522e-07
0.0438185
-1.11873e-06
0.0438186
-1.41284e-06
0.0438189
-1.67931e-06
0.0438193
-1.92572e-06
0.0438199
-2.15179e-06
0.0438206
-2.35747e-06
0.0438214
-2.54369e-06
0.0438223
-2.71128e-06
0.0438233
-2.86334e-06
0.0438244
-2.99445e-06
0.0438256
-3.10865e-06
0.0438268
-3.20716e-06
0.0438281
-3.29142e-06
0.0438294
-3.36248e-06
0.0438308
-3.42119e-06
0.0438323
-3.46849e-06
0.0438338
-3.5055e-06
0.0438353
-3.53334e-06
0.0438368
-3.55006e-06
0.0438383
-3.5569e-06
0.0438399
-3.55466e-06
0.0438414
-3.54444e-06
0.043843
-3.52718e-06
0.0438446
-3.50346e-06
0.0438461
-3.4738e-06
0.0438477
-3.4387e-06
0.0438492
-3.3986e-06
0.0438507
-3.35391e-06
0.0438523
-3.30521e-06
0.0438537
-3.25347e-06
0.0438552
-3.19955e-06
0.0438567
-3.14306e-06
0.0438581
-3.08327e-06
0.0438595
-3.02058e-06
0.0438609
-2.95572e-06
0.0438622
-2.88925e-06
0.0438636
-2.82158e-06
0.0438649
-2.75303e-06
0.0438661
-2.68386e-06
0.0438673
-2.61421e-06
0.0438685
-2.54426e-06
0.0438697
-2.47419e-06
0.0438709
-2.40416e-06
0.043872
-2.33434e-06
0.043873
-2.26486e-06
0.0438741
-2.19587e-06
0.0438751
-2.12749e-06
0.0438761
-2.05985e-06
0.043877
-1.99306e-06
0.043878
-1.92721e-06
0.0438789
-1.86235e-06
0.0438797
-1.79855e-06
0.0438805
-1.73587e-06
0.0438814
-1.67436e-06
0.0438821
-1.61408e-06
0.0438829
-1.55508e-06
0.0438836
-1.49738e-06
0.0438843
-1.44103e-06
0.043885
-1.38604e-06
0.0438856
-1.33244e-06
0.0438862
-1.28024e-06
0.0438868
-1.22945e-06
0.0438874
-1.18008e-06
0.0438879
-1.13211e-06
0.0438884
-1.08556e-06
0.0438889
-1.04042e-06
0.0438894
-9.96667e-07
0.0438899
-9.543e-07
0.0438903
-9.13302e-07
0.0438907
-8.73656e-07
0.0438911
-8.35343e-07
0.0438915
-7.98344e-07
0.0438919
-7.62635e-07
0.0438922
-7.28195e-07
0.0438926
-6.94998e-07
0.0438929
-6.63019e-07
0.0438932
-6.32231e-07
0.0438935
-6.02607e-07
0.0438938
-5.74118e-07
0.043894
-5.46735e-07
0.0438943
-5.20429e-07
0.0438945
-4.95173e-07
0.0438947
-4.70938e-07
0.0438949
-4.47696e-07
0.0438951
-4.25417e-07
0.0438953
-4.04072e-07
0.0438955
-3.83633e-07
0.0438957
-3.6407e-07
0.0438958
-3.45356e-07
0.043896
-3.27463e-07
0.0438961
-3.10362e-07
0.0438963
-2.94027e-07
0.0438964
-2.7843e-07
0.0438965
-2.63547e-07
0.0438967
-2.49352e-07
0.0438968
-2.3582e-07
0.0438969
-2.22926e-07
0.043897
-2.10642e-07
0.0438971
-1.9894e-07
0.0438971