/*--------------------------------*- C++ -*----------------------------------*\
| =========                 |                                                 |
| \\      /  F ield         | OpenFOAM: The Open Source CFD Toolbox           |
|  \\    /   O peration     | Version:  2312                                  |
|   \\  /    A nd           | Website:  www.openfoam.com                      |
|    \\/     M anipulation  |                                                 |
\*---------------------------------------------------------------------------*/
FoamFile
{
    version     2.0;
    format      ascii;
    arch        "LSB;label=32;scalar=64";
    class       surfaceScalarField;
    location    "600";
    object      phiByRho;
}
// * * * * * * * * * * * * * * * * * * * * * * * * * * * * * * * * * * * * * //

dimensions      [0 3 -1 0 0 0 0];

oriented        oriented;

internalField   nonuniform List<scalar> 
40240
(
2.47518e-08
-2.47518e-08
-4.46072e-08
6.9359e-08
-2.2351e-07
1.78903e-07
-4.92239e-07
2.68729e-07
-8.23496e-07
3.31257e-07
-1.19224e-06
3.68745e-07
-1.57958e-06
3.87337e-07
-1.9746e-06
3.95021e-07
-2.36963e-06
3.95035e-07
-2.75859e-06
3.88954e-07
-3.13734e-06
3.78752e-07
-3.5035e-06
3.6616e-07
-3.85573e-06
3.52233e-07
-4.19318e-06
3.37448e-07
-4.51513e-06
3.21952e-07
-4.82098e-06
3.05849e-07
-5.11035e-06
2.8937e-07
-5.38303e-06
2.72673e-07
-5.63836e-06
2.55336e-07
-5.87516e-06
2.36795e-07
-6.09255e-06
2.17393e-07
-6.29003e-06
1.97483e-07
-6.4672e-06
1.77172e-07
-6.62364e-06
1.56434e-07
-6.75885e-06
1.35208e-07
-6.87233e-06
1.13481e-07
-6.96361e-06
9.12845e-08
-7.03218e-06
6.85693e-08
-7.07739e-06
4.52068e-08
-7.09913e-06
2.17393e-08
-7.09772e-06
-1.41057e-09
-7.07215e-06
-2.55628e-08
-7.02246e-06
-4.96934e-08
-6.94855e-06
-7.39116e-08
-6.85211e-06
-9.6439e-08
-6.73514e-06
-1.16973e-07
-6.59351e-06
-1.41628e-07
-6.42579e-06
-1.67721e-07
-6.23411e-06
-1.91676e-07
-6.01979e-06
-2.14323e-07
-5.78312e-06
-2.36671e-07
-5.52499e-06
-2.58128e-07
-5.25005e-06
-2.74943e-07
-4.9632e-06
-2.86842e-07
-4.66225e-06
-3.00958e-07
-4.33955e-06
-3.22694e-07
-3.99697e-06
-3.42578e-07
-3.63827e-06
-3.58708e-07
-3.26854e-06
-3.69722e-07
-2.89875e-06
-3.698e-07
-2.52838e-06
-3.70365e-07
-2.13762e-06
-3.90763e-07
-1.74343e-06
-3.94185e-07
-1.34337e-06
-4.00064e-07
-9.37374e-07
-4.05994e-07
-5.36197e-07
-4.01177e-07
-1.37077e-07
-3.9912e-07
2.62141e-07
-3.99218e-07
6.6229e-07
-4.00148e-07
1.06134e-06
-3.99047e-07
1.45689e-06
-3.95557e-07
1.84707e-06
-3.90179e-07
2.23046e-06
-3.83387e-07
2.60596e-06
-3.75497e-07
2.97268e-06
-3.66721e-07
3.32988e-06
-3.57207e-07
3.67696e-06
-3.47072e-07
4.01337e-06
-3.36416e-07
4.3387e-06
-3.25328e-07
4.65259e-06
-3.13895e-07
4.95479e-06
-3.02194e-07
5.24508e-06
-2.90294e-07
5.52332e-06
-2.78233e-07
5.78931e-06
-2.65993e-07
6.04305e-06
-2.53741e-07
6.28461e-06
-2.41564e-07
6.51415e-06
-2.2954e-07
6.73184e-06
-2.17683e-07
6.93786e-06
-2.06021e-07
7.13246e-06
-1.94603e-07
7.31593e-06
-1.83469e-07
7.48858e-06
-1.72651e-07
7.65074e-06
-1.62163e-07
7.80276e-06
-1.52014e-07
7.94497e-06
-1.42212e-07
8.07774e-06
-1.32768e-07
8.20143e-06
-1.23689e-07
8.31641e-06
-1.14984e-07
8.42307e-06
-1.06659e-07
8.52178e-06
-9.87171e-08
8.61294e-06
-9.11601e-08
8.69693e-06
-8.39864e-08
8.77412e-06
-7.71924e-08
8.8449e-06
-7.07726e-08
8.90962e-06
-6.47199e-08
8.96864e-06
-5.90257e-08
9.02232e-06
-5.36802e-08
9.07099e-06
-4.86726e-08
9.11499e-06
-4.39915e-08
9.15461e-06
-3.96247e-08
9.19017e-06
-3.55595e-08
9.22195e-06
-3.17831e-08
9.25024e-06
-2.82824e-08
9.27528e-06
-2.50443e-08
9.29734e-06
-2.20556e-08
9.31664e-06
-1.93034e-08
9.33341e-06
-1.67748e-08
9.34787e-06
-1.44572e-08
9.36021e-06
-1.23383e-08
9.37062e-06
-1.04063e-08
9.37927e-06
-8.64948e-09
9.38632e-06
-7.0566e-09
9.39194e-06
-5.61684e-09
9.39626e-06
-4.31971e-09
9.39941e-06
-3.15478e-09
9.40153e-06
-2.11214e-09
9.40271e-06
-1.18723e-09
9.4031e-06
-3.84422e-10
9.40278e-06
3.21462e-10
9.4018e-06
9.7485e-10
9.40026e-06
1.5439e-09
9.39823e-06
2.0271e-09
9.3958e-06
2.43442e-09
9.39302e-06
2.77459e-09
9.38997e-06
3.05251e-09
9.38669e-06
3.27375e-09
9.38325e-06
3.4447e-09
9.37968e-06
3.57146e-09
9.37602e-06
3.6593e-09
9.37231e-06
3.71279e-09
9.36857e-06
3.73548e-09
9.36484e-06
3.73012e-09
9.36114e-06
3.70001e-09
9.35749e-06
3.649e-09
9.35391e-06
3.57998e-09
9.35042e-06
3.49557e-09
9.34702e-06
3.39856e-09
9.34373e-06
3.29113e-09
9.34055e-06
3.17515e-09
9.3375e-06
3.05236e-09
9.33457e-06
2.9241e-09
9.33178e-06
2.79138e-09
9.32913e-06
2.6551e-09
9.32661e-06
2.51615e-09
9.32424e-06
2.37546e-09
9.322e-06
2.23387e-09
9.31991e-06
2.09222e-09
9.31796e-06
1.95126e-09
9.31615e-06
1.81167e-09
9.31447e-06
1.67405e-09
9.31293e-06
1.53893e-09
9.31153e-06
1.40676e-09
9.31025e-06
1.27795e-09
9.3091e-06
1.15281e-09
9.30807e-06
1.03163e-09
9.30715e-06
9.14628e-10
9.30635e-06
8.01976e-10
9.30565e-06
6.93809e-10
9.30506e-06
5.9022e-10
9.30457e-06
4.91259e-10
9.30418e-06
3.9694e-10
9.30387e-06
3.07204e-10
9.30365e-06
2.21908e-10
9.30351e-06
1.41076e-10
9.30344e-06
6.5483e-11
9.30345e-06
-4.21269e-12
9.30351e-06
-6.95765e-11
9.30365e-06
-1.32095e-10
9.30384e-06
-1.90825e-10
9.30408e-06
-2.45668e-10
9.30438e-06
-2.95029e-10
9.30472e-06
-3.4264e-10
9.30511e-06
-3.84232e-10
9.30553e-06
-4.22047e-10
9.30598e-06
-4.56964e-10
9.30647e-06
-4.89164e-10
9.30699e-06
-5.18665e-10
9.30754e-06
-5.4562e-10
9.30811e-06
-5.68683e-10
9.30869e-06
-5.88499e-10
9.3093e-06
-6.05553e-10
9.30992e-06
-6.20348e-10
9.31055e-06
-6.33172e-10
9.3112e-06
-6.44152e-10
9.31185e-06
-6.53417e-10
9.31251e-06
-6.60352e-10
9.31318e-06
-6.65153e-10
9.31384e-06
-6.68007e-10
9.31451e-06
-6.69172e-10
9.31518e-06
-6.68874e-10
9.31585e-06
-6.67294e-10
9.31651e-06
-6.64613e-10
9.31718e-06
-6.60981e-10
9.31783e-06
-6.56462e-10
9.31848e-06
-6.50832e-10
9.31913e-06
-6.44124e-10
9.31976e-06
-6.36405e-10
9.32039e-06
-6.27817e-10
9.32101e-06
-6.18543e-10
9.32162e-06
-6.08727e-10
9.32222e-06
-5.98428e-10
9.3228e-06
-5.87662e-10
9.32338e-06
-5.76458e-10
9.32395e-06
-5.64871e-10
9.3245e-06
-5.52991e-10
9.32504e-06
-5.40977e-10
9.32557e-06
-5.28949e-10
9.32609e-06
-5.16821e-10
9.32659e-06
-5.0444e-10
9.32708e-06
-4.91817e-10
9.32756e-06
-4.79055e-10
9.32803e-06
-4.66242e-10
9.32848e-06
-4.53444e-10
9.32892e-06
-4.40711e-10
9.32935e-06
-4.2807e-10
9.32977e-06
-4.15533e-10
9.33017e-06
-4.03109e-10
9.33056e-06
-3.90815e-10
9.33094e-06
-3.78666e-10
9.3313e-06
-3.66676e-10
9.33166e-06
-3.54861e-10
9.332e-06
-3.43231e-10
9.33233e-06
-3.318e-10
9.33265e-06
-3.20582e-10
9.33296e-06
-3.09586e-10
9.33326e-06
-2.98817e-10
9.33355e-06
-2.8828e-10
9.33383e-06
-2.77976e-10
9.3341e-06
-2.67908e-10
9.33436e-06
-2.58082e-10
9.3346e-06
-2.48498e-10
9.33484e-06
-2.39161e-10
9.33507e-06
-2.30071e-10
9.33529e-06
-2.2123e-10
9.33551e-06
-2.12637e-10
9.33571e-06
-2.04292e-10
9.33591e-06
-1.96192e-10
9.3361e-06
-1.88338e-10
9.33628e-06
-1.80727e-10
9.33645e-06
-1.73355e-10
9.33662e-06
-1.6622e-10
9.33678e-06
-1.59318e-10
9.33693e-06
-1.52646e-10
9.33707e-06
-1.462e-10
9.33721e-06
-1.39976e-10
9.33735e-06
-1.3397e-10
9.33748e-06
-1.28177e-10
9.3376e-06
-1.22592e-10
9.33772e-06
-1.17211e-10
9.33783e-06
-1.12029e-10
9.33794e-06
-1.07041e-10
9.33804e-06
-1.02242e-10
9.33814e-06
-9.76278e-11
9.33823e-06
-9.31926e-11
9.33832e-06
-8.89315e-11
9.3384e-06
-8.4839e-11
9.33848e-06
-8.09107e-11
9.33856e-06
-7.71411e-11
9.33863e-06
-7.3526e-11
9.3387e-06
-7.00605e-11
9.33877e-06
-6.67397e-11
9.33883e-06
-6.35585e-11
9.33889e-06
-6.05129e-11
9.33895e-06
-5.75976e-11
9.33901e-06
-5.48085e-11
9.33906e-06
-5.21409e-11
9.33911e-06
-4.95906e-11
9.33916e-06
-4.71533e-11
9.3392e-06
-4.48252e-11
9.33924e-06
-4.26021e-11
9.33928e-06
-4.04802e-11
9.33932e-06
-3.84557e-11
9.33936e-06
-3.65248e-11
9.33939e-06
-3.46831e-11
9.33943e-06
-3.29268e-11
9.33946e-06
-3.12517e-11
9.33949e-06
-2.96557e-11
9.33952e-06
-2.81354e-11
9.33954e-06
-2.66885e-11
9.33957e-06
-2.53113e-11
9.33959e-06
-2.40014e-11
9.33961e-06
-2.27557e-11
9.33964e-06
-2.15704e-11
9.33966e-06
-2.04437e-11
9.33968e-06
-1.93721e-11
9.33969e-06
-1.8354e-11
9.33971e-06
-1.7387e-11
9.33973e-06
-1.64683e-11
9.33974e-06
-1.55965e-11
9.33976e-06
-1.47689e-11
9.33977e-06
-1.39828e-11
9.33979e-06
-1.32368e-11
9.3398e-06
-1.25297e-11
9.33981e-06
-1.18595e-11
9.33982e-06
-1.12247e-11
9.33983e-06
-1.06229e-11
9.33984e-06
-1.00528e-11
9.33985e-06
-9.51251e-12
9.33986e-06
-9.0003e-12
9.33987e-06
-8.51462e-12
9.33988e-06
-8.0545e-12
9.33988e-06
-7.61863e-12
9.33989e-06
-7.20547e-12
9.3399e-06
-6.81446e-12
9.3399e-06
-6.44494e-12
9.33991e-06
-6.095e-12
9.33992e-06
-5.76393e-12
9.33992e-06
-5.4509e-12
9.33993e-06
-5.1553e-12
9.33993e-06
-4.87564e-12
9.33994e-06
-4.61176e-12
9.33994e-06
-4.36205e-12
9.33995e-06
-4.12509e-12
9.33995e-06
-3.9011e-12
9.33995e-06
-3.68868e-12
9.33996e-06
-3.48764e-12
9.33996e-06
-3.29771e-12
9.33996e-06
-3.11834e-12
9.33997e-06
-2.94839e-12
9.33997e-06
-2.78765e-12
9.33997e-06
-2.63544e-12
9.33997e-06
-2.49117e-12
9.33998e-06
-2.35466e-12
9.33998e-06
-2.2254e-12
9.33998e-06
-2.10364e-12
9.33998e-06
-1.98821e-12
9.33998e-06
-1.87919e-12
9.33999e-06
-1.7752e-12
9.33999e-06
-1.67704e-12
9.33999e-06
-1.58292e-12
9.33999e-06
-1.4937e-12
9.33999e-06
-1.40903e-12
9.33999e-06
-1.32871e-12
9.33999e-06
-1.25201e-12
9.34e-06
-1.17937e-12
9.34e-06
-1.10978e-12
9.34e-06
-1.04369e-12
9.34e-06
-9.80478e-13
9.34e-06
-9.20116e-13
9.34e-06
-8.62407e-13
9.34e-06
-8.07323e-13
9.34e-06
-7.54723e-13
9.34e-06
-7.03834e-13
9.34e-06
-6.55003e-13
9.34e-06
-6.07968e-13
9.34001e-06
-5.63203e-13
9.34001e-06
-5.19921e-13
9.34001e-06
-4.77786e-13
9.34001e-06
-4.36752e-13
9.34001e-06
-3.97479e-13
9.34001e-06
-3.59129e-13
9.34001e-06
-3.21471e-13
9.34001e-06
-2.85445e-13
9.34001e-06
-2.50057e-13
9.34001e-06
-2.15677e-13
9.34001e-06
-1.82014e-13
9.34001e-06
-1.49232e-13
9.34001e-06
-1.16978e-13
9.34001e-06
-8.49897e-14
9.34001e-06
-5.40166e-14
9.34001e-06
-2.39951e-14
9.34001e-06
6.17607e-15
9.34001e-06
3.50073e-14
9.34001e-06
6.45132e-14
9.34001e-06
9.40152e-14
9.34001e-06
1.22904e-13
9.34001e-06
1.51373e-13
9.34001e-06
1.79516e-13
9.34001e-06
2.07737e-13
9.34001e-06
2.35533e-13
9.34001e-06
2.6343e-13
9.34001e-06
2.9075e-13
9.34001e-06
3.18246e-13
9.34001e-06
3.45888e-13
9.34001e-06
3.73332e-13
9.34001e-06
4.00457e-13
9.34001e-06
4.27711e-13
9.34e-06
4.55191e-13
9.34e-06
4.82137e-13
9.34e-06
5.09292e-13
9.34e-06
5.36448e-13
9.34e-06
5.63327e-13
9.34e-06
5.90667e-13
9.34e-06
6.18019e-13
9.34e-06
6.45046e-13
9.34e-06
6.72144e-13
9.34e-06
6.99141e-13
9.34e-06
7.26797e-13
9.34e-06
7.53677e-13
9.34e-06
7.81275e-13
9.34e-06
8.08702e-13
9.34e-06
8.35781e-13
9.33999e-06
8.62949e-13
9.33999e-06
8.90183e-13
9.33999e-06
9.17261e-13
9.33999e-06
9.44578e-13
9.33999e-06
9.71671e-13
9.33999e-06
9.98746e-13
9.33999e-06
1.02592e-12
9.33999e-06
1.05265e-12
9.33999e-06
1.07974e-12
9.33999e-06
1.10658e-12
9.33998e-06
1.13355e-12
9.33998e-06
1.1599e-12
9.33998e-06
1.18641e-12
9.33998e-06
1.21299e-12
9.33998e-06
1.23893e-12
9.33998e-06
1.26493e-12
9.33998e-06
1.29094e-12
9.33998e-06
1.31634e-12
9.33997e-06
1.34181e-12
9.33997e-06
1.36673e-12
9.33997e-06
1.39151e-12
9.33997e-06
1.41596e-12
9.33997e-06
1.44026e-12
9.33997e-06
1.46407e-12
9.33997e-06
1.48751e-12
9.33996e-06
1.51065e-12
9.33996e-06
1.53347e-12
9.33996e-06
1.55608e-12
9.33996e-06
1.57818e-12
9.33996e-06
1.5994e-12
9.33996e-06
1.6204e-12
9.33996e-06
1.64103e-12
9.33995e-06
1.66086e-12
9.33995e-06
1.68038e-12
9.33995e-06
1.69928e-12
9.33995e-06
1.7177e-12
9.33995e-06
1.73529e-12
9.33994e-06
1.75235e-12
9.33994e-06
1.76892e-12
9.33994e-06
1.78455e-12
9.33994e-06
1.79961e-12
9.33994e-06
1.8137e-12
9.33994e-06
1.82744e-12
9.33993e-06
1.8404e-12
9.33993e-06
1.85236e-12
9.33993e-06
1.86358e-12
9.33993e-06
1.8739e-12
9.33993e-06
1.88361e-12
9.33992e-06
1.89195e-12
9.33992e-06
1.89983e-12
9.33992e-06
1.9063e-12
9.33992e-06
1.91208e-12
9.33992e-06
1.91681e-12
9.33992e-06
1.92079e-12
9.33991e-06
1.92379e-12
9.33991e-06
1.92621e-12
9.33991e-06
1.9275e-12
9.33991e-06
1.92808e-12
9.33991e-06
1.92756e-12
9.3399e-06
1.92574e-12
9.3399e-06
1.92293e-12
9.3399e-06
1.91913e-12
9.3399e-06
1.91402e-12
9.3399e-06
1.90814e-12
9.33989e-06
1.90111e-12
9.33989e-06
1.893e-12
9.33989e-06
1.88353e-12
9.33989e-06
1.87317e-12
9.33989e-06
1.86211e-12
9.33988e-06
1.84988e-12
9.33988e-06
1.8364e-12
9.33988e-06
1.82184e-12
9.33988e-06
1.80688e-12
9.33988e-06
1.7899e-12
9.33988e-06
1.77286e-12
9.33987e-06
1.75453e-12
9.33987e-06
1.73534e-12
9.33987e-06
1.71528e-12
9.33987e-06
1.69416e-12
9.33987e-06
1.6725e-12
9.33987e-06
1.64998e-12
9.33986e-06
1.62681e-12
9.33986e-06
1.60267e-12
9.33986e-06
1.57815e-12
9.33986e-06
1.55302e-12
9.33986e-06
1.52737e-12
9.33986e-06
1.50158e-12
9.33985e-06
1.47513e-12
9.33985e-06
1.44876e-12
9.33985e-06
1.42206e-12
9.33985e-06
1.39522e-12
9.33985e-06
1.36886e-12
9.33985e-06
1.34268e-12
9.33985e-06
1.3167e-12
9.33984e-06
1.29183e-12
9.33984e-06
1.26758e-12
9.33984e-06
1.24492e-12
9.33984e-06
1.22362e-12
9.33984e-06
1.20535e-12
9.33984e-06
1.19019e-12
9.33984e-06
1.18047e-12
9.33984e-06
1.17919e-12
9.33984e-06
1.19249e-12
9.33983e-06
1.23006e-12
9.33983e-06
1.30838e-12
9.33983e-06
1.48367e-12
9.33983e-06
1.92033e-12
2.66362e-12
-7.11345e-08
4.63827e-08
-3.63959e-07
3.62184e-07
-8.9367e-07
7.08613e-07
-1.62085e-06
9.95911e-07
-2.49267e-06
1.20308e-06
-3.45836e-06
1.33443e-06
-4.47577e-06
1.40475e-06
-5.51269e-06
1.43194e-06
-6.54682e-06
1.42917e-06
-7.56218e-06
1.40431e-06
-8.54821e-06
1.36478e-06
-9.49823e-06
1.31618e-06
-1.0408e-05
1.26196e-06
-1.12744e-05
1.2039e-06
-1.20952e-05
1.14279e-06
-1.28687e-05
1.07927e-06
-1.35935e-05
1.01425e-06
-1.42692e-05
9.48309e-07
-1.48941e-05
8.80271e-07
-1.54658e-05
8.08503e-07
-1.59826e-05
7.34199e-07
-1.64435e-05
6.58389e-07
-1.68477e-05
5.81362e-07
-1.71944e-05
5.03057e-07
-1.74825e-05
4.23331e-07
-1.77111e-05
3.42154e-07
-1.78795e-05
2.59607e-07
-1.79868e-05
1.7594e-07
-1.80334e-05
9.17531e-08
-1.802e-05
8.35973e-09
-1.79438e-05
-7.75721e-08
-1.78051e-05
-1.64311e-07
-1.76026e-05
-2.52195e-07
-1.73371e-05
-3.39404e-07
-1.70118e-05
-4.21719e-07
-1.66335e-05
-4.95287e-07
-1.61936e-05
-5.81577e-07
-1.56901e-05
-6.71171e-07
-1.51286e-05
-7.53224e-07
-1.4512e-05
-8.30885e-07
-1.38417e-05
-9.06978e-07
-1.31187e-05
-9.81138e-07
-1.23498e-05
-1.04385e-06
-1.15439e-05
-1.09271e-06
-1.07019e-05
-1.14293e-06
-9.81598e-06
-1.20865e-06
-8.89398e-06
-1.26459e-06
-7.94216e-06
-1.31053e-06
-6.96225e-06
-1.34963e-06
-5.94941e-06
-1.38263e-06
-4.91252e-06
-1.40726e-06
-3.88003e-06
-1.42325e-06
-2.83585e-06
-1.43836e-06
-1.78232e-06
-1.45359e-06
-7.11185e-07
-1.47713e-06
3.58666e-07
-1.47103e-06
1.43037e-06
-1.47082e-06
2.50092e-06
-1.46977e-06
3.56866e-06
-1.4679e-06
4.629e-06
-1.45939e-06
5.67794e-06
-1.44449e-06
6.71203e-06
-1.42427e-06
7.72833e-06
-1.39969e-06
8.72436e-06
-1.37153e-06
9.69797e-06
-1.34033e-06
1.06473e-05
-1.30656e-06
1.15708e-05
-1.27058e-06
1.24672e-05
-1.23274e-06
1.33352e-05
-1.19334e-06
1.41739e-05
-1.15267e-06
1.49828e-05
-1.111e-06
1.57611e-05
-1.0686e-06
1.65085e-05
-1.02565e-06
1.72247e-05
-9.82233e-07
1.79095e-05
-9.38545e-07
1.85629e-05
-8.9496e-07
1.91851e-05
-8.51717e-07
1.97765e-05
-8.09061e-07
2.03375e-05
-7.67062e-07
2.08688e-05
-7.25894e-07
2.1371e-05
-6.85679e-07
2.18449e-05
-6.46519e-07
2.22912e-05
-6.08473e-07
2.27108e-05
-5.7158e-07
2.31044e-05
-5.35877e-07
2.34731e-05
-5.01406e-07
2.38176e-05
-4.68202e-07
2.41389e-05
-4.363e-07
2.4438e-05
-4.05724e-07
2.47157e-05
-3.7649e-07
2.49732e-05
-3.48607e-07
2.52113e-05
-3.22075e-07
2.5431e-05
-2.96884e-07
2.56332e-05
-2.73021e-07
2.5819e-05
-2.50464e-07
2.59891e-05
-2.29187e-07
2.61446e-05
-2.09158e-07
2.62863e-05
-1.90344e-07
2.6415e-05
-1.72706e-07
2.65316e-05
-1.56205e-07
2.66368e-05
-1.40798e-07
2.67315e-05
-1.26441e-07
2.68163e-05
-1.13092e-07
2.68919e-05
-1.00704e-07
2.69591e-05
-8.92321e-08
2.70184e-05
-7.86318e-08
2.70705e-05
-6.88581e-08
2.71159e-05
-5.9867e-08
2.71552e-05
-5.16151e-08
2.71888e-05
-4.40603e-08
2.72174e-05
-3.71612e-08
2.72412e-05
-3.08776e-08
2.72607e-05
-2.51709e-08
2.72764e-05
-2.00032e-08
2.72886e-05
-1.5338e-08
2.72976e-05
-1.11404e-08
2.73038e-05
-7.38138e-09
2.73075e-05
-4.04186e-09
2.73089e-05
-1.09404e-09
2.73084e-05
1.51708e-09
2.73061e-05
3.83023e-09
2.73022e-05
5.85591e-09
2.72971e-05
7.61196e-09
2.72907e-05
9.10734e-09
2.72834e-05
1.03604e-08
2.72753e-05
1.13918e-08
2.72665e-05
1.22237e-08
2.72572e-05
1.2878e-08
2.72475e-05
1.33742e-08
2.72375e-05
1.37296e-08
2.72273e-05
1.39595e-08
2.72169e-05
1.40773e-08
2.72065e-05
1.40939e-08
2.71962e-05
1.40188e-08
2.71859e-05
1.38641e-08
2.71757e-05
1.36429e-08
2.71658e-05
1.33654e-08
2.7156e-05
1.30403e-08
2.71465e-05
1.26754e-08
2.71373e-05
1.22774e-08
2.71284e-05
1.1852e-08
2.71197e-05
1.14033e-08
2.71115e-05
1.09354e-08
2.71035e-05
1.04522e-08
2.70959e-05
9.95728e-09
2.70887e-05
9.45433e-09
2.70819e-05
8.94669e-09
2.70754e-05
8.43745e-09
2.70693e-05
7.92938e-09
2.70635e-05
7.42502e-09
2.70581e-05
6.92656e-09
2.70531e-05
6.43598e-09
2.70484e-05
5.95495e-09
2.70441e-05
5.48495e-09
2.70401e-05
5.02722e-09
2.70364e-05
4.58279e-09
2.70331e-05
4.15253e-09
2.703e-05
3.73713e-09
2.70273e-05
3.33713e-09
2.70248e-05
2.95292e-09
2.70226e-05
2.58475e-09
2.70207e-05
2.23277e-09
2.7019e-05
1.89698e-09
2.70176e-05
1.57756e-09
2.70164e-05
1.27508e-09
2.70154e-05
9.89674e-10
2.70146e-05
7.20083e-10
2.7014e-05
4.64937e-10
2.70136e-05
2.24735e-10
2.70133e-05
-6.03432e-12
2.70133e-05
-2.0995e-10
2.70133e-05
-4.03405e-10
2.70135e-05
-5.81154e-10
2.70138e-05
-7.49047e-10
2.70143e-05
-9.05076e-10
2.70149e-05
-1.04889e-09
2.70155e-05
-1.18093e-09
2.70163e-05
-1.30277e-09
2.70171e-05
-1.41036e-09
2.7018e-05
-1.50671e-09
2.7019e-05
-1.59315e-09
2.70201e-05
-1.6707e-09
2.70212e-05
-1.74e-09
2.70223e-05
-1.80145e-09
2.70235e-05
-1.85584e-09
2.70248e-05
-1.90109e-09
2.70261e-05
-1.93834e-09
2.70274e-05
-1.96821e-09
2.70287e-05
-1.99153e-09
2.703e-05
-2.00901e-09
2.70314e-05
-2.02117e-09
2.70327e-05
-2.02855e-09
2.70341e-05
-2.03168e-09
2.70355e-05
-2.03089e-09
2.70369e-05
-2.02542e-09
2.70382e-05
-2.01548e-09
2.70396e-05
-2.00151e-09
2.70409e-05
-1.98405e-09
2.70423e-05
-1.96363e-09
2.70436e-05
-1.94064e-09
2.70449e-05
-1.91534e-09
2.70462e-05
-1.88783e-09
2.70475e-05
-1.8583e-09
2.70488e-05
-1.82695e-09
2.705e-05
-1.79409e-09
2.70512e-05
-1.76022e-09
2.70524e-05
-1.72573e-09
2.70536e-05
-1.69041e-09
2.70548e-05
-1.65386e-09
2.70559e-05
-1.61617e-09
2.7057e-05
-1.57768e-09
2.70581e-05
-1.5387e-09
2.70591e-05
-1.49944e-09
2.70601e-05
-1.46006e-09
2.70611e-05
-1.42067e-09
2.70621e-05
-1.38135e-09
2.7063e-05
-1.34214e-09
2.70639e-05
-1.30313e-09
2.70648e-05
-1.26438e-09
2.70657e-05
-1.22596e-09
2.70665e-05
-1.18793e-09
2.70673e-05
-1.15034e-09
2.70681e-05
-1.11324e-09
2.70689e-05
-1.07671e-09
2.70696e-05
-1.04077e-09
2.70703e-05
-1.00546e-09
2.7071e-05
-9.70808e-10
2.70716e-05
-9.36822e-10
2.70723e-05
-9.03529e-10
2.70729e-05
-8.70951e-10
2.70735e-05
-8.39105e-10
2.7074e-05
-8.08005e-10
2.70746e-05
-7.77666e-10
2.70751e-05
-7.48095e-10
2.70756e-05
-7.19301e-10
2.70761e-05
-6.91285e-10
2.70766e-05
-6.6405e-10
2.7077e-05
-6.37595e-10
2.70775e-05
-6.11917e-10
2.70779e-05
-5.87013e-10
2.70783e-05
-5.62875e-10
2.70787e-05
-5.39497e-10
2.7079e-05
-5.1687e-10
2.70794e-05
-4.94984e-10
2.70797e-05
-4.73827e-10
2.708e-05
-4.5339e-10
2.70803e-05
-4.33658e-10
2.70806e-05
-4.14621e-10
2.70809e-05
-3.96262e-10
2.70812e-05
-3.78569e-10
2.70814e-05
-3.61526e-10
2.70817e-05
-3.45119e-10
2.70819e-05
-3.29333e-10
2.70821e-05
-3.14151e-10
2.70823e-05
-2.99558e-10
2.70825e-05
-2.85537e-10
2.70827e-05
-2.72072e-10
2.70829e-05
-2.59149e-10
2.70831e-05
-2.46751e-10
2.70832e-05
-2.34863e-10
2.70834e-05
-2.23469e-10
2.70835e-05
-2.12554e-10
2.70837e-05
-2.02102e-10
2.70838e-05
-1.92099e-10
2.70839e-05
-1.82528e-10
2.70841e-05
-1.73376e-10
2.70842e-05
-1.64627e-10
2.70843e-05
-1.56268e-10
2.70844e-05
-1.48285e-10
2.70845e-05
-1.40664e-10
2.70846e-05
-1.33392e-10
2.70847e-05
-1.26457e-10
2.70848e-05
-1.19846e-10
2.70848e-05
-1.13544e-10
2.70849e-05
-1.07536e-10
2.7085e-05
-1.01813e-10
2.7085e-05
-9.63623e-11
2.70851e-05
-9.11754e-11
2.70852e-05
-8.62418e-11
2.70852e-05
-8.15512e-11
2.70853e-05
-7.70935e-11
2.70853e-05
-7.28573e-11
2.70854e-05
-6.88339e-11
2.70854e-05
-6.50129e-11
2.70855e-05
-6.13848e-11
2.70855e-05
-5.79415e-11
2.70855e-05
-5.46745e-11
2.70856e-05
-5.15771e-11
2.70856e-05
-4.86414e-11
2.70856e-05
-4.58591e-11
2.70857e-05
-4.32222e-11
2.70857e-05
-4.07248e-11
2.70857e-05
-3.83616e-11
2.70857e-05
-3.61265e-11
2.70858e-05
-3.40133e-11
2.70858e-05
-3.20155e-11
2.70858e-05
-3.01265e-11
2.70858e-05
-2.83403e-11
2.70858e-05
-2.66515e-11
2.70859e-05
-2.50558e-11
2.70859e-05
-2.35479e-11
2.70859e-05
-2.21236e-11
2.70859e-05
-2.07787e-11
2.70859e-05
-1.95098e-11
2.70859e-05
-1.83134e-11
2.70859e-05
-1.71846e-11
2.7086e-05
-1.61213e-11
2.7086e-05
-1.51205e-11
2.7086e-05
-1.41776e-11
2.7086e-05
-1.32905e-11
2.7086e-05
-1.24545e-11
2.7086e-05
-1.1667e-11
2.7086e-05
-1.0925e-11
2.7086e-05
-1.02252e-11
2.7086e-05
-9.56588e-12
2.7086e-05
-8.94514e-12
2.7086e-05
-8.36126e-12
2.7086e-05
-7.81201e-12
2.7086e-05
-7.29516e-12
2.7086e-05
-6.8092e-12
2.7086e-05
-6.35198e-12
2.7086e-05
-5.92109e-12
2.7086e-05
-5.51644e-12
2.7086e-05
-5.13522e-12
2.70861e-05
-4.77731e-12
2.70861e-05
-4.44081e-12
2.70861e-05
-4.12312e-12
2.70861e-05
-3.82377e-12
2.70861e-05
-3.54153e-12
2.70861e-05
-3.2747e-12
2.70861e-05
-3.02275e-12
2.70861e-05
-2.78485e-12
2.70861e-05
-2.55992e-12
2.70861e-05
-2.34776e-12
2.70861e-05
-2.14669e-12
2.70861e-05
-1.95666e-12
2.70861e-05
-1.7763e-12
2.70861e-05
-1.60523e-12
2.70861e-05
-1.44213e-12
2.70861e-05
-1.28731e-12
2.70861e-05
-1.13928e-12
2.70861e-05
-9.98501e-13
2.70861e-05
-8.64136e-13
2.70861e-05
-7.3627e-13
2.70861e-05
-6.12823e-13
2.70861e-05
-4.94304e-13
2.70861e-05
-3.80117e-13
2.70861e-05
-2.69024e-13
2.70861e-05
-1.60663e-13
2.70861e-05
-5.70536e-14
2.70861e-05
4.4761e-14
2.70861e-05
1.44191e-13
2.70861e-05
2.40092e-13
2.70861e-05
3.34457e-13
2.70861e-05
4.26376e-13
2.70861e-05
5.16893e-13
2.70861e-05
6.05827e-13
2.70861e-05
6.93824e-13
2.70861e-05
7.80678e-13
2.70861e-05
8.66432e-13
2.70861e-05
9.51073e-13
2.70861e-05
1.03519e-12
2.70861e-05
1.11868e-12
2.70861e-05
1.20245e-12
2.70861e-05
1.28628e-12
2.70861e-05
1.37004e-12
2.70861e-05
1.45348e-12
2.70861e-05
1.53755e-12
2.70861e-05
1.62131e-12
2.70861e-05
1.70497e-12
2.70861e-05
1.78949e-12
2.7086e-05
1.87435e-12
2.7086e-05
1.95918e-12
2.7086e-05
2.04439e-12
2.7086e-05
2.13043e-12
2.7086e-05
2.21705e-12
2.7086e-05
2.30424e-12
2.7086e-05
2.39162e-12
2.7086e-05
2.47998e-12
2.7086e-05
2.56881e-12
2.7086e-05
2.6579e-12
2.7086e-05
2.7477e-12
2.7086e-05
2.83857e-12
2.7086e-05
2.92966e-12
2.7086e-05
3.02177e-12
2.7086e-05
3.11412e-12
2.7086e-05
3.2072e-12
2.7086e-05
3.30073e-12
2.7086e-05
3.39518e-12
2.7086e-05
3.48982e-12
2.7086e-05
3.58474e-12
2.7086e-05
3.68027e-12
2.7086e-05
3.77615e-12
2.7086e-05
3.87242e-12
2.7086e-05
3.96906e-12
2.7086e-05
4.06573e-12
2.7086e-05
4.16313e-12
2.7086e-05
4.26063e-12
2.7086e-05
4.35805e-12
2.7086e-05
4.4552e-12
2.7086e-05
4.55237e-12
2.7086e-05
4.64995e-12
2.7086e-05
4.74729e-12
2.7086e-05
4.84466e-12
2.7086e-05
4.94144e-12
2.7086e-05
5.03782e-12
2.7086e-05
5.13399e-12
2.7086e-05
5.22959e-12
2.70859e-05
5.32471e-12
2.70859e-05
5.41947e-12
2.70859e-05
5.51337e-12
2.70859e-05
5.60629e-12
2.70859e-05
5.69895e-12
2.70859e-05
5.79e-12
2.70859e-05
5.87981e-12
2.70859e-05
5.96896e-12
2.70859e-05
6.05714e-12
2.70859e-05
6.14333e-12
2.70859e-05
6.22856e-12
2.70859e-05
6.31238e-12
2.70859e-05
6.39453e-12
2.70859e-05
6.47491e-12
2.70859e-05
6.55367e-12
2.70859e-05
6.63078e-12
2.70859e-05
6.70561e-12
2.70859e-05
6.77841e-12
2.70859e-05
6.84918e-12
2.70859e-05
6.91772e-12
2.70859e-05
6.98398e-12
2.70858e-05
7.04789e-12
2.70858e-05
7.10921e-12
2.70858e-05
7.16816e-12
2.70858e-05
7.22386e-12
2.70858e-05
7.2771e-12
2.70858e-05
7.32749e-12
2.70858e-05
7.37468e-12
2.70858e-05
7.41939e-12
2.70858e-05
7.46026e-12
2.70858e-05
7.49801e-12
2.70858e-05
7.53252e-12
2.70858e-05
7.56367e-12
2.70858e-05
7.59131e-12
2.70858e-05
7.61509e-12
2.70858e-05
7.63534e-12
2.70858e-05
7.65191e-12
2.70858e-05
7.66455e-12
2.70858e-05
7.67352e-12
2.70857e-05
7.67927e-12
2.70857e-05
7.68165e-12
2.70857e-05
7.6803e-12
2.70857e-05
7.67454e-12
2.70857e-05
7.66456e-12
2.70857e-05
7.65047e-12
2.70857e-05
7.63202e-12
2.70857e-05
7.60935e-12
2.70857e-05
7.58236e-12
2.70857e-05
7.55109e-12
2.70857e-05
7.51529e-12
2.70857e-05
7.47569e-12
2.70857e-05
7.43168e-12
2.70857e-05
7.38311e-12
2.70857e-05
7.33107e-12
2.70857e-05
7.27431e-12
2.70857e-05
7.21368e-12
2.70857e-05
7.14883e-12
2.70856e-05
7.0807e-12
2.70856e-05
7.00799e-12
2.70856e-05
6.9314e-12
2.70856e-05
6.85141e-12
2.70856e-05
6.76731e-12
2.70856e-05
6.68036e-12
2.70856e-05
6.58966e-12
2.70856e-05
6.49613e-12
2.70856e-05
6.39935e-12
2.70856e-05
6.29959e-12
2.70856e-05
6.19737e-12
2.70856e-05
6.09261e-12
2.70856e-05
5.98628e-12
2.70856e-05
5.87741e-12
2.70856e-05
5.76746e-12
2.70856e-05
5.65612e-12
2.70856e-05
5.54425e-12
2.70856e-05
5.43189e-12
2.70856e-05
5.31953e-12
2.70856e-05
5.20781e-12
2.70856e-05
5.09719e-12
2.70856e-05
4.98939e-12
2.70855e-05
4.88383e-12
2.70855e-05
4.78297e-12
2.70855e-05
4.68741e-12
2.70855e-05
4.59999e-12
2.70855e-05
4.52326e-12
2.70855e-05
4.46263e-12
2.70855e-05
4.42668e-12
2.70855e-05
4.43144e-12
2.70855e-05
4.49474e-12
2.70855e-05
4.65173e-12
2.70855e-05
5.00915e-12
2.70855e-05
5.74148e-12
6.70759e-12
-1.92863e-07
2.39246e-07
-7.46816e-07
9.16137e-07
-1.62368e-06
1.58548e-06
-2.76082e-06
2.13305e-06
-4.08801e-06
2.53027e-06
-5.53992e-06
2.78634e-06
-7.06179e-06
2.92662e-06
-8.60768e-06
2.97783e-06
-1.01424e-05
2.9639e-06
-1.16426e-05
2.9045e-06
-1.3093e-05
2.81514e-06
-1.44835e-05
2.70668e-06
-1.58073e-05
2.58583e-06
-1.70597e-05
2.4563e-06
-1.82368e-05
2.31992e-06
-1.93358e-05
2.17825e-06
-2.03551e-05
2.0335e-06
-2.12943e-05
1.88754e-06
-2.2152e-05
1.738e-06
-2.29244e-05
1.58082e-06
-2.36097e-05
1.41954e-06
-2.42073e-05
1.256e-06
-2.47165e-05
1.09053e-06
-2.51364e-05
9.22985e-07
-2.54662e-05
7.53142e-07
-2.57053e-05
5.81185e-07
-2.58538e-05
4.08097e-07
-2.59117e-05
2.33929e-07
-2.58786e-05
5.8592e-08
-2.57528e-05
-1.17455e-07
-2.55351e-05
-2.95212e-07
-2.52246e-05
-4.74798e-07
-2.48214e-05
-6.55412e-07
-2.43257e-05
-8.35087e-07
-2.37391e-05
-1.00832e-06
-2.30754e-05
-1.15898e-06
-2.23241e-05
-1.33289e-06
-2.14875e-05
-1.50784e-06
-2.05725e-05
-1.6682e-06
-1.95824e-05
-1.82095e-06
-1.85203e-05
-1.96906e-06
-1.73891e-05
-2.11243e-06
-1.61862e-05
-2.24667e-06
-1.49082e-05
-2.37074e-06
-1.35679e-05
-2.48325e-06
-1.21928e-05
-2.5837e-06
-1.0784e-05
-2.67346e-06
-9.33883e-06
-2.75566e-06
-7.85352e-06
-2.83495e-06
-6.32068e-06
-2.91547e-06
-4.75094e-06
-2.97701e-06
-3.17643e-06
-2.99776e-06
-1.58524e-06
-3.02955e-06
1.84844e-08
-3.05731e-06
1.62617e-06
-3.08482e-06
3.24729e-06
-3.09215e-06
4.86922e-06
-3.09275e-06
6.48576e-06
-3.0863e-06
8.09036e-06
-3.0725e-06
9.67966e-06
-3.04869e-06
1.125e-05
-3.01483e-06
1.27976e-05
-2.97187e-06
1.43189e-05
-2.92096e-06
1.58105e-05
-2.86315e-06
1.72695e-05
-2.79934e-06
1.86933e-05
-2.73034e-06
2.00795e-05
-2.65685e-06
2.14263e-05
-2.57952e-06
2.27319e-05
-2.49897e-06
2.39951e-05
-2.41577e-06
2.52145e-05
-2.33047e-06
2.63895e-05
-2.24359e-06
2.75194e-05
-2.15557e-06
2.8604e-05
-2.06677e-06
2.96429e-05
-1.97746e-06
3.06361e-05
-1.88814e-06
3.15836e-05
-1.79925e-06
3.24859e-05
-1.71132e-06
3.33434e-05
-1.62463e-06
3.41571e-05
-1.53957e-06
3.49278e-05
-1.45638e-06
3.56566e-05
-1.37526e-06
3.63444e-05
-1.29632e-06
3.69925e-05
-1.21965e-06
3.76019e-05
-1.14533e-06
3.8174e-05
-1.07346e-06
3.87099e-05
-1.00413e-06
3.9211e-05
-9.37406e-07
3.96786e-05
-8.7335e-07
4.01141e-05
-8.12001e-07
4.05189e-05
-7.53382e-07
4.08943e-05
-6.975e-07
4.12418e-05
-6.44343e-07
4.15627e-05
-5.93888e-07
4.18583e-05
-5.46099e-07
4.213e-05
-5.00929e-07
4.23792e-05
-4.5832e-07
4.26071e-05
-4.18209e-07
4.28149e-05
-3.80524e-07
4.30039e-05
-3.45188e-07
4.31752e-05
-3.1212e-07
4.333e-05
-2.81235e-07
4.34693e-05
-2.52447e-07
4.35943e-05
-2.25666e-07
4.37059e-05
-2.00804e-07
4.3805e-05
-1.7777e-07
4.38926e-05
-1.56475e-07
4.39696e-05
-1.3683e-07
4.40367e-05
-1.18749e-07
4.40948e-05
-1.02145e-07
4.41446e-05
-8.69334e-08
4.41867e-05
-7.30335e-08
4.42219e-05
-6.03653e-08
4.42508e-05
-4.88516e-08
4.42739e-05
-3.84175e-08
4.42917e-05
-2.89914e-08
4.43048e-05
-2.05082e-08
4.43137e-05
-1.29146e-08
4.43188e-05
-6.16046e-09
4.43205e-05
-1.57351e-10
4.43192e-05
5.13426e-09
4.43152e-05
9.79584e-09
4.4309e-05
1.38546e-08
4.43007e-05
1.73894e-08
4.42906e-05
2.04095e-08
4.42791e-05
2.29443e-08
4.42663e-05
2.50372e-08
4.42524e-05
2.67332e-08
4.42377e-05
2.80733e-08
4.42224e-05
2.90943e-08
4.42065e-05
2.98294e-08
4.41903e-05
3.03086e-08
4.41738e-05
3.05584e-08
4.41572e-05
3.06017e-08
4.41406e-05
3.04587e-08
4.41241e-05
3.01517e-08
4.41078e-05
2.97068e-08
4.40917e-05
2.91465e-08
4.40758e-05
2.84878e-08
4.40604e-05
2.77464e-08
4.40453e-05
2.69345e-08
4.40306e-05
2.60622e-08
4.40164e-05
2.51386e-08
4.40027e-05
2.41726e-08
4.39895e-05
2.31729e-08
4.39768e-05
2.21479e-08
4.39646e-05
2.11051e-08
4.3953e-05
2.00515e-08
4.3942e-05
1.89937e-08
4.39315e-05
1.79374e-08
4.39215e-05
1.68876e-08
4.39121e-05
1.58491e-08
4.39032e-05
1.48257e-08
4.38949e-05
1.3821e-08
4.38871e-05
1.2838e-08
4.38798e-05
1.18793e-08
4.3873e-05
1.09471e-08
4.38667e-05
1.0043e-08
4.38608e-05
9.16877e-09
4.38555e-05
8.32537e-09
4.38505e-05
7.51373e-09
4.3846e-05
6.73448e-09
4.38419e-05
5.98804e-09
4.38382e-05
5.27477e-09
4.38349e-05
4.5951e-09
4.3832e-05
3.94905e-09
4.38293e-05
3.33573e-09
4.38271e-05
2.75406e-09
4.38251e-05
2.20354e-09
4.38234e-05
1.68383e-09
4.3822e-05
1.19877e-09
4.38208e-05
7.44465e-10
4.38199e-05
3.19546e-10
4.38193e-05
-7.94946e-11
4.38188e-05
-4.52336e-10
4.38186e-05
-7.98522e-10
4.38185e-05
-1.11873e-09
4.38186e-05
-1.41284e-09
4.38189e-05
-1.67931e-09
4.38193e-05
-1.92572e-09
4.38199e-05
-2.15179e-09
4.38205e-05
-2.35747e-09
4.38213e-05
-2.54369e-09
4.38223e-05
-2.71128e-09
4.38233e-05
-2.86334e-09
4.38244e-05
-2.99444e-09
4.38255e-05
-3.10865e-09
4.38268e-05
-3.20716e-09
4.38281e-05
-3.29142e-09
4.38294e-05
-3.36248e-09
4.38308e-05
-3.42118e-09
4.38323e-05
-3.46849e-09