/*--------------------------------*- C++ -*----------------------------------*\
| =========                 |                                                 |
| \\      /  F ield         | OpenFOAM: The Open Source CFD Toolbox           |
|  \\    /   O peration     | Version:  2312                                  |
|   \\  /    A nd           | Website:  www.openfoam.com                      |
|    \\/     M anipulation  |                                                 |
\*---------------------------------------------------------------------------*/
FoamFile
{
    version     2.0;
    format      ascii;
    arch        "LSB;label=32;scalar=64";
    class       volVectorField;
    location    "600";
    object      U;
}
// * * * * * * * * * * * * * * * * * * * * * * * * * * * * * * * * * * * * * //

dimensions      [0 1 -1 0 0 0 0];

internalField   nonuniform List<vector> 
20400
(
(9.72475e-06 -9.8028e-06 0)
(4.20248e-06 1.78705e-06 0)
(-4.47535e-05 1.3451e-05 0)
(-0.000136306 2.0509e-05 0)
(-0.000258606 2.38692e-05 0)
(-0.000400451 2.49598e-05 0)
(-0.000553066 2.55392e-05 0)
(-0.000710568 2.65212e-05 0)
(-0.000869259 2.6938e-05 0)
(-0.00102646 2.68137e-05 0)
(-0.00118028 2.63299e-05 0)
(-0.00132945 2.56786e-05 0)
(-0.00147326 2.4964e-05 0)
(-0.00161128 2.42186e-05 0)
(-0.00174323 2.34386e-05 0)
(-0.00186883 2.26172e-05 0)
(-0.00198791 2.1773e-05 0)
(-0.00210037 2.09308e-05 0)
(-0.00220604 2.00315e-05 0)
(-0.00230454 1.89846e-05 0)
(-0.00239543 1.78422e-05 0)
(-0.00247845 1.66509e-05 0)
(-0.00255341 1.54213e-05 0)
(-0.00262017 1.41473e-05 0)
(-0.00267853 1.28181e-05 0)
(-0.00272831 1.14263e-05 0)
(-0.00276931 9.96773e-06 0)
(-0.00280132 8.42089e-06 0)
(-0.00282411 6.76225e-06 0)
(-0.00283743 5.09574e-06 0)
(-0.00284141 3.46862e-06 0)
(-0.00283622 1.9599e-06 0)
(-0.00282121 3.02758e-07 0)
(-0.00279636 -1.41291e-06 0)
(-0.00276221 -2.90557e-06 0)
(-0.00271952 -4.08594e-06 0)
(-0.00266788 -5.94927e-06 0)
(-0.00260607 -8.06484e-06 0)
(-0.0025341 -9.92958e-06 0)
(-0.00245277 -1.17048e-05 0)
(-0.00236244 -1.3548e-05 0)
(-0.00226333 -1.54418e-05 0)
(-0.00215655 -1.69698e-05 0)
(-0.00204408 -1.80191e-05 0)
(-0.00192649 -1.92995e-05 0)
(-0.00180183 -2.14589e-05 0)
(-0.00166868 -2.35936e-05 0)
(-0.00152812 -2.59702e-05 0)
(-0.0013823 -2.88057e-05 0)
(-0.00123432 -3.12825e-05 0)
(-0.00108574 -3.36044e-05 0)
(-0.000933556 -3.74076e-05 0)
(-0.000776786 -3.7632e-05 0)
(-0.000618053 -3.74003e-05 0)
(-0.000456295 -3.01418e-05 0)
(-0.00029438 -3.90729e-05 0)
(-0.000134626 -4.06751e-05 0)
(2.49814e-05 -3.97368e-05 0)
(0.000184938 -3.60235e-05 0)
(0.000345008 -3.30053e-05 0)
(0.000504092 -3.06512e-05 0)
(0.000661365 -2.87457e-05 0)
(0.000816182 -2.71475e-05 0)
(0.000968045 -2.57612e-05 0)
(0.00111656 -2.45213e-05 0)
(0.00126141 -2.33829e-05 0)
(0.00140231 -2.23159e-05 0)
(0.00153906 -2.13002e-05 0)
(0.00167144 -2.03225e-05 0)
(0.00179931 -1.93749e-05 0)
(0.00192255 -1.84523e-05 0)
(0.00204107 -1.75529e-05 0)
(0.00215479 -1.66833e-05 0)
(0.00226364 -1.59142e-05 0)
(0.00236759 -1.52144e-05 0)
(0.00246664 -1.44937e-05 0)
(0.00256085 -1.37536e-05 0)
(0.00265028 -1.30087e-05 0)
(0.002735 -1.22684e-05 0)
(0.0028151 -1.15417e-05 0)
(0.00289069 -1.08331e-05 0)
(0.00296189 -1.01455e-05 0)
(0.00302882 -9.47983e-06 0)
(0.00309163 -8.83688e-06 0)
(0.00315044 -8.21731e-06 0)
(0.0032054 -7.62195e-06 0)
(0.00325666 -7.05162e-06 0)
(0.00330436 -6.507e-06 0)
(0.00334866 -5.98858e-06 0)
(0.0033897 -5.49662e-06 0)
(0.00342764 -5.03116e-06 0)
(0.00346263 -4.59203e-06 0)
(0.00349483 -4.17889e-06 0)
(0.00352439 -3.79123e-06 0)
(0.00355146 -3.42841e-06 0)
(0.00357618 -3.08971e-06 0)
(0.00359868 -2.77431e-06 0)
(0.00361912 -2.48133e-06 0)
(0.00363763 -2.20983e-06 0)
(0.00365432 -1.95886e-06 0)
(0.00366933 -1.72743e-06 0)
(0.00368277 -1.51456e-06 0)
(0.00369476 -1.31926e-06 0)
(0.0037054 -1.14055e-06 0)
(0.0037148 -9.77451e-07 0)
(0.00372305 -8.29032e-07 0)
(0.00373025 -6.94367e-07 0)
(0.00373647 -5.72564e-07 0)
(0.00374181 -4.62763e-07 0)
(0.00374635 -3.64134e-07 0)
(0.00375014 -2.75882e-07 0)
(0.00375327 -1.97246e-07 0)
(0.00375579 -1.27507e-07 0)
(0.00375776 -6.59551e-08 0)
(0.00375924 -1.17607e-08 0)
(0.00376029 3.57501e-08 0)
(0.00376094 7.56976e-08 0)
(0.00376124 1.07173e-07 0)
(0.00376124 1.34332e-07 0)
(0.00376098 1.62595e-07 0)
(0.00376047 1.8789e-07 0)
(0.00375974 2.07037e-07 0)
(0.00375884 2.20508e-07 0)
(0.0037578 2.29722e-07 0)
(0.00375663 2.35562e-07 0)
(0.00375536 2.38619e-07 0)
(0.00375401 2.39348e-07 0)
(0.0037526 2.38107e-07 0)
(0.00375115 2.35192e-07 0)
(0.00374967 2.30831e-07 0)
(0.00374818 2.25155e-07 0)
(0.00374668 2.18221e-07 0)
(0.00374519 2.10228e-07 0)
(0.00374372 2.01544e-07 0)
(0.00374228 1.92353e-07 0)
(0.00374086 1.82753e-07 0)
(0.00373948 1.72886e-07 0)
(0.00373814 1.6281e-07 0)
(0.00373685 1.52597e-07 0)
(0.0037356 1.42341e-07 0)
(0.0037344 1.32103e-07 0)
(0.00373326 1.21908e-07 0)
(0.00373217 1.11782e-07 0)
(0.00373114 1.01754e-07 0)
(0.00373016 9.18632e-08 0)
(0.00372923 8.21458e-08 0)
(0.00372837 7.26376e-08 0)
(0.00372756 6.3371e-08 0)
(0.00372681 5.43741e-08 0)
(0.00372611 4.5671e-08 0)
(0.00372547 3.72814e-08 0)
(0.00372488 2.92207e-08 0)
(0.00372434 2.15011e-08 0)
(0.00372386 1.41314e-08 0)
(0.00372342 7.11738e-09 0)
(0.00372303 4.6202e-10 0)
(0.00372269 -5.83374e-09 0)
(0.00372239 -1.17716e-08 0)
(0.00372213 -1.73553e-08 0)
(0.00372192 -2.25907e-08 0)
(0.00372174 -2.74881e-08 0)
(0.0037216 -3.20714e-08 0)
(0.0037215 -3.63736e-08 0)
(0.00372142 -4.03594e-08 0)
(0.00372138 -4.39073e-08 0)
(0.00372137 -4.69931e-08 0)
(0.00372139 -4.97605e-08 0)
(0.00372143 -5.24445e-08 0)
(0.00372149 -5.49442e-08 0)
(0.00372158 -5.71972e-08 0)
(0.00372169 -5.90444e-08 0)
(0.00372182 -6.09085e-08 0)
(0.00372196 -6.23232e-08 0)
(0.00372212 -6.34372e-08 0)
(0.0037223 -6.43882e-08 0)
(0.00372249 -6.52413e-08 0)
(0.00372269 -6.59862e-08 0)
(0.0037229 -6.66642e-08 0)
(0.00372313 -6.70624e-08 0)
(0.00372336 -6.71973e-08 0)
(0.0037236 -6.71406e-08 0)
(0.00372384 -6.69795e-08 0)
(0.00372409 -6.67506e-08 0)
(0.00372435 -6.64595e-08 0)
(0.00372461 -6.61232e-08 0)
(0.00372487 -6.56329e-08 0)
(0.00372514 -6.50137e-08 0)
(0.0037254 -6.42808e-08 0)
(0.00372567 -6.34611e-08 0)
(0.00372594 -6.25776e-08 0)
(0.00372621 -6.16441e-08 0)
(0.00372647 -6.06757e-08 0)
(0.00372674 -5.96862e-08 0)
(0.003727 -5.86799e-08 0)
(0.00372726 -5.76185e-08 0)
(0.00372752 -5.65091e-08 0)
(0.00372778 -5.53517e-08 0)
(0.00372803 -5.41553e-08 0)
(0.00372828 -5.29389e-08 0)
(0.00372853 -5.17176e-08 0)
(0.00372877 -5.04935e-08 0)
(0.00372901 -4.92613e-08 0)
(0.00372924 -4.80204e-08 0)
(0.00372947 -4.67736e-08 0)
(0.00372969 -4.55275e-08 0)
(0.00372991 -4.42981e-08 0)
(0.00373012 -4.30992e-08 0)
(0.00373033 -4.19169e-08 0)
(0.00373054 -4.07283e-08 0)
(0.00373074 -3.95334e-08 0)
(0.00373093 -3.83434e-08 0)
(0.00373112 -3.71658e-08 0)
(0.0037313 -3.60057e-08 0)
(0.00373148 -3.48666e-08 0)
(0.00373166 -3.37497e-08 0)
(0.00373182 -3.26539e-08 0)
(0.00373199 -3.15791e-08 0)
(0.00373215 -3.05254e-08 0)
(0.0037323 -2.94933e-08 0)
(0.00373245 -2.84832e-08 0)
(0.00373259 -2.74957e-08 0)
(0.00373273 -2.6531e-08 0)
(0.00373287 -2.55895e-08 0)
(0.003733 -2.46717e-08 0)
(0.00373312 -2.37781e-08 0)
(0.00373325 -2.29084e-08 0)
(0.00373336 -2.20623e-08 0)
(0.00373348 -2.12393e-08 0)
(0.00373359 -2.04395e-08 0)
(0.00373369 -1.96625e-08 0)
(0.00373379 -1.89083e-08 0)
(0.00373389 -1.81769e-08 0)
(0.00373398 -1.74676e-08 0)
(0.00373407 -1.67807e-08 0)
(0.00373416 -1.61157e-08 0)
(0.00373424 -1.54723e-08 0)
(0.00373432 -1.485e-08 0)
(0.0037344 -1.42486e-08 0)
(0.00373448 -1.36677e-08 0)
(0.00373455 -1.31068e-08 0)
(0.00373461 -1.25654e-08 0)
(0.00373468 -1.20432e-08 0)
(0.00373474 -1.15397e-08 0)
(0.0037348 -1.10544e-08 0)
(0.00373486 -1.05869e-08 0)
(0.00373491 -1.01368e-08 0)
(0.00373497 -9.70363e-09 0)
(0.00373502 -9.28673e-09 0)
(0.00373506 -8.88581e-09 0)
(0.00373511 -8.50041e-09 0)
(0.00373515 -8.13e-09 0)
(0.0037352 -7.77412e-09 0)
(0.00373524 -7.4324e-09 0)
(0.00373527 -7.1044e-09 0)
(0.00373531 -6.78965e-09 0)
(0.00373534 -6.48758e-09 0)
(0.00373538 -6.19791e-09 0)
(0.00373541 -5.92013e-09 0)
(0.00373544 -5.654e-09 0)
(0.00373547 -5.39888e-09 0)
(0.0037355 -5.15467e-09 0)
(0.00373552 -4.92072e-09 0)
(0.00373555 -4.69689e-09 0)
(0.00373557 -4.4825e-09 0)
(0.00373559 -4.2775e-09 0)
(0.00373561 -4.08134e-09 0)
(0.00373563 -3.89379e-09 0)
(0.00373565 -3.7144e-09 0)
(0.00373567 -3.543e-09 0)
(0.00373569 -3.37932e-09 0)
(0.00373571 -3.223e-09 0)
(0.00373572 -3.07365e-09 0)
(0.00373574 -2.93116e-09 0)
(0.00373575 -2.79513e-09 0)
(0.00373576 -2.66514e-09 0)
(0.00373578 -2.541e-09 0)
(0.00373579 -2.42259e-09 0)
(0.0037358 -2.30956e-09 0)
(0.00373581 -2.20184e-09 0)
(0.00373582 -2.0991e-09 0)
(0.00373583 -2.00118e-09 0)
(0.00373584 -1.90801e-09 0)
(0.00373585 -1.81891e-09 0)
(0.00373586 -1.73414e-09 0)
(0.00373587 -1.6533e-09 0)
(0.00373587 -1.57624e-09 0)
(0.00373588 -1.50293e-09 0)
(0.00373589 -1.43294e-09 0)
(0.00373589 -1.36639e-09 0)
(0.0037359 -1.30299e-09 0)
(0.00373591 -1.2426e-09 0)
(0.00373591 -1.18494e-09 0)
(0.00373592 -1.13021e-09 0)
(0.00373592 -1.07811e-09 0)
(0.00373593 -1.02855e-09 0)
(0.00373593 -9.81359e-10 0)
(0.00373593 -9.36495e-10 0)
(0.00373594 -8.93729e-10 0)
(0.00373594 -8.52947e-10 0)
(0.00373595 -8.14097e-10 0)
(0.00373595 -7.77089e-10 0)
(0.00373595 -7.41834e-10 0)
(0.00373596 -7.08228e-10 0)
(0.00373596 -6.76181e-10 0)
(0.00373596 -6.4586e-10 0)
(0.00373596 -6.16885e-10 0)
(0.00373597 -5.89313e-10 0)
(0.00373597 -5.62965e-10 0)
(0.00373597 -5.38054e-10 0)
(0.00373597 -5.14318e-10 0)
(0.00373597 -4.91852e-10 0)
(0.00373598 -4.70294e-10 0)
(0.00373598 -4.49679e-10 0)
(0.00373598 -4.30092e-10 0)
(0.00373598 -4.11352e-10 0)
(0.00373598 -3.93525e-10 0)
(0.00373598 -3.76454e-10 0)
(0.00373598 -3.60244e-10 0)
(0.00373599 -3.44791e-10 0)
(0.00373599 -3.3003e-10 0)
(0.00373599 -3.15887e-10 0)
(0.00373599 -3.02389e-10 0)
(0.00373599 -2.8951e-10 0)
(0.00373599 -2.77223e-10 0)
(0.00373599 -2.65454e-10 0)
(0.00373599 -2.54299e-10 0)
(0.00373599 -2.43759e-10 0)
(0.00373599 -2.33505e-10 0)
(0.00373599 -2.23778e-10 0)
(0.003736 -2.14388e-10 0)
(0.003736 -2.05353e-10 0)
(0.003736 -1.96779e-10 0)
(0.003736 -1.88601e-10 0)
(0.003736 -1.806e-10 0)
(0.003736 -1.7309e-10 0)
(0.003736 -1.65799e-10 0)
(0.003736 -1.58843e-10 0)
(0.003736 -1.52183e-10 0)
(0.003736 -1.45674e-10 0)
(0.003736 -1.395e-10 0)
(0.003736 -1.33608e-10 0)
(0.003736 -1.27889e-10 0)
(0.003736 -1.22416e-10 0)
(0.003736 -1.17076e-10 0)
(0.003736 -1.11801e-10 0)
(0.003736 -1.06898e-10 0)
(0.003736 -1.02047e-10 0)
(0.003736 -9.75332e-11 0)
(0.003736 -9.30458e-11 0)
(0.003736 -8.87507e-11 0)
(0.003736 -8.46537e-11 0)
(0.003736 -8.05468e-11 0)
(0.003736 -7.67162e-11 0)
(0.003736 -7.28471e-11 0)
(0.003736 -6.91788e-11 0)
(0.003736 -6.55658e-11 0)
(0.003736 -6.20992e-11 0)
(0.003736 -5.8693e-11 0)
(0.003736 -5.53015e-11 0)
(0.003736 -5.20817e-11 0)
(0.003736 -4.91043e-11 0)
(0.003736 -4.61682e-11 0)
(0.003736 -4.33446e-11 0)
(0.003736 -4.03617e-11 0)
(0.003736 -3.74153e-11 0)
(0.003736 -3.46035e-11 0)
(0.003736 -3.18258e-11 0)
(0.003736 -2.92322e-11 0)
(0.003736 -2.65967e-11 0)
(0.003736 -2.40278e-11 0)
(0.003736 -2.14073e-11 0)
(0.003736 -1.90154e-11 0)
(0.003736 -1.65372e-11 0)
(0.003736 -1.40936e-11 0)
(0.003736 -1.17568e-11 0)
(0.003736 -9.4774e-12 0)
(0.003736 -7.13202e-12 0)
(0.003736 -4.93552e-12 0)
(0.003736 -2.72673e-12 0)
(0.003736 -5.67193e-13 0)
(0.003736 1.66527e-12 0)
(0.003736 3.7666e-12 0)
(0.003736 5.73853e-12 0)
(0.003736 7.96485e-12 0)
(0.003736 9.91872e-12 0)
(0.003736 1.19381e-11 0)
(0.003736 1.40064e-11 0)
(0.003736 1.59552e-11 0)
(0.003736 1.78473e-11 0)
(0.003736 1.98868e-11 0)
(0.003736 2.18741e-11 0)
(0.003736 2.36906e-11 0)
(0.003736 2.55517e-11 0)
(0.003736 2.73776e-11 0)
(0.003736 2.92367e-11 0)
(0.003736 3.10878e-11 0)
(0.003736 3.28307e-11 0)
(0.003736 3.45187e-11 0)
(0.003736 3.64317e-11 0)
(0.003736 3.81492e-11 0)
(0.003736 3.98867e-11 0)
(0.00373599 4.16277e-11 0)
(0.00373599 4.3404e-11 0)
(0.00373599 4.49753e-11 0)
(0.00373599 4.66293e-11 0)
(0.00373599 4.8349e-11 0)
(0.00373599 4.98768e-11 0)
(0.00373599 5.15435e-11 0)
(0.00373599 5.3168e-11 0)
(0.00373599 5.46532e-11 0)
(0.00373599 5.62684e-11 0)
(0.00373599 5.77668e-11 0)
(0.00373599 5.92049e-11 0)
(0.00373599 6.07051e-11 0)
(0.00373599 6.21255e-11 0)
(0.00373599 6.35628e-11 0)
(0.00373599 6.49748e-11 0)
(0.00373599 6.63308e-11 0)
(0.00373599 6.766e-11 0)
(0.00373598 6.91227e-11 0)
(0.00373598 7.04443e-11 0)
(0.00373598 7.1605e-11 0)
(0.00373598 7.28363e-11 0)
(0.00373598 7.41453e-11 0)
(0.00373598 7.52037e-11 0)
(0.00373598 7.63896e-11 0)
(0.00373598 7.75486e-11 0)
(0.00373598 7.85846e-11 0)
(0.00373598 7.97298e-11 0)
(0.00373598 8.07004e-11 0)
(0.00373598 8.17393e-11 0)
(0.00373598 8.26348e-11 0)
(0.00373598 8.35199e-11 0)
(0.00373598 8.43691e-11 0)
(0.00373597 8.52474e-11 0)
(0.00373597 8.61357e-11 0)
(0.00373597 8.68368e-11 0)
(0.00373597 8.76083e-11 0)
(0.00373597 8.82346e-11 0)
(0.00373597 8.88981e-11 0)
(0.00373597 8.93995e-11 0)
(0.00373597 8.9964e-11 0)
(0.00373597 9.03031e-11 0)
(0.00373597 9.08738e-11 0)
(0.00373597 9.11851e-11 0)
(0.00373597 9.15247e-11 0)
(0.00373597 9.19009e-11 0)
(0.00373596 9.21389e-11 0)
(0.00373596 9.24288e-11 0)
(0.00373596 9.25746e-11 0)
(0.00373596 9.27476e-11 0)
(0.00373596 9.28069e-11 0)
(0.00373596 9.28141e-11 0)
(0.00373596 9.27672e-11 0)
(0.00373596 9.27358e-11 0)
(0.00373596 9.26443e-11 0)
(0.00373596 9.24222e-11 0)
(0.00373596 9.22653e-11 0)
(0.00373596 9.19449e-11 0)
(0.00373596 9.15416e-11 0)
(0.00373595 9.12995e-11 0)
(0.00373595 9.09258e-11 0)
(0.00373595 9.04204e-11 0)
(0.00373595 8.98404e-11 0)
(0.00373595 8.93559e-11 0)
(0.00373595 8.87474e-11 0)
(0.00373595 8.80972e-11 0)
(0.00373595 8.73838e-11 0)
(0.00373595 8.66746e-11 0)
(0.00373595 8.59544e-11 0)
(0.00373595 8.5097e-11 0)
(0.00373595 8.4327e-11 0)
(0.00373595 8.3377e-11 0)
(0.00373595 8.2552e-11 0)
(0.00373595 8.16598e-11 0)
(0.00373594 8.06733e-11 0)
(0.00373594 7.97074e-11 0)
(0.00373594 7.86772e-11 0)
(0.00373594 7.77933e-11 0)
(0.00373594 7.68812e-11 0)
(0.00373594 7.58082e-11 0)
(0.00373594 7.48325e-11 0)
(0.00373594 7.38853e-11 0)
(0.00373594 7.30551e-11 0)
(0.00373594 7.20894e-11 0)
(0.00373594 7.12563e-11 0)
(0.00373594 7.04849e-11 0)
(0.00373594 6.97331e-11 0)
(0.00373594 6.9231e-11 0)
(0.00373594 6.88501e-11 0)
(0.00373594 6.86334e-11 0)
(0.00373594 6.87673e-11 0)
(0.00373594 6.93315e-11 0)
(0.00373593 7.07754e-11 0)
(0.00373593 7.39772e-11 0)
(0.00373593 8.06794e-11 0)
(0.00373593 9.03754e-11 0)
(0.00373593 1.02645e-10 0)
(0.00373593 1.70771e-10 0)
(0.00373593 3.80766e-10 0)
(-2.01344e-06 -4.41476e-06 0)
(-6.52066e-05 6.34905e-05 0)
(-0.000230195 0.000145481 0)
(-0.000486425 0.00021458 0)
(-0.00081144 0.000263916 0)
(-0.00118333 0.000294288 0)
(-0.00158334 0.000309516 0)
(-0.00199702 0.00031551 0)
(-0.00241329 0.000315447 0)
(-0.00282433 0.000310544 0)
(-0.00322536 0.000302369 0)
(-0.00361311 0.000292238 0)
(-0.00398543 0.00028096 0)
(-0.00434093 0.000268928 0)
(-0.00467859 0.000256288 0)
(-0.00499756 0.000243151 0)
(-0.0052973 0.000229705 0)
(-0.00557753 0.000216073 0)
(-0.00583783 0.000201934 0)
(-0.00607732 0.000186865 0)
(-0.00629514 0.000171143 0)
(-0.00649077 0.00015504 0)
(-0.00666386 0.000138641 0)
(-0.0068141 0.000121929 0)
(-0.00694113 0.000104855 0)
(-0.00704457 8.73975e-05 0)
(-0.00712408 6.95666e-05 0)
(-0.00717925 5.14011e-05 0)
(-0.00720971 3.31153e-05 0)
(-0.0072165 1.4769e-05 0)
(-0.00719879 -3.79691e-06 0)
(-0.00715599 -2.25392e-05 0)
(-0.00708761 -4.17673e-05 0)
(-0.0069938 -6.09325e-05 0)
(-0.00687548 -7.90692e-05 0)
(-0.00673462 -9.58516e-05 0)
(-0.00657106 -0.000114997 0)
(-0.00638243 -0.000134936 0)
(-0.00616916 -0.000153743 0)
(-0.00593323 -0.000171912 0)
(-0.0056756 -0.000190042 0)
(-0.0053967 -0.000207996 0)
(-0.00509806 -0.000224068 0)
(-0.00478274 -0.00023763 0)
(-0.00445267 -0.000251114 0)
(-0.00410683 -0.000266852 0)
(-0.0037451 -0.000281023 0)
(-0.00337013 -0.000292272 0)
(-0.00298349 -0.000297896 0)
(-0.00258443 -0.00029338 0)
(-0.00217393 -0.00029276 0)
(-0.00175951 -0.000312916 0)
(-0.00134391 -0.000318827 0)
(-0.0009245 -0.000324426 0)
(-0.000499372 -0.000334676 0)
(-7.08274e-05 -0.00032132 0)
(0.000357941 -0.000316548 0)
(0.000786592 -0.000315379 0)
(0.00121453 -0.000317378 0)
(0.00164048 -0.000317364 0)
(0.00206267 -0.000315146 0)
(0.00247956 -0.000311229 0)
(0.0028899 -0.000306054 0)
(0.00329258 -0.000299921 0)
(0.0036867 -0.000293028 0)
(0.00407146 -0.000285516 0)
(0.00444617 -0.000277489 0)
(0.00481026 -0.000269037 0)
(0.00516322 -0.000260234 0)
(0.00550466 -0.000251152 0)
(0.00583424 -0.000241854 0)
(0.0061517 -0.000232394 0)
(0.00645689 -0.000222803 0)
(0.00674964 -0.000213018 0)
(0.00702985 -0.000203236 0)
(0.00729749 -0.000193576 0)
(0.00755258 -0.000184053 0)
(0.00779526 -0.000174638 0)
(0.00802569 -0.000165359 0)
(0.0082441 -0.000156265 0)
(0.00845073 -0.000147393 0)
(0.00864588 -0.000138768 0)
(0.00882984 -0.000130401 0)
(0.00900293 -0.000122301 0)
(0.0091655 -0.000114473 0)
(0.00931788 -0.000106927 0)
(0.00946042 -9.96694e-05 0)
(0.0095935 -9.27073e-05 0)
(0.00971748 -8.60454e-05 0)
(0.00983276 -7.96869e-05 0)
(0.00993971 -7.36329e-05 0)
(0.0100387 -6.78826e-05 0)
(0.0101302 -6.24334e-05 0)
(0.0102145 -5.72813e-05 0)
(0.010292 -5.24207e-05 0)
(0.0103631 -4.78452e-05 0)
(0.0104281 -4.35471e-05 0)
(0.0104875 -3.95182e-05 0)
(0.0105415 -3.57494e-05 0)
(0.0105905 -3.22313e-05 0)
(0.0106347 -2.89539e-05 0)
(0.0106747 -2.59073e-05 0)
(0.0107105 -2.3081e-05 0)
(0.0107425 -2.04648e-05 0)
(0.010771 -1.80483e-05 0)
(0.0107962 -1.58212e-05 0)
(0.0108185 -1.37734e-05 0)
(0.0108379 -1.18949e-05 0)
(0.0108548 -1.01761e-05 0)
(0.0108693 -8.60724e-06 0)
(0.0108817 -7.17929e-06 0)
(0.0108922 -5.88326e-06 0)
(0.0109008 -4.7105e-06 0)
(0.0109078 -3.65266e-06 0)
(0.0109133 -2.7016e-06 0)
(0.0109175 -1.8496e-06 0)
(0.0109206 -1.09129e-06 0)
(0.0109225 -4.25373e-07 0)
(0.0109235 1.5776e-07 0)
(0.0109236 6.8446e-07 0)
(0.0109231 1.13804e-06 0)
(0.0109218 1.5403e-06 0)
(0.01092 1.88451e-06 0)
(0.0109177 2.17108e-06 0)
(0.0109149 2.40508e-06 0)
(0.0109118 2.59251e-06 0)
(0.0109084 2.73897e-06 0)
(0.0109048 2.84934e-06 0)
(0.010901 2.92782e-06 0)
(0.010897 2.97805e-06 0)
(0.010893 3.00312e-06 0)
(0.0108888 3.00559e-06 0)
(0.0108847 2.9878e-06 0)
(0.0108805 2.95203e-06 0)
(0.0108764 2.90091e-06 0)
(0.0108723 2.83718e-06 0)
(0.0108683 2.7631e-06 0)
(0.0108643 2.68033e-06 0)
(0.0108605 2.59031e-06 0)
(0.0108567 2.49444e-06 0)
(0.0108531 2.39381e-06 0)
(0.0108496 2.28927e-06 0)
(0.0108462 2.1816e-06 0)
(0.010843 2.07155e-06 0)
(0.0108399 1.95985e-06 0)
(0.0108369 1.84722e-06 0)
(0.0108341 1.73434e-06 0)
(0.0108314 1.62182e-06 0)
(0.0108289 1.51021e-06 0)
(0.0108265 1.40003e-06 0)
(0.0108243 1.29169e-06 0)
(0.0108222 1.18558e-06 0)
(0.0108203 1.08203e-06 0)
(0.0108185 9.81308e-07 0)
(0.0108168 8.8365e-07 0)
(0.0108153 7.89242e-07 0)
(0.0108139 6.98237e-07 0)
(0.0108126 6.10749e-07 0)
(0.0108114 5.26862e-07 0)
(0.0108104 4.46629e-07 0)
(0.0108095 3.70073e-07 0)
(0.0108086 2.97177e-07 0)
(0.0108079 2.27892e-07 0)
(0.0108073 1.62242e-07 0)
(0.0108068 1.00553e-07 0)
(0.0108063 4.30204e-08 0)
(0.010806 -1.10255e-08 0)
(0.0108057 -6.21885e-08 0)
(0.0108055 -1.10127e-07 0)
(0.0108054 -1.54467e-07 0)
(0.0108053 -1.96044e-07 0)
(0.0108053 -2.34514e-07 0)
(0.0108054 -2.68421e-07 0)
(0.0108055 -3.00424e-07 0)
(0.0108056 -3.3002e-07 0)
(0.0108058 -3.57134e-07 0)
(0.0108061 -3.81809e-07 0)
(0.0108063 -4.04262e-07 0)
(0.0108067 -4.23917e-07 0)
(0.010807 -4.40978e-07 0)
(0.0108074 -4.55795e-07 0)
(0.0108078 -4.68753e-07 0)
(0.0108082 -4.80073e-07 0)
(0.0108087 -4.89848e-07 0)
(0.0108092 -4.98208e-07 0)
(0.0108097 -5.04727e-07 0)
(0.0108102 -5.09509e-07 0)
(0.0108107 -5.12689e-07 0)
(0.0108112 -5.14496e-07 0)
(0.0108117 -5.1512e-07 0)
(0.0108123 -5.14696e-07 0)
(0.0108128 -5.13355e-07 0)
(0.0108134 -5.11222e-07 0)
(0.0108139 -5.08349e-07 0)
(0.0108145 -5.04544e-07 0)
(0.010815 -4.99833e-07 0)
(0.0108156 -4.94298e-07 0)
(0.0108161 -4.88066e-07 0)
(0.0108166 -4.81269e-07 0)
(0.0108172 -4.74009e-07 0)
(0.0108177 -4.66335e-07 0)
(0.0108182 -4.58264e-07 0)
(0.0108188 -4.49825e-07 0)
(0.0108193 -4.41061e-07 0)
(0.0108198 -4.32047e-07 0)
(0.0108203 -4.22901e-07 0)
(0.0108207 -4.13711e-07 0)
(0.0108212 -4.04415e-07 0)
(0.0108217 -3.94904e-07 0)
(0.0108221 -3.85194e-07 0)
(0.0108226 -3.75359e-07 0)
(0.010823 -3.6547e-07 0)
(0.0108234 -3.55577e-07 0)
(0.0108238 -3.45719e-07 0)
(0.0108243 -3.35918e-07 0)
(0.0108246 -3.26185e-07 0)
(0.010825 -3.1653e-07 0)
(0.0108254 -3.06965e-07 0)
(0.0108258 -2.97503e-07 0)
(0.0108261 -2.88158e-07 0)
(0.0108264 -2.7894e-07 0)
(0.0108268 -2.69861e-07 0)
(0.0108271 -2.6093e-07 0)
(0.0108274 -2.52159e-07 0)
(0.0108277 -2.43555e-07 0)
(0.010828 -2.35125e-07 0)
(0.0108283 -2.2687e-07 0)
(0.0108285 -2.18793e-07 0)
(0.0108288 -2.10899e-07 0)
(0.010829 -2.03189e-07 0)
(0.0108293 -1.95667e-07 0)
(0.0108295 -1.88334e-07 0)
(0.0108297 -1.81193e-07 0)
(0.0108299 -1.74245e-07 0)
(0.0108302 -1.67489e-07 0)
(0.0108303 -1.60925e-07 0)
(0.0108305 -1.54553e-07 0)
(0.0108307 -1.48371e-07 0)
(0.0108309 -1.42379e-07 0)
(0.0108311 -1.36574e-07 0)
(0.0108312 -1.30954e-07 0)
(0.0108314 -1.25516e-07 0)
(0.0108315 -1.20258e-07 0)
(0.0108317 -1.15177e-07 0)
(0.0108318 -1.10269e-07 0)
(0.0108319 -1.05533e-07 0)
(0.0108321 -1.00963e-07 0)
(0.0108322 -9.65574e-08 0)
(0.0108323 -9.23115e-08 0)
(0.0108324 -8.82222e-08 0)
(0.0108325 -8.42855e-08 0)
(0.0108326 -8.04975e-08 0)
(0.0108327 -7.68546e-08 0)
(0.0108328 -7.33528e-08 0)
(0.0108329 -6.9988e-08 0)
(0.010833 -6.67563e-08 0)
(0.010833 -6.36538e-08 0)
(0.0108331 -6.06768e-08 0)
(0.0108332 -5.78213e-08 0)
(0.0108333 -5.5084e-08 0)
(0.0108333 -5.24608e-08 0)
(0.0108334 -4.99479e-08 0)
(0.0108334 -4.75419e-08 0)
(0.0108335 -4.52391e-08 0)
(0.0108336 -4.30359e-08 0)
(0.0108336 -4.09289e-08 0)
(0.0108336 -3.89144e-08 0)
(0.0108337 -3.69895e-08 0)
(0.0108337 -3.51507e-08 0)
(0.0108338 -3.33949e-08 0)
(0.0108338 -3.17192e-08 0)
(0.0108339 -3.01206e-08 0)
(0.0108339 -2.85959e-08 0)
(0.0108339 -2.71418e-08 0)
(0.0108339 -2.57554e-08 0)
(0.010834 -2.44335e-08 0)
(0.010834 -2.31739e-08 0)
(0.010834 -2.19746e-08 0)
(0.0108341 -2.08329e-08 0)
(0.0108341 -1.97468e-08 0)
(0.0108341 -1.87139e-08 0)
(0.0108341 -1.77313e-08 0)
(0.0108341 -1.67973e-08 0)
(0.0108342 -1.59094e-08 0)
(0.0108342 -1.50654e-08 0)
(0.0108342 -1.42634e-08 0)
(0.0108342 -1.35018e-08 0)
(0.0108342 -1.27788e-08 0)
(0.0108342 -1.20927e-08 0)
(0.0108342 -1.14416e-08 0)
(0.0108343 -1.08236e-08 0)
(0.0108343 -1.02373e-08 0)
(0.0108343 -9.68162e-09 0)
(0.0108343 -9.15524e-09 0)
(0.0108343 -8.65679e-09 0)
(0.0108343 -8.18469e-09 0)
(0.0108343 -7.73739e-09 0)
(0.0108343 -7.31377e-09 0)
(0.0108343 -6.91241e-09 0)
(0.0108343 -6.53218e-09 0)
(0.0108343 -6.17201e-09 0)
(0.0108344 -5.83092e-09 0)
(0.0108344 -5.50796e-09 0)
(0.0108344 -5.20248e-09 0)
(0.0108344 -4.91393e-09 0)
(0.0108344 -4.6409e-09 0)
(0.0108344 -4.38261e-09 0)
(0.0108344 -4.13887e-09 0)
(0.0108344 -3.9085e-09 0)
(0.0108344 -3.69119e-09 0)
(0.0108344 -3.48585e-09 0)
(0.0108344 -3.29174e-09 0)
(0.0108344 -3.10808e-09 0)
(0.0108344 -2.93413e-09 0)
(0.0108344 -2.76967e-09 0)
(0.0108344 -2.61411e-09 0)
(0.0108344 -2.46718e-09 0)
(0.0108344 -2.32857e-09 0)
(0.0108344 -2.19741e-09 0)
(0.0108344 -2.07346e-09 0)
(0.0108344 -1.95621e-09 0)
(0.0108344 -1.84534e-09 0)
(0.0108344 -1.74065e-09 0)
(0.0108344 -1.64139e-09 0)
(0.0108344 -1.54757e-09 0)
(0.0108344 -1.45917e-09 0)
(0.0108344 -1.37536e-09 0)
(0.0108344 -1.29611e-09 0)
(0.0108344 -1.221e-09 0)
(0.0108344 -1.14941e-09 0)
(0.0108344 -1.08155e-09 0)
(0.0108344 -1.01707e-09 0)
(0.0108344 -9.55887e-10 0)
(0.0108344 -8.97827e-10 0)
(0.0108344 -8.42459e-10 0)
(0.0108344 -7.89922e-10 0)
(0.0108344 -7.39833e-10 0)
(0.0108344 -6.91995e-10 0)
(0.0108344 -6.46344e-10 0)
(0.0108344 -6.02712e-10 0)
(0.0108344 -5.60964e-10 0)
(0.0108344 -5.21165e-10 0)
(0.0108344 -4.82831e-10 0)
(0.0108344 -4.46289e-10 0)
(0.0108344 -4.10804e-10 0)
(0.0108344 -3.76993e-10 0)
(0.0108344 -3.44416e-10 0)
(0.0108344 -3.12504e-10 0)
(0.0108344 -2.81545e-10 0)
(0.0108344 -2.51477e-10 0)
(0.0108344 -2.22479e-10 0)
(0.0108344 -1.94604e-10 0)
(0.0108344 -1.67415e-10 0)
(0.0108344 -1.40821e-10 0)
(0.0108344 -1.14881e-10 0)
(0.0108344 -8.94506e-11 0)
(0.0108344 -6.45859e-11 0)
(0.0108344 -4.00739e-11 0)
(0.0108344 -1.6037e-11 0)
(0.0108344 7.60027e-12 0)
(0.0108344 3.06771e-11 0)
(0.0108344 5.32011e-11 0)
(0.0108344 7.55888e-11 0)
(0.0108344 9.8196e-11 0)
(0.0108344 1.20636e-10 0)
(0.0108344 1.42787e-10 0)
(0.0108344 1.6471e-10 0)
(0.0108344 1.86504e-10 0)
(0.0108344 2.08175e-10 0)
(0.0108344 2.29675e-10 0)
(0.0108344 2.51179e-10 0)
(0.0108344 2.72547e-10 0)
(0.0108344 2.93899e-10 0)
(0.0108344 3.15169e-10 0)
(0.0108344 3.36465e-10 0)
(0.0108344 3.57744e-10 0)
(0.0108344 3.79031e-10 0)
(0.0108344 4.00338e-10 0)
(0.0108344 4.21588e-10 0)
(0.0108344 4.42888e-10 0)
(0.0108344 4.64146e-10 0)
(0.0108344 4.85409e-10 0)
(0.0108344 5.06968e-10 0)
(0.0108344 5.28326e-10 0)
(0.0108344 5.49923e-10 0)
(0.0108344 5.7132e-10 0)
(0.0108344 5.92745e-10 0)
(0.0108344 6.14452e-10 0)
(0.0108344 6.36046e-10 0)
(0.0108344 6.57752e-10 0)
(0.0108344 6.79443e-10 0)
(0.0108344 7.011e-10 0)
(0.0108344 7.22736e-10 0)
(0.0108344 7.44457e-10 0)
(0.0108344 7.66079e-10 0)
(0.0108344 7.87793e-10 0)
(0.0108344 8.09504e-10 0)
(0.0108344 8.31292e-10 0)
(0.0108344 8.52856e-10 0)
(0.0108344 8.74356e-10 0)
(0.0108344 8.95927e-10 0)
(0.0108344 9.17355e-10 0)
(0.0108344 9.3882e-10 0)
(0.0108344 9.60221e-10 0)
(0.0108344 9.81433e-10 0)
(0.0108344 1.00252e-09 0)
(0.0108344 1.02352e-09 0)
(0.0108344 1.04438e-09 0)
(0.0108344 1.06511e-09 0)
(0.0108344 1.08567e-09 0)
(0.0108344 1.1061e-09 0)
(0.0108344 1.12621e-09 0)
(0.0108344 1.14629e-09 0)
(0.0108344 1.1659e-09 0)
(0.0108344 1.18533e-09 0)
(0.0108344 1.20451e-09 0)
(0.0108344 1.22355e-09 0)
(0.0108344 1.24219e-09 0)
(0.0108344 1.26054e-09 0)
(0.0108344 1.27855e-09 0)
(0.0108344 1.29627e-09 0)
(0.0108344 1.31353e-09 0)
(0.0108344 1.3305e-09 0)
(0.0108344 1.34702e-09 0)
(0.0108344 1.36311e-09 0)
(0.0108343 1.37869e-09 0)
(0.0108343 1.39393e-09 0)
(0.0108343 1.4087e-09 0)
(0.0108343 1.42285e-09 0)
(0.0108343 1.43662e-09 0)
(0.0108343 1.44977e-09 0)
(0.0108343 1.4625e-09 0)
(0.0108343 1.47449e-09 0)
(0.0108343 1.48594e-09 0)
(0.0108343 1.49692e-09 0)
(0.0108343 1.50713e-09 0)
(0.0108343 1.51682e-09 0)
(0.0108343 1.52567e-09 0)
(0.0108343 1.53391e-09 0)
(0.0108343 1.54151e-09 0)
(0.0108343 1.54834e-09 0)
(0.0108343 1.55445e-09 0)
(0.0108343 1.55984e-09 0)
(0.0108343 1.56418e-09 0)
(0.0108343 1.56809e-09 0)
(0.0108343 1.57103e-09 0)
(0.0108343 1.57323e-09 0)
(0.0108343 1.57495e-09 0)
(0.0108343 1.57577e-09 0)
(0.0108343 1.57606e-09 0)
(0.0108343 1.57526e-09 0)
(0.0108343 1.57369e-09 0)
(0.0108343 1.57125e-09 0)
(0.0108343 1.56786e-09 0)
(0.0108343 1.56352e-09 0)
(0.0108343 1.55843e-09 0)
(0.0108343 1.55249e-09 0)
(0.0108343 1.54547e-09 0)
(0.0108343 1.53777e-09 0)
(0.0108343 1.52915e-09 0)
(0.0108343 1.51958e-09 0)
(0.0108343 1.50935e-09 0)
(0.0108343 1.49814e-09 0)
(0.0108343 1.4861e-09 0)
(0.0108343 1.47334e-09 0)
(0.0108343 1.4596e-09 0)
(0.0108343 1.44525e-09 0)
(0.0108343 1.43003e-09 0)
(0.0108343 1.41404e-09 0)
(0.0108343 1.39734e-09 0)
(0.0108342 1.37998e-09 0)
(0.0108342 1.36195e-09 0)
(0.0108342 1.34328e-09 0)
(0.0108342 1.32405e-09 0)
(0.0108342 1.30412e-09 0)
(0.0108342 1.28377e-09 0)
(0.0108342 1.26293e-09 0)
(0.0108342 1.24181e-09 0)
(0.0108342 1.22021e-09 0)
(0.0108342 1.19831e-09 0)
(0.0108342 1.17636e-09 0)
(0.0108342 1.15425e-09 0)
(0.0108342 1.13211e-09 0)
(0.0108342 1.11005e-09 0)
(0.0108342 1.08825e-09 0)
(0.0108342 1.06666e-09 0)
(0.0108342 1.04585e-09 0)
(0.0108342 1.02557e-09 0)
(0.0108342 1.00649e-09 0)
(0.0108342 9.88569e-10 0)
(0.0108342 9.72845e-10 0)
(0.0108342 9.59712e-10 0)
(0.0108342 9.50795e-10 0)
(0.0108342 9.4842e-10 0)
(0.0108342 9.57112e-10 0)
(0.0108342 9.82915e-10 0)
(0.0108342 1.03878e-09 0)
(0.0108342 1.16443e-09 0)
(0.0108342 1.4282e-09 0)
(0.0108342 1.78404e-09 0)
(-1.49175e-05 4.67854e-05 0)
(-0.000156428 0.000231121 0)
(-0.000444173 0.000425267 0)
(-0.000854409 0.000586707 0)
(-0.00135453 0.00070425 0)
(-0.00191628 0.000779916 0)
(-0.00251577 0.000821317 0)
(-0.00313356 0.000837017 0)
(-0.00375275 0.000834772 0)
(-0.00436139 0.00081966 0)
(-0.00495267 0.000796023 0)
(-0.00552167 0.000767028 0)
(-0.00606511 0.00073462 0)
(-0.0065808 0.000699841 0)
(-0.00706702 0.000663181 0)
(-0.00752242 0.000625053 0)
(-0.00794614 0.000586044 0)
(-0.00833798 0.000546591 0)
(-0.0086976 0.000506051 0)
(-0.0090238 0.000463436 0)
(-0.00931545 0.000419481 0)
(-0.00957212 0.000374735 0)
(-0.00979354 0.000329332 0)
(-0.00997944 0.000283232 0)
(-0.0101295 0.000236368 0)
(-0.0102433 0.000188809 0)
(-0.0103207 0.000140808 0)
(-0.0103619 9.24781e-05 0)
(-0.0103671 4.32978e-05 0)
(-0.0103351 -6.17215e-06 0)
(-0.0102667 -5.62228e-05 0)
(-0.010161 -0.000107272 0)
(-0.0100182 -0.000159102 0)
(-0.00983819 -0.00021095 0)
(-0.00962166 -0.000261229 0)
(-0.00937112 -0.000307992 0)
(-0.00908784 -0.000358584 0)
(-0.00877014 -0.00040961 0)
(-0.00841948 -0.000456746 0)
(-0.00803813 -0.000501342 0)
(-0.00762751 -0.000544465 0)
(-0.00718878 -0.000585162 0)
(-0.00672167 -0.000615635 0)
(-0.00622482 -0.000635237 0)
(-0.00570019 -0.00066052 0)
(-0.00515626 -0.000704297 0)
(-0.00459889 -0.000741471 0)
(-0.00402822 -0.000770113 0)
(-0.00344213 -0.000796076 0)
(-0.00283809 -0.00082568 0)
(-0.00221683 -0.000843353 0)
(-0.00158705 -0.00083211 0)
(-0.000953305 -0.00083573 0)
(-0.000314352 -0.000841412 0)
(0.000328303 -0.000851323 0)
(0.000974452 -0.000855835 0)
(0.00162353 -0.000858715 0)
(0.00227185 -0.000859302 0)
(0.0029165 -0.000857423 0)
(0.00355569 -0.000852093 0)
(0.00418799 -0.000843394 0)
(0.00481193 -0.000831764 0)
(0.00542603 -0.000817659 0)
(0.00602891 -0.000801462 0)
(0.0066193 -0.000783482 0)
(0.00719609 -0.000763976 0)
(0.00775831 -0.000743165 0)
(0.00830509 -0.000721248 0)
(0.00883572 -0.000698406 0)
(0.00934959 -0.000674812 0)
(0.0098462 -0.000650627 0)
(0.0103252 -0.000626 0)
(0.0107862 -0.000601056 0)
(0.0112291 -0.000575875 0)
(0.0116538 -0.000550447 0)