/*--------------------------------*- C++ -*----------------------------------*\
| =========                 |                                                 |
| \\      /  F ield         | OpenFOAM: The Open Source CFD Toolbox           |
|  \\    /   O peration     | Version:  2312                                  |
|   \\  /    A nd           | Website:  www.openfoam.com                      |
|    \\/     M anipulation  |                                                 |
\*---------------------------------------------------------------------------*/
FoamFile
{
    version     2.0;
    format      ascii;
    arch        "LSB;label=32;scalar=64";
    class       volScalarField;
    location    "0.005";
    object      cSound;
}
// * * * * * * * * * * * * * * * * * * * * * * * * * * * * * * * * * * * * * //

dimensions      [0 1 -1 0 0 0 0];

internalField   nonuniform List<scalar> 
8000
(
1471.30171419
1471.30171629
1471.30171866
1471.30171476
1471.30171666
1471.30171565
1471.30171172
1471.30170654
1471.30170716
1471.30171044
1471.3017078
1471.30170644
1471.30170646
1471.30170087
1471.30169682
1471.30169873
1471.30170076
1471.30169704
1471.3016948
1471.30168961
1471.30168432
1471.30168462
1471.30168189
1471.30168051
1471.30168054
1471.30167915
1471.30167635
1471.30167646
1471.30167085
1471.30167395
1471.30166841
1471.30166866
1471.30167039
1471.30166781
1471.30166523
1471.30166259
1471.30166564
1471.30166145
1471.30166011
1471.30165873
1471.30165306
1471.30165323
1471.30164766
1471.30164354
1471.30164234
1471.30164117
1471.3016429
1471.3016389
1471.30163789
1471.30164417
1471.30164176
1471.30163938
1471.30164272
1471.30164167
1471.30164061
1471.30164097
1471.30164274
1471.30164742
1471.3016448
1471.30164504
1471.30164677
1471.30164708
1471.3016459
1471.30164764
1471.30164067
1471.30164242
1471.30163983
1471.30162997
1471.30162741
1471.3016292
1471.30162663
1471.30162266
1471.30162302
1471.30162043
1471.30162073
1471.30161234
1471.30160973
1471.30160711
1471.30160303
1471.30160333
1471.30159929
1471.30160106
1471.3016014
1471.30160175
1471.30159776
1471.30159962
1471.30159425
1471.30159608
1471.30158778
1471.30158387
1471.3015858
1471.30159062
1471.30159835
1471.30159881
1471.30159484
1471.30159525
1471.30159705
1471.30159302
1471.30159488
1471.30159096
1471.30158998
1471.30159191
1471.30159091
1471.30158845
1471.30158881
1471.30158917
1471.30158658
1471.30158698
1471.30158312
1471.30157783
1471.30157112
1471.30157165
1471.30157214
1471.30157265
1471.30157456
1471.30157505
1471.30156976
1471.3015775
1471.30157367
1471.30157705
1471.3015717
1471.30156928
1471.30157121
1471.30156592
1471.30156788
1471.30155966
1471.30155728
1471.30155199
1471.30155252
1471.301556
1471.30155366
1471.3015513
1471.30155328
1471.30155378
1471.30155714
1471.30155617
1471.30155229
1471.30154987
1471.30154605
1471.30154081
1471.30154286
1471.3015435
1471.30154265
1471.30153739
1471.30153936
1471.30153981
1471.30153878
1471.30153923
1471.30154259
1471.30154453
1471.30154212
1471.30154405
1471.30154312
1471.30153929
1471.30153704
1471.30153047
1471.30152971
1471.30153037
1471.30152374
1471.30152433
1471.3015249
1471.3015313
1471.30152609
1471.30152382
1471.30153027
1471.30153237
1471.30153158
1471.30153079
1471.30153145
1471.30153067
1471.30152117
1471.30151456
1471.30151373
1471.30151289
1471.30151641
1471.30152138
1471.30152201
1471.30152117
1471.30151888
1471.30151661
1471.30151722
1471.30151639
1471.30151847
1471.30152203
1471.30151834
1471.30151319
1471.30151529
1471.30151448
1471.3015122
1471.30151283
1471.30150913
1471.30151273
1471.301512
1471.30150841
1471.3015092
1471.30150564
1471.30150789
1471.30150868
1471.30150657
1471.30150735
1471.30150085
1471.30150308
1471.30150384
1471.30149876
1471.3015024
1471.30150165
1471.30149944
1471.30149868
1471.3014979
1471.30149859
1471.30149928
1471.30149565
1471.30149204
1471.30149283
1471.30149364
1471.3014901
1471.30148947
1471.30149029
1471.30148385
1471.30148034
1471.30147833
1471.30148071
1471.30148308
1471.30148107
1471.30148194
1471.30148131
1471.30148792
1471.30148726
1471.30148514
1471.30148012
1471.30148092
1471.30148318
1471.30148108
1471.30148334
1471.30148268
1471.30147911
1471.30147264
1471.30147346
1471.30147138
1471.3014693
1471.30146724
1471.30146812
1471.30146757
1471.30146851
1471.30147237
1471.30147332
1471.30147864
1471.30147377
1471.30147618
1471.3014786
1471.30147665
1471.30147471
1471.30147277
1471.30147232
1471.30147334
1471.30147294
1471.30147546
1471.3014707
1471.30147318
1471.30147419
1471.30147227
1471.30146892
1471.3014685
1471.30146956
1471.30147355
1471.30147464
1471.30147281
1471.3014739
1471.30147353
1471.3014688
1471.30146408
1471.30146954
1471.301475
1471.30146734
1471.30146404
1471.30146219
1471.30146616
1471.30147015
1471.30147127
1471.30146515
1471.30146488
1471.30145587
1471.30144978
1471.30145243
1471.30145507
1471.30145626
1471.30145598
1471.3014586
1471.30145392
1471.30145068
1471.30145035
1471.30144712
1471.30144825
1471.30144942
1471.30144771
1471.30144747
1471.30145306
1471.3014543
1471.30145408
1471.30145387
1471.30145658
1471.30145784
1471.30145473
1471.30145163
1471.30145436
1471.30145565
1471.30145549
1471.30145241
1471.3014537
1471.30145499
1471.301449
1471.30145467
1471.30145305
1471.30145289
1471.30145417
1471.30145545
1471.30144945
1471.30144638
1471.30144477
1471.30144028
1471.30144018
1471.30144009
1471.30143854
1471.30144573
1471.30144708
1471.30144842
1471.30145558
1471.30144963
1471.30145244
1471.30144944
1471.30144937
1471.3014493
1471.30145071
1471.3014492
1471.3014506
1471.30145492
1471.30145923
1471.30146063
1471.30145913
1471.30145908
1471.30146194
1471.30145607
1471.30145749
1471.301456
1471.3014516
1471.30144722
1471.30145303
1471.30145447
1471.30145156
1471.3014501
1471.30145012
1471.30145598
1471.30145314
1471.30145176
1471.30145038
1471.30145045
1471.30144615
1471.30143892
1471.30144043
1471.30144048
1471.30144637
1471.30144643
1471.30143778
1471.30144224
1471.30143796
1471.30144533
1471.30144688
1471.30145133
1471.30145142
1471.30145298
1471.30145164
1471.3014532
1471.30145768
1471.30145488
1471.30145355
1471.30144931
1471.30145091
1471.30144961
1471.30145268
1471.30144993
1471.30145156
1471.3014561
1471.30145481
1471.30145643
1471.30145659
1471.30145529
1471.30145982
1471.30145999
1471.30145579
1471.30145452
1471.30145326
1471.30145493
1471.3014566
1471.30145391
1471.30145849
1471.30145725
1471.30145456
1471.30145187
1471.30145646
1471.30145814
1471.30145838
1471.30145718
1471.30145744
1471.30145627
1471.30145801
1471.30145831
1471.30145861
1471.30146182
1471.30146067
1471.30145806
1471.30146128
1471.30146014
1471.30146046
1471.30146371
1471.30145968
1471.30146148
1471.30146474
1471.30146363
1471.30146835
1471.30147307
1471.30147053
1471.30146508
1471.30146111
1471.30146296
1471.3014648
1471.30146519
1471.30146848
1471.30146742
1471.30146926
1471.30146819
1471.30146568
1471.30146755
1471.30146942
1471.30147276
1471.30147172
1471.3014707
1471.30146821
1471.30146864
1471.30146907
1471.30147241
1471.30147285
1471.30147475
1471.3014752
1471.30147564
1471.30147756
1471.30147365
1471.30147701
1471.30147018
1471.30147353
1471.30147395
1471.30147438
1471.3014748
1471.30147669
1471.30147277
1471.30147906
1471.30147372
1471.3014713
1471.30146887
1471.30147809
1471.30147858
1471.30147761
1471.3014781
1471.30148152
1471.30148494
1471.301484
1471.30148307
1471.30148071
1471.30148419
1471.30148476
1471.30148826
1471.30148448
1471.30148504
1471.30148706
1471.30148908
1471.30149112
1471.30149316
1471.30148936
1471.30149285
1471.30149197
1471.3014882
1471.30148735
1471.30149085
1471.30149581
1471.30149493
1471.30149259
1471.30149608
1471.30149813
1471.30149873
1471.30150081
1471.3015014
1471.3015005
1471.30149815
1471.30148998
1471.30148473
1471.30149111
1471.30148732
1471.30149665
1471.30150599
1471.30150373
1471.30150725
1471.30150637
1471.30150693
1471.30150749
1471.30150658
1471.30150275
1471.30150475
1471.30150532
1471.30150734
1471.30150937
1471.30150411
1471.30150903
1471.3015096
1471.30150873
1471.3015035
1471.30150269
1471.30151207
1471.3015112
1471.30151033
1471.30150801
1471.30150713
1471.30150334
1471.30150244
1471.30150881
1471.30150794
1471.30150852
1471.30151058
1471.30150824
1471.30150737
1471.30150942
1471.30151147
1471.30151208
1471.30151412
1471.30151182
1471.30151825
1471.30151742
1471.3015137
1471.30151574
1471.30151344
1471.30151554
1471.30151328
1471.30152119
1471.30152037
1471.30152975
1471.301529
1471.30152972
1471.30152898
1471.30153258
1471.30152893
1471.30153251
1471.3015259
1471.30152515
1471.30152002
1471.30151632
1471.30151705
1471.30151487
1471.30151701
1471.30151772
1471.30152134
1471.30151186
1471.30151397
1471.30151459
1471.30152394
1471.30153186
1471.30153253
1471.30153173
1471.30153236
1471.30154172
1471.30154529
1471.30154598
1471.30154377
1471.30154878
1471.30154505
1471.30154279
1471.30154198
1471.30153827
1471.30153901
1471.30153972
1471.30154187
1471.3015455
1471.30154481
1471.3015499
1471.3015477
1471.3015527
1471.30155624
1471.30155696
1471.30155478
1471.30155696
1471.30155917
1471.30155998
1471.30156081
1471.30156015
1471.30156098
1471.30157188
1471.30156969
1471.30157042
1471.3015683
1471.30156762
1471.30156837
1471.30156767
1471.30156836
1471.30156759
1471.30155959
1471.30155161
1471.30154799
1471.30154717
1471.3015507
1471.30155278
1471.3015564
1471.30155425
1471.30155505
1471.30155432
1471.30155649
1471.30156015
1471.30155664
1471.30155321
1471.30155838
1471.30155915
1471.30155839
1471.30156197
1471.30157135
1471.30157788
1471.30157864
1471.30157641
1471.30157852
1471.30157485
1471.301577
1471.30157624
1471.30157986
1471.30157918
1471.30157853
1471.30158657
1471.30159319
1471.30159256
1471.30159473
1471.30159392
1471.30159456
1471.30159092
1471.30158733
1471.30157933
1471.30157708
1471.30157485
1471.30157847
1471.30158063
1471.3015784
1471.30157896
1471.30158677
1471.30159172
1471.30159092
1471.30159305
1471.30159378
1471.30159604
1471.30159542
1471.30159916
1471.30159847
1471.30160355
1471.30160862
1471.30161078
1471.30161007
1471.30161375
1471.30161021
1471.30161104
1471.30161187
1471.30161409
1471.30161187
1471.30161397
1471.30161754
1471.30161394
1471.30160602
1471.30160389
1471.30160029
1471.30159955
1471.30160171
1471.30160386
1471.30160165
1471.30160958
1471.30161316
1471.30161959
1471.3016188
1471.30161804
1471.30161729
1471.30161656
1471.30162018
1471.30161799
1471.30161725
1471.3016295
1471.30162431
1471.30162637
1471.30162845
1471.30163052
1471.30163407
1471.30163475
1471.30163401
1471.30163329
1471.3016369
1471.30163325
1471.30163539
1471.30163752
1471.30163817
1471.30163736
1471.30162932
1471.3016299
1471.301629
1471.30162809
1471.30163007
1471.30163353
1471.30164423
1471.3016477
1471.30164833
1471.30164892
1471.30164663
1471.30164438
1471.30165227
1471.30164859
1471.30164634
1471.30164408
1471.30164908
1471.30165117
1471.30165038
1471.30164963
1471.30165174
1471.30165239
1471.30165444
1471.30165647
1471.30165565
1471.30166058
1471.3016655
1471.30166172
1471.30165501
1471.30165556
1471.30165471
1471.30165962
1471.30165877
1471.30166086
1471.30166158
1471.30166234
1471.30166307
1471.30166086
1471.30166145
1471.30166058
1471.30166257
1471.30166307
1471.30166501
1471.30166261
1471.30166597
1471.30166502
1471.30166122
1471.30166754
1471.30166521
1471.30166583
1471.30167077
1471.30166992
1471.30167052
1471.30167398
1471.3016731
1471.3016722
1471.30167271
1471.30167031
1471.30167221
1471.30167694
1471.301673
1471.30167627
1471.30167519
1471.30167991
1471.30167891
1471.30166926
1471.30166542
1471.30167027
1471.30167227
1471.30167713
1471.30167905
1471.30168097
1471.30168145
1471.30167613
1471.30167804
1471.30167853
1471.30167323
1471.30167371
1471.30167132
1471.30167465
1471.30167365
1471.30167413
1471.30167611
1471.30167956
1471.30168006
1471.30168051
1471.3016751
1471.3016855
1471.30168726
1471.3016862
1471.301688
1471.30169561
1471.30169463
1471.30169805
1471.30170002
1471.30170054
1471.30169662
1471.30169698
1471.30169011
1471.3016904
1471.30169068
1471.30169244
1471.3016928
1471.30169168
1471.30169348
1471.30169102
1471.30169003
1471.30169481
1471.3016967
1471.30169423
1471.30169169
1471.30169635
1471.30170246
1471.30170285
1471.30169889
1471.30169776
1471.3016966
1471.30170127
1471.30169736
1471.30170356
1471.30170543
1471.30170584
1471.30170768
1471.30170809
1471.30170417
1471.30170028
1471.30170216
1471.30170547
1471.30170446
1471.30170777
1471.30170958
1471.30171574
1471.30171758
1471.30171508
1471.30171252
1471.30171288
1471.30171619
1471.30171664
1471.30171704
1471.30171879
1471.30171328
1471.30171057
1471.30171217
1471.30170952
1471.30171127
1471.30171446
1471.30171479
1471.30171936
1471.30171959
1471.30171982
1471.30171865
1471.30172466
1471.30172345
1471.30171358
1471.30171094
1471.30170975
1471.30170995
1471.30171159
1471.30171905
1471.30171923
1471.3017151
1471.30171242
1471.30171409
1471.30171857
1471.30171294
1471.30171599
1471.30171473
1471.30171492
1471.3017209
1471.30172393
1471.30172117
1471.30171699
1471.30172
1471.30171863
1471.30171734
1471.30171317
1471.30171767
1471.30171639
1471.30171503
1471.30172378
1471.30172821
1471.30172537
1471.30172543
1471.30172984
1471.30172412
1471.30172846
1471.30172709
1471.30173009
1471.30172871
1471.30172878
1471.30172744
1471.30172608
1471.301729
1471.30172912
1471.30172638
1471.30172216
1471.30171793
1471.30171947
1471.30171514
1471.30171654
1471.301718
1471.30171659
1471.30171946
1471.30171803
1471.30171947
1471.30172087
1471.30172088
1471.30172667
1471.30172665
1471.30171795
1471.30171649
1471.30171934
1471.30172075
1471.30172072
1471.30171488
1471.30171624
1471.30171619
1471.30171612
1471.30172179
1471.30172457
1471.30172442
1471.30172717
1471.30172418
1471.30171975
1471.30171389
1471.30171815
1471.30172239
1471.30171941
1471.30171353
1471.3017163
1471.30171474
1471.3017175
1471.30171447
1471.30171145
1471.3017171
1471.30171696
1471.3017125
1471.30171666
1471.30171644
1471.30172198
1471.30172026
1471.30171996
1471.30172119
1471.30171809
1471.30171784
1471.3017133
1471.30171172
1471.3017188
1471.3017201
1471.30172285
1471.30172127
1471.30172543
1471.30172092
1471.30171785
1471.30171766
1471.30171173
1471.30171014
1471.30170998
1471.30170697
1471.30170974
1471.30171102
1471.30170939
1471.30170919
1471.30170894
1471.3017159
1471.30171273
1471.30171105
1471.30170939
1471.30170483
1471.30170602
1471.30170864
1471.30171125
1471.30170804
1471.30170482
1471.30170592
1471.30170702
1471.30170526
1471.3017107
1471.30170893
1471.30170719
1471.30170545
1471.30170944
1471.30171343
1471.3017131
1471.30170555
1471.30170088
1471.30170198
1471.30170307
1471.30170125
1471.30170375
1471.30170481
1471.30169721
1471.30169827
1471.30170077
1471.30170759
1471.30169999
1471.30170251
1471.30169634
1471.30169737
1471.30170273
1471.30170083
1471.30169891
1471.3016912
1471.30169213
1471.30169306
1471.30169258
1471.30169357
1471.30169169
1471.30169703
1471.30169513
1471.3017019
1471.30169713
1471.3016938
1471.30169337
1471.30169871
1471.30169538
1471.30168914
1471.30168723
1471.30168817
1471.30168766
1471.30168713
1471.30168662
1471.30168324
1471.30168565
1471.30168373
1471.30168325
1471.3016842
1471.30168803
1471.30168461
1471.30168262
1471.30168637
1471.30168721
1471.30168082
1471.30168164
1471.30167812
1471.30167893
1471.30167974
1471.30167766
1471.30167703
1471.30167787
1471.30167438
1471.30167522
1471.3016775
1471.301674
1471.30167627
1471.30167418
1471.30167351
1471.30167285
1471.30166206
1471.30166718
1471.30166652
1471.30166154
1471.30166523
1471.30166748
1471.30166395
1471.3016662
1471.30166846
1471.30167217
1471.30166865
1471.30166658
1471.30166307
1471.30166388
1471.30166613
1471.30166838
1471.30167496
1471.30166852
1471.30166929
1471.30166282
1471.30166067
1471.30165849
1471.30165775
1471.30165409
1471.30165187
1471.30165397
1471.30165895
1471.30165236
1471.30165012
1471.301645
1471.30164713
1471.30164349
1471.30164274
1471.30163909
1471.30164701
1471.30164624
1471.30164547
1471.30164757
1471.30164679
1471.3016431
1471.30164374
1471.30164004
1471.30163776
1471.30163548
1471.30164186
1471.30164246
1471.30163873
1471.30163791
1471.30164144
1471.30164351
1471.30164269
1471.30163897
1471.30163089
1471.30163438
1471.30163208
1471.30162832
1471.30163035
1471.30162803
1471.30161846
1471.30161902
1471.30162101
1471.3016143
1471.30161337
1471.30161387
1471.30161293
1471.30162066
1471.30161971
1471.30161732
1471.30161782
1471.30161687
1471.30161737
1471.30161498
1471.30161403
1471.30161453
1471.30161503
1471.30161408
1471.30161456
1471.30161215
1471.30160684
1471.30161602
1471.30160782
1471.30160687
1471.30160881
1471.30161366
1471.30160691
1471.30160016
1471.30160065
1471.30160258
1471.30159725
1471.30159772
1471.30159093
1471.30158993
1471.30158747
1471.30159223
1471.30159118
1471.30159301
1471.30159483
1471.30159083
1471.30158828
1471.30158573
1471.30158754
1471.30158791
1471.30158392
1471.30158718
1471.30158173
1471.30157772
1471.3015795
1471.30158273
1471.30157581
1471.30158487
1471.30158668
1471.30158271
1471.30158455
1471.30158348
1471.30157807
1471.30157409
1471.30156864
1471.30156607
1471.30156929
1471.30156524
1471.30156697
1471.3015716
1471.30157333
1471.30156492
1471.30156232
1471.3015583
1471.30155284
1471.30155465
1471.30155357
1471.30154958
1471.30153543
1471.30153579
1471.30153467
1471.30153064
1471.30152805
1471.30153126
1471.30152721
1471.30152315
1471.30152924
1471.30153679
1471.30154142
1471.3015417
1471.30153617
1471.30153644
1471.30153672
1471.301537
1471.30153728
1471.3015332
1471.301532
1471.30153515
1471.30152957
1471.30152542
1471.30152563
1471.30152873
1471.30152747
1471.30152476
1471.30152205
1471.3015266
1471.30152824
1471.30152552
1471.30152425
1471.30151136
1471.30150428
1471.30150157
1471.30150322
1471.3015107
1471.30150948
1471.30151553
1471.30151576
1471.30151311
1471.301509
1471.301502
1471.30149789
1471.30150395
1471.30150128
1471.30149713
1471.30149877
1471.30149603
1471.30149764
1471.30149633
1471.30149065
1471.30149371
1471.30148951
1471.30148823
1471.3014913
1471.30148711
1471.30148437
1471.30148453
1471.30148468
1471.30148337
1471.30148058
1471.3014807
1471.30148227
1471.30147657
1471.30147669
1471.30147827
1471.30147256
1471.30147559
1471.30147424
1471.30147727
1471.30147448
1471.30147897
1471.30148054
1471.30147337
1471.30146621
1471.30145904
1471.30145915
1471.30146073
1471.3014594
1471.30146099
1471.30146258
1471.30146271
1471.30145557
1471.30145133
1471.30144999
1471.30144864
1471.30145019
1471.30145465
1471.30145617
1471.30145332
1471.30145337
1471.30145487
1471.30144473
1471.30144331
1471.301439
1471.30143762
1471.30142456
1471.30142025
1471.30142031
1471.30141163
1471.30141316
1471.30142199
1471.30142059
1471.30142066
1471.30141928
1471.30142081
1471.30142235
1471.30142098
1471.30141962
1471.30141681
1471.30141254
1471.30140536
1471.30140257
1471.30139686
1471.30139553
1471.30138835
1471.30138555
1471.30137834
1471.30137989
1471.30137995
1471.30138147
1471.30138446
1471.30139035
1471.30139625
1471.30139925
1471.30139349
1471.30138921
1471.30139517
1471.30139237
1471.30138808
1471.30138377
1471.3013809
1471.30138676
1471.3013882
1471.30138529
1471.30138531
1471.30138826
1471.30137953
1471.30138396
1471.30137963
1471.30137092
1471.30137242
1471.30137391
1471.30137395
1471.30137692
1471.30137843
1471.30136973
1471.30137129
1471.30136848
1471.3013671
1471.30136278
1471.30135848
1471.30135565
1471.30135287
1471.30135158
1471.30135468
1471.30134902
1471.30135212
1471.30134643
1471.3013451
1471.30134226
1471.30134236
1471.30134677
1471.30135115
1471.30135119
1471.30134684
1471.30134835
1471.30134108
1471.30133677
1471.30133396
1471.30133112
1471.30132682
1471.3013284
1471.30132705
1471.30132277
1471.30131994
1471.30131857
1471.30132013
1471.30131728
1471.30131297
1471.30131452
1471.30131169
1471.30131033
1471.30131189
1471.30131492
1471.30131062
1471.30131071
1471.30130787
1471.30131085
1471.30130798
1471.30131096
1471.30131687
1471.30131107
1471.30130819
1471.30130823
1471.30130246
1471.30130402
1471.30130411
1471.30130274
1471.30129991
1471.3012927
1471.30128988
1471.30128851
1471.3012886
1471.30128133
1471.30128285
1471.30127851
1471.30128005
1471.30128013
1471.30127435
1471.30127448
1471.30127461
1471.30126886
1471.30127046
1471.30126912
1471.30126779
1471.30126497
1471.30126509
1471.30127108
1471.3012668
1471.30125525
1471.30125099
1471.30124967
1471.30124838
1471.30124558
1471.30124283
1471.30124004
1471.30124163
1471.30123885
1471.30123601
1471.30123755
1471.30124058
1471.30123924
1471.30124089
1471.30124104
1471.30124111
1471.30123975
1471.30123682
1471.30123529
1471.30123375
1471.30123078
1471.30123227
1471.30123374
1471.30123381
1471.30123541
1471.30123398
1471.30123552
1471.30124006
1471.30123577
1471.30123151
1471.30123165
1471.30122735
1471.30122449
1471.30122168
1471.30121881
1471.30121747
1471.30121771
1471.30122664
1471.30122239
1471.30121527
1471.30120948
1471.3012052
1471.30120244
1471.30120695
1471.3012027
1471.30120578
1471.30120734
1471.30120602
1471.30120319
1471.30119599
1471.30119172
1471.30119335
1471.30119644
1471.30119794
1471.30119949
1471.30119963
1471.30119831
1471.30119409
1471.30119423
1471.30119289
1471.30119457
1471.30118299
1471.30118466
1471.30118188
1471.30118208
1471.30118524
1471.30118106
1471.30117249
1471.30117132
1471.30117155
1471.3011673
1471.30116308
1471.30116477
1471.30115909
1471.30115934
1471.30115377
1471.30115996
1471.30116461
1471.30116335
1471.30115919
1471.30115951
1471.30115978
1471.30115562
1471.30115437
1471.30115302
1471.30115028
1471.3011475
1471.30114473
1471.30114201
1471.30113928
1471.30114242
1471.30114552
1471.30114267
1471.3011369
1471.30113416
1471.30113734
1471.30113313
1471.30113182
1471.30112909
1471.3011293
1471.30112804
1471.30112239
1471.3011241
1471.30112431
1471.30112297
1471.3011261
1471.30113075
1471.30112943
1471.30113103
1471.3011312
1471.30113145
1471.30112576
1471.30112446
1471.30112469
1471.30112346
1471.30112074
1471.30111804
1471.30111984
1471.30111727
1471.30110288
1471.30110171
1471.30109761
1471.30108911
1471.30108933
1471.3010881
1471.3010839
1471.30108557
1471.30108436
1471.30108173
1471.30108054
1471.30108226
1471.30108549
1471.30108877
1471.30108915
1471.30108652
1471.30108533
1471.3010827
1471.30108158
1471.30108048
1471.30108964
1471.30108547
1471.30108281
1471.3010861
1471.3010791
1471.30107793
1471.30107383
1471.30107417
1471.30107306
1471.30106904
1471.30106948
1471.30106981
1471.30106717
1471.30106604
1471.3010649
1471.30106822
1471.30106271
1471.30106311
1471.30106355
1471.30106544
1471.30106141
1471.30105737
1471.30105621
1471.30105807
1471.30105702
1471.30106188
1471.30106082
1471.3010568
1471.30105861
1471.3010619
1471.30106517
1471.30106258
1471.30106006
1471.30105754
1471.30105653
1471.30105403
1471.30105154
1471.3010431
1471.30103906
1471.30103796
1471.30103381
1471.30103856
1471.30103595
1471.30103178
1471.30103353
1471.30102944
1471.30103134
1471.30102883
1471.30103075
1471.30102972
1471.30102869
1471.30102474
1471.30102527
1471.30102731
1471.30102934
1471.3010255
1471.30102755
1471.30102956
1471.30102268
1471.30101878
1471.3010193
1471.30101831
1471.30101431
1471.30101475
1471.30101225
1471.30101274
1471.30101613
1471.30101211
1471.30100664
1471.30100267
1471.30100612
1471.30100367
1471.30100417
1471.30100318
1471.3010037
1471.30099978
1471.30099883
1471.30100232
1471.3010014
1471.30100049
1471.30099665
1471.3009973
1471.30099499
1471.30099557
1471.30099173
1471.30099383
1471.30099892
1471.30099807
1471.30099578
1471.30099794
1471.30099859
1471.30099182
1471.30099092
1471.30099002
1471.30099062
1471.30099416
1471.30099325
1471.30099384
1471.30098408
1471.30098178
1471.30098097
1471.30098158
1471.30098362
1471.30098558
1471.30098612
1471.3009867
1471.30098581
1471.300982
1471.3009767
1471.30096998
1471.30097514
1471.30098326
1471.30097806
1471.30097728
1471.30098093
1471.30097414
1471.30097033
1471.30095907
1471.30095519
1471.30095283
1471.30095637
1471.30094955
1471.30095313
1471.30095227
1471.30094696
1471.30094613
1471.30094383
1471.30094448
1471.3009362
1471.30093832
1471.30094042
1471.3009411
1471.30094479
1471.30094403
1471.30094179
1471.30093957
1471.30093883
1471.30093808
1471.30094325
1471.30094543
1471.30094611
1471.30094676
1471.30094742
1471.30094958
1471.30095321
1471.30094945
1471.3009442
1471.30093896
1471.3009456
1471.30094785
1471.30094715
1471.30094642
1471.3009442
1471.30094791
1471.30094423
1471.30093762
1471.30093547
1471.30093182
1471.30092668
1471.30092302
1471.30092084
1471.30091273
1471.30091061
1471.3009174
1471.3009227
1471.30092056
1471.30091993
1471.30092971
1471.30092914
1471.30093155
1471.30092952
1471.30092597
1471.30092685
1471.30092922
1471.30093154
1471.30093533
1471.30093316
1471.30092654
1471.30092292
1471.30092079
1471.30092166
1471.30092107
1471.30092199
1471.30091992
1471.30092231
1471.30091873
1471.3009137
1471.30091015
1471.30091252
1471.30091191
1471.30091132
1471.3009137
1471.30090866
1471.30090962
1471.30090911
1471.30091305
1471.30091105
1471.30090906
1471.30090707
1471.30090662
1471.30091062
1471.30090718
1471.30090373
1471.3008973
1471.30089384
1471.30088143
1471.30087941
1471.3008789
1471.3008784
1471.30087644
1471.30088044
1471.30088145
1471.30088094
1471.30088933
1471.30089177
1471.30090314
1471.30090264
1471.30090216
1471.3009002
1471.30089825
1471.30089932
1471.30090039
1471.30090147
1471.3008966
1471.30089472
1471.30089878
1471.30089689
1471.30090095
1471.30089905
1471.30089567
1471.30089377
1471.30089339
1471.30089301
1471.30089413
1471.30089376
1471.30089193
1471.30089456
1471.30088825
1471.30089679
1471.3008979
1471.30089307
1471.30089717
1471.30089085
1471.30088753
1471.30089165
1471.30088684
1471.30088203
1471.30088019
1471.30087684
1471.30087645
1471.30087752
1471.30087414
1471.30088117
1471.30087632
1471.30087443
1471.30088147
1471.30088407
1471.30088671
1471.30088343
1471.30088314
1471.30087988
1471.30087958
1471.30088075
1471.30087745
1471.30088305
1471.3008842
1471.30088387
1471.30088356
1471.3008803
1471.30088005
1471.30087981
1471.300884
1471.30088074
1471.30088045
1471.30088316
1471.30088145
1471.30088124
1471.30088101
1471.30087779
1471.30087901
1471.30088172
1471.30088589
1471.30088559
1471.30087936
1471.30087762
1471.30087737
1471.30087713
1471.30087691
1471.30087967
1471.30088095
1471.30088073
1471.30087903
1471.30087588
1471.30087424
1471.30087413
1471.30087552
1471.30087391
1471.30087675
1471.30087811
1471.30087648
1471.30087482
1471.3008776
1471.30087143
1471.30087269
1471.30087247
1471.30087375
1471.30087502
1471.30087183
1471.30087459
1471.30087291
1471.30086976
1471.30086663
1471.30087246
1471.30087534
1471.30087376
1471.30087365
1471.30086908
1471.30087195
1471.30087186
1471.30087178
1471.30087172
1471.30087018
1471.30087607
1471.30087453
1471.30087002
1471.30087294
1471.30087436
1471.30087131
1471.30086529
1471.30087711
1471.30087254
1471.30087095
1471.30087233
1471.30087222
1471.30087506
1471.30087644
1471.30087189
1471.30087183
1471.30087181
1471.30087031
1471.30086733
1471.30087179
1471.30087028
1471.30086728
1471.30086727
1471.3008613
1471.30086129
1471.30085832
1471.30085535
1471.30085535
1471.30086281
1471.30086134
1471.3008688
1471.30086585
1471.30086887
1471.3008704
1471.30086599
1471.3008705
1471.30086754
1471.30086606
1471.30086606
1471.30086457
1471.30085565
1471.30086013
1471.30086164
1471.30086465
1471.30086615
1471.30085723
1471.30085874
1471.30086024
1471.30086025
1471.30086026
1471.30086326
1471.30086031
1471.30086184
1471.30086486
1471.30086046
1471.30086203
1471.30086064
1471.30086224
1471.30086236
1471.30085803
1471.30085965
1471.30085977
1471.30086584
1471.30086894
1471.30087355
1471.30087073
1471.3008694
1471.30087105
1471.30086675
1471.30086989
1471.30087302
1471.30087317
1471.30087777
1471.30087642
1471.30087506
1471.30087071
1471.3008708
1471.30086941
1471.30087099
1471.30087408
1471.30087271
1471.3008669
1471.30086111
1471.30086129
1471.30086594
1471.30086316
1471.30086038
1471.30086208
1471.30086378
1471.30086549
1471.30087317
1471.3008749
1471.30087516
1471.30087839
1471.30088458
1471.30088928
1471.30088951
1471.30088678
1471.30088257
1471.30087837
1471.30087565
1471.30087443
1471.3008747
1471.30087495
1471.30088265
1471.30087845
1471.30086978
1471.30087005
1471.30087032
1471.3008691
1471.30087383
1471.30087706
1471.30087435
1471.30087758
1471.30087934
1471.3008796
1471.30088136
1471.30088161
1471.30088187
1471.3008851
1471.30088385
1471.30088854
1471.30089176
1471.30088605
1471.30088332
1471.30088355
1471.30088379
1471.30088403
1471.30088725
1471.30088305
1471.30088778
1471.30088509
1471.30088536
1471.30088265
1471.30087845
1471.30087723
1471.30087751
1471.30088523
1471.30089596
1471.30089482
1471.30088777
1471.30089115
1471.30088714
1471.30088612
1471.3008866
1471.30089153
1471.30089198
1471.30089244
1471.30088989
1471.3008903
1471.30088177
1471.30088215
1471.30087954
1471.30088584
1471.30088917
1471.30089102
1471.30090179
1471.3008992
1471.30089513
1471.30089256
1471.30089447
1471.30089937
1471.30089685
1471.30089435
1471.30089036
1471.30089678
1471.30089279
1471.3008992
1471.30089223
1471.30088822
1471.30089907
1471.300901
1471.30089848
1471.30089745
1471.30089344
1471.30088943
1471.30089285
1471.30089479
1471.3009012
1471.30090463
1471.30090361
1471.30089663
1471.30089411
1471.30089604
1471.30089649
1471.30089694
1471.3008974
1471.30090231
1471.30090277
1471.30091215
1471.30090816
1471.30091011
1471.30091055
1471.30090801
1471.30090395
1471.30091325
1471.30091066
1471.30091253
1471.30091145
1471.30090742
1471.30091381
1471.30091579
1471.3009074
1471.30090497
1471.30090701
1471.30090313
1471.30090371
1471.30090578
1471.30091676
1471.30092033
1471.30092538
1471.30092301
1471.3009236
1471.30091971
1471.30092621
1471.30092232
1471.30092586
1471.30092791
1471.3009166
1471.30091718
1471.30091331
1471.30091984
1471.30092785
1471.30092695
1471.30092603
1471.30092065
1471.30091971
1471.30092173
1471.30092374
1471.3009198
1471.30091883
1471.3009238
1471.30092137
1471.30093081
1471.30092543
1471.30092155