/*--------------------------------*- C++ -*----------------------------------*\
| =========                 |                                                 |
| \\      /  F ield         | OpenFOAM: The Open Source CFD Toolbox           |
|  \\    /   O peration     | Version:  2312                                  |
|   \\  /    A nd           | Website:  www.openfoam.com                      |
|    \\/     M anipulation  |                                                 |
\*---------------------------------------------------------------------------*/
FoamFile
{
    version     2.0;
    format      ascii;
    arch        "LSB;label=32;scalar=64";
    class       volScalarField;
    location    "0.005";
    object      minKappa;
}
// * * * * * * * * * * * * * * * * * * * * * * * * * * * * * * * * * * * * * //

dimensions      [0 0 0 0 0 0 0];

internalField   nonuniform List<scalar> 
8000
(
0.00492760929456
0.00492760928224
0.00492760927913
0.00492760927913
0.00492760928664
0.00492760928664
0.00492760929002
0.00492760930776
0.00492760931334
0.00492760930757
0.00492760930757
0.00492760931662
0.00492760932122
0.00492760932122
0.00492760934462
0.00492760934161
0.00492760933961
0.00492760933961
0.00492760935201
0.00492760935949
0.00492760938184
0.00492760939417
0.00492760939417
0.00492760940359
0.00492760940827
0.00492760940827
0.00492760941287
0.00492760942174
0.00492760942174
0.00492760943001
0.00492760943001
0.00492760944284
0.00492760944183
0.00492760944183
0.00492760945046
0.0049276094591
0.00492760945801
0.00492760945801
0.00492760947203
0.00492760947659
0.00492760948121
0.00492760949946
0.00492760949946
0.00492760952295
0.00492760953185
0.00492760953582
0.00492760953384
0.00492760953384
0.00492760954707
0.00492760952936
0.00492760952936
0.00492760953737
0.00492760953426
0.00492760953426
0.00492760953788
0.00492760953545
0.00492760952955
0.00492760951874
0.00492760951874
0.00492760952193
0.00492760951608
0.00492760951608
0.0049276095199
0.00492760951809
0.00492760951809
0.00492760953552
0.00492760953552
0.00492760954418
0.00492760957717
0.00492760957975
0.00492760957975
0.0049276095883
0.0049276096004
0.0049276096004
0.00492760960816
0.00492760960816
0.00492760963627
0.00492760964504
0.00492760965384
0.00492760966644
0.00492760966644
0.00492760966913
0.00492760966798
0.00492760966798
0.00492760967165
0.00492760967867
0.00492760967867
0.00492760969057
0.00492760969057
0.00492760972315
0.00492760971998
0.00492760969899
0.00492760967797
0.00492760967797
0.00492760968132
0.00492760968848
0.0049276096874
0.0049276096874
0.00492760969454
0.00492760969454
0.0049276097076
0.0049276097044
0.0049276097044
0.00492760970778
0.00492760971012
0.00492760971012
0.00492760971376
0.00492760972091
0.00492760972091
0.00492760973864
0.00492760975629
0.00492760976729
0.00492760976571
0.00492760976402
0.00492760975763
0.00492760975763
0.00492760976081
0.00492760975258
0.00492760975258
0.00492760975418
0.00492760975418
0.00492760977208
0.00492760977367
0.00492760977367
0.00492760978483
0.00492760978483
0.00492760981234
0.00492760982032
0.0049276098313
0.00492760982452
0.00492760982452
0.00492760983236
0.00492760982881
0.00492760982722
0.00492760982084
0.00492760982084
0.00492760982411
0.00492760983709
0.00492760984511
0.00492760986271
0.00492760986355
0.00492760986355
0.00492760986629
0.00492760986917
0.00492760987546
0.00492760987546
0.00492760987895
0.00492760987601
0.00492760986469
0.00492760986305
0.00492760986305
0.00492760986462
0.00492760986462
0.00492760986773
0.00492760988034
0.00492760988782
0.00492760990981
0.00492760991021
0.00492760991021
0.00492760992571
0.00492760992378
0.0049276099072
0.0049276099072
0.00492760992458
0.00492760990569
0.0049276099035
0.0049276099035
0.00492760990615
0.00492760990656
0.00492760990656
0.00492760990919
0.00492760995075
0.00492760996318
0.004927609966
0.0049276099473
0.00492760993549
0.00492760993549
0.00492760993824
0.00492760994108
0.00492760994873
0.00492760995432
0.00492760995432
0.00492760994521
0.00492760993812
0.00492760993812
0.00492760995534
0.00492760996074
0.00492760996074
0.00492760996344
0.00492760996895
0.00492760996895
0.00492760996919
0.00492760996919
0.00492760997155
0.00492760998088
0.00492760998088
0.00492760998039
0.00492760998039
0.00492760998261
0.0049276099871
0.0049276099871
0.00492760999655
0.00492760999655
0.00492760999889
0.00492761000378
0.00492761000378
0.00492761000632
0.00492761001373
0.00492761001629
0.00492761001172
0.00492761001172
0.00492761001421
0.00492761003121
0.00492761003081
0.00492761003081
0.00492761003295
0.00492761004481
0.00492761004416
0.00492761004416
0.00492761007056
0.00492761007737
0.00492761007122
0.00492761006814
0.00492761006814
0.00492761007207
0.00492761007207
0.00492761005214
0.00492761005214
0.00492761005437
0.00492761006147
0.0049276100707
0.004927610068
0.004927610068
0.00492761006749
0.00492761006749
0.0049276100697
0.00492761008651
0.00492761010052
0.00492761010052
0.00492761010749
0.00492761011442
0.00492761011828
0.00492761011828
0.00492761011203
0.0049276100991
0.00492761009592
0.00492761008298
0.00492761008298
0.00492761008632
0.0049276100831
0.0049276100831
0.00492761008961
0.00492761009611
0.00492761010255
0.00492761010054
0.00492761010054
0.00492761009343
0.00492761009343
0.00492761009624
0.00492761009624
0.00492761009779
0.0049276101042
0.00492761011539
0.00492761010829
0.00492761009491
0.00492761009491
0.00492761009615
0.00492761009863
0.00492761009863
0.00492761009984
0.00492761012055
0.00492761010346
0.00492761009493
0.00492761009493
0.00492761012546
0.00492761013167
0.00492761011481
0.00492761010625
0.00492761010625
0.0049276101073
0.00492761012776
0.00492761012867
0.00492761016858
0.00492761016549
0.00492761015662
0.00492761015662
0.00492761015754
0.00492761014974
0.00492761014974
0.00492761017032
0.00492761017631
0.00492761017741
0.0049276101795
0.0049276101795
0.00492761018042
0.00492761018613
0.00492761016329
0.00492761016329
0.00492761016402
0.00492761016472
0.00492761015146
0.00492761015146
0.00492761015213
0.00492761016741
0.00492761015884
0.00492761015884
0.00492761015939
0.00492761015994
0.00492761016104
0.00492761016104
0.00492761016161
0.00492761016269
0.00492761016269
0.0049276101681
0.0049276101595
0.0049276101595
0.00492761016009
0.00492761018504
0.00492761019043
0.00492761019577
0.00492761021078
0.0049276102111
0.0049276102114
0.00492761018764
0.00492761018314
0.00492761017867
0.00492761015958
0.00492761015958
0.00492761017001
0.00492761017001
0.00492761018005
0.00492761018028
0.00492761017576
0.00492761017576
0.00492761017124
0.00492761015192
0.00492761014235
0.00492761014235
0.00492761014252
0.00492761014756
0.00492761013812
0.00492761013812
0.00492761015303
0.00492761015303
0.004927610158
0.00492761017758
0.00492761016304
0.00492761016304
0.00492761016307
0.00492761017283
0.00492761017764
0.00492761015794
0.00492761015794
0.00492761016743
0.00492761017205
0.00492761017642
0.00492761017642
0.00492761019573
0.00492761021003
0.00492761020985
0.00492761019012
0.00492761018988
0.00492761018988
0.00492761020391
0.00492761020391
0.00492761018866
0.00492761018349
0.00492761017345
0.00492761017313
0.00492761016789
0.00492761016789
0.00492761016227
0.00492761015214
0.00492761015214
0.0049276101615
0.00492761016595
0.00492761017477
0.00492761017477
0.00492761016882
0.00492761016882
0.00492761016768
0.00492761015734
0.00492761015734
0.00492761015624
0.00492761015571
0.00492761015571
0.00492761014489
0.00492761014433
0.00492761014433
0.00492761015836
0.00492761016259
0.00492761015631
0.00492761015558
0.00492761015558
0.00492761014925
0.00492761014925
0.00492761015341
0.0049276101673
0.00492761015117
0.0049276101504
0.00492761014959
0.00492761014959
0.00492761015267
0.00492761015267
0.00492761015074
0.00492761014972
0.00492761014872
0.00492761013796
0.00492761013796
0.00492761014182
0.00492761013975
0.00492761013975
0.00492761014247
0.00492761013157
0.00492761013157
0.00492761013414
0.00492761012811
0.00492761012811
0.00492761010626
0.00492761010019
0.00492761010019
0.00492761011356
0.00492761013177
0.00492761012913
0.00492761012783
0.00492761012654
0.0049276101155
0.0049276101155
0.00492761011289
0.00492761011289
0.00492761011647
0.00492761011371
0.00492761010743
0.00492761010113
0.00492761010113
0.00492761010459
0.00492761010802
0.00492761011489
0.00492761011345
0.00492761010227
0.00492761010079
0.00492761009442
0.00492761009291
0.00492761009142
0.00492761008499
0.00492761008499
0.00492761008685
0.00492761008685
0.00492761009854
0.00492761009712
0.0049276100957
0.00492761009427
0.00492761008792
0.00492761008792
0.00492761007996
0.00492761007996
0.00492761010268
0.00492761011079
0.00492761008318
0.00492761008153
0.00492761008153
0.00492761008311
0.00492761006677
0.00492761006018
0.00492761006018
0.00492761006329
0.0049276100664
0.00492761006258
0.00492761006068
0.00492761004894
0.00492761004894
0.00492761005976
0.00492761004812
0.00492761004136
0.00492761003449
0.00492761003256
0.00492761003256
0.00492761003359
0.00492761003359
0.0049276100365
0.00492761004911
0.00492761003537
0.00492761002367
0.00492761002367
0.00492761002662
0.0049276100179
0.00492761001587
0.00492761001386
0.0049276100069
0.00492761000497
0.00492761000497
0.00492761000798
0.00492761002074
0.00492761005297
0.00492761003942
0.00492761003942
0.00492761000621
0.00492760998949
0.00492760998949
0.00492760998535
0.00492760998535
0.00492760998645
0.00492760998461
0.00492760998461
0.00492760998767
0.00492760999376
0.00492760999185
0.00492760998018
0.00492760997828
0.00492760997828
0.00492760997941
0.00492760997747
0.00492760997747
0.00492760998037
0.00492760999787
0.00492760996919
0.00492760996919
0.00492760997211
0.00492760997503
0.00492760998281
0.00492760998575
0.00492760999848
0.00492760998014
0.00492760998014
0.00492760998106
0.00492760997421
0.00492760997421
0.00492760998204
0.00492760997318
0.00492760997118
0.00492760996914
0.0049276099623
0.0049276099623
0.00492760994842
0.00492760994842
0.00492760995121
0.00492760995689
0.00492760995689
0.00492760995747
0.00492760995747
0.00492760993857
0.00492760993857
0.00492760990984
0.00492760990984
0.00492760990986
0.00492760990986
0.00492760990031
0.00492760990031
0.00492760990062
0.00492760990062
0.00492760992274
0.00492760992523
0.00492760995217
0.00492760995228
0.00492760995228
0.00492760995248
0.00492760995005
0.00492760993799
0.00492760993799
0.00492760996277
0.00492760996068
0.00492760991963
0.00492760990276
0.00492760990055
0.00492760990055
0.00492760990118
0.0049276098649
0.00492760985778
0.00492760985546
0.00492760985546
0.00492760984618
0.00492760984618
0.00492760986353
0.00492760986621
0.00492760986893
0.00492760987875
0.0049276098764
0.00492760986433
0.00492760985699
0.00492760985699
0.0049276098423
0.0049276098423
0.00492760982817
0.00492760982119
0.00492760981864
0.00492760981864
0.00492760981376
0.00492760981117
0.00492760980836
0.00492760980561
0.00492760980561
0.00492760980511
0.00492760976867
0.00492760976867
0.00492760977354
0.00492760977354
0.00492760978055
0.00492760978034
0.00492760978034
0.00492760978051
0.00492760978051
0.00492760978309
0.00492760982441
0.00492760984623
0.00492760985157
0.00492760983976
0.00492760983275
0.00492760982051
0.00492760982051
0.00492760982502
0.00492760982502
0.00492760982022
0.00492760980787
0.00492760980787
0.00492760982921
0.00492760981378
0.00492760981133
0.00492760981133
0.00492760979705
0.00492760976078
0.00492760974856
0.00492760974611
0.00492760974611
0.00492760974648
0.00492760974648
0.00492760975156
0.00492760975156
0.00492760974191
0.00492760974191
0.00492760974412
0.00492760970959
0.00492760969712
0.00492760969712
0.00492760969226
0.00492760969226
0.00492760969282
0.00492760969282
0.00492760970975
0.0049276097218
0.00492760974866
0.00492760975619
0.0049276097466
0.00492760973943
0.00492760973943
0.00492760974519
0.00492760970935
0.0049276097024
0.0049276097024
0.00492760969779
0.00492760969529
0.00492760968758
0.00492760968758
0.00492760967723
0.00492760967723
0.00492760965288
0.00492760964077
0.0049276096384
0.0049276096384
0.00492760962832
0.00492760962832
0.00492760963731
0.00492760963463
0.00492760962736
0.00492760962736
0.00492760962293
0.0049276096158
0.0049276096158
0.00492760963258
0.00492760966395
0.00492760966625
0.00492760967601
0.00492760966878
0.00492760966161
0.00492760966161
0.00492760963759
0.00492760962569
0.00492760960901
0.00492760960901
0.00492760961162
0.00492760961413
0.00492760961658
0.00492760960692
0.00492760960692
0.00492760961424
0.00492760957588
0.00492760957588
0.0049276095815
0.00492760957451
0.00492760956757
0.00492760956046
0.00492760955814
0.00492760955814
0.00492760956058
0.00492760955093
0.00492760955093
0.00492760955115
0.00492760954893
0.00492760954679
0.00492760954679
0.00492760954949
0.00492760957462
0.00492760957462
0.00492760957765
0.00492760956925
0.0049276095576
0.00492760952174
0.00492760951498
0.00492760951283
0.00492760951083
0.00492760951083
0.00492760952336
0.00492760949951
0.00492760949951
0.00492760951671
0.00492760952425
0.00492760950538
0.0049276095032
0.0049276095032
0.00492760950585
0.0049276095013
0.00492760949921
0.00492760948753
0.00492760948557
0.00492760948557
0.00492760946212
0.00492760945537
0.00492760945537
0.00492760947293
0.0049276094887
0.0049276094887
0.00492760947504
0.00492760947504
0.00492760947078
0.00492760946821
0.00492760946567
0.00492760946331
0.00492760946331
0.00492760946891
0.00492760946891
0.00492760946529
0.00492760946361
0.00492760945712
0.00492760945712
0.00492760945393
0.00492760945393
0.0049276094571
0.00492760944854
0.00492760944854
0.0049276094542
0.00492760943767
0.00492760943767
0.00492760943854
0.00492760942697
0.00492760942697
0.00492760942995
0.00492760943134
0.00492760943134
0.00492760942834
0.00492760941734
0.00492760941734
0.00492760941962
0.00492760941962
0.00492760940739
0.00492760940739
0.00492760941068
0.00492760944779
0.00492760943463
0.00492760942792
0.00492760941173
0.0049276094053
0.00492760940371
0.00492760940213
0.00492760940213
0.00492760941351
0.00492760941187
0.00492760941187
0.00492760942799
0.00492760942799
0.00492760942494
0.00492760942494
0.00492760942661
0.00492760941504
0.00492760940839
0.00492760940679
0.00492760940541
0.00492760940541
0.00492760938401
0.00492760938288
0.00492760938288
0.00492760937554
0.00492760935482
0.00492760935482
0.00492760934158
0.00492760933983
0.00492760933826
0.00492760933826
0.0049276093503
0.0049276093503
0.00492760937243
0.0049276093715
0.00492760936557
0.00492760936432
0.00492760936432
0.00492760936199
0.00492760936199
0.00492760937015
0.00492760935256
0.00492760935112
0.00492760935112
0.00492760936433
0.00492760934278
0.00492760933195
0.00492760933059
0.00492760933059
0.00492760934395
0.00492760934781
0.00492760933591
0.00492760933591
0.00492760932331
0.00492760932189
0.00492760932054
0.00492760931438
0.004927609313
0.004927609313
0.00492760933091
0.00492760932799
0.00492760932173
0.00492760932173
0.00492760930929
0.00492760930322
0.00492760928259
0.00492760928124
0.00492760928124
0.00492760929454
0.00492760929701
0.00492760928585
0.00492760928436
0.00492760928318
0.00492760927739
0.00492760927739
0.00492760930082
0.00492760929975
0.00492760929975
0.00492760929768
0.00492760929182
0.00492760929083
0.00492760927554
0.00492760927479
0.00492760927397
0.00492760927397
0.0049276092578
0.0049276092578
0.00492760926185
0.0049276092997
0.0049276093037
0.00492760930711
0.00492760929676
0.00492760927667
0.00492760927605
0.00492760927605
0.00492760929471
0.00492760928849
0.00492760927834
0.00492760927834
0.00492760928692
0.00492760928692
0.00492760929048
0.00492760926569
0.00492760926042
0.00492760926042
0.00492760927448
0.00492760927366
0.00492760927366
0.00492760927821
0.00492760928245
0.00492760928131
0.00492760928131
0.00492760928574
0.00492760925128
0.00492760924619
0.00492760924619
0.00492760925551
0.00492760924073
0.00492760924073
0.00492760924545
0.00492760924545
0.00492760923988
0.00492760923988
0.00492760924427
0.00492760924427
0.00492760924872
0.0049276092436
0.00492760924304
0.00492760924304
0.00492760925706
0.00492760927122
0.00492760927556
0.00492760927556
0.00492760928053
0.00492760928044
0.00492760928044
0.0049276092756
0.0049276092756
0.00492760927073
0.00492760927073
0.00492760927084
0.00492760925144
0.00492760925144
0.00492760925156
0.00492760928068
0.0049276092712
0.0049276092712
0.00492760927131
0.00492760927143
0.00492760928644
0.00492760928644
0.00492760928661
0.00492760926313
0.00492760925865
0.00492760925865
0.00492760924994
0.00492760924994
0.00492760926476
0.0049276092796
0.00492760927045
0.00492760926594
0.00492760926594
0.00492760928076
0.00492760928635
0.00492760928635
0.00492760928235
0.00492760928235
0.00492760929736
0.00492760928372
0.00492760928372
0.00492760928418
0.00492760928523
0.00492760928523
0.00492760926754
0.00492760926754
0.00492760927337
0.00492760927015
0.00492760927015
0.00492760928052
0.00492760928137
0.00492760929645
0.00492760927319
0.00492760926885
0.00492760926446
0.00492760926446
0.00492760925589
0.00492760925589
0.00492760927583
0.00492760928129
0.00492760928188
0.00492760930173
0.00492760930707
0.00492760930754
0.00492760930352
0.00492760930352
0.00492760930411
0.00492760930961
0.00492760931033
0.00492760928795
0.00492760928795
0.00492760929852
0.00492760930411
0.00492760930966
0.00492760931618
0.00492760930742
0.00492760930358
0.00492760930358
0.00492760931918
0.00492760931667
0.00492760931667
0.00492760931777
0.00492760930547
0.00492760930547
0.00492760931136
0.00492760931719
0.00492760930004
0.00492760929632
0.00492760929632
0.00492760929743
0.00492760932757
0.00492760932986
0.00492760932986
0.0049276093311
0.00492760932401
0.00492760932401
0.00492760932529
0.00492760934238
0.00492760933401
0.00492760931597
0.00492760931597
0.004927609333
0.004927609333
0.00492760934542
0.00492760933233
0.00492760933233
0.00492760933874
0.00492760934523
0.00492760936316
0.00492760936316
0.00492760936482
0.00492760936303
0.00492760936303
0.00492760935146
0.00492760935146
0.00492760933513
0.00492760933513
0.00492760935595
0.00492760936224
0.00492760934581
0.00492760934581
0.00492760936184
0.00492760937789
0.00492760938121
0.00492760938121
0.00492760938295
0.00492760938471
0.00492760938639
0.00492760938961
0.00492760938961
0.00492760939605
0.00492760938965
0.00492760938171
0.00492760938171
0.00492760939321
0.00492760938252
0.00492760938252
0.00492760938459
0.0049276094033
0.0049276094033
0.00492760940756
0.00492760940756
0.00492760940969
0.00492760941665
0.00492760941589
0.00492760941589
0.00492760941991
0.00492760941713
0.00492760941713
0.00492760942129
0.00492760942129
0.00492760942833
0.00492760943058
0.00492760943283
0.00492760945179
0.00492760945179
0.00492760945398
0.00492760945346
0.00492760945076
0.00492760945076
0.00492760945018
0.00492760944261
0.00492760943502
0.00492760943502
0.00492760944679
0.00492760945372
0.00492760945796
0.00492760945041
0.00492760944288
0.00492760942571
0.00492760942571
0.00492760944473
0.00492760944473
0.00492760946644
0.00492760947368
0.00492760948098
0.00492760948351
0.00492760949579
0.00492760949142
0.00492760947958
0.00492760947958
0.00492760950164
0.00492760950912
0.00492760951908
0.00492760951908
0.00492760953128
0.0049276095338
0.0049276095195
0.0049276095195
0.00492760952209
0.00492760951766
0.00492760951766
0.00492760952031
0.00492760953052
0.00492760953052
0.00492760954296
0.00492760955059
0.00492760953205
0.00492760953205
0.00492760953487
0.00492760954734
0.00492760953342
0.00492760953131
0.00492760953131
0.00492760953407
0.00492760955141
0.00492760956196
0.00492760956196
0.00492760956969
0.00492760957548
0.00492760957548
0.00492760958326
0.00492760960864
0.00492760960684
0.00492760960684
0.00492760962933
0.00492760963079
0.00492760963079
0.00492760960807
0.00492760960807
0.00492760961124
0.00492760961759
0.00492760961759
0.00492760961907
0.00492760961907
0.00492760962709
0.00492760962374
0.00492760962374
0.00492760962693
0.00492760962851
0.00492760962851
0.00492760963659
0.00492760962364
0.00492760962364
0.00492760965109
0.00492760964289
0.00492760963152
0.00492760963152
0.00492760966382
0.00492760967027
0.00492760966867
0.00492760966867
0.00492760968496
0.00492760968496
0.00492760970771
0.00492760971108
0.00492760970343
0.00492760970343
0.00492760969602
0.00492760969482
0.00492760969482
0.00492760970821
0.00492760971676
0.00492760971436
0.00492760971436
0.00492760971799
0.00492760972044
0.00492760972044
0.00492760974357
0.00492760974137
0.0049276097354
0.0049276097354
0.00492760972333
0.00492760972208
0.00492760972208
0.00492760972921
0.00492760972921
0.00492760973277
0.00492760975578
0.00492760976913
0.00492760978255
0.00492760978042
0.00492760978042
0.00492760978338
0.00492760976788
0.00492760976693
0.00492760976693
0.00492760979509
0.00492760980375
0.00492760982206
0.00492760982937
0.00492760982937
0.00492760983299
0.0049276098512
0.00492760989258
0.00492760989258
0.00492760989633
0.00492760991471
0.00492760990781
0.00492760990781
0.00492760992625
0.00492760990001
0.0049276098796
0.00492760986896
0.00492760986896
0.0049276098729
0.00492760988564
0.00492760988471
0.00492760988377
0.00492760988377
0.0049276098877
0.00492760990139
0.00492760989489
0.00492760989489
0.00492760991849
0.00492760992199
0.00492760991648
0.00492760991648
0.00492760992069
0.00492760992975
0.00492760991874
0.00492760991812
0.00492760991812
0.00492760992723
0.00492760993149
0.0049276099844
0.00492760999837
0.00492760999701
0.0049276099768
0.0049276099768
0.00492760995576
0.00492760995576
0.00492760995981
0.0049276099687
0.0049276099873
0.00492761001077
0.00492760999938
0.00492760999938
0.00492761000835
0.00492761001685
0.00492761001685
0.00492761002069
0.00492761002069
0.00492761002509
0.00492761003381
0.00492761003381
0.00492761004787
0.00492761004187
0.00492761004187
0.00492761005592
0.00492761005971
0.00492761005971
0.00492761006409
0.0049276100685
0.00492761007261
0.00492761007221
0.00492761007221
0.00492761008601
0.00492761008561
0.00492761008561
0.00492761009461
0.00492761009461
0.00492761008896
0.00492761008896
0.0049276100784
0.00492761007802
0.00492761007802
0.00492761011177
0.00492761013577
0.00492761014475
0.00492761014434
0.00492761014434
0.00492761013859
0.00492761013326
0.00492761013326
0.00492761013767
0.00492761016648
0.00492761017584
0.00492761018032
0.00492761017483
0.0049276101599
0.0049276101597
0.0049276101597
0.00492761016421
0.00492761016408
0.00492761016408
0.00492761019806
0.00492761020278
0.0049276102172
0.00492761022184
0.00492761027046
0.00492761027981
0.00492761027981
0.00492761029886
0.00492761027418
0.00492761027418
0.00492761027863
0.00492761027863
0.00492761027324
0.00492761027296
0.00492761027296
0.00492761027753
0.00492761028206
0.00492761029147
0.00492761031065
0.00492761032979
0.00492761033913
0.00492761035823
0.00492761036272
0.00492761039166
0.00492761040106
0.00492761041518
0.00492761041498
0.00492761040501
0.00492761039013
0.0049276103655
0.00492761035059
0.00492761035033
0.00492761035033
0.00492761037448
0.00492761036391
0.00492761036391
0.00492761037331
0.00492761039261
0.0049276104022
0.0049276103874
0.0049276103874
0.00492761038745
0.00492761039222
0.00492761038722
0.00492761038722
0.00492761040159
0.00492761040159
0.00492761042098
0.00492761043534
0.00492761043037
0.00492761043024
0.00492761042028
0.00492761042008
0.00492761042008
0.00492761044393
0.00492761044393
0.00492761045335
0.00492761045801
0.00492761047737
0.00492761048686
0.00492761049625
0.00492761050551
0.00492761049942
0.00492761049942
0.00492761050803
0.00492761050803
0.00492761052711
0.0049276105316
0.00492761053595
0.00492761051639
0.00492761050658
0.00492761050658
0.00492761051135
0.00492761052086
0.00492761052086
0.00492761055005
0.00492761055954
0.00492761056896
0.0049276105785
0.00492761058755
0.00492761058755
0.00492761059208
0.00492761060644
0.00492761061594
0.00492761061529
0.00492761061529
0.00492761062487
0.00492761063409
0.00492761063409
0.00492761064355
0.00492761063797
0.00492761063275
0.00492761063275
0.00492761064683
0.00492761064683
0.00492761064644
0.00492761064644
0.00492761063628
0.00492761062628
0.00492761062628
0.00492761064569
0.00492761065517
0.00492761065517
0.00492761066433
0.00492761066433
0.00492761066895
0.00492761067353
0.00492761068298
0.00492761070714
0.00492761071658
0.0049276107209
0.0049276107209
0.0049276107402
0.0049276107402
0.00492761074465
0.00492761074465
0.00492761074927
0.00492761076322
0.00492761076322
0.00492761076772
0.00492761078158
0.00492761078158
0.00492761078608
0.00492761079052
0.00492761079466
0.00492761077953
0.00492761077953
0.00492761079868
0.00492761083739
0.00492761084677
0.00492761085115
0.00492761085549
0.00492761086483
0.00492761087407
0.00492761087811
0.00492761087811
0.0049276108874
0.00492761088696
0.00492761088167
0.00492761088167
0.00492761087562
0.00492761087516
0.00492761087516
0.00492761087993
0.00492761088449
0.00492761089445
0.00492761089973
0.00492761090482
0.00492761090477
0.00492761089976
0.00492761089942
0.00492761089899
0.00492761089899
0.00492761089369
0.00492761088339
0.00492761088339
0.00492761090268
0.00492761091154
0.00492761091154
0.00492761092602
0.00492761093557
0.00492761094497
0.00492761095458
0.00492761095318
0.00492761092832
0.00492761092832
0.00492761094736
0.00492761097119
0.00492761099076
0.0049276110001
0.00492761099425
0.00492761099425
0.00492761099328
0.00492761099297
0.00492761099297
0.0049276109974
0.00492761100687
0.00492761103591
0.00492761103489
0.00492761102456
0.00492761101964
0.00492761101436
0.00492761101436
0.00492761101879
0.00492761102313
0.0049276110369
0.0049276110369
0.00492761103566
0.00492761103566
0.00492761106882
0.00492761106882
0.00492761107253
0.00492761106686
0.00492761106686
0.00492761108574
0.00492761110943
0.00492761111269
0.00492761111269
0.00492761113191
0.00492761113544
0.00492761113544
0.00492761115343
0.00492761115343
0.00492761114152
0.00492761113594
0.00492761113594
0.00492761114012
0.00492761114795
0.00492761114795
0.00492761115204
0.004927611166
0.00492761117027
0.00492761117481
0.00492761118398
0.00492761119335
0.00492761120254
0.00492761121165
0.00492761120047
0.00492761120002
0.00492761120002
0.00492761120961
0.00492761122878
0.0049276112273
0.0049276112273
0.00492761124138
0.00492761124578
0.00492761125424
0.00492761125424
0.0049276112584
0.0049276112667
0.0049276112667
0.00492761127094
0.00492761125504
0.00492761124934
0.00492761124934
0.00492761124358
0.00492761124288
0.00492761124288
0.00492761124698
0.00492761126611
0.00492761126962
0.00492761126962
0.00492761127372
0.00492761128284
0.00492761128563
0.00492761128563
0.00492761129423
0.00492761134247
0.00492761134644
0.00492761136507
0.00492761138805
0.00492761138805
0.0049276113922
0.00492761140062
0.00492761140062
0.00492761140457
0.00492761141337
0.00492761140674
0.0049276113909
0.00492761138476
0.00492761138476
0.00492761138843
0.00492761139735
0.00492761140132
0.00492761141007
0.00492761141379
0.0049276113869
0.0049276113869
0.0049276114009
0.00492761139863
0.00492761139863
0.00492761142207
0.00492761142609
0.00492761143861
0.00492761143861
0.00492761144226
0.00492761144927
0.00492761144927
0.00492761145326
0.00492761146209
0.0049276114659
0.0049276114585
0.0049276114585
0.0049276114706
0.00492761146913
0.00492761146779
0.00492761146779
0.00492761148624
0.00492761149484
0.00492761149243
0.00492761149243
0.00492761147969
0.00492761147969
0.00492761148324
0.00492761148583
0.00492761146988
0.00492761146876
0.00492761146876
0.00492761147732
0.00492761148577
0.00492761149415
0.00492761149753
0.0049276115059
0.00492761151425
0.00492761154752
0.00492761155616
0.00492761155986
0.00492761155792
0.00492761155792
0.00492761156668
0.00492761157476
0.00492761157476
0.00492761158194
0.00492761158194
0.00492761158391
0.00492761158391
0.00492761158735
0.00492761159073
0.00492761159712
0.00492761159029
0.00492761158839
0.00492761158839
0.00492761158945
0.00492761158775
0.00492761158775
0.00492761161573
0.00492761162213
0.00492761162213
0.0049276116255
0.00492761163748
0.00492761163748
0.00492761163919
0.0049276116329
0.0049276116329
0.00492761165129
0.00492761166958
0.00492761166629
0.00492761166629
0.00492761167286
0.00492761167286
0.00492761167438
0.00492761167438
0.0049276116875
0.00492761167894
0.00492761167894
0.004927611682
0.004927611685
0.00492761169559
0.00492761169559
0.00492761170148
0.00492761170148
0.00492761170228
0.00492761169019
0.00492761169019
0.00492761169299
0.00492761168847
0.00492761168847
0.00492761169125
0.00492761171399
0.00492761171709
0.00492761171311
0.00492761170626
0.00492761170626
0.00492761170727
0.00492761170727
0.00492761173986
0.00492761174753
0.00492761174334
0.0049276117366
0.00492761173008
0.00492761172821
0.00492761172821
0.00492761173119
0.00492761173411
0.00492761175185
0.00492761176949
0.00492761175979
0.00492761174249
0.00492761174249
0.0049276117599
0.0049276117504
0.0049276117504
0.00492761177816
0.00492761179094
0.00492761182871
0.0049276118367
0.00492761183278
0.00492761183278
0.00492761184357
0.00492761184357
0.00492761184645
0.00492761186421
0.00492761186697
0.00492761187248
0.00492761187248
0.00492761188821
0.00492761188109
0.00492761187874
0.00492761187136
0.00492761187136
0.00492761187388
0.00492761188135
0.00492761188878
0.00492761189129
0.00492761187155
0.00492761186429
0.00492761186203
0.00492761185988
0.00492761185765
0.00492761185043
0.00492761184321
0.00492761184321
0.00492761186078
0.00492761187834
0.00492761186359
0.00492761186099
0.00492761186099
0.00492761186335
0.00492761186582
0.00492761186081
0.00492761186081
0.00492761187804
0.0049276118952
0.0049276119024
0.00492761191964
0.00492761193686
0.00492761194413
0.00492761195144
0.00492761198348
0.00492761195294
0.00492761194512
0.00492761194512
0.00492761195228
0.00492761192153
0.00492761192153
0.00492761191532
0.00492761191532
0.00492761192212
0.00492761192618
0.00492761191828
0.00492761191056
0.00492761190288
0.00492761190288
0.00492761191016
0.00492761193725
0.00492761194441
0.00492761194853
0.00492761194853
0.0049276119474
0.0049276119474
0.00492761194634