/*--------------------------------*- C++ -*----------------------------------*\
| =========                 |                                                 |
| \\      /  F ield         | OpenFOAM: The Open Source CFD Toolbox           |
|  \\    /   O peration     | Version:  2312                                  |
|   \\  /    A nd           | Website:  www.openfoam.com                      |
|    \\/     M anipulation  |                                                 |
\*---------------------------------------------------------------------------*/
FoamFile
{
    version     2.0;
    format      ascii;
    arch        "LSB;label=32;scalar=64";
    class       volScalarField;
    location    "0.005";
    object      p;
}
// * * * * * * * * * * * * * * * * * * * * * * * * * * * * * * * * * * * * * //

dimensions      [1 -1 -2 0 0 0 0];

internalField   nonuniform List<scalar> 
8000
(
99991.0646795
99988.6790552
99988.2284093
99987.1144268
99985.3974272
99983.084813
99980.7422553
99978.6804077
99976.7668597
99974.8107475
99972.776777
99970.7090833
99968.6605202
99966.6537977
99964.6322221
99962.613919
99960.5825496
99958.5476267
99956.5270856
99954.4947714
99952.4733279
99950.454982
99948.437531
99946.4245269
99944.4000228
99942.3836043
99940.3700306
99938.3541297
99936.3415752
99934.3226952
99932.3131447
99930.3034362
99928.2806793
99926.2754736
99924.2831854
99922.2724147
99920.2577368
99918.2654244
99916.2733369
99914.2622247
99912.2599175
99910.2722617
99908.2725403
99906.2708221
99904.2849329
99902.3047706
99900.3098406
99898.3189313
99896.352163
99894.3733146
99892.3773366
99890.4069888
99888.4358201
99886.4414864
99884.4763002
99882.515184
99880.5280733
99878.5726339
99876.6216714
99874.6507055
99872.7025127
99870.7462224
99868.782648
99866.8408108
99864.891824
99862.9468803
99861.0044661
99859.0595711
99857.1270816
99855.197598
99853.2651583
99851.3340673
99849.4160782
99847.4967104
99845.5634786
99843.6550866
99841.7503837
99839.8222697
99837.9222647
99836.0278429
99834.1095983
99832.2151937
99830.3339897
99828.4338298
99826.5450556
99824.6696505
99822.7947071
99820.9250383
99819.0408408
99817.1742444
99815.3246722
99813.4613495
99811.6176492
99809.7692294
99807.910877
99806.0709709
99804.2378555
99802.3979809
99800.5505897
99798.7284856
99796.9108883
99795.0766548
99793.2688045
99791.4616734
99789.6478692
99787.8589713
99786.0593565
99784.2612995
99782.4782492
99780.6901301
99778.9185342
99777.1408816
99775.3635444
99773.6041156
99771.839034
99770.0878707
99768.3372698
99766.5844101
99764.8463212
99763.1055879
99761.3773294
99759.6516336
99757.9232756
99756.2138508
99754.4971962
99752.7829139
99751.0901736
99749.3872826
99747.6886913
99746.010481
99744.3247339
99742.6422838
99740.9783785
99739.3088613
99737.6428723
99735.9957259
99734.3408002
99732.6906003
99731.0610742
99729.421412
99727.7875933
99726.1752255
99724.5522841
99722.9352026
99721.3356304
99719.7318654
99718.1388423
99716.5510637
99714.9642311
99713.3950363
99711.8193989
99710.2479323
99708.698675
99707.1398162
99705.5863209
99704.0515543
99702.5127369
99700.9825135
99699.4615966
99697.9413938
99696.4341159
99694.9294693
99693.4266023
99691.9370607
99690.4499261
99688.9680529
99687.4970727
99686.0287679
99684.5667622
99683.1133554
99681.6674893
99680.2261491
99678.7893352
99677.3645465
99675.9421321
99674.5248463
99673.1210368
99671.7172857
99670.3210506
99668.934728
99667.5508062
99666.1793547
99664.8108382
99663.4467921
99662.0976216
99660.747837
99659.4043876
99658.0735955
99656.7451713
99655.4251667
99654.1135446
99652.8075437
99651.5091782
99650.218461
99648.9340089
99647.6560317
99646.3862053
99645.1234152
99643.8707401
99642.6223129
99641.3792469
99640.1482181
99638.9203447
99637.6999704
99636.4894215
99635.2836445
99634.0887568
99632.8996642
99631.7153271
99630.5418248
99629.3735562
99628.2131097
99627.0616295
99625.9156799
99624.7781272
99623.6490093
99622.527033
99621.4126155
99620.3074097
99619.2090867
99618.1172808
99617.0345493
99615.957897
99614.8887282
99613.8293985
99612.7766457
99611.7314404
99610.6954034
99609.6658732
99608.6441512
99607.6311843
99606.6253648
99605.628065
99604.6384509
99603.6563737
99602.6826896
99601.7165105
99600.7589728
99599.8092931
99598.8669362
99597.9330413
99597.0070957
99596.0897477
99595.1804721
99594.2786065
99593.3850561
99592.5000568
99591.6232025
99590.753936
99589.8929
99589.0404979
99588.1959429
99587.3593666
99586.5312845
99585.7111524
99584.8992842
99584.096033
99583.3009963
99582.5140442
99581.7352078
99580.9650611
99580.2031603
99579.4489463
99578.7031363
99577.9662315
99577.2377233
99576.5172527
99575.8052612
99575.1016168
99574.4063218
99573.7194695
99573.0408715
99572.3707023
99571.7089317
99571.0557599
99570.4113553
99569.7751056
99569.1464223
99568.5263006
99567.9154607
99567.3132311
99566.7191849
99566.1334036
99565.5563499
99564.9877364
99564.4273316
99563.8755267
99563.3322208
99562.7975321
99562.2714402
99561.7538171
99561.2445218
99560.7434079
99560.2511491
99559.767791
99559.2927736
99558.8260642
99558.3678726
99557.918404
99557.4776288
99557.0452641
99556.6213556
99556.2062707
99555.7998498
99555.4018866
99555.0120747
99554.6306507
99554.2581302
99553.8940484
99553.5385415
99553.1918562
99552.8537346
99552.5236623
99552.2019469
99551.8893823
99551.5856468
99551.2903666
99551.0030076
99550.724052
99550.4542684
99550.1930138
99549.9400804
99549.69551
99549.4596592
99549.2326934
99549.0138662
99548.803431
99548.601593
99548.4082708
99548.2235212
99548.0471859
99547.8795864
99547.720292
99547.5692808
99547.4269089
99547.2930729
99547.1680093
99547.0512138
99546.9426084
99546.8425276
99546.7509208
99546.6679691
99546.5932184
99546.5267399
99546.4689584
99546.4194009
99546.378266
99546.3458448
99546.3215539
99546.3053976
99546.2978634
99546.2986991
99546.307646
99546.3248268
99546.3506682
99546.3852078
99546.4272742
99546.4775082
99546.5367309
99546.6041083
99546.6794786
99546.7630161
99546.8548522
99546.9550048
99547.0634741
99547.1800533
99547.3048305
99547.43769
99547.5786128
99547.7279426
99547.8853111
99548.0508999
99548.224518
99548.4061583
99548.5961235
99548.7937921
99548.9996377
99549.2134999
99549.4352719
99549.6654259
99549.9032956
99550.1491178
99550.4030339
99550.6648992
99550.9344496
99551.2119666
99551.4976629
99551.7910775
99552.0927215
99552.4016748
99552.7183141
99553.0433322
99553.3755475
99553.7157699
99554.0640743
99554.4195228
99554.7831168
99555.1545565
99555.5331825
99555.9195977
99556.3135632
99556.7154683
99557.1252227
99557.5418602
99557.9659777
99558.3982379
99558.8378242
99559.2850451
99559.7398927
99560.2014978
99560.6710367
99561.1478049
99561.6319709
99562.12398
99562.6226098
99563.1289464
99563.6424272
99564.1633208
99564.6917623
99565.2266338
99565.76939
99566.3190349
99566.8759853
99567.4407065
99568.0112998
99568.5892716
99569.1744322
99569.7671318
99570.3674596
99570.9730878
99571.5859908
99572.2064158
99572.8337243
99573.4682009
99574.1087884
99574.7566598
99575.4112145
99576.0725908
99576.7411459
99577.4155125
99578.0967731
99578.7857668
99579.481752
99580.1825996
99580.8907383
99581.6066739
99582.3269146
99583.0543582
99583.7894151
99584.5299059
99585.2766808
99586.030697
99586.7914921
99587.5572551
99588.3297282
99589.1091591
99589.8946164
99590.6861175
99591.4832726
99592.2878578
99593.0979309
99593.9137999
99594.7362266
99595.5647588
99596.4002341
99597.2394244
99598.0858065
99598.9395328
99599.7960103
99600.6596269
99601.5299982
99602.406522
99603.2894668
99604.174689
99605.0677257
99605.9681586
99606.8707146
99607.7803811
99608.6953862
99609.6168311
99610.5456736
99611.4759159
99612.4128029
99613.3573216
99614.304217
99615.2580406
99616.2182346
99617.1808362
99618.1510554
99619.1272007
99620.106239
99621.090677
99622.0807217
99623.0764098
99624.0766242
99625.0823594
99626.0921794
99627.1081358
99628.1307649
99629.1542151
99630.1827195
99631.2173516
99632.2580967
99633.3038204
99634.3506946
99635.4036194
99636.4625287
99637.5267268
99638.5955301
99639.6652175
99640.7396448
99641.8225912
99642.9116021
99643.9974018
99645.0914584
99646.1975029
99647.2965282
99648.4009583
99649.5149112
99650.632404
99651.7534819
99652.8741242
99654.00132
99655.1347483
99656.2713032
99657.4133988
99658.5538058
99659.700992
99660.8544142
99662.0107238
99663.1735285
99664.332255
99665.4996255
99666.6735772
99667.8463854
99669.0281199
99670.206791
99671.3897303
99672.5831764
99673.777377
99674.9721324
99676.1673071
99677.3678566
99678.5721959
99679.7813606
99680.9936791
99682.2059313
99683.4258525
99684.6464059
99685.8697628
99687.1060772
99688.3343528
99689.5627969
99690.8079618
99692.0475532
99693.2822987
99694.5289216
99695.7815627
99697.0303763
99698.2803225
99699.5308201
99700.7902116
99702.0576725
99703.3201614
99704.5824718
99705.850923
99707.1265295
99708.4004415
99709.6724391
99710.956675
99712.2368201
99713.5150911
99714.805006
99716.0926807
99717.3744868
99718.6639617
99719.9618467
99721.2567888
99722.5549736
99723.8514211
99725.1495307
99726.4608042
99727.7608246
99729.0619154
99730.3727142
99731.6790319
99732.9903276
99734.2988475
99735.6130877
99736.9274881
99738.2396988
99739.5659866
99740.8842765
99742.1952254
99743.5183274
99744.8455614
99746.1631997
99747.4849198
99748.8140923
99750.1400315
99751.4665616
99752.7980689
99754.1265665
99755.4572781
99756.7951471
99758.1261866
99759.4549003
99760.7904767
99762.1252765
99763.4601393
99764.7977645
99766.1329231
99767.469212
99768.8017296
99770.1371386
99771.4842019
99772.8145213
99774.1442312
99775.4939451
99776.8271056
99778.1563483
99779.5007112
99780.8419619
99782.1823702
99783.5209871
99784.8520216
99786.1890816
99787.5294715
99788.8619839
99790.2011705
99791.5373966
99792.8667302
99794.2074046
99795.5487204
99796.8816169
99798.21414
99799.54646
99800.8807112
99802.2183551
99803.545332
99804.8784417
99806.2150705
99807.5394173
99808.8704025
99810.2019333
99811.5261151
99812.84591
99814.1707601
99815.5018996
99816.8202965
99818.1384661
99819.4691661
99820.7880281
99822.1009917
99823.4247369
99824.7385367
99826.0483571
99827.365685
99828.6785655
99829.9825488
99831.2891582
99832.6017204
99833.9017079
99835.2024307
99836.5112014
99837.8074842
99839.1036009
99840.4085683
99841.700765
99842.9898108
99844.2888694
99845.5753697
99846.8582329
99848.1512816
99849.4319206
99850.7088011
99851.9952546
99853.2682867
99854.53954
99855.8191863
99857.0837444
99858.349364
99859.6219733
99860.8813065
99862.1403943
99863.4039493
99864.6569668
99865.905817
99867.1617681
99868.4089435
99869.6482719
99870.894834
99872.1316082
99873.3645699
99874.6043118
99875.8297924
99877.0562179
99878.2872139
99879.5045077
99880.723555
99881.9420571
99883.1565051
99884.3674257
99885.5661531
99886.7732947
99887.9784445
99889.1659591
99890.3622229
99891.5552737
99892.7389365
99893.9234671
99895.0987361
99896.2801915
99897.4566731
99898.6161951
99899.7852728
99900.9498832
99902.1047564
99903.2606599
99904.4073546
99905.5588803
99906.7058202
99907.8359998
99908.9749224
99910.1118507
99911.2334274
99912.3577533
99913.4822811
99914.5952222
99915.7012616
99916.8137333
99917.9225037
99919.014071
99920.1099336
99921.2059998
99922.2858747
99923.3685734
99924.451212
99925.5192722
99926.5887682
99927.657355
99928.7117236
99929.7681361
99930.8235822
99931.8638727
99932.9065889
99933.948487
99934.9748831
99936.0035146
99937.0313262
99938.0436519
99939.0580165
99940.0713566
99941.0692015
99942.0691035
99943.0676581
99944.0508139
99945.0360988
99946.0196346
99946.9884033
99947.9583587
99948.9265157
99949.8807366
99950.8340221
99951.7872549
99952.7309417
99953.6667176
99954.5952989
99955.5243866
99956.4508603
99957.3618428
99958.2731034
99959.1839375
99960.0801042
99960.9743812
99961.8675343
99962.7478683
99963.6236797
99964.5008596
99965.3694583
99966.2275321
99967.0812715
99967.9335362
99968.7808869
99969.6157248
99970.4476666
99971.2784874
99972.096518
99972.9072313
99973.7211696
99974.5271404
99975.3177647
99976.1112437
99976.9027009
99977.6774807
99978.4502862
99979.2214557
99979.9789493
99980.7329419
99981.4850139
99982.2246063
99982.9568953
99983.6918669
99984.4187286
99985.130777
99985.8437627
99986.5535463
99987.2481183
99987.9369731
99988.6278798
99989.3094174
99989.9777528
99990.6450817
99991.306619
99991.9610256
99992.609011
99993.244963
99993.8794018
99994.5105106
99995.12729
99995.7397319
99996.351175
99996.952235
99997.5439549
99998.130463
99998.7115482
99999.2861715
99999.8500331
100000.409467
100000.965262
100001.508259
100002.044255
100002.580787
100003.109051
100003.624219
100004.134412
100004.640723
100005.140462
100005.628335
100006.106319
100006.586003
100007.058917
100007.515504
100007.971723
100008.423953
100008.860286
100009.293471
100009.723206
100010.139142
100010.549345
100010.957715
100011.355812
100011.743632
100012.126998
100012.503536
100012.8717
100013.229981
100013.580912
100013.929684
100014.269777
100014.597449
100014.92155
100015.240564
100015.547
100015.846755
100016.142744
100016.427803
100016.705462
100016.978983
100017.240719
100017.492621
100017.744289
100017.988423
100018.218082
100018.443356
100018.663853
100018.874845
100019.077
100019.269025
100019.45626
100019.638457
100019.807374
100019.967233
100020.12737
100020.279078
100020.414891
100020.548252
100020.677487
100020.791513
100020.896295
100021.002346
100021.099622
100021.180007
100021.259651
100021.334133
100021.391771
100021.442934
100021.494285
100021.534819
100021.559913
100021.584764
100021.603307
100021.606097
100021.605784
100021.599735
100021.578859
100021.551825
100021.522595
100021.482926
100021.431685
100021.375072
100021.310735
100021.237558
100021.157071
100021.066296
100020.967248
100020.863796
100020.750581
100020.626997
100020.49885
100020.361337
100020.213623
100020.061385
100019.900525
100019.729342
100019.551288
100019.365305
100019.170657
100018.967452
100018.755782
100018.537527
100018.311013
100018.074572
100017.83156
100017.579614
100017.317819
100017.051222
100016.774784
100016.48762
100016.197792
100015.897995
100015.58466
100015.269828
100014.947922
100014.611447
100014.267071
100013.919907
100013.563571
100013.194936
100012.820877
100012.43919
100012.04703
100011.648333
100011.24118
100010.823951
100010.401005
100009.969454
100009.527175
100009.07966
100008.624212
100008.158023
100007.684795
100007.203808
100006.714496
100006.216356
100005.708434
100005.19453
100004.673845
100004.142711
100003.602278
100003.055458
100002.501134
100001.93759
100001.365335
100000.784726
100000.196253
99999.6005621
99998.9947914
99998.379369
99997.7606418
99997.1327854
99996.4927053
99995.8481998
99995.1958974
99994.5330607
99993.8629516
99993.1844746
99992.4984091
99991.8039197
99991.09974
99990.3894408
99989.6710964
99988.9430285
99988.2077745
99987.4641098
99986.7122563
99985.95289
99985.1842553
99984.4085715
99983.6247229
99982.831123
99982.0316432
99981.2239141
99980.4061741
99979.5820712
99978.7498638
99977.9082909
99977.0600275
99976.2034677
99975.3378448
99974.4654588
99973.5850278
99972.695787
99971.7988717
99970.89362
99969.9801498
99969.0595469
99968.1307268
99967.1934069
99966.2489375
99965.2964558
99964.3355095
99963.3667893
99962.3900536
99961.4053168
99960.4130792
99959.4125752
99958.4035094
99957.3875025
99956.3642688
99955.3322823
99954.292047
99953.244803
99952.1898104
99951.1263941
99950.0551819
99948.9765859
99947.8900753
99946.7951324
99945.6925743
99944.5834126
99943.4658054
99942.3395718
99941.2072499
99940.0670122
99938.9180257
99937.7622363
99936.5986159
99935.4266895
99934.2478871
99933.0613513
99931.8666358
99930.6649467
99929.4555638
99928.2381279
99927.0137798
99925.7819094
99924.5417846
99923.2942086
99922.0398581
99920.7777247
99919.5075933
99918.2304759
99916.9458832
99915.6536984
99914.3544949
99913.0478374
99911.7334064
99910.4116228
99909.0826176
99907.7461505
99906.4022316
99905.051207
99903.6931191
99902.3276358
99900.9546768
99899.5744638
99898.1870855
99896.7925573
99895.3908482
99893.981913
99892.5657708
99891.1424588
99889.7119819
99888.2743565
99886.829653
99885.3779455
99883.9192544
99882.4534796
99880.9805222
99879.5004516
99878.0134156
99876.5195034
99875.0187033
99873.5109114
99871.9961381
99870.4744885
99868.9459268
99867.4104404
99865.8681022
99864.3189284
99862.7629478
99861.2002421
99859.6308499
99858.0546539
99856.4715467
99854.8816368
99853.2851594
99851.682228
99850.0725814
99848.456061
99846.8328887
99845.203253
99843.5669745
99841.9239275
99840.2743611
99838.6185431
99836.9564967
99835.2877713
99833.6122546
99831.9303161
99830.2421837
99828.5477132
99826.8467083
99825.1392951
99823.425487
99821.705311
99819.9789736
99818.246541
99816.5079082
99814.762872
99813.0114183
99811.2537667
99809.4900349
99807.7202758
99805.9444891
99804.1624892
99802.3742823
99800.5801349
99798.7800535
99796.9738492
99795.1615283
99793.3432675
99791.5190954
99789.6890148
99787.853153
99786.0113526
99784.1635415
99782.3099592
99780.450649
99778.585644
99776.7148443
99774.8381276
99772.9557145
99771.0677027
99769.1739985
99767.2747073
99765.3697241
99763.4590566
99761.5427731
99759.620936
99757.6939074
99755.761371
99753.8231761
99751.8794386
99749.9301707
99747.9757409
99746.0158913
99744.0505327
99742.0800336
99740.104029
99738.1226323
99736.1364852
99734.1450273
99732.1480934
99730.1460554
99728.1387679
99726.1264554
99724.1090214
99722.0863013
99720.0587813
99718.0259868
99715.987862
99713.9456489
99711.8982502
99709.8453859
99707.7882551
99705.7259674
99703.6587737
99701.5866484
99699.5093582
99697.4282111
99695.3421464
99693.2508568
99691.1553178
99689.0548189
99686.9497969
99684.8401556
99682.7256467
99680.6069473
99678.4833941
99676.3552186
99674.2232752
99672.0867178
99669.9452404
99667.7993416
99665.6491798
99663.4950417
99661.3362727
99659.1726958
99657.0056226
99654.834308
99652.6579284
99650.4780737
99648.293737
99646.1048026
99643.9129907
99641.7165736
99639.5157712
99637.3112162
99635.1023127
99632.8901742
99630.6740349
99628.453301
99626.228672
99624.0006341
99621.7688148
99619.5328257
99617.2930141
99615.0493117
99612.8024318
99610.5515603
99608.2965183
99606.0388135
99603.7770465
99601.511189
99599.2428404
99596.9706653
99594.6940819
99592.4144525
99590.1320529
99587.8458957
99585.5560651
99583.2629663
99580.9664835
99578.6666795
99576.3630528
99574.0567706
99571.7481473
99569.4353593
99567.1191074
99564.8000938
99562.477554
99560.1527704
99557.8245251
99555.4924671
99553.1590176
99550.821414
99548.4802192
99546.1383975
99543.7928296
99541.4436108
99539.091798
99536.736585
99534.3800722
99532.0203041
99529.6570376
99527.2922587
99524.9236704
99522.553415
99520.1800244
99517.8025085
99515.4258321
99513.0455459
99510.6604473
99508.2758199
99505.8877698
99503.4957897
99501.104403
99498.7086897
99496.3092001
99493.9113798
99491.5105926
99489.1056028
99486.6984631
99484.2894105
99481.8797195
99479.4675301
99477.0511824
99474.6328059
99472.2151414
99469.7946306
99467.3707158
99464.946268
99462.5189642
99460.0903477
99457.6601617
99455.226858
99452.7937326
99450.3575224
99447.9176783
99445.4798466
99443.0400647
99440.5961151
99438.1522461
99435.7079885
99433.2596753
99430.8089717
99428.3599149
99425.9093751
99423.4557507
99420.9998751
99418.5436201
99416.0873659
99413.626704
99411.1658106
99408.7063685
99406.2430649
99403.7798315
99401.3142094
99398.8453497
99396.3809331
99393.9148411
99391.4432697
99388.9711584
99386.5021661
99384.0297139
99381.5539345
99379.0816919
99376.6070339
99374.1312597
99371.6538264
99369.1736558
99366.6975639
99364.2192673
99361.7385139
99359.2569761
99356.7721463
99354.2940259
99351.811468
99349.3232825
99346.8446738
99344.362767
99341.8767235
99339.3903876
99336.9017269
99334.4202328
99331.9356883
99329.4446668
99326.9608302
99324.4773123
99321.9892635
99319.4996954
99317.0105587
99314.5253777
99312.0392253
99309.5496154
99307.0596539
99304.5718373
99302.0859948
99299.598408
99297.1094865
99294.6196843
99292.1314996
99289.6456667
99287.1571017
99284.6683002
99282.1811452
99279.6929165
99277.2076091
99274.722181
99272.2320162
99269.745986
99267.2641082
99264.778512
99262.2911438
99259.8068649
99257.325829
99254.8417493
99252.3565238
99249.8740853
99247.3905881
99244.9123116
99242.4308847
99239.9470143
99237.4703866
99234.9905205
99232.5145459
99230.0387577
99227.559882
99225.0844186
99222.6090648
99220.1388613
99217.6652771
99215.1905915
99212.7193229
99210.2452287
99207.7841036
99205.3149728
99202.8394099
99200.3798386
99197.914419
99195.4522085
99192.9902867
99190.5216279
99188.0681553
99185.6099986
99183.14748
99180.6950397
99178.2362642
99175.7855688
99173.3346565
99170.8709206
99168.428893
99165.9817975
99163.5297754
99161.0847886
99158.6389834
99156.2028877
99153.755608
99151.3124802
99148.8892764
99146.4440797
99143.9967921
99141.5806027
99139.154861
99136.7172747
99134.2949345
99131.8690929
99129.4350047
99127.0273769
99124.6042883
99122.1679839
99119.7736262
99117.357986
99114.9238807
99112.5363478
99110.1270568
99107.6997784
99105.3098448
99102.9097652
99100.5091848
99098.1121652
99095.7053985
99093.3193889
99090.9370205
99088.5489419
99086.1582666
99083.7754231
99081.4075781
99079.023017
99076.6308778
99074.2621398
99071.8998899
99069.5386055
99067.1666703
99064.7873312
99062.4303361
99060.0802736
99057.7300982
99055.3705723
99053.0160949
99050.6774923
99048.3300954
99045.9884805
99043.6566608
99041.3211548
99038.9810084
99036.6499708
99034.3308496
99032.0026484
99029.6723715
99027.3563488
99025.0456372
99022.7373539
99020.4179419
99018.1049514
99015.8103426
99013.5001869
99011.2020407
99008.9102495
99006.6007795
99004.3171314
99002.0311383
98999.733781
98997.4559572
98995.1768305
98992.9042438
98990.6470041
98988.3757339
98986.0979209
98983.8394114
98981.592999
98979.339456
98977.075567
98974.8289701
98972.5894029
98970.3465309
98968.1094767
98965.881729
98963.6545091
98961.4183911
98959.1930778
98956.9839292
98954.7733372
98952.5567367
98950.3413566
98948.144206
98945.9477412
98943.7400397
98941.5429457
98939.3630036
98937.1774912
98934.9935919
98932.8192662
98930.6529184
98928.4839253
98926.3006968
98924.1377294
98921.9830302
98919.8103683
98917.6589076
98915.5147804
98913.3549757
98911.2126241
98909.0780746
98906.9445262
98904.8140897
98902.6770161
98900.5545938
98898.4397995
98896.3273787
98894.2174232
98892.1011808
98889.9999182
98887.9063604
98885.8151416
98883.726506
98881.629381
98879.5542517
98877.4868291
98875.4000535
98873.3365592
98871.2885166
98869.2277281
98867.1707544
98865.1360278
98863.1035314
98861.065353
98859.0300142
98856.995949
98854.9755308
98852.9603602
98850.9431251
98848.933863
98846.9271792
98844.9303159
98842.9399477
98840.9469318
98838.96167
98836.9802138
98834.9909005
98833.0156432
98831.0507102
98829.0817512
98827.1197255
98825.1637203
98823.2119712
98821.2703084
98819.3394071
98817.4072082
98815.4696631
98813.5462901
98811.6262717
98809.7145878
98807.8078303
98805.8900813
98803.9886948
98802.0978793
98800.2015487
98798.3219409
98796.4484577
98794.5638463
98792.7007565
98790.8457222
98788.986369
98787.1317286
98785.2754418
98783.4349944
98781.6027372
98779.7673756
98777.9416396
98776.1219964
98774.3107876
98772.5014993
98770.6850546
98768.8878337
98767.1064326
98765.3146136
98763.518701
98761.7357668
98759.9725071
98758.2094365
98756.4323084
98754.6839147
98752.9439239
98751.1821758
98749.4502156
98747.7263729
98745.9810241
98744.2652661
98742.5582305
98740.8295924
98739.1260851
98737.4385196
98735.7348799
98734.0418196
98732.3618504
98730.6875804
98729.0127383
98727.3312226
98725.6697454
98724.0158953
98722.3691821
98720.7297267
98719.081397
98717.449587
98715.8250463
98714.204136
98712.592972
98710.9765728
98709.3721293
98707.7793294
98706.1779312
98704.5869639
98703.0112257
98701.4372852
98699.8688846
98698.3003918
98696.7333219
98695.1822204
98693.6389999
98692.1013843
98690.5653257
98689.033413
98687.5136428
98685.994798
98684.4819356
98682.9769331
98681.4812994
98679.9856602
98678.4969204
98677.0266914
98675.5474575
98674.072946
98672.618265
98671.1584645
98669.7028125
98668.2587048
98666.8217091
98665.3896748
98663.9623204
98662.547469
98661.132608
98659.7224316
98658.3284629
98656.9317256
98655.5412505
98654.1620692
98652.784111
98651.4163909
98650.0524609
98648.6929522
98647.3431086
98645.9962176
98644.6596582
98643.3273146
98641.9977743
98640.679429
98639.3635039
98638.0551418
98636.7535078
98635.4557598
98634.1687193
98632.8830725
98631.6041167
98630.3360315
98629.0699691
98627.8122821
98626.5609583
98625.3123934
98624.0737266
98622.8411497
98621.6113005
98620.3895707
98619.1772068
98617.9687399
98616.7647601
98615.5678362
98614.3795259
98613.2005408
98612.0194677
98610.8452881
98609.6869887
98608.5269081
98607.3727037
98606.2308179
98605.0900867
98603.958178
98602.8323256
98601.7107443
98600.6014734
98599.4910688
98598.3870121
98597.2991502
98596.2087053
98595.1234733
98594.0524351
98592.9816973
98591.9175975
98590.8655517
98589.8140297
98588.7677345
98587.733202
98586.7037511
98585.6773512
98584.6593636
98583.6510888
98582.6451806
98581.6439527
98580.6553374
98579.6701813
98578.6878017
98577.7172036
98576.7518541
98575.7896893
98574.837151
98573.8925183
98572.9504752
98572.0143149
98571.0895669
98570.169306
98569.2518052
98568.3455522
98567.445614
98566.5484855
98565.6596751
98564.7772081
98563.9040662
98563.0350688
98562.1690581
98561.3158272
98560.4672227
98559.620882
98558.7851643
98557.9562806
98557.1304938
98556.3131396
98555.504256
98554.6991387
98553.8996637
98553.1091314
98552.3257747
98551.5470587
98550.7741207
98550.0091512
98549.250769
98548.4979868
98547.7534414
98547.0149611
98546.2805572
98545.5538235
98544.8345914
98544.1217405
98543.4152263
98542.7145234
98542.0201019
98541.3333885
98540.6537883
98539.9788783
98539.3103386
98538.6505194
98537.9963229
98537.3460579
98536.7037904
98536.0702956
98535.4414763
98534.8177878
98534.2020565
98533.5936641
98532.9903846
98532.3930592
98531.8038681
98531.2212612
98530.643648
98530.0732229
98529.509935
98528.95199
98528.3999544
98527.8559699
98527.3191941
98526.7865738
98526.2609771
98525.7439155
98525.2312065
98524.7239503
98524.2250551
98523.7333032
98523.2463564
98522.7655204
98522.2928084
98521.8258155
98521.3649303
98520.9118523
98520.4639368
98520.0215087
98519.586879
98519.1591044
98518.7372253
98518.3213772
98517.9121415
98517.5103389
98517.1141849
98516.7231139
98516.3394578
98515.9630637
98515.5923874
98515.2275492
98514.8697826
98514.5192227
98514.1738514
98513.8344035
98513.5028589
98513.1771631
98512.856531
98512.543129
98512.2367907
98511.9361057
98511.6415582
98511.3536905
98511.0726084
98510.7974752
98510.5284617
98510.2664642
98510.0100793
98509.759909
98509.517447
98509.2803517
98509.0484041
98508.8241224
98508.6066682
98508.3940263
98508.1876179
98507.9886461
98507.7958049
98507.6084024
98507.4276269
98507.2541685
98507.0863438
98506.923517
98506.7673639
98506.6185434
98506.4758109
98506.338522
98506.2076648
98506.0839941
98505.9661388
98505.8530778
98505.7469072
98505.6484245
98505.554753
98505.4667494
98505.3862511
98505.3113066
98505.2421284
98505.1800859
98505.1234346
98505.0727779
98505.0294297
98504.9911243
98504.958673
98504.9336938
98504.913781
98504.8996523
98504.892932
98504.8913578
98504.8955869
98504.9071866
98504.924012
98504.9463071
98504.9759964
98505.0117221
98505.0519996
98505.0987475
98505.1526274
98505.2114705
98505.2760144
98505.34767
98505.4254272
98505.508195
98505.5969728
98505.692553
98505.7939764
98505.9006175
98506.0134422
98506.1329757
98506.2581308
98506.388382
98506.5247747
98506.6679685
98506.8170136
98506.9712051
98507.1312686
98507.2978236
98507.4701996
98507.6479901
98507.8316211
98508.0214719
98508.217708
98508.4196542
98508.6262452
98508.8389703
98509.0586535
98509.2835055
98509.5133715
98509.7494485
98509.9916823
98510.2396256
98510.4933785
98510.7526287
98511.0175816
98511.2884728
98511.5650903
98511.8475681
98512.135684
98512.4289625
98512.7281777
98513.0338511
98513.3449764
98513.6607807
98513.9823909
98514.3105039
98514.6441332
98514.9827523
98515.3270562
98515.6775437
98516.0335839
98516.3946705
98516.7614624
98517.1343854
98517.512572
98517.8958579
98518.2851589
98518.6802805
98519.0801167
98519.4855446
98519.8972359
98520.3142909
98520.7361707
98521.1636213
98521.5970759
98522.035826
98522.4796288
98522.9291873
98523.3845104
98523.8446302
98524.3100347
98524.7813362
98525.258061
98525.7397525
98526.2268523
98526.7197583
98527.2179709
98527.7210191
98528.2294991
98528.7437136
98529.2628973
98529.7872992
98530.3173739
98530.8525205
98531.3927046
98531.938598
98532.4898223
98533.0455051
98533.6064234
98534.1731853
98534.7451816
98535.3220089
98535.9037254
98536.4908581
98537.0835424
98537.6813397
98538.2839397
98538.891593
98539.5044905
98540.1225045
98540.7457153
98541.3740241
98542.0071526
98542.6453683
98543.2888907
98543.937398
98544.5906348
98545.2490088
98545.9126332
98546.5809834
98547.2543815
98547.9329609
98548.6162035
98549.3043841
98549.997879
98550.6962566
98551.3990597
98552.106834
98552.8198994
98553.5377563
98554.2601766
98554.9875121
98555.7199262
98556.4571059
98557.1990008
98557.9457265
98558.6974006
98559.4538852
98560.2149101
98560.9806997
98561.7514899
98562.5270295
98563.3070307
98564.0917851
98564.881462
98565.6757013
98566.4744319
98567.277988
98568.0864407
98568.8994757
98569.7169501
98570.5389186
98571.3656621
98572.1972185
98573.0332548
98573.873646
98574.7186618
98575.5684005
98576.4226449
98577.2813154
98578.1444388
98579.0121389
98579.8844338
98580.7612278
98581.6424637
98582.5280628
98583.4180057
98584.3124481
98585.2114082
98586.1147303
98587.0224556
98587.9346406
98588.851183
98589.7719654
98590.6970959
98591.6266618
98592.5605414
98593.4986469
98594.4410441
98595.3877901
98596.3387936
98597.2939622
98598.2534218
98599.2172594
98600.1853307
98601.1575234
98602.1337608
98603.1142711
98604.0990965
98605.0879568
98606.0809841
98607.0782389
98608.0795067
98609.0847793
98610.0942399
98611.1079157
98612.1256516
98613.1472883
98614.1730395
98615.2029468
98616.2367026
98617.2744623
98618.3163692
98619.3622821
98620.4120278
98621.465621
98622.5232726
98623.5849918
98624.6505936