/*--------------------------------*- C++ -*----------------------------------*\
| =========                 |                                                 |
| \\      /  F ield         | OpenFOAM: The Open Source CFD Toolbox           |
|  \\    /   O peration     | Version:  2312                                  |
|   \\  /    A nd           | Website:  www.openfoam.com                      |
|    \\/     M anipulation  |                                                 |
\*---------------------------------------------------------------------------*/
FoamFile
{
    version     2.0;
    format      ascii;
    arch        "LSB;label=32;scalar=64";
    class       surfaceScalarField;
    location    "0.005";
    object      phi;
}
// * * * * * * * * * * * * * * * * * * * * * * * * * * * * * * * * * * * * * //

dimensions      [1 0 -1 0 0 0 0];

oriented        oriented;

internalField   nonuniform List<scalar> 
7999
(
4.00030601048
4.00030602259
4.00030603602
4.00030605156
4.00030606921
4.00030608859
4.00030610973
4.00030613287
4.000306158
4.00030618501
4.00030621385
4.00030624456
4.00030627715
4.00030631164
4.00030634803
4.00030638625
4.0003064264
4.00030646844
4.00030651231
4.00030655816
4.00030660591
4.0003066555
4.00030670692
4.00030676015
4.00030681531
4.00030687228
4.00030693113
4.00030699188
4.00030705435
4.00030711876
4.00030718508
4.00030725317
4.00030732321
4.00030739509
4.00030746864
4.00030754407
4.00030762146
4.00030770056
4.00030778143
4.00030786427
4.00030794896
4.00030803541
4.00030812373
4.00030821398
4.00030830602
4.00030839972
4.00030849533
4.00030859282
4.0003086919
4.00030879279
4.00030889571
4.00030900031
4.00030910668
4.00030921514
4.00030932533
4.00030943721
4.00030955104
4.00030966663
4.00030978396
4.0003099031
4.00031002392
4.0003101466
4.00031027119
4.00031039747
4.00031052545
4.00031065524
4.00031078685
4.00031092017
4.00031105528
4.00031119217
4.00031133079
4.00031147128
4.00031161347
4.00031175735
4.00031190315
4.00031205063
4.00031219975
4.00031235081
4.00031250355
4.00031265793
4.00031281424
4.00031297225
4.00031313188
4.00031329334
4.00031345653
4.00031362142
4.000313788
4.0003139562
4.00031412624
4.00031429796
4.00031447128
4.00031464632
4.00031482295
4.00031500124
4.00031518125
4.00031536296
4.00031554627
4.00031573121
4.00031591798
4.00031610632
4.00031629626
4.00031648796
4.00031668122
4.00031687611
4.00031707267
4.00031727076
4.00031747049
4.00031767184
4.00031787478
4.00031807935
4.00031828543
4.00031849313
4.00031870246
4.00031891331
4.00031912577
4.00031933975
4.0003195553
4.00031977243
4.00031999111
4.00032021135
4.00032043308
4.00032065638
4.00032088123
4.00032110752
4.00032133541
4.00032156485
4.00032179569
4.00032202812
4.00032226208
4.00032249745
4.00032273438
4.00032297281
4.00032321264
4.00032345401
4.00032369687
4.0003239411
4.00032418687
4.00032443411
4.0003246827
4.00032493281
4.00032518437
4.00032543729
4.0003256917
4.00032594753
4.00032620476
4.00032646342
4.00032672344
4.00032698489
4.00032724773
4.00032751189
4.00032777748
4.00032804446
4.00032831275
4.00032858246
4.00032885352
4.00032912592
4.00032939968
4.00032967475
4.00032995116
4.0003302289
4.00033050792
4.00033078828
4.00033106996
4.00033135289
4.00033163715
4.00033192269
4.00033220948
4.00033249756
4.00033278692
4.00033307752
4.00033336935
4.00033366245
4.0003339568
4.00033425235
4.00033454914
4.00033484716
4.00033514637
4.00033544681
4.00033574843
4.00033605126
4.00033635528
4.00033666044
4.00033696679
4.00033727431
4.00033758294
4.00033789276
4.00033820371
4.00033851579
4.00033882902
4.00033914335
4.0003394588
4.00033977535
4.00034009301
4.00034041175
4.00034073158
4.00034105248
4.00034137446
4.0003416975
4.00034202158
4.00034234671
4.00034267288
4.00034300007
4.0003433283
4.00034365754
4.00034398779
4.00034431905
4.00034465128
4.0003449845
4.0003453187
4.00034565386
4.00034599
4.00034632709
4.00034666512
4.0003470041
4.000347344
4.00034768483
4.00034802657
4.00034836922
4.00034871276
4.00034905719
4.0003494025
4.00034974869
4.00035009573
4.00035044364
4.0003507924
4.000351142
4.00035149243
4.00035184368
4.00035219575
4.00035254863
4.00035290231
4.00035325679
4.00035361204
4.00035396806
4.00035432485
4.00035468239
4.00035504068
4.00035539972
4.00035575948
4.00035611997
4.00035648117
4.00035684307
4.00035720567
4.00035756896
4.00035793293
4.00035829757
4.00035866288
4.00035902884
4.00035939544
4.00035976268
4.00036013054
4.00036049902
4.00036086811
4.0003612378
4.00036160808
4.00036197895
4.00036235038
4.00036272238
4.00036309494
4.00036346805
4.00036384169
4.00036421586
4.00036459055
4.00036496575
4.00036534145
4.00036571764
4.00036609432
4.00036647148
4.00036684909
4.00036722716
4.00036760569
4.00036798464
4.00036836403
4.00036874383
4.00036912404
4.00036950465
4.00036988566
4.00037026705
4.0003706488
4.00037103093
4.0003714134
4.00037179621
4.00037217937
4.00037256285
4.00037294664
4.00037333074
4.00037371514
4.00037409982
4.00037448479
4.00037487001
4.0003752555
4.00037564124
4.00037602721
4.00037641342
4.00037679985
4.00037718649
4.00037757334
4.00037796037
4.00037834759
4.00037873498
4.00037912253
4.00037951023
4.00037989809
4.00038028607
4.00038067418
4.00038106241
4.00038145073
4.00038183915
4.00038222766
4.00038261624
4.00038300489
4.0003833936
4.00038378235
4.00038417114
4.00038455996
4.00038494878
4.00038533762
4.00038572645
4.00038611527
4.00038650408
4.00038689285
4.00038728157
4.00038767025
4.00038805886
4.00038844741
4.00038883586
4.00038922423
4.00038961249
4.00039000065
4.00039038868
4.00039077658
4.00039116434
4.00039155195
4.0003919394
4.00039232667
4.00039271376
4.00039310067
4.00039348737
4.00039387386
4.00039426012
4.00039464616
4.00039503196
4.0003954175
4.00039580278
4.00039618779
4.00039657253
4.00039695697
4.00039734111
4.00039772494
4.00039810845
4.00039849162
4.00039887445
4.00039925693
4.00039963905
4.0004000208
4.00040040217
4.00040078314
4.00040116372
4.00040154388
4.00040192362
4.00040230293
4.00040268179
4.00040306021
4.00040343816
4.00040381565
4.00040419265
4.00040456915
4.00040494516
4.00040532065
4.00040569562
4.00040607005
4.00040644395
4.00040681729
4.00040719007
4.00040756228
4.00040793391
4.00040830494
4.00040867538
4.00040904519
4.00040941439
4.00040978296
4.00041015088
4.00041051814
4.00041088475
4.00041125068
4.00041161593
4.00041198048
4.00041234433
4.00041270747
4.00041306989
4.00041343157
4.00041379251
4.0004141527
4.00041451213
4.00041487078
4.00041522866
4.00041558574
4.00041594202
4.00041629748
4.00041665212
4.00041700593
4.00041735891
4.00041771102
4.00041806228
4.00041841266
4.00041876216
4.00041911077
4.00041945848
4.00041980528
4.00042015115
4.0004204961
4.00042084011
4.00042118316
4.00042152525
4.00042186638
4.00042220653
4.00042254568
4.00042288384
4.00042322098
4.00042355711
4.00042389222
4.00042422628
4.00042455929
4.00042489125
4.00042522213
4.00042555195
4.00042588067
4.0004262083
4.00042653482
4.00042686022
4.00042718451
4.00042750766
4.00042782967
4.00042815052
4.0004284702
4.00042878871
4.00042910605
4.00042942218
4.00042973712
4.00043005085
4.00043036336
4.00043067463
4.00043098467
4.00043129346
4.00043160099
4.00043190725
4.00043221223
4.00043251593
4.00043281834
4.00043311944
4.00043341923
4.00043371769
4.00043401483
4.00043431062
4.00043460505
4.00043489813
4.00043518984
4.00043548017
4.00043576911
4.00043605666
4.00043634281
4.00043662754
4.00043691084
4.0004371927
4.00043747313
4.0004377521
4.00043802962
4.00043830565
4.00043858022
4.00043885331
4.00043912489
4.00043939497
4.00043966353
4.00043993057
4.00044019609
4.00044046005
4.00044072247
4.00044098334
4.00044124264
4.00044150036
4.0004417565
4.00044201104
4.00044226399
4.00044251532
4.00044276503
4.00044301312
4.00044325957
4.00044350438
4.00044374754
4.00044398903
4.00044422886
4.00044446701
4.00044470347
4.00044493824
4.00044517131
4.00044540267
4.00044563231
4.00044586022
4.00044608638
4.00044631081
4.00044653347
4.00044675438
4.00044697353
4.00044719089
4.00044740648
4.00044762027
4.00044783226
4.00044804244
4.00044825079
4.00044845733
4.00044866204
4.0004488649
4.00044906592
4.00044926508
4.00044946239
4.00044965781
4.00044985135
4.000450043
4.00045023275
4.00045042057
4.00045060649
4.00045079049
4.00045097257
4.00045115269
4.00045133089
4.00045150712
4.0004516814
4.00045185372
4.00045202405
4.0004521924
4.00045235874
4.0004525231
4.00045268546
4.00045284577
4.00045300407
4.00045316037
4.00045331461
4.0004534668
4.00045361692
4.00045376498
4.00045391097
4.0004540549
4.00045419675
4.00045433652
4.0004544742
4.00045460979
4.00045474326
4.00045487463
4.00045500391
4.00045513105
4.000455256
4.00045537884
4.00045549953
4.00045561802
4.00045573439
4.0004558486
4.00045596061
4.00045607038
4.000456178
4.00045628347
4.00045638676
4.00045648785
4.00045658665
4.00045668325
4.0004567777
4.00045686988
4.00045695978
4.00045704742
4.00045713281
4.0004572159
4.00045729672
4.00045737527
4.00045745154
4.00045752551
4.00045759719
4.00045766657
4.00045773365
4.00045779842
4.00045786086
4.00045792099
4.0004579788
4.00045803427
4.00045808742
4.00045813823
4.00045818667
4.00045823279
4.00045827653
4.00045831792
4.00045835697
4.00045839363
4.00045842791
4.00045845978
4.00045848925
4.00045851636
4.00045854106
4.00045856331
4.00045858323
4.00045860073
4.00045861577
4.00045862839
4.00045863857
4.0004586463
4.00045865162
4.00045865447
4.00045865485
4.00045865278
4.00045864824
4.00045864122
4.00045863174
4.00045861979
4.00045860532
4.00045858838
4.00045856893
4.00045854697
4.00045852257
4.00045849559
4.00045846614
4.00045843428
4.0004583998
4.00045836282
4.00045832336
4.00045828133
4.00045823678
4.00045818966
4.00045813999
4.00045808788
4.00045803321
4.00045797597
4.00045791625
4.00045785395
4.00045778908
4.00045772172
4.00045765175
4.00045757917
4.00045750401
4.00045742624
4.00045734593
4.000457263
4.00045717742
4.00045708932
4.0004569986
4.00045690525
4.00045680936
4.00045671085
4.0004566097
4.00045650593
4.00045639958
4.00045629064
4.00045617904
4.00045606484
4.00045594808
4.00045582863
4.00045570654
4.0004555819
4.00045545458
4.00045532462
4.00045519207
4.00045505687
4.00045491898
4.00045477847
4.00045463534
4.00045448954
4.00045434107
4.00045418996
4.00045403615
4.00045387967
4.00045372058
4.00045355876
4.00045339429
4.00045322723
4.00045305744
4.00045288498
4.00045270993
4.00045253215
4.0004523517
4.00045216865
4.00045198286
4.0004517944
4.00045160333
4.00045140952
4.00045121304
4.00045101391
4.00045081207
4.00045060751
4.00045040029
4.00045019033
4.00044997767
4.00044976237
4.00044954434
4.0004493236
4.00044910025
4.00044887416
4.00044864539
4.00044841399
4.00044817984
4.000447943
4.0004477035
4.00044746129
4.00044721636
4.00044696872
4.00044671839
4.00044646533
4.00044620954
4.00044595107
4.00044568988
4.00044542597
4.00044515937
4.00044489004
4.00044461802
4.00044434327
4.00044406581
4.00044378568
4.0004435028
4.00044321721
4.00044292893
4.00044263793
4.00044234424
4.00044204783
4.0004417487
4.00044144689
4.00044114235
4.00044083511
4.00044052517
4.00044021251
4.00043989716
4.0004395791
4.00043925835
4.00043893489
4.00043860873
4.00043827988
4.00043794833
4.00043761408
4.00043727713
4.0004369375
4.00043659519
4.00043625017
4.00043590247
4.00043555209
4.00043519902
4.00043484327
4.00043448484
4.00043412373
4.00043375994
4.00043339348
4.00043302433
4.00043265251
4.00043227802
4.00043190086
4.00043152103
4.00043113853
4.00043075336
4.00043036554
4.00042997504
4.00042958189
4.00042918608
4.00042878761
4.0004283865
4.00042798272
4.00042757631
4.00042716724
4.00042675552
4.00042634116
4.00042592416
4.00042550452
4.00042508225
4.00042465735
4.00042422982
4.00042379966
4.00042336688
4.00042293148
4.00042249345
4.00042205281
4.00042160956
4.00042116369
4.00042071522
4.00042026415
4.00041981046
4.00041935419
4.00041889534
4.00041843389
4.00041796984
4.00041750321
4.00041703401
4.00041656222
4.00041608786
4.00041561093
4.00041513143
4.00041464936
4.00041416474
4.00041367756
4.00041318781
4.00041269552
4.00041220069
4.00041170332
4.0004112034
4.00041070096
4.00041019599
4.00040968849
4.00040917848
4.00040866596
4.00040815091
4.00040763336
4.00040711331
4.00040659073
4.00040606566
4.00040553812
4.0004050081
4.00040447558
4.00040394059
4.00040340313
4.00040286318
4.00040232077
4.00040177591
4.0004012286
4.00040067883
4.00040012661
4.00039957194
4.00039901485
4.00039845533
4.00039789337
4.000397329
4.00039676222
4.00039619303
4.00039562142
4.00039504741
4.00039447102
4.00039389223
4.00039331104
4.00039272749
4.00039214156
4.00039155325
4.00039096259
4.00039036957
4.0003897742
4.00038917647
4.0003885764
4.00038797401
4.00038736928
4.00038676222
4.00038615284
4.00038554115
4.00038492714
4.00038431082
4.00038369223
4.00038307134
4.00038244816
4.00038182271
4.000381195
4.000380565
4.00037993277
4.00037929829
4.00037866154
4.00037802255
4.00037738134
4.0003767379
4.00037609224
4.00037544435
4.00037479426
4.00037414197
4.00037348748
4.00037283079
4.00037217193
4.00037151089
4.00037084768
4.00037018231
4.00036951479
4.0003688451
4.00036817328
4.00036749934
4.00036682324
4.00036614502
4.00036546471
4.00036478227
4.00036409772
4.0003634111
4.00036272238
4.00036203158
4.00036133871
4.00036064377
4.00035994678
4.00035924774
4.00035854664
4.0003578435
4.00035713834
4.00035643116
4.00035572195
4.00035501075
4.00035429755
4.00035358234
4.00035286515
4.00035214599
4.00035142485
4.00035070174
4.00034997668
4.00034924969
4.00034852074
4.00034778987
4.00034705709
4.00034632238
4.00034558574
4.00034484722
4.00034410681
4.0003433645
4.00034262033
4.00034187429
4.00034112638
4.00034037664
4.00033962506
4.00033887161
4.00033811635
4.00033735928
4.00033660038
4.00033583969
4.00033507721
4.00033431292
4.00033354687
4.00033277905
4.00033200945
4.00033123811
4.00033046502
4.00032969019
4.00032891364
4.00032813537
4.00032735538
4.00032657369
4.00032579031
4.00032500523
4.00032421849
4.00032343007
4.00032264
4.00032184827
4.0003210549
4.0003202599
4.00031946328
4.00031866503
4.00031786518
4.00031706373
4.00031626069
4.00031545607
4.00031464988
4.00031384212
4.0003130328
4.00031222195
4.00031140957
4.00031059565
4.00030978022
4.00030896329
4.00030814485
4.00030732491
4.00030650351
4.00030568062
4.00030485627
4.00030403047
4.00030320323
4.00030237455
4.00030154444
4.00030071292
4.00029987999
4.00029904566
4.00029820994
4.00029737284
4.00029653438
4.00029569455
4.00029485337
4.00029401085
4.000293167
4.00029232183
4.00029147535
4.00029062757
4.00028977849
4.00028892813
4.00028807649
4.00028722358
4.00028636942
4.00028551402
4.00028465738
4.00028379951
4.00028294042
4.00028208012
4.00028121863
4.00028035595
4.0002794921
4.00027862707
4.00027776089
4.00027689356
4.00027602509
4.00027515547
4.00027428475
4.00027341292
4.00027253999
4.00027166597
4.00027079088
4.00026991471
4.00026903748
4.0002681592
4.00026727989
4.00026639954
4.00026551816
4.00026463579
4.00026375241
4.00026286804
4.00026198269
4.00026109638
4.0002602091
4.00025932088
4.00025843173
4.00025754164
4.00025665063
4.00025575872
4.0002548659
4.0002539722
4.00025307761
4.00025218216
4.00025128585
4.0002503887
4.0002494907
4.00024859188
4.00024769224
4.0002467918
4.00024589056
4.00024498853
4.00024408572
4.00024318215
4.00024227782
4.00024137275
4.00024046694
4.0002395604
4.00023865315
4.0002377452
4.00023683656
4.00023592723
4.00023501723
4.00023410656
4.00023319524
4.00023228329
4.00023137069
4.00023045748
4.00022954365
4.00022862922
4.00022771421
4.00022679862
4.00022588245
4.00022496573
4.00022404846
4.00022313065
4.0002222123
4.00022129345
4.00022037409
4.00021945423
4.00021853388
4.00021761307
4.00021669178
4.00021577005
4.00021484787
4.00021392524
4.0002130022
4.00021207875
4.00021115489
4.00021023064
4.00020930601
4.00020838101
4.00020745566
4.00020652995
4.00020560389
4.00020467751
4.00020375081
4.00020282381
4.0002018965
4.00020096891
4.00020004105
4.00019911292
4.00019818453
4.0001972559
4.00019632703
4.00019539794
4.00019446864
4.00019353913
4.00019260943
4.00019167955
4.0001907495
4.00018981928
4.00018888891
4.00018795841
4.00018702777
4.00018609701
4.00018516615
4.00018423519
4.00018330414
4.00018237301
4.00018144181
4.00018051056
4.00017957926
4.00017864793
4.00017771657
4.0001767852
4.00017585382
4.00017492245
4.00017399109
4.00017305976
4.00017212847
4.00017119723
4.00017026604
4.00016933493
4.00016840389
4.00016747294
4.0001665421
4.00016561136
4.00016468074
4.00016375026
4.00016281991
4.00016188972
4.00016095969
4.00016002983
4.00015910016
4.00015817068
4.0001572414
4.00015631234
4.0001553835
4.00015445489
4.00015352653
4.00015259842
4.00015167058
4.00015074301
4.00014981573
4.00014888874
4.00014796207
4.0001470357
4.00014610966
4.00014518397
4.00014425862
4.00014333363
4.000142409
4.00014148475
4.00014056089
4.00013963743
4.00013871437
4.00013779174
4.00013686953
4.00013594776
4.00013502644
4.00013410558
4.00013318519
4.00013226528
4.00013134585
4.00013042693
4.00012950851
4.00012859062
4.00012767325
4.00012675642
4.00012584014
4.00012492443
4.00012400928
4.0001230947
4.00012218072
4.00012126734
4.00012035457
4.00011944241
4.00011853088
4.00011762
4.00011670975
4.00011580017
4.00011489125
4.00011398301
4.00011307546
4.00011216861
4.00011126247
4.00011035704
4.00010945234
4.00010854838
4.00010764516
4.00010674269
4.000105841
4.00010494008
4.00010403994
4.0001031406
4.00010224207
4.00010134434
4.00010044743
4.00009955137
4.00009865614
4.00009776176
4.00009686825
4.00009597561
4.00009508385
4.00009419297
4.000093303
4.00009241394
4.00009152579
4.00009063857
4.00008975229
4.00008886695
4.00008798257
4.00008709916
4.00008621672
4.00008533526
4.00008445479
4.00008357533
4.00008269688
4.00008181945
4.00008094305
4.00008006768
4.00007919337
4.00007832011
4.00007744792
4.00007657681
4.00007570677
4.00007483783
4.00007397
4.00007310327
4.00007223767
4.0000713732
4.00007050986
4.00006964767
4.00006878664
4.00006792677
4.00006706808
4.00006621057
4.00006535425
4.00006449913
4.00006364522
4.00006279253
4.00006194107
4.00006109084
4.00006024185
4.00005939412
4.00005854764
4.00005770244
4.00005685852
4.00005601588
4.00005517454
4.00005433451
4.00005349579
4.00005265839
4.00005182232
4.00005098758
4.00005015419
4.00004932216
4.00004849149
4.00004766219
4.00004683427
4.00004600775
4.00004518262
4.00004435889
4.00004353657
4.00004271568
4.00004189621
4.00004107818
4.0000402616
4.00003944646
4.00003863279
4.0000378206
4.00003700988
4.00003620065
4.00003539292
4.00003458668
4.00003378196
4.00003297875
4.00003217707
4.00003137692
4.00003057831
4.00002978124
4.00002898574
4.0000281918
4.00002739944
4.00002660865
4.00002581945
4.00002503184
4.00002424584
4.00002346143
4.00002267865
4.00002189751
4.00002111799
4.00002034011
4.00001956388
4.00001878931
4.0000180164
4.00001724516
4.00001647561
4.00001570773
4.00001494154
4.00001417706
4.00001341428
4.00001265321
4.00001189385
4.00001113622
4.00001038033
4.00000962619
4.00000887379
4.00000812314
4.00000737427
4.00000662716
4.00000588183
4.00000513829
4.00000439653
4.00000365657
4.00000291841
4.00000218207
4.00000144755
4.00000071486
3.99999998399
3.99999925496
3.99999852778
3.99999780244
3.99999707896
3.99999635735
3.99999563761
3.99999491974
3.99999420376
3.99999348968
3.99999277748
3.99999206718
3.99999135879
3.99999065232
3.99998994777
3.99998924514
3.99998854446
3.99998784572
3.99998714893
3.99998645409
3.9999857612
3.99998507031
3.99998438138
3.99998369441
3.99998300942
3.99998232643
3.99998164543
3.99998096643
3.99998028945
3.99997961447
3.9999789415
3.99997827056
3.99997760165
3.99997693479
3.99997626996
3.99997560716
3.99997494643
3.99997428776
3.99997363115
3.99997297662
3.99997232416
3.99997167381
3.99997102551
3.9999703793
3.9999697352
3.99996909319
3.99996845329
3.99996781551
3.99996717983
3.9999665463
3.99996591488
3.99996528559
3.99996465844
3.99996403344
3.99996341059
3.99996278989
3.99996217134
3.99996155495
3.99996094073
3.9999603287
3.99995971883
3.99995911113
3.99995850562
3.9999579023
3.99995730119
3.99995670228
3.99995610556
3.99995551108
3.9999549188
3.99995432874
3.99995374091
3.99995315528
3.9999525719
3.99995199078
3.99995141189
3.99995083523
3.99995026084
3.9999496887
3.99994911882
3.99994855121
3.99994798588
3.9999474228
3.99994686203
3.99994630352
3.99994574728
3.99994519337
3.99994464173
3.99994409237
3.99994354533
3.9999430006
3.9999424582
3.99994191809
3.99994138032
3.99994084485
3.99994031169
3.99993978089
3.99993925241
3.99993872628
3.99993820246
3.99993768099
3.99993716194
3.99993664518
3.99993613074
3.99993561869
3.99993510902
3.99993460173
3.99993409678
3.99993359419
3.99993309404
3.99993259623
3.99993210076
3.99993160772
3.99993111708
3.99993062886
3.99993014302
3.99992965957
3.99992917859
3.99992869998
3.99992822372
3.99992774992
3.99992727856
3.99992680955
3.99992634295
3.99992587884
3.99992541722
3.99992495795
3.99992450107
3.99992404671
3.99992359478
3.99992314526
3.99992269823
3.99992225361
3.99992181143
3.99992137182
3.99992093455
3.99992049965
3.99992006741
3.9999196375
3.99991920997
3.99991878507
3.99991836257
3.99991794245
3.99991752487
3.99991710977
3.99991669719
3.99991628705
3.99991587932
3.99991547412
3.99991507141
3.99991467117
3.99991427335
3.999913878
3.99991348528
3.99991309501
3.99991270707
3.99991232164
3.99991193876
3.99991155849
3.99991118068
3.99991080524
3.99991043231
3.99991006192
3.99990969409
3.99990932872
3.99990896585
3.99990860548
3.99990824758
3.99990789222
3.99990753938
3.99990718902
3.99990684118
3.99990649586
3.99990615311
3.99990581287
3.99990547511
3.99990513988
3.99990480722
3.99990447709
3.99990414945
3.99990382442
3.99990350196
3.99990318197
3.99990286455
3.99990254969
3.99990223738
3.99990192769
3.99990162052
3.99990131593
3.99990101391
3.99990071433
3.99990041724
3.99990012284
3.99989983095
3.99989954146
3.99989925452
3.99989897016
3.99989868834
3.99989840904
3.99989813232
3.99989785812
3.99989758642
3.99989731727
3.99989705067
3.99989678663
3.99989652513
3.99989626617
3.99989600978
3.99989575597
3.99989550471
3.99989525599
3.99989500984
3.99989476624
3.99989452517
3.99989428665
3.99989405068
3.99989381723
3.9998935863
3.99989335792
3.9998931321
3.99989290885
3.99989268816
3.99989247003
3.99989225446
3.99989204143
3.99989183097
3.99989162307
3.99989141772
3.99989121492
3.99989101467
3.99989081698
3.99989062183
3.99989042924
3.99989023918
3.99989005168
3.99988986673
3.99988968433
3.99988950448
3.99988932716
3.99988915239
3.99988898018
3.99988881049
3.99988864331
3.99988847875
3.99988831675
3.99988815719
3.99988800013
3.99988784567
3.99988769374
3.99988754429
3.99988739737
3.99988725301
3.99988711122
3.99988697198
3.99988683525
3.99988670103
3.99988656937
3.99988644026
3.9998863136
3.99988618943
3.99988606777
3.99988594862
3.99988583202
3.99988571792
3.99988560636
3.99988549729
3.99988539077
3.99988528677
3.99988518523
3.99988508625
3.99988498976
3.99988489575
3.99988480428
3.99988471535
3.9998846289
3.99988454493
3.99988446346
3.99988438448
3.99988430804
3.9998842341
3.99988416266
3.9998840938
3.99988402737
3.99988396332
3.99988390186
3.99988384288
3.99988378628
3.99988373217
3.99988368055
3.99988363137
3.9998835847
3.99988354052
3.99988349874
3.99988345943
3.99988342265
3.99988338824
3.99988335624
3.9998833268
3.9998832998
3.99988327513
3.99988325289
3.99988323319
3.99988321597
3.99988320105
3.99988318855
3.99988317866
3.9998831711
3.99988316587
3.99988316322
3.99988316289
3.99988316486
3.99988316941
3.99988317626
3.99988318539
3.99988319711
3.99988321115
3.99988322744
3.99988324622
3.99988326738
3.99988329094
3.99988331686
3.99988334516
3.99988337597
3.99988340913
3.99988344469
3.9998834826
3.99988352282
3.99988356549
3.9998836105
3.99988365789
3.99988370764
3.99988375967
3.99988381415
3.99988387097
3.99988393003
3.9998839915
3.99988405532
3.99988412142
3.99988418984
3.99988426057
3.99988433369
3.99988440918
3.99988448698
3.99988456706
3.99988464943
3.99988473415
3.99988482119
3.99988491048
3.9998850021
3.99988509604
3.99988519224
3.99988529069
3.99988539148
3.99988549454
3.99988559978
3.99988570736
3.99988581723
3.99988592929
3.99988604365
3.9998861603
3.99988627917
3.99988640028
3.99988652366
3.99988664924
3.99988677701
3.99988690704
3.9998870393
3.9998871737
3.99988731035
3.9998874492
3.99988759021
3.99988773343
3.99988787884
3.99988802641
3.99988817616
3.99988832811
3.99988848221
3.99988863845
3.99988879687
3.99988895745
3.99988912015
3.99988928503
3.99988945205
3.99988962119
3.99988979248
3.99988996591
3.99989014145
3.9998903191
3.99989049888
3.99989068077
3.99989086474
3.99989105084
3.99989123904
3.9998914293
3.99989162167
3.99989181614
3.99989201267
3.99989221127
3.99989241194
3.99989261468
3.99989281948
3.99989302633
3.99989323522
3.99989344617
3.99989365917
3.99989387418
3.99989409125
3.99989431033
3.99989453143
3.99989475456
3.99989497968
3.99989520681
3.99989543595
3.99989566705
3.99989590017
3.99989613528
3.99989637236
3.99989661142
3.99989685245
3.99989709544
3.9998973404
3.99989758731
3.99989783616
3.99989808697
3.9998983397
3.99989859438
3.99989885099
3.99989910952
3.99989936997
3.99989963233
3.9998998966
3.99990016277
3.99990043083
3.99990070078
3.99990097263
3.99990124635
3.99990152195
3.99990179942
3.99990207876
3.99990235995
3.999902643
3.99990292789
3.99990321462
3.99990350319
3.99990379359
3.99990408581
3.99990437985
3.99990467571
3.99990497337
3.99990527284
3.9999055741
3.99990587715
3.999906182
3.99990648861
3.999906797
3.99990710717
3.9999074191
3.99990773278
3.99990804822
3.9999083654
3.99990868433
3.99990900499
3.99990932737
3.99990965148
3.9999099773
3.99991030483
3.99991063407
3.999910965
3.99991129762
3.99991163193
3.99991196793
3.99991230559
3.99991264493
3.99991298592
3.99991332857
3.99991367288
3.99991401883
3.99991436642
3.99991471564
3.99991506649
3.99991541895
3.99991577303
3.99991612872
3.99991648601
3.99991684489
3.99991720536
3.99991756742
3.99991793106
3.99991829627
3.99991866304
3.99991903137
3.99991940125
3.99991977268
3.99992014565
3.99992052015
3.99992089618
3.99992127373
3.9999216528
3.99992203338
3.99992241545
3.99992279903
3.99992318409
3.99992357063
3.99992395865
3.99992434815
3.99992473911
3.99992513152
3.99992552539
3.9999259207
3.99992631745
3.99992671563
3.99992711524
3.99992751627
3.9999279187
3.99992832255
3.9999287278
3.99992913444
3.99992954247
3.99992995188
3.99993036266
3.9999307748
3.99993118831
3.99993160318
3.99993201939
3.99993243695
3.99993285583
3.99993327605
3.99993369759
3.99993412044
3.9999345446
3.99993497007
3.99993539683
3.99993582488
3.99993625421
3.99993668482
3.99993711669
3.99993754983
3.99993798422
3.99993841986
3.99993885675
3.99993929487
3.99993973422
3.9999401748
3.99994061659
3.99994105959
3.99994150379
3.99994194919
3.99994239577
3.99994284355
3.99994329249
3.9999437426
3.99994419387
3.99994464631
3.99994509989
3.99994555461
3.99994601047
3.99994646746
3.99994692556
3.99994738478
3.99994784512
3.99994830655
3.99994876907
3.99994923269
3.99994969738
3.99995016315
3.99995062999
3.99995109789
3.99995156684
3.99995203685
3.99995250789
3.99995297997
3.99995345308
3.9999539272
3.99995440234
3.99995487848
3.99995535563
3.99995583376
3.99995631288
3.99995679299
3.99995727407
3.99995775611
3.99995823911
3.99995872306
3.99995920796
3.99995969379
3.99996018056
3.99996066825
3.99996115686
3.99996164639
3.99996213681
3.99996262813
3.99996312034
3.99996361343
3.99996410741
3.99996460224
3.99996509795
3.99996559451
3.99996609192
3.99996659017
3.99996708925
3.99996758917
3.99996808991
3.99996859146
3.99996909383
3.99996959699
3.99997010094
3.99997060569
3.99997111122
3.99997161751
3.99997212458
3.99997263241
3.99997314099
3.99997365032
3.99997416038
3.99997467118
3.99997518271
3.99997569495
3.99997620791
3.99997672157
3.99997723593
3.99997775098
3.99997826672
3.99997878313
3.99997930022
3.99997981798
3.99998033638
3.99998085544
3.99998137514
3.99998189549
3.99998241646
3.99998293805
3.99998346026
3.99998398308
3.9999845065
3.99998503052
3.99998555513
3.99998608032
3.99998660609
3.99998713242
3.99998765932
3.99998818677
3.99998871477
3.99998924331
3.99998977239
3.99999030199
3.99999083212
3.99999136276
3.99999189391
3.99999242556
3.99999295771
3.99999349034
3.99999402346
3.99999455705
3.9999950911
3.99999562562
3.99999616058
3.999996696
3.99999723185
3.99999776814
3.99999830486
3.999998842
3.99999937955
3.99999991751
4.00000045587
4.00000099462
4.00000153375
4.00000207327
4.00000261316
4.00000315342
4.00000369404
4.00000423501
4.00000477633
4.00000531798
4.00000585998
4.0000064023
4.00000694494
4.00000748789
4.00000803115
4.00000857471
4.00000911857
4.00000966271
4.00001020713
4.00001075183
4.00001129679
4.00001184201
4.00001238749
4.00001293322
4.00001347919
4.00001402539
4.00001457182
4.00001511847
4.00001566534
4.00001621241
4.00001675969
4.00001730717
4.00001785483
4.00001840268
4.0000189507
4.00001949889
4.00002004725
4.00002059577
4.00002114443
4.00002169324
4.00002224219
4.00002279127
4.00002334047
4.0000238898
4.00002443923
4.00002498877
4.00002553841
4.00002608815
4.00002663797
4.00002718787
4.00002773784
4.00002828789
4.000028838
4.00002938816
4.00002993836
4.00003048861
4.0000310389
4.00003158922
4.00003213956
4.00003268992
4.00003324029
4.00003379067
4.00003434104
4.00003489141
4.00003544176
4.0000359921
4.00003654241
4.0000370927
4.00003764293
4.00003819313
4.00003874328
4.00003929337
4.0000398434
4.00004039336
4.00004094325
4.00004149306
4.00004204278
4.00004259241
4.00004314194
4.00004369136
4.00004424068
4.00004478988
4.00004533896
4.00004588791
4.00004643673
4.0000469854
4.00004753393
4.00004808231
4.00004863053
4.00004917859
4.00004972647
4.00005027418
4.00005082172
4.00005136906
4.00005191621
4.00005246316
4.00005300991
4.00005355644
4.00005410276
4.00005464886
4.00005519473
4.00005574036
4.00005628576
4.00005683091
4.00005737582
4.00005792047
4.00005846485
4.00005900897
4.00005955281
4.00006009638
4.00006063966
4.00006118265
4.00006172535
4.00006226774
4.00006280983
4.00006335161
4.00006389307
4.00006443421
4.00006497502
4.00006551549
4.00006605562
4.00006659541
4.00006713485
4.00006767394
4.00006821266
4.00006875102
4.000069289
4.0000698266
4.00007036383
4.00007090066
4.0000714371