/*--------------------------------*- C++ -*----------------------------------*\
| =========                 |                                                 |
| \\      /  F ield         | OpenFOAM: The Open Source CFD Toolbox           |
|  \\    /   O peration     | Version:  2312                                  |
|   \\  /    A nd           | Website:  www.openfoam.com                      |
|    \\/     M anipulation  |                                                 |
\*---------------------------------------------------------------------------*/
FoamFile
{
    version     2.0;
    format      ascii;
    arch        "LSB;label=32;scalar=64";
    class       volScalarField;
    location    "0.005";
    object      rho;
}
// * * * * * * * * * * * * * * * * * * * * * * * * * * * * * * * * * * * * * //

dimensions      [1 -3 0 0 0 0 0];

internalField   nonuniform List<scalar> 
8000
(
1000.04839062
1000.04838946
1000.04838914
1000.04838859
1000.04838779
1000.04838667
1000.04838554
1000.04838454
1000.04838362
1000.04838268
1000.04838169
1000.04838068
1000.04837969
1000.04837872
1000.04837774
1000.04837677
1000.04837579
1000.0483748
1000.04837383
1000.04837285
1000.04837188
1000.04837089
1000.0483699
1000.04836892
1000.04836795
1000.04836697
1000.04836599
1000.048365
1000.04836403
1000.04836306
1000.04836208
1000.04836111
1000.04836013
1000.04835917
1000.04835819
1000.04835721
1000.04835624
1000.04835529
1000.04835432
1000.04835335
1000.04835238
1000.04835141
1000.04835044
1000.04834948
1000.04834852
1000.04834755
1000.04834659
1000.04834564
1000.04834469
1000.04834373
1000.04834277
1000.04834182
1000.04834085
1000.0483399
1000.04833895
1000.04833799
1000.04833703
1000.04833609
1000.04833513
1000.04833418
1000.04833324
1000.04833229
1000.04833134
1000.04833039
1000.04832944
1000.04832849
1000.04832754
1000.04832661
1000.04832568
1000.04832475
1000.04832382
1000.0483229
1000.04832196
1000.04832103
1000.0483201
1000.04831918
1000.04831825
1000.04831732
1000.0483164
1000.04831547
1000.04831455
1000.04831364
1000.04831271
1000.04831179
1000.04831089
1000.04831
1000.0483091
1000.04830819
1000.04830728
1000.04830638
1000.04830548
1000.04830458
1000.04830368
1000.04830277
1000.04830188
1000.048301
1000.04830011
1000.04829921
1000.04829833
1000.04829745
1000.04829656
1000.04829567
1000.0482948
1000.04829392
1000.04829304
1000.04829216
1000.04829128
1000.04829041
1000.04828955
1000.04828869
1000.04828783
1000.04828696
1000.0482861
1000.04828525
1000.0482844
1000.04828355
1000.0482827
1000.04828185
1000.04828101
1000.04828016
1000.04827933
1000.04827849
1000.04827765
1000.04827682
1000.04827598
1000.04827516
1000.04827433
1000.0482735
1000.04827268
1000.04827187
1000.04827105
1000.04827024
1000.04826943
1000.04826862
1000.04826781
1000.04826701
1000.04826621
1000.04826541
1000.04826462
1000.04826382
1000.04826304
1000.04826225
1000.04826146
1000.04826069
1000.04825991
1000.04825913
1000.04825837
1000.0482576
1000.04825683
1000.04825607
1000.0482553
1000.04825454
1000.04825379
1000.04825303
1000.04825228
1000.04825154
1000.04825079
1000.04825006
1000.04824932
1000.04824859
1000.04824786
1000.04824713
1000.0482464
1000.04824568
1000.04824496
1000.04824424
1000.04824353
1000.04824282
1000.04824212
1000.04824142
1000.04824073
1000.04824003
1000.04823934
1000.04823865
1000.04823797
1000.04823728
1000.0482366
1000.04823592
1000.04823525
1000.04823458
1000.04823391
1000.04823325
1000.04823259
1000.04823193
1000.04823127
1000.04823062
1000.04822997
1000.04822933
1000.04822869
1000.04822805
1000.04822742
1000.04822679
1000.04822616
1000.04822554
1000.04822492
1000.04822431
1000.0482237
1000.04822309
1000.04822249
1000.04822188
1000.04822128
1000.04822068
1000.04822009
1000.0482195
1000.04821892
1000.04821834
1000.04821776
1000.04821719
1000.04821661
1000.04821605
1000.04821548
1000.04821492
1000.04821437
1000.04821381
1000.04821327
1000.04821272
1000.04821218
1000.04821165
1000.04821111
1000.04821058
1000.04821006
1000.04820953
1000.04820901
1000.0482085
1000.04820799
1000.04820748
1000.04820697
1000.04820647
1000.04820598
1000.04820548
1000.04820499
1000.04820451
1000.04820403
1000.04820355
1000.04820308
1000.04820261
1000.04820214
1000.04820168
1000.04820122
1000.04820077
1000.04820031
1000.04819987
1000.04819943
1000.04819899
1000.04819855
1000.04819812
1000.04819769
1000.04819727
1000.04819685
1000.04819643
1000.04819602
1000.04819561
1000.04819521
1000.04819481
1000.04819441
1000.04819402
1000.04819364
1000.04819325
1000.04819287
1000.0481925
1000.04819212
1000.04819176
1000.04819139
1000.04819103
1000.04819068
1000.04819032
1000.04818998
1000.04818963
1000.04818929
1000.04818896
1000.04818862
1000.0481883
1000.04818797
1000.04818765
1000.04818734
1000.04818703
1000.04818672
1000.04818641
1000.04818612
1000.04818582
1000.04818553
1000.04818524
1000.04818496
1000.04818468
1000.0481844
1000.04818413
1000.04818387
1000.04818361
1000.04818335
1000.04818309
1000.04818284
1000.0481826
1000.04818235
1000.04818212
1000.04818188
1000.04818165
1000.04818143
1000.04818121
1000.04818099
1000.04818078
1000.04818057
1000.04818036
1000.04818016
1000.04817997
1000.04817977
1000.04817959
1000.0481794
1000.04817922
1000.04817904
1000.04817887
1000.0481787
1000.04817854
1000.04817838
1000.04817823
1000.04817808
1000.04817793
1000.04817779
1000.04817765
1000.04817751
1000.04817738
1000.04817725
1000.04817713
1000.04817701
1000.0481769
1000.04817679
1000.04817669
1000.04817658
1000.04817649
1000.04817639
1000.0481763
1000.04817622
1000.04817614
1000.04817606
1000.04817599
1000.04817592
1000.04817585
1000.04817579
1000.04817574
1000.04817569
1000.04817564
1000.04817559
1000.04817555
1000.04817552
1000.04817548
1000.04817546
1000.04817543
1000.04817541
1000.0481754
1000.04817538
1000.04817538
1000.04817537
1000.04817537
1000.04817538
1000.04817539
1000.0481754
1000.04817542
1000.04817544
1000.04817546
1000.04817549
1000.04817552
1000.04817556
1000.0481756
1000.04817564
1000.04817569
1000.04817574
1000.0481758
1000.04817586
1000.04817592
1000.04817599
1000.04817606
1000.04817614
1000.04817622
1000.0481763
1000.04817639
1000.04817648
1000.04817658
1000.04817668
1000.04817678
1000.04817689
1000.048177
1000.04817712
1000.04817723
1000.04817736
1000.04817748
1000.04817761
1000.04817775
1000.04817789
1000.04817803
1000.04817817
1000.04817832
1000.04817848
1000.04817863
1000.04817879
1000.04817896
1000.04817913
1000.0481793
1000.04817947
1000.04817965
1000.04817984
1000.04818002
1000.04818021
1000.04818041
1000.04818061
1000.04818081
1000.04818101
1000.04818122
1000.04818143
1000.04818165
1000.04818187
1000.04818209
1000.04818232
1000.04818255
1000.04818278
1000.04818302
1000.04818326
1000.04818351
1000.04818375
1000.04818401
1000.04818426
1000.04818452
1000.04818478
1000.04818505
1000.04818532
1000.04818559
1000.04818586
1000.04818614
1000.04818643
1000.04818671
1000.048187
1000.0481873
1000.04818759
1000.04818789
1000.04818819
1000.0481885
1000.04818881
1000.04818912
1000.04818944
1000.04818976
1000.04819008
1000.04819041
1000.04819074
1000.04819107
1000.0481914
1000.04819174
1000.04819209
1000.04819243
1000.04819278
1000.04819313
1000.04819348
1000.04819384
1000.0481942
1000.04819457
1000.04819493
1000.0481953
1000.04819568
1000.04819605
1000.04819643
1000.04819681
1000.0481972
1000.04819759
1000.04819798
1000.04819837
1000.04819877
1000.04819917
1000.04819957
1000.04819998
1000.04820039
1000.0482008
1000.04820121
1000.04820163
1000.04820205
1000.04820247
1000.0482029
1000.04820332
1000.04820376
1000.04820419
1000.04820463
1000.04820506
1000.04820551
1000.04820595
1000.0482064
1000.04820685
1000.0482073
1000.04820776
1000.04820821
1000.04820867
1000.04820914
1000.0482096
1000.04821007
1000.04821054
1000.04821101
1000.04821149
1000.04821196
1000.04821244
1000.04821292
1000.04821341
1000.0482139
1000.04821439
1000.04821488
1000.04821537
1000.04821587
1000.04821637
1000.04821687
1000.04821737
1000.04821788
1000.04821839
1000.0482189
1000.04821941
1000.04821992
1000.04822044
1000.04822096
1000.04822148
1000.048222
1000.04822252
1000.04822306
1000.04822359
1000.04822412
1000.04822466
1000.04822519
1000.04822573
1000.04822627
1000.04822681
1000.04822736
1000.04822791
1000.04822846
1000.04822901
1000.04822956
1000.04823012
1000.04823068
1000.04823124
1000.0482318
1000.04823236
1000.04823293
1000.0482335
1000.04823407
1000.04823464
1000.04823521
1000.04823579
1000.04823636
1000.04823693
1000.04823751
1000.04823808
1000.04823867
1000.04823926
1000.04823984
1000.04824043
1000.04824102
1000.04824162
1000.04824221
1000.04824281
1000.0482434
1000.048244
1000.0482446
1000.0482452
1000.0482458
1000.04824641
1000.04824701
1000.04824761
1000.0482482
1000.0482488
1000.04824942
1000.04825003
1000.04825064
1000.04825124
1000.04825184
1000.04825246
1000.04825308
1000.0482537
1000.04825432
1000.04825494
1000.04825556
1000.04825618
1000.04825681
1000.04825743
1000.04825805
1000.04825868
1000.0482593
1000.04825992
1000.04826054
1000.04826117
1000.04826181
1000.04826245
1000.04826308
1000.04826372
1000.04826436
1000.04826499
1000.04826562
1000.04826626
1000.0482669
1000.04826754
1000.04826819
1000.04826883
1000.04826947
1000.04827012
1000.04827076
1000.04827139
1000.04827203
1000.04827267
1000.04827332
1000.04827396
1000.04827461
1000.04827525
1000.0482759
1000.04827655
1000.0482772
1000.04827785
1000.04827849
1000.04827914
1000.04827978
1000.04828043
1000.04828108
1000.04828173
1000.04828238
1000.04828304
1000.04828369
1000.04828434
1000.04828498
1000.04828564
1000.04828629
1000.04828693
1000.04828758
1000.04828823
1000.04828887
1000.04828951
1000.04829016
1000.04829082
1000.04829147
1000.04829213
1000.04829278
1000.04829343
1000.04829408
1000.04829473
1000.04829538
1000.04829603
1000.04829668
1000.04829733
1000.04829798
1000.04829863
1000.04829928
1000.04829992
1000.04830057
1000.04830122
1000.04830186
1000.04830251
1000.04830315
1000.04830379
1000.04830442
1000.04830507
1000.04830571
1000.04830635
1000.048307
1000.04830764
1000.04830827
1000.04830891
1000.04830955
1000.04831018
1000.04831082
1000.04831146
1000.04831209
1000.04831272
1000.04831335
1000.04831399
1000.04831462
1000.04831525
1000.04831589
1000.04831651
1000.04831714
1000.04831777
1000.04831839
1000.04831902
1000.04831965
1000.04832027
1000.04832089
1000.04832152
1000.04832213
1000.04832276
1000.04832338
1000.04832399
1000.04832461
1000.04832523
1000.04832584
1000.04832645
1000.04832707
1000.04832767
1000.04832829
1000.04832889
1000.0483295
1000.04833011
1000.04833072
1000.04833132
1000.04833192
1000.04833252
1000.04833312
1000.04833372
1000.04833431
1000.04833491
1000.0483355
1000.04833609
1000.04833668
1000.04833727
1000.04833786
1000.04833844
1000.04833903
1000.04833961
1000.0483402
1000.04834078
1000.04834136
1000.04834194
1000.04834252
1000.04834309
1000.04834366
1000.04834424
1000.04834481
1000.04834538
1000.04834594
1000.04834651
1000.04834707
1000.04834763
1000.04834819
1000.04834875
1000.04834931
1000.04834986
1000.04835041
1000.04835096
1000.04835151
1000.04835206
1000.0483526
1000.04835314
1000.04835368
1000.04835422
1000.04835476
1000.04835529
1000.04835582
1000.04835635
1000.04835688
1000.04835741
1000.04835793
1000.04835846
1000.04835898
1000.0483595
1000.04836001
1000.04836052
1000.04836104
1000.04836155
1000.04836205
1000.04836256
1000.04836306
1000.04836356
1000.04836406
1000.04836456
1000.04836505
1000.04836554
1000.04836603
1000.04836652
1000.048367
1000.04836749
1000.04836796
1000.04836844
1000.04836892
1000.04836939
1000.04836986
1000.04837033
1000.04837079
1000.04837125
1000.04837171
1000.04837216
1000.04837261
1000.04837305
1000.0483735
1000.04837395
1000.04837439
1000.04837483
1000.04837526
1000.04837569
1000.04837613
1000.04837656
1000.04837698
1000.04837741
1000.04837783
1000.04837825
1000.04837866
1000.04837907
1000.04837948
1000.04837989
1000.04838029
1000.0483807
1000.0483811
1000.0483815
1000.04838189
1000.04838229
1000.04838268
1000.04838306
1000.04838345
1000.04838383
1000.0483842
1000.04838457
1000.04838495
1000.04838531
1000.04838567
1000.04838604
1000.04838639
1000.04838675
1000.04838711
1000.04838746
1000.0483878
1000.04838815
1000.04838849
1000.04838883
1000.04838917
1000.0483895
1000.04838983
1000.04839015
1000.04839048
1000.04839079
1000.04839111
1000.04839142
1000.04839172
1000.04839203
1000.04839234
1000.04839263
1000.04839293
1000.04839323
1000.04839352
1000.0483938
1000.04839408
1000.04839436
1000.04839464
1000.04839491
1000.04839518
1000.04839545
1000.04839571
1000.04839597
1000.04839623
1000.04839649
1000.04839673
1000.04839698
1000.04839722
1000.04839747
1000.0483977
1000.04839793
1000.04839816
1000.04839839
1000.04839861
1000.04839883
1000.04839905
1000.04839926
1000.04839947
1000.04839968
1000.04839988
1000.04840008
1000.04840027
1000.04840047
1000.04840065
1000.04840084
1000.04840102
1000.0484012
1000.04840137
1000.04840154
1000.04840171
1000.04840187
1000.04840203
1000.04840218
1000.04840234
1000.04840248
1000.04840263
1000.04840277
1000.04840291
1000.04840304
1000.04840318
1000.0484033
1000.04840342
1000.04840355
1000.04840366
1000.04840377
1000.04840388
1000.04840399
1000.04840409
1000.04840419
1000.04840428
1000.04840437
1000.04840446
1000.04840454
1000.04840462
1000.04840469
1000.04840477
1000.04840483
1000.0484049
1000.04840496
1000.04840501
1000.04840506
1000.04840512
1000.04840516
1000.0484052
1000.04840524
1000.04840528
1000.0484053
1000.04840533
1000.04840535
1000.04840537
1000.04840538
1000.04840539
1000.0484054
1000.0484054
1000.0484054
1000.0484054
1000.04840539
1000.04840538
1000.04840536
1000.04840534
1000.04840532
1000.04840529
1000.04840526
1000.04840522
1000.04840518
1000.04840514
1000.04840509
1000.04840504
1000.04840499
1000.04840493
1000.04840486
1000.0484048
1000.04840473
1000.04840465
1000.04840457
1000.04840449
1000.0484044
1000.04840431
1000.04840422
1000.04840412
1000.04840402
1000.04840391
1000.0484038
1000.04840369
1000.04840357
1000.04840345
1000.04840332
1000.04840319
1000.04840306
1000.04840292
1000.04840278
1000.04840263
1000.04840248
1000.04840233
1000.04840217
1000.04840201
1000.04840184
1000.04840168
1000.0484015
1000.04840133
1000.04840114
1000.04840096
1000.04840077
1000.04840058
1000.04840038
1000.04840018
1000.04839997
1000.04839976
1000.04839955
1000.04839933
1000.04839911
1000.04839889
1000.04839866
1000.04839842
1000.04839819
1000.04839794
1000.0483977
1000.04839745
1000.0483972
1000.04839694
1000.04839668
1000.04839642
1000.04839615
1000.04839587
1000.0483956
1000.04839532
1000.04839503
1000.04839474
1000.04839445
1000.04839415
1000.04839385
1000.04839355
1000.04839324
1000.04839293
1000.04839261
1000.04839229
1000.04839197
1000.04839164
1000.0483913
1000.04839097
1000.04839063
1000.04839028
1000.04838994
1000.04838958
1000.04838923
1000.04838887
1000.0483885
1000.04838814
1000.04838777
1000.04838739
1000.04838701
1000.04838663
1000.04838624
1000.04838585
1000.04838545
1000.04838505
1000.04838465
1000.04838424
1000.04838383
1000.04838342
1000.048383
1000.04838258
1000.04838215
1000.04838172
1000.04838129
1000.04838085
1000.04838041
1000.04837996
1000.04837951
1000.04837906
1000.0483786
1000.04837814
1000.04837767
1000.04837721
1000.04837673
1000.04837626
1000.04837578
1000.04837529
1000.0483748
1000.04837431
1000.04837382
1000.04837332
1000.04837281
1000.04837231
1000.0483718
1000.04837128
1000.04837076
1000.04837024
1000.04836972
1000.04836919
1000.04836865
1000.04836812
1000.04836758
1000.04836703
1000.04836648
1000.04836593
1000.04836537
1000.04836482
1000.04836425
1000.04836368
1000.04836311
1000.04836254
1000.04836196
1000.04836138
1000.0483608
1000.04836021
1000.04835961
1000.04835902
1000.04835842
1000.04835781
1000.04835721
1000.0483566
1000.04835598
1000.04835536
1000.04835474
1000.04835412
1000.04835349
1000.04835286
1000.04835222
1000.04835158
1000.04835094
1000.04835029
1000.04834964
1000.04834899
1000.04834833
1000.04834767
1000.048347
1000.04834634
1000.04834566
1000.04834499
1000.04834431
1000.04834363
1000.04834294
1000.04834226
1000.04834156
1000.04834087
1000.04834017
1000.04833947
1000.04833876
1000.04833805
1000.04833734
1000.04833662
1000.0483359
1000.04833518
1000.04833445
1000.04833372
1000.04833299
1000.04833225
1000.04833151
1000.04833077
1000.04833002
1000.04832928
1000.04832852
1000.04832777
1000.04832701
1000.04832624
1000.04832548
1000.04832471
1000.04832394
1000.04832316
1000.04832238
1000.0483216
1000.04832081
1000.04832002
1000.04831923
1000.04831844
1000.04831764
1000.04831684
1000.04831603
1000.04831523
1000.04831442
1000.0483136
1000.04831279
1000.04831197
1000.04831114
1000.04831032
1000.04830949
1000.04830865
1000.04830782
1000.04830698
1000.04830614
1000.04830529
1000.04830445
1000.0483036
1000.04830274
1000.04830189
1000.04830103
1000.04830016
1000.0482993
1000.04829843
1000.04829756
1000.04829669
1000.04829581
1000.04829493
1000.04829405
1000.04829316
1000.04829227
1000.04829138
1000.04829049
1000.04828959
1000.04828869
1000.04828779
1000.04828688
1000.04828597
1000.04828506
1000.04828415
1000.04828323
1000.04828232
1000.04828139
1000.04828047
1000.04827954
1000.04827861
1000.04827768
1000.04827674
1000.04827581
1000.04827486
1000.04827392
1000.04827298
1000.04827203
1000.04827108
1000.04827012
1000.04826917
1000.04826821
1000.04826725
1000.04826628
1000.04826532
1000.04826435
1000.04826338
1000.0482624
1000.04826143
1000.04826045
1000.04825947
1000.04825848
1000.0482575
1000.04825651
1000.04825552
1000.04825452
1000.04825353
1000.04825253
1000.04825153
1000.04825053
1000.04824952
1000.04824852
1000.04824751
1000.0482465
1000.04824548
1000.04824447
1000.04824345
1000.04824243
1000.0482414
1000.04824038
1000.04823935
1000.04823832
1000.04823729
1000.04823625
1000.04823522
1000.04823418
1000.04823314
1000.0482321
1000.04823105
1000.04823001
1000.04822896
1000.04822791
1000.04822685
1000.0482258
1000.04822474
1000.04822368
1000.04822262
1000.04822156
1000.04822049
1000.04821943
1000.04821836
1000.04821729
1000.04821622
1000.04821514
1000.04821407
1000.04821299
1000.04821191
1000.04821083
1000.04820974
1000.04820866
1000.04820757
1000.04820648
1000.04820539
1000.0482043
1000.0482032
1000.04820211
1000.04820101
1000.04819991
1000.04819881
1000.04819771
1000.0481966
1000.0481955
1000.04819439
1000.04819328
1000.04819217
1000.04819105
1000.04818994
1000.04818882
1000.04818771
1000.04818659
1000.04818547
1000.04818435
1000.04818322
1000.0481821
1000.04818097
1000.04817984
1000.04817871
1000.04817758
1000.04817645
1000.04817532
1000.04817418
1000.04817305
1000.04817191
1000.04817077
1000.04816963
1000.04816849
1000.04816734
1000.0481662
1000.04816506
1000.04816391
1000.04816276
1000.04816161
1000.04816046
1000.04815931
1000.04815815
1000.048157
1000.04815584
1000.04815469
1000.04815353
1000.04815237
1000.04815121
1000.04815005
1000.04814889
1000.04814773
1000.04814656
1000.0481454
1000.04814423
1000.04814306
1000.0481419
1000.04814073
1000.04813956
1000.04813839
1000.04813721
1000.04813604
1000.04813487
1000.04813369
1000.04813252
1000.04813134
1000.04813016
1000.04812899
1000.04812781
1000.04812663
1000.04812545
1000.04812427
1000.04812308
1000.0481219
1000.04812072
1000.04811953
1000.04811835
1000.04811716
1000.04811598
1000.04811479
1000.0481136
1000.04811241
1000.04811122
1000.04811004
1000.04810885
1000.04810765
1000.04810646
1000.04810527
1000.04810408
1000.04810289
1000.04810169
1000.0481005
1000.0480993
1000.04809811
1000.04809691
1000.04809572
1000.04809452
1000.04809332
1000.04809213
1000.04809093
1000.04808973
1000.04808853
1000.04808734
1000.04808614
1000.04808494
1000.04808374
1000.04808254
1000.04808133
1000.04808014
1000.04807894
1000.04807773
1000.04807653
1000.04807533
1000.04807413
1000.04807293
1000.04807172
1000.04807052
1000.04806932
1000.04806812
1000.04806692
1000.04806572
1000.04806452
1000.04806332
1000.04806211
1000.04806091
1000.04805971
1000.04805851
1000.04805731
1000.04805611
1000.0480549
1000.0480537
1000.0480525
1000.0480513
1000.0480501
1000.0480489
1000.0480477
1000.0480465
1000.0480453
1000.0480441
1000.04804289
1000.0480417
1000.0480405
1000.0480393
1000.0480381
1000.0480369
1000.0480357
1000.0480345
1000.0480333
1000.0480321
1000.04803091
1000.04802971
1000.04802851
1000.04802731
1000.04802611
1000.04802492
1000.04802372
1000.04802253
1000.04802133
1000.04802014
1000.04801894
1000.04801775
1000.04801656
1000.04801536
1000.04801417
1000.04801298
1000.04801178
1000.04801058
1000.04800939
1000.04800821
1000.04800702
1000.04800582
1000.04800462
1000.04800343
1000.04800225
1000.04800105
1000.04799986
1000.04799868
1000.04799749
1000.04799631
1000.04799511
1000.04799393
1000.04799275
1000.04799156
1000.04799037
1000.04798918
1000.04798799
1000.0479868
1000.04798561
1000.04798443
1000.04798324
1000.04798205
1000.04798088
1000.04797971
1000.04797853
1000.04797735
1000.04797619
1000.04797501
1000.04797384
1000.04797267
1000.04797149
1000.04797032
1000.04796917
1000.04796799
1000.04796683
1000.04796567
1000.0479645
1000.04796333
1000.04796218
1000.04796101
1000.04795984
1000.04795867
1000.04795751
1000.04795636
1000.04795519
1000.04795403
1000.04795288
1000.04795173
1000.04795056
1000.0479494
1000.04794826
1000.04794713
1000.04794599
1000.04794483
1000.04794368
1000.04794254
1000.04794142
1000.04794029
1000.04793914
1000.04793799
1000.04793685
1000.04793571
1000.04793457
1000.04793345
1000.04793232
1000.04793118
1000.04793004
1000.04792891
1000.04792778
1000.04792664
1000.04792553
1000.04792443
1000.04792332
1000.04792219
1000.04792106
1000.04791994
1000.04791881
1000.04791769
1000.04791656
1000.04791544
1000.04791433
1000.04791323
1000.04791211
1000.047911
1000.04790991
1000.04790882
1000.04790772
1000.04790661
1000.0479055
1000.04790441
1000.04790334
1000.04790226
1000.04790116
1000.04790006
1000.04789898
1000.04789789
1000.04789681
1000.04789574
1000.04789467
1000.04789358
1000.0478925
1000.04789143
1000.04789034
1000.04788926
1000.04788819
1000.04788713
1000.04788607
1000.047885
1000.04788393
1000.04788287
1000.0478818
1000.04788074
1000.04787969
1000.04787866
1000.04787762
1000.04787656
1000.04787551
1000.04787446
1000.0478734
1000.04787235
1000.04787131
1000.04787025
1000.04786921
1000.04786817
1000.04786713
1000.04786609
1000.04786504
1000.04786401
1000.04786298
1000.04786195
1000.04786091
1000.04785988
1000.04785885
1000.04785784
1000.04785682
1000.04785579
1000.04785477
1000.04785375
1000.04785275
1000.04785173
1000.04785072
1000.04784972
1000.04784871
1000.04784772
1000.04784674
1000.04784576
1000.04784477
1000.04784379
1000.04784281
1000.04784184
1000.04784087
1000.04783989
1000.0478389
1000.04783791
1000.04783694
1000.04783597
1000.04783499
1000.04783402
1000.04783306
1000.04783209
1000.04783112
1000.04783017
1000.04782921
1000.04782825
1000.04782729
1000.04782635
1000.04782541
1000.04782448
1000.04782354
1000.0478226
1000.04782167
1000.04782074
1000.04781982
1000.04781888
1000.04781794
1000.04781701
1000.04781609
1000.04781516
1000.04781424
1000.04781332
1000.0478124
1000.0478115
1000.0478106
1000.04780969
1000.04780878
1000.04780787
1000.04780697
1000.04780607
1000.04780517
1000.04780429
1000.04780341
1000.04780252
1000.04780164
1000.04780076
1000.04779988
1000.04779902
1000.04779814
1000.04779726
1000.04779639
1000.04779554
1000.04779469
1000.04779383
1000.04779298
1000.04779213
1000.04779128
1000.04779043
1000.04778959
1000.04778875
1000.04778791
1000.04778708
1000.04778624
1000.04778541
1000.04778459
1000.04778376
1000.04778293
1000.04778213
1000.04778133
1000.04778053
1000.04777972
1000.04777891
1000.04777811
1000.0477773
1000.0477765
1000.04777569
1000.0477749
1000.04777412
1000.04777332
1000.04777252
1000.04777174
1000.04777096
1000.04777019
1000.04776941
1000.04776863
1000.04776787
1000.04776712
1000.04776636
1000.0477656
1000.04776483
1000.04776409
1000.04776334
1000.0477626
1000.04776184
1000.04776109
1000.04776035
1000.04775961
1000.04775887
1000.04775815
1000.04775743
1000.0477567
1000.04775597
1000.04775525
1000.04775453
1000.04775381
1000.0477531
1000.04775239
1000.04775169
1000.04775099
1000.04775029
1000.0477496
1000.04774891
1000.04774822
1000.04774754
1000.04774685
1000.04774617
1000.04774549
1000.04774481
1000.04774414
1000.04774347
1000.04774281
1000.04774215
1000.04774149
1000.04774084
1000.04774019
1000.04773954
1000.04773889
1000.04773825
1000.0477376
1000.04773696
1000.04773633
1000.0477357
1000.04773507
1000.04773445
1000.04773382
1000.0477332
1000.04773258
1000.04773197
1000.04773136
1000.04773075
1000.04773015
1000.04772955
1000.04772895
1000.04772835
1000.04772776
1000.04772718
1000.04772659
1000.04772601
1000.04772543
1000.04772485
1000.04772428
1000.04772371
1000.04772314
1000.04772257
1000.04772201
1000.04772145
1000.04772089
1000.04772034
1000.04771979
1000.04771925
1000.0477187
1000.04771816
1000.04771762
1000.04771709
1000.04771655
1000.04771603
1000.0477155
1000.04771497
1000.04771445
1000.04771394
1000.04771342
1000.04771291
1000.0477124
1000.0477119
1000.0477114
1000.0477109
1000.04771041
1000.04770992
1000.04770943
1000.04770894
1000.04770846
1000.04770798
1000.0477075
1000.04770703
1000.04770656
1000.04770609
1000.04770563
1000.04770517
1000.04770471
1000.04770425
1000.0477038
1000.04770336
1000.04770291
1000.04770247
1000.04770203
1000.0477016
1000.04770116
1000.04770074
1000.04770031
1000.04769989
1000.04769947
1000.04769905
1000.04769864
1000.04769823
1000.04769782
1000.04769742
1000.04769702
1000.04769662
1000.04769623
1000.04769584
1000.04769545
1000.04769506
1000.04769468
1000.04769431
1000.04769393
1000.04769356
1000.04769319
1000.04769282
1000.04769246
1000.0476921
1000.04769175
1000.04769139
1000.04769104
1000.0476907
1000.04769035
1000.04769001
1000.04768967
1000.04768934
1000.04768901
1000.04768868
1000.04768835
1000.04768803
1000.04768772
1000.0476874
1000.04768708
1000.04768677
1000.04768647
1000.04768616
1000.04768586
1000.04768557
1000.04768527
1000.04768498
1000.04768469
1000.04768441
1000.04768413
1000.04768385
1000.04768358
1000.0476833
1000.04768303
1000.04768277
1000.04768251
1000.04768225
1000.04768199
1000.04768174
1000.04768149
1000.04768124
1000.04768099
1000.04768075
1000.04768052
1000.04768028
1000.04768005
1000.04767982
1000.04767959
1000.04767937
1000.04767915
1000.04767894
1000.04767872
1000.04767851
1000.04767831
1000.0476781
1000.0476779
1000.04767771
1000.04767751
1000.04767732
1000.04767713
1000.04767695
1000.04767677
1000.04767659
1000.04767641
1000.04767624
1000.04767607
1000.0476759
1000.04767574
1000.04767558
1000.04767542
1000.04767527
1000.04767511
1000.04767497
1000.04767482
1000.04767468
1000.04767454
1000.0476744
1000.04767427
1000.04767414
1000.04767402
1000.04767389
1000.04767377
1000.04767365
1000.04767354
1000.04767343
1000.04767332
1000.04767321
1000.04767311
1000.04767301
1000.04767292
1000.04767282
1000.04767273
1000.04767265
1000.04767256
1000.04767248
1000.0476724
1000.04767233
1000.04767226
1000.04767219
1000.04767212
1000.04767206
1000.047672
1000.04767194
1000.04767189
1000.04767183
1000.04767179
1000.04767174
1000.0476717
1000.04767166
1000.04767163
1000.04767159
1000.04767156
1000.04767153
1000.04767151
1000.04767149
1000.04767147
1000.04767146
1000.04767144
1000.04767143
1000.04767143
1000.04767142
1000.04767142
1000.04767143
1000.04767143
1000.04767144
1000.04767145
1000.04767146
1000.04767148
1000.0476715
1000.04767152
1000.04767155
1000.04767158
1000.04767161
1000.04767165
1000.04767168
1000.04767172
1000.04767177
1000.04767181
1000.04767186
1000.04767191
1000.04767197
1000.04767203
1000.04767209
1000.04767215
1000.04767222
1000.04767229
1000.04767236
1000.04767243
1000.04767251
1000.04767259
1000.04767267
1000.04767276
1000.04767285
1000.04767294
1000.04767304
1000.04767313
1000.04767323
1000.04767334
1000.04767344
1000.04767355
1000.04767366
1000.04767378
1000.0476739
1000.04767402
1000.04767414
1000.04767426
1000.04767439
1000.04767452
1000.04767466
1000.04767479
1000.04767493
1000.04767508
1000.04767522
1000.04767537
1000.04767552
1000.04767567
1000.04767583
1000.04767599
1000.04767615
1000.04767631
1000.04767648
1000.04767665
1000.04767682
1000.04767699
1000.04767717
1000.04767735
1000.04767754
1000.04767772
1000.04767791
1000.0476781
1000.0476783
1000.04767849
1000.04767869
1000.04767889
1000.0476791
1000.0476793
1000.04767951
1000.04767972
1000.04767994
1000.04768016
1000.04768038
1000.0476806
1000.04768083
1000.04768105
1000.04768128
1000.04768152
1000.04768175
1000.04768199
1000.04768223
1000.04768248
1000.04768272
1000.04768297
1000.04768322
1000.04768348
1000.04768373
1000.04768399
1000.04768425
1000.04768452
1000.04768478
1000.04768505
1000.04768532
1000.0476856
1000.04768588
1000.04768615
1000.04768644
1000.04768672
1000.04768701
1000.0476873
1000.04768759
1000.04768788
1000.04768818
1000.04768848
1000.04768878
1000.04768908
1000.04768939
1000.0476897
1000.04769001
1000.04769032
1000.04769064
1000.04769096
1000.04769128
1000.0476916
1000.04769193
1000.04769226
1000.04769259
1000.04769292
1000.04769326
1000.04769359
1000.04769393
1000.04769428
1000.04769462
1000.04769497
1000.04769532
1000.04769567
1000.04769603
1000.04769638
1000.04769674
1000.0476971
1000.04769747
1000.04769783
1000.0476982
1000.04769857
1000.04769894
1000.04769932
1000.0476997
1000.04770008
1000.04770046
1000.04770084
1000.04770123
1000.04770162
1000.04770201
1000.0477024
1000.0477028
1000.0477032
1000.0477036
1000.047704
1000.0477044
1000.04770481
1000.04770522
1000.04770563
1000.04770604
1000.04770646
1000.04770688
1000.0477073
1000.04770772
1000.04770814
1000.04770857
1000.047709
1000.04770943
1000.04770986
1000.0477103
1000.04771073
1000.04771117
1000.04771162
1000.04771206
1000.0477125
1000.04771295
1000.0477134
1000.04771385
1000.04771431
1000.04771476
1000.04771522
1000.04771568
1000.04771614
1000.04771661
1000.04771708
1000.04771754
1000.04771801
1000.04771849
1000.04771896
1000.04771944
1000.04771992
1000.0477204
1000.04772088
1000.04772136
1000.04772185
1000.04772234
1000.04772283
1000.04772332
1000.04772382
1000.04772431
1000.04772481
1000.04772531
1000.04772581
1000.04772632
1000.04772682
1000.04772733
1000.04772784
1000.04772835
1000.04772887
1000.04772938