/*--------------------------------*- C++ -*----------------------------------*\
| =========                 |                                                 |
| \\      /  F ield         | OpenFOAM: The Open Source CFD Toolbox           |
|  \\    /   O peration     | Version:  2312                                  |
|   \\  /    A nd           | Website:  www.openfoam.com                      |
|    \\/     M anipulation  |                                                 |
\*---------------------------------------------------------------------------*/
FoamFile
{
    version     2.0;
    format      ascii;
    arch        "LSB;label=32;scalar=64";
    class       volScalarField;
    location    "0.005";
    object      T;
}
// * * * * * * * * * * * * * * * * * * * * * * * * * * * * * * * * * * * * * //

dimensions      [0 0 0 1 0 0 0];

internalField   nonuniform List<scalar> 
8000
(
297.999998521
297.999998203
297.999997994
297.999997584
297.999997182
297.999996775
297.999996354
297.999996008
297.999995674
297.999995248
297.999994766
297.999994215
297.999993639
297.999993129
297.999992659
297.999992261
297.999991914
297.999991576
297.999991256
297.999990908
297.99999052
297.999990058
297.999989535
297.999988977
297.999988406
297.999987842
297.999987294
297.999986754
297.999986236
297.999985738
297.999985251
297.999984765
297.999984294
297.999983837
297.999983378
297.999982893
297.999982371
297.999981848
297.999981306
297.999980744
297.999980208
297.999979692
297.999979191
297.999978695
297.99997821
297.999977735
297.999977265
297.999976818
297.999976409
297.999976021
297.999975633
297.999975255
297.999974852
297.999974425
297.999973997
297.999973555
297.999973101
297.99997265
297.999972176
297.999971688
297.999971219
297.999970757
297.99997028
297.999969809
297.999969334
297.999968868
297.999968408
297.99996793
297.99996748
297.999967031
297.999966576
297.999966142
297.999965703
297.999965242
297.999964777
297.999964311
297.999963839
297.999963364
297.999962888
297.999962422
297.999961959
297.999961503
297.999961055
297.999960609
297.999960166
297.999959747
297.999959331
297.9999589
297.999958475
297.999958062
297.999957673
297.999957279
297.999956888
297.999956487
297.999956055
297.999955633
297.999955188
297.999954732
297.99995431
297.999953896
297.9999535
297.999953107
297.999952704
297.999952295
297.999951852
297.999951413
297.99995095
297.999950523
297.999950134
297.999949757
297.999949388
297.999949016
297.999948627
297.999948243
297.999947844
297.999947457
297.999947075
297.999946689
297.99994631
297.999945916
297.999945514
297.99994512
297.999944728
297.999944348
297.999943966
297.999943576
297.999943198
297.999942819
297.999942447
297.999942092
297.999941734
297.999941366
297.999940995
297.999940607
297.999940208
297.999939813
297.999939418
297.999939026
297.999938654
297.999938294
297.99993795
297.99993762
297.999937278
297.999936911
297.999936535
297.999936128
297.99993571
297.999935304
297.999934905
297.999934515
297.999934126
297.999933732
297.999933354
297.999932981
297.999932655
297.999932349
297.999932042
297.99993172
297.999931389
297.999931037
297.999930682
297.999930332
297.999929988
297.999929657
297.99992933
297.999929004
297.999928683
297.999928362
297.999928044
297.999927726
297.999927408
297.999927084
297.999926749
297.999926411
297.999926071
297.999925731
297.999925399
297.999925058
297.999924719
297.999924385
297.999924045
297.999923708
297.999923376
297.999923051
297.999922735
297.999922414
297.999922087
297.99992176
297.999921425
297.999921092
297.999920772
297.999920462
297.999920167
297.999919889
297.999919622
297.999919356
297.999919092
297.999918825
297.999918556
297.999918285
297.999918006
297.999917732
297.999917452
297.999917161
297.999916868
297.999916566
297.99991626
297.999915951
297.999915635
297.999915326
297.999915019
297.999914724
297.999914442
297.999914172
297.999913912
297.999913655
297.9999134
297.999913142
297.999912892
297.999912648
297.999912422
297.999912208
297.999911993
297.999911769
297.99991153
297.999911275
297.999911009
297.999910739
297.99991047
297.999910204
297.99990994
297.999909678
297.999909415
297.999909151
297.999908885
297.99990862
297.999908355
297.999908098
297.999907844
297.999907592
297.999907348
297.999907113
297.999906893
297.999906684
297.999906478
297.999906274
297.99990607
297.999905868
297.999905665
297.999905464
297.999905266
297.999905068
297.999904873
297.999904689
297.999904515
297.999904354
297.999904195
297.999904033
297.999903862
297.999903679
297.999903492
297.999903314
297.999903143
297.999902985
297.999902833
297.999902683
297.999902534
297.999902383
297.999902235
297.999902089
297.999901943
297.999901798
297.99990165
297.999901498
297.99990134
297.99990118
297.999901018
297.999900865
297.999900731
297.999900611
297.999900499
297.99990039
297.999900282
297.999900174
297.999900067
297.999899957
297.999899844
297.999899725
297.999899599
297.999899468
297.999899334
297.999899203
297.999899075
297.999898958
297.999898853
297.999898756
297.999898663
297.999898573
297.999898487
297.999898403
297.99989832
297.999898238
297.999898157
297.999898082
297.99989801
297.999897943
297.999897877
297.999897811
297.999897744
297.999897676
297.999897609
297.999897544
297.999897479
297.999897413
297.999897342
297.99989727
297.999897201
297.999897136
297.999897076
297.999897026
297.999896985
297.999896948
297.999896912
297.999896873
297.99989683
297.999896783
297.999896733
297.999896684
297.999896644
297.999896608
297.999896578
297.999896553
297.999896532
297.999896511
297.999896489
297.999896466
297.999896442
297.999896421
297.999896401
297.999896382
297.999896363
297.999896345
297.999896327
297.999896315
297.999896304
297.999896298
297.999896293
297.999896287
297.999896286
297.999896284
297.999896291
297.999896308
297.999896335
297.999896365
297.999896398
297.999896428
297.999896455
297.999896477
297.999896497
297.999896518
297.999896543
297.99989657
297.999896604
297.999896639
297.999896678
297.999896714
297.999896749
297.999896783
297.999896821
297.999896863
297.999896907
297.999896951
297.999896996
297.999897043
297.999897092
297.999897146
297.999897203
297.999897264
297.999897329
297.999897395
297.999897464
297.999897534
297.999897603
297.999897669
297.999897733
297.999897798
297.999897863
297.999897929
297.999898
297.999898076
297.999898156
297.999898241
297.999898328
297.999898417
297.999898503
297.99989859
297.999898679
297.999898769
297.999898859
297.999898952
297.999899047
297.99989915
297.999899258
297.999899371
297.999899488
297.999899609
297.999899729
297.999899851
297.999899974
297.999900096
297.999900222
297.99990035
297.999900481
297.999900616
297.999900754
297.999900894
297.999901033
297.999901173
297.999901315
297.999901458
297.999901608
297.999901763
297.999901922
297.99990208
297.999902238
297.999902394
297.999902549
297.999902707
297.999902864
297.999903021
297.999903183
297.99990335
297.999903519
297.99990369
297.999903861
297.999904034
297.999904207
297.999904382
297.999904556
297.99990473
297.999904907
297.999905086
297.999905268
297.999905449
297.999905634
297.999905818
297.999906001
297.999906182
297.999906359
297.999906532
297.999906703
297.999906876
297.999907052
297.999907231
297.999907419
297.999907615
297.999907813
297.999908009
297.999908205
297.999908403
297.9999086
297.9999088
297.999909005
297.999909212
297.999909423
297.999909635
297.999909856
297.999910088
297.999910318
297.999910556
297.999910793
297.99991102
297.999911248
297.999911476
297.999911714
297.99991195
297.99991218
297.999912413
297.999912649
297.999912889
297.999913133
297.999913373
297.999913612
297.999913846
297.999914077
297.99991431
297.999914551
297.999914794
297.999915047
297.999915289
297.999915514
297.999915737
297.999915963
297.999916193
297.999916421
297.999916655
297.999916896
297.999917147
297.999917408
297.999917656
297.999917889
297.999918116
297.999918341
297.999918561
297.999918778
297.999919
297.999919228
297.999919459
297.999919692
297.999919917
297.999920144
297.999920375
297.999920612
297.999920849
297.999921109
297.999921375
297.99992161
297.999921846
297.999922082
297.999922316
297.999922549
297.99992277
297.999922997
297.999923232
297.999923469
297.999923711
297.999923942
297.999924176
297.999924418
297.99992466
297.999924909
297.999925147
297.99992539
297.999925642
297.999925892
297.999926151
297.999926389
297.999926635
297.999926896
297.999927156
297.999927417
297.999927675
297.999927943
297.999928227
297.999928518
297.999928809
297.99992909
297.999929376
297.999929648
297.999929913
297.999930195
297.999930471
297.999930739
297.999931033
297.999931325
297.999931604
297.999931892
297.99993218
297.999932457
297.999932724
297.999932975
297.999933233
297.999933501
297.999933771
297.999934036
297.999934289
297.999934553
297.999934823
297.9999351
297.999935383
297.999935646
297.9999359
297.99993616
297.99993642
297.999936683
297.999936982
297.999937267
297.99993755
297.999937845
297.999938152
297.99993845
297.999938734
297.999938997
297.999939253
297.999939544
297.999939838
297.999940132
297.999940439
297.999940768
297.999941103
297.999941427
297.999941761
297.999942063
297.999942348
297.999942644
297.999942963
297.999943275
297.99994358
297.999943884
297.99994416
297.999944436
297.999944722
297.999945016
297.999945309
297.999945565
297.999945817
297.999946075
297.999946364
297.999946668
297.99994699
297.999947284
297.999947573
297.999947881
297.999948221
297.999948594
297.999948926
297.999949239
297.999949517
297.999949792
297.999950068
297.999950361
297.999950669
297.99995094
297.999951211
297.999951482
297.999951765
297.999952046
297.999952339
297.999952649
297.999952971
297.999953295
297.999953626
297.99995396
297.999954249
297.99995451
297.999954768
297.999955055
297.999955359
297.999955644
297.999955906
297.999956174
297.999956465
297.999956753
297.999957025
297.999957252
297.999957478
297.999957723
297.999957984
297.999958262
297.999958557
297.999958886
297.999959222
297.999959561
297.999959869
297.999960165
297.99996046
297.999960746
297.999961045
297.999961362
297.999961689
297.999962026
297.999962361
297.999962675
297.999962947
297.999963212
297.999963485
297.999963787
297.999964095
297.999964407
297.999964708
297.999964993
297.999965282
297.999965564
297.999965842
297.999966125
297.999966399
297.999966657
297.999966924
297.999967201
297.999967487
297.999967775
297.999968067
297.999968355
297.999968641
297.999968912
297.999969155
297.999969402
297.999969657
297.999969911
297.999970178
297.999970454
297.99997074
297.999971032
297.999971323
297.999971603
297.999971884
297.99997216
297.999972421
297.999972679
297.99997294
297.999973173
297.999973396
297.999973613
297.999973827
297.999974056
297.999974291
297.999974521
297.999974777
297.999975018
297.99997526
297.999975522
297.999975789
297.999976054
297.999976316
297.999976572
297.999976837
297.999977101
297.999977365
297.999977648
297.999977917
297.999978178
297.999978422
297.99997866
297.999978912
297.999979152
297.999979388
297.999979616
297.999979825
297.999980046
297.999980287
297.99998052
297.99998076
297.999981021
297.999981315
297.999981621
297.999981917
297.999982191
297.99998243
297.999982665
297.999982885
297.999983087
297.999983289
297.999983485
297.999983678
297.999983876
297.999984092
297.999984313
297.99998454
297.999984789
297.999985032
297.999985276
297.999985519
297.999985748
297.999985976
297.999986198
297.999986403
297.999986605
297.999986786
297.999986946
297.999987106
297.999987263
297.999987409
297.999987566
297.999987742
297.999987931
297.999988131
297.99998834
297.999988565
297.999988777
297.99998897
297.999989162
297.999989356
297.999989543
297.999989733
297.99998993
297.999990123
297.999990319
297.999990518
297.999990697
297.999990876
297.999991071
297.999991288
297.999991514
297.999991718
297.999991902
297.99999205
297.999992166
297.999992296
297.999992451
297.999992593
297.999992751
297.999992939
297.999993154
297.999993368
297.999993578
297.999993747
297.99999389
297.999994031
297.999994151
297.999994265
297.999994391
297.999994538
297.999994669
297.999994814
297.999994984
297.999995171
297.999995352
297.99999553
297.999995701
297.999995842
297.999995974
297.999996111
297.999996268
297.999996419
297.999996543
297.999996658
297.999996799
297.999996968
297.999997138
297.999997312
297.999997479
297.999997639
297.999997803
297.999997973
297.99999815
297.999998325
297.999998497
297.999998675
297.999998844
297.999998993
297.999999148
297.99999931
297.999999465
297.999999601
297.999999746
297.999999915
298.000000099
298.000000262
298.000000383
298.000000493
298.000000563
298.000000625
298.000000723
298.000000846
298.000000969
298.000001101
298.000001202
298.000001292
298.000001388
298.000001497
298.000001591
298.000001686
298.000001783
298.000001883
298.000001983
298.000002063
298.000002146
298.000002242
298.000002317
298.000002395
298.000002479
298.000002572
298.000002632
298.000002692
298.000002759
298.000002829
298.000002907
298.000002994
298.00000305
298.000003102
298.000003162
298.000003211
298.000003244
298.000003303
298.00000337
298.000003439
298.000003502
298.000003536
298.000003576
298.000003617
298.000003636
298.000003658
298.000003692
298.000003713
298.000003715
298.000003748
298.000003794
298.000003818
298.000003845
298.000003889
298.000003921
298.000003934
298.000003983
298.000004045
298.000004086
298.000004127
298.000004165
298.000004164
298.000004149
298.000004156
298.000004169
298.000004161
298.000004166
298.000004165
298.00000415
298.000004151
298.00000416
298.000004151
298.000004135
298.000004128
298.000004116
298.000004102
298.000004088
298.000004059
298.000004028
298.000004008
298.000003978
298.000003936
298.000003894
298.000003835
298.000003778
298.000003738
298.000003694
298.00000366
298.00000363
298.000003594
298.000003556
298.000003514
298.000003468
298.00000342
298.00000337
298.00000331
298.000003256
298.000003205
298.00000315
298.000003097
298.00000303
298.00000294
298.000002845
298.000002733
298.000002612
298.000002525
298.00000244
298.000002337
298.000002252
298.000002196
298.000002142
298.000002083
298.000002029
298.000001972
298.000001904
298.000001832
298.000001757
298.000001681
298.000001618
298.000001556
298.000001494
298.000001443
298.000001394
298.000001331
298.000001256
298.000001172
298.000001074
298.000000968
298.000000854
298.000000758
298.000000671
298.000000578
298.000000475
298.000000368
298.000000252
298.000000125
297.99999999
297.999999849
297.999999712
297.999999582
297.999999448
297.999999314
297.999999194
297.999999073
297.999998937
297.999998801
297.999998667
297.99999853
297.999998395
297.999998256
297.999998109
297.99999796
297.999997803
297.999997647
297.999997493
297.999997336
297.999997178
297.99999702
297.999996866
297.999996713
297.999996555
297.999996388
297.999996219
297.999996036
297.999995841
297.999995645
297.999995435
297.999995226
297.999995033
297.99999485
297.999994672
297.999994495
297.999994313
297.999994131
297.999993951
297.999993775
297.9999936
297.999993423
297.999993242
297.999993057
297.999992866
297.999992665
297.999992457
297.999992244
297.999992037
297.999991839
297.999991645
297.999991451
297.999991257
297.999991058
297.999990852
297.999990637
297.999990415
297.999990182
297.999989938
297.999989688
297.999989435
297.999989179
297.999988921
297.999988665
297.999988407
297.999988153
297.999987907
297.999987665
297.999987422
297.999987175
297.999986927
297.999986675
297.999986414
297.999986145
297.999985875
297.999985604
297.999985335
297.999985069
297.999984807
297.999984545
297.999984286
297.999984028
297.99998377
297.999983513
297.999983259
297.999983007
297.999982755
297.999982501
297.999982244
297.999981987
297.999981727
297.999981464
297.999981197
297.999980925
297.999980645
297.999980359
297.999980065
297.999979764
297.999979454
297.999979138
297.999978817
297.999978493
297.999978167
297.999977846
297.999977531
297.999977222
297.999976918
297.999976614
297.999976309
297.999976002
297.999975691
297.999975376
297.999975058
297.999974739
297.999974417
297.999974092
297.999973763
297.999973429
297.999973089
297.999972745
297.999972402
297.999972063
297.999971731
297.999971402
297.999971071
297.999970738
297.999970402
297.999970061
297.999969716
297.999969369
297.999969021
297.99996867
297.999968317
297.99996796
297.999967598
297.999967232
297.99996686
297.999966483
297.999966102
297.999965719
297.999965335
297.99996495
297.999964566
297.999964182
297.9999638
297.999963418
297.999963034
297.999962651
297.999962267
297.999961882
297.999961496
297.999961107
297.999960716
297.999960325
297.999959935
297.999959548
297.999959163
297.999958779
297.999958395
297.999958009
297.999957622
297.999957232
297.999956839
297.999956444
297.999956047
297.999955646
297.99995524
297.999954829
297.999954411
297.999953985
297.999953553
297.999953115
297.999952672
297.999952226
297.999951781
297.99995134
297.999950901
297.999950461
297.999950019
297.999949573
297.999949122
297.999948669
297.999948215
297.999947765
297.99994732
297.999946881
297.999946447
297.999946017
297.999945586
297.999945154
297.999944717
297.999944274
297.999943823
297.999943363
297.999942897
297.999942425
297.99994195
297.999941475
297.999941005
297.999940541
297.999940087
297.999939639
297.999939198
297.99993876
297.999938322
297.999937882
297.999937437
297.999936987
297.999936531
297.999936071
297.999935607
297.999935142
297.999934673
297.999934203
297.999933731
297.999933256
297.99993278
297.999932304
297.999931827
297.999931352
297.999930878
297.999930403
297.999929925
297.999929442
297.999928953
297.999928456
297.999927954
297.999927449
297.99992694
297.999926431
297.999925923
297.999925414
297.999924903
297.999924391
297.999923878
297.999923364
297.99992285
297.999922338
297.999921827
297.999921321
297.999920819
297.999920322
297.999919829
297.999919338
297.99991885
297.999918366
297.999917883
297.999917398
297.999916909
297.999916415
297.999915911
297.999915398
297.999914878
297.999914351
297.999913821
297.999913289
297.999912763
297.999912241
297.99991172
297.999911199
297.999910679
297.999910158
297.999909633
297.999909106
297.999908574
297.999908035
297.999907494
297.999906952
297.999906412
297.999905872
297.999905331
297.999904789
297.999904245
297.999903701
297.999903159
297.999902618
297.999902077
297.999901534
297.999900991
297.999900448
297.999899903
297.99989936
297.99989882
297.999898281
297.999897745
297.999897209
297.999896675
297.999896141
297.999895602
297.999895061
297.999894515
297.999893962
297.999893407
297.999892845
297.999892279
297.999891712
297.999891139
297.99989057
297.999889998
297.999889432
297.999888871
297.999888307
297.99988774
297.999887176
297.999886612
297.999886052
297.999885494
297.999884929
297.999884366
297.999883808
297.999883246
297.999882689
297.999882133
297.999881583
297.999881037
297.999880488
297.999879945
297.999879404
297.999878867
297.999878327
297.999877783
297.999877239
297.999876685
297.999876129
297.999875566
297.999875001
297.999874436
297.999873869
297.999873304
297.999872745
297.999872183
297.999871636
297.999871095
297.99987055
297.999869996
297.999869431
297.999868862
297.999868276
297.99986768
297.999867091
297.999866508
297.999865929
297.999865351
297.999864779
297.999864208
297.999863637
297.999863065
297.999862485
297.999861907
297.999861335
297.999860763
297.999860201
297.999859648
297.9998591
297.999858542
297.999857976
297.999857417
297.999856865
297.999856332
297.999855809
297.999855289
297.999854774
297.999854251
297.999853723
297.999853185
297.999852628
297.999852075
297.999851494
297.9998509
297.999850324
297.999849747
297.999849173
297.999848598
297.999848037
297.999847489
297.999846933
297.999846376
297.999845833
297.999845287
297.999844737
297.999844183
297.999843628
297.999843076
297.999842515
297.999841955
297.999841397
297.999840844
297.999840294
297.999839742
297.999839188
297.999838633
297.999838079
297.99983752
297.999836949
297.999836379
297.999835806
297.999835235
297.999834666
297.999834091
297.999833515
297.999832958
297.999832405
297.999831847
297.999831291
297.999830741
297.999830192
297.999829644
297.999829089
297.999828532
297.999827962
297.999827392
297.999826822
297.999826256
297.999825697
297.999825138
297.999824596
297.999824053
297.999823508
297.999822969
297.999822424
297.999821887
297.999821339
297.999820796
297.999820251
297.999819707
297.999819183
297.999818648
297.999818114
297.99981759
297.999817054
297.999816532
297.999815998
297.999815453
297.999814924
297.999814365
297.999813803
297.999813247
297.999812705
297.999812186
297.999811654
297.999811086
297.999810535
297.999809945
297.999809323
297.999808701
297.999808091
297.999807506
297.999806912
297.999806348
297.999805806
297.999805225
297.999804661
297.999804122
297.999803573
297.999803036
297.999802501
297.999801948
297.999801383
297.99980084
297.999800274
297.999799732
297.999799232
297.999798685
297.999798152
297.99979765
297.999797092
297.999796546
297.999796023
297.999795473
297.999794941
297.999794403
297.999793843
297.999793308
297.999792758
297.999792223
297.999791684
297.999791153
297.999790619
297.999790036
297.999789473
297.999788934
297.999788401
297.999787884
297.999787343
297.999786802
297.999786288
297.999785769
297.999785256
297.999784726
297.99978421
297.999783701
297.999783199
297.999782709
297.999782236
297.999781734
297.999781206
297.999780688
297.999780179
297.999779666
297.999779175
297.999778707
297.999778234
297.999777732
297.99977722
297.999776731
297.999776263
297.999775777
297.999775285
297.999774776
297.999774229
297.999773717
297.999773187
297.999772662
297.999772158
297.999771649
297.999771131
297.999770596
297.999770039
297.999769494
297.999768981
297.999768477
297.999767969
297.999767438
297.999766928
297.999766417
297.999765906
297.999765409
297.999764906
297.999764397
297.999763853
297.999763333
297.999762828
297.999762291
297.999761747
297.999761217
297.999760721
297.999760208
297.999759682
297.999759177
297.999758681
297.999758175
297.999757681
297.999757214
297.999756772
297.999756319
297.999755845
297.999755381
297.999754924
297.999754417
297.999753916
297.999753414
297.999752893
297.999752403
297.999751937
297.999751455
297.999750957
297.999750472
297.999750008
297.999749565
297.999749096
297.999748616
297.99974815
297.999747694
297.999747252
297.999746778
297.999746282
297.999745803
297.999745343
297.9997449
297.999744425
297.99974396
297.999743502
297.999743053
297.999742619
297.999742199
297.999741738
297.999741267
297.999740807
297.999740345
297.999739896
297.999739457
297.999739023
297.999738602
297.999738172
297.999737737
297.999737299
297.999736827
297.999736386
297.999735961
297.999735534
297.999735105
297.999734674
297.999734212
297.999733747
297.999733275
297.999732827
297.999732402
297.999731981
297.999731572
297.99973116
297.999730749
297.999730325
297.999729886
297.999729441
297.999728957
297.999728486
297.999728027
297.999727539
297.99972705
297.99972659
297.999726162
297.999725742
297.999725323
297.999724907
297.999724491
297.99972409
297.999723704
297.999723332
297.999722957
297.999722598
297.999722233
297.999721848
297.99972146
297.999721078
297.999720689
297.999720288
297.999719866
297.999719447
297.99971903
297.999718632
297.999718206
297.999717779
297.99971736
297.999716952
297.999716553
297.999716156
297.99971576
297.999715362
297.99971497
297.999714584
297.999714197
297.999713813
297.999713441
297.999713074
297.999712716
297.999712381
297.999712047
297.999711679
297.999711325
297.999710974
297.999710637
297.999710296
297.999709965
297.99970964
297.999709307
297.999708963
297.999708599
297.999708233
297.999707876
297.99970751
297.999707141
297.99970678
297.999706427
297.999706099
297.999705771
297.999705419
297.999705045
297.999704636
297.999704255
297.99970389
297.999703531
297.999703186
297.999702841
297.999702521
297.999702209
297.999701898
297.999701593
297.999701277
297.999700951
297.999700604
297.99970026
297.999699903
297.999699536
297.999699179
297.999698813
297.999698451
297.999698101
297.999697753
297.999697402
297.999697066
297.999696736
297.999696402
297.999696049
297.999695706
297.999695357
297.999695032
297.999694724
297.999694417
297.999694112
297.999693814
297.999693512
297.999693212
297.999692901
297.999692582
297.999692258
297.999691919
297.999691588
297.999691259
297.999690927
297.999690605
297.999690283
297.999689963
297.999689649
297.999689359
297.999689074
297.999688781
297.999688479
297.999688181
297.999687892
297.99968762
297.99968735
297.999687072
297.999686794
297.999686515
297.999686233
297.999685955
297.999685697
297.99968544
297.999685184
297.999684918
297.999684663
297.999684417
297.999684185
297.999683961
297.99968374
297.999683503
297.99968326
297.999683014
297.999682752
297.999682483
297.999682207
297.999681932
297.999681667
297.999681404
297.999681157
297.999680918
297.999680688
297.999680453
297.999680217
297.99967997
297.999679738
297.999679505
297.999679262
297.999679013
297.999678773
297.999678536
297.999678299
297.999678087
297.999677879
297.999677671
297.999677463
297.999677257
297.999677056
297.999676873
297.999676688
297.999676498
297.999676303
297.999676108
297.999675908
297.999675696
297.999675478
297.999675273
297.999675072
297.99967488
297.999674693
297.9996745
297.999674296
297.999674084
297.99967387
297.999673661
297.999673456
297.999673262
297.99967307
297.999672884
297.999672713
297.999672547
297.999672383
297.999672217
297.999672054
297.999671892
297.999671732
297.999671568
297.999671401
297.999671235
297.999671071
297.999670915
297.999670763
297.999670612
297.999670463
297.999670323
297.999670184
297.999670039
297.999669887
297.999669732
297.999669583
297.999669436
297.999669287
297.999669145
297.999669007
297.999668867
297.999668722
297.999668579
297.99966843
297.999668271
297.9996681
297.999667935
297.999667775
297.999667615
297.999667451
297.999667292
297.999667144
297.999667006
297.999666885
297.999666767
297.999666648
297.999666527
297.9996664
297.999666267
297.999666128
297.999665989
297.999665859
297.999665731
297.999665615
297.999665516
297.999665417
297.99966531
297.999665193
297.999665075
297.999664966
297.999664879
297.999664792
297.999664699
297.999664601
297.999664493
297.999664383
297.999664265
297.999664147
297.999664031
297.999663927
297.999663826
297.999663729
297.999663641
297.999663556
297.99966347
297.999663381
297.999663296
297.999663224
297.999663163
297.999663119
297.999663078
297.99966303
297.999662976
297.999662922
297.999662865
297.999662796
297.999662716
297.999662626
297.999662536
297.999662445
297.999662361
297.999662276
297.999662187
297.999662099
297.999662023
297.999661951
297.999661887
297.99966184
297.999661803
297.999661763
297.999661721
297.999661676
297.999661633
297.999661595
297.999661563
297.99966154
297.99966152
297.999661497
297.999661473
297.999661453
297.999661432
297.999661405
297.999661375
297.999661347
297.999661313
297.999661272
297.999661228
297.999661185
297.999661139
297.999661086
297.999661041
297.999661006
297.999660983
297.999660974
297.999660969
297.999660968
297.999660967
297.999660959
297.999660949
297.999660943
297.999660936
297.999660932
297.999660934
297.999660935
297.999660936
297.999660944
297.999660952
297.99966096
297.999660972
297.999660988
297.999661004
297.999661025
297.999661047
297.999661055
297.999661055
297.999661055
297.999661056
297.999661058
297.999661063
297.999661074
297.999661086
297.999661091
297.999661096
297.999661103
297.999661109
297.999661113
297.999661117
297.999661124
297.999661137
297.999661153
297.999661172
297.999661198
297.999661231
297.99966127
297.999661316
297.999661365
297.999661418
297.999661471
297.999661518
297.999661567
297.999661621
297.99966168
297.999661741
297.999661804
297.999661871
297.999661939
297.999662004
297.999662069
297.999662129
297.999662184
297.999662238
297.999662291
297.999662336
297.999662374
297.999662411
297.999662451
297.999662495
297.999662544
297.999662599
297.999662663
297.999662736
297.999662812
297.99966289
297.999662971
297.999663055
297.999663142
297.999663233
297.99966333
297.999663432
297.999663534
297.999663638
297.999663737
297.999663832
297.999663928
297.999664027
297.999664128
297.999664231
297.999664335
297.999664443
297.999664551
297.999664656
297.99966476
297.999664865
297.999664971
297.999665077
297.999665186
297.999665297
297.999665403
297.999665508
297.999665614
297.999665721
297.999665827
297.999665935
297.999666044
297.999666148
297.999666251
297.999666354
297.999666451
297.999666546
297.999666642
297.999666741
297.999666837
297.999666931
297.999667027
297.999667125
297.999667227
297.999667332
297.999667441
297.999667554
297.999667664
297.99966777
297.999667877
297.999667985
297.999668097
297.999668215
297.999668343
297.999668484
297.999668638
297.999668806
297.999668986
297.999669175
297.999669369
297.999669559
297.999669742
297.999669927
297.999670101
297.999670265
297.999670423
297.999670576
297.999670723
297.999670867
297.999671012
297.999671159
297.999671309
297.999671462
297.99967162
297.999671784
297.999671954
297.999672132
297.999672316
297.999672505
297.999672696
297.999672887
297.999673078
297.999673268
297.999673453
297.999673633
297.999673814
297.999673995
297.999674179
297.999674362
297.999674543
297.999674725
297.999674908
297.999675092
297.999675278
297.999675465
297.999675652
297.999675836
297.999676018
297.999676198
297.99967638
297.999676562
297.999676746
297.99967693
297.999677117
297.999677305
297.999677495
297.999677683
297.999677863
297.999678035
297.999678198
297.999678353
297.999678508
297.999678664
297.999678826
297.999678998
297.999679182
297.99967938
297.99967959
297.99967981
297.999680036
297.999680267
297.999680502
297.999680739
297.999680978
297.999681219
297.999681463
297.999681704
297.999681941
297.999682172
297.9996824
297.999682627
297.999682856
297.999683085
297.999683317
297.999683551
297.999683788
297.999684027
297.999684265
297.999684501
297.999684731
297.999684956
297.999685176
297.999685392
297.999685602
297.999685811
297.99968602
297.999686231
297.999686445
297.999686664
297.999686889