/*--------------------------------*- C++ -*----------------------------------*\
| =========                 |                                                 |
| \\      /  F ield         | OpenFOAM: The Open Source CFD Toolbox           |
|  \\    /   O peration     | Version:  2312                                  |
|   \\  /    A nd           | Website:  www.openfoam.com                      |
|    \\/     M anipulation  |                                                 |
\*---------------------------------------------------------------------------*/
FoamFile
{
    version     2.0;
    format      ascii;
    arch        "LSB;label=32;scalar=64";
    class       volScalarField;
    location    "0.005";
    object      thermo:psiGasEff;
}
// * * * * * * * * * * * * * * * * * * * * * * * * * * * * * * * * * * * * * //

dimensions      [-2 4 2 0 0 0 0];

internalField   nonuniform List<scalar> 
8000
(
8.55412433316e-06
8.55453325802e-06
8.55464829335e-06
8.55484381063e-06
8.55512424451e-06
8.55552058349e-06
8.55592173265e-06
8.55627432205e-06
8.55660196608e-06
8.55693261252e-06
8.55728305448e-06
8.55764009494e-06
8.55798907819e-06
8.5583349801e-06
8.55867986845e-06
8.55902317873e-06
8.5593715434e-06
8.55971970822e-06
8.56006542923e-06
8.56041071953e-06
8.56075562306e-06
8.56110488218e-06
8.56145511374e-06
8.56180225357e-06
8.56214677385e-06
8.5624911744e-06
8.56283954641e-06
8.56318875863e-06
8.56353466027e-06
8.56387849141e-06
8.56422320333e-06
8.56456929141e-06
8.56491318229e-06
8.56525643688e-06
8.56560361636e-06
8.565950857e-06
8.56629114065e-06
8.56662965278e-06
8.56697442114e-06
8.56731853752e-06
8.56765948855e-06
8.56800361988e-06
8.56834926355e-06
8.568689933e-06
8.5690283176e-06
8.56937103374e-06
8.56971383236e-06
8.57005029911e-06
8.57038610062e-06
8.57072838915e-06
8.57106892733e-06
8.57140585812e-06
8.57174720265e-06
8.57208694513e-06
8.57242335046e-06
8.57276361216e-06
8.57310208836e-06
8.57343747555e-06
8.57377814655e-06
8.57411580563e-06
8.57444860161e-06
8.57478595622e-06
8.57512268326e-06
8.57545844481e-06
8.57579690073e-06
8.57613381862e-06
8.57646954958e-06
8.57680068853e-06
8.57712980068e-06
8.57746180086e-06
8.57779134894e-06
8.57811946808e-06
8.57844987354e-06
8.57878200864e-06
8.57911186694e-06
8.57943948836e-06
8.57977042456e-06
8.58009959059e-06
8.58042541386e-06
8.58075488919e-06
8.58108254258e-06
8.58140659318e-06
8.58173519517e-06
8.58206273514e-06
8.58238246539e-06
8.58269907145e-06
8.58301806891e-06
8.58334217234e-06
8.58366684988e-06
8.58398667002e-06
8.58430671302e-06
8.58462682094e-06
8.58494603101e-06
8.58526807059e-06
8.58558420446e-06
8.58589724914e-06
8.58621509187e-06
8.58653398514e-06
8.58684914414e-06
8.58716155493e-06
8.58747765925e-06
8.58779228341e-06
8.58810304868e-06
8.5884168655e-06
8.58872937507e-06
8.58904075514e-06
8.58935413072e-06
8.58966335925e-06
8.58997055447e-06
8.59027721665e-06
8.5905833455e-06
8.59089184371e-06
8.59119727348e-06
8.59150096847e-06
8.59180420442e-06
8.59210593458e-06
8.5924095995e-06
8.59271142977e-06
8.5930116651e-06
8.59331127628e-06
8.59360905746e-06
8.59390827063e-06
8.59420617559e-06
8.59450253095e-06
8.59479998107e-06
8.59509442206e-06
8.59538796935e-06
8.59568279479e-06
8.5959743937e-06
8.59626508659e-06
8.59655687608e-06
8.5968461476e-06
8.59713429412e-06
8.59742321806e-06
8.59770970115e-06
8.59799518872e-06
8.59828141396e-06
8.59856467132e-06
8.59884734922e-06
8.59913098531e-06
8.5994111229e-06
8.59969097183e-06
8.5999719386e-06
8.60024927123e-06
8.60052590414e-06
8.60080234952e-06
8.60107646512e-06
8.60135106814e-06
8.60162447192e-06
8.60189659282e-06
8.60216946332e-06
8.60243910019e-06
8.602708058e-06
8.60297825293e-06
8.60324466514e-06
8.60351031345e-06
8.60377607519e-06
8.60403923894e-06
8.60430205251e-06
8.60456337449e-06
8.60482317275e-06
8.60508387759e-06
8.60534309667e-06
8.60560070592e-06
8.60585774473e-06
8.60611300846e-06
8.60636732974e-06
8.60662034751e-06
8.60687086834e-06
8.60711965804e-06
8.60736760651e-06
8.60761554896e-06
8.6078620792e-06
8.60810742574e-06
8.60835299593e-06
8.60859687603e-06
8.60884034149e-06
8.6090834016e-06
8.60932382144e-06
8.60956336421e-06
8.60980106341e-06
8.61003672514e-06
8.61027291278e-06
8.61050779519e-06
8.6107419477e-06
8.61097594628e-06
8.61120719378e-06
8.61143750167e-06
8.61166639219e-06
8.61189300029e-06
8.61211902373e-06
8.61234374914e-06
8.61256679511e-06
8.61278867051e-06
8.61300998808e-06
8.61323003708e-06
8.61344846426e-06
8.61366549268e-06
8.61388117488e-06
8.6140967958e-06
8.61431121182e-06
8.61452478608e-06
8.61473738275e-06
8.61494728786e-06
8.61515619208e-06
8.61536376044e-06
8.61556948424e-06
8.61577499439e-06
8.61597888053e-06
8.61618166446e-06
8.61638354122e-06
8.61658317523e-06
8.61678209099e-06
8.61697979399e-06
8.61717553693e-06
8.61736998478e-06
8.61756334208e-06
8.61775535456e-06
8.61794594743e-06
8.61813549864e-06
8.61832350403e-06
8.61851057888e-06
8.6186967337e-06
8.61888091431e-06
8.61906376824e-06
8.61924545867e-06
8.61942548978e-06
8.61960444036e-06
8.61978232832e-06
8.61995849065e-06
8.62013333983e-06
8.6203068785e-06
8.62047896327e-06
8.620649882e-06
8.62081928403e-06
8.62098740834e-06
8.62115421954e-06
8.62131946833e-06
8.62148355318e-06
8.62164616539e-06
8.62180746028e-06
8.62196737883e-06
8.6221256267e-06
8.6222828494e-06
8.62243878002e-06
8.62259298121e-06
8.62274564586e-06
8.62289722533e-06
8.6230475464e-06
8.62319620615e-06
8.62334343813e-06
8.62348936011e-06
8.62363385979e-06
8.62377692902e-06
8.62391871482e-06
8.62405902591e-06
8.62419779463e-06
8.62433512904e-06
8.6244712113e-06
8.62460585041e-06
8.62473885792e-06
8.62487069167e-06
8.62500117602e-06
8.62513002294e-06
8.62525734768e-06
8.62538332946e-06
8.62550791435e-06
8.62563099336e-06
8.62575269636e-06
8.62587295057e-06
8.62599171384e-06
8.62610896765e-06
8.62622490925e-06
8.62633950731e-06
8.62645242259e-06
8.62656372722e-06
8.62667390241e-06
8.62678280625e-06
8.62689002358e-06
8.62699565144e-06
8.62709979264e-06
8.62720262101e-06
8.62730398942e-06
8.62740375741e-06
8.62750217935e-06
8.62759917294e-06
8.62769462844e-06
8.62778862355e-06
8.62788118087e-06
8.62797222347e-06
8.62806166283e-06
8.62814987829e-06
8.62823672479e-06
8.62832187304e-06
8.62840551363e-06
8.62848767803e-06
8.62856847992e-06
8.62864784663e-06
8.62872561981e-06
8.62880185817e-06
8.62887671232e-06
8.6289501252e-06
8.62902198358e-06
8.62909233844e-06
8.62916116152e-06
8.62922867056e-06
8.62929474139e-06
8.62935921673e-06
8.62942228782e-06
8.62948386611e-06
8.62954387692e-06
8.62960232472e-06
8.62965949918e-06
8.62971525873e-06
8.62976938376e-06
8.62982199742e-06
8.62987303791e-06
8.62992282303e-06
8.62997117406e-06
8.63001787921e-06
8.6300631646e-06
8.63010691996e-06
8.63014926899e-06
8.63019013498e-06
8.63022942192e-06
8.63026735637e-06
8.6303037801e-06
8.63033872512e-06
8.63037219949e-06
8.63040421057e-06
8.63043478722e-06
8.63046375962e-06
8.63049135193e-06
8.63051751186e-06
8.63054217876e-06
8.63056538736e-06
8.63058700168e-06
8.63060723567e-06
8.63062605671e-06
8.63064339064e-06
8.63065927327e-06
8.6306736032e-06
8.63068655545e-06
8.6306980925e-06
8.63070807418e-06
8.63071666355e-06
8.63072380102e-06
8.63072940244e-06
8.63073361301e-06
8.63073641734e-06
8.63073771521e-06
8.63073756443e-06
8.63073601736e-06
8.63073303988e-06
8.63072856118e-06
8.63072256817e-06
8.63071528439e-06
8.63070659123e-06
8.63069632917e-06
8.63068466461e-06
8.63067160448e-06
8.63065713135e-06
8.63064121923e-06
8.63062387234e-06
8.63060508747e-06
8.63058489492e-06
8.63056329116e-06
8.63054026677e-06
8.63051585675e-06
8.6304900036e-06
8.63046274963e-06
8.63043408046e-06
8.63040399703e-06
8.63037252308e-06
8.6303396466e-06
8.63030542307e-06
8.63026977856e-06
8.63023272444e-06
8.63019430224e-06
8.63015447693e-06
8.63011329012e-06
8.63007070386e-06
8.63002673504e-06
8.62998141211e-06
8.62993472988e-06
8.62988665172e-06
8.62983718039e-06
8.62978638637e-06
8.62973422067e-06
8.62968070561e-06
8.62962580549e-06
8.62956958777e-06
8.62951207931e-06
8.62945313015e-06
8.6293928586e-06
8.62933132622e-06
8.6292683928e-06
8.62920410625e-06
8.62913852098e-06
8.62907163542e-06
8.6290034534e-06
8.62893387467e-06
8.62886299099e-06
8.6287908489e-06
8.62871742186e-06
8.62864268311e-06
8.6285665821e-06
8.62848912367e-06
8.62841044831e-06
8.62833058564e-06
8.62824937555e-06
8.62816684572e-06
8.62808296953e-06
8.6279978881e-06
8.62791162988e-06
8.62782404935e-06
8.62773519541e-06
8.62764498869e-06
8.62755360166e-06
8.62746107477e-06
8.62736725506e-06
8.6272721549e-06
8.62717566411e-06
8.62707807316e-06
8.62697941206e-06
8.62687941213e-06
8.62677815539e-06
8.626675568e-06
8.62657189624e-06
8.62646716464e-06
8.62636105398e-06
8.62625375001e-06
8.62614523879e-06
8.62603558177e-06
8.62592483687e-06
8.62581284461e-06
8.62569967997e-06
8.62558524081e-06
8.62546974393e-06
8.62535321798e-06
8.62523537247e-06
8.62511627877e-06
8.62499620575e-06
8.62487499971e-06
8.62475234423e-06
8.62462880965e-06
8.62450436305e-06
8.62437845175e-06
8.62425150793e-06
8.62412358448e-06
8.62399446111e-06
8.62386421666e-06
8.62373298267e-06
8.62360070594e-06
8.62346710937e-06
8.62333247705e-06
8.62319679342e-06
8.62306007475e-06
8.62292241306e-06
8.62278367198e-06
8.62264385528e-06
8.62250273419e-06
8.62236064696e-06
8.6222176008e-06
8.62207362373e-06
8.62192864246e-06
8.62178209588e-06
8.62163490845e-06
8.62148713565e-06
8.62133793592e-06
8.6211876339e-06
8.62103615769e-06
8.62088403692e-06
8.62073119409e-06
8.62057662448e-06
8.62042135915e-06
8.62026556296e-06
8.62010854525e-06
8.61995059901e-06
8.61979129571e-06
8.61963135169e-06
8.61947085055e-06
8.61930876942e-06
8.619146066e-06
8.61898278452e-06
8.61881795459e-06
8.61865246757e-06
8.61848655169e-06
8.61831926963e-06
8.61815104514e-06
8.61798183152e-06
8.6178117914e-06
8.61764138122e-06
8.6174701301e-06
8.61729791385e-06
8.61712465902e-06
8.6169505331e-06
8.61677518152e-06
8.61659930072e-06
8.61642308779e-06
8.61624531116e-06
8.61606674938e-06
8.61588772577e-06
8.61570795585e-06
8.61552760362e-06
8.61534590084e-06
8.61516336554e-06
8.61498021361e-06
8.61479648991e-06
8.61461234841e-06
8.61442727648e-06
8.61424104279e-06
8.61405448287e-06
8.61386677743e-06
8.61367674423e-06
8.6134876332e-06
8.61329811257e-06
8.61310564053e-06
8.6129131039e-06
8.61272104273e-06
8.61252873314e-06
8.61233541408e-06
8.61213969099e-06
8.6119430754e-06
8.61174600987e-06
8.61154944684e-06
8.61135266012e-06
8.61115354433e-06
8.61095358974e-06
8.61075315254e-06
8.61055323297e-06
8.6103532674e-06
8.61015083951e-06
8.60994773829e-06
8.60974414415e-06
8.60954054112e-06
8.60933696843e-06
8.60913115447e-06
8.60892571569e-06
8.6087214418e-06
8.60851672698e-06
8.60831075898e-06
8.60810239979e-06
8.6078929042e-06
8.60768291399e-06
8.60747254271e-06
8.60726140251e-06
8.60705066799e-06
8.60683969118e-06
8.60662578289e-06
8.60641276334e-06
8.6062006174e-06
8.60598523139e-06
8.60577045578e-06
8.60555676374e-06
8.6053402422e-06
8.60512411694e-06
8.60491115534e-06
8.6046996237e-06
8.60448524833e-06
8.60426682408e-06
8.6040476817e-06
8.6038317418e-06
8.60361825723e-06
8.60340190565e-06
8.60318100078e-06
8.60296083219e-06
8.60274144554e-06
8.602519316e-06
8.60229775182e-06
8.60207726589e-06
8.60185469477e-06
8.60163139477e-06
8.60141081669e-06
8.60119003073e-06
8.60096552361e-06
8.60074190556e-06
8.60052157932e-06
8.60030075802e-06
8.60007631053e-06
8.59984863048e-06
8.59962207456e-06
8.5993968625e-06
8.59916872194e-06
8.59894066426e-06
8.59871504627e-06
8.59848954484e-06
8.59826287043e-06
8.59803456738e-06
8.59780598285e-06
8.5975758312e-06
8.59734649628e-06
8.59711856732e-06
8.59688841028e-06
8.59665901642e-06
8.59643392392e-06
8.59620876146e-06
8.59597873888e-06
8.59574849215e-06
8.59552008355e-06
8.59528963889e-06
8.5950593769e-06
8.59482996526e-06
8.59459829822e-06
8.59436669779e-06
8.5941361796e-06
8.59390600784e-06
8.59367664263e-06
8.59344612136e-06
8.59321486021e-06
8.59298419233e-06
8.59275298553e-06
8.59252054658e-06
8.59228775657e-06
8.59205552876e-06
8.59182523123e-06
8.59159567016e-06
8.59136333965e-06
8.59113213542e-06
8.59090256442e-06
8.59067035356e-06
8.59044060696e-06
8.59021315472e-06
8.58998343946e-06
8.58975237979e-06
8.58951964807e-06
8.58928589385e-06
8.58905405851e-06
8.58882278015e-06
8.58859097774e-06
8.58836022709e-06
8.58812834356e-06
8.58789578393e-06
8.58766559757e-06
8.58743615568e-06
8.58720498389e-06
8.58697290365e-06
8.58674028483e-06
8.58650984823e-06
8.58628155857e-06
8.58605122758e-06
8.58582119677e-06
8.58559129534e-06
8.58536044637e-06
8.58513273079e-06
8.58490749743e-06
8.5846809628e-06
8.58445139735e-06
8.58422284516e-06
8.58399600334e-06
8.58376657943e-06
8.58353833359e-06
8.58331323618e-06
8.58308625029e-06
8.5828594537e-06
8.58263407325e-06
8.58240689387e-06
8.58218078487e-06
8.58195776174e-06
8.58173505167e-06
8.58150949875e-06
8.58128364661e-06
8.58105942697e-06
8.58083346391e-06
8.58060881208e-06
8.58038631092e-06
8.58016183926e-06
8.57993852892e-06
8.57971756684e-06
8.57949434508e-06
8.57927188141e-06
8.57905186225e-06
8.57882967122e-06
8.57860824755e-06
8.57838932577e-06
8.57816825477e-06
8.57794796594e-06
8.57773021117e-06
8.5775105581e-06
8.57729177733e-06
8.57707479052e-06
8.57685606309e-06
8.57663887236e-06
8.57642304276e-06
8.57620559864e-06
8.5759897833e-06
8.57577570961e-06
8.57555950007e-06
8.5753437375e-06
8.57513085909e-06
8.57491667881e-06
8.57470271211e-06
8.57449140027e-06
8.57427865443e-06
8.5740666962e-06
8.57385679441e-06
8.5736451726e-06
8.57343498225e-06
8.57322633319e-06
8.57301673549e-06
8.57280895507e-06
8.57260153758e-06
8.5723941393e-06
8.57218685575e-06
8.57197836214e-06
8.57177242988e-06
8.57156734154e-06
8.5713608655e-06
8.57115669747e-06
8.57095336864e-06
8.57075001381e-06
8.57054696891e-06
8.57034355696e-06
8.5701429946e-06
8.56994266437e-06
8.56974108199e-06
8.56954219033e-06
8.5693437578e-06
8.56914518391e-06
8.56894724201e-06
8.56874906625e-06
8.56855353325e-06
8.5683584703e-06
8.56816216531e-06
8.56796848538e-06
8.56777571571e-06
8.56758172575e-06
8.56738994364e-06
8.56720055667e-06
8.56701000322e-06
8.56681840349e-06
8.56662907941e-06
8.56644137329e-06
8.56625225564e-06
8.5660648577e-06
8.56587916278e-06
8.56569238671e-06
8.56550721917e-06
8.56532365801e-06
8.56513940778e-06
8.5649566973e-06
8.56477538795e-06
8.56459329526e-06
8.56441286974e-06
8.56423395568e-06
8.56405415357e-06
8.5638760855e-06
8.56369959763e-06
8.56352221785e-06
8.56334654568e-06
8.56317248301e-06
8.56299757281e-06
8.5628243744e-06
8.56265275455e-06
8.56248034745e-06
8.5623097207e-06
8.5621406014e-06
8.56197074624e-06
8.5618027647e-06
8.56163628998e-06
8.56146907136e-06
8.56130407759e-06
8.56114114984e-06
8.56097679318e-06
8.56081417281e-06
8.56065424663e-06
8.56049587296e-06
8.56033846333e-06
8.56017939664e-06
8.56002198827e-06
8.55986746541e-06
8.55971114846e-06
8.559556548e-06
8.55940480268e-06
8.55925094094e-06
8.5590981657e-06
8.55894836148e-06
8.55879723626e-06
8.55864662295e-06
8.55849918425e-06
8.5583539732e-06
8.55820939419e-06
8.55806348726e-06
8.55791878108e-06
8.55777657179e-06
8.55763266646e-06
8.55749020524e-06
8.55735108008e-06
8.55721116484e-06
8.55707114329e-06
8.55693393494e-06
8.55679807691e-06
8.55666093184e-06
8.55652626126e-06
8.55639514709e-06
8.55626247546e-06
8.55613116718e-06
8.55600313313e-06
8.55587329747e-06
8.55574435443e-06
8.55561862662e-06
8.55549221236e-06
8.5553658512e-06
8.55524256846e-06
8.55512101866e-06
8.55499760892e-06
8.55487617175e-06
8.55475809247e-06
8.55463896496e-06
8.55452039122e-06
8.55440503383e-06
8.55429036777e-06
8.55417591186e-06
8.5540640088e-06
8.55395215068e-06
8.55384168044e-06
8.55373418461e-06
8.55362504342e-06
8.5535171265e-06
8.55341300075e-06
8.55330766014e-06
8.5532028994e-06
8.55310096735e-06
8.55300022049e-06
8.55290095945e-06
8.55280162295e-06
8.55270341961e-06
8.55260829488e-06
8.55251210252e-06
8.55241672138e-06
8.55232498648e-06
8.5522331044e-06
8.55214080489e-06
8.55205099951e-06
8.55196362987e-06
8.55187671703e-06
8.5517901741e-06
8.55170498973e-06
8.55162229108e-06
8.55154093952e-06
8.55145838233e-06
8.55137778316e-06
8.55130076174e-06
8.55122224271e-06
8.5511448729e-06
8.55107142909e-06
8.55099680621e-06
8.55092298154e-06
8.55085289348e-06
8.55078250019e-06
8.55071232311e-06
8.55064498462e-06
8.55057880939e-06
8.55051331526e-06
8.55044930665e-06
8.55038659321e-06
8.55032587596e-06
8.55026607196e-06
8.55020618501e-06
8.55014833256e-06
8.55009303719e-06
8.55003745229e-06
8.54998278814e-06
8.54993119022e-06
8.54987989266e-06
8.54982903644e-06
8.54978093759e-06
8.54973348113e-06
8.54968648975e-06
8.54964222021e-06
8.54959949033e-06
8.54955618307e-06
8.54951454185e-06
8.5494758232e-06
8.54943722333e-06
8.54939970181e-06
8.54936384647e-06
8.5493292749e-06
8.5492969394e-06
8.54926502006e-06
8.54923375288e-06
8.54920518959e-06
8.54917821672e-06
8.54915063679e-06
8.54912465976e-06
8.54910196219e-06
8.54907912354e-06
8.54905687606e-06
8.54903768915e-06
8.54902010934e-06
8.54900183249e-06
8.54898515926e-06
8.54897195806e-06
8.54895827494e-06
8.54894532414e-06
8.54893575033e-06
8.54892723562e-06
8.5489184232e-06
8.54891149405e-06
8.54890760865e-06
8.54890337513e-06
8.5489000454e-06
8.54889990132e-06
8.54890007433e-06
8.54890101746e-06
8.54890471398e-06
8.54890954952e-06
8.54891457937e-06
8.54892142435e-06
8.54893038741e-06
8.54894008721e-06
8.54895112375e-06
8.54896383294e-06
8.54897767025e-06
8.54899320491e-06
8.54901032636e-06
8.54902809209e-06
8.5490474583e-06
8.54906876194e-06
8.54909073548e-06
8.54911424134e-06
8.54913964638e-06
8.54916574292e-06
8.54919326751e-06
8.5492226438e-06
8.54925314411e-06
8.54928499751e-06
8.54931837135e-06
8.54935319075e-06
8.54938937054e-06
8.54942677917e-06
8.54946564096e-06
8.54950604336e-06
8.54954767183e-06
8.54959086386e-06
8.54963563416e-06
8.54968130709e-06
8.54972865158e-06
8.54977773144e-06
8.54982741587e-06
8.54987883865e-06
8.54993222184e-06
8.54998616486e-06
8.55004144051e-06
8.55009887733e-06
8.55015768921e-06
8.55021725097e-06
8.55027836234e-06
8.55034120648e-06
8.55040524861e-06
8.55047073859e-06
8.55053766118e-06
8.55060590999e-06
8.55067572913e-06
8.55074690583e-06
8.55081931054e-06
8.55089333244e-06
8.55096874327e-06
8.55104536819e-06
8.55112346101e-06
8.55120305641e-06
8.55128404376e-06
8.55136637565e-06
8.55145013941e-06
8.55153540638e-06
8.55162206947e-06
8.55171006166e-06
8.55179932464e-06
8.55189013093e-06
8.55198247216e-06
8.55207606834e-06
8.55217099057e-06
8.55226736599e-06
8.55236527941e-06
8.55246460538e-06
8.55256523705e-06
8.55266722632e-06
8.55277096647e-06
8.55287591875e-06
8.55298188256e-06
8.55308965113e-06
8.55319879259e-06
8.55330906971e-06
8.55342096899e-06
8.55353427075e-06
8.553648901e-06
8.55376495599e-06
8.55388242574e-06
8.55400136648e-06
8.55412162207e-06
8.55424323977e-06
8.55436634167e-06
8.5544907959e-06
8.55461661558e-06
8.5547439308e-06
8.55487261129e-06
8.55500258025e-06
8.55513396491e-06
8.55526682591e-06
8.55540114358e-06
8.55553668949e-06
8.55567359615e-06
8.5558120525e-06
8.55595178004e-06
8.55609287558e-06
8.55623551198e-06
8.55637939571e-06
8.55652459578e-06
8.55667137688e-06
8.55681943258e-06
8.55696875142e-06
8.55711958773e-06
8.55727179065e-06
8.55742533641e-06
8.55758034142e-06
8.55773667276e-06
8.55789431388e-06
8.55805341611e-06
8.55821382655e-06
8.55837553363e-06
8.55853869629e-06
8.55870322462e-06
8.55886910447e-06
8.55903637493e-06
8.55920496515e-06
8.55937491963e-06
8.55954633621e-06
8.55971904743e-06
8.55989302129e-06
8.56006837479e-06
8.56024514766e-06
8.56042323947e-06
8.56060263385e-06
8.5607834193e-06
8.56096554193e-06
8.56114899743e-06
8.56133381275e-06
8.56152000676e-06
8.56170755277e-06
8.56189634646e-06
8.56208644229e-06
8.56227804419e-06
8.5624708524e-06
8.56266488785e-06
8.56286041977e-06
8.56305718595e-06
8.56325525155e-06
8.56345476232e-06
8.56365550716e-06
8.56385754291e-06
8.56406098543e-06
8.56426566919e-06
8.56447165517e-06
8.56467902659e-06
8.56488762394e-06
8.5650975153e-06
8.56530877448e-06
8.56552132903e-06
8.56573513822e-06
8.56595022622e-06
8.56616669562e-06
8.56638442058e-06
8.56660339252e-06
8.56682370485e-06
8.56704524053e-06
8.56726803839e-06
8.56749215885e-06
8.5677175573e-06
8.56794423343e-06
8.56817218955e-06
8.56840143478e-06
8.56863192909e-06
8.56886364906e-06
8.56909663522e-06
8.5693308943e-06
8.56956641576e-06
8.569803194e-06
8.57004122173e-06
8.57028049117e-06
8.57052100125e-06
8.57076275538e-06
8.57100575649e-06
8.57125000108e-06
8.57149548658e-06
8.57174220515e-06
8.57199014522e-06
8.57223929689e-06
8.57248967207e-06
8.57274127622e-06
8.57299411199e-06
8.57324817852e-06
8.5735034482e-06
8.57375991498e-06
8.57401758713e-06
8.5742764675e-06
8.57453654659e-06
8.5747978248e-06
8.57506030435e-06
8.57532397966e-06
8.57558884903e-06
8.57585490457e-06
8.57612213288e-06
8.57639052518e-06
8.57666009806e-06
8.57693085354e-06
8.57720279181e-06
8.5774759053e-06
8.5777501561e-06
8.57802556158e-06
8.57830213687e-06
8.57857987024e-06
8.57885875771e-06
8.57913880383e-06
8.5794200101e-06
8.57970235954e-06
8.57998582906e-06
8.58027039812e-06
8.58055609814e-06
8.58084296092e-06
8.58113095851e-06
8.58142005796e-06
8.58171027528e-06
8.58200161389e-06
8.58229406541e-06
8.58258763556e-06
8.58288232678e-06
8.5831781123e-06
8.58347496603e-06
8.5837729034e-06
8.5840719361e-06
8.58437207659e-06
8.58467332227e-06
8.58497564897e-06
8.58527903937e-06
8.58558348547e-06
8.58588899842e-06
8.58619559817e-06
8.58650325396e-06
8.58681195109e-06
8.58712171366e-06
8.5874325384e-06
8.5877444154e-06
8.58805733835e-06
8.58837130411e-06
8.58868628529e-06
8.58900229346e-06
8.58931935704e-06
8.58963744464e-06
8.58995654407e-06
8.590276654e-06
8.59059777722e-06
8.59091991261e-06
8.59124305375e-06
8.59156721007e-06
8.59189237355e-06
8.59221851134e-06
8.59254562692e-06
8.59287375637e-06
8.5932028828e-06
8.59353299778e-06
8.59386404305e-06
8.59419603858e-06
8.59452903729e-06
8.5948629936e-06
8.59519792502e-06
8.59553379846e-06
8.59587061369e-06
8.59620841355e-06
8.59654712883e-06
8.59688677235e-06
8.59722739812e-06
8.59756890086e-06
8.59791130634e-06
8.59825470206e-06
8.59859898715e-06
8.59894417283e-06
8.59929028677e-06
8.59963730466e-06
8.59998523899e-06
8.60033404556e-06
8.60068376467e-06
8.60103445225e-06
8.60138590498e-06
8.60173819917e-06
8.60209154329e-06
8.60244565288e-06
8.60280054345e-06
8.60315639378e-06
8.603513135e-06
8.60387078921e-06
8.60422916365e-06
8.60458834095e-06
8.60494853355e-06
8.6053094695e-06
8.60567117055e-06
8.60603375652e-06
8.60639718825e-06
8.6067615061e-06
8.60712657116e-06
8.6074924085e-06
8.60785913094e-06
8.60822658025e-06
8.60859480594e-06
8.60896392973e-06
8.60933381165e-06
8.60970442823e-06
8.61007582745e-06
8.61044802937e-06
8.61082108443e-06
8.61119480633e-06
8.61156925155e-06
8.6119445635e-06
8.61232055672e-06
8.61269732959e-06
8.61307501989e-06
8.61345323381e-06
8.61383206285e-06
8.61421182675e-06
8.61459230982e-06
8.6149735552e-06
8.6153553912e-06
8.61573785986e-06
8.61612122584e-06
8.61650527381e-06
8.61688991546e-06
8.61727526915e-06
8.61766137088e-06
8.61804814629e-06
8.61843561449e-06
8.61882370743e-06
8.61921247454e-06
8.61960204815e-06
8.61999213947e-06
8.62038282315e-06
8.62077435173e-06
8.62116638514e-06
8.62155900415e-06
8.62195245806e-06
8.62234648358e-06
8.62274099491e-06
8.62313617796e-06
8.62353208993e-06
8.62392854827e-06
8.6243255726e-06
8.62472327082e-06
8.6251215966e-06
8.62552047895e-06
8.62591985243e-06
8.62631985031e-06
8.6267205389e-06
8.62712175021e-06
8.62752354288e-06
8.6279258388e-06
8.62832868579e-06
8.62873232442e-06
8.62913627371e-06
8.62954069082e-06
8.6299460251e-06
8.6303516086e-06
8.63075756808e-06
8.63116436773e-06
8.63157161066e-06
8.63197939637e-06
8.63238755959e-06
8.63279618842e-06
8.63320567765e-06
8.63361540434e-06
8.63402548229e-06
8.63443612608e-06
8.63484734321e-06
8.63525942181e-06
8.63567145381e-06
8.63608381398e-06
8.63649725919e-06
8.63691070812e-06
8.63732451437e-06
8.63773937581e-06
8.63815418278e-06
8.63856922599e-06
8.63898537458e-06
8.63940149019e-06
8.63981779925e-06
8.64023511072e-06
8.64065257874e-06
8.64107022835e-06
8.6414883272e-06
8.64190687698e-06
8.64232606071e-06
8.64274564205e-06
8.64316522193e-06
8.64358520899e-06
8.64400608313e-06
8.64442702613e-06
8.64484812352e-06
8.64526968507e-06
8.64569158178e-06
8.64611413286e-06
8.64653671419e-06
8.64695951472e-06
8.64738326434e-06
8.6478068887e-06
8.64823060123e-06
8.64865525039e-06
8.64907977136e-06
8.64950425245e-06
8.64992944401e-06
8.65035534148e-06
8.65078108957e-06
8.65120683935e-06
8.65163338035e-06
8.65206004565e-06
8.65248678782e-06
8.65291386826e-06
8.65334141741e-06
8.6537693215e-06
8.65419713134e-06
8.6546254859e-06
8.65505399512e-06
8.65548249032e-06
8.65591194632e-06
8.65634093735e-06
8.65676975564e-06
8.65719986399e-06
8.65763006551e-06
8.65805949381e-06
8.65848942171e-06
8.65892055649e-06
8.65935116979e-06
8.65978143674e-06
8.660212468e-06
8.6606435939e-06
8.66107528555e-06
8.66150660196e-06
8.66193773277e-06
8.6623700408e-06
8.66280225407e-06
8.66323452071e-06
8.66366639658e-06
8.66409851407e-06
8.66453247746e-06
8.66496494789e-06
8.66539665511e-06
8.66583026783e-06
8.66626363377e-06
8.66669690062e-06
8.66712969954e-06
8.66756249636e-06
8.66799706486e-06
8.66843040179e-06
8.66886276628e-06
8.66929643262e-06
8.669730195e-06
8.67016383564e-06
8.67059707472e-06
8.67103029168e-06
8.67146438148e-06
8.67189836005e-06
8.67233178339e-06
8.67276515214e-06
8.67319872798e-06
8.67363261337e-06
8.67406635863e-06
8.67449996671e-06
8.67493349159e-06
8.67536714865e-06
8.67580115939e-06
8.67623492572e-06
8.67666894095e-06
8.6771026808e-06
8.67753597796e-06
8.67797007793e-06
8.67840390435e-06
8.67883698853e-06
8.67927046117e-06
8.67970453154e-06
8.68013786835e-06
8.68057034764e-06
8.68100313058e-06
8.6814368444e-06
8.68187039936e-06
8.68230375158e-06
8.68273666602e-06
8.68316898662e-06
8.68360308676e-06
8.6840367022e-06
8.68446942449e-06
8.68490196923e-06
8.68533369406e-06
8.68576691291e-06
8.68619995286e-06
8.68663226039e-06
8.68706414403e-06
8.68749505825e-06
8.6879274404e-06
8.68835989628e-06
8.68879223659e-06
8.6892235784e-06
8.68965493827e-06
8.69008956949e-06
8.69052115897e-06
8.69095009349e-06
8.69138073311e-06
8.69181295241e-06
8.69224680096e-06
8.69267753167e-06
8.69310732018e-06
8.69354049775e-06
8.6939712027e-06
8.69439988831e-06
8.69482944187e-06
8.69525995886e-06
8.69569277957e-06
8.69612199919e-06
8.69654977419e-06
8.69698159341e-06
8.69741318055e-06
8.69784382852e-06
8.69827494327e-06
8.69870639728e-06
8.6991367771e-06
8.69956581417e-06
8.69999784721e-06
8.70042843988e-06
8.70085174948e-06
8.70127544462e-06
8.70170518125e-06
8.70213156326e-06
8.70255559211e-06
8.70298313357e-06
8.70340790876e-06
8.70383164291e-06
8.70425939585e-06
8.70468208808e-06
8.7051029522e-06
8.70553045945e-06
8.70595259613e-06
8.70637186939e-06
8.70679832787e-06
8.70722031403e-06
8.7076392877e-06
8.7080639399e-06
8.70848900278e-06
8.70891394981e-06
8.70933490469e-06
8.70975339676e-06
8.71017623885e-06
8.7105991517e-06
8.71101730027e-06
8.7114361502e-06
8.71185975273e-06
8.71228224628e-06
8.7126968861e-06
8.71310632256e-06
8.71352019905e-06
8.7139410741e-06
8.71436172539e-06
8.71477459489e-06
8.71518206047e-06
8.71559400132e-06
8.71601226426e-06
8.71643037733e-06
8.71684573362e-06
8.71725947824e-06
8.71767275834e-06
8.71808207583e-06
8.71849170484e-06
8.71890755639e-06
8.71932045931e-06
8.7197306712e-06
8.72014502264e-06
8.72055813544e-06
8.72096394921e-06
8.72136408085e-06
8.72176825509e-06
8.72217966045e-06
8.72259061622e-06
8.72299820627e-06
8.72340709553e-06
8.72381763999e-06
8.72422661425e-06
8.72463661023e-06
8.72504105146e-06
8.72544186067e-06
8.72584844642e-06
8.72625198567e-06
8.72664844468e-06
8.72704608338e-06
8.72744805975e-06
8.72785302217e-06
8.72825695482e-06
8.72865363697e-06
8.72904395025e-06
8.72943792639e-06
8.72983926184e-06
8.73023791994e-06
8.73063288079e-06
8.73103087992e-06
8.73142592721e-06
8.73181327581e-06
8.7322031214e-06
8.73260074686e-06
8.7329959051e-06
8.73338753634e-06
8.73378262207e-06
8.73417726572e-06
8.73456883328e-06
8.73495491818e-06
8.73534056966e-06
8.73573278433e-06
8.73612344847e-06
8.73651098685e-06
8.73690112398e-06
8.73728860626e-06
8.73766946058e-06
8.7380451775e-06
8.73842437914e-06
8.73881122531e-06
8.7391963477e-06
8.7395789249e-06
8.73996567676e-06
8.74034947221e-06
8.74072969716e-06
8.7411143768e-06
8.74149651387e-06
8.7418745641e-06
8.74225534761e-06
8.74263733338e-06
8.74301905888e-06
8.74339692028e-06
8.74377187165e-06
8.74414914776e-06
8.74452745287e-06
8.74490564073e-06
8.74527997852e-06
8.74565135237e-06
8.74602496642e-06
8.74639959197e-06
8.74677406539e-06
8.74714498663e-06
8.74751315076e-06
8.74788467216e-06
8.74825459893e-06
8.7486207833e-06
8.74898785525e-06
8.74935195144e-06
8.74970932745e-06
8.75006670046e-06
8.75042808451e-06
8.75078801857e-06
8.75114510965e-06
8.75150008468e-06
8.75185626112e-06
8.75221652445e-06
8.75257756579e-06
8.75293827565e-06
8.75329588324e-06
8.75365053574e-06
8.75400747227e-06
8.75436263522e-06
8.75471533857e-06
8.75507045008e-06
8.75542320251e-06
8.75577296998e-06
8.75612480908e-06
8.75647671948e-06
8.75682634848e-06
8.75717244376e-06
8.75751574208e-06
8.75785766108e-06
8.75819962639e-06
8.75854496434e-06
8.75888740127e-06
8.75922505399e-06
8.75956514419e-06
8.75990742476e-06
8.76025103225e-06
8.76059235903e-06
8.76092996013e-06
8.76126914785e-06
8.76160850511e-06
8.76194589347e-06
8.76228102236e-06
8.76261226006e-06
8.76294234526e-06
8.76327613362e-06
8.76361057367e-06
8.76394387342e-06
8.76427443524e-06
8.76460241076e-06
8.76493178101e-06
8.765257698e-06
8.76557960716e-06
8.76590382796e-06
8.76622932282e-06
8.76655215911e-06
8.76687165083e-06
8.76719015824e-06
8.76751189068e-06
8.7678345091e-06
8.76815397787e-06
8.76846719506e-06
8.76877846323e-06
8.7690926759e-06
8.76940536843e-06
8.76971596517e-06
8.77002910934e-06
8.7703396794e-06
8.77064748077e-06
8.77095788169e-06
8.77126563132e-06
8.7715705395e-06
8.77187797622e-06
8.77218288802e-06
8.77248475834e-06
8.77279010096e-06
8.77309370399e-06
8.77338952397e-06
8.77368157927e-06
8.77397550796e-06
8.77427304397e-06
8.7745691178e-06
8.77486312841e-06
8.77516053998e-06
8.77545795532e-06
8.77575223908e-06
8.77604319491e-06