/*--------------------------------*- C++ -*----------------------------------*\
| =========                 |                                                 |
| \\      /  F ield         | OpenFOAM: The Open Source CFD Toolbox           |
|  \\    /   O peration     | Version:  2312                                  |
|   \\  /    A nd           | Website:  www.openfoam.com                      |
|    \\/     M anipulation  |                                                 |
\*---------------------------------------------------------------------------*/
FoamFile
{
    version     2.0;
    format      ascii;
    arch        "LSB;label=32;scalar=64";
    class       volScalarField;
    location    "0.005";
    object      thermo:psiLiqEff;
}
// * * * * * * * * * * * * * * * * * * * * * * * * * * * * * * * * * * * * * //

dimensions      [-2 4 2 0 0 0 0];

internalField   nonuniform List<scalar> 
8000
(
4.83902504895e-13
4.8390250653e-13
4.83902507184e-13
4.83902508386e-13
4.83902509806e-13
4.83902511551e-13
4.83902513332e-13
4.83902514858e-13
4.83902516298e-13
4.83902517895e-13
4.83902519636e-13
4.83902521507e-13
4.83902523398e-13
4.83902525171e-13
4.83902526878e-13
4.83902528463e-13
4.8390252998e-13
4.83902531481e-13
4.83902532945e-13
4.83902534455e-13
4.83902536028e-13
4.83902537732e-13
4.83902539539e-13
4.83902541395e-13
4.83902543264e-13
4.83902545121e-13
4.83902546963e-13
4.83902548794e-13
4.83902550581e-13
4.83902552328e-13
4.83902554061e-13
4.83902555796e-13
4.839025575e-13
4.8390255918e-13
4.83902560873e-13
4.8390256261e-13
4.83902564386e-13
4.83902566161e-13
4.83902567983e-13
4.83902569835e-13
4.83902571636e-13
4.83902573415e-13
4.83902575172e-13
4.83902576907e-13
4.83902578618e-13
4.83902580325e-13
4.83902582024e-13
4.83902583669e-13
4.83902585249e-13
4.83902586813e-13
4.83902588372e-13
4.83902589905e-13
4.83902591492e-13
4.83902593112e-13
4.83902594725e-13
4.83902596372e-13
4.83902598033e-13
4.83902599679e-13
4.83902601378e-13
4.83902603092e-13
4.83902604761e-13
4.83902606431e-13
4.83902608124e-13
4.83902609804e-13
4.839026115e-13
4.83902613174e-13
4.83902614837e-13
4.83902616515e-13
4.83902618144e-13
4.83902619778e-13
4.83902621414e-13
4.83902623015e-13
4.83902624628e-13
4.83902626281e-13
4.83902627935e-13
4.83902629585e-13
4.83902631253e-13
4.83902632921e-13
4.83902634583e-13
4.83902636237e-13
4.83902637881e-13
4.83902639505e-13
4.83902641128e-13
4.83902642744e-13
4.83902644333e-13
4.83902645876e-13
4.8390264742e-13
4.83902649004e-13
4.83902650577e-13
4.83902652118e-13
4.83902653621e-13
4.83902655133e-13
4.83902656638e-13
4.83902658165e-13
4.83902659727e-13
4.83902661265e-13
4.83902662852e-13
4.83902664461e-13
4.83902666004e-13
4.83902667527e-13
4.8390266903e-13
4.83902670524e-13
4.83902672024e-13
4.83902673542e-13
4.83902675112e-13
4.83902676672e-13
4.83902678275e-13
4.83902679811e-13
4.83902681277e-13
4.83902682724e-13
4.83902684156e-13
4.83902685599e-13
4.83902687062e-13
4.8390268851e-13
4.83902689983e-13
4.83902691432e-13
4.83902692877e-13
4.83902694326e-13
4.83902695758e-13
4.83902697212e-13
4.83902698673e-13
4.83902700128e-13
4.83902701574e-13
4.83902702996e-13
4.83902704424e-13
4.83902705859e-13
4.83902707269e-13
4.83902708686e-13
4.83902710083e-13
4.83902711449e-13
4.83902712824e-13
4.83902714206e-13
4.83902715593e-13
4.83902717006e-13
4.83902718433e-13
4.8390271985e-13
4.83902721269e-13
4.83902722675e-13
4.83902724047e-13
4.83902725401e-13
4.8390272672e-13
4.83902728017e-13
4.83902729335e-13
4.83902730684e-13
4.83902732046e-13
4.83902733457e-13
4.8390273488e-13
4.83902736284e-13
4.83902737674e-13
4.83902739047e-13
4.8390274042e-13
4.83902741791e-13
4.83902743134e-13
4.83902744473e-13
4.83902745726e-13
4.83902746944e-13
4.83902748164e-13
4.839027494e-13
4.83902750651e-13
4.83902751931e-13
4.83902753213e-13
4.83902754488e-13
4.8390275575e-13
4.83902756987e-13
4.83902758216e-13
4.83902759437e-13
4.83902760648e-13
4.83902761855e-13
4.83902763051e-13
4.83902764242e-13
4.83902765432e-13
4.83902766629e-13
4.83902767843e-13
4.83902769056e-13
4.83902770274e-13
4.83902771487e-13
4.83902772687e-13
4.83902773899e-13
4.83902775102e-13
4.83902776293e-13
4.83902777489e-13
4.83902778676e-13
4.83902779855e-13
4.8390278102e-13
4.83902782167e-13
4.83902783322e-13
4.83902784481e-13
4.83902785635e-13
4.83902786799e-13
4.83902787954e-13
4.83902789087e-13
4.83902790199e-13
4.83902791282e-13
4.83902792334e-13
4.83902793368e-13
4.83902794395e-13
4.83902795417e-13
4.83902796438e-13
4.83902797459e-13
4.83902798483e-13
4.83902799516e-13
4.8390280054e-13
4.83902801571e-13
4.83902802611e-13
4.83902803653e-13
4.83902804706e-13
4.8390280576e-13
4.83902806817e-13
4.83902807883e-13
4.83902808934e-13
4.8390280998e-13
4.83902810998e-13
4.83902811996e-13
4.83902812969e-13
4.83902813921e-13
4.83902814864e-13
4.83902815802e-13
4.8390281674e-13
4.83902817663e-13
4.83902818572e-13
4.83902819447e-13
4.83902820301e-13
4.83902821154e-13
4.83902822018e-13
4.839028229e-13
4.83902823806e-13
4.83902824726e-13
4.83902825647e-13
4.83902826566e-13
4.83902827475e-13
4.83902828376e-13
4.83902829272e-13
4.83902830164e-13
4.83902831055e-13
4.83902831945e-13
4.83902832831e-13
4.83902833711e-13
4.83902834576e-13
4.83902835432e-13
4.83902836281e-13
4.83902837115e-13
4.83902837929e-13
4.83902838714e-13
4.83902839478e-13
4.83902840234e-13
4.83902840983e-13
4.83902841727e-13
4.83902842465e-13
4.83902843202e-13
4.83902843929e-13
4.8390284465e-13
4.83902845366e-13
4.83902846073e-13
4.83902846759e-13
4.83902847424e-13
4.83902848065e-13
4.83902848698e-13
4.83902849333e-13
4.83902849979e-13
4.83902850639e-13
4.83902851303e-13
4.83902851948e-13
4.83902852579e-13
4.83902853185e-13
4.83902853776e-13
4.83902854359e-13
4.83902854939e-13
4.83902855516e-13
4.83902856086e-13
4.83902856648e-13
4.83902857205e-13
4.83902857759e-13
4.83902858311e-13
4.83902858868e-13
4.83902859429e-13
4.83902859991e-13
4.83902860551e-13
4.83902861095e-13
4.83902861602e-13
4.83902862082e-13
4.83902862546e-13
4.83902863e-13
4.83902863449e-13
4.83902863894e-13
4.83902864335e-13
4.83902864774e-13
4.83902865216e-13
4.83902865663e-13
4.83902866118e-13
4.83902866577e-13
4.83902867036e-13
4.83902867487e-13
4.8390286793e-13
4.8390286835e-13
4.83902868747e-13
4.83902869126e-13
4.83902869495e-13
4.83902869855e-13
4.83902870206e-13
4.83902870549e-13
4.83902870885e-13
4.83902871216e-13
4.83902871542e-13
4.83902871855e-13
4.83902872157e-13
4.83902872448e-13
4.83902872734e-13
4.83902873016e-13
4.83902873294e-13
4.83902873571e-13
4.83902873842e-13
4.83902874106e-13
4.83902874365e-13
4.83902874624e-13
4.83902874885e-13
4.83902875144e-13
4.83902875393e-13
4.83902875633e-13
4.83902875861e-13
4.8390287607e-13
4.83902876257e-13
4.83902876436e-13
4.83902876609e-13
4.83902876782e-13
4.83902876959e-13
4.83902877138e-13
4.83902877318e-13
4.83902877492e-13
4.83902877646e-13
4.83902877791e-13
4.83902877923e-13
4.83902878042e-13
4.83902878151e-13
4.83902878255e-13
4.83902878358e-13
4.83902878458e-13
4.83902878554e-13
4.83902878643e-13
4.83902878726e-13
4.83902878804e-13
4.83902878878e-13
4.83902878947e-13
4.8390287901e-13
4.83902879062e-13
4.83902879105e-13
4.83902879139e-13
4.83902879167e-13
4.83902879192e-13
4.83902879204e-13
4.83902879214e-13
4.83902879207e-13
4.83902879178e-13
4.83902879131e-13
4.83902879073e-13
4.83902879008e-13
4.83902878943e-13
4.8390287888e-13
4.83902878821e-13
4.83902878761e-13
4.83902878695e-13
4.83902878619e-13
4.83902878536e-13
4.83902878439e-13
4.83902878334e-13
4.83902878221e-13
4.83902878107e-13
4.83902877993e-13
4.83902877874e-13
4.83902877748e-13
4.8390287761e-13
4.83902877464e-13
4.83902877315e-13
4.83902877161e-13
4.83902877e-13
4.8390287683e-13
4.83902876651e-13
4.83902876462e-13
4.83902876262e-13
4.83902876054e-13
4.83902875838e-13
4.83902875615e-13
4.83902875386e-13
4.83902875157e-13
4.83902874926e-13
4.83902874696e-13
4.83902874462e-13
4.83902874223e-13
4.83902873978e-13
4.83902873721e-13
4.83902873454e-13
4.83902873175e-13
4.83902872885e-13
4.83902872589e-13
4.83902872285e-13
4.83902871982e-13
4.83902871675e-13
4.83902871361e-13
4.83902871041e-13
4.83902870717e-13
4.83902870386e-13
4.83902870047e-13
4.83902869692e-13
4.83902869324e-13
4.83902868947e-13
4.83902868558e-13
4.8390286816e-13
4.83902867759e-13
4.83902867352e-13
4.8390286694e-13
4.83902866525e-13
4.83902866101e-13
4.83902865671e-13
4.83902865232e-13
4.83902864782e-13
4.83902864325e-13
4.83902863862e-13
4.83902863396e-13
4.83902862924e-13
4.83902862447e-13
4.83902861964e-13
4.83902861467e-13
4.83902860959e-13
4.8390286044e-13
4.83902859919e-13
4.83902859397e-13
4.83902858873e-13
4.83902858347e-13
4.83902857814e-13
4.83902857278e-13
4.8390285674e-13
4.8390285619e-13
4.83902855629e-13
4.83902855062e-13
4.83902854488e-13
4.83902853911e-13
4.83902853327e-13
4.8390285274e-13
4.83902852147e-13
4.83902851552e-13
4.83902850954e-13
4.83902850348e-13
4.83902849735e-13
4.83902849116e-13
4.83902848494e-13
4.83902847861e-13
4.83902847228e-13
4.83902846596e-13
4.8390284596e-13
4.8390284533e-13
4.83902844704e-13
4.83902844076e-13
4.83902843444e-13
4.83902842803e-13
4.83902842155e-13
4.83902841488e-13
4.83902840806e-13
4.83902840118e-13
4.83902839429e-13
4.83902838739e-13
4.83902838041e-13
4.83902837344e-13
4.83902836637e-13
4.8390283592e-13
4.83902835198e-13
4.83902834465e-13
4.83902833728e-13
4.83902832973e-13
4.83902832198e-13
4.83902831425e-13
4.83902830635e-13
4.83902829844e-13
4.83902829066e-13
4.83902828283e-13
4.83902827499e-13
4.83902826694e-13
4.83902825892e-13
4.83902825097e-13
4.83902824293e-13
4.83902823483e-13
4.83902822662e-13
4.83902821833e-13
4.83902821009e-13
4.83902820182e-13
4.83902819361e-13
4.83902818546e-13
4.8390281772e-13
4.83902816881e-13
4.83902816038e-13
4.83902815174e-13
4.83902814326e-13
4.83902813503e-13
4.83902812679e-13
4.83902811852e-13
4.83902811015e-13
4.83902810178e-13
4.83902809329e-13
4.83902808466e-13
4.83902807585e-13
4.83902806685e-13
4.83902805804e-13
4.83902804945e-13
4.83902804092e-13
4.83902803243e-13
4.83902802398e-13
4.83902801558e-13
4.83902800705e-13
4.8390279984e-13
4.83902798969e-13
4.83902798094e-13
4.8390279723e-13
4.8390279636e-13
4.83902795479e-13
4.8390279459e-13
4.83902793697e-13
4.8390279276e-13
4.83902791815e-13
4.8390279092e-13
4.83902790016e-13
4.8390278911e-13
4.8390278821e-13
4.83902787312e-13
4.83902786429e-13
4.8390278553e-13
4.83902784615e-13
4.83902783697e-13
4.8390278277e-13
4.83902781863e-13
4.83902780943e-13
4.83902780007e-13
4.83902779072e-13
4.83902778125e-13
4.83902777197e-13
4.83902776254e-13
4.83902775295e-13
4.83902774335e-13
4.83902773363e-13
4.83902772425e-13
4.83902771468e-13
4.83902770488e-13
4.8390276951e-13
4.83902768532e-13
4.83902767556e-13
4.83902766555e-13
4.83902765526e-13
4.83902764484e-13
4.8390276344e-13
4.83902762412e-13
4.83902761376e-13
4.83902760362e-13
4.83902759351e-13
4.83902758315e-13
4.83902757292e-13
4.83902756273e-13
4.83902755213e-13
4.83902754159e-13
4.83902753119e-13
4.83902752064e-13
4.8390275102e-13
4.83902749996e-13
4.83902748981e-13
4.83902747979e-13
4.83902746967e-13
4.83902745944e-13
4.83902744928e-13
4.8390274391e-13
4.839027429e-13
4.83902741874e-13
4.8390274084e-13
4.83902739787e-13
4.83902738727e-13
4.83902737701e-13
4.83902736684e-13
4.83902735655e-13
4.83902734635e-13
4.83902733608e-13
4.83902732514e-13
4.83902731443e-13
4.83902730385e-13
4.83902729307e-13
4.83902728198e-13
4.83902727097e-13
4.83902726021e-13
4.83902724982e-13
4.83902723947e-13
4.83902722854e-13
4.83902721765e-13
4.83902720674e-13
4.83902719561e-13
4.83902718407e-13
4.83902717241e-13
4.8390271609e-13
4.83902714924e-13
4.83902713815e-13
4.83902712726e-13
4.83902711623e-13
4.83902710494e-13
4.83902709376e-13
4.83902708255e-13
4.83902707136e-13
4.83902706066e-13
4.83902704992e-13
4.83902703903e-13
4.83902702801e-13
4.83902701696e-13
4.8390270065e-13
4.83902699614e-13
4.8390269857e-13
4.83902697478e-13
4.83902696358e-13
4.83902695205e-13
4.83902694101e-13
4.83902693003e-13
4.83902691871e-13
4.83902690686e-13
4.83902689449e-13
4.83902688284e-13
4.83902687152e-13
4.83902686067e-13
4.83902684993e-13
4.83902683921e-13
4.83902682813e-13
4.83902681688e-13
4.8390268063e-13
4.83902679565e-13
4.83902678495e-13
4.83902677403e-13
4.83902676311e-13
4.83902675205e-13
4.83902674072e-13
4.83902672919e-13
4.83902671764e-13
4.83902670596e-13
4.83902669421e-13
4.83902668326e-13
4.83902667276e-13
4.83902666228e-13
4.83902665131e-13
4.83902664004e-13
4.83902662915e-13
4.83902661868e-13
4.83902660805e-13
4.83902659706e-13
4.83902658614e-13
4.83902657543e-13
4.83902656555e-13
4.83902655574e-13
4.8390265456e-13
4.83902653511e-13
4.83902652437e-13
4.8390265134e-13
4.83902650182e-13
4.83902649015e-13
4.83902647852e-13
4.83902646733e-13
4.83902645635e-13
4.83902644542e-13
4.83902643458e-13
4.83902642357e-13
4.83902641234e-13
4.83902640098e-13
4.83902638935e-13
4.83902637776e-13
4.83902636656e-13
4.83902635599e-13
4.83902634555e-13
4.83902633506e-13
4.83902632405e-13
4.83902631296e-13
4.83902630187e-13
4.83902629091e-13
4.83902628021e-13
4.83902626952e-13
4.83902625888e-13
4.83902624833e-13
4.83902623778e-13
4.8390262273e-13
4.8390262171e-13
4.83902620684e-13
4.83902619634e-13
4.83902618574e-13
4.83902617514e-13
4.83902616444e-13
4.83902615384e-13
4.83902614331e-13
4.83902613299e-13
4.83902612316e-13
4.83902611331e-13
4.83902610327e-13
4.83902609327e-13
4.83902608313e-13
4.83902607281e-13
4.83902606233e-13
4.83902605181e-13
4.83902604129e-13
4.83902603096e-13
4.83902602067e-13
4.83902601042e-13
4.83902600045e-13
4.83902599057e-13
4.83902598061e-13
4.83902597115e-13
4.83902596187e-13
4.83902595269e-13
4.83902594356e-13
4.83902593415e-13
4.83902592473e-13
4.83902591538e-13
4.83902590559e-13
4.83902589611e-13
4.83902588664e-13
4.83902587683e-13
4.83902586695e-13
4.83902585709e-13
4.83902584736e-13
4.83902583773e-13
4.83902582793e-13
4.83902581822e-13
4.83902580851e-13
4.8390257985e-13
4.83902578873e-13
4.83902577908e-13
4.83902576978e-13
4.83902576059e-13
4.83902575113e-13
4.83902574194e-13
4.83902573284e-13
4.83902572386e-13
4.83902571522e-13
4.83902570647e-13
4.83902569734e-13
4.83902568833e-13
4.83902567926e-13
4.8390256699e-13
4.83902565996e-13
4.83902564987e-13
4.83902563998e-13
4.83902563043e-13
4.8390256215e-13
4.83902561267e-13
4.83902560407e-13
4.83902559579e-13
4.83902558756e-13
4.83902557939e-13
4.83902557134e-13
4.83902556323e-13
4.83902555481e-13
4.83902554635e-13
4.83902553785e-13
4.83902552896e-13
4.83902552021e-13
4.83902551149e-13
4.83902550276e-13
4.83902549431e-13
4.83902548591e-13
4.83902547761e-13
4.83902546961e-13
4.83902546171e-13
4.83902545412e-13
4.83902544694e-13
4.83902543979e-13
4.83902543267e-13
4.83902542578e-13
4.83902541879e-13
4.83902541142e-13
4.83902540392e-13
4.8390253963e-13
4.83902538857e-13
4.83902538061e-13
4.83902537282e-13
4.83902536539e-13
4.83902535804e-13
4.83902535062e-13
4.83902534335e-13
4.83902533611e-13
4.83902532871e-13
4.8390253214e-13
4.83902531412e-13
4.83902530675e-13
4.83902529973e-13
4.83902529278e-13
4.83902528566e-13
4.83902527817e-13
4.83902527051e-13
4.83902526324e-13
4.83902525636e-13
4.83902525002e-13
4.83902524424e-13
4.83902523832e-13
4.83902523198e-13
4.83902522585e-13
4.83902521952e-13
4.83902521276e-13
4.83902520551e-13
4.83902519836e-13
4.83902519135e-13
4.83902518498e-13
4.83902517907e-13
4.83902517327e-13
4.83902516777e-13
4.8390251624e-13
4.83902515691e-13
4.83902515105e-13
4.83902514547e-13
4.83902513975e-13
4.83902513366e-13
4.83902512724e-13
4.83902512099e-13
4.83902511487e-13
4.83902510882e-13
4.83902510329e-13
4.83902509799e-13
4.83902509263e-13
4.83902508694e-13
4.83902508142e-13
4.83902507634e-13
4.83902507146e-13
4.83902506623e-13
4.8390250605e-13
4.83902505478e-13
4.8390250491e-13
4.83902504351e-13
4.83902503804e-13
4.83902503258e-13
4.83902502707e-13
4.83902502148e-13
4.83902501592e-13
4.83902501043e-13
4.83902500495e-13
4.83902499957e-13
4.83902499453e-13
4.83902498951e-13
4.83902498435e-13
4.83902497931e-13
4.83902497465e-13
4.83902496989e-13
4.83902496477e-13
4.83902495942e-13
4.83902495444e-13
4.8390249502e-13
4.83902494619e-13
4.8390249428e-13
4.83902493958e-13
4.83902493588e-13
4.83902493173e-13
4.83902492761e-13
4.83902492346e-13
4.83902491978e-13
4.8390249163e-13
4.83902491281e-13
4.83902490911e-13
4.83902490566e-13
4.83902490228e-13
4.83902489889e-13
4.83902489549e-13
4.8390248921e-13
4.83902488908e-13
4.83902488607e-13
4.83902488288e-13
4.83902488003e-13
4.83902487717e-13
4.83902487428e-13
4.83902487125e-13
4.83902486879e-13
4.8390248664e-13
4.83902486391e-13
4.83902486137e-13
4.83902485879e-13
4.83902485608e-13
4.83902485389e-13
4.83902485183e-13
4.83902484968e-13
4.8390248477e-13
4.83902484602e-13
4.839024844e-13
4.83902484186e-13
4.83902483971e-13
4.8390248377e-13
4.83902483621e-13
4.83902483467e-13
4.83902483312e-13
4.83902483196e-13
4.83902483082e-13
4.83902482954e-13
4.83902482843e-13
4.83902482769e-13
4.83902482654e-13
4.83902482516e-13
4.83902482417e-13
4.8390248232e-13
4.839024822e-13
4.83902482098e-13
4.83902482031e-13
4.83902481916e-13
4.83902481778e-13
4.83902481675e-13
4.83902481583e-13
4.83902481497e-13
4.83902481475e-13
4.83902481481e-13
4.83902481458e-13
4.83902481425e-13
4.83902481429e-13
4.8390248142e-13
4.83902481422e-13
4.8390248145e-13
4.83902481458e-13
4.83902481457e-13
4.83902481486e-13
4.83902481531e-13
4.83902481567e-13
4.83902481613e-13
4.83902481666e-13
4.83902481723e-13
4.83902481808e-13
4.83902481901e-13
4.8390248198e-13
4.83902482078e-13
4.83902482199e-13
4.83902482325e-13
4.83902482481e-13
4.83902482639e-13
4.83902482772e-13
4.83902482915e-13
4.83902483046e-13
4.83902483176e-13
4.83902483317e-13
4.83902483466e-13
4.83902483627e-13
4.83902483796e-13
4.83902483973e-13
4.83902484157e-13
4.83902484361e-13
4.8390248456e-13
4.83902484757e-13
4.83902484963e-13
4.83902485172e-13
4.83902485407e-13
4.83902485683e-13
4.83902485971e-13
4.83902486289e-13
4.83902486626e-13
4.83902486914e-13
4.839024872e-13
4.83902487518e-13
4.83902487814e-13
4.83902488065e-13
4.83902488317e-13
4.83902488579e-13
4.8390248884e-13
4.83902489107e-13
4.83902489398e-13
4.83902489698e-13
4.83902490006e-13
4.83902490321e-13
4.83902490618e-13
4.83902490917e-13
4.83902491221e-13
4.8390249151e-13
4.83902491799e-13
4.83902492116e-13
4.83902492456e-13
4.83902492813e-13
4.83902493198e-13
4.83902493599e-13
4.83902494018e-13
4.83902494412e-13
4.83902494793e-13
4.83902495189e-13
4.83902495604e-13
4.83902496032e-13
4.83902496476e-13
4.83902496943e-13
4.83902497425e-13
4.83902497923e-13
4.83902498417e-13
4.83902498903e-13
4.83902499401e-13
4.83902499901e-13
4.83902500385e-13
4.83902500871e-13
4.83902501387e-13
4.83902501907e-13
4.83902502426e-13
4.83902502954e-13
4.83902503484e-13
4.83902504024e-13
4.8390250458e-13
4.83902505143e-13
4.83902505724e-13
4.83902506306e-13
4.83902506889e-13
4.83902507481e-13
4.83902508078e-13
4.83902508679e-13
4.83902509278e-13
4.83902509878e-13
4.8390251049e-13
4.83902511121e-13
4.8390251176e-13
4.83902512425e-13
4.83902513112e-13
4.83902513805e-13
4.83902514525e-13
4.83902515246e-13
4.83902515946e-13
4.83902516633e-13
4.83902517315e-13
4.83902518001e-13
4.83902518698e-13
4.83902519399e-13
4.83902520099e-13
4.83902520797e-13
4.83902521499e-13
4.83902522206e-13
4.83902522924e-13
4.83902523651e-13
4.83902524393e-13
4.83902525155e-13
4.83902525931e-13
4.83902526719e-13
4.83902527501e-13
4.83902528273e-13
4.83902529042e-13
4.83902529814e-13
4.83902530591e-13
4.83902531378e-13
4.83902532182e-13
4.83902533004e-13
4.8390253384e-13
4.83902534697e-13
4.83902535577e-13
4.8390253647e-13
4.83902537371e-13
4.83902538282e-13
4.83902539197e-13
4.83902540115e-13
4.83902541039e-13
4.83902541961e-13
4.83902542872e-13
4.83902543782e-13
4.83902544696e-13
4.8390254562e-13
4.83902546551e-13
4.8390254749e-13
4.83902548449e-13
4.83902549423e-13
4.83902550403e-13
4.83902551388e-13
4.83902552373e-13
4.83902553357e-13
4.8390255434e-13
4.83902555323e-13
4.83902556307e-13
4.83902557293e-13
4.83902558281e-13
4.83902559271e-13
4.83902560262e-13
4.83902561252e-13
4.83902562245e-13
4.83902563245e-13
4.83902564253e-13
4.83902565266e-13
4.83902566285e-13
4.83902567314e-13
4.83902568354e-13
4.83902569404e-13
4.83902570469e-13
4.8390257155e-13
4.83902572646e-13
4.83902573758e-13
4.83902574886e-13
4.83902576029e-13
4.83902577183e-13
4.83902578345e-13
4.83902579514e-13
4.83902580679e-13
4.83902581836e-13
4.83902582987e-13
4.83902584134e-13
4.83902585284e-13
4.83902586439e-13
4.83902587602e-13
4.83902588773e-13
4.83902589954e-13
4.83902591143e-13
4.83902592339e-13
4.83902593541e-13
4.83902594752e-13
4.83902595973e-13
4.83902597205e-13
4.8390259845e-13
4.83902599704e-13
4.83902600962e-13
4.83902602215e-13
4.8390260346e-13
4.83902604705e-13
4.83902605954e-13
4.8390260721e-13
4.83902608476e-13
4.83902609751e-13
4.83902611036e-13
4.83902612329e-13
4.83902613627e-13
4.8390261493e-13
4.83902616242e-13
4.83902617563e-13
4.83902618895e-13
4.83902620238e-13
4.83902621592e-13
4.83902622958e-13
4.83902624333e-13
4.83902625716e-13
4.83902627103e-13
4.83902628494e-13
4.83902629887e-13
4.83902631283e-13
4.83902632679e-13
4.83902634079e-13
4.83902635482e-13
4.83902636889e-13
4.839026383e-13
4.83902639716e-13
4.83902641137e-13
4.83902642565e-13
4.83902643999e-13
4.83902645437e-13
4.83902646875e-13
4.83902648313e-13
4.8390264975e-13
4.83902651187e-13
4.83902652628e-13
4.83902654074e-13
4.83902655527e-13
4.83902656986e-13
4.83902658452e-13
4.83902659925e-13
4.83902661405e-13
4.83902662894e-13
4.83902664392e-13
4.83902665903e-13
4.83902667428e-13
4.83902668967e-13
4.83902670521e-13
4.83902672087e-13
4.83902673664e-13
4.83902675246e-13
4.83902676832e-13
4.83902678413e-13
4.83902679995e-13
4.8390268158e-13
4.83902683171e-13
4.83902684771e-13
4.83902686381e-13
4.83902688e-13
4.8390268962e-13
4.83902691239e-13
4.8390269285e-13
4.83902694455e-13
4.83902696054e-13
4.83902697651e-13
4.8390269925e-13
4.83902700854e-13
4.83902702468e-13
4.83902704096e-13
4.83902705739e-13
4.83902707398e-13
4.8390270907e-13
4.83902710754e-13
4.83902712446e-13
4.83902714139e-13
4.83902715829e-13
4.83902717509e-13
4.83902719177e-13
4.83902720838e-13
4.83902722489e-13
4.83902724137e-13
4.83902725788e-13
4.83902727445e-13
4.83902729113e-13
4.83902730791e-13
4.8390273248e-13
4.8390273418e-13
4.83902735887e-13
4.83902737599e-13
4.83902739319e-13
4.83902741044e-13
4.83902742773e-13
4.8390274451e-13
4.83902746251e-13
4.83902747995e-13
4.83902749742e-13
4.83902751488e-13
4.83902753235e-13
4.83902754986e-13
4.83902756742e-13
4.83902758511e-13
4.83902760291e-13
4.83902762085e-13
4.83902763891e-13
4.83902765703e-13
4.83902767524e-13
4.83902769346e-13
4.83902771169e-13
4.83902772997e-13
4.83902774829e-13
4.83902776666e-13
4.83902778505e-13
4.83902780349e-13
4.83902782195e-13
4.83902784039e-13
4.83902785884e-13
4.83902787723e-13
4.83902789556e-13
4.83902791383e-13
4.83902793207e-13
4.8390279503e-13
4.83902796849e-13
4.83902798663e-13
4.83902800478e-13
4.83902802297e-13
4.83902804126e-13
4.83902805963e-13
4.8390280782e-13
4.83902809694e-13
4.8390281158e-13
4.83902813477e-13
4.83902815383e-13
4.83902817295e-13
4.83902819198e-13
4.83902821096e-13
4.83902822994e-13
4.83902824894e-13
4.83902826795e-13
4.83902828697e-13
4.83902830608e-13
4.83902832526e-13
4.83902834451e-13
4.8390283639e-13
4.83902838336e-13
4.83902840282e-13
4.83902842229e-13
4.83902844176e-13
4.83902846126e-13
4.83902848079e-13
4.83902850038e-13
4.83902851999e-13
4.83902853957e-13
4.83902855915e-13
4.83902857875e-13
4.83902859839e-13
4.83902861805e-13
4.83902863773e-13
4.83902865746e-13
4.83902867715e-13
4.83902869683e-13
4.83902871649e-13
4.83902873613e-13
4.83902875578e-13
4.83902877541e-13
4.83902879504e-13
4.83902881478e-13
4.83902883457e-13
4.83902885444e-13
4.83902887445e-13
4.83902889449e-13
4.83902891467e-13
4.83902893492e-13
4.8390289552e-13
4.83902897559e-13
4.83902899592e-13
4.83902901634e-13
4.83902903664e-13
4.83902905688e-13
4.8390290772e-13
4.83902909756e-13
4.83902911788e-13
4.83902913822e-13
4.83902915851e-13
4.83902917877e-13
4.83902919917e-13
4.83902921953e-13
4.83902923982e-13
4.83902926019e-13
4.8390292805e-13
4.83902930078e-13
4.83902932098e-13
4.83902934114e-13
4.83902936135e-13
4.83902938148e-13
4.83902940157e-13
4.83902942161e-13
4.83902944173e-13
4.83902946189e-13
4.83902948208e-13
4.83902950242e-13
4.83902952282e-13
4.83902954334e-13
4.83902956391e-13
4.83902958447e-13
4.83902960509e-13
4.83902962566e-13
4.83902964615e-13
4.83902966671e-13
4.83902968702e-13
4.83902970725e-13
4.83902972753e-13
4.839029748e-13
4.83902976862e-13
4.83902978933e-13
4.83902981032e-13
4.83902983148e-13
4.83902985253e-13
4.83902987348e-13
4.83902989439e-13
4.83902991529e-13
4.83902993609e-13
4.83902995687e-13
4.83902997767e-13
4.83902999849e-13
4.83903001946e-13
4.83903004038e-13
4.83903006119e-13
4.83903008205e-13
4.83903010273e-13
4.83903012327e-13
4.83903014372e-13
4.83903016437e-13
4.83903018512e-13
4.83903020576e-13
4.83903022631e-13
4.83903024655e-13
4.83903026664e-13
4.83903028668e-13
4.83903030662e-13
4.83903032672e-13
4.8390303469e-13
4.83903036725e-13
4.8390303879e-13
4.83903040848e-13
4.83903042957e-13
4.83903045082e-13
4.83903047176e-13
4.83903049279e-13
4.83903051374e-13
4.83903053469e-13
4.83903055543e-13
4.83903057593e-13
4.83903059663e-13
4.8390306173e-13
4.83903063772e-13
4.83903065822e-13
4.83903067878e-13
4.83903069941e-13
4.83903072005e-13
4.83903074064e-13
4.83903076138e-13
4.83903078212e-13
4.8390308028e-13
4.8390308234e-13
4.83903084395e-13
4.83903086455e-13
4.83903088517e-13
4.83903090581e-13
4.83903092643e-13
4.83903094713e-13
4.83903096803e-13
4.83903098891e-13
4.83903100984e-13
4.83903103075e-13
4.83903105159e-13
4.83903107256e-13
4.83903109352e-13
4.83903111418e-13
4.83903113477e-13
4.83903115545e-13
4.83903117608e-13
4.83903119659e-13
4.8390312171e-13
4.83903123761e-13
4.83903125822e-13
4.83903127886e-13
4.83903129971e-13
4.83903132053e-13
4.83903134142e-13
4.8390313622e-13
4.83903138286e-13
4.83903140352e-13
4.83903142387e-13
4.83903144428e-13
4.8390314647e-13
4.83903148503e-13
4.83903150543e-13
4.83903152568e-13
4.83903154613e-13
4.83903156652e-13
4.83903158693e-13
4.83903160729e-13
4.83903162733e-13
4.83903164764e-13
4.83903166784e-13
4.83903168782e-13
4.83903170804e-13
4.83903172807e-13
4.83903174832e-13
4.83903176869e-13
4.83903178877e-13
4.83903180941e-13
4.83903183005e-13
4.83903185053e-13
4.83903187079e-13
4.83903189073e-13
4.83903191093e-13
4.83903193161e-13
4.83903195197e-13
4.83903197309e-13
4.83903199472e-13
4.83903201631e-13
4.83903203772e-13
4.83903205874e-13
4.83903207988e-13
4.83903210048e-13
4.83903212082e-13
4.83903214174e-13
4.8390321622e-13
4.83903218226e-13
4.83903220263e-13
4.83903222273e-13
4.83903224273e-13
4.83903226311e-13
4.83903228362e-13
4.83903230373e-13
4.83903232433e-13
4.8390323444e-13
4.83903236374e-13
4.83903238403e-13
4.83903240393e-13
4.83903242326e-13
4.8390324437e-13
4.83903246381e-13
4.83903248346e-13
4.83903250372e-13
4.83903252368e-13
4.83903254374e-13
4.83903256405e-13
4.83903258388e-13
4.83903260408e-13
4.83903262404e-13
4.83903264393e-13
4.8390326637e-13
4.83903268366e-13
4.83903270437e-13
4.83903272455e-13
4.83903274422e-13
4.8390327639e-13
4.8390327835e-13
4.83903280347e-13
4.83903282325e-13
4.83903284244e-13
4.83903286184e-13
4.83903288129e-13
4.83903290102e-13
4.83903292046e-13
4.83903293974e-13
4.83903295888e-13
4.83903297772e-13
4.83903299631e-13
4.83903301552e-13
4.83903303508e-13
4.8390330544e-13
4.83903307369e-13
4.839033093e-13
4.83903311176e-13
4.83903312999e-13
4.83903314842e-13
4.83903316752e-13
4.83903318675e-13
4.83903320553e-13
4.839033224e-13
4.83903324281e-13
4.83903326167e-13
4.83903328082e-13
4.83903330046e-13
4.83903331942e-13
4.83903333883e-13
4.83903335807e-13
4.8390333768e-13
4.83903339562e-13
4.83903341471e-13
4.83903343414e-13
4.83903345392e-13
4.83903347331e-13
4.839033492e-13
4.83903351065e-13
4.83903352955e-13
4.83903354876e-13
4.83903356752e-13
4.83903358638e-13
4.83903360518e-13
4.83903362352e-13
4.83903364203e-13
4.83903366085e-13
4.83903368017e-13
4.83903369901e-13
4.83903371769e-13
4.83903373687e-13
4.8390337561e-13
4.83903377495e-13
4.83903379323e-13
4.83903381197e-13
4.83903383087e-13
4.83903384935e-13
4.83903386775e-13
4.83903388624e-13
4.83903390436e-13
4.8390339219e-13
4.83903393914e-13
4.83903395675e-13
4.83903397465e-13
4.83903399233e-13
4.83903401e-13
4.8390340284e-13
4.83903404661e-13
4.83903406496e-13
4.83903408355e-13
4.83903410152e-13
4.83903411918e-13
4.83903413713e-13
4.83903415533e-13
4.83903417321e-13
4.83903419067e-13
4.83903420786e-13
4.83903422549e-13
4.83903424331e-13
4.83903426078e-13
4.83903427802e-13
4.8390342951e-13
4.83903431271e-13
4.83903433068e-13
4.83903434827e-13
4.83903436548e-13
4.83903438251e-13
4.83903440002e-13
4.83903441725e-13
4.8390344344e-13
4.83903445133e-13
4.83903446784e-13
4.83903448411e-13
4.83903450117e-13
4.83903451833e-13
4.83903453525e-13
4.83903455213e-13
4.83903456885e-13
4.8390345855e-13
4.83903460211e-13
4.83903461848e-13
4.83903463493e-13
4.83903465137e-13
4.83903466792e-13
4.83903468496e-13
4.83903470145e-13
4.83903471774e-13
4.839034734e-13
4.83903475021e-13
4.8390347665e-13
4.83903478332e-13
4.8390348001e-13
4.83903481692e-13
4.83903483326e-13
4.8390348492e-13
4.83903486506e-13
4.83903488083e-13
4.83903489657e-13
4.83903491217e-13
4.83903492803e-13
4.8390349442e-13
4.8390349605e-13
4.83903497738e-13
4.83903499395e-13
4.83903501036e-13
4.83903502724e-13
4.83903504409e-13
4.8390350604e-13
4.8390350761e-13
4.83903509163e-13
4.83903510725e-13
4.83903512283e-13
4.8390351384e-13
4.83903515362e-13
4.83903516854e-13
4.83903518328e-13
4.83903519797e-13
4.8390352123e-13
4.83903522679e-13
4.83903524162e-13
4.83903525644e-13
4.83903527106e-13
4.83903528579e-13
4.83903530079e-13
4.83903531616e-13
4.83903533138e-13
4.83903534641e-13
4.83903536109e-13
4.83903537628e-13
4.83903539146e-13
4.83903540647e-13
4.83903542135e-13
4.83903543602e-13
4.83903545058e-13
4.83903546519e-13
4.83903547977e-13
4.83903549416e-13
4.83903550854e-13
4.83903552286e-13
4.83903553705e-13
4.83903555115e-13
4.83903556511e-13
4.83903557871e-13
4.83903559184e-13
4.83903560502e-13
4.83903561883e-13
4.83903563238e-13
4.83903564582e-13
4.83903565913e-13
4.83903567252e-13
4.83903568563e-13