/*--------------------------------*- C++ -*----------------------------------*\
| =========                 |                                                 |
| \\      /  F ield         | OpenFOAM: The Open Source CFD Toolbox           |
|  \\    /   O peration     | Version:  2312                                  |
|   \\  /    A nd           | Website:  www.openfoam.com                      |
|    \\/     M anipulation  |                                                 |
\*---------------------------------------------------------------------------*/
FoamFile
{
    version     2.0;
    format      ascii;
    arch        "LSB;label=32;scalar=64";
    class       volVectorField;
    location    "0.005";
    object      U;
}
// * * * * * * * * * * * * * * * * * * * * * * * * * * * * * * * * * * * * * //

dimensions      [0 1 -1 0 0 0 0];

internalField   nonuniform List<vector> 
8000
(
(10.0004884434 0 0)
(10.0004407732 0 0)
(10.0003456357 0 0)
(10.0002435158 0 0)
(10.000239922 0 0)
(10.0002635755 0 0)
(10.0002933975 0 0)
(10.0002926173 0 0)
(10.0002807859 0 0)
(10.0002763433 0 0)
(10.0002798349 0 0)
(10.0002818693 0 0)
(10.0002841093 0 0)
(10.0002821043 0 0)
(10.0002813259 0 0)
(10.0002825183 0 0)
(10.0002817155 0 0)
(10.0002826321 0 0)
(10.000282537 0 0)
(10.0002825204 0 0)
(10.0002827916 0 0)
(10.000282762 0 0)
(10.0002831502 0 0)
(10.0002830551 0 0)
(10.0002832782 0 0)
(10.00028344 0 0)
(10.0002836373 0 0)
(10.0002837427 0 0)
(10.0002837775 0 0)
(10.0002841822 0 0)
(10.0002843394 0 0)
(10.0002842481 0 0)
(10.0002845852 0 0)
(10.0002849184 0 0)
(10.000285061 0 0)
(10.0002850744 0 0)
(10.0002853241 0 0)
(10.0002856879 0 0)
(10.0002858963 0 0)
(10.0002857511 0 0)
(10.0002863713 0 0)
(10.0002865364 0 0)
(10.0002866373 0 0)
(10.0002868707 0 0)
(10.0002871837 0 0)
(10.0002875745 0 0)
(10.0002873935 0 0)
(10.0002878618 0 0)
(10.0002883934 0 0)
(10.0002882823 0 0)
(10.0002885934 0 0)
(10.0002891417 0 0)
(10.0002890789 0 0)
(10.0002893957 0 0)
(10.0002901103 0 0)
(10.0002898305 0 0)
(10.0002901607 0 0)
(10.0002911471 0 0)
(10.0002906985 0 0)
(10.0002909455 0 0)
(10.0002921126 0 0)
(10.0002915168 0 0)
(10.0002923164 0 0)
(10.0002925504 0 0)
(10.0002925861 0 0)
(10.0002935797 0 0)
(10.0002932684 0 0)
(10.0002936079 0 0)
(10.0002946479 0 0)
(10.0002944541 0 0)
(10.0002947001 0 0)
(10.0002954735 0 0)
(10.0002956479 0 0)
(10.0002958518 0 0)
(10.0002964002 0 0)
(10.0002969374 0 0)
(10.0002968863 0 0)
(10.000297388 0 0)
(10.0002982143 0 0)
(10.0002981122 0 0)
(10.0002986149 0 0)
(10.0002991874 0 0)
(10.0002995644 0 0)
(10.0002996832 0 0)
(10.0003003805 0 0)
(10.0003009057 0 0)
(10.0003010197 0 0)
(10.0003017877 0 0)
(10.0003016223 0 0)
(10.0003027166 0 0)
(10.0003029677 0 0)
(10.0003029047 0 0)
(10.0003044055 0 0)
(10.000303858 0 0)
(10.0003045128 0 0)
(10.0003054713 0 0)
(10.0003055564 0 0)
(10.000305988 0 0)
(10.0003065312 0 0)
(10.0003072215 0 0)
(10.0003074961 0 0)
(10.0003077187 0 0)
(10.0003089809 0 0)
(10.0003087545 0 0)
(10.0003092844 0 0)
(10.0003105436 0 0)
(10.0003100033 0 0)
(10.000311213 0 0)
(10.0003116253 0 0)
(10.0003117216 0 0)
(10.0003129992 0 0)
(10.0003127368 0 0)
(10.0003137758 0 0)
(10.0003143663 0 0)
(10.0003143459 0 0)
(10.000315572 0 0)
(10.0003154858 0 0)
(10.000316298 0 0)
(10.0003171278 0 0)
(10.0003170978 0 0)
(10.0003183057 0 0)
(10.0003184523 0 0)
(10.0003190149 0 0)
(10.0003200225 0 0)
(10.0003200076 0 0)
(10.0003208749 0 0)
(10.0003216953 0 0)
(10.0003217451 0 0)
(10.0003226792 0 0)
(10.0003233682 0 0)
(10.0003236115 0 0)
(10.000324418 0 0)
(10.0003252234 0 0)
(10.0003254654 0 0)
(10.0003262445 0 0)
(10.0003271105 0 0)
(10.0003272421 0 0)
(10.0003281173 0 0)
(10.0003290306 0 0)
(10.0003290443 0 0)
(10.0003299728 0 0)
(10.0003308917 0 0)
(10.0003309476 0 0)
(10.0003320268 0 0)
(10.0003327727 0 0)
(10.000332968 0 0)
(10.0003341612 0 0)
(10.000334519 0 0)
(10.0003350367 0 0)
(10.0003361553 0 0)
(10.0003362813 0 0)
(10.0003371304 0 0)
(10.0003381814 0 0)
(10.0003382434 0 0)
(10.000339336 0 0)
(10.0003401475 0 0)
(10.0003403644 0 0)
(10.0003414787 0 0)
(10.0003421104 0 0)
(10.0003425914 0 0)
(10.0003435461 0 0)
(10.0003440019 0 0)
(10.0003447842 0 0)
(10.0003456652 0 0)
(10.0003461828 0 0)
(10.0003470182 0 0)
(10.0003477513 0 0)
(10.0003483645 0 0)
(10.0003492149 0 0)
(10.0003498045 0 0)
(10.0003506513 0 0)
(10.0003514163 0 0)
(10.0003520358 0 0)
(10.0003530637 0 0)
(10.000353441 0 0)
(10.0003542618 0 0)
(10.0003552775 0 0)
(10.0003556625 0 0)
(10.0003566983 0 0)
(10.0003574169 0 0)
(10.0003579482 0 0)
(10.0003590779 0 0)
(10.0003595597 0 0)
(10.0003603343 0 0)
(10.0003613853 0 0)
(10.0003618352 0 0)
(10.0003628372 0 0)
(10.0003636314 0 0)
(10.0003642532 0 0)
(10.00036528 0 0)
(10.0003659682 0 0)
(10.0003667796 0 0)
(10.0003675058 0 0)
(10.0003683303 0 0)
(10.0003692055 0 0)
(10.0003699652 0 0)
(10.0003708554 0 0)
(10.0003714469 0 0)
(10.0003724883 0 0)
(10.0003731553 0 0)
(10.0003739685 0 0)
(10.000375 0 0)
(10.0003755824 0 0)
(10.0003766141 0 0)
(10.0003774049 0 0)
(10.0003780159 0 0)
(10.0003790435 0 0)
(10.0003797685 0 0)
(10.0003806098 0 0)
(10.0003816373 0 0)
(10.0003822508 0 0)
(10.0003832528 0 0)
(10.0003841043 0 0)
(10.0003849152 0 0)
(10.0003858053 0 0)
(10.0003866375 0 0)
(10.0003875593 0 0)
(10.0003883389 0 0)
(10.0003892669 0 0)
(10.0003900201 0 0)
(10.000390858 0 0)
(10.0003918534 0 0)
(10.0003926346 0 0)
(10.0003935657 0 0)
(10.0003944563 0 0)
(10.0003952683 0 0)
(10.000396149 0 0)
(10.0003970917 0 0)
(10.0003979157 0 0)
(10.0003988491 0 0)
(10.0003997252 0 0)
(10.000400564 0 0)
(10.0004015198 0 0)
(10.0004023811 0 0)
(10.0004032927 0 0)
(10.0004042278 0 0)
(10.0004050643 0 0)
(10.0004060233 0 0)
(10.0004069036 0 0)
(10.0004078338 0 0)
(10.0004088177 0 0)
(10.0004096326 0 0)
(10.000410554 0 0)
(10.0004114805 0 0)
(10.0004123998 0 0)
(10.0004132851 0 0)
(10.0004141596 0 0)
(10.0004151277 0 0)
(10.000415997 0 0)
(10.0004169229 0 0)
(10.0004178271 0 0)
(10.0004187577 0 0)
(10.0004196763 0 0)
(10.0004206487 0 0)
(10.0004215919 0 0)
(10.0004225256 0 0)
(10.0004234315 0 0)
(10.0004243645 0 0)
(10.000425343 0 0)
(10.0004262229 0 0)
(10.0004271628 0 0)
(10.0004281298 0 0)
(10.0004290875 0 0)
(10.0004300543 0 0)
(10.0004309704 0 0)
(10.0004319143 0 0)
(10.0004328286 0 0)
(10.0004337965 0 0)
(10.0004347351 0 0)
(10.0004357015 0 0)
(10.0004366303 0 0)
(10.0004375696 0 0)
(10.0004385829 0 0)
(10.0004395395 0 0)
(10.0004404293 0 0)
(10.0004413376 0 0)
(10.0004423569 0 0)
(10.0004433262 0 0)
(10.0004443403 0 0)
(10.0004452465 0 0)
(10.0004461847 0 0)
(10.0004471569 0 0)
(10.0004480827 0 0)
(10.0004490394 0 0)
(10.0004500095 0 0)
(10.0004509589 0 0)
(10.0004519354 0 0)
(10.0004528964 0 0)
(10.0004539024 0 0)
(10.0004548193 0 0)
(10.0004557691 0 0)
(10.0004568149 0 0)
(10.000457772 0 0)
(10.0004587472 0 0)
(10.0004596863 0 0)
(10.0004606478 0 0)
(10.0004616578 0 0)
(10.0004626319 0 0)
(10.0004635883 0 0)
(10.0004645411 0 0)
(10.0004655356 0 0)
(10.0004664876 0 0)
(10.0004674557 0 0)
(10.0004683818 0 0)
(10.0004693378 0 0)
(10.0004703565 0 0)
(10.0004713022 0 0)
(10.0004723085 0 0)
(10.0004732829 0 0)
(10.0004742738 0 0)
(10.0004752072 0 0)
(10.0004761583 0 0)
(10.000477212 0 0)
(10.0004781615 0 0)
(10.0004791646 0 0)
(10.0004800681 0 0)
(10.0004810283 0 0)
(10.0004820768 0 0)
(10.0004830092 0 0)
(10.0004840032 0 0)
(10.0004849495 0 0)
(10.0004859285 0 0)
(10.0004869563 0 0)
(10.0004878646 0 0)
(10.0004888367 0 0)
(10.0004898125 0 0)
(10.0004907768 0 0)
(10.0004917758 0 0)
(10.0004927149 0 0)
(10.0004937374 0 0)
(10.0004946804 0 0)
(10.0004956298 0 0)
(10.0004966292 0 0)
(10.0004975797 0 0)
(10.000498605 0 0)
(10.0004995424 0 0)
(10.0005004704 0 0)
(10.0005014513 0 0)
(10.0005023988 0 0)
(10.0005034058 0 0)
(10.0005043529 0 0)
(10.0005052947 0 0)
(10.0005062975 0 0)
(10.0005072416 0 0)
(10.0005082032 0 0)
(10.0005092017 0 0)
(10.0005101326 0 0)
(10.0005110668 0 0)
(10.00051204 0 0)
(10.0005130198 0 0)
(10.0005139515 0 0)
(10.0005149089 0 0)
(10.0005158867 0 0)
(10.0005168899 0 0)
(10.0005178004 0 0)
(10.0005187173 0 0)
(10.0005197507 0 0)
(10.0005206843 0 0)
(10.0005216028 0 0)
(10.0005225396 0 0)
(10.0005234932 0 0)
(10.0005244602 0 0)
(10.000525405 0 0)
(10.0005263633 0 0)
(10.0005272848 0 0)
(10.0005282468 0 0)
(10.000529167 0 0)
(10.0005301167 0 0)
(10.0005310775 0 0)
(10.000531993 0 0)
(10.000532954 0 0)
(10.0005338586 0 0)
(10.0005347932 0 0)
(10.0005357315 0 0)
(10.0005366376 0 0)
(10.0005376105 0 0)
(10.0005385098 0 0)
(10.0005394416 0 0)
(10.0005403913 0 0)
(10.0005412791 0 0)
(10.0005422207 0 0)
(10.0005431216 0 0)
(10.0005440443 0 0)
(10.0005449526 0 0)
(10.0005458935 0 0)
(10.0005468094 0 0)
(10.0005476934 0 0)
(10.0005486298 0 0)
(10.0005494809 0 0)
(10.0005504034 0 0)
(10.0005513333 0 0)
(10.0005522132 0 0)
(10.0005531447 0 0)
(10.0005540227 0 0)
(10.0005548995 0 0)
(10.0005558599 0 0)
(10.0005566956 0 0)
(10.0005575591 0 0)
(10.0005584829 0 0)
(10.0005593731 0 0)
(10.0005602902 0 0)
(10.0005611193 0 0)
(10.0005619725 0 0)
(10.000562861 0 0)
(10.0005638066 0 0)
(10.0005646391 0 0)
(10.0005654982 0 0)
(10.0005663765 0 0)
(10.0005672074 0 0)
(10.0005681332 0 0)
(10.0005689578 0 0)
(10.0005698102 0 0)
(10.0005707033 0 0)
(10.0005715081 0 0)
(10.0005723998 0 0)
(10.0005732236 0 0)
(10.0005740742 0 0)
(10.0005749239 0 0)
(10.0005757326 0 0)
(10.000576647 0 0)
(10.0005774466 0 0)
(10.0005782696 0 0)
(10.0005791218 0 0)
(10.0005798877 0 0)
(10.0005807447 0 0)
(10.0005815959 0 0)
(10.0005824102 0 0)
(10.0005832485 0 0)
(10.0005839717 0 0)
(10.0005848456 0 0)
(10.0005856676 0 0)
(10.000586454 0 0)
(10.000587289 0 0)
(10.0005880351 0 0)
(10.0005888726 0 0)
(10.0005896458 0 0)
(10.0005904253 0 0)
(10.0005912371 0 0)
(10.0005920047 0 0)
(10.0005928419 0 0)
(10.0005935987 0 0)
(10.0005943644 0 0)
(10.0005950825 0 0)
(10.0005958638 0 0)
(10.0005967198 0 0)
(10.0005973894 0 0)
(10.0005982171 0 0)
(10.0005989756 0 0)
(10.000599671 0 0)
(10.0006004331 0 0)
(10.0006011977 0 0)
(10.0006019843 0 0)
(10.0006026442 0 0)
(10.0006034164 0 0)
(10.0006041744 0 0)
(10.0006048585 0 0)
(10.0006056144 0 0)
(10.0006063105 0 0)
(10.0006071431 0 0)
(10.0006077642 0 0)
(10.0006084212 0 0)
(10.0006092198 0 0)
(10.0006098908 0 0)
(10.0006106339 0 0)
(10.0006112609 0 0)
(10.000611957 0 0)
(10.0006127625 0 0)
(10.0006133144 0 0)
(10.000614104 0 0)
(10.0006148011 0 0)
(10.0006153908 0 0)
(10.0006160964 0 0)
(10.0006166926 0 0)
(10.0006174569 0 0)
(10.0006181706 0 0)
(10.0006186354 0 0)
(10.0006193924 0 0)
(10.0006201022 0 0)
(10.0006207166 0 0)
(10.0006214234 0 0)
(10.0006218997 0 0)
(10.0006225211 0 0)
(10.0006233185 0 0)
(10.0006238401 0 0)
(10.0006244346 0 0)
(10.0006251743 0 0)
(10.0006256648 0 0)
(10.0006264458 0 0)
(10.0006269601 0 0)
(10.0006274155 0 0)
(10.0006281056 0 0)
(10.0006287371 0 0)
(10.0006294305 0 0)
(10.0006298785 0 0)
(10.000630429 0 0)
(10.000631065 0 0)
(10.0006316315 0 0)
(10.0006323173 0 0)
(10.0006326657 0 0)
(10.0006332136 0 0)
(10.0006339618 0 0)
(10.0006345174 0 0)
(10.0006349668 0 0)
(10.0006353617 0 0)
(10.0006360562 0 0)
(10.0006366975 0 0)
(10.0006371458 0 0)
(10.0006376098 0 0)
(10.0006380047 0 0)
(10.0006386605 0 0)
(10.0006393578 0 0)
(10.0006397591 0 0)
(10.0006400839 0 0)
(10.0006404536 0 0)
(10.000641562 0 0)
(10.0006415411 0 0)
(10.0006418179 0 0)
(10.0006428622 0 0)
(10.0006431092 0 0)
(10.0006435245 0 0)
(10.0006438894 0 0)
(10.0006443693 0 0)
(10.0006451093 0 0)
(10.000645302 0 0)
(10.000645837 0 0)
(10.0006461493 0 0)
(10.0006465396 0 0)
(10.0006473284 0 0)
(10.0006474244 0 0)
(10.0006480103 0 0)
(10.0006482724 0 0)
(10.0006486021 0 0)
(10.0006494644 0 0)
(10.0006493719 0 0)
(10.0006500834 0 0)
(10.0006502839 0 0)
(10.0006504939 0 0)
(10.0006513581 0 0)
(10.0006515093 0 0)
(10.000651782 0 0)
(10.0006520852 0 0)
(10.0006525737 0 0)
(10.0006530928 0 0)
(10.0006532666 0 0)
(10.0006536673 0 0)
(10.0006537291 0 0)
(10.0006542233 0 0)
(10.0006549867 0 0)
(10.0006544167 0 0)
(10.000655377 0 0)
(10.0006559129 0 0)
(10.0006551836 0 0)
(10.0006563353 0 0)
(10.0006568286 0 0)
(10.0006562703 0 0)
(10.0006569316 0 0)
(10.0006575572 0 0)
(10.0006574565 0 0)
(10.0006579368 0 0)
(10.0006578151 0 0)
(10.0006583043 0 0)
(10.0006587952 0 0)
(10.0006586783 0 0)
(10.000659287 0 0)
(10.0006589433 0 0)
(10.0006595236 0 0)
(10.0006602166 0 0)
(10.0006596218 0 0)
(10.0006601228 0 0)
(10.000660602 0 0)
(10.0006603395 0 0)
(10.0006608611 0 0)
(10.0006609005 0 0)
(10.0006612147 0 0)
(10.0006611265 0 0)
(10.0006615883 0 0)
(10.000661599 0 0)
(10.000661747 0 0)
(10.0006623255 0 0)
(10.0006615696 0 0)
(10.0006624303 0 0)
(10.0006627144 0 0)
(10.0006618549 0 0)
(10.0006629128 0 0)
(10.0006629035 0 0)
(10.0006628578 0 0)
(10.0006628315 0 0)
(10.0006629823 0 0)
(10.0006635655 0 0)
(10.0006626454 0 0)
(10.0006635499 0 0)
(10.0006637597 0 0)
(10.0006630485 0 0)
(10.0006634612 0 0)
(10.0006638669 0 0)
(10.0006636745 0 0)
(10.0006634828 0 0)
(10.0006637389 0 0)
(10.0006639035 0 0)
(10.0006635958 0 0)
(10.0006637341 0 0)
(10.000664109 0 0)
(10.0006636623 0 0)
(10.000663869 0 0)
(10.0006639447 0 0)
(10.0006636068 0 0)
(10.0006639866 0 0)
(10.0006636659 0 0)
(10.0006638299 0 0)
(10.0006638679 0 0)
(10.0006635064 0 0)
(10.0006636409 0 0)
(10.0006636947 0 0)
(10.0006634471 0 0)
(10.0006634669 0 0)
(10.0006635629 0 0)
(10.0006630312 0 0)
(10.0006633411 0 0)
(10.0006633063 0 0)
(10.0006628107 0 0)
(10.0006631314 0 0)
(10.0006628938 0 0)
(10.0006626038 0 0)
(10.0006626628 0 0)
(10.0006625866 0 0)
(10.0006620034 0 0)
(10.0006624019 0 0)
(10.0006621749 0 0)
(10.0006616462 0 0)
(10.0006618454 0 0)
(10.0006615288 0 0)
(10.0006615063 0 0)
(10.0006612968 0 0)
(10.0006610153 0 0)
(10.0006605768 0 0)
(10.0006608707 0 0)
(10.000660526 0 0)
(10.0006601863 0 0)
(10.0006600251 0 0)
(10.0006595247 0 0)
(10.0006599156 0 0)
(10.0006593629 0 0)
(10.0006589137 0 0)
(10.0006588937 0 0)
(10.0006584643 0 0)
(10.0006584533 0 0)
(10.0006579346 0 0)
(10.000657727 0 0)
(10.0006576366 0 0)
(10.0006571683 0 0)
(10.0006567571 0 0)
(10.0006568033 0 0)
(10.0006561885 0 0)
(10.0006558795 0 0)
(10.0006558628 0 0)
(10.0006552119 0 0)
(10.0006550085 0 0)
(10.0006546931 0 0)
(10.0006544198 0 0)
(10.0006539042 0 0)
(10.0006535505 0 0)
(10.0006534283 0 0)
(10.0006526214 0 0)
(10.0006524363 0 0)
(10.000652236 0 0)
(10.0006516349 0 0)
(10.0006511517 0 0)
(10.0006510624 0 0)
(10.0006504204 0 0)
(10.0006498764 0 0)
(10.0006498253 0 0)
(10.0006491292 0 0)
(10.0006485845 0 0)
(10.0006485099 0 0)
(10.0006477931 0 0)
(10.0006472028 0 0)
(10.0006471273 0 0)
(10.000646346 0 0)
(10.0006458629 0 0)
(10.0006456427 0 0)
(10.0006448086 0 0)
(10.0006445623 0 0)
(10.0006440722 0 0)
(10.0006433259 0 0)
(10.0006428572 0 0)
(10.0006425304 0 0)
(10.0006419698 0 0)
(10.0006410378 0 0)
(10.0006409835 0 0)
(10.0006402804 0 0)
(10.000639348 0 0)
(10.0006393483 0 0)
(10.0006384791 0 0)
(10.000637766 0 0)
(10.0006375692 0 0)
(10.000636619 0 0)
(10.0006361172 0 0)
(10.0006355489 0 0)
(10.0006348773 0 0)
(10.0006346072 0 0)
(10.0006335471 0 0)
(10.0006329834 0 0)
(10.0006326506 0 0)
(10.000631575 0 0)
(10.0006311919 0 0)
(10.0006304674 0 0)
(10.0006296148 0 0)
(10.0006292746 0 0)
(10.0006281681 0 0)
(10.0006277964 0 0)
(10.0006273918 0 0)
(10.0006260959 0 0)
(10.0006256732 0 0)
(10.0006249276 0 0)
(10.0006239993 0 0)
(10.0006236755 0 0)
(10.0006225241 0 0)
(10.0006219984 0 0)
(10.0006215753 0 0)
(10.0006202608 0 0)
(10.0006197377 0 0)
(10.0006189945 0 0)
(10.0006179817 0 0)
(10.0006174205 0 0)
(10.0006166105 0 0)
(10.0006157282 0 0)
(10.0006147259 0 0)
(10.0006140729 0 0)
(10.0006136127 0 0)
(10.0006125755 0 0)
(10.0006115206 0 0)
(10.000610924 0 0)
(10.0006098771 0 0)
(10.0006090902 0 0)
(10.0006084067 0 0)
(10.0006073491 0 0)
(10.0006065427 0 0)
(10.0006057882 0 0)
(10.0006047035 0 0)
(10.0006038387 0 0)
(10.0006031541 0 0)
(10.0006020191 0 0)
(10.0006011048 0 0)
(10.0006004227 0 0)
(10.0005992653 0 0)
(10.0005983385 0 0)
(10.0005976262 0 0)
(10.000596462 0 0)
(10.0005954956 0 0)
(10.0005947779 0 0)
(10.0005935902 0 0)
(10.0005925925 0 0)
(10.0005918683 0 0)
(10.0005906535 0 0)
(10.0005896493 0 0)
(10.0005888989 0 0)
(10.000587652 0 0)
(10.0005865958 0 0)
(10.000585844 0 0)
(10.0005846407 0 0)
(10.0005834234 0 0)
(10.0005826453 0 0)
(10.00058175 0 0)
(10.0005806665 0 0)
(10.000579467 0 0)
(10.0005781843 0 0)
(10.0005776024 0 0)
(10.000576401 0 0)
(10.0005748984 0 0)
(10.000574278 0 0)
(10.0005729376 0 0)
(10.0005716773 0 0)
(10.0005709435 0 0)
(10.000569692 0 0)
(10.0005681596 0 0)
(10.0005674 0 0)
(10.0005665579 0 0)
(10.0005651464 0 0)
(10.0005638388 0 0)
(10.0005628153 0 0)
(10.0005620267 0 0)
(10.0005607862 0 0)
(10.0005589147 0 0)
(10.0005582101 0 0)
(10.0005571007 0 0)
(10.0005554318 0 0)
(10.0005544898 0 0)
(10.0005536613 0 0)
(10.0005521505 0 0)
(10.0005505303 0 0)
(10.0005498412 0 0)
(10.0005486813 0 0)
(10.0005469618 0 0)
(10.0005460879 0 0)
(10.0005447654 0 0)
(10.0005431344 0 0)
(10.0005423486 0 0)
(10.0005411192 0 0)
(10.0005393474 0 0)
(10.0005382893 0 0)
(10.0005374278 0 0)
(10.0005358836 0 0)
(10.0005341304 0 0)
(10.0005333937 0 0)
(10.0005321184 0 0)
(10.0005301606 0 0)
(10.0005291191 0 0)
(10.0005282157 0 0)
(10.0005266062 0 0)
(10.0005250278 0 0)
(10.00052395 0 0)
(10.0005225959 0 0)
(10.0005215551 0 0)
(10.0005199249 0 0)
(10.0005179371 0 0)
(10.0005172319 0 0)
(10.0005158821 0 0)
(10.0005137936 0 0)
(10.0005128534 0 0)
(10.0005117771 0 0)
(10.0005100813 0 0)
(10.0005086972 0 0)
(10.000507116 0 0)
(10.0005059327 0 0)
(10.0005045907 0 0)
(10.0005024421 0 0)
(10.0005015404 0 0)
(10.0005002754 0 0)
(10.0004981783 0 0)
(10.0004969145 0 0)
(10.0004959299 0 0)
(10.0004942922 0 0)
(10.0004924464 0 0)
(10.0004911275 0 0)
(10.0004899344 0 0)
(10.0004884669 0 0)
(10.000486595 0 0)
(10.0004846708 0 0)
(10.0004838757 0 0)
(10.0004823889 0 0)
(10.0004800581 0 0)
(10.0004791883 0 0)
(10.0004778007 0 0)
(10.0004754493 0 0)
(10.0004744364 0 0)
(10.0004731603 0 0)
(10.0004709596 0 0)
(10.0004696651 0 0)
(10.0004685138 0 0)
(10.0004665698 0 0)
(10.0004648744 0 0)
(10.0004634898 0 0)
(10.000461919 0 0)
(10.0004604082 0 0)
(10.0004584075 0 0)
(10.0004567902 0 0)
(10.000455635 0 0)
(10.0004538673 0 0)
(10.0004517822 0 0)
(10.0004505317 0 0)
(10.0004491677 0 0)
(10.0004470468 0 0)
(10.0004453377 0 0)
(10.000444116 0 0)
(10.0004421219 0 0)
(10.0004404712 0 0)
(10.0004391286 0 0)
(10.0004370522 0 0)
(10.000435146 0 0)
(10.0004340474 0 0)
(10.0004324552 0 0)
(10.000430054 0 0)
(10.0004287375 0 0)
(10.0004272638 0 0)
(10.0004253952 0 0)
(10.0004237431 0 0)
(10.0004215617 0 0)
(10.0004200858 0 0)
(10.0004186881 0 0)
(10.0004165129 0 0)
(10.0004144796 0 0)
(10.0004133866 0 0)
(10.0004117679 0 0)
(10.0004091038 0 0)
(10.0004077844 0 0)
(10.0004064946 0 0)
(10.0004042014 0 0)
(10.0004020215 0 0)
(10.0004009824 0 0)
(10.0003993757 0 0)
(10.0003965849 0 0)
(10.0003953185 0 0)
(10.0003940046 0 0)
(10.0003914281 0 0)
(10.0003895273 0 0)
(10.0003884135 0 0)
(10.0003866045 0 0)
(10.0003838897 0 0)
(10.0003826241 0 0)
(10.0003812242 0 0)
(10.0003786117 0 0)
(10.0003769397 0 0)
(10.0003755876 0 0)
(10.0003732338 0 0)
(10.0003712028 0 0)
(10.0003699534 0 0)
(10.0003680467 0 0)
(10.0003656481 0 0)
(10.0003640826 0 0)
(10.0003623166 0 0)
(10.0003602866 0 0)
(10.0003584903 0 0)
(10.0003564908 0 0)
(10.0003543687 0 0)
(10.0003528152 0 0)
(10.0003509394 0 0)
(10.0003486006 0 0)
(10.000347015 0 0)
(10.0003451721 0 0)
(10.000342847 0 0)
(10.0003412482 0 0)
(10.0003393965 0 0)
(10.0003371142 0 0)
(10.0003353339 0 0)
(10.0003334418 0 0)
(10.0003314379 0 0)
(10.0003294753 0 0)
(10.0003274911 0 0)
(10.0003255846 0 0)
(10.0003236503 0 0)
(10.000321547 0 0)
(10.0003195544 0 0)
(10.0003176548 0 0)
(10.0003154448 0 0)
(10.0003136613 0 0)
(10.000311766 0 0)
(10.0003093553 0 0)
(10.000307705 0 0)
(10.0003058224 0 0)
(10.0003031644 0 0)
(10.000301559 0 0)
(10.0002998898 0 0)
(10.0002974535 0 0)
(10.0002951626 0 0)
(10.0002935944 0 0)
(10.0002917107 0 0)
(10.0002892724 0 0)
(10.0002872617 0 0)
(10.0002854351 0 0)
(10.0002833132 0 0)
(10.0002811763 0 0)
(10.0002792268 0 0)
(10.0002770621 0 0)
(10.000275033 0 0)
(10.0002730638 0 0)
(10.0002708605 0 0)
(10.0002687787 0 0)
(10.0002668875 0 0)
(10.0002646904 0 0)
(10.000262472 0 0)
(10.0002605587 0 0)
(10.0002584396 0 0)
(10.0002562999 0 0)
(10.0002541758 0 0)
(10.0002520588 0 0)
(10.000250151 0 0)
(10.0002479909 0 0)
(10.0002455948 0 0)
(10.000243668 0 0)
(10.0002416542 0 0)
(10.0002394952 0 0)
(10.0002372405 0 0)
(10.0002351497 0 0)
(10.0002330639 0 0)
(10.0002309567 0 0)
(10.0002287825 0 0)
(10.0002264452 0 0)
(10.0002245678 0 0)
(10.0002225437 0 0)
(10.0002200844 0 0)
(10.0002179229 0 0)
(10.0002160099 0 0)
(10.0002137657 0 0)
(10.0002114824 0 0)
(10.0002094335 0 0)
(10.0002072431 0 0)
(10.0002050977 0 0)
(10.0002029077 0 0)
(10.000200642 0 0)
(10.0001986199 0 0)
(10.0001964067 0 0)
(10.0001940874 0 0)
(10.0001920249 0 0)
(10.0001898031 0 0)
(10.0001876492 0 0)
(10.0001854783 0 0)
(10.0001831486 0 0)
(10.0001810708 0 0)
(10.0001788753 0 0)
(10.0001765413 0 0)
(10.0001744861 0 0)
(10.0001722475 0 0)
(10.0001698965 0 0)
(10.0001678297 0 0)
(10.0001656087 0 0)
(10.0001633115 0 0)
(10.0001611642 0 0)
(10.0001589062 0 0)
(10.0001566747 0 0)
(10.0001544951 0 0)
(10.0001522243 0 0)
(10.0001499686 0 0)
(10.0001477532 0 0)
(10.0001455035 0 0)
(10.0001433103 0 0)
(10.0001410953 0 0)
(10.0001388075 0 0)
(10.0001365761 0 0)
(10.0001343482 0 0)
(10.0001320625 0 0)
(10.0001297952 0 0)
(10.0001275587 0 0)
(10.0001253115 0 0)
(10.00012306 0 0)
(10.0001207965 0 0)
(10.0001185105 0 0)
(10.0001162716 0 0)
(10.0001140701 0 0)
(10.0001118087 0 0)
(10.0001094388 0 0)
(10.0001072171 0 0)
(10.0001049831 0 0)
(10.0001026967 0 0)
(10.0001003807 0 0)
(10.0000981373 0 0)
(10.0000958733 0 0)
(10.0000935778 0 0)
(10.0000912896 0 0)
(10.0000890639 0 0)
(10.0000867913 0 0)
(10.0000844221 0 0)
(10.0000821618 0 0)
(10.0000799333 0 0)
(10.0000776125 0 0)
(10.0000752612 0 0)
(10.0000730231 0 0)
(10.0000707316 0 0)
(10.0000684049 0 0)
(10.000066154 0 0)
(10.0000638627 0 0)
(10.0000615262 0 0)
(10.0000592678 0 0)
(10.0000569757 0 0)
(10.0000546368 0 0)
(10.000052369 0 0)
(10.0000500644 0 0)
(10.0000477155 0 0)
(10.00004546 0 0)
(10.0000431717 0 0)
(10.000040818 0 0)
(10.0000385174 0 0)
(10.0000362434 0 0)
(10.0000339473 0 0)
(10.0000316304 0 0)
(10.0000293229 0 0)
(10.0000269926 0 0)
(10.0000246554 0 0)
(10.0000223618 0 0)
(10.0000200605 0 0)
(10.0000177387 0 0)
(10.0000154434 0 0)
(10.000013142 0 0)
(10.0000108279 0 0)
(10.0000084893 0 0)
(10.0000061606 0 0)
(10.0000038567 0 0)
(10.0000015485 0 0)
(9.99999923076 0 0)
(9.99999690746 0 0)
(9.99999458008 0 0)
(9.99999225806 0 0)
(9.99998993763 0 0)
(9.99998761865 0 0)
(9.99998530261 0 0)
(9.99998298838 0 0)
(9.99998066965 0 0)
(9.99997834353 0 0)
(9.99997600891 0 0)
(9.99997367249 0 0)
(9.99997136392 0 0)
(9.99996905687 0 0)
(9.99996674373 0 0)
(9.99996442286 0 0)
(9.99996209418 0 0)
(9.99995976975 0 0)
(9.99995745071 0 0)
(9.99995512989 0 0)
(9.9999528076 0 0)
(9.99995049522 0 0)
(9.99994818018 0 0)
(9.99994586508 0 0)
(9.99994354659 0 0)
(9.99994122269 0 0)
(9.99993889139 0 0)
(9.99993655598 0 0)
(9.99993425486 0 0)
(9.99993194773 0 0)
(9.99992962863 0 0)
(9.99992729352 0 0)
(9.9999249574 0 0)
(9.99992265204 0 0)
(9.99992034209 0 0)
(9.99991802302 0 0)
(9.99991570554 0 0)
(9.99991341718 0 0)
(9.99991111436 0 0)
(9.99990878832 0 0)
(9.99990643541 0 0)
(9.99990411478 0 0)
(9.99990182175 0 0)
(9.99989952051 0 0)
(9.99989720534 0 0)
(9.99989487246 0 0)
(9.99989256659 0 0)
(9.99989026003 0 0)
(9.99988796643 0 0)
(9.99988566985 0 0)
(9.99988336346 0 0)
(9.99988103985 0 0)
(9.99987870578 0 0)
(9.99987640319 0 0)
(9.99987411954 0 0)
(9.99987183239 0 0)
(9.99986953543 0 0)
(9.99986722832 0 0)
(9.99986491047 0 0)
(9.99986261745 0 0)
(9.99986032522 0 0)
(9.99985802773 0 0)
(9.99985571842 0 0)
(9.99985342257 0 0)
(9.99985114333 0 0)
(9.999848861 0 0)
(9.99984657245 0 0)
(9.9998442799 0 0)
(9.99984198296 0 0)
(9.99983969681 0 0)
(9.99983742448 0 0)
(9.99983514757 0 0)
(9.99983286116 0 0)
(9.9998305718 0 0)
(9.99982827562 0 0)
(9.99982601165 0 0)
(9.99982374404 0 0)
(9.99982146393 0 0)
(9.99981918603 0 0)
(9.99981690685 0 0)
(9.99981464271 0 0)
(9.99981238613 0 0)
(9.99981012366 0 0)
(9.99980786503 0 0)
(9.99980559502 0 0)
(9.99980330473 0 0)
(9.99980105117 0 0)
(9.99979879754 0 0)
(9.99979655073 0 0)
(9.9997942975 0 0)
(9.9997920353 0 0)
(9.99978979179 0 0)
(9.99978753881 0 0)
(9.99978530247 0 0)
(9.99978306735 0 0)
(9.99978080703 0 0)
(9.99977854527 0 0)
(9.99977631301 0 0)
(9.99977408166 0 0)
(9.99977184902 0 0)
(9.9997696206 0 0)
(9.99976737402 0 0)
(9.99976515247 0 0)
(9.99976293228 0 0)
(9.99976070148 0 0)
(9.9997584953 0 0)
(9.99975626652 0 0)
(9.99975401908 0 0)
(9.99975183118 0 0)
(9.99974960133 0 0)
(9.99974739226 0 0)
(9.99974520427 0 0)
(9.99974297362 0 0)
(9.99974079815 0 0)
(9.99973859574 0 0)
(9.9997363594 0 0)
(9.99973418499 0 0)
(9.99973197068 0 0)
(9.99972979266 0 0)
(9.9997276188 0 0)
(9.99972540523 0 0)
(9.99972324187 0 0)
(9.99972105709 0 0)
(9.99971889268 0 0)
(9.99971672643 0 0)
(9.99971451588 0 0)
(9.99971233101 0 0)
(9.99971017959 0 0)
(9.99970803326 0 0)
(9.99970586577 0 0)
(9.99970367721 0 0)
(9.99970152183 0 0)
(9.9996993832 0 0)
(9.99969725018 0 0)
(9.99969502839 0 0)
(9.99969292615 0 0)
(9.9996908152 0 0)
(9.99968862823 0 0)
(9.99968653932 0 0)
(9.99968436799 0 0)
(9.99968224248 0 0)
(9.99968014698 0 0)
(9.99967798301 0 0)
(9.99967587341 0 0)
(9.99967374931 0 0)
(9.99967161889 0 0)
(9.99966952472 0 0)
(9.99966743162 0 0)
(9.99966532838 0 0)
(9.99966317144 0 0)
(9.99966110053 0 0)
(9.9996590073 0 0)
(9.9996569185 0 0)
(9.99965483284 0 0)
(9.99965270877 0 0)
(9.99965065836 0 0)
(9.99964856591 0 0)
(9.9996464812 0 0)
(9.99964442557 0 0)
(9.99964232061 0 0)
(9.99964025142 0 0)
(9.99963822245 0 0)
(9.99963618558 0 0)
(9.99963409513 0 0)
(9.99963201831 0 0)
(9.99962997705 0 0)
(9.99962793069 0 0)
(9.9996259082 0 0)
(9.99962386298 0 0)
(9.99962185541 0 0)
(9.99961984532 0 0)
(9.99961772379 0 0)
(9.99961571467 0 0)
(9.99961373816 0 0)
(9.999611703 0 0)
(9.99960970366 0 0)
(9.99960772334 0 0)
(9.99960564029 0 0)
(9.9996036834 0 0)
(9.99960166074 0 0)
(9.99959966528 0 0)
(9.99959775307 0 0)
(9.99959568798 0 0)
(9.9995936797 0 0)
(9.99959175358 0 0)
(9.99958973692 0 0)
(9.99958781443 0 0)
(9.99958588229 0 0)
(9.99958381755 0 0)
(9.99958192476 0 0)
(9.99957990101 0 0)
(9.99957798619 0 0)
(9.99957611732 0 0)
(9.99957403104 0 0)
(9.99957220149 0 0)
(9.99957030192 0 0)
(9.99956817713 0 0)
(9.9995663897 0 0)
(9.99956453091 0 0)
(9.99956248371 0 0)
(9.99956063993 0 0)
(9.99955867514 0 0)
(9.99955677146 0 0)
(9.99955499766 0 0)
(9.99955301884 0 0)
(9.99955102786 0 0)
(9.9995491947 0 0)
(9.99954737811 0 0)
(9.99954551531 0 0)
(9.99954354845 0 0)
(9.999541648 0 0)
(9.99953983798 0 0)
(9.99953804542 0 0)
(9.99953615782 0 0)
(9.99953416364 0 0)
(9.99953240772 0 0)
(9.99953055462 0 0)
(9.99952873572 0 0)
(9.99952697226 0 0)
(9.99952503371 0 0)
(9.99952320859 0 0)
(9.99952139953 0 0)
(9.99951952671 0 0)
(9.99951784873 0 0)
(9.99951607866 0 0)
(9.99951411713 0 0)
(9.99951238501 0 0)
(9.99951062757 0 0)
(9.99950871911 0 0)
(9.99950693837 0 0)
(9.99950526359 0 0)
(9.99950349252 0 0)
(9.9995016159 0 0)
(9.99949988455 0 0)
(9.9994981576 0 0)
(9.99949645884 0 0)
(9.99949452197 0 0)
(9.99949286844 0 0)
(9.99949128602 0 0)
(9.99948934077 0 0)
(9.99948760379 0 0)
(9.99948599317 0 0)
(9.99948418622 0 0)
(9.99948259631 0 0)
(9.99948079262 0 0)
(9.99947899152 0 0)
(9.99947737782 0 0)
(9.99947577606 0 0)
(9.99947406736 0 0)
(9.99947209592 0 0)
(9.99947068086 0 0)
(9.9994689993 0 0)
(9.9994672264 0 0)
(9.99946563406 0 0)
(9.99946380992 0 0)
(9.99946234722 0 0)
(9.99946073437 0 0)
(9.9994588662 0 0)
(9.99945737752 0 0)
(9.99945555726 0 0)
(9.99945414578 0 0)
(9.99945263394 0 0)
(9.99945048754 0 0)
(9.99944932504 0 0)
(9.99944773313 0 0)
(9.99944578675 0 0)
(9.99944441287 0 0)
(9.99944272754 0 0)
(9.99944133597 0 0)
(9.99943979173 0 0)
(9.99943772722 0 0)
(9.99943648405 0 0)
(9.99943505406 0 0)
(9.99943315191 0 0)
(9.99943173278 0 0)
(9.99943025095 0 0)
(9.9994287793 0 0)
(9.99942712094 0 0)
(9.99942541074 0 0)
(9.99942404776 0 0)
(9.99942262244 0 0)
(9.99942113472 0 0)
(9.99941936453 0 0)
(9.99941789083 0 0)
(9.99941647408 0 0)
(9.99941502016 0 0)
(9.99941358716 0 0)
(9.99941186091 0 0)
(9.99941043291 0 0)
(9.9994091084 0 0)
(9.99940757939 0 0)
(9.99940609565 0 0)
(9.99940469172 0 0)
(9.99940302778 0 0)
(9.99940173518 0 0)
(9.999400488 0 0)
(9.99939864104 0 0)
(9.99939738934 0 0)
(9.99939610279 0 0)
(9.99939470353 0 0)
(9.9993930714 0 0)
(9.99939157214 0 0)
(9.99939042611 0 0)
(9.9993890046 0 0)
(9.99938756564 0 0)
(9.99938613689 0 0)
(9.99938453373 0 0)
(9.99938359004 0 0)
(9.99938204999 0 0)
(9.99938069782 0 0)
(9.99937945108 0 0)
(9.99937767867 0 0)
(9.99937668112 0 0)
(9.99937533915 0 0)
(9.999374024 0 0)
(9.99937256593 0 0)
(9.99937106519 0 0)
(9.99937015783 0 0)
(9.99936853406 0 0)
(9.99936746478 0 0)
(9.99936632597 0 0)
(9.99936419094 0 0)
(9.99936376558 0 0)
(9.99936218954 0 0)
(9.99936081505 0 0)
(9.99935995814 0 0)
(9.99935792437 0 0)
(9.99935717687 0 0)
(9.99935621683 0 0)
(9.99935424215 0 0)
(9.99935353163 0 0)
(9.99935200833 0 0)
(9.99935086812 0 0)
(9.99935019261 0 0)
(9.99934783242 0 0)
(9.99934726035 0 0)
(9.99934657208 0 0)
(9.99934434866 0 0)
(9.99934397402 0 0)
(9.99934198945 0 0)
(9.99934179129 0 0)
(9.99934027041 0 0)
(9.99933801463 0 0)
(9.99933863733 0 0)
(9.99933669146 0 0)
(9.99933463429 0 0)
(9.99933473522 0 0)
(9.99933352957 0 0)
(9.99933176147 0 0)
(9.99933079874 0 0)
(9.99933009482 0 0)
(9.99932824184 0 0)
(9.99932776319 0 0)
(9.99932697536 0 0)
(9.99932451617 0 0)
(9.99932485661 0 0)
(9.99932345734 0 0)
(9.99932130909 0 0)
(9.99932172529 0 0)
(9.99932016358 0 0)
(9.9993179565 0 0)
(9.99931859354 0 0)
(9.9993168362 0 0)
(9.99931542011 0 0)
(9.99931530798 0 0)
(9.9993130952 0 0)
(9.99931292367 0 0)
(9.99931185583 0 0)
(9.99931071593 0 0)
(9.9993096008 0 0)
(9.99930822303 0 0)
(9.99930849323 0 0)
(9.99930642424 0 0)
(9.99930521244 0 0)
(9.9993052931 0 0)
(9.99930346391 0 0)
(9.99930304936 0 0)
(9.99930202724 0 0)
(9.9993003146 0 0)
(9.99930040109 0 0)
(9.99929880875 0 0)
(9.9992984451 0 0)
(9.99929709016 0 0)
(9.99929579119 0 0)
(9.9992957932 0 0)