/*--------------------------------*- C++ -*----------------------------------*\
| =========                 |                                                 |
| \\      /  F ield         | OpenFOAM: The Open Source CFD Toolbox           |
|  \\    /   O peration     | Version:  2312                                  |
|   \\  /    A nd           | Website:  www.openfoam.com                      |
|    \\/     M anipulation  |                                                 |
\*---------------------------------------------------------------------------*/
FoamFile
{
    version     2.0;
    format      ascii;
    arch        "LSB;label=32;scalar=64";
    class       volScalarField;
    location    "0.0001";
    object      p_rgh;
}
// * * * * * * * * * * * * * * * * * * * * * * * * * * * * * * * * * * * * * //

dimensions      [1 -1 -2 0 0 0 0];

internalField   nonuniform List<scalar> 
800
(
1e+07
1e+07
1e+07
1e+07
1e+07
1e+07
1e+07
1e+07
1e+07
1e+07
1e+07
1e+07
1e+07
1e+07
1e+07
1e+07
1e+07
1e+07
1e+07
1e+07
1e+07
1e+07
1e+07
1e+07
1e+07
1e+07
1e+07
1e+07
1e+07
1e+07
1e+07
1e+07
1e+07
1e+07
1e+07
1e+07
1e+07
1e+07
1e+07
1e+07
1e+07
1e+07
1e+07
1e+07
1e+07
1e+07
1e+07
1e+07
1e+07
1e+07
1e+07
1e+07
1e+07
1e+07
1e+07
1e+07
1e+07
1e+07
1e+07
1e+07
1e+07
1e+07
1e+07
1e+07
1e+07
1e+07
1e+07
1e+07
1e+07
1e+07
1e+07
1e+07
1e+07
1e+07
1e+07
1e+07
1e+07
1e+07
1e+07
1e+07
1e+07
1e+07
1e+07
1e+07
1e+07
1e+07
1e+07
1e+07
1e+07
1e+07
1e+07
1e+07
1e+07
1e+07
1e+07
1e+07
1e+07
1e+07
1e+07
1e+07
1e+07
1e+07
1e+07
1e+07
1e+07
1e+07
1e+07
1e+07
1e+07
1e+07
1e+07
1e+07
1e+07
1e+07
1e+07
1e+07
1e+07
1e+07
1e+07
1e+07
1e+07
1e+07
1e+07
1e+07
1e+07
1e+07
1e+07
1e+07
1e+07
1e+07
1e+07
1e+07
1e+07
1e+07
1e+07
1e+07
1e+07
1e+07
1e+07
1e+07
1e+07
1e+07
1e+07
1e+07
1e+07
1e+07
1e+07
1e+07
1e+07
1e+07
1e+07
1e+07
1e+07
1e+07
1e+07
1e+07
1e+07
1e+07
1e+07
1e+07
1e+07
1e+07
1e+07
1e+07
1e+07
1e+07
1e+07
1e+07
1e+07
1e+07
1e+07
1e+07
1e+07
1e+07
1e+07
1e+07
1e+07
1e+07
1e+07
1e+07
1e+07
1e+07
1e+07
1e+07
1e+07
1e+07
1e+07
1e+07
1e+07
1e+07
1e+07
1e+07
1e+07
1e+07
1e+07
1e+07
1e+07
1e+07
1e+07
1e+07
1e+07
1e+07
1e+07
1e+07
1e+07
1e+07
1e+07
1e+07
1e+07
1e+07
1e+07
1e+07
1e+07
1e+07
1e+07
1e+07
1e+07
1e+07
1e+07
1e+07
1e+07
1e+07
1e+07
1e+07
1e+07
1e+07
1e+07
1e+07
1e+07
1e+07
1e+07
1e+07
1e+07
1e+07
1e+07
1e+07
1e+07
1e+07
1e+07
1e+07
1e+07
1e+07
1e+07
1e+07
1e+07
1e+07
1e+07
1e+07
1e+07
1e+07
9.99999e+06
9.99999e+06
9.99998e+06
9.99997e+06
9.99994e+06
9.99989e+06
9.99982e+06
9.99968e+06
9.99947e+06
9.9991e+06
9.99852e+06
9.99757e+06
9.99609e+06
9.99377e+06
9.99021e+06
9.98483e+06
9.97682e+06
9.96509e+06
9.94819e+06
9.92427e+06
9.89102e+06
9.84562e+06
9.78482e+06
9.70501e+06
9.60237e+06
9.47319e+06
9.31423e+06
9.12313e+06
8.89898e+06
8.64272e+06
8.35757e+06
8.04916e+06
7.72547e+06
7.39637e+06
7.07278e+06
6.76557e+06
6.48449e+06
6.23726e+06
6.02879e+06
5.86088e+06
5.73227e+06
5.63914e+06
5.57586e+06
5.53596e+06
5.51297e+06
5.50122e+06
5.49619e+06
5.49469e+06
5.49474e+06
5.49524e+06
5.49573e+06
5.49609e+06
5.49632e+06
5.49646e+06
5.49655e+06
5.49659e+06
5.49662e+06
5.49662e+06
5.49662e+06
5.49661e+06
5.4966e+06
5.49657e+06
5.49653e+06
5.4965e+06
5.49647e+06
5.49644e+06
5.49641e+06
5.49639e+06
5.49636e+06
5.49634e+06
5.49632e+06
5.49631e+06
5.49629e+06
5.49627e+06
5.49625e+06
5.49623e+06
5.49622e+06
5.4962e+06
5.49618e+06
5.49616e+06
5.49615e+06
5.49613e+06
5.49612e+06
5.4961e+06
5.49608e+06
5.49607e+06
5.49605e+06
5.49604e+06
5.49602e+06
5.49601e+06
5.496e+06
5.49598e+06
5.49597e+06
5.49596e+06
5.49595e+06
5.49594e+06
5.49593e+06
5.49592e+06
5.49592e+06
5.49591e+06
5.4959e+06
5.49589e+06
5.49588e+06
5.49587e+06
5.49586e+06
5.49584e+06
5.49583e+06
5.49583e+06
5.49582e+06
5.4958e+06
5.49579e+06
5.49578e+06
5.49577e+06
5.49575e+06
5.49573e+06
5.49572e+06
5.4957e+06
5.49569e+06
5.49568e+06
5.49567e+06
5.49565e+06
5.49564e+06
5.49562e+06
5.49561e+06
5.4956e+06
5.49559e+06
5.49558e+06
5.49556e+06
5.49555e+06
5.49554e+06
5.49552e+06
5.49551e+06
5.49549e+06
5.49548e+06
5.49547e+06
5.49545e+06
5.49544e+06
5.49543e+06
5.49541e+06
5.4954e+06
5.49539e+06
5.49538e+06
5.49537e+06
5.49536e+06
5.49533e+06
5.49545e+06
5.49519e+06
5.49542e+06
5.49556e+06
5.49469e+06
5.49571e+06
5.4951e+06
5.49501e+06
5.49535e+06
5.49512e+06
5.49516e+06
5.49517e+06
5.49517e+06
5.49516e+06
5.49515e+06
5.49514e+06
5.49513e+06
5.49511e+06
5.4951e+06
5.49508e+06
5.49507e+06
5.49506e+06
5.49505e+06
5.49504e+06
5.49502e+06
5.49501e+06
5.49499e+06
5.49498e+06
5.49496e+06
5.49494e+06
5.49493e+06
5.49492e+06
5.49491e+06
5.4949e+06
5.49489e+06
5.49488e+06
5.49487e+06
5.49485e+06
5.49484e+06
5.49483e+06
5.49482e+06
5.49482e+06
5.49481e+06
5.4948e+06
5.49479e+06
5.49478e+06
5.49477e+06
5.49476e+06
5.49476e+06
5.49475e+06
5.49475e+06
5.49475e+06
5.49475e+06
5.49474e+06
5.49474e+06
5.49474e+06
5.49473e+06
5.49472e+06
5.49472e+06
5.49471e+06
5.4947e+06
5.49469e+06
5.49468e+06
5.49467e+06
5.49466e+06
5.49465e+06
5.49464e+06
5.49463e+06
5.49461e+06
5.4946e+06
5.49459e+06
5.49458e+06
5.49456e+06
5.49455e+06
5.49453e+06
5.49451e+06
5.49449e+06
5.49448e+06
5.49446e+06
5.49444e+06
5.49442e+06
5.4944e+06
5.49437e+06
5.49435e+06
5.49433e+06
5.4943e+06
5.49427e+06
5.49425e+06
5.49422e+06
5.49419e+06
5.49416e+06
5.49412e+06
5.49409e+06
5.49406e+06
5.49402e+06
5.49399e+06
5.49395e+06
5.49392e+06
5.49389e+06
5.49388e+06
5.4939e+06
5.49396e+06
5.49407e+06
5.49425e+06
5.49456e+06
5.49501e+06
5.49554e+06
5.49585e+06
5.49514e+06
5.49182e+06
5.48319e+06
5.46523e+06
5.43258e+06
5.37886e+06
5.29727e+06
5.18147e+06
5.02655e+06
4.83e+06
4.59238e+06
4.31763e+06
4.01289e+06
3.68785e+06
3.35383e+06
3.02252e+06
2.7048e+06
2.40969e+06
2.14365e+06
1.91052e+06
1.71162e+06
1.54615e+06
1.41178e+06
1.30511e+06
1.22227e+06
1.15926e+06
1.11228e+06
1.07792e+06
1.05324e+06
1.03584e+06
1.02377e+06
1.01554e+06
1.01002e+06
1.00637e+06
1.004e+06
1.00248e+06
1.00151e+06
1.00091e+06
1.00054e+06
1.00032e+06
1.00019e+06
1.00011e+06
1.00006e+06
1.00003e+06
1.00002e+06
1.00001e+06
1.00001e+06
1e+06
1e+06
1e+06
1e+06
1e+06
1e+06
1e+06
1e+06
1e+06
1e+06
1e+06
1e+06
1e+06
1e+06
1e+06
1e+06
1e+06
1e+06
1e+06
1e+06
1e+06
1e+06
1e+06
1e+06
1e+06
1e+06
1e+06
1e+06
1e+06
1e+06
1e+06
1e+06
1e+06
1e+06
1e+06
1e+06
1e+06
1e+06
1e+06
1e+06
1e+06
1e+06
1e+06
1e+06
1e+06
1e+06
1e+06
1e+06
1e+06
1e+06
1e+06
1e+06
1e+06
1e+06
1e+06
1e+06
1e+06
1e+06
1e+06
1e+06
1e+06
1e+06
1e+06
1e+06
1e+06
1e+06
1e+06
1e+06
1e+06
1e+06
1e+06
1e+06
1e+06
1e+06
1e+06
1e+06
1e+06
1e+06
1e+06
1e+06
1e+06
1e+06
1e+06
1e+06
1e+06
1e+06
1e+06
1e+06
1e+06
1e+06
1e+06
1e+06
1e+06
1e+06
1e+06
1e+06
1e+06
1e+06
1e+06
1e+06
1e+06
1e+06
1e+06
1e+06
1e+06
1e+06
1e+06
1e+06
1e+06
1e+06
1e+06
1e+06
1e+06
1e+06
1e+06
1e+06
1e+06
1e+06
1e+06
1e+06
1e+06
1e+06
1e+06
1e+06
1e+06
1e+06
1e+06
1e+06
1e+06
1e+06
1e+06
1e+06
1e+06
1e+06
1e+06
1e+06
1e+06
1e+06
1e+06
1e+06
1e+06
1e+06
1e+06
1e+06
1e+06
1e+06
1e+06
1e+06
1e+06
1e+06
1e+06
1e+06
1e+06
1e+06
1e+06
1e+06
1e+06
1e+06
1e+06
1e+06
1e+06
1e+06
1e+06
1e+06
1e+06
1e+06
1e+06
1e+06
1e+06
1e+06
1e+06
1e+06
1e+06
1e+06
1e+06
1e+06
1e+06
1e+06
1e+06
1e+06
1e+06
1e+06
1e+06
1e+06
1e+06
1e+06
1e+06
1e+06
1e+06
1e+06
1e+06
1e+06
1e+06
1e+06
1e+06
1e+06
1e+06
1e+06
1e+06
1e+06
1e+06
1e+06
1e+06
1e+06
1e+06
1e+06
1e+06
1e+06
1e+06
1e+06
1e+06
1e+06
1e+06
1e+06
1e+06
1e+06
1e+06
1e+06
1e+06
1e+06
1e+06
1e+06
1e+06
1e+06
1e+06
1e+06
1e+06
1e+06
1e+06
1e+06
1e+06
1e+06
1e+06
1e+06
1e+06
1e+06
1e+06
1e+06
1e+06
1e+06
1e+06
1e+06
1e+06
1e+06
1e+06
1e+06
1e+06
1e+06
1e+06
1e+06
)
;

boundaryField
{
    sides
    {
        type            zeroGradient;
    }
    empty1
    {
        type            empty;
    }
    empty2
    {
        type            empty;
    }
}


// ************************************************************************* //
