/*--------------------------------*- C++ -*----------------------------------*\
| =========                 |                                                 |
| \\      /  F ield         | OpenFOAM: The Open Source CFD Toolbox           |
|  \\    /   O peration     | Version:  2312                                  |
|   \\  /    A nd           | Website:  www.openfoam.com                      |
|    \\/     M anipulation  |                                                 |
\*---------------------------------------------------------------------------*/
FoamFile
{
    version     2.0;
    format      ascii;
    arch        "LSB;label=32;scalar=64";
    class       surfaceScalarField;
    location    "0.0001";
    object      phi;
}
// * * * * * * * * * * * * * * * * * * * * * * * * * * * * * * * * * * * * * //

dimensions      [0 3 -1 0 0 0 0];

oriented        oriented;

internalField   nonuniform List<scalar> 
799
(
-7.39847e-17
-3.88287e-17
-1.38075e-17
-1.0933e-17
2.18001e-17
3.0915e-17
1.68552e-17
7.95362e-18
-7.47326e-17
-6.8897e-17
-1.32998e-17
-1.65012e-17
3.59216e-17
4.80624e-17
-3.22665e-17
-7.72593e-18
-2.9683e-17
-2.42533e-17
-2.10752e-17
-1.47455e-17
-2.96869e-17
-5.65578e-17
-3.6644e-17
-2.89309e-17
5.86952e-17
1.61796e-17
4.52724e-17
6.59385e-17
6.28685e-17
9.70916e-17
6.89573e-17
5.04953e-17
5.14321e-17
5.45799e-17
1.98819e-17
1.07487e-17
8.71632e-18
4.72111e-17
3.21457e-17
1.96094e-17
9.32976e-17
1.30663e-16
9.09244e-17
1.07221e-16
1.23576e-16
1.63598e-16
9.31266e-17
9.7075e-17
6.60175e-17
5.2437e-17
7.54728e-18
-5.17605e-17
-2.29552e-17
1.71954e-17
2.31074e-17
9.20757e-17
6.43096e-17
4.40318e-17
1.78849e-17
4.80924e-17
-1.07427e-16
-8.69421e-17
-6.50662e-17
-1.66409e-17
3.4687e-17
1.17711e-17
-8.24787e-18
-6.12358e-18
-4.38408e-18
1.09432e-17
-2.33927e-19
1.88394e-17
2.15008e-17
-5.46424e-17
-7.0645e-17
-5.06971e-17
-4.63289e-17
-7.21369e-17
-5.43929e-19
4.54534e-18
1.09221e-18
-8.70043e-19
-8.35459e-18
-8.69963e-18
-6.1054e-17
-4.35728e-17
-4.14452e-17
-5.95229e-17
-5.3837e-18
-2.95897e-17
-4.33105e-17
-3.20666e-17
-1.15258e-17
-7.08569e-18
-9.55872e-17
-3.16181e-17
4.05875e-17
1.02128e-16
1.09738e-16
1.18707e-16
1.09245e-16
4.41656e-17
7.1677e-17
9.5455e-17
8.52299e-17
6.75403e-17
5.95382e-17
7.54088e-17
5.10823e-17
3.14579e-17
1.56717e-17
9.96615e-18
2.15785e-17
3.89332e-17
5.7389e-17
-9.47078e-18
1.55723e-17
3.9987e-17
3.96923e-17
3.39792e-17
3.39216e-17
3.24188e-17
3.03572e-17
2.39898e-17
2.32724e-17
5.37982e-17
2.89616e-17
2.25371e-17
3.3387e-17
4.13493e-17
2.53002e-17
-1.09055e-18
-2.90586e-17
-3.89289e-17
-3.74193e-17
4.67713e-17
-5.40682e-18
-5.69738e-18
-1.37005e-17
4.79032e-18
-4.8702e-18
-3.35412e-17
-9.8933e-17
-7.20389e-17
-5.15376e-17
-7.11907e-17
-8.40183e-17
-6.04123e-17
-5.12608e-17
1.77834e-17
5.15431e-17
1.62135e-16
1.14068e-16
1.474e-17
4.48557e-18
2.07477e-18
-9.37079e-17
-8.15098e-17
-8.63088e-17
-9.66611e-17
-8.84069e-17
-5.154e-17
-4.16889e-17
-5.49892e-17
-5.23414e-17
-2.80029e-17
6.02926e-17
7.26283e-17
5.93346e-17
4.56854e-17
3.45327e-17
2.26122e-17
-2.44421e-18
1.07956e-17
-5.80664e-17
-6.28701e-17
1.91224e-17
3.60633e-17
-5.38482e-18
-9.48436e-17
-1.17952e-16
-1.21315e-16
-1.27574e-17
-3.05508e-17
-2.98705e-17
-4.61842e-17
-7.12739e-17
-4.28212e-17
-3.31405e-17
-3.90327e-17
6.14936e-17
6.74197e-17
7.35684e-17
8.1147e-17
7.7241e-17
1.21399e-16
1.05874e-16
8.34381e-17
5.88235e-17
2.25273e-17
-5.66703e-17
-6.75837e-17
-2.88986e-18
7.49187e-18
-4.75617e-17
3.36695e-18
-5.01912e-18
6.26013e-17
4.50793e-17
1.58461e-17
-7.52643e-17
-4.86009e-17
-5.71819e-17
-5.33946e-17
-8.85524e-17
-8.58952e-17
-9.78537e-17
-1.08019e-16
-4.73311e-17
-5.10583e-17
-2.5339e-17
-1.1e-17
-9.00729e-18
-1.90098e-17
-3.7663e-17
-4.49626e-17
-3.38566e-17
4.19699e-17
2.22233e-16
5.57716e-16
1.45534e-15
3.47713e-15
7.78948e-15
1.71415e-14
3.68515e-14
7.837e-14
1.64791e-13
3.43696e-13
7.10341e-13
1.45549e-12
2.95594e-12
5.94924e-12
1.18657e-11
2.34478e-11
4.5902e-11
8.90056e-11
1.70921e-10
3.25007e-10
6.11846e-10
1.14017e-09
2.10279e-09
3.83748e-09
6.92846e-09
1.23732e-08
2.18523e-08
3.8158e-08
6.58654e-08
1.1236e-07
1.89386e-07
3.15324e-07
5.18477e-07
8.4169e-07
1.34866e-06
2.13236e-06
3.32579e-06
5.1153e-06
7.75627e-06
1.15904e-05
1.7063e-05
2.47388e-05
3.53113e-05
4.96023e-05
6.85471e-05
9.31576e-05
0.000124462
0.000163417
0.000210797
0.00026706
0.00033222
0.000405726
0.000486385
0.000572348
0.000661177
0.000750022
0.000835889
0.000915942
0.000987781
0.00104968
0.00110071
0.00114082
0.00117072
0.00119172
0.00120548
0.0012138
0.00121833
0.00122048
0.00122128
0.00122142
0.00122133
0.00122118
0.00122107
0.00122099
0.00122094
0.00122091
0.00122089
0.00122088
0.00122088
0.00122088
0.00122088
0.00122089
0.00122089
0.0012209
0.00122091
0.00122092
0.00122093
0.00122094
0.00122094
0.00122095
0.00122096
0.00122096
0.00122097
0.00122097
0.00122098
0.00122098
0.00122098
0.00122099
0.00122099
0.001221
0.001221
0.00122101
0.00122101
0.00122101
0.00122102
0.00122102
0.00122103
0.00122103
0.00122103
0.00122104
0.00122104
0.00122104
0.00122104
0.00122105
0.00122105
0.00122105
0.00122105
0.00122106
0.00122106
0.00122106
0.00122106
0.00122106
0.00122106
0.00122107
0.00122107
0.00122107
0.00122107
0.00122107
0.00122107
0.00122108
0.00122108
0.00122108
0.00122108
0.00122109
0.00122109
0.00122109
0.00122109
0.0012211
0.0012211
0.0012211
0.0012211
0.0012211
0.0012211
0.00122111
0.00122111
0.00122111
0.00122111
0.00122111
0.00122111
0.00122111
0.00122112
0.00122112
0.00122112
0.00122112
0.00122112
0.00122112
0.00122112
0.00122112
0.00122112
0.00122112
0.00122113
0.00122113
0.00122113
0.00122113
0.00122113
0.00122113
0.00122113
0.00122113
0.00122113
0.00122113
0.00122114
0.00122113
0.00122113
0.00122113
0.00122113
0.00122113
0.00122113
0.00122113
0.00122113
0.00122113
0.00122113
0.00122113
0.00122113
0.00122113
0.00122113
0.00122113
0.00122113
0.00122113
0.00122112
0.00122112
0.00122112
0.00122112
0.00122112
0.00122111
0.00122111
0.00122111
0.00122111
0.00122111
0.00122111
0.00122111
0.00122111
0.0012211
0.0012211
0.0012211
0.0012211
0.0012211
0.0012211
0.00122109
0.00122109
0.00122109
0.00122109
0.00122109
0.00122109
0.00122108
0.00122108
0.00122108
0.00122108
0.00122108
0.00122108
0.00122108
0.00122108
0.00122108
0.00122108
0.00122108
0.00122107
0.00122107
0.00122107
0.00122107
0.00122107
0.00122107
0.00122106
0.00122106
0.00122106
0.00122106
0.00122105
0.00122105
0.00122104
0.00122104
0.00122104
0.00122103
0.00122103
0.00122103
0.00122102
0.00122102
0.00122101
0.00122101
0.001221
0.001221
0.00122099
0.00122098
0.00122098
0.00122097
0.00122096
0.00122096
0.00122095
0.00122094
0.00122093
0.00122092
0.00122091
0.0012209
0.0012209
0.00122089
0.00122088
0.00122087
0.00122086
0.00122085
0.00122085
0.00122086
0.00122088
0.00122092
0.00122099
0.00122109
0.00122123
0.00122136
0.00122134
0.00122087
0.00121936
0.00121592
0.00120926
0.00119777
0.00117966
0.00115309
0.00111651
0.00106888
0.0010099
0.000940192
0.000861255
0.000775401
0.000685517
0.00059477
0.000506272
0.000422754
0.000346329
0.0002784
0.000219658
0.000170164
0.000129476
9.68013e-05
7.11409e-05
5.14135e-05
3.65534e-05
2.55765e-05
1.76189e-05
1.19538e-05
7.99044e-06
5.2641e-06
3.41909e-06
2.19011e-06
1.38396e-06
8.62996e-07
5.31187e-07
3.22816e-07
1.93752e-07
1.14876e-07
6.72987e-08
3.89658e-08
2.23026e-08
1.26217e-08
7.06411e-09
3.91079e-09
2.14201e-09
1.16094e-09
6.22741e-10
3.30667e-10
1.73833e-10
9.04903e-11
4.6652e-11
2.38233e-11
1.20519e-11
6.04099e-12
3.00036e-12
1.47686e-12
7.20512e-13
3.48371e-13
1.66961e-13
7.93225e-14
3.73469e-14
1.73762e-14
8.06484e-15
3.66312e-15
1.66893e-15
8.28412e-16
5.26596e-16
2.9579e-16
9.28851e-17
2.02958e-17
-3.16385e-18
-7.67279e-18
-8.45851e-18
-8.25234e-18
-8.08608e-18
-7.61035e-18
-7.00346e-18
-6.69614e-18
-6.29753e-18
-6.23787e-18
-6.02261e-18
-5.65255e-18
-5.12177e-18
-4.81315e-18
-4.40251e-18
-3.76056e-18
-3.34372e-18
-2.85207e-18
-2.33389e-18
-2.10044e-18
-1.53219e-18
-1.14388e-18
-9.68149e-19
-7.48608e-19
-7.85583e-19
-7.03879e-19
-3.50584e-19
-3.70764e-19
-3.38513e-19
-3.53139e-19
-1.85907e-19
-9.35522e-20
-1.83476e-19
-4.04299e-19
-2.49159e-19
-1.43572e-19
-1.35345e-19
-1.82317e-20
-1.58282e-20
-3.0299e-20
4.89078e-19
1.06736e-18
1.50451e-18
2.04285e-18
2.59097e-18
3.09345e-18
3.75924e-18
4.58584e-18
5.26284e-18
5.88887e-18
6.5741e-18
7.42424e-18
8.1446e-18
8.61508e-18
9.2523e-18
9.71436e-18
9.82181e-18
9.76166e-18
9.86189e-18
9.74506e-18
9.8356e-18
9.77115e-18
1.00007e-17
1.01122e-17
1.03077e-17
1.06912e-17
1.09748e-17
1.1413e-17
1.17574e-17
1.21763e-17
1.27967e-17
1.31992e-17
1.35584e-17
1.38803e-17
1.44143e-17
1.5273e-17
1.60206e-17
1.68907e-17
1.8139e-17
1.90989e-17
1.98717e-17
2.061e-17
2.05919e-17
2.02325e-17
1.94097e-17
1.80246e-17
1.63288e-17
1.46536e-17
1.28978e-17
1.14096e-17
1.0437e-17
9.9297e-18
9.87425e-18
9.97638e-18
9.95702e-18
9.94385e-18
9.89095e-18
1.00942e-17
9.86061e-18
9.69143e-18
9.5788e-18
9.70185e-18
9.98664e-18
1.04242e-17
1.08476e-17
1.14217e-17
1.15856e-17
1.13491e-17
1.08652e-17
1.01089e-17
9.48699e-18
9.38676e-18
1.04397e-17
7.44153e-18
-5.30948e-17
-2.92309e-17
-3.3562e-17
-1.99246e-17
4.10585e-17
6.34998e-17
9.90532e-17
1.17939e-16
3.55559e-17
-3.4899e-17
-3.77098e-17
-2.37616e-17
-1.0467e-17
2.66967e-17
-4.72581e-18
4.19081e-17
3.98923e-17
2.3211e-17
-4.04538e-17
-3.35743e-17
-7.06742e-17
-8.81404e-17
-1.33305e-16
-1.25349e-16
-1.21714e-16
-4.67696e-17
-3.12278e-17
-1.02482e-18
1.58521e-17
1.14102e-17
-7.0673e-18
-5.0834e-17
-6.88158e-17
-8.66769e-17
-5.44931e-17
-2.89336e-17
-2.08719e-17
-3.0955e-17
-3.96183e-17
-4.40453e-17
-4.8531e-17
-6.08095e-17
7.67919e-18
-1.335e-17
-2.94827e-17
-4.38231e-17
-6.59299e-17
-6.8993e-17
-6.86731e-17
-3.84506e-18
4.64567e-18
1.53662e-17
2.2874e-17
2.20064e-17
1.73339e-17
2.89309e-17
2.15435e-17
3.75833e-17
5.90072e-17
6.71678e-17
3.6626e-17
-1.85644e-17
-1.20209e-17
3.64783e-18
9.74969e-18
1.69757e-17
3.17243e-17
4.31882e-17
-1.85293e-17
5.90862e-17
8.07948e-17
-2.26987e-17
3.27465e-17
3.07391e-17
3.12937e-17
3.12759e-17
2.24821e-17
1.52252e-17
1.02473e-17
-6.67526e-18
5.51776e-17
5.23334e-17
5.68052e-17
3.00888e-17
1.47083e-17
4.07417e-18
-2.01529e-17
-3.67997e-17
-5.38781e-18
2.68144e-17
-3.39082e-17
7.83909e-18
1.6289e-17
3.78223e-18
9.98558e-18
1.34915e-17
-4.99528e-17
3.32761e-17
2.39764e-17
6.03246e-17
5.38793e-17
6.31996e-17
6.89109e-17
7.61923e-17
8.28737e-17
8.88433e-17
9.32972e-17
7.09353e-17
4.10706e-17
1.48359e-17
-1.33444e-17
)
;

boundaryField
{
    sides
    {
        type            calculated;
        value           uniform 0;
    }
    empty1
    {
        type            empty;
        value           nonuniform List<scalar> 0();
    }
    empty2
    {
        type            empty;
        value           nonuniform List<scalar> 0();
    }
}


// ************************************************************************* //
