/*--------------------------------*- C++ -*----------------------------------*\
| =========                 |                                                 |
| \\      /  F ield         | OpenFOAM: The Open Source CFD Toolbox           |
|  \\    /   O peration     | Version:  2312                                  |
|   \\  /    A nd           | Website:  www.openfoam.com                      |
|    \\/     M anipulation  |                                                 |
\*---------------------------------------------------------------------------*/
FoamFile
{
    version     2.0;
    format      ascii;
    arch        "LSB;label=32;scalar=64";
    class       volVectorField;
    location    "0.0001";
    object      U;
}
// * * * * * * * * * * * * * * * * * * * * * * * * * * * * * * * * * * * * * //

dimensions      [0 1 -1 0 0 0 0];

internalField   nonuniform List<vector> 
800
(
(-9.46962e-14 0 0)
(-1.30221e-13 0 0)
(-5.47692e-14 0 0)
(-4.03728e-14 0 0)
(2.24051e-14 0 0)
(6.47663e-14 0 0)
(4.4592e-14 0 0)
(4.25634e-14 0 0)
(-8.97866e-14 0 0)
(-1.87695e-13 0 0)
(-8.82291e-14 0 0)
(-4.9003e-14 0 0)
(1.87978e-14 0 0)
(1.16684e-13 0 0)
(1.35959e-14 0 0)
(-4.18138e-14 0 0)
(-5.73177e-14 0 0)
(-6.55604e-14 0 0)
(-4.43888e-14 0 0)
(-5.11131e-14 0 0)
(-4.57419e-14 0 0)
(-1.07531e-13 0 0)
(-1.20351e-13 0 0)
(-9.72415e-14 0 0)
(4.67742e-14 0 0)
(1.01935e-13 0 0)
(7.69911e-14 0 0)
(1.24937e-13 0 0)
(1.59026e-13 0 0)
(2.13531e-13 0 0)
(1.90532e-13 0 0)
(1.58334e-13 0 0)
(1.25088e-13 0 0)
(1.30688e-13 0 0)
(1.00387e-13 0 0)
(1.92456e-14 0 0)
(2.7519e-14 0 0)
(8.65615e-14 0 0)
(8.71427e-14 0 0)
(7.4217e-14 0 0)
(1.37038e-13 0 0)
(2.67785e-13 0 0)
(2.86174e-13 0 0)
(2.47031e-13 0 0)
(2.87115e-13 0 0)
(3.71712e-13 0 0)
(3.09658e-13 0 0)
(2.50612e-13 0 0)
(2.01939e-13 0 0)
(1.41031e-13 0 0)
(7.70175e-14 0 0)
(-4.51744e-14 0 0)
(-1.03804e-13 0 0)
(-1.49141e-14 0 0)
(5.99085e-14 0 0)
(1.18194e-13 0 0)
(2.11503e-13 0 0)
(1.21546e-13 0 0)
(8.57219e-14 0 0)
(8.39494e-14 0 0)
(-7.13361e-14 0 0)
(-2.32967e-13 0 0)
(-2.04862e-13 0 0)
(-9.23944e-14 0 0)
(2.35687e-14 0 0)
(5.52774e-14 0 0)
(1.62207e-15 0 0)
(5.6963e-16 0 0)
(-1.08706e-14 0 0)
(-8.31892e-15 0 0)
(1.25721e-14 0 0)
(2.7968e-14 0 0)
(4.44131e-14 0 0)
(-3.65061e-14 0 0)
(-1.46602e-13 0 0)
(-1.478e-13 0 0)
(-1.3599e-13 0 0)
(-1.42504e-13 0 0)
(-6.53115e-14 0 0)
(-3.88682e-15 0 0)
(3.01226e-15 0 0)
(-2.04347e-15 0 0)
(-1.21803e-14 0 0)
(-2.43914e-14 0 0)
(-8.82418e-14 0 0)
(-1.34396e-13 0 0)
(-1.06999e-13 0 0)
(-1.26187e-13 0 0)
(-7.03651e-14 0 0)
(-5.02259e-14 0 0)
(-1.07981e-13 0 0)
(-8.16264e-14 0 0)
(-6.09811e-14 0 0)
(-2.46105e-14 0 0)
(-1.38461e-13 0 0)
(-1.4876e-13 0 0)
(3.46119e-14 0 0)
(1.93208e-13 0 0)
(2.63481e-13 0 0)
(2.68769e-13 0 0)
(2.866e-13 0 0)
(1.83172e-13 0 0)
(1.50446e-13 0 0)
(2.10573e-13 0 0)
(2.15093e-13 0 0)
(1.97075e-13 0 0)
(1.59686e-13 0 0)
(1.67315e-13 0 0)
(1.59612e-13 0 0)
(9.22504e-14 0 0)
(6.50606e-14 0 0)
(2.64274e-14 0 0)
(3.83537e-14 0 0)
(8.42321e-14 0 0)
(1.11406e-13 0 0)
(6.1177e-14 0 0)
(1.19919e-14 0 0)
(6.63714e-14 0 0)
(1.02876e-13 0 0)
(8.58891e-14 0 0)
(8.33809e-14 0 0)
(9.25966e-14 0 0)
(6.83524e-14 0 0)
(7.7296e-14 0 0)
(6.60633e-14 0 0)
(8.04004e-14 0 0)
(1.00194e-13 0 0)
(6.30722e-14 0 0)
(7.81536e-14 0 0)
(1.11042e-13 0 0)
(8.7939e-14 0 0)
(-4.27752e-16 0 0)
(-3.53149e-14 0 0)
(-7.08088e-14 0 0)
(-1.08815e-13 0 0)
(1.8567e-14 0 0)
(5.46866e-14 0 0)
(-1.23624e-14 0 0)
(-7.9187e-15 0 0)
(-3.06584e-14 0 0)
(3.51519e-16 0 0)
(-5.47152e-14 0 0)
(-1.79716e-13 0 0)
(-2.02733e-13 0 0)
(-1.4979e-13 0 0)
(-1.54105e-13 0 0)
(-1.98398e-13 0 0)
(-1.79779e-13 0 0)
(-1.43683e-13 0 0)
(-4.29657e-14 0 0)
(8.3941e-14 0 0)
(2.74888e-13 0 0)
(3.60174e-13 0 0)
(1.63763e-13 0 0)
(3.15806e-14 0 0)
(1.52784e-15 0 0)
(-1.24783e-13 0 0)
(-2.19456e-13 0 0)
(-2.08655e-13 0 0)
(-2.12704e-13 0 0)
(-2.41812e-13 0 0)
(-1.74457e-13 0 0)
(-1.12192e-13 0 0)
(-1.15902e-13 0 0)
(-1.26751e-13 0 0)
(-1.00733e-13 0 0)
(4.05528e-14 0 0)
(1.82324e-13 0 0)
(1.63091e-13 0 0)
(1.19192e-13 0 0)
(1.10124e-13 0 0)
(6.18535e-14 0 0)
(3.04011e-14 0 0)
(1.2301e-14 0 0)
(-7.14673e-14 0 0)
(-1.43872e-13 0 0)
(-6.20939e-14 0 0)
(6.82814e-14 0 0)
(4.51394e-14 0 0)
(-1.31689e-13 0 0)
(-2.67156e-13 0 0)
(-3.08372e-13 0 0)
(-1.59204e-13 0 0)
(-5.84315e-14 0 0)
(-8.16868e-14 0 0)
(-9.06823e-14 0 0)
(-1.41915e-13 0 0)
(-1.42093e-13 0 0)
(-1.06147e-13 0 0)
(-8.8588e-14 0 0)
(3.81387e-14 0 0)
(1.54516e-13 0 0)
(1.63784e-13 0 0)
(1.97556e-13 0 0)
(2.16959e-13 0 0)
(2.50406e-13 0 0)
(2.66862e-13 0 0)
(2.41332e-13 0 0)
(1.81352e-13 0 0)
(1.09803e-13 0 0)
(-4.57726e-14 0 0)
(-1.79159e-13 0 0)
(-8.89162e-14 0 0)
(2.56736e-14 0 0)
(-5.39846e-14 0 0)
(-6.70787e-14 0 0)
(-6.79532e-15 0 0)
(7.60085e-14 0 0)
(1.36958e-13 0 0)
(6.71231e-14 0 0)
(-8.28165e-14 0 0)
(-1.45961e-13 0 0)
(-1.26402e-13 0 0)
(-1.50533e-13 0 0)
(-1.70744e-13 0 0)
(-2.13836e-13 0 0)
(-2.2796e-13 0 0)
(-2.57958e-13 0 0)
(-1.97231e-13 0 0)
(-1.20984e-13 0 0)
(-1.0326e-13 0 0)
(-3.72313e-14 0 0)
(-2.34607e-14 0 0)
(-4.33586e-14 0 0)
(-7.80922e-14 0 0)
(-1.02143e-13 0 0)
(-8.5365e-14 0 0)
(1.47913e-15 0 0)
(3.21829e-13 0 0)
(9.40617e-13 0 0)
(2.398e-12 0 0)
(5.91469e-12 0 0)
(1.34668e-11 0 0)
(2.9849e-11 0 0)
(6.46088e-11 0 0)
(1.37948e-10 0 0)
(2.91367e-10 0 0)
(6.09897e-10 0 0)
(1.26553e-09 0 0)
(2.60325e-09 0 0)
(5.3085e-09 0 0)
(1.07282e-08 0 0)
(2.14861e-08 0 0)
(4.26394e-08 0 0)
(8.38324e-08 0 0)
(1.63266e-07 0 0)
(3.14922e-07 0 0)
(6.01535e-07 0 0)
(1.13764e-06 0 0)
(2.12988e-06 0 0)
(3.94679e-06 0 0)
(7.23753e-06 0 0)
(1.31315e-05 0 0)
(2.35685e-05 0 0)
(4.18367e-05 0 0)
(7.34347e-05 0 0)
(0.00012743 0 0)
(0.000218558 0 0)
(0.000370417 0 0)
(0.000620209 0 0)
(0.00102565 0 0)
(0.0016748 0 0)
(0.00269968 0 0)
(0.00429461 0 0)
(0.00674019 0 0)
(0.0104334 0 0)
(0.0159238 0 0)
(0.0239552 0 0)
(0.0355088 0 0)
(0.0518451 0 0)
(0.0745355 0 0)
(0.105475 0 0)
(0.146862 0 0)
(0.201134 0 0)
(0.27085 0 0)
(0.3585 0 0)
(0.466255 0 0)
(0.595667 0 0)
(0.747333 0 0)
(0.920585 0 0)
(1.11324 0 0)
(1.32149 0 0)
(1.53995 0 0)
(1.76203 0 0)
(1.98043 0 0)
(2.18787 0 0)
(2.37781 0 0)
(2.54506 0 0)
(2.68633 0 0)
(2.80036 0 0)
(2.88795 0 0)
(2.95163 0 0)
(2.99513 0 0)
(3.02276 0 0)
(3.03884 0 0)
(3.04719 0 0)
(3.05087 0 0)
(3.05204 0 0)
(3.0521 0 0)
(3.05179 0 0)
(3.05145 0 0)
(3.0512 0 0)
(3.05103 0 0)
(3.05092 0 0)
(3.05086 0 0)
(3.05081 0 0)
(3.05079 0 0)
(3.05077 0 0)
(3.05076 0 0)
(3.05076 0 0)
(3.05076 0 0)
(3.05077 0 0)
(3.05078 0 0)
(3.0508 0 0)
(3.05081 0 0)
(3.05082 0 0)
(3.05083 0 0)
(3.05083 0 0)
(3.05083 0 0)
(3.05084 0 0)
(3.05084 0 0)
(3.05084 0 0)
(3.05084 0 0)
(3.05084 0 0)
(3.05084 0 0)
(3.05084 0 0)
(3.05084 0 0)
(3.05084 0 0)
(3.05084 0 0)
(3.05084 0 0)
(3.05084 0 0)
(3.05084 0 0)
(3.05084 0 0)
(3.05084 0 0)
(3.05084 0 0)
(3.05083 0 0)
(3.05083 0 0)
(3.05083 0 0)
(3.05082 0 0)
(3.05081 0 0)
(3.05081 0 0)
(3.05081 0 0)
(3.05079 0 0)
(3.05077 0 0)
(3.05077 0 0)
(3.05078 0 0)
(3.05076 0 0)
(3.05073 0 0)
(3.05072 0 0)
(3.05072 0 0)
(3.05073 0 0)
(3.05071 0 0)
(3.05068 0 0)
(3.05068 0 0)
(3.0507 0 0)
(3.05068 0 0)
(3.05062 0 0)
(3.05059 0 0)
(3.05061 0 0)
(3.05063 0 0)
(3.05061 0 0)
(3.05054 0 0)
(3.05049 0 0)
(3.05049 0 0)
(3.05051 0 0)
(3.05052 0 0)
(3.05051 0 0)
(3.05044 0 0)
(3.05039 0 0)
(3.05039 0 0)
(3.05039 0 0)
(3.0504 0 0)
(3.05041 0 0)
(3.05043 0 0)
(3.05043 0 0)
(3.05038 0 0)
(3.0503 0 0)
(3.05029 0 0)
(3.0503 0 0)
(3.05031 0 0)
(3.05035 0 0)
(3.05035 0 0)
(3.0503 0 0)
(3.05028 0 0)
(3.05028 0 0)
(3.05028 0 0)
(3.05028 0 0)
(3.05029 0 0)
(3.0503 0 0)
(3.05041 0 0)
(3.05042 0 0)
(3.05092 0 0)
(3.05037 0 0)
(3.05274 0 0)
(3.04567 0 0)
(3.07545 0 0)
(3.00648 0 0)
(3.12167 0 0)
(2.99788 0 0)
(3.06604 0 0)
(3.08613 0 0)
(2.98215 0 0)
(3.11552 0 0)
(3.01607 0 0)
(3.06639 0 0)
(3.05053 0 0)
(3.05143 0 0)
(3.05067 0 0)
(3.05085 0 0)
(3.05049 0 0)
(3.05035 0 0)
(3.05027 0 0)
(3.05028 0 0)
(3.05029 0 0)
(3.05031 0 0)
(3.05031 0 0)
(3.05031 0 0)
(3.05032 0 0)
(3.05031 0 0)
(3.05031 0 0)
(3.05031 0 0)
(3.05031 0 0)
(3.05031 0 0)
(3.05031 0 0)
(3.05031 0 0)
(3.05031 0 0)
(3.05032 0 0)
(3.05033 0 0)
(3.05035 0 0)
(3.05036 0 0)
(3.05038 0 0)
(3.0504 0 0)
(3.05041 0 0)
(3.05043 0 0)
(3.05045 0 0)
(3.05047 0 0)
(3.05049 0 0)
(3.05051 0 0)
(3.05053 0 0)
(3.05055 0 0)
(3.05056 0 0)
(3.05058 0 0)
(3.0506 0 0)
(3.05062 0 0)
(3.05064 0 0)
(3.05066 0 0)
(3.05068 0 0)
(3.0507 0 0)
(3.05072 0 0)
(3.05074 0 0)
(3.05075 0 0)
(3.05077 0 0)
(3.05078 0 0)
(3.05079 0 0)
(3.05082 0 0)
(3.05083 0 0)
(3.05084 0 0)
(3.05084 0 0)
(3.05085 0 0)
(3.05086 0 0)
(3.05087 0 0)
(3.05089 0 0)
(3.05089 0 0)
(3.05089 0 0)
(3.05089 0 0)
(3.0509 0 0)
(3.05091 0 0)
(3.05092 0 0)
(3.05091 0 0)
(3.0509 0 0)
(3.05091 0 0)
(3.05091 0 0)
(3.05092 0 0)
(3.05091 0 0)
(3.05091 0 0)
(3.0509 0 0)
(3.0509 0 0)
(3.0509 0 0)
(3.05089 0 0)
(3.05089 0 0)
(3.05088 0 0)
(3.05087 0 0)
(3.05086 0 0)
(3.05086 0 0)
(3.05085 0 0)
(3.05084 0 0)
(3.05082 0 0)
(3.05081 0 0)
(3.0508 0 0)
(3.05078 0 0)
(3.05077 0 0)
(3.05076 0 0)
(3.05074 0 0)
(3.05074 0 0)
(3.05074 0 0)
(3.05076 0 0)
(3.05081 0 0)
(3.05089 0 0)
(3.05103 0 0)
(3.05124 0 0)
(3.05155 0 0)
(3.0519 0 0)
(3.05205 0 0)
(3.05144 0 0)
(3.04897 0 0)
(3.04278 0 0)
(3.03014 0 0)
(3.00744 0 0)
(2.9704 0 0)
(2.91449 0 0)
(2.83547 0 0)
(2.7301 0 0)
(2.59673 0 0)
(2.43577 0 0)
(2.24987 0 0)
(2.04382 0 0)
(1.82413 0 0)
(1.59834 0 0)
(1.3743 0 0)
(1.1593 0 0)
(0.959423 0 0)
(0.77906 0 0)
(0.620837 0 0)
(0.485688 0 0)
(0.373131 0 0)
(0.281613 0 0)
(0.208882 0 0)
(0.152329 0 0)
(0.109261 0 0)
(0.0771123 0 0)
(0.05357 0 0)
(0.0366457 0 0)
(0.0246935 0 0)
(0.0163965 0 0)
(0.0107319 0 0)
(0.00692627 0 0)
(0.00440913 0 0)
(0.00276928 0 0)
(0.00171659 0 0)
(0.00105044 0 0)
(0.000634745 0 0)
(0.000378844 0 0)
(0.000223388 0 0)
(0.000130168 0 0)
(7.49705e-05 0 0)
(4.26889e-05 0 0)
(2.40364e-05 0 0)
(1.33857e-05 0 0)
(7.37428e-06 0 0)
(4.01961e-06 0 0)
(2.16828e-06 0 0)
(1.15769e-06 0 0)
(6.11907e-07 0 0)
(3.20236e-07 0 0)
(1.65964e-07 0 0)
(8.51896e-08 0 0)
(4.33161e-08 0 0)
(2.18207e-08 0 0)
(1.08918e-08 0 0)
(5.38733e-09 0 0)
(2.64108e-09 0 0)
(1.28325e-09 0 0)
(6.18022e-10 0 0)
(2.95068e-10 0 0)
(1.39618e-10 0 0)
(6.54769e-11 0 0)
(3.04864e-11 0 0)
(1.40697e-11 0 0)
(6.40806e-12 0 0)
(3.04778e-12 0 0)
(1.67028e-12 0 0)
(1.02514e-12 0 0)
(4.74022e-13 0 0)
(1.29217e-13 0 0)
(2.13016e-14 0 0)
(-1.35586e-14 0 0)
(-2.01633e-14 0 0)
(-2.08868e-14 0 0)
(-2.04248e-14 0 0)
(-1.96217e-14 0 0)
(-1.82665e-14 0 0)
(-1.71244e-14 0 0)
(-1.62422e-14 0 0)
(-1.56702e-14 0 0)
(-1.53258e-14 0 0)
(-1.45925e-14 0 0)
(-1.34668e-14 0 0)
(-1.24196e-14 0 0)
(-1.15209e-14 0 0)
(-1.02033e-14 0 0)
(-8.88015e-15 0 0)
(-7.7434e-15 0 0)
(-6.48132e-15 0 0)
(-5.54244e-15 0 0)
(-4.54122e-15 0 0)
(-3.34578e-15 0 0)
(-2.63897e-15 0 0)
(-2.1463e-15 0 0)
(-1.9174e-15 0 0)
(-1.86162e-15 0 0)
(-1.31992e-15 0 0)
(-9.02156e-16 0 0)
(-8.86341e-16 0 0)
(-8.65231e-16 0 0)
(-6.72068e-16 0 0)
(-3.47614e-16 0 0)
(-3.46622e-16 0 0)
(-7.36058e-16 0 0)
(-8.17916e-16 0 0)
(-4.90816e-16 0 0)
(-3.4821e-16 0 0)
(-1.90516e-16 0 0)
(-4.23516e-17 0 0)
(-5.75056e-17 0 0)
(5.7413e-16 0 0)
(1.94308e-15 0 0)
(3.21356e-15 0 0)
(4.43521e-15 0 0)
(5.79298e-15 0 0)
(7.10522e-15 0 0)
(8.56529e-15 0 0)
(1.04315e-14 0 0)
(1.23103e-14 0 0)
(1.39405e-14 0 0)
(1.55789e-14 0 0)
(1.74969e-14 0 0)
(1.94613e-14 0 0)
(2.09503e-14 0 0)
(2.23341e-14 0 0)
(2.37084e-14 0 0)
(2.44205e-14 0 0)
(2.44791e-14 0 0)
(2.45287e-14 0 0)
(2.45079e-14 0 0)
(2.44759e-14 0 0)
(2.45089e-14 0 0)
(2.47161e-14 0 0)
(2.51401e-14 0 0)
(2.55228e-14 0 0)
(2.6248e-14 0 0)
(2.70824e-14 0 0)
(2.79845e-14 0 0)
(2.89626e-14 0 0)
(2.99187e-14 0 0)
(3.12156e-14 0 0)
(3.24966e-14 0 0)
(3.34493e-14 0 0)
(3.42956e-14 0 0)
(3.53679e-14 0 0)
(3.7111e-14 0 0)
(3.91163e-14 0 0)
(4.1138e-14 0 0)
(4.37881e-14 0 0)
(4.65481e-14 0 0)
(4.87134e-14 0 0)
(5.06013e-14 0 0)
(5.15021e-14 0 0)
(5.10298e-14 0 0)
(4.95526e-14 0 0)
(4.67935e-14 0 0)
(4.29421e-14 0 0)
(3.8729e-14 0 0)
(3.44386e-14 0 0)
(3.03857e-14 0 0)
(2.73108e-14 0 0)
(2.54576e-14 0 0)
(2.47545e-14 0 0)
(2.48152e-14 0 0)
(2.49174e-14 0 0)
(2.48737e-14 0 0)
(2.47931e-14 0 0)
(2.49821e-14 0 0)
(2.49427e-14 0 0)
(2.44413e-14 0 0)
(2.40896e-14 0 0)
(2.41015e-14 0 0)
(2.46108e-14 0 0)
(2.55136e-14 0 0)
(2.65902e-14 0 0)
(2.78365e-14 0 0)
(2.876e-14 0 0)
(2.867e-14 0 0)
(2.77673e-14 0 0)
(2.62173e-14 0 0)
(2.44965e-14 0 0)
(2.35931e-14 0 0)
(2.47797e-14 0 0)
(2.30075e-14 0 0)
(-5.62114e-14 0 0)
(-1.03298e-13 0 0)
(-8.00119e-14 0 0)
(-6.76712e-14 0 0)
(2.34703e-14 0 0)
(1.29534e-13 0 0)
(2.06518e-13 0 0)
(2.64727e-13 0 0)
(1.77573e-13 0 0)
(2.52084e-14 0 0)
(-9.50216e-14 0 0)
(-9.19178e-14 0 0)
(-3.32997e-14 0 0)
(8.71802e-15 0 0)
(2.72623e-14 0 0)
(5.0598e-14 0 0)
(1.03205e-13 0 0)
(7.77233e-14 0 0)
(-1.57465e-14 0 0)
(-1.01675e-13 0 0)
(-1.34555e-13 0 0)
(-1.82869e-13 0 0)
(-2.77281e-13 0 0)
(-3.32508e-13 0 0)
(-3.02316e-13 0 0)
(-2.09963e-13 0 0)
(-8.18489e-14 0 0)
(-4.46928e-14 0 0)
(2.70799e-15 0 0)
(4.42504e-14 0 0)
(1.24546e-14 0 0)
(-8.63827e-14 0 0)
(-1.43169e-13 0 0)
(-1.74844e-13 0 0)
(-1.81108e-13 0 0)
(-1.07026e-13 0 0)
(-5.75047e-14 0 0)
(-6.14968e-14 0 0)
(-9.18469e-14 0 0)
(-1.0429e-13 0 0)
(-1.12912e-13 0 0)
(-1.42294e-13 0 0)
(-7.09561e-14 0 0)
(-3.28298e-15 0 0)
(-4.11522e-14 0 0)
(-9.87886e-14 0 0)
(-1.39724e-13 0 0)
(-1.65881e-13 0 0)
(-1.70022e-13 0 0)
(-8.19614e-14 0 0)
(-2.18965e-14 0 0)
(2.45722e-14 0 0)
(5.96195e-14 0 0)
(6.40311e-14 0 0)
(4.46181e-14 0 0)
(4.89167e-14 0 0)
(6.73584e-14 0 0)
(7.79004e-14 0 0)
(1.19778e-13 0 0)
(1.52742e-13 0 0)
(1.29105e-13 0 0)
(2.6954e-14 0 0)
(-4.43714e-14 0 0)
(-1.23181e-14 0 0)
(2.89775e-14 0 0)
(3.0406e-14 0 0)
(6.26884e-14 0 0)
(9.87781e-14 0 0)
(2.31462e-14 0 0)
(5.1659e-14 0 0)
(1.66403e-13 0 0)
(7.29726e-14 0 0)
(9.50338e-15 0 0)
(6.76591e-14 0 0)
(8.55465e-14 0 0)
(7.70379e-14 0 0)
(6.40547e-14 0 0)
(5.21713e-14 0 0)
(4.14758e-14 0 0)
(1.26864e-14 0 0)
(4.99861e-14 0 0)
(1.455e-13 0 0)
(1.43557e-13 0 0)
(9.67123e-14 0 0)
(5.87e-14 0 0)
(2.21749e-14 0 0)
(-1.73301e-14 0 0)
(-6.80965e-14 0 0)
(-5.99674e-14 0 0)
(3.13148e-14 0 0)
(-5.74441e-15 0 0)
(-3.51263e-14 0 0)
(3.292e-14 0 0)
(2.22179e-14 0 0)
(2.56098e-14 0 0)
(3.183e-14 0 0)
(-5.08268e-14 0 0)
(-1.98842e-14 0 0)
(7.4468e-14 0 0)
(1.07286e-13 0 0)
(1.42067e-13 0 0)
(1.45958e-13 0 0)
(1.64435e-13 0 0)
(1.81708e-13 0 0)
(1.98863e-13 0 0)
(2.15242e-13 0 0)
(2.27509e-13 0 0)
(2.04648e-13 0 0)
(1.36189e-13 0 0)
(7.16309e-14 0 0)
(1.65722e-14 0 0)
(-7.64183e-15 0 0)
)
;

boundaryField
{
    sides
    {
        type            fixedValue;
        value           uniform (0 0 0);
    }
    empty1
    {
        type            empty;
    }
    empty2
    {
        type            empty;
    }
}


// ************************************************************************* //
