/*--------------------------------*- C++ -*----------------------------------*\
| =========                 |                                                 |
| \\      /  F ield         | OpenFOAM: The Open Source CFD Toolbox           |
|  \\    /   O peration     | Version:  2312                                  |
|   \\  /    A nd           | Website:  www.openfoam.com                      |
|    \\/     M anipulation  |                                                 |
\*---------------------------------------------------------------------------*/
FoamFile
{
    version     2.0;
    format      ascii;
    arch        "LSB;label=32;scalar=64";
    class       volScalarField;
    location    "8e-05";
    object      alphat;
}
// * * * * * * * * * * * * * * * * * * * * * * * * * * * * * * * * * * * * * //

dimensions      [1 -1 -1 0 0 0 0];

internalField   nonuniform List<scalar> 
109340
(
0.47654172627637
0.32687079086509
0.17640928336085
0.14742926839144
0.14281901639689
0.14574498353481
0.15118768344543
0.16060345601014
0.1399817115499
0.12451098796869
0.112266129681
0.10227749403652
0.093955009431238
0.086906380004142
0.080856669533604
0.075606044504122
0.071005190181726
0.066940043074774
0.063321842056184
0.060080405256024
0.05715944960751
0.054513249949054
0.052104206001564
0.049901041565627
0.047877449388167
0.046011049081127
0.044282559318799
0.042675113513601
0.041173652211862
0.039764318413541
0.038433751278748
0.037168081674761
0.035951188750925
0.034761170015786
0.033562188823052
0.032285505206117
0.47100467762006
0.22844828294276
0.16736829443287
0.15310987940637
0.15208738916398
0.15512543577578
0.13883745941229
0.12077397848315
0.10673928544552
0.095628197682457
0.086632462666735
0.079205095448161
0.072970630970795
0.067664117695477
0.063093473324071
0.059116075445298
0.055623810497816
0.052533221598018
0.049778841911829
0.047308545081122
0.045080223377824
0.043059417830113
0.041217613541489
0.039530992593625
0.037979477981617
0.036545975922857
0.035215762109151
0.033975952847183
0.032815012172466
0.031722251958144
0.030687224272984
0.029698823995462
0.028743709337979
0.027803125618098
0.026845382451779
0.025806404710168
0.27664579385153
0.19497799256966
0.1680682973145
0.15771771017675
0.12617456095064
0.10519054310782
0.089974884522632
0.078508091923734
0.06959633900603
0.062500968351489
0.056735066568785
0.051965913987804
0.047960517654499
0.044551900346957
0.041617737370743
0.039066591634167
0.036828846475951
0.034850595237229
0.033089317852272
0.031510716678305
0.030086692268784
0.02879413117972
0.027614052744566
0.026530865491943
0.025531618355828
0.024605473415106
0.023743272232119
0.022937031842918
0.022179686554743
0.021464684303852
0.02078556427131
0.020135412146612
0.019505720562761
0.018884562266735
0.018252257922915
0.017565143850453
0.15899055142647
0.1605916433374
0.10078817514094
0.073373522572462
0.05771977021652
0.04761169466777
0.040566868115149
0.035387685317098
0.031427671655147
0.028307421253909
0.025789719369545
0.023718490078966
0.021986853928111
0.020519260535421
0.019260938575426
0.018171282389852
0.017219492071783
0.016381439532288
0.015635557720786
0.014963339558302
0.014350985291608
0.01378869414996
0.013269358124691
0.01278768600269
0.01233956073207
0.011921606356128
0.011530673533077
0.011164328104779
0.010820268176743
0.010496225143589
0.010189621321239
0.0098966161684624
0.0096109693519905
0.0093248682364259
0.0090289056566746
0.0087018134963302
0.09575502102618
0.031301348912663
0.019033735428452
0.013803442925969
0.010921345463071
0.0091121386621183
0.0078814739914607
0.006997189259317
0.0063358386709052
0.0058263313036147
0.0054251286276158
0.0051046182710085
0.0048465132372543
0.0046384955201108
0.0044721859051535
0.0043417169755926
0.0042419246583864
0.0041642796393408
0.004094458110476
0.0040247380362965
0.0039543338334908
0.0038854931791957
0.0038206399463202
0.0037614288833691
0.0037087533972892
0.0036630197323249
0.0036242585012095
0.0035922531201989
0.0035670692309646
0.0035482513833584
0.0035347354362008
0.0035253325547323
0.0035183180761349
0.003510445882258
0.0034934466090966
0.0034432701283245
0.0002410965304476
0.00035983793695123
0.00046297260227186
0.0005434414494682
0.00060095748688113
0.00063888362843759
0.00066168000299392
0.0006735232887763
0.00067773820703973
0.00067708112204313
0.0006731482697957
0.00066719693625415
0.00066009153589163
0.0006524152560792
0.00064455911088123
0.00063680104854916
0.00062932122536495
0.00062223944777587
0.00061567830831081
0.00060978735243438
0.00060442808689634
0.00059950832740575
0.00059497623687005
0.000590795925954
0.00058693229627099
0.00058334501636686
0.000579985184441
0.00057679171012736
0.00057368441541264
0.00057055274704145
0.00056723687499926
0.00056348147821187
0.00055885319105342
0.00055246108264655
0.00054167372904321
0.00051483023180969
0.028593152089204
0.015397250650164
0.0082977562838718
0.0051181676309045
0.0034202233245372
0.0023082835107668
0.0015612378413855
0.0010419861093066
0.00070367219880609
0.00051346380054993
0.00041960307418338
0.00041557852713508
0.00038350410951603
0.00034269275586501
0.00029701880097648
0.00024969996108939
0.00020906958683158
0.0001741549921863
0.00014536567624571
0.00012276717296616
0.0001042182741305
8.8781602013226e-05
7.4527791341498e-05
6.0285498210531e-05
4.9250081966048e-05
4.0655114199067e-05
3.4021409184675e-05
2.8505461080314e-05
2.4210924857856e-05
2.0693358515091e-05
1.7749938486026e-05
1.5440371479916e-05
1.3388616790332e-05
1.1791526179829e-05
1.0333235980497e-05
9.191632003052e-06
8.1321466904646e-06
7.2945843163944e-06
6.5101332263773e-06
5.8818321337025e-06
5.2929608589403e-06
4.8095818339186e-06
4.364883093643e-06
3.9822378535457e-06
3.6435331466072e-06
3.3337330637914e-06
3.0695440859124e-06
2.8202839071638e-06
2.6090388985649e-06
2.4116860638727e-06
2.23592871899e-06
2.0765874497195e-06
1.9323438612235e-06
1.8014029148673e-06
1.6821782625261e-06
1.5733312626981e-06
1.4737529264984e-06
1.3824968302774e-06
1.2987330414857e-06
1.2216998036251e-06
1.150705909239e-06
1.0851455652656e-06
1.0244997498445e-06
9.6831453728123e-07
9.1618460182485e-07
8.6774952850384e-07
8.2269874158265e-07
7.8076281452288e-07
7.4168869209914e-07
7.0522432359247e-07
1.4072803542232e-06
0.00015202888063454
0.0008761603682026
0.00084857423148099
0.00073492750138062
0.00061997790152287
0.00049507862098616
0.00035393061815895
0.00024307908198812
0.00025716479380129
0.00027845658660813
0.00026770208954222
0.00025594362504522
0.00024888991272681
0.00024533176657001
0.00024352797503839
0.00024287852364595
0.00024272287223422
0.00024240669678871
0.00024171025794685
0.00023993447043943
0.00023684193594176
0.00023221510074868
0.00022599410908827
0.00021824222085
0.00020904200928676
0.00019861966252727
0.00018729126099586
0.00017546580395192
0.0001635928313135
0.000152093671998
0.00014128968937842
0.00013148784749389
0.00012290816775431
0.00011386521774696
0.00010838388991613
0.00010418417765221
0.0001010819356695
9.8890611859865e-05
9.7464546990725e-05
9.6708305453797e-05
9.6654154429324e-05
9.6863396717582e-05
9.7175022062582e-05
9.7595277077127e-05
9.8091375504486e-05
9.8617494975509e-05
9.9122879835415e-05
9.9428532862738e-05
9.9494051551482e-05
9.9180372418998e-05
9.8706076014953e-05
9.8255503160176e-05
9.7620521716158e-05
9.6845531293223e-05
9.5925784727245e-05
9.485505766169e-05
9.3646375232174e-05
9.2274639560628e-05
9.0784222242414e-05
8.9293610203194e-05
8.7684225804667e-05
8.6520100060003e-05
8.5715212021473e-05
8.5708252409116e-05
8.6506182120188e-05
8.6471950373063e-05
8.4131937954703e-05
8.3050407691372e-05
6.9843279135773e-05
0.021924976105661
0.011891854432663
0.0069989991326114
0.0045610671478703
0.0030489644318267
0.0020635780393265
0.0013850336588546
0.0009219840947248
0.00061366048526349
0.00041698304867494
0.00029431218994268
0.00022541500847879
0.00018460125992852
0.0001556307124503
0.00013516439328647
0.0001196023355312
0.00010726271207852
9.7267084176293e-05
8.8176606714346e-05
7.9946780675785e-05
7.262139365931e-05
6.6134932481458e-05
6.0294841796707e-05
5.5091170163866e-05
4.6004913825987e-05
3.8079627801509e-05
3.1821432977157e-05
2.6833538189287e-05
2.2798748236366e-05
1.9527018812246e-05
1.6833976497295e-05
1.4612541011624e-05
1.2756501549266e-05
1.1198785151799e-05
9.881676958658e-06
8.7604658236804e-06
7.8013516969892e-06
6.9762933632938e-06
6.2630989926204e-06
5.6439939985414e-06
5.1031175302332e-06
4.6303179482923e-06
4.2129146360904e-06
3.8456518617069e-06
3.5186125317638e-06
3.2290792701935e-06
2.969508049812e-06
2.7381870938085e-06
2.5298937155101e-06
2.3428568999076e-06
2.1737039586319e-06
2.0206046238733e-06
1.8817151131396e-06
1.7553814475591e-06
1.6403028298761e-06
1.5351424543832e-06
1.4389032880622e-06
1.3506374817958e-06
1.2695459355013e-06
1.1948902223291e-06
1.1260341636281e-06
1.0624082184232e-06
1.0035140411107e-06
9.4890837045472e-07
8.9820743378494e-07
8.510768586254e-07
8.0722343018609e-07
7.6638209216075e-07
7.2830844865272e-07
6.9279236772532e-07
6.3416086225215e-06
0.0003701773356004
0.00089947052173945
0.00081836548450913
0.00070493235921808
0.00058925757257098
0.00046096194249775
0.00031978488181566
0.00023748067597597
0.00026993464699719
0.00028179491346207
0.0002700962242963
0.00026013868757799
0.00025450666216478
0.00024994513157102
0.00024852360838541
0.00024828381922482
0.0002485069227505
0.00024861618950264
0.00024833344354152
0.00024702074980816
0.00024436393605242
0.00024015988649334
0.00023429595673882
0.00022685471831813
0.0002178852332729
0.00020759087645971
0.00019626821818138
0.00018429025472081
0.00017209545623192
0.00016008249636218
0.00014862338843223
0.00013808535394631
0.00012870580316676
0.0001186398499554
0.00011241362570226
0.00010754299106536
0.0001038593941253
0.00010117796536695
9.934198941974e-05
9.8208371263611e-05
9.7744551193417e-05
9.7752141144388e-05
9.7886402263244e-05
9.8117948867881e-05
9.8432140721292e-05
9.8785669959536e-05
9.9138414894973e-05
9.934405923369e-05
9.931060271006e-05
9.8918723993567e-05
9.8442155356584e-05
9.7957724126426e-05
9.7293998489643e-05
9.6484946242608e-05
9.5538067331341e-05
9.4439407525486e-05
9.3211900936729e-05
9.1831165199096e-05
9.0342083541235e-05
8.8844078773401e-05
8.7212262534533e-05
8.6049570547071e-05
8.5294530101108e-05
8.5401395786032e-05
8.620919207485e-05
8.6174998862701e-05
8.3999235743387e-05
8.3317540455808e-05
7.0086944923533e-05
0.015986243278629
0.0079598933261303
0.0047906403360875
0.0032097250497355
0.0021485015607091
0.0014658148359118
0.00099887519804668
0.00069078981281425
0.00048723333200922
0.00035151123893351
0.00027075719893963
0.00021382733528642
0.00017542284903921
0.00014784671294196
0.00012657797661301
0.00010958847965478
9.6005159615328e-05
8.4653154578383e-05
7.4517789518119e-05
6.5877779937614e-05
5.8789959738357e-05
5.2813123686244e-05
4.7703061989299e-05
4.3474202916991e-05
3.9909323195748e-05
3.6782549064965e-05
3.1131254207946e-05
2.6250318793527e-05
2.2315733675969e-05
1.9109170509975e-05
1.6482198749245e-05
1.4304842436833e-05
1.2495305788432e-05
1.0972467844278e-05
9.6881723336776e-06
8.5932038011342e-06
7.6578502121008e-06
6.8510278700683e-06
6.1550728794466e-06
5.5486477853667e-06
5.0208502435229e-06
4.556727806757e-06
4.1492835676934e-06
3.7882940286827e-06
3.4686644482811e-06
3.1838207349377e-06
2.9296160406409e-06
2.7021715241785e-06
2.4976875918346e-06
2.3138634150219e-06
2.1475793147624e-06
1.9972324039136e-06
1.8605338519642e-06
1.7361935401255e-06
1.6228019585459e-06
1.5192084490935e-06
1.424382451536e-06
1.3373906532802e-06
1.2574346195296e-06
1.183797014741e-06
1.1158607601943e-06
1.0530694382855e-06
9.9493062681588e-07
9.410085301498e-07
8.9092956509107e-07
8.4436820167953e-07
8.0103531210315e-07
7.6066691048085e-07
7.230236889724e-07
6.8790749211953e-07
6.5032631296919e-06
0.0003734955723904
0.0008994324613912
0.00081783334675006
0.00070473942178887
0.00058962402319899
0.0004620912420384
0.00032203670386814
0.00024086414923714
0.0002748768630354
0.00028928291163455
0.00027893075086128
0.00026961923200129
0.000264533713504
0.00025951757323487
0.00025875008492889
0.00025919482281732
0.00026013026839267
0.0002610053510596
0.00026144096887919
0.00026101902786824
0.00025919805594551
0.00025578967237205
0.00025062910553223
0.00024379090993604
0.00023528540677402
0.00022527038932179
0.00021400304850876
0.00020182213760733
0.00018913804610837
0.00017634074313363
0.00016382887732672
0.00015201448234477
0.00014118526560042
0.00012920838083954
0.00012153633549939
0.00011532412637763
0.00011044904082464
0.00010674699290259
0.0001040425709542
0.00010217857169906
0.00010099858966627
0.00010041146229449
0.00010021002880638
0.00010014340458461
0.00010012994658656
0.00010017987043516
0.00010025134464368
0.00010024800092749
0.00010001704187393
9.9497268354228e-05
9.8996802618728e-05
9.8403110485867e-05
9.7622263650522e-05
9.6689909951686e-05
9.5627856007846e-05
9.4429577251808e-05
9.3119445981213e-05
9.1679897124434e-05
9.0144848683708e-05
8.8594617379303e-05
8.6896515721931e-05
8.5738309260913e-05
8.5002364772619e-05
8.5147732548736e-05
8.5860462049139e-05
8.5678576614605e-05
8.3460916120446e-05
8.285863772754e-05
6.950191409406e-05
0.0083043249835067
0.004440345144837
0.0027134860651392
0.0017701675680705
0.0012173794421789
0.00087419254172344
0.00065130645108023
0.00050054835978129
0.00039339071432948
0.0003196798386238
0.000260789746444
0.00021335730564231
0.00017607161008521
0.0001469820554279
0.00012439993342337
0.00010703384284278
9.2871925585754e-05
8.1188733221439e-05
7.1183918609565e-05
6.2386087772338e-05
5.470300329597e-05
4.8420760572475e-05
4.3282715675086e-05
3.8887864421311e-05
3.5205343415688e-05
3.2197663141408e-05
2.9607733800576e-05
2.5676019464249e-05
2.184019636105e-05
1.8712608706587e-05
1.6143278040229e-05
1.4014831568895e-05
1.2240458356425e-05
1.07510350596e-05
9.4906754118951e-06
8.4190537382135e-06
7.5013620475083e-06
6.7127090819263e-06
6.0309302438685e-06
5.4387320320851e-06
4.9219713568448e-06
4.469155773044e-06
4.0709593643827e-06
3.7188508825668e-06
3.4067752730946e-06
3.1283927211022e-06
2.8801988054227e-06
2.6575038390269e-06
2.4577043501663e-06
2.2775325574571e-06
2.114840358667e-06
1.9674968931443e-06
1.8336238863471e-06
1.7117415272955e-06
1.6004758539818e-06
1.4988131101295e-06
1.4057117875756e-06
1.3202912271079e-06
1.2417517387993e-06
1.1693971518817e-06
1.1026172360445e-06
1.0408701733962e-06
9.8367994305772e-07
9.3062543604489e-07
8.8133951191345e-07
8.355010833253e-07
7.9282790346531e-07
7.5306450392103e-07
7.1597705516029e-07
6.812775182771e-07
6.7246072105246e-06
0.00037814261873813
0.00089913425024414
0.00081713848981698
0.00070452133199937
0.00059020249424454
0.00046376472029731
0.00032529469470984
0.00024549130021756
0.00028136239967375
0.00029912705011835
0.00029048271031001
0.00028188124301773
0.00027737837365993
0.0002723394973941
0.00027231202456223
0.00027359535202341
0.00027540507616823
0.00027722569297545
0.00027856966932643
0.00027915212797446
0.00027834454869933
0.00027586857045947
0.00027155068998256
0.00026542092673752
0.00025746757089043
0.00024780204643509
0.00023664072739041
0.00022428319953003
0.00021110212986413
0.00019748939172313
0.00018386251577107
0.0001706414325346
0.00015813575384048
0.00014390422155693
0.00013442797425209
0.00012645504412349
0.00011995316416863
0.00011480242334208
0.00011082595032476
0.00010786347810374
0.00010574468126621
0.0001042778687073
0.00010334431145085
0.00010271389759406
0.00010227648953867
0.00010192961481586
0.00010161023685235
0.00010123826488481
0.00010069055235834
0.00010006166286079
9.9405427320089e-05
9.8601735263235e-05
9.7630960442756e-05
9.6528784156093e-05
9.5328992986398e-05
9.4024379732633e-05
9.2627583036183e-05
9.1117116893059e-05
8.9521239820858e-05
8.7913393771735e-05
8.6155843358123e-05
8.4968111040695e-05
8.4208375809889e-05
8.4298149084811e-05
8.4942828835152e-05
8.4784069262942e-05
8.2547553763455e-05
8.1827865139868e-05
6.8496472228181e-05
0.0032194192639255
0.0022725429497522
0.0015990037337903
0.001210755970875
0.00092975293384282
0.00072068790555369
0.00057213011614263
0.00046914851333583
0.0003894348627499
0.00031636257669635
0.00026348411108431
0.00021883229934252
0.0001820322853103
0.00015227012156006
0.00012766040391703
0.00010787385829601
9.2614111297529e-05
8.0021672391637e-05
6.9343856208927e-05
6.0487187845794e-05
5.3169296492563e-05
4.6844422667002e-05
4.1483942415304e-05
3.7098533095979e-05
3.3391300810778e-05
3.0213685456053e-05
2.7564491266499e-05
2.5063730128545e-05
2.1349604274366e-05
1.8313553566687e-05
1.5810654183262e-05
1.3735925719935e-05
1.2001190546331e-05
1.0543840707606e-05
9.3101016895743e-06
8.2603958424353e-06
7.3606394796811e-06
6.5874627558859e-06
5.9184962960412e-06
5.3378551471106e-06
4.8306068755029e-06
4.3865197538476e-06
3.9952857518618e-06
3.6498287228746e-06
3.3432158888014e-06
3.0704401590944e-06
2.8269875198912e-06
2.6088811440698e-06
2.4131541333148e-06
2.2367948536628e-06
2.077691609576e-06
1.9335188037917e-06
1.8027281425423e-06
1.6835694574216e-06
1.5747465375911e-06
1.4752077608927e-06
1.3840186511055e-06
1.3003469725607e-06
1.2233997827064e-06
1.1524926721857e-06
1.0870202193811e-06
1.0264616026163e-06
9.7035852754787e-07
9.1830047666245e-07
8.6992443610712e-07
8.2491762337526e-07
7.8300787271293e-07
7.4394649444121e-07
7.0749978535252e-07
6.7313732512597e-07
7.0095605017035e-06
0.00038388597725698
0.0008987543921222
0.00081631735117645
0.00070431049308719
0.00059101060266261
0.00046598883655474
0.00032949865623779
0.00025106510932004
0.00028876676842783
0.00031046349838409
0.00030376146481422
0.00029581178757857
0.00029178774420305
0.00028698264055272
0.00028764652521031
0.00028973686988995
0.00029240752984573
0.00029516212221343
0.00029746657895959
0.00029895175628056
0.00029919794405705
0.00029765515583168
0.00029418140576724
0.00028874455704513
0.00028134876674521
0.00027205775046944
0.00026105794405034
0.00024862136286738
0.00023509140121463
0.00022083835923976
0.00020627406787102
0.00019181123810855
0.00017774762647809
0.00016143776320062
0.00015015258861465
0.00014027762109735
0.0001319169579918
0.00012503047909505
0.0001194712280834
0.00011509845450646
0.00011175429087297
0.00010923710485287
0.00010733177307839
0.00010588157510717
0.00010474689559248
0.00010380239093681
0.00010302445295235
0.00010222277729644
0.00010132563506109
0.00010040980189414
9.9468831401751e-05
9.8386362662938e-05
9.7194837465739e-05
9.5923849565366e-05
9.4586960120348e-05
9.3161017993101e-05
9.1655712191569e-05
9.0051737971786e-05
8.837601179735e-05
8.6692689494697e-05
8.4874338177955e-05
8.3570486130792e-05
8.2772240665445e-05
8.2819819780929e-05
8.3456166584e-05
8.3294605662275e-05
8.1096776599949e-05
8.0268368527938e-05
6.712810895963e-05
0.0010995685329925
0.0009599985697823
0.00099197387617409
0.001037476456933
0.0010814849649836
0.00093652260779723
0.0007139109192194
0.00054445735937434
0.0004231988218376
0.00034058704400931
0.00027764645993863
0.00022873354695396
0.00018993068406109
0.00015828091464553
0.00013250642207273
0.00011151948053572
9.4347131413284e-05
8.0307701964752e-05
6.8926031405347e-05
5.9634845309698e-05
5.2015133048961e-05
4.5808057183397e-05
4.0588941752067e-05
3.6163150783435e-05
3.248267275709e-05
2.9330070866938e-05
2.6614664699933e-05
2.4292268579266e-05
2.0825663456441e-05
1.7894179657988e-05
1.5472140211886e-05
1.3454112259301e-05
1.1765940200593e-05
1.0344075862409e-05
9.1387404973447e-06
8.111076809919e-06
7.2308440649418e-06
6.4724096215524e-06
5.816137935694e-06
5.2458807587508e-06
4.7479854387134e-06
4.311381729129e-06
3.9268907394156e-06
3.5873377974788e-06
3.285972063406e-06
3.0178939796292e-06
2.7784262038102e-06
2.5642213463376e-06
2.3718100487866e-06
2.1985335200902e-06
2.0420593677934e-06
1.9003756305303e-06
1.7718296787614e-06
1.6547821347292e-06
1.5480014002965e-06
1.4503341776965e-06
1.360894451775e-06
1.278849569593e-06
1.2034389719189e-06
1.133968393123e-06
1.0698523426962e-06
1.0105659534686e-06
9.5562860946251e-07
9.0462429689417e-07
8.5721196506982e-07
8.1309773131806e-07
7.7201375349937e-07
7.3371020816865e-07
6.9796148031104e-07
6.6390545031434e-07
7.3603798905066e-06
0.0003907337410909
0.00089835768692381
0.00081541234207703
0.00070414579879572
0.00059207691243035
0.00046877116217823
0.00033459067000971
0.00025730308350832
0.0002964894384315
0.00032248770252377
0.00031788839264299
0.00031045963071518
0.00030671828119286
0.00030224675589836
0.00030346600035644
0.0003062495791557
0.00030968930399697
0.00031328679650508
0.00031647346782733
0.00031878728883224
0.00031996679734254
0.00031928241930714
0.00031658493232496
0.00031178744650042
0.00030491602610339
0.00029599470534098
0.0002851847744134
0.00027273660030552
0.00025897474107131
0.00024425676981554
0.00022898993747505
0.00021356825394428
0.0001982363608649
0.00018034137452226
0.00016746540229401
0.000155800216323
0.00014559020059257
0.00013688941468847
0.0001295965934529
0.00012360980837429
0.00011880321714273
0.00011499898787433
0.00011198401694977
0.00010952216495606
0.00010748001422574
0.00010575058453827
0.00010431659652298
0.00010298762116815
0.00010166354117887
0.00010037579675311
9.9058965697316e-05
9.7690240355687e-05
9.6282843513868e-05
9.4820080805696e-05
9.3307834824649e-05
9.1726847676427e-05
9.0084563813344e-05
8.8364119282985e-05
8.6584145621177e-05
8.4801643243253e-05
8.2921812898109e-05
8.1468282976474e-05
8.0645771689709e-05
8.0613682617259e-05
8.1198347521159e-05
8.1078237557071e-05
7.8995055238784e-05
7.8071337110608e-05
6.5215534027141e-05
1.5001600638285e-05
0.00019824271958389
0.00028290231824113
0.00037992813415854
0.00046650348212689
0.00054230954553097
0.00061378004754714
0.00066413663631197
0.00051116707904172
0.0003969583189543
0.00031539143611812
0.00025598496669627
0.00020981215820543
0.00017332016705078
0.00014398756422287
0.00012014828148627
0.00010067119223683
8.4883940563619e-05
7.2120910339178e-05
6.1785564356693e-05
5.3441461669154e-05
4.6663258630782e-05
4.1141937547463e-05
3.6608355367202e-05
3.2653158467441e-05
2.9461505950429e-05
2.6713906160461e-05
2.4346635383406e-05
2.1069645576547e-05
1.8105309782875e-05
1.5657585173206e-05
1.3619936786312e-05
1.1909643434176e-05
1.0466639885137e-05
9.2448437148103e-06
8.2029748061811e-06
7.3088422709294e-06
6.5387516959928e-06
5.8728091537176e-06
5.2937326011959e-06
4.7880510140937e-06
4.3448923705909e-06
3.9549840311353e-06
3.6105165752501e-06
3.3050200593296e-06
3.0334331713511e-06
2.7910696343426e-06
2.5742895317948e-06
2.3796264212091e-06
2.2045298972049e-06
2.0465113035979e-06
1.9035706384225e-06
1.773908375779e-06
1.6559676711747e-06
1.5485027670344e-06
1.450297965345e-06
1.3604054772975e-06
1.2779493140419e-06
1.2022029576113e-06
1.1324814310069e-06
1.0681717044144e-06
1.0087389071986e-06
9.5371358703721e-07
9.0269138134247e-07
8.5530269218435e-07
8.1122911118805e-07
7.7020265635375e-07
7.3197721662059e-07
6.9631621597291e-07
6.6297802048857e-07
1.8740717697957e-06
0.00017465829156565
0.00087707513830429
0.00084216107756184
0.00073136628112618
0.00062166263390119
0.00050392229795268
0.00037271784767723
0.00027077456135392
0.00028994850781966
0.00033129905632148
0.00033392073267472
0.00032661869267465
0.00032200492009488
0.00031727529061947
0.00031886553416735
0.00032218215799041
0.00032625454874836
0.00033056168705218
0.00033450718013594
0.00033758432462754
0.00033951763609224
0.00033959916791997
0.00033758651327049
0.00033336034051146
0.00032696555881243
0.00031839815942498
0.00030780087838499
0.00029540869125541
0.00028152995555589
0.00026650789515845
0.00025073624921387
0.00023459726679429
0.00021828688277431
0.00020867141545178
0.00019368882450722
0.00017972696151621
0.00016707121297643
0.00015584515633576
0.00014600999447808
0.00013753295492042
0.00013035765753061
0.00012437427936958
0.00011940589580193
0.0001152202182358
0.00011165152668452
0.0001085578128838
0.00010592299700546
0.00010361568640623
0.00010156806242775
9.9684751733898e-05
9.788341884614e-05
9.6094352326372e-05
9.4289477188208e-05
9.2452509898724e-05
9.0598134659791e-05
8.8714449691625e-05
8.6808639024271e-05
8.4865095290709e-05
8.2888955947864e-05
8.090480316086e-05
7.8902698919646e-05
7.713093930751e-05
7.6210998433013e-05
7.604350471081e-05
7.6555716702656e-05
7.6490954842999e-05
7.4681473387407e-05
7.3597573797758e-05
6.1370126699516e-05
3.3411592976229e-06
2.2985245815241e-05
4.8903257867155e-05
7.8998555180543e-05
0.00011456876447153
0.00015634473804438
0.0001989084304892
0.00024274678079633
0.00028351746003107
0.00031074590346603
0.00031754433705123
0.00026428395732918
0.00021321186099531
0.00017373878164947
0.00014318081824064
0.00011898236742378
9.9240630706778e-05
8.3327638732121e-05
7.0497912337326e-05
6.0154532568427e-05
5.1787979550515e-05
4.4982113784367e-05
3.9409144359377e-05
3.4831694380577e-05
3.110210111683e-05
2.8010178678369e-05
2.5259557978427e-05
2.2268120634769e-05
1.9126154827616e-05
1.6526361562724e-05
1.4363566725049e-05
1.2548202135152e-05
1.1020115593494e-05
9.724907080975e-06
8.6202387728487e-06
7.6713016213753e-06
6.8544629220036e-06
6.1480610964216e-06
5.5343723312733e-06
4.9982685949314e-06
4.5286366739391e-06
4.1158632188528e-06
3.751554524736e-06
3.4286998274199e-06
3.1417955817741e-06
2.8862078749401e-06
2.6577878552006e-06
2.4529592462876e-06
2.2687985596398e-06
2.1028685875867e-06
1.9530027187912e-06
1.8172849342833e-06
1.6940479719912e-06
1.5819147841788e-06
1.479652739183e-06
1.3862233336835e-06
1.3006672370675e-06
1.222160406709e-06
1.1499993963428e-06
1.083549097999e-06
1.0222543552826e-06
9.6561637715684e-07
9.1319412574846e-07
8.6459314180863e-07
8.1946385939817e-07
7.775021658211e-07
7.3843965384517e-07
7.0203454331012e-07
6.6807084534548e-07
6.3569991085667e-07
8.8960936650827e-06
0.00041901414860418
0.00089689928587575
0.00081243269076238
0.00070424464220946
0.00059706567058226
0.00048053846313578
0.00035467721940986
0.00027796873138048
0.00031682158626617
0.00035646247849037
0.00035918326121677
0.00035254799136068
0.00034830435729088
0.00034449676590701
0.00034626346736162
0.00035017876521678
0.00035510644372671
0.00036043805965255
0.00036552740551007
0.00036978872548144
0.00037282319863208
0.00037414573934223
0.00037320454792984
0.00036988578947745
0.0003642577689342
0.00035628677816724
0.00034609208718419
0.00033389266345206
0.00031997238270466
0.00030465430203478
0.00028830723056209
0.00027129510967073
0.00025380468618914
0.00024022885087143
0.00022337960200071
0.00020728263988193
0.00019222364586133
0.00017834724481896
0.00016570180684464
0.00015433608370115
0.00014428041127602
0.00013553824905552
0.00012806517419965
0.00012167740402253
0.0001161398697327
0.0001113135496439
0.00010714982286173
0.00010358107819324
0.00010063135741429
9.7948719105417e-05
9.5338587041184e-05
9.2759229395372e-05
9.0206481184957e-05
8.7675790781649e-05
8.5186285688423e-05
8.2728539333492e-05
8.0303132688981e-05
7.7892573754472e-05
7.5482271046443e-05
7.3097667268582e-05
7.0730650622545e-05
6.8583833652145e-05
6.7259526708509e-05
6.6800239767513e-05
6.7010197513114e-05
6.687323747069e-05
6.5635330274784e-05
6.4444706837914e-05
5.3597864634116e-05
3.0502746822633e-06
7.7211197673119e-06
1.4892914641723e-05
2.4890564804452e-05
3.8123795784163e-05
5.4534209717721e-05
7.4418834707661e-05
9.6752507581813e-05
0.00012126306663914
0.00014646633264322
0.0001670126437012
0.00017793668089326
0.00017740784243461
0.00016537036674909
0.00014335335805327
0.00011850299701219
9.9254799645586e-05
8.3614264050517e-05
7.0870716426097e-05
6.0442378470265e-05
5.1974911776945e-05
4.5066029087842e-05
3.9404620015295e-05
3.4737825030378e-05
3.0873775374763e-05
2.7646498643813e-05
2.4089418267963e-05
2.0747946310111e-05
1.7950339752716e-05
1.5594968375267e-05
1.3609366448683e-05
1.1932831149647e-05
1.0509449560317e-05
9.2975959293516e-06
8.2576392293645e-06
7.3642487825224e-06
6.5941154554771e-06
5.9267009586557e-06
5.3445518849662e-06
4.8345554605242e-06
4.386872766138e-06
3.992040931406e-06
3.6425290852828e-06
3.3319108980056e-06
3.0556563873673e-06
2.8089912756893e-06
2.5881754379104e-06
2.3897645120526e-06
2.2111397476966e-06
2.0500468920407e-06
1.9043554550222e-06
1.7722711775278e-06
1.6522141533655e-06
1.5429288910921e-06
1.4432164028467e-06
1.3520482436004e-06
1.268528981513e-06
1.1918721268876e-06
1.1214078859208e-06
1.0565016887267e-06
9.9660987051208e-07
9.412654231175e-07
8.9004885278923e-07
8.4259036697659e-07
7.985408360281e-07
7.5759485098507e-07
7.1948556577511e-07
6.8397663591437e-07
6.5085120372995e-07
6.1935694441433e-07
1.0344198531547e-05
0.0004459366818668
0.00089677759801128
0.00081071284799822
0.00070513949085735
0.00060206955319134
0.00049121554610437
0.00037168226028236
0.00029261973392107
0.00032509454891073
0.00037312483473003
0.00038216270570941
0.00037605779331779
0.00037053395433921
0.00036646058455965
0.00036768826870624
0.00037162279670735
0.00037692214038483
0.00038282486905161
0.00038862297683311
0.00039364749498361
0.00039737599986311
0.00039947297561008
0.00039918249871228
0.00039640482701154
0.00039121578944575
0.00038358056822046
0.00037361462629052
0.00036153873368711
0.00034762253194581
0.00033218172732334
0.00031556581908652
0.00029812694022834
0.0002800823915486
0.00026243464976183
0.00024436971903126
0.00022689282611784
0.00021022406420923
0.0001944981434636
0.00017982195761677
0.00016630564446257
0.00015400023702916
0.00014304358531223
0.00013354832212875
0.000125448448735
0.00011837834164326
0.00011219499663858
0.00010701717071391
0.00010255406127454
9.8604333485731e-05
9.4948550694292e-05
9.1432269720574e-05
8.7959793537109e-05
8.4502762209342e-05
8.1050091099808e-05
7.7646237793454e-05
7.4461339869328e-05
7.1380903646351e-05
6.8404688650009e-05
6.5388048789873e-05
6.2626951584283e-05
5.9892586967879e-05
5.7509832154732e-05
5.5680475919191e-05
5.4976394757057e-05
5.4884955672765e-05
5.4852709979588e-05
5.4127742181042e-05
5.3244468631474e-05
4.4426048181221e-05
2.7284932163608e-06
4.8736719481609e-06
6.8343572495942e-06
1.0915957290997e-05
1.6630069172991e-05
2.4112395223077e-05