/*--------------------------------*- C++ -*----------------------------------*\
| =========                 |                                                 |
| \\      /  F ield         | OpenFOAM: The Open Source CFD Toolbox           |
|  \\    /   O peration     | Version:  2312                                  |
|   \\  /    A nd           | Website:  www.openfoam.com                      |
|    \\/     M anipulation  |                                                 |
\*---------------------------------------------------------------------------*/
FoamFile
{
    version     2.0;
    format      ascii;
    arch        "LSB;label=32;scalar=64";
    class       volScalarField;
    location    "8e-05";
    object      cSound;
}
// * * * * * * * * * * * * * * * * * * * * * * * * * * * * * * * * * * * * * //

dimensions      [0 1 -1 0 0 0 0];

internalField   nonuniform List<scalar> 
109340
(
555.46676537387
554.4215068397
552.40681856396
549.95396893977
547.22924519147
544.37397037709
541.44308812083
538.46250150926
535.46161955774
532.36748154385
529.04396072293
525.36676375055
521.19447211122
516.36582292597
510.70457626195
504.02602244581
496.14278786455
486.87405458052
476.05539039171
463.55070415069
449.26301397609
433.14934463074
415.23167537251
395.60398508161
374.43120971821
351.94239628804
328.41489257195
304.15242563105
279.4587534066
254.61015278391
229.829486998
205.26296521092
180.96343226304
156.89635577279
132.99796986975
109.3136205919
555.63161731956
554.28370158967
552.01942633386
549.39753410373
546.5904756739
543.72208320008
540.82839364507
537.90440178478
534.90380325049
531.75446904179
528.34961768701
524.56225857635
520.24467939087
515.23039215873
509.33938324822
502.38367702664
494.17697277062
484.54112898218
473.31691817381
460.37610742125
445.63361355794
429.0614094798
410.69886713857
390.65819798363
369.12178732022
346.33300084326
322.57880933279
298.16629891911
273.39558285924
248.5322730309
223.78141072207
199.26286951826
174.98823992806
150.86192199942
126.68462551743
102.49946455476
556.22554583386
554.66379851504
552.17074797679
549.48689013651
546.70398850382
543.87693549441
540.99906906514
538.06734693498
535.0572931929
531.89985905829
528.49127084708
524.70365394045
520.38810703869
515.37737519158
509.49114925688
502.54211233879
494.3432090201
484.71603587351
473.50061600753
460.56804219419
445.83193580652
429.26328947128
410.90069754272
390.85571780853
369.31053277275
346.50861723787
322.73755284374
298.30550222096
273.51394924394
248.62947377692
223.85712831739
199.31267178698
174.98476169857
150.7093942547
126.12328200327
100.82224361353
557.05114697154
555.16732377017
552.54995464167
549.79175282769
546.95609873001
544.07070044032
541.1451238854
538.18070974769
535.14888311541
531.97940994942
528.56864457113
524.78740830356
520.4849080763
515.49217527796
509.62682332532
502.69928968927
494.52055458604
484.91013067105
473.7052638893
460.77519682525
446.02988489781
429.43844072744
411.03818448022
390.94016854105
369.32807590704
346.44770721934
322.59047284548
298.06932918372
273.19104655712
248.22701256413
223.38573024574
198.7833961454
174.38253170154
149.93576615477
124.82101253676
97.780592045527
558.35015303078
555.90057541766
552.90117266092
549.95469935293
547.04197430188
544.12839375793
541.19396285059
538.23367910047
535.21241067697
532.05699033436
528.66482342226
524.90561797991
520.62537079925
515.65049250927
509.79224207177
502.85292000862
494.63415685353
484.94533515951
473.60464329835
460.47746966569
445.45978888425
428.51653627661
409.68657807984
389.08865898603
366.92427991193
343.46317352665
319.02687977078
293.96158685402
268.60718961282
243.26501595416
218.16515103346
193.45291239405
169.07423044769
144.72442859331
119.50776989143
90.74523812555
560.76379464671
556.29007479686
552.98524621774
549.97704915446
547.06065274686
544.15308799928
541.22566432605
538.25867681159
535.19837031741
531.94246361806
528.34958979905
524.24079647627
519.40513564599
513.60609342579
506.59064669471
498.10200651834
487.89667207975
475.77153298135
461.59813588239
445.21779065558
426.62601268971
405.92265413818
383.3226152113
359.15035215945
333.81795767296
307.78900579554
281.5369564156
255.50300830276
230.06020901765
205.4868995473
181.94265033586
159.51125634707
138.03715058998
117.16915807883
95.983187393871
70.884103674689
86.86235536744
68.018439713316
54.105279793774
44.680660910373
38.468188033022
34.292449587609
31.495723900131
29.676103510958
28.597271672258
28.100727951489
28.015343228431
28.396327469643
29.008642405512
29.800441042066
30.715426389218
31.682678003332
32.662754664405
33.625106826004
34.55118260698
35.431926573815
36.261766101386
37.038256912383
37.762906481621
38.43834054972
39.067039640394
39.652983307559
40.200643541936
40.709874669939
41.187553419094
41.634667015114
42.053745510183
42.44901666008
42.819743263016
43.171086834445
43.501571973741
43.815894840982
44.112562173917
44.395555596494
44.663580690761
44.919894073096
45.163494205582
45.396863631065
45.619540096454
45.833018587347
46.037611804211
46.233738148208
46.422468917082
46.603534548212
46.778211725237
46.946222480314
47.108325571953
47.264742259359
47.415833596612
47.561878624907
47.703157542736
47.839920592014
47.972408091931
48.100838553221
48.225416841752
48.346329844672
48.463751975462
48.577846726344
48.688769632027
48.79666696922
48.901676111827
49.003925810212
49.103537602488
49.200625919848
49.295297690632
49.387648962358
49.477621510138
50.047854654572
50.978588438691
51.514846879906
52.09748366344
52.789789648691
53.623767984703
54.590747042689
55.492796728732
55.876899419679
55.938647923652
55.934714096408
55.920964025725
55.908162923756
55.895573391892
55.886697528404
55.879753416804
55.874644691673
55.871070611077
55.869011598516
55.86831363666
55.868805518248
55.870300714413
55.872545109459
55.87547381863
55.878906475609
55.882609515549
55.886402556919
55.890123656699
55.893636213984
55.896785095762
55.899428558954
55.901471024607
55.902843912138
55.903589102131
55.903355388735
55.902688570509
55.901552243266
55.900033742698
55.898201357146
55.89610687644
55.893768510254
55.891209421927
55.888469139586
55.88556030964
55.882558640871
55.879529645363
55.87649238094
55.873447958864
55.870411884686
55.867397400828
55.864462940912
55.861583208936
55.858780397602
55.856230145266
55.854203848604
55.852693501251
55.851349251474
55.850194034188
55.849296333005
55.848813582329
55.848679419718
55.850411563236
55.853790897628
55.85943863857
55.866888351478
55.871958541063
55.883654450901
56.160642504479
64.112880968021
79.45478367281
61.179482201276
48.751348843776
40.863895928533
35.774381763857
32.394355139687
30.213950109934
28.880459355479
28.181039297264
27.96458224612
28.125145840987
28.568843583746
29.264498810939
30.099276413086
31.017852031731
31.97984719575
32.945491220398
33.89043043189
34.798886535016
35.661095231149
36.472690397839
37.23280058936
37.942336326194
38.603625154467
39.219728102492
39.794177638636
40.330275451306
40.831312239742
41.300104345244
41.739691080292
42.152401679568
42.540753731043
42.906667939576
43.252131337611
43.578800745559
43.88821889605
44.181765897393
44.460683474453
44.72609152037
44.979008153917
45.220326464408
45.450917732936
45.671472842795
45.882748406374
46.085287156609
46.279742273121
46.466550542258
46.64626423817
46.819253122332
46.985966889418
47.14673247139
47.301912274485
47.451818729221
47.596743053883
47.736961596376
47.872719399174
48.004252916462
48.131775084476
48.255486277278
48.375570168213
48.492200052207
48.605538037254
48.715737190911
48.822941180861
48.927285765933
49.028898482017
49.12789920059
49.224399932134
49.318505652138
49.410315308244
49.502890822111
50.380183537874
51.116876198821
51.651842815757
52.257086491582
52.981017412842
53.850364661708
54.832915501271
55.638058049459
55.903085653681
55.937763366812
55.929254193803
55.914964477822
55.902125593787
55.893296004425
55.884077866918
55.876825736007
55.871388757449
55.867537753034
55.865208261619
55.864253703141
55.864505260871
55.865780297006
55.867846276098
55.870590178204
55.87386445348
55.877448186146
55.881157628413
55.884836849799
55.888353583996
55.891559508591
55.894321443003
55.896554393674
55.898175760105
55.899298782311
55.89928167463
55.898804124414
55.897855275673
55.896487876565
55.894762628786
55.89272400207
55.890422684293
55.88785867414
55.885081185806
55.882107135937
55.879023568824
55.875885704359
55.872719422682
55.869516598423
55.866308670458
55.863121780862
55.860026809412
55.857008417822
55.854081953268
55.851370366277
55.849154789567
55.847494358131
55.846067351046
55.844817107624
55.843826251598
55.843228694489
55.842963337705
55.844418308276
55.847782763177
55.853492029963
55.860955286871
55.866025532913
55.877830112237
56.150947490483
64.032105033957
75.576216673853
56.17932727015
44.643600370658
37.463356561507
33.283487764884
30.687779449208
29.089648952266
28.2098521807
27.847472700372
27.844940253557
28.191251401897
28.741703963327
29.461330893137
30.297948527425
31.204069531136
32.143736911726
33.085895429057
34.009304641813
34.898490866764
35.743825417862
36.541586828506
37.290504305243
37.990772723913
38.644533036282
39.254710670982
39.824179698639
40.355906465195
40.853283824277
41.319106141776
41.756008155839
42.166559027051
42.552905692544
42.917224181454
43.261226334053
43.58669950519
43.89502946238
44.187678827016
44.465773021599
44.730503426087
44.982786250139
45.223610674556
45.45371456734
45.673915231691
45.884822120396
46.087102742999
46.281279979806
46.467889612257
46.647399964506
46.8202297973
46.986799039207
47.147447237999
47.302534858797
47.45235201665
47.597204311607
47.737357142803
47.873062887058
48.004552102054
48.132037120754
48.255716357537
48.375773772782
48.492382330744
48.605703797144
48.715890388596
48.823085083331
48.927423140566
49.02903159652
49.128029464571
49.224528091052
49.318631925737
49.410441837351
49.503168293604
50.383592109949
51.117347068613
51.651309715162
52.254876186722
52.976336822553
53.842789161382
54.822723209832
55.6284420228
55.897984560068
55.934611346399
55.926242631142
55.911344000324
55.89772873153
55.888708543185
55.878792493516
55.870869357958
55.864776563085
55.860329519492
55.857446017553
55.855981502275
55.855771534314
55.856638454486
55.858389618733
55.860811236544
55.863830272641
55.867242910123
55.870847559668
55.874500592958
55.878077103993
55.881436732011
55.88445515182
55.887037780475
55.889101020275
55.890865730825
55.891308341686
55.891117352656
55.890497637246
55.889421610504
55.887922267518
55.886036380976
55.88381302373
55.881279734327
55.87845852725
55.875401830603
55.872158529428
55.86880967223
55.865398033407
55.861873016831
55.858323020416
55.854779716763
55.851339431709
55.848005979728
55.844778181031
55.84171030454
55.839085163933
55.837070278459
55.835444034019
55.833992161831
55.832799886325
55.831979858698
55.831401031934
55.832452361843
55.835758826204
55.84160705536
55.84915316467
55.853840360906
55.865064217271
56.122105097068
63.683938085803
68.450818519241
48.226598542796
38.439233995166
33.051364943077
30.1840621899
28.657120918483
27.854841613069
27.551069910985
27.584252931995
27.836817713048
28.369379151802
28.999542412334
29.73871951181
30.56533237449
31.445447143951
32.355765739364
33.269033936219
34.164397665577
35.02894942775
35.854109869299
36.634628581432
37.368538559894
38.056982630799
38.701134527813
39.303157622285
39.865948711457
40.392418240182
40.885147795946
41.347035526478
41.780628921941
42.188309293234
42.572216090878
42.934365826981
43.276548110012
43.60035530587
43.907290317645
44.198647281841
44.475645805164
44.739349574668
44.990759463941
45.230757164852
45.460157435161
45.679703080359
45.890040137905
46.091802031866
46.285512819863
46.471715856844
46.650838779002
46.823340705734
46.98959191006
47.14997313895
47.304811953872
47.454417415809
47.59907741792
47.739056118988
47.874607052225
48.005956117332
48.133315960212
48.256882563793
48.376839501257
48.493358139419
48.60659941424
48.716714985741
48.823847374668
48.92813052218
49.029690001841
49.12864381804
49.225102702736
49.319170459048
49.410950137456
49.503878845651
50.388504505787
51.11818635161
51.650564199861
52.25162271483
52.969433668752
53.8315747745
54.807626057358
55.614463808263
55.89081542458
55.930404415042
55.922390369859
55.906768227672
55.892151651701
55.882539345893
55.871677562162
55.86285777703
55.855903853617
55.850671886452
55.847068878998
55.844955698343
55.84417433787
55.844554364333
55.845914895831
55.848029871025
55.850799927825
55.854070955674
55.857623745916
55.861306154716
55.864992735518
55.868544284036
55.871845448688
55.874798109903
55.877320381016
55.87972505496
55.880676007173
55.880852075718
55.88049556647
55.879725453334
55.878480940523
55.87677168133
55.874637460084
55.872112545107
55.869220163504
55.866019650995
55.862568576244
55.858917937045
55.855140104145
55.851158654161
55.847090455525
55.84300526419
55.839036912426
55.835206284754
55.831511799008
55.827935528515
55.824761055253
55.822237985464
55.820302645396
55.818593085059
55.817130831412
55.816040690463
55.815250131338
55.815842469812
55.819024842083
55.824734219477
55.832099818317
55.836874939848
55.847745630063
56.098381868601
63.621830663648
53.606942240309
36.697124075636
30.65558585048
28.256847587134
27.285592056575
26.944712514586
26.975209160135
27.224201143646
27.608826737204
28.109111626003
28.694999034638
29.358390053073
30.098643464863
30.902477609721
31.750037930612
32.619616226101
33.494134380337
34.355770894042
35.190576528457
35.990023972162
36.749293272889
37.466185879612
38.139696068124
38.771668579403
39.363854354257
39.918487174272
40.437985636746
40.925085216329
41.382150981991
41.811673404856
42.215852572529
42.596813155661
42.956391897036
43.296355462314
43.618232228026
43.923471143589
44.213324189282
44.488999084257
44.751515850002
45.001866860855
45.240904259567
45.469454585743
45.688209898682
45.897851427269
46.098961770879
46.292100712822
46.477762044549
46.656401820187
46.82845314935
46.994292927092
47.154298234431
47.308787540564
47.458081972122
47.602456198386
47.742176796868
47.877487312365
48.008615447748
48.135772903086
48.259154107387
48.378941425749
48.495304673115
48.608404386718
48.71839159541
48.825407705676
48.929584906741
49.031047511645
49.129912650919
49.226289964426
49.320283037722
49.41199467531
49.505171379593
50.395042217335
51.119406573529
51.649599329002
52.24727687333
52.960201245376
53.816521575307
54.787336047565
55.596060645955
55.88173281845
55.925411182921
55.918082481192
55.901736772751
55.885985822418
55.875485543886
55.863507840357
55.853616417216
55.84564331284
55.83948127765
55.835038699676
55.83218512331
55.83076906124
55.830627942007
55.831586210355
55.833433293075
55.836002278136
55.8391987345
55.84278961489
55.846602222784
55.850499414643
55.854331378002
55.857971156715
55.861312611423
55.864289025101
55.867262309063
55.868670505277
55.869263258112
55.869094256337
55.868538584296
55.867502225324
55.865945369691
55.863881100118
55.861334649147
55.858327804892
55.854925511496
55.851190569938
55.84717549808
55.842938215799
55.838365073396
55.833605772888
55.828801055937
55.824121249389
55.819609183848
55.815292748845
55.811111014927
55.807347435652
55.804298385785
55.801995995874
55.800007063961
55.798232419762
55.79683484521
55.7958087965
55.795798766609
55.798911614693
55.804537408965
55.811872695613
55.816651969851
55.827270296785
56.07331508891
63.619392724671
26.704530121581
24.532962987311
24.764693760773
25.319429153709
25.855065245201
26.367620758704
26.872040354898
27.409442816713
27.95256077047
28.527194265905
29.145089393681
29.815457462464
30.535646339961
31.302559024143
32.106181652193
32.930630695625
33.760580298956
34.581395262033
35.381258180839
36.151275217067
36.885728879617
37.581720317587
38.238645830851
38.856350973156
39.436624789475
39.981378250418
40.492814381723
40.97297029501
41.424221344831
41.84885927567
42.24891186376
42.626282469468
42.982824946808
43.320155314947
43.639748534438
43.942971924428
44.231085169426
44.505196674688
44.766340775813
45.015463858567
45.253419030189
45.480980660983
45.698851696728
45.907688867887
46.108068355627
46.300541729526
46.485588326392
46.663676007692
46.835208595396
47.000578254112
47.16014048952
47.314227143084
47.463148296927
47.607179140403
47.746583961668
47.881599478952
48.012454544621
48.139356667649
48.262499938442
48.3820659538
48.498224967438
48.611136707453
48.720950174912
48.827805417836
48.931834139081
49.0331598211
49.131897900477
49.228156272829
49.322039375634
49.413648028069
49.50713615139
50.403272494475
51.121049176853
51.648397468275
52.24177655155
52.948516230594
53.797399243512
54.761526080341
55.573079945451
55.870825704154
55.919856176818
55.913655596126
55.896688203934
55.879736024022
55.868117689643
55.854895931689
55.843797079645
55.834676238029
55.827463960872
55.822078552116
55.81840283735
55.816295430084
55.815601848524
55.816152191187
55.817754159225
55.820176471301
55.823369546795
55.827087688933
55.831128655806
55.835335556445
55.839537900472
55.843590076921
55.847373626308
55.850833302048
55.854337207053
55.856186658833
55.857177661933
55.857242430415
55.856751698047
55.855816580871
55.854327768503
55.85226634376
55.84963363335
55.846440001851
55.84275138302
55.838629247193
55.834124837127
55.829285310586
55.823991310297
55.818363394441
55.812663955738
55.807136236825
55.801821762255
55.796840332319
55.792129052435
55.787932447953
55.784536320162
55.781916341883
55.779640436463
55.77756630521
55.775904451221
55.774708922396
55.774261671136
55.777279739154
55.782814801808
55.790123463994
55.795138768483
55.805589152348
56.045880836974
63.618721114457
26.012154318863
22.922148987578
24.120514619195
25.1171175869
25.946851626059
26.644441989373
27.248062002549
27.816825378308
28.380000008528
28.952287069881
29.552516851567
30.188309933656
30.860634023708
31.571121442741
32.315910124203
33.085084044446
33.865360433206
34.644678299894
35.410689556749
36.154220638543
36.868732392722
37.550173354067
38.196430273067
38.807235414469
39.382736052968
39.924306980207
40.433964874304
40.91350778279
41.364790363036
41.789854229159
42.190796835847
42.569379107087
42.92725071146
43.266002196908
43.587131875734
43.891922456503
44.181572572348
44.457217744276
44.719881673589
44.970475086374
45.209850464575
45.438787275685
45.657988257854
45.868090460544
46.06968236356
46.26331410752
46.449473537419
46.628621143505
46.801165265937
46.967504431314
47.127991060126
47.282961334315
47.432720963589
47.577555262558
47.717731713579
47.853487393372
47.985048804909
48.112624009001
48.236412993668
48.356599310274
48.473354287416
48.586838610236
48.697203419889
48.804591092017
48.909133869065
49.010955432017
49.110171747318
49.206893633924
49.301223872034
49.393249041281
49.483104486508
50.089566720688
50.987689416818
51.51262906738
52.079109969304
52.747068961163
53.550418513092
54.486971884679
55.383863860242
55.817932241419
55.909239272667
55.912549371587
55.896600616171
55.878222033355
55.860889433345
55.846310323664
55.833874842453
55.823474509882
55.815081842924
55.808636871914
55.804038681216
55.801160967026
55.799860086099
55.799974895547
55.801317258759
55.803636911888
55.806881766608
55.810802539061
55.815167972318
55.819793734173
55.824481338298
55.829054527386
55.833362972284
55.837343658282
55.834572055569
55.837197565608
55.838837884683
55.839352193887
55.838915369466
55.838009702421
55.836477107498
55.834248675144
55.831292476084
55.827610671423
55.82325620434
55.818284223772
55.812747764805
55.806667184574
55.799995672281
55.79292772712
55.78591638741
55.779325009695
55.773212543952
55.767666303618
55.762721188532
55.75837430206
55.754857610137
55.752028542596
55.749496539857
55.747307090501
55.745565545243
55.74437076902
55.743766787642
55.746174864037
55.751895904403
55.7593871435
55.76452037733
55.774312778164
56.002717811152
63.610349568072
34.298874468029
28.757196675994
28.463895779755
28.488528786377
28.660212357082
28.919348448966
29.255956669071
29.664022500124
30.081486958582
30.543700623248
31.047653855498
31.585308308759
32.156977726707
32.762462529347
33.399528190691
34.061266897329
34.738221411294
35.420349257255
36.098643092296
36.763624563264
37.408511904882
38.028958205932
38.622164318446
39.186781323122
39.722612122917
40.230105550312
40.710053404744
41.163525332315
41.592227994194
41.997635850225
42.381259902521
42.744464913144
43.08876241704
43.41548586982
43.725864377985
44.021008859258
44.302032428605
44.569928516728
44.825597619907
45.069856147136
45.303485509137
45.527194437168
45.741613388598
45.947326726573
46.144885607135
46.334801229381
46.517532500084
46.693501496862
46.863104465284
47.026709716254
47.184655201839
47.337250579841
47.484787120922
47.62753938162
47.765759274741
47.899680025029
48.029513463948
48.155460773952
48.277711885583
48.396444302478
48.511823789766
48.624005530787
48.733136156573
48.839352896585
48.94278370419
49.04354798057
49.14175708091
49.237518549833
49.330936071412
49.422101207195
49.517163410584
50.438190836108
51.12888748315
51.643367977509
52.217869073514
52.897674237488
53.71352491994
54.647713021905
55.473317417857
55.826262052132
55.900804298875
55.901804371704
55.884466710753
55.864037111781
55.848173550048
55.830547181087
55.81503445663
55.801633666826
55.790415813566
55.781400496341
55.774544544642
55.769767911792
55.766963321534
55.765998444029
55.766699346146
55.768797655
55.772226138781
55.776711999728
55.781966875652
55.787728474998
55.793720452425
55.799683733869
55.805373377781
55.810619219922
55.809721175024
55.813524007548
55.816140349359
55.817372575774
55.817112880409
55.816084782356
55.814292118893
55.811594021649
55.807940214306
55.803314845119
55.797746746211
55.791283414125
55.784016471961
55.775971370758
55.767361794286
55.758839820817
55.750828475033
55.743712466441
55.737535124708
55.732011435314
55.727496506328
55.723820740689
55.720539312967
55.717922422455
55.715905858797
55.71440393825
55.713259721668
55.712682751201
55.712379353048
55.714532175022
55.72002102678
55.727630858392
55.732775763569
55.741624739803
55.947187464812
63.588273962536
37.75332133954
32.602804248594
31.924059591884
31.619370675026
31.472727085893
31.426411203993
31.484369505712
31.630767160414
31.860250406682
32.163937174776
32.502155549796
32.899097975569
33.348288477867
33.835872384971
34.3571476704
34.907986271024
35.481094386386
36.067620530076
36.659312605695
37.248639638109
37.828362557137
38.392741530696
38.937973238224
39.461619307506
39.962409710785
40.439962801649
40.894373508737
41.326204961272
41.736368846907
42.125765403125
42.495555129758
42.846922768863
43.180933572047
43.498687312595
43.801153233438
44.089378751955
44.36430466964
44.626793000886
44.877646244192
45.117617980545
45.347435600805
45.567724495395
45.779077811847
45.982028293064
46.17710664076
46.364773193352
46.545467449326
46.719585478538
46.887506052677
47.049583949265
47.206134627974
47.357453013551
47.503813015516
47.645479632317
47.782695331277
47.915685004596
48.044658589358
48.1698113472
48.291327793712
48.409376873522
48.524117600112
48.635701356359
48.74427098087
48.849961734666
48.952898611948
49.053198194262
49.150970182088
49.246322578179
49.339353878951
49.430158038422
49.527188706633
50.470460221369
51.136979085462
51.639163226967
52.195858314126
52.850337807798
53.634447301004
54.538970586104
55.375416302623
55.782953447549
55.885286357275
55.895752173455
55.880448798995
55.85841524518
55.839366733101
55.818298772545
55.799137445444
55.782050249627
55.76725073047
55.754884199522
55.745007182838
55.737630184007
55.732713274135
55.730174843955
55.729878333157
55.731555390067
55.735120901246
55.740279017713
55.746673827069
55.753938704525
55.761684095625
55.769533347164
55.777128511913
55.784171874676
55.785516960891
55.790782219652
55.794576871569
55.796655578543
55.796721873349
55.795519435118
55.793340408499
55.789993803723
55.785391632427
55.779500326803
55.772355865364
55.764058139842
55.754864085272
55.745115112762
55.735583329802
55.726985160568
55.719358405801
55.712701297015
55.707582022017
55.703237947859
55.699661852942
55.696977492457
55.694997023179
55.693502014951
55.692349515227
55.691602629298
55.691160727312
55.691471611909
55.691810957395
55.695037589425
55.700854946316
55.710488471695
55.717120091461
55.727547174011
55.908632564248
63.509251833937
40.278636136303
35.192548310191
34.398683858343
34.001702280219
33.74567511132
33.585784158854
33.496719186553
33.498910424371
33.582280761767
33.727159958785
33.952586123555
34.219200601664
34.538026261949
34.908527268056
35.324271255414
35.773302634301
36.249882204242
36.747308920912
37.257149668722
37.772007727122
38.285574513079
38.792512410578
39.287960437206
39.7686816559
40.232487723341
40.678102748917
41.104990603408
41.513108760725
41.902721539865
42.274346275237
42.628711030373
42.966604239877
43.288807954017
43.596184331401
43.889614548425
44.169889292587
44.437804968039
44.694044269824
44.939337849821
45.174374639616
45.399752010416
45.616049226653
45.823777197828
46.023480579405
46.21561515456
46.400611701709
46.578868019304
46.750766866454
46.916674579551
47.076906448957
47.231769885666
47.381538974192
47.52648273909
47.666847982045
47.802861257803
47.934739011947
48.062682053923
48.186884633716
48.307524059429
48.424761174812
48.53874731711
48.649625877946
48.757536177863
48.862609036675
48.964966088199
49.064722348078
49.161986566242
49.256862111858
49.349446814864
49.439826419576
49.539984029725
50.510968025823
51.148019072855
51.635079080902
52.169969595524
52.793319762759
53.53764275449
54.403158822382
55.245240132237
55.721378181809
55.864306841558
55.890264788026
55.880012141381
55.85784623021
55.835864463276
55.811164230744
55.787824348532
55.766308343071
55.747040979227
55.730358500271
55.716477449227
55.705548499333
55.697655780733
55.692801567092
55.690922857007
55.691777337513
55.69524460254
55.701048614336
55.708746336187
55.717843886071
55.727800007986
55.73807833743
55.748152966626
55.757568366797
55.761659038665
55.768712349734
55.77389892634
55.776881977857
55.777237751314
55.775768336699
55.773023123465
55.768737137845
55.762815584359
55.755261834168
55.746201062586
55.736047900533
55.72541073269
55.71554909522
55.706651774322
55.698961663046
55.693103678404
55.688080924296
55.684301147647
55.681526408631
55.679521470187
55.678318270072
55.678159868356
55.67940259792
55.682068797002
55.686352400815
55.691945649706
55.699551453537
55.708252283731
55.719585647891
55.734020001672
55.753739708523
55.772149345694
55.788740777923
55.956865269593
63.344761794747
42.522930532644
37.106314507306
36.266850326914
35.833179830973
35.543292636718
35.334972016779
35.191004806623
35.112698376212
35.105126231714
35.160538875489
35.273640634622
35.459426380246
35.684154309762
35.951316856736
36.266272705659
36.626971139025
37.019100075496
37.434565949941
37.868917389106
38.315046936395
38.766105653297
39.216648900493
39.662531072901
40.099719347332
40.525572692593
40.938253841581
41.336543585517
41.71977172049
42.087682497842
42.440363621681
42.778129867428
43.101422824354
43.410808925498
43.706909877115
43.990331569359
44.261704213371
44.521702830392
44.770946890904
45.01001103991
45.23947961923
45.459835821867
45.671614358052
45.875308461718
46.071344526417
46.260158359016
46.442121015733
46.617615012491
46.787000639675
46.950597096988
47.108713605589
47.261619735559
47.409594803247
47.552891979146
47.691738347187
47.826350929078
47.956928700586
48.083671440264
48.206762082784
48.326368593626
48.442648824693
48.555745660996
48.66579763266
48.77293775425
48.877289345878
48.978971566125
49.078095253973
49.174764859335
49.269083278026
49.361141389592
49.45102580065
49.557082082766
50.559794855943
51.162949515434
51.632413911288
52.141983048709
52.729027659362
53.425957997413
54.242016963145
55.077161729962
55.630481770874
55.831751576838
55.88229287572
55.881700875479
55.862120721695
55.83839518503
55.810328879931
55.782487312081
55.75586144831
55.731204826124
55.709132483252
55.690108935051
55.674495061348
55.662558734925
55.654443742017
55.650183345617
55.649628495018
55.652613770151
55.658903612639
55.667976732036
55.679193102032
55.691829723804
55.705129652182
55.718331463229
55.730764434409
55.738283029025
55.747475457934
55.754184571375
55.757945089406
55.758257110876
55.756226193568
55.752485765741
55.74672665809
55.738951964607
55.729377836577
55.718380078919
55.70694197996
55.696633405544
55.687735535756
55.680977815549
55.675278406273
55.671167393046
55.668269348871
55.66668116359
55.666855824282
55.669591164148
55.675309875387
55.684523130468
55.697420337164
55.714203083162
55.734995676177
55.759453233917
55.788386966453
55.821022534926
55.859069086633
55.901477243089
55.953045154145
56.005825225792
56.051054050935
56.227179105112
62.967353239798
44.884663955685
38.599118117138
37.753245982523
37.293620589203
36.992987856417
36.767193204694
36.60286342953
36.485052788597
36.423690293509
36.42303877838
36.470350596934
36.568241909399
36.733085504137
36.941875747206
37.170681435963
37.4485845516
37.766453914068
38.11269868993
38.480085977108
38.862969577772
39.256385946159
39.654566372024
40.052806048619
40.447681269542
40.835950756294
41.215402228583
41.584467670338
41.942097848443
42.287620016555
42.620647842969
42.941099267586
43.249117844659
43.544984526878
43.829078100682
44.101834981327
44.363736733939
44.615269246325
44.856902607874
45.089107212224
45.312416365856
45.527258277198
45.734070096525
45.93327660607
46.125234083017
46.310329698429
46.488943951781
46.661391023381
46.827987300366
46.989024317712
47.144776104688
47.295529904797
47.441518397687
47.582975219991
47.720117572671
47.853147678846
47.982269315933
48.107659011239
48.229487294658
48.347916760888
48.463097900434
48.575175173081
48.684279979981
48.790534124072
48.894058061559
48.994962949673
49.093357357952
49.189347477806
49.283024952603
49.374481693922
49.463787723513
49.58178020736
50.617358569442
51.1827057335
51.63264292745