/*--------------------------------*- C++ -*----------------------------------*\
| =========                 |                                                 |
| \\      /  F ield         | OpenFOAM: The Open Source CFD Toolbox           |
|  \\    /   O peration     | Version:  2312                                  |
|   \\  /    A nd           | Website:  www.openfoam.com                      |
|    \\/     M anipulation  |                                                 |
\*---------------------------------------------------------------------------*/
FoamFile
{
    version     2.0;
    format      ascii;
    arch        "LSB;label=32;scalar=64";
    class       volScalarField;
    location    "8e-05";
    object      dydt;
}
// * * * * * * * * * * * * * * * * * * * * * * * * * * * * * * * * * * * * * //

dimensions      [0 0 -1 0 0 0 0];

internalField   nonuniform List<scalar> 
109340
(
0
0
0
0
0
0
1.0563006727596e-05
0.0020256387048969
0.010830810265389
0.03008925836769
0.063278166315865
0.11368068859569
0.18450801994264
0.27911858850375
0.40123821737502
0.55520505068711
0.7463721992015
0.98154277985729
1.2695591182335
1.6219705232122
2.0540685786233
2.5858269663088
3.2434008113235
4.061245119617
5.0854930590403
6.3786987782802
8.0275059647654
10.154989931069
12.941737870996
16.663427930169
21.761468253584
28.984615950588
39.688971561809
56.496849768469
84.789869359423
136.24626118181
0
0
0
0
0
0
9.1233348027575e-05
0.0030297226401794
0.013469362758415
0.035198609690374
0.071652354574013
0.12608977817641
0.20175026129537
0.30206811255551
0.43090523501526
0.59287410929021
0.79360918419809
1.0403538805844
1.3425687450957
1.7126659318732
2.1670012790817
2.7269379408191
3.4204688434777
4.2845763076808
5.3689129211187
6.7411455879569
8.4955036047803
10.766843919431
13.754920081642
17.768253199935
23.308376430401
31.243815433516
43.197589755457
62.444166084287
96.34187924659
161.56961365367
0
0
0
0
0
0
5.7672795361952e-05
0.0027064796981122
0.012708681519419
0.033972845700225
0.069988849697921
0.1240604486898
0.1994685385403
0.29967524207588
0.42854228588136
0.59061252619971
0.79148732954188
1.0383445877952
1.3406037540477
1.710630646066
2.1647858805382
2.7243957389043
3.4174101713559
4.2807705893586
5.3640817316271
6.7349811487218
8.4876434258244
10.756847444264
13.742255621299
17.752567146253
23.290499590528
31.231883396619
43.246177841095
62.835455537351
98.40981793602
172.63435946977
0
0
0
0
0
0
3.5783388614569e-05
0.0024891531683031
0.012268919585382
0.033375800093571
0.069311054059124
0.12335194649646
0.1987431665521
0.29890295360403
0.42766150954253
0.58954446278221
0.79012736160259
1.0365689264942
1.3383279903556
1.7077515155368
2.1613789243388
2.7205804300792
3.4133903563359
4.2769325249818
5.3609535102224
6.7334448684831
8.4890452575681
10.763235596129
13.756819865995
17.780751779765
23.342471126688
31.330241282494
43.482255854682
63.6130110028
101.82092184094
192.46743764267
0
0
0
0
0
0
2.8055231349217e-05
0.0023635144779801
0.011905940071055
0.032689231594711
0.068239712278082
0.12185212723904
0.19679102647716
0.29649740457056
0.42482828669984
0.58633993936996
0.78662567432347
1.0328551059375
1.3351816767894
1.7058193719184
2.16231716829
2.726770468208
3.428364832269
4.3060485806634
5.4118322550126
6.8172113405428
8.6217560860625
10.968142158412
14.068021467698
18.249589581726
24.05214369988
32.406576459819
45.20673484874
66.753634764694
109.68751890989
231.72482758935
0
0
0
0
0
0
0.00019352870658351
0.0042065257086574
0.01729967032828
0.0437180393365
0.087213601335939
0.15135574751676
0.23980191835201
0.35659919882084
0.50653610521564
0.69555208571964
0.93119924889868
1.2227566547992
1.5810704965475
2.0289982942971
2.589030227804
3.292020007207
4.1789503341246
5.3040942698331
6.7401835353823
8.5859934750603
10.978402584939
14.112110220241
18.273905868098
23.905958672096
31.741225399041
42.989475375869
60.217153126428
89.253778580823
148.12551186809
346.94823330116
231.65312123866
388.21073162699
601.75591176455
853.37724249752
1132.2272295681
1450.8314125363
1814.7057886511
2229.8172760059
2692.1526615237
3188.9578165418
3744.8163845622
4200.5782591167
4636.9470250945
5009.1366324058
5282.3467431989
5472.5012585209
5580.6918053835
5620.8936995839
5606.6123085479
5547.0003035567
5453.6222721787
5339.1907075207
5210.2675825889
5071.8444459244
4930.5696837048
4788.2061945628
4641.8453535139
4505.2774309711
4369.9687220868
4237.1096034553
4113.6615951389
3988.9669117895
3875.9803349339
3761.9349449407
3658.418832659
3554.7536505891
3460.1549549313
3365.9644052543
3279.6021582326
3193.8981321237
3114.9597757108
3036.9107889849
2964.5587006968
2893.4199556375
2826.6521189793
2761.9747675031
2700.1685369278
2641.2437745761
2584.203770697
2529.9258832176
2477.5058761993
2427.271136475
2378.9207522642
2332.3885629903
2287.580708048
2244.4134150155
2202.8019300414
2162.6680657563
2123.9361371282
2086.5370785059
2050.4067951515
2015.4851558428
1981.7143888764
1949.0393716386
1917.4084455405
1886.7736059924
1857.0894107668
1828.3126823501
1800.4052213083
1773.3278584411
1746.1966534351
1851.7408458211
1364.4672748028
1182.7096921338
1039.7724932363
894.74526129783
747.93232985167
601.62060515728
469.79530024694
400.33986057417
382.27874316997
380.4326931435
382.47677013055
384.81282672665
387.02189651652
388.25203655221
388.83403158986
388.82039989352
388.34276841354
387.37084153899
385.98365412721
384.26011288832
382.28065392537
380.12153448461
377.84140143859
375.51087083426
373.16475506637
370.84405483719
368.58050831334
366.38783425955
364.29323462861
362.32253171661
360.48063852949
358.77986823073
356.82444429709
355.4588069168
354.23698451907
353.14945886389
352.17817384996
351.3051091755
350.53929256532
349.87603072159
349.32247898524
348.89123067407
348.5790251748
348.374403719
348.28266744349
348.28144587483
348.38921670974
348.58701298643
348.87522418138
349.20281884994
349.53915641663
349.90743092415
350.24874886054
350.52985054407
350.79044388382
350.9900530996
351.16865175038
351.3518534776
351.26987094845
351.24972343667
350.42839017361
348.87685697515
346.15335697304
342.25678360834
338.96058758668
340.16119771477
408.08978341917
23173.992184276
291.64433963617
497.76061838693
755.57538731597
1036.284484127
1345.7269563657
1702.1996192791
2098.6105991638
2534.407790939
3000.3519440148
3485.1618236847
3970.5823381359
4443.3190740241
4821.0788706738
5132.3134966173
5370.1744079299
5523.7641090919
5605.3796455264
5624.4797418738
5591.8615539697
5520.3088791191
5420.2651521193
5300.202974178
5167.6809587054
5028.249637902
4885.6318777691
4742.6058763126
4601.4273298827
4463.0397169425
4329.0587061755
4199.371098399
4074.8024234317
3955.1857658023
3840.6755490074
3731.2981818552
3626.6955310728
3526.9743534502
3431.656817975
3340.7863363934
3253.9241572797
3171.0585038864
3091.8263389911
3016.1132534335
2943.7184409263
2874.4179506857
2808.128364535
2744.556413101
2683.70664916
2625.2652050057
2569.2507604028
2515.4123894196
2463.723848371
2414.0263243583
2366.2321682771
2320.2238820518
2275.9068396471
2233.2016569657
2192.0241375858
2152.2996013755
2113.9554249263
2076.9248255469
2041.1438065797
2006.5525548782
1973.0945442188
1940.7166964574
1909.368739879
1879.0030247592
1849.5744060097
1821.0404442269
1793.3617034333
1766.4977299
1739.3147860939
1742.6589067236
1305.6131979186
1147.8200200411
1004.8551833309
859.33980450563
712.47922510243
567.34166528666
446.45995459258
393.95793535657
381.7893349137
381.463165764
383.74618736328
386.04080013375
387.5071577442
388.76649918951
389.37484469652
389.4109856946
388.94018922534
387.9870972136
386.62007264335
384.9184044462
382.96207366061
380.82570694394
378.57103715081
376.26495489405
373.9455421342
371.64939521186
369.41285084959
367.24973517302
365.18698619751
363.23924115488
361.39881672583
359.68135342277
357.69050562915
356.28594833569
355.02683601002
353.9028775879
352.89767362659
351.99721978255
351.20704132696
350.53219411192
349.96967898737
349.53083718031
349.21120846595
349.00805798564
348.91574077479
348.91184399658
349.029689544
349.23440979313
349.51924145174
349.83203574123
350.15573453154
350.49497327121
350.81042767923
351.06328313786
351.3007982498
351.4717903402
351.62837873084
351.78033611097
351.69051741718
351.70264096514
350.89628858505
349.31870056612
346.51052092282
342.60832636571
339.37842310341
340.27070994116
407.4838777344
22907.256546808
343.97906918676
629.31640973431
936.03199894158
1302.5300600051
1661.7425257668
2045.1899853529
2463.0688007558
2897.9044257652
3340.9976078223
3804.9461202581
4206.7748890423
4592.5760664364
4927.4432926006
5199.0156840563
5403.6926649186
5538.7214608937
5608.0554557499
5618.1886735767
5580.7114486648
5508.119678948
5407.977185903
5287.9536186408
5156.2065677155
5017.5744978548
4875.4621472397
4733.1085631271
4592.7880446999
4455.3015678451
4321.6782157584
4192.8523771802
4068.7173904635
3949.7605243095
3835.6599252128
3726.6916173422
3622.483609398
3523.0769392382
3428.0845318557
3337.4623483594
3250.8688914365
3168.2260501436
3089.1861920851
3013.6970092142
2941.4346389783
2872.3449700927
2806.1440990034
2742.7677239944
2681.9893138152
2623.7138617461
2567.780213306
2514.0701140609
2462.4692298778
2412.8505464632
2365.1320923675
2319.1942748082
2274.9501270207
2232.3065210176
2191.1854140109
2151.5124716538
2113.2168704029
2076.2315936893
2040.4925079698
2005.9398076179
1972.5174821444
1940.172845878
1908.8556401777
1878.5181815562
1849.1157501519
1820.6065685521
1792.9496917922
1766.1060452621
1738.983164925
1740.6396228977
1305.2988429839
1147.9965848562
1005.4156034275
860.29003610408
713.78226020302
568.97743187433
448.22485066161
395.24741713712
382.71409548469
382.26791643283
384.59641729131
386.99811689447
388.43888192068
389.79164018981
390.50839349921
390.65128365443
390.25861944622
389.37571207678
388.07073063869
386.42502187429
384.51907705172
382.42712996577
380.21631665224
377.94417162081
375.65890935579
373.38859568251
371.16395360493
368.99940038561
366.91772025886
364.93394713955
363.0474752696
361.26331524453
359.17947198102
357.69106397085
356.35084629675
355.14807922801
354.06687695642
353.09678866322
352.24359994627
351.51141056806
350.9040302909
350.42066969158
350.06582184311
349.83276092095
349.71540635173
349.69590148591
349.80675461532
349.98631314366
350.230314907
350.50212760612
350.78789684815
351.07540822977
351.34561831603
351.56090079038
351.74997189214
351.87959327205
351.98586994857
352.08759220898
351.98863949788
352.00612428563
351.09198860745
349.46908432936
346.57345136598
342.83823990646
339.78337633305
340.59120396115
404.13891579374
21034.104812685
465.68888525348
923.11212000157
1350.420591668
1819.5108241008
2259.2477405118
2664.9251333454
3070.5117014367
3458.7179381451
3834.2343576096
4225.1443304558
4499.605844607
4796.1753824333
5066.0817048966
5287.1089746385
5457.6087285633
5565.5407347882
5615.3876340593
5615.3691425146
5572.3080174421
5494.5654214741
5392.2933402762
5273.6517123091
5142.2312984796
5003.9217042032
4863.0535631371
4721.867097598
4582.05012182
4445.5080043923
4312.8426781347
4184.6555198161
4061.2971126631
3942.9153116717
3829.4942588465
3720.9467178956
3617.2880547794
3518.2156371106
3423.6559476813
3333.3200919851
3247.0807816325
3164.661524948
3085.9261088865
3010.6318121119
2938.6130573286
2869.6953481342
2803.6964926533
2740.4779053494
2679.8517738513
2621.7214901587
2565.9113185187
2512.332188488
2460.835421322
2411.3261920792
2363.6937362066
2317.8444961878
2273.6837163231
2231.1171112954
2190.0679873017
2150.4606623704
2112.2260368153
2075.2969549219
2039.6103661583
2005.1068677735
1971.7304565751
1939.428189332
1908.1500797441
1877.8490765835
1848.48095972
1820.0036395534
1792.3753179433
1765.5623706872
1738.5459510803
1737.5976563944
1304.8948201375
1148.2495491633
1006.2366693851
861.68390074943
715.70246610548
571.38749700356
450.79301516303
397.09089406933
384.02063109661
383.39047858287
385.76909859336
388.31341215614
389.79568921066
391.28237701711
392.11934584225
392.37931061231
392.07663723654
391.27729286939
390.04715188475
388.46764562589
386.61951393569
384.57772834556
382.41033761093
380.17475310079
377.92348116104
375.68211441493
373.48176222388
371.334613625
369.2609982998
367.26472379195
365.34690572159
363.51355378365
361.35578828373
359.7931480381
358.36688001565
357.07959863829
355.91441595144
354.86574586457
353.94090261818
353.14530730275
352.48352750987
351.95218832807
351.55587956736
351.28754004642
351.14042061425
351.09479240725
351.18129831002
351.32810257564
351.52931407706
351.74768396431
351.97150235146
352.18671376254
352.38365719596
352.52642670931
352.63875141346
352.69294448278
352.72678812122
352.76504092794
352.61405974149
352.59722163446
351.55392479909
349.89991635898
346.97454115601
343.28537331281
340.12072520023
340.81058215437
402.79608503096
20961.670035985
886.11204925108
1720.6698884586
2411.1558669595
2934.984992599
3330.8490388987
3659.3111823135
3924.9689072569
4154.9028900169
4378.6875930689
4591.0907644422
4809.2823066368
5027.4258957124
5225.5839272593
5390.5994639556
5514.4364223007
5594.4876520798
5625.8041004737
5611.9358086202
5561.0298640257
5480.3017724128
5376.363508279
5255.5721417419
5125.5536941941
4988.6052016299
4848.5373906142
4708.222092169
4569.8574993219
4434.2594310799
4302.5590473445
4175.2308535271
4052.7163063315
3935.0056433182
3822.2685267887
3714.337889673
3611.1733534332
3512.5795640457
3418.4459097568
3328.4959773144
3242.5981965875
3160.5082449342
3082.0664699258
3007.0310962304
2935.2727018932
2866.5732338815
2800.797729194
2737.7565966715
2677.3234351233
2619.347596681
2563.6972693985
2510.2527876365
2458.8867383047
2409.5001936266
2361.9759359567
2316.2267610188
2272.1560887356
2229.6799053744
2188.7145923011
2149.1847724048
2111.0213225831
2074.1579562851
2038.5329565371
2004.0872451984
1970.7646135115
1938.5120003689
1907.2800186404
1877.0223227303
1847.6949016286
1819.2550598557
1791.6624456594
1764.8821706342
1738.0136036701
1733.8013051025
1304.3441789518
1148.583026431
1007.330591831
863.54355342925
718.27046931799
574.61553644094
454.1795721321
399.47531562863
385.68780281862
384.79720406176
387.21461205809
389.92043698551
391.48013369661
393.12649946798
394.10890706302
394.50390329743
394.3102795976
393.60486861964
392.45516657124
390.94309011487
389.1506406117
387.15440153407
385.02379888936
382.81735044033
380.58652776386
378.35930454132
376.16280918534
374.00996752042
371.92116606489
369.90213139244
367.95217644605
366.07246657543
363.85238192509
362.22588306385
360.72101520469
359.34866723445
358.09892083878
356.9685712904
355.96666342221
355.10075297526
354.37546607554
353.78660157366
353.33847628512
353.02430225645
352.83499516229
352.74830773337
352.79292430599
352.88686977676
353.02225410625
353.15987328489
353.2906552153
353.40465710853
353.50010010225
353.5425328961
353.55902771909
353.5242119248
353.47271293103
353.42576395315
353.20735091709
353.12987573578
352.0734544317
350.40871352627
347.40230030764
343.56699470079
340.33515813219
340.87063177713
401.56471717463
21148.911717142
4224.3258474639
5009.7984579796
5055.0260043726
4917.0883575578
4828.163224064
4792.6955507556
4805.7739946581
4828.0440058175
4901.2403880711
5006.1790489798
5131.4347460152
5259.844625561
5385.8576099561
5495.6135617141
5576.468984742
5623.0689582705
5632.8287208355
5606.4645887883
5547.6808010101
5462.3364245028
5356.7487260347
5236.4665630967
5105.610353818
4970.0223679412
4831.5805775203
4692.7853453085
4555.326475334
4421.1971978708
4290.7392232932
4164.4644486182
4042.7903447642
3926.0401848223
3814.0269050027
3706.77971208
3604.2187851789
3506.2014533297
3412.5104043286
3323.0219285801
3237.5194940018
3155.8012819089
3077.6689724403
3002.9529998252
2931.4678953724
2863.0289257915
2797.4827037056
2734.6620916406
2674.4337246505
2616.637140721
2561.1601635181
2507.8692154292
2456.6555758253
2407.4014081693
2360.0029729085
2314.3660507079
2270.3997060507
2228.0231671313
2187.1503808536
2147.7072479225
2109.6241754945
2072.8365361999
2037.2819093938
2002.9007259574
1969.6378617608
1937.4416505442
1906.2628576053
1876.0545304927
1846.7728668938
1818.3754856687
1790.8238043604
1764.0786017023
1737.4069716287
1729.2873212393
1303.6187223265
1148.9949297258
1008.7068166473
865.88938640734
721.52253257732
578.70829988535
458.40803527863
402.39463146678
387.6971273551
386.45723115655
388.88728082361
391.76061087792
393.4300132915
395.25039386333
396.38994216435
396.92372775808
396.84149685027
396.22740665205
395.15234665281
393.69886388106
391.95100828204
389.98704007045
387.87844673027
385.6858008092
383.46046167429
381.23535942242
379.03444873114
376.87144567617
374.7655950102
372.72030737115
370.73580005594
368.80750543885
366.53577186933
364.84983409282
363.27505649656
361.82240062206
360.49202203102
359.28303576323
358.20602884481
357.27011320126
356.47937603608
355.83023844773
355.32646649992
354.95925154444
354.71649515273
354.5750899882
354.55524442508
354.57011616679
354.60916135855
354.63434615519
354.63941777615
354.62232983583
354.59177850069
354.52137902865
354.42582802604
354.28040964584
354.12105629928
353.96375902519
353.6629954602
353.47095851497
352.3883512862
350.66902356377
347.56331780306
343.65131285418
340.29454472355
340.58458539915
399.6693121444
21345.352229791
17953.065114853
10802.68299079
8412.1866703782
7127.2775209811
6338.8101666669
5875.9712775042
5625.7146490019
5486.4858128787
5418.8366656618
5404.9632198239
5425.2023481579
5468.2527318844
5524.5783736188
5581.2227205326
5625.3958365925
5647.4610893807
5643.3506755365
5610.2128039877
5549.6123720725
5465.3237586563
5362.0175236914
5244.2855118387
5116.7528566661
4982.4224968087
4845.8077408882
4708.9279140786
4572.7435705865
4438.9568378505
4308.8454218421
4182.9757191659
4061.3086137269
3944.2145708967
3831.9507835364
3724.4158036104
3621.4044736949
3522.8778125247
3428.7398165931
3338.7513426692
3252.7208445955
3170.4970237016
3091.8841443514
3016.6828423601
2944.7165432394
2875.8274904158
2809.8482358456
2746.6095232927
2685.9691775611
2627.7852924471
2571.9383735706
2518.2902024412
2466.7314427457
2417.1457937932
2369.4357886803
2323.5005944212
2279.2445691561
2236.5861826013
2195.4457747844
2155.7508786116
2117.4264748906
2080.4056098101
2044.626012087
2010.0293514483
1976.5605874125
1944.165930335
1912.7953644915
1882.402122143
1852.9426061034
1824.378226061
1796.67290082
1769.7825348368
1742.8654560539
1840.0716671142
1359.9512731332
1184.3672640682
1045.3538174363
904.36923340755
761.35435637242
618.56135909627
488.7635246846
414.674476463
392.0216582618
388.1542116483
390.01438379578
393.04885504924
395.58147921512
397.59069008363
398.89719307127
399.57338833008
399.60456128974
399.07891071243
398.07162749936
396.66674061613
394.95091979309
393.00492499172
390.90281222453
388.70700852116
386.46933419217
384.22560131419
381.99881596109
379.80485517048
377.66378388917
375.58067852044
373.55667249638
371.58664656478
370.71744785559
368.94602693701
367.28097460937
365.72673414596
364.2878828333
362.97217625781
361.78929263253
360.7485197445
359.8519075023
359.09998525663
358.49337585448
358.02103947183
357.6629803221
357.39497969261
357.22216910629
357.06049852642
356.89786541354
356.71138100218
356.51834297763
356.31615355389
356.09985630622
355.83481653303
355.5377828352
355.18313553632
354.81095362743
354.41975135096
353.97969202588
353.53006815784
352.52776633336
350.54816581569
347.31336355418
343.20290731004
339.57844956811
339.37163482194
395.42446625056
21624.026708517
11153.262211399
12579.798002638
10540.383259395
9128.3600689952
8133.9382090116
7419.7548656732
6893.6476677155
6490.9962068833
6251.3651797251
6069.0370969882
5935.8655504984
5850.1085932601
5793.6079480843
5755.3571145859
5722.0371593527
5683.5490355173
5633.2950793767
5567.9419873967
5485.6065314514
5387.7101230099
5277.0450202103
5156.5175675331
5029.1288169552
4897.7473441396
4764.4073394449
4630.7485223229
4498.818446933
4369.9546156208
4244.1247698126
4122.1114351526
4004.2497084815
3890.9926075047
3782.0896516322
3677.6070556725
3577.4873525778
3481.7319579635
3390.0536183714
3302.3236104768
3218.3801560974
3138.1079747845
3061.287525555
2987.7398927105
2917.3092142154
2849.8520539123
2785.2028157694
2723.1988284293
2663.7071604532
2606.6013903531
2551.7588765333
2499.0518492936
2448.3686254654
2399.6060295669
2352.6667244741
2307.4549990607
2263.8800665246
2221.8596229464
2181.3193930883
2142.189853399
2104.401002912
2067.8869034529
2032.5862505438
1998.4417923357
1965.3999138387
1933.4092725636
1902.4219356999
1872.3929215233
1843.278071944
1815.0377856949
1787.6347231487
1761.0211497629
1735.3311176682
1710.0002475747
1300.3916580094
1150.6969858153
1014.6011627488
876.02203056773
735.69786915994
596.59939091287
476.51341100601
414.50767303852
395.73309623896
392.77445501285
394.94992437146
398.26346444482
400.33807529003
402.75314442578
404.40964987956
405.37525928888
405.63066483678
405.26608778246
404.36712549979
403.02364113154
401.32882818121
399.37051071083
397.22885841992
394.97209314633
392.6584563025
390.32557835775
387.9999817654
385.70242396584
383.45397474939
381.26290610182
379.13404190632
377.07211083647
375.96608767302
374.07798060853
372.30071659582
370.62478433517
369.0665449333
367.63003140439
366.32177460888
365.14795379948
364.11059469537
363.20988595574
362.43747186054
361.77900000513
361.20410851385
360.69900487508
360.22721801609
359.74831144795
359.27303161684
358.777071994
358.24021742884
357.66581918991
357.04107105628
356.34286006603
355.60712805812
354.80462679905
353.96719557617
353.07749760543
352.24044489937
351.24890832664
350.05838307994
347.73991262584
344.03882701426
339.53166801972
335.46756039212
334.33130271777
384.47230688559
21914.099523174
8609.9569676184
10993.080541417
10278.234646228
9353.1921302051
8580.6232411438
7967.9460108111
7468.1719070728
7062.9949515288
6718.631802378
6446.5995019748
6258.639391279
6089.7927636433
5954.4712576401
5850.1857926219
5764.1418809185
5685.1222442733
5604.9882317911
5519.2287593177
5424.8237164511
5320.836130587
5207.9895551618
5088.2203905468
4963.4518127747
4835.6587979572
4706.6647408994
4577.8361631921
4450.4824729451
4325.4574569236
4203.4540012239
4085.2285196322
3970.8315385498
3860.4399360878
3754.2270055905
3652.1389084937
3554.3247850623
3460.5204956966
3370.6228014428
3284.4772553444
3201.9997208402
3123.0228240378
3047.3493237093
2974.8427791457
2905.3635738691
2838.7769957185
2774.8963157941
2713.6028639168
2654.7546308754
2598.2447121485
2543.9430434017
2491.728029945
2441.4968472616
2393.1496240273
2346.5960580305
2301.7363453709
2258.4877177213
2216.7700542493
2176.51052109
2137.6405640581
2100.0900766877
2063.7979780828
2028.7047570608
1994.7544412629
1961.8942030837
1930.07214835
1899.2418452443
1869.3585347166
1840.3792631139
1812.2693813309
1784.9885219231
1758.5090217986
1733.9421598408
1692.1328667467
1297.1143997001
1152.1280956568
1019.9591837982
885.40192387081
748.99358920316
613.47101241071
493.63117146481
425.85864743255
402.95691274004
398.1136931129
399.73559588449
403.19357736475
405.54645992286
408.39895666652
410.43240525255
411.70147050338
412.18356283884
411.96454751877
411.14226787662
409.81582624102
408.08710504562
406.05344820598
403.80362421547
401.41464308987
398.95326426621
396.46033270112
393.96804411951
391.50426954564
389.09154852293
386.74164157031
384.46232670405
382.26071588124
380.86211146929
378.83768009568
376.93472091391
375.13714874328
373.46759441408
371.91496123203
370.47832521187
369.1669974182
367.97261978694
366.88600857677
365.88905536238
364.97060516127
364.10240086251
363.27920658692
362.46712067962
361.62221904519
360.70897765685
359.72244701124
358.62619921053
357.45102996705
356.2011209603
354.8328503546
353.38930806869
351.83052377264
350.22736212696
348.54842007653
346.93494094606
345.01436105509
343.16648510485
340.4048672722
335.6598527796
330.37230863152
325.17248691566
322.89518085116
365.25452677799
21717.561980737
7495.5809037845
9244.3204899407
9366.8418169861
8883.4215369286
8350.8860377734
7885.0478068581
7480.4077656664
7127.5775006801
6820.6461361852
6553.4646343716
6327.7141462462
6162.4584435791
6001.8149497081
5869.4692828748
5751.8166655411
5647.6571394426
5548.8206459654
5449.3795931968
5346.7136912587
5239.3067009106
5126.4678869827
5008.6695490873
4887.4282290605
4764.0923333254
4639.9792204889
4516.2836317553
4393.8792433151
4273.6338371616
4156.2008137091
4041.9934476083
3931.3029867406
3824.3825054867
3721.3858748932
3622.256089231
3526.9618783311
3435.4125917811
3347.5459210419
3263.3506584791
3182.5900829348
3105.1284499014
3030.8383648381
2959.5879950086
2891.274863924
2825.6973425263
2762.7544301527
2702.3016114517
2644.2403808496
2588.4436630736
2534.7820488048
2483.1591625139
2433.4651558222
2385.6191358327
2339.5190287717
2295.0772056196
2252.2139592361
2210.8525909045
2170.9260265401
2132.361972038
2095.0947025451
2059.0636398139
2024.2119034161
1990.4873715149
1957.8372843553
1926.211818058
1895.5641890584
1865.8511874682
1837.0344910427
1809.0812000106
1781.9564235508
1755.6099430507
1732.5768250444
1668.2512371955
1292.7164379879
1153.5626245874
1026.2422985216
896.7043796965
765.26033763337
634.29718769808
515.36084663415
440.6964542027
412.17352229365
404.613191623
405.21274291861
408.580676517
411.15382894577
414.46047795261
416.91054559568
418.51083623663
419.23598909899
419.15813914436
418.38882866271
417.03946457478
415.2237306666
413.05171103096
410.62577241928
408.03033454749
405.34130392231
402.61461124253
399.8854668216
397.18987372632
394.55300823309
391.98917858124
389.50852113006
387.11994149277
385.40152077191
383.21240095698
381.15128434732
379.2148946896
377.41257340527
375.72367197659
374.13235933079
372.6451301161
371.24540169018
369.91674091773
368.63558064287
367.42051515103
366.25533634609
365.05901259583
363.75895659522
362.33797807274
360.73618146615
359.00865391515
357.10244726302
355.04287439651
352.83275773981
350.46325989143
347.91480846032
345.11865271327
342.19022723452
339.06494492241
335.98686657991
332.42675382843
329.0905654785
324.8249692343
318.6793217513
312.09249294028
305.71478296573
300.69382901339
334.88766675094
20421.154925876
7032.2120880131
7915.9772077788
8363.6309514201
8236.1031070781
7905.85134431
7569.6085260499
7257.5296426434
6976.1493294184
6715.115188988
6486.1095866147
6267.7609446142
6088.4334623712
5946.2982256318
5804.5586274682
5684.3675713911
5568.6116377291
5461.1470404669
5356.8320211668
5251.4204382648
5143.6501679028
5032.8040311773
4918.8331712418
4802.3173299446
4684.223028178
4565.6332869699
4447.4674840257
4330.506598515
4215.4312140787
4102.8276560057
3993.1487619188
3886.6900110482
3783.6280912934
3684.0619812848
3588.0527665574
3495.635812841
3406.7369927466
3321.2501227142
3239.149956113
3160.2701894192
3084.5338775827
3011.8664838012
2942.0691211097
2875.0283977819
2810.6317087364
2748.7457959055
2689.2947091174
2632.1299356621
2577.1420628123
2524.231627371
2473.2858601896
2424.2309792026
2376.9586188739
2331.3867038157
2287.4307768563
2245.0146553767
2204.0734418553
2164.5295938634
2126.3185958473
2089.3793029418
2053.6511420366
2019.0825552348
1985.6197868517
1953.2113476183
1921.8124778199
1891.3776298544
1861.8661240983
1833.2406842164
1805.4667842148
1778.501860222
1752.3114005734
1732.2872470984
1636.8789049566
1287.0700207415
1154.7183789694
1033.0884474465
909.53140495163
784.10373778911
658.7714537796
541.9733938156
460.15751498343
424.19920704985
412.78896477004
411.68676661876
414.5909552712
417.23246870143
420.97365631028
423.87880435603
425.85093259288
426.84668030537
426.91759145639
426.18486868887
424.77545743801
422.82046640964
420.44456297038
417.76293540005
414.87871781669
411.88219062027
408.84052203431
405.7987899005
402.80131273979
399.8761426022
397.03997557357
394.30436776018
391.67895109928
389.60192166474
387.19563302933
384.94895059822
382.83727833679
380.86311175797
378.98681282285
377.18473663758
375.46416692701
373.8061436581
372.21908751216
370.6799929776
369.13794317493
367.48091741076
365.66263717587
363.60644210899
361.35656276106
358.80389235336
355.99420812861
352.91541244033
349.5875530003
345.89114006958
341.86026643471
337.43091101313
332.64876333199
327.53134043773
322.1222480632
316.69005613028
310.80955822322
304.92035756083
298.19802655813
290.0818506983
281.37989465367
273.02778982708
265.08818258367
290.8805928277
16569.902803442
6953.608121763
6949.5662086021
7450.8482892341
7562.5758336111
7403.9517797622
7173.0601298464
6939.9109267461
6719.8748939637
6511.6654854934
6313.3894398556
6134.4701911938
5972.9760098016
5825.6511441581
5682.7442960655
5572.5350476494
5460.5490432653
5351.0601533507
5245.7435255809
5141.5739901357
5036.3411738526
4929.2137520594
4820.1951926283
4709.44408871
4597.4768798213
4484.9745115106
4372.7580019141
4261.5989954315
4152.0545303524
4044.6034297302
3939.6936236606
3837.6389793437
3738.6411228345
3642.8113165674
3550.1972293822
3460.8330313481
3374.7147796302
3291.7948198708
3212.0228499828
3135.3019961997
3061.5354346453
2990.5931307546
2922.3533873513
2856.743958914
2793.6802920719
2733.0056306065
2674.6320880706
2618.4552311484
2564.3714353517
2512.2983372949
2462.1378378328
2413.7827788699
2367.1615634878
2322.1818011636
2278.77904725
2236.8805772303
2196.4064890364
2157.297999176
2119.4881775638
2082.9202480715
2047.5414285032
2013.2941737408
1980.128869931
1947.9987647382
1916.8571056215
1886.6656117385
1857.3831919889
1828.9744764671
1801.3988277652
1774.6243571875
1748.6058355364
1734.2997280192
1597.8490515666
1280.2678696301
1155.3203047829
1040.0391885609
923.28541265902
804.84515995278
686.23354985933
573.25592432136
485.53156682392
440.28512144885
423.48064032547
419.72241701402
421.59336855428
423.99513649176
428.06746574567
431.42940073147
433.8075407586
435.09934064407
435.33207812699
434.62142390098
433.12042550668
430.96594413256
428.30836996874
425.28838546441
422.02882008037
418.63599754293
415.19370133533
411.75834683217