/*--------------------------------*- C++ -*----------------------------------*\
| =========                 |                                                 |
| \\      /  F ield         | OpenFOAM: The Open Source CFD Toolbox           |
|  \\    /   O peration     | Version:  2312                                  |
|   \\  /    A nd           | Website:  www.openfoam.com                      |
|    \\/     M anipulation  |                                                 |
\*---------------------------------------------------------------------------*/
FoamFile
{
    version     2.0;
    format      ascii;
    arch        "LSB;label=32;scalar=64";
    class       volScalarField;
    location    "8e-05";
    object      k;
}
// * * * * * * * * * * * * * * * * * * * * * * * * * * * * * * * * * * * * * //

dimensions      [0 2 -2 0 0 0 0];

internalField   nonuniform List<scalar> 
109340
(
6.9189286028373
6.9155766994236
6.9175331177286
6.9207318265191
6.9214418682934
6.9181539799092
6.9103309787101
6.8985087802652
6.8835221995992
6.8650861526359
6.8433315882538
6.8184667132078
6.7907003302833
6.760231297466
6.7272474722256
6.6919302982041
6.6544564878114
6.614998340624
6.5737250669863
6.5308012865945
6.4863849809445
6.4406249702373
6.3936592460521
6.3456130918484
6.2965968096621
6.2467022335856
6.1959973298509
6.1445190482331
6.0922631944396
6.0391677620803
5.98508427214
5.9297232925363
5.8725347511303
5.8123983453343
5.7467157155607
5.6689188408958
6.9144385429292
6.9135957351906
6.9152804864264
6.9157822380341
6.9129605744559
6.9061692816063
6.8952788018148
6.8799666277243
6.8604912569367
6.8372632778261
6.8105426795204
6.7805621745926
6.7475565182296
6.7117595126898
6.6734024500994
6.6327122606905
6.5899126264491
6.5452244422126
6.4988660276021
6.4510508470002
6.4019838041855
6.351855619639
6.3008393800177
6.2490880153644
6.1967312027385
6.1438704503016
6.0905743549366
6.0368720931059
5.9827415384819
5.9280912072455
5.8727258817292
5.8162795182128
5.758062066869
5.6966516606112
5.6287553774693
5.5460325967503
6.9090466700419
6.9095708258146
6.910032629679
6.90751061447
6.900547608432
6.888596156706
6.8714472097442
6.8492183434046
6.8221674397721
6.7906776220473
6.7551353509451
6.7159077413842
6.6733597861086
6.6278566984574
6.5797619967082
6.5294358574647
6.4772329216424
6.4235082653776
6.3686183794776
6.3129033069188
6.2566783287785
6.2002140630273
6.1437422994548
6.0874587603512
6.0315043784056
5.9759746057183
5.9209293269817
5.8663636861878
5.8122244944846
5.758382172629
5.7045909887076
5.6504341708352
5.5951308759628
5.5370733096803
5.4725244634225
5.391480411441
6.8979508663909
6.9037927692853
6.9025548443451
6.8935373286768
6.8765562168032
6.8516571039689
6.8191442232245
6.7794796095061
6.7332881421785
6.6813334937336
6.6244594525792
6.5635379458416
6.4994424289116
6.4330265510017
6.3651314317329
6.2965727373199
6.2281459709355
6.1607981944297
6.0952440362894
6.0320996603112
5.9718400139439
5.9147406122945
5.8609023578376
5.810333602922
5.762982830396
5.7187498625559
5.6773705695883
5.6387462454915
5.6027242264263
5.5691079007764
5.5375805001398
5.5076064977561
5.4781169108666
5.4467051722247
5.4071086511457
5.3400507514658
6.8855662819616
6.9129652971963
6.9203065330541
6.9073084696318
6.8733912672384
6.8200285573487
6.7504324699751
6.6686916141035
6.5792426342533
6.4864957798385
6.3945172356501
6.3071815652455
6.227839383938
6.1594955795098
6.104906027368
6.0666730273766
6.0473565453392
6.0503123480464
6.0757318644386
6.1210665712327
6.1826613148891
6.2574425431174
6.3430053704874
6.4375143234017
6.5395443567305
6.647954783849
6.7617835860277
6.8801848272714
7.0032098327902
7.1300569125497
7.2589206496605
7.3874427655433
7.5122895204685
7.6263669150039
7.709765766296
7.6891195310197
8.3472202770066
12.384254547848
15.826613011748
18.447207420183
20.255357795509
21.38208302762
21.990823521128
22.230821218501
22.21890397893
22.050173563129
21.77965860482
21.450040584946
21.0903412243
20.719916413657
20.351589508002
19.994346790742
19.653932102258
19.334103406098
19.038484172798
18.770658920179
18.526110402461
18.301945738872
18.096692046129
17.909540259796
17.739928864532
17.587433743606
17.451771171123
17.332838104847
17.230776260862
17.146077517654
17.079826149915
17.034227287163
17.012627949364
17.022915024937
17.073254262398
17.154807199547
5.5654387205977
5.4260652184181
5.2493569579773
5.0357155427201
4.7852356949195
4.4985370113923
4.1796861123523
3.8347928629108
3.474022567172
3.114417243413
2.7701898899937
2.4840360321599
2.2363210156884
2.0076494779994
1.79951592809
1.6104156695129
1.442575261377
1.2952969430955
1.1670184639224
1.0560587603461
0.96011973988096
0.87651398461316
0.80373663044333
0.74047864253672
0.68479453017696
0.63579495330783
0.59363921138711
0.55411941076824
0.52014967687828
0.48937289311921
0.46085852102171
0.43682897867464
0.41312836125118
0.39354733366685
0.37376647967749
0.35742950083319
0.34072452775278
0.32686826548824
0.3126623015883
0.30079842484801
0.28870955271093
0.27838075523587
0.26813946558365
0.25888295433633
0.25018760657504
0.24173170180796
0.23418265302507
0.22661286942096
0.21995004740339
0.21337296413737
0.2072834048869
0.2014998935982
0.19604389329625
0.19087409661251
0.18596460093017
0.18128948551019
0.17683489757594
0.17258977580472
0.16854588934561
0.16469114701661
0.16101033372359
0.15748736884301
0.15410814955478
0.15086082485401
0.14773604880152
0.14472728497994
0.14183150836986
0.13904823822335
0.13637656373327
0.13381281250841
0.34455566821005
2830.2966961533
3679.7174287046
2279.9610821362
1449.8585788512
929.50330715521
577.84586840985
321.08386666901
147.04966982889
83.359340262775
66.389564334681
58.63224768822
54.807059699215
53.150909098757
52.779825597829
52.883235969602
53.215254752397
53.556240465923
53.723721595578
53.608005264407
53.045652025665
51.994942389078
50.444320584942
48.413764580911
45.952782705131
43.140406424127
40.071097165645
36.852001514011
33.600230113219
30.432637640839
27.45438787532
24.728657217594
22.308423801325
20.234011882845
18.0918349319
16.810946713545
15.837490445045
15.120434148911
14.6123111492
14.280054402368
14.099892613584
14.049816236839
14.067731503254
14.129079584719
14.230422875264
14.362527410791
14.515670273018
14.679704410795
14.814946503758
14.918124168094
14.961592785082
14.959492128165
14.932090192814
14.870606979924
14.776935327249
14.646206560978
14.480736117646
14.278872538224
14.036726993214
13.767990093022
13.472556574513
13.153052845548
12.827015610115
12.493431217349
12.205969753441
11.971487581298
11.663690901041
11.144577407634
11.233270314972
11.752281730333
5.4312641059392
5.2711389642308
5.0605675683568
4.8044435619398
4.5079108346751
4.1766617602293
3.8197048232606
3.4478419353582
3.0736360719721
2.7082367786243
2.362704216593
2.0461268721737
1.7740835958982
1.5410312845148
1.345991267582
1.1873989222818
1.0602273928171
0.95874512243799
0.87442323490055
0.80363035626512
0.7434832903047
0.69155467020061
0.64613379369376
0.60602137535981
0.57015849760335
0.53770929535355
0.50813563620647
0.4810152520259
0.45590819688876
0.43297046312696
0.41181310174191
0.39247367256123
0.3746419682543
0.35819378512421
0.34298469001618
0.3288415601407
0.31570229725525
0.30345618048513
0.29206110144844
0.28144183136088
0.27151496152459
0.26224593095848
0.25350647567325
0.24531896603502
0.23754919980483
0.23025517357838
0.22331978916373
0.21680751959175
0.21063086192458
0.2048162738185
0.19929973397237
0.19407296806185
0.18910865829446
0.18438370116429
0.17988184900267
0.17558172853197
0.17147548819003
0.16755370754381
0.16380885003554
0.16022922105943
0.15680207014319
0.15351354181429
0.15035112784492
0.14730415539199
0.14436525571756
0.14153033401648
0.13879808737315
0.1361684450698
0.13364095127038
0.13121420192452
6.6569423646122
4512.0423587272
3259.8334303246
2030.6743538472
1297.4594444564
829.88990428639
507.3461324233
269.61428675922
123.2589027152
78.673758492563
65.349657841963
58.917217345161
55.876859107984
54.686930363267
53.970445297712
54.177093721779
54.621046597632
55.071312071374
55.342536907756
55.327171216198
54.870805122305
53.913963476597
52.444516148559
50.480184504923
48.066897636369
45.278820205415
42.207297519657
38.956774494305
35.639293488239
32.368966283033
29.244921617374
26.347117985107
23.742203572227
21.472951189663
19.08930390547
17.636434305861
16.512380970225
15.668465355809
15.055341938407
14.634815091663
14.377998465621
14.25772567281
14.234331794808
14.258452208805
14.321998669974
14.418298957368
14.537549584077
14.67049143113
14.788919190156
14.875616382838
14.904840348923
14.897799447011
14.864544927215
14.797894293826
14.698414884747
14.563443131606
14.394265707814
14.189964622009
13.94821720998
13.680990887123
13.387622211005
13.070864614118
12.754974246094
12.43792208945
12.171507490555
11.941536486799
11.643930743666
11.139167935189
11.318163425809
11.732031036623
5.2716453432534
5.0933239176957
4.857651279356
4.575721990318
4.2601252323146
3.9213129315051
3.5695543141849
3.215714469435
2.8681139623215
2.5308984521547
2.2232015362276
1.9399697882094
1.689307875538
1.4718586836115
1.2866865205468
1.1319560904451
1.0046119842412
0.90021610683246
0.81188778613718
0.73680848231798
0.67337494318708
0.61976332770875
0.57401244548384
0.53484375964116
0.50118493326753
0.47187682697656
0.44598327366085
0.42298991499116
0.40238921906519
0.38371432938297
0.36682102078998
0.35141686886733
0.33739607176515
0.32441392368775
0.31238075454849
0.30106214666047
0.29042615585219
0.28037453387909
0.27096113441615
0.26208079922189
0.25376210742125
0.24587633926534
0.23845143619545
0.23137898300246
0.22468263256148
0.21829538720767
0.21223262505721
0.20647667895242
0.20101206711061
0.19583792483131
0.19091490444783
0.18623912753075
0.18177045186084
0.17750190477812
0.17341454546869
0.1694992364849
0.16574874332657
0.1621570277073
0.15871799426576
0.15542232235671
0.15225932725039
0.14921699708095
0.14628410990071
0.14345126443791
0.14071238444363
0.13806460711847
0.1355076057763
0.13304201240103
0.1306681863924
0.12838638595477
7.0388389735712
4530.4403995397
3258.3210784298
2029.0380954297
1297.0648173403
830.61543052071
508.89151310124
271.82340913946
125.68817875811
80.856671384968
67.578293053254
61.241054342941
58.302101184279
57.246291953815
56.424621094766
56.81820727947
57.468959159728
58.133228146083
58.618081427399
58.796688497345
58.559694081289
57.794277837794
56.487979899007
54.65525727836
52.335905315606
49.595535250454
46.520306579986
43.209310361827
39.770571654607
36.31495955169
32.942407779002
29.744874285252
26.804360255604
24.171039421223
21.327536694329
19.537197926615
18.108965171134
17.003107215305
16.170612273335
15.565888219844
15.15455534128
14.903135845672
14.773492528518
14.729575489576
14.732508848734
14.765541651824
14.825830156168
14.903620267698
14.986312803198
15.039294683681
15.042157352271
15.021253202336
14.968339244086
14.879805834115
14.757270042891
14.601160669875
14.412955952158
14.19314995943
13.939389535267
13.662242875922
13.361562214138
13.038260511837
12.729756841804
12.414435501779
12.147304018831
11.910196336451
11.608671129464
11.100451528016
11.293522023144
11.21716250334
5.1896834280095
4.9281739670388
4.5861976255821
4.2191080006136
3.8669212377333
3.5295355521932
3.2061457289609
2.8981221692287
2.6040585370594
2.3196456151249
2.0679048727138
1.8270319177261
1.6069697383247
1.4122378551729
1.2417832596619
1.0963391717713
0.97467684441894
0.87291953707525
0.78567208806366
0.71103058878631
0.64697835189215
0.59178782724953
0.5445319219163
0.50388608895364
0.46875060691805
0.43831370162413
0.41184674561314
0.38860059956221
0.36808534698467
0.34986789485965
0.33361681051451
0.31905154802001
0.30593925660708
0.29408112743623
0.28324671596528
0.2733072547232
0.26409971652905
0.25557159375304
0.24763601116065
0.24025359952585
0.23335041897301
0.22686466351424
0.22072843499482
0.21488163362015
0.20929376751618
0.2039216925109
0.19879331482892
0.19388157537505
0.18921084132569
0.18475149867122
0.18050349173863
0.17644344919139
0.17255313205062
0.16881620293219
0.16521835905193
0.16175759561206
0.15842884669127
0.15523087733036
0.15215920504001
0.14920685999966
0.14636447429576
0.14362187783832
0.14096973925799
0.13840034566942
0.13590858836469
0.13349246121338
0.13115283371065
0.12889175677491
0.12671063209654
0.12459439410336
7.5777263549107
4546.0132452373
3254.1584664914
2026.4999887648
1296.5423452142
831.72953838287
511.19796759389
275.08033474622
129.15928731208
83.87371916651
70.587876911092
64.323227704827
61.471675034015
60.556529020371
59.739849690054
60.356185482894
61.258377489634
62.18411458222
62.933946680316
63.357541531197
63.370481823082
62.836359597034
61.719959262591
60.035379224234
57.816407653101
55.122295874095
52.034849819701
48.648947246404
45.069522470656
41.403577842184
37.75649539024
34.228060954085
30.906509980267
27.84868663429
24.462963643122
22.255793924141
20.431988504458
18.970630293862
17.829960756256
16.960153891932
16.323319555175
15.882614524261
15.59608174113
15.42091513078
15.318338597729
15.268596061213
15.251865853993
15.255097289931
15.269520796568
15.265800626562
15.240235264975
15.184818386673
15.095744445194
14.972626174368
14.818246209437
14.635064003287
14.424540965108
14.185684293449
13.915560637951
13.62449621557
13.3116857754
12.97557797523
12.663335657946
12.345030730152
12.070241317977
11.833393250541
11.533774567734
11.019083982305
11.160088770667
10.968819129126
7.123957751448
5.9143666461183
4.8144095366224
4.0667938378512
3.5126137499066
3.074824811552
2.7609544841974
2.5347668359644
2.3281682240082
2.1169684103414
1.9092973442591
1.7089747743568
1.5233231587129
1.3539413957541
1.2018846766873
1.0682912538797
0.95355952913832
0.85451490192601
0.76891683606985
0.69516055403478
0.63175216518903
0.57722092826296
0.52983152519405
0.48880017093186
0.45313978736587
0.42201609310401
0.3946915596996
0.37069562852694
0.34952169698285
0.33078218222698
0.31412185821715
0.29929046036246
0.28600193887498
0.27407779482365
0.26330899796761
0.25353583348675
0.24459168922821
0.23640358567917
0.22887189589259
0.22194397523219
0.21552842585579
0.20957846119284
0.20400953740113
0.19878511101541
0.19384344883741
0.18916312164029
0.1847177125275
0.18049600105792
0.17649402567636
0.17269220247008
0.16907812307848
0.16561898077751
0.16230326339416
0.15910247420124
0.15600559667992
0.15300936135327
0.15011575387733
0.1473272187329
0.14464104695803
0.14205157521658
0.13955041999763
0.13712930130575
0.13478051959325
0.13249743787637
0.13027549370201
0.12811354362948
0.12601368462471
0.12397909049278
0.12201162681283
0.12005330535903
8.3096552874699
4562.1118542323
3247.7985196514
2023.141927022
1295.9514222701
833.26970787481
514.28703856805
279.37888440705
133.58305056814
87.573001955191
74.184565522129
67.936294242071
65.125221749018
64.320248461259
63.567057558584
64.405172832972
65.562937800665
66.757352219881
67.779217077591
68.465018261149
68.706718984253
68.411956481485
67.481365239282
65.93574731586
63.804923831232
61.145395055385
58.036163500402
54.570477033985
50.852487062855
46.988427076546
43.085427417452
39.24744470204
35.565326151432
32.095878370104
28.192580909081
25.561656637273
23.310695892719
21.447395652449
19.943706616358
18.750837927391
17.831157991646
17.147815451837
16.656450525058
16.308904883966
16.058890920025
15.880582414873
15.75160892873
15.665424886005
15.597113214593
15.525008543522
15.43865287207
15.329218264961
15.191764888378
15.027158921161
14.838932996787
14.626851374483
14.390170895403
14.127388448548
13.836604141117
13.527859714319
13.199856373809
12.851176682094
12.529801189357
12.208511519996
11.928228223125
11.690585358791
11.395143876402
10.882928517011
10.97165112757
10.739808904153
11.425675223224
7.5984428263141
5.8137484066689
4.5916627446159
3.7398255295792
3.1384202833496
2.685784990626
2.3579238045587
2.0974585903915
1.9105234455787
1.7633320188649
1.6091765220305
1.4508312953905
1.2997864003559
1.1635169710887
1.0427428966196
0.93548412753366
0.84019654164975
0.75674076975901
0.68423754265489
0.62147173124015
0.56721775711694
0.52039099719618
0.47952467392393
0.44385929324185
0.4126091653684
0.38513167818284
0.36075612886323
0.33917337559422
0.3200237926336
0.30297320155082
0.28771024144465
0.27405178143768
0.2617818730499
0.25072176047785
0.24070972350643
0.23161922335179
0.22332417351439
0.21574849156154
0.20881703003904
0.20245407801672
0.196584664278
0.1911463650073
0.18608921885846
0.18135470678742
0.17691147605745
0.17272550053563
0.16879147506427
0.16508521904396
0.16159394011437
0.15829648687144
0.15517300417495
0.15220359060061
0.14936199543758
0.14663295798275
0.14400335377214
0.14147260383603
0.13903884091876
0.13669954728251
0.13444606639868
0.13226885746349
0.13015885917072
0.1281062799155
0.12610376327476
0.12414845537644
0.12224030880325
0.12038172972475
0.11857617258578
0.11682673837164
0.1150194673108
9.2712213269457
4578.3024038441
3239.3826305651
2019.0834012803
1295.3793395558
835.29167171339
518.19357738067
284.72423353857
138.88730127186
91.818026834824
78.196064919776
71.884373975739
69.044011064141
68.293200283112
67.626645438159
68.658996321897
70.051756579509
71.498325862807
72.775608033908
73.708094501514
74.162071495347
74.078724250642
73.315402074584
71.889334052811
69.8297941952
67.191791082967
64.053246036424
60.507141366951
56.658064857843
52.613560111686
48.48365592729
44.375849305107
40.381979747815
36.550446736191
32.215953592927
29.196280189219
26.534276275967
24.266869977591
22.382735976261
20.838021822606
19.598934743081
18.632768576869
17.897410770921
17.341253658749
16.909278423679
16.568575029847
16.294518001301
16.086017671622
15.917116112981
15.75937731243
15.59786256639
15.422230783698
15.231145840864
15.022841026914
14.795093308166
14.546787188817
14.277706382806
13.985920375436
13.670843397538
13.340769296327
12.994995213838
12.63334539798
12.295247704663
11.977983864398
11.68970705714
11.454499157904
11.168065229351
10.668364678756
10.706584712663
10.438190594055
6.3700721931047
6.8323678643337
5.1473334285241
4.4147644683439
3.7791028766691
3.2511394221861
2.8396482899396
2.5099030802992
2.1868122942898
1.9222054551657
1.7135467634472
1.5468281387902
1.4188078062862
1.2936376864573
1.1665190031079
1.0482883978888
0.94215651418459
0.84829137544857
0.76552219644027
0.69256202261641
0.62865331489394
0.57299384956999
0.52462201491163
0.48268304621119
0.44596842884077
0.41370155474236
0.38534292261209
0.36025532805318
0.33793549043642
0.3180169163906
0.30027102081018
0.28438339271763
0.27008064879247
0.25718609633472
0.24556749765778
0.23504963183603
0.22548419974908
0.21677650762027
0.20884128202604
0.20158652129576
0.19494030503242
0.188836830498
0.18321339263571
0.1780088367101
0.1731728441507
0.16866887450812
0.16446036264614
0.16052728486617
0.1568437571026
0.15339801343575
0.15016570058741
0.14712841936201
0.14426230179559
0.14154508384102
0.13895926071225
0.13648711624493
0.13412194686712
0.1318590373278
0.1296964821162
0.12762722619728
0.12564158160098
0.12372905129655
0.12187950485807
0.12008467260493
0.11833768189824
0.1166348558664
0.11497608024361
0.11336461256869
0.11180282996095
0.11028828728821
0.49313827739499
3245.0557005138
3648.8273557306
2258.9168165205
1443.604554855
935.35202188478
592.45739059025
342.45327618112
171.07352294514
103.11447700811
84.935440697818
77.237688973711
73.554126127338
72.345935163537
71.71535339267
72.902039788962
74.497420166966
76.168733617091
77.675068084124
78.82885536664
79.481991468413
79.56991353304
78.953317188611
77.626272384423
75.620901367336
72.992019499596
69.817755071936
66.192011118599
62.220921886714
58.014146788036
53.684353221814
49.341571080243
45.080252616436
40.94202362858
38.29922164561
34.740874460177
31.529838265475
28.711245239271
26.285679857315
24.218796072473
22.484251749516
21.059408548286
19.912572798645
18.995761052389
18.247202933666
17.623529870217
17.095888850207
16.668235796336
16.315835890554
16.010680937326
15.733809384826
15.465150273639
15.189859486614
14.901286717497
14.598444813234
14.281832801053
13.95217247321
13.607651616485
13.248727118492
12.879666923788
12.502349970369
12.11731932079
11.741947593284
11.429039190366
11.13267937887
10.904322914819
10.636762359233
10.177613711492
10.142870220235
9.8290917877739
4.1684889046123
3.4255165791792
3.1707728273097
2.9398844560998
2.8022097896662
2.6464109317636
2.4693918618477
2.2958170967775
2.1243159498845
1.9500556135719
1.7500346685662
1.5157069271461
1.3390318535794
1.1952738347822
1.0814128141406
0.98495497642144
0.89111416659293
0.8051433785676
0.72826183635838
0.66081261446649
0.60189882940623
0.55023231789184
0.50476295668208
0.46469755751388
0.42943740356029
0.39840637890509
0.37093723902884
0.34648549486056
0.32481275749112
0.30550378712928
0.28821980104743
0.27261270861108
0.25852618302719
0.24576937460066
0.23418431055223
0.22361209227364
0.21397541563206
0.20516961040618
0.19710555447951
0.18969373478182
0.18288004377299
0.17660618455825
0.17081195282671
0.16544408582152
0.16046545518044
0.15584521169435
0.15155077523681
0.14755212236068
0.14382514106211
0.14034971777089
0.13710560168275
0.13407205625501
0.131228571134
0.12855613692075
0.12603566610543
0.12365325479464
0.12139755882647
0.11926130042882
0.11723817328124
0.11531993237028
0.11349729584265
0.1117602257141
0.11009894288546
0.10850417576603
0.10696821954756
0.10548629177838
0.10405671829599
0.10267964253413
0.10135573053763
0.099948173031655
14.309988522261
4615.1576556523
3199.2079296155
2002.7552701984
1294.4168925916
844.77906420454
535.16931006527
307.13598664745
159.72352093979
106.89693642538
91.524797309916
84.451480156824
81.017377298374
80.006263224331
79.485347228625
80.846092149029
82.742902217144
84.77539352349
86.656926779208
88.173235050936
89.150089355372
89.489560878435
89.103130502395
87.910930336401
85.960879212702
83.310882328792
80.042178090202
76.252731281548
72.053693773065
67.559997077912
62.890014769486
58.158882492542
53.467409507534
48.864827502921
45.187057511509
41.092811218548
37.339570041263
33.957485100904
30.952470358329
28.303595326593
25.993551809762
24.01022351989
22.341358546332
20.959750426141
19.805902052081
18.817289127347
17.962497289646
17.244494994128
16.646403539857
16.160100877285
15.722070358963
15.295132133546
14.866902119907
14.433977381977
13.996707783032
13.557687563934
13.119608230154
12.680350379723
12.23940324035
11.793973015772
11.355564945277
10.908306568184
10.493880731307
10.141185948207
9.834996341115
9.6012447812386
9.3534730686948
8.9875909202693
8.876479951196
8.5209793937165
3.667823631543
2.0388702724383
2.0960144750577
2.0277557673336
2.0033166155358
1.9875560111759
1.9729827343117
1.9300861211605
1.8784946724808
1.7994547745794
1.7051553670176
1.5833347147496
1.403116108981
1.2122979860996
1.0703246706039
0.95586461027416
0.8626984709666
0.78709849356701
0.7157750684338
0.65102118502003
0.59333476683398
0.54245674391466
0.49785965086948
0.4588039218649
0.42437249372493
0.39380955259478
0.36655888730554
0.34223194183755
0.32053668224778
0.30111932333997
0.28373091417143
0.26811269212074
0.25400587769534
0.24122921170581
0.22957135963955
0.2189429163805
0.20922972238987
0.20032886746798
0.19213771763065
0.1845845100567
0.17762078436266
0.17117891493131
0.16520344837102
0.15964526236259
0.15448437368738
0.14968296996096
0.14521439890709
0.14104521135612
0.13715368181528
0.13351954203134
0.13012047372861
0.12693832862577
0.12395510611032
0.12115671117469
0.11852505871201
0.11604538153205
0.11370631599739
0.11149903290603
0.10941626014122
0.10744810835811
0.10558522976703
0.10381897776706
0.10214085672656
0.10054300984384
0.099017450095867
0.097558416651594
0.096162661319844
0.094828695253874
0.093555329076369
0.092218074807384
20.663566674008
4614.0552681218
3156.2538853495
1987.3199322188
1294.3132050696
854.1046807727
550.99123704042
327.41407829053
177.8453238705
118.56077910743
100.88151380934
92.813384758493
88.574040207838
87.008350681398
86.363366944428
87.710138004706
89.770279107695
92.054697681128
94.21233564063
95.994400933483
97.199106195182
97.695607263388
97.432444666441
96.282408804386
94.30479523947
91.565185810809
88.151376474563
84.168216762636
79.733935668281
74.969724944351
70.000713600505
64.946545928795
59.914738460886
54.97135255258
50.232836880014
45.742581076884
41.601267121041
37.816133323169
34.39151056418
31.314724255702
28.574086817143
26.153765149968
24.063015663636
22.301075503821
20.825932589846
19.551080095604
18.442233007584
17.519644660824
16.7328026912
16.045187571542
15.412752965773
14.806860953683
14.207457127641
13.605145970488
12.995549544705
12.385022063134
11.804787626043
11.234721837322
10.680706068533
10.118853673932
9.6056433807291
9.0840010992535
8.6399207403319
8.2249177265874
7.9316438757948
7.6952459323569
7.499072586679
7.2444191680294
7.1297959039373
6.8175877455987
3.410460571675
1.5556534213295
1.4779450051452
1.4849312951638
1.4925498804376
1.5141526177531
1.5357843091555
1.5548041083277
1.5576531039462
1.5571689640318
1.5309323448588
1.4735000840707
1.4026339164214
1.2800593448042
1.1101694580672
0.96876655149779
0.86086186443773
0.77361688226584
0.70138869957273
0.64211466554399
0.58739815385602
0.53804360162407
0.49402619723859
0.4550768333839
0.42073299973973
0.39040528150811
0.3635198317736
0.33954267771963
0.31806023256604
0.29875289217512
0.28136330873083
0.26566082427743
0.2514328939712
0.23852546557074
0.22680410688141
0.21613012320678
0.20638347332602
0.19742525990079
0.18918970091436
0.18160520841495
0.17459250678807
0.16808766905079
0.16202496297136
0.15638629713721
0.15113071448479
0.14623303382129
0.14165782316915
0.13738052954105
0.13338239677986
0.12963492053144
0.1261205488422
0.12281784000112
0.11971678917347
0.11680212451606
0.11405735604671
0.11146895851608
0.10902468624628
0.10671781073515
0.10453965547754
0.1024806353913
0.10053153387446
0.098683511683811
0.096929773310192
0.095263167174122
0.093676992336562
0.092165947795786
0.090726298698946
0.089355276674346
0.088050486562212
0.086705014540631
31.640903264982
4598.3440793771
3099.3054215387
1966.7525827722
1293.7297457472
865.32671462539
570.09198408476
351.74900689632
199.89233379133
131.82735959842
110.53459284412
101.06882450548
95.759204562488
93.35521975886
92.337618224008
93.476359691681
95.566933274066
98.007595538544
100.36321401399
102.33296604937
103.68056642038
104.25217825707
103.99982059713
102.78603161748
100.67780514578
97.753049748338
94.110865587534
89.866485470279
85.147620475894
80.083486263752
74.807406887277
69.444059785189
64.110434007928
58.890357146222
53.111384457307
48.326898831879
43.923604210551
39.880095571469
36.190640803325
32.844824006221
29.833162487576
27.147257776526
24.808566404131
22.819024921228
21.152794332822
19.727087442015
18.46749098218
17.318798481109
16.29630779594
15.394203671082
14.572646845435
13.770846191485
12.969746527558
12.167042519345
11.353466829205
10.544724638267
9.7948427672902
9.1135408494239
8.5114911946732
7.9588570924545
7.4819408708113
7.0364380211643
6.6732027189597
6.3179081350975
6.0889389722349
5.9054813877402
5.7672336335436
5.6019252225405
5.5554322570893
5.3622644165256
3.5145734246288
1.3630394736415
1.1455045915046
1.1409277213473
1.1607846005446
1.1898174574757
1.2226546256674
1.2569775782854
1.2869342105101
1.3039457380475
1.3270045953943
1.3210592538043
1.2817726444479
1.2388497030077
1.1501185812624
1.0244243041119
0.88547795451049
0.7827335217488
0.70199388628624
0.63599256182654
0.580513153424
0.53401449856058
0.49164244967317
0.45346313794045
0.41927662816706
0.38883733774879
0.36182501615143
0.33782572981844
0.31641497409414
0.29721837425302
0.27992566450944
0.26427922270879
0.25006415584921
0.23712043399847
0.22531189259282
0.21452730629811
0.20467649802621
0.19564698414545
0.18735267356157
0.17971701493236
0.17264441372425
0.16608976698596
0.16000092681368
0.15432740677678
0.14903874439888
0.14409139961138
0.13946943636034
0.13514569719696
0.13108943339466
0.1272807221681
0.12369322137687
0.12031916670926
0.1171438671601
0.11415183108753
0.11132831118283
0.10865845602816
0.10613604244453
0.10375135785185
0.10149470333962
0.09935750941624
0.097330012175489
0.095405401999166
0.09357699925838
0.091837248770647
0.090181120011706
0.088603951240739
0.087102027319485
0.085672641616024
0.084312479155516
0.082951739590375
52.24443113454
4567.3424243643
3028.4076313129
1939.4620438272
1291.1987410687
877.350960298
591.65724473609
379.65221595654
226.4109424346
147.59207614496
120.7906125285
109.40741723682
102.83392822863
99.362620105776
97.706810024885
98.42935872314
100.40694495299
102.91331267088
105.40314941794
107.49994601429
108.92063192621
109.49277329263
109.14346319047
107.75293845934
105.39558075046
102.16647572796
98.181756491105
93.571833805528
88.476624234324
83.037136727125
77.394754753102
71.685846780692
66.040690336899
60.561717238004
53.962497070418
49.017543262488
44.477324776256
40.307298810095
36.492097174926
33.021969710526
29.889534399473
27.087762701767
24.597927319503
22.415606644992
20.541132122953
18.927715683576
17.497765637411
16.166375655241
14.948823225706
13.826044587992
12.765389033424
11.743440241754
10.724157188968
9.7333885783672
8.8494610279645
8.0930531035695
7.4535821282126
6.910099138108
6.4428899676089
6.0365889305692
5.6855226625174
5.3868390361339
5.1407826987366
4.9183542889735
4.7914208628834
4.6961012307644
4.6285719667452
4.6046625898805
4.6494110995313
4.5859986396924
4.2289647860522
1.2307937419257
0.98237726150133
0.91913997434172
0.93485755408038
0.96369844551161
0.9984972113677
1.0339913466854
1.0697812801455
1.1002827752844
1.1274035905517
1.1495322676556
1.1530642364018
1.1261629048277
1.0986316239935
1.0340377834829
0.93668689933019
0.81444497688514
0.71720551390553
0.64218019452879
0.58161927389214
0.53145786212621
0.48880209713965
0.45205524999031
0.41871075207306
0.38862034555421
0.36161797926282
0.33748175998775
0.31590035845188
0.29653526874359
0.27912315952287
0.26345415554604
0.24926741707335