/*--------------------------------*- C++ -*----------------------------------*\
| =========                 |                                                 |
| \\      /  F ield         | OpenFOAM: The Open Source CFD Toolbox           |
|  \\    /   O peration     | Version:  2312                                  |
|   \\  /    A nd           | Website:  www.openfoam.com                      |
|    \\/     M anipulation  |                                                 |
\*---------------------------------------------------------------------------*/
FoamFile
{
    version     2.0;
    format      ascii;
    arch        "LSB;label=32;scalar=64";
    class       volScalarField;
    location    "8e-05";
    object      nut;
}
// * * * * * * * * * * * * * * * * * * * * * * * * * * * * * * * * * * * * * //

dimensions      [0 2 -1 0 0 0 0];

internalField   nonuniform List<scalar> 
109340
(
0.00071932924989334
0.00049340796192381
0.00026629175752129
0.0002225499851195
0.00021559479020851
0.00022001614843422
0.00022823710795915
0.00024245644601594
0.00021132903669864
0.0001879770504824
0.00016949459804254
0.00015441811220961
0.00014185698627514
0.00013121915788851
0.000122089721851
0.00011416714611126
0.00010722616825901
0.00010109475469247
9.5639090629583e-05
9.0753440752959e-05
8.6353097177962e-05
8.2369349672753e-05
7.8745832189553e-05
7.5435829835019e-05
7.2400269645817e-05
6.9606197451757e-05
6.7025602718421e-05
6.4634498590672e-05
6.2412184821132e-05
6.0340635062009e-05
5.840395683979e-05
5.6587855805241e-05
5.4878946051326e-05
5.3263462294494e-05
5.1723732714883e-05
5.0229554191694e-05
0.00071097035479161
0.00034484057880972
0.00025264498185105
0.000231125990422
0.00022958704750137
0.00023417791790168
0.00020959376618028
0.00018232822424305
0.00016114388843768
0.00014437266015765
0.00013079461195568
0.00011958417430191
0.00011017467709744
0.00010216626765053
9.5269090328718e-05
8.9267954537418e-05
8.3999769354089e-05
7.9338678764902e-05
7.5186004758798e-05
7.1463236788536e-05
6.8107027860471e-05
6.5065629169642e-05
6.2296333337279e-05
5.9763614123165e-05
5.7437715005273e-05
5.5293549894825e-05
5.3309842978402e-05
5.1468432548734e-05
4.9753691406192e-05
4.8152049709235e-05
4.6651572998374e-05
4.5241553001081e-05
4.3912072580377e-05
4.2653467117354e-05
4.1455425595681e-05
4.030150139798e-05
0.0004175884617674
0.00029431668238595
0.0002537013730591
0.0002380815594935
0.00019046958391135
0.00015879585124808
0.00013582899413034
0.00011852076891163
0.00010506921351591
9.4359427499439e-05
8.5656502077046e-05
7.8458270014298e-05
7.2413094080241e-05
6.7268985111797e-05
6.284135719993e-05
5.8992252594387e-05
5.5616658147271e-05
5.263328559882e-05
4.9978050066952e-05
4.7599298659799e-05
4.5454762060553e-05
4.3509732578944e-05
4.1735787635611e-05
4.0109682732276e-05
3.8612242627206e-05
3.722759595024e-05
3.5942565916296e-05
3.4745978753207e-05
3.3628386337986e-05
3.2581646406048e-05
3.1598623841929e-05
3.0673023021932e-05
2.9799063889644e-05
2.897194515514e-05
2.8189928039513e-05
2.7454691309255e-05
0.00023999000434943
0.00024241007098955
0.00015214070514276
0.00011076019862706
8.7131993811572e-05
7.187461037909e-05
6.1240992945777e-05
5.3423440335295e-05
4.7446154332939e-05
4.2736467154542e-05
3.8936341833908e-05
3.5810215588846e-05
3.3196785101796e-05
3.098203757868e-05
2.9083327027277e-05
2.7439392787806e-05
2.6003779783486e-05
2.4740109709461e-05
2.3615876183612e-05
2.2603200018562e-05
2.1681321739406e-05
2.0835536423351e-05
2.0055227895986e-05
1.9332554306884e-05
1.8661488838961e-05
1.803718176669e-05
1.7455205723173e-05
1.6912331125238e-05
1.6405702670795e-05
1.5932787642496e-05
1.549103199757e-05
1.5076746594665e-05
1.4684117367994e-05
1.4308268992882e-05
1.3950744608972e-05
1.3624833226856e-05
0.00014453709536975
4.724854973122e-05
2.8731531811071e-05
2.0836812125931e-05
1.6486517867569e-05
1.3755678119542e-05
1.1898111628176e-05
1.0563386088074e-05
9.5651707295974e-06
8.7961626183432e-06
8.1906482405056e-06
7.7069546529326e-06
7.3174860274435e-06
7.0036577024728e-06
6.7528321945842e-06
6.5561657811355e-06
6.4058788633364e-06
6.2891124183623e-06
6.184257700096e-06
6.079675079422e-06
5.9742051976754e-06
5.8712776658011e-06
5.7745999921422e-06
5.6867335859093e-06
5.6091102851568e-06
5.5424543202663e-06
5.4869617732579e-06
5.4425119363729e-06
5.409497554779e-06
5.3876560767725e-06
5.37601929057e-06
5.3738030357642e-06
5.3801616225648e-06
5.3936095822274e-06
5.4097488802518e-06
5.4204579203906e-06
3.6391598680182e-07
5.431642638175e-07
6.9885943714876e-07
8.2034515263332e-07
9.0718650073259e-07
9.6445835848485e-07
9.9889223021113e-07
1.0167922287251e-06
1.0231770421066e-06
1.0222080641058e-06
1.016295801965e-06
1.0073394912878e-06
9.9664562095396e-07
9.8509645728618e-07
9.7328450673541e-07
9.6163200896682e-07
9.5041408939702e-07
9.3981538601861e-07
9.3002550023626e-07
9.2127683975618e-07
9.133680246753e-07
9.0616981766834e-07
8.9961686635848e-07
8.9367185332104e-07
8.8830397913286e-07
8.8348183595463e-07
8.7917122756515e-07
8.7533405632142e-07
8.7192479769177e-07
8.6888501091465e-07
8.6613599322242e-07
8.6354363042128e-07
8.6089166175782e-07
8.5767897298964e-07
8.5195019996045e-07
8.3412641190441e-07
4.5224783862742e-05
2.5051287241722e-05
1.4121388635275e-05
9.2903398322517e-06
6.7565839065592e-06
5.0703399976833e-06
3.9009301163028e-06
3.0331807259661e-06
2.4450810041308e-06
2.1798134915176e-06
2.2343892851174e-06
2.798745475075e-06
3.3093231041336e-06
3.8119677467452e-06
4.2501810381986e-06
4.5788254832303e-06
4.8756484807612e-06
5.1188277432451e-06
5.3324410733821e-06
5.5579617599599e-06
5.7566396004408e-06
5.9226430079269e-06
5.944780249486e-06
5.693727623877e-06
5.4631643107406e-06
5.2520474104771e-06
5.064207241715e-06
4.8818560510927e-06
4.7201514908229e-06
4.5696792634771e-06
4.4258562041602e-06
4.3016864462789e-06
4.175523657324e-06
4.0689610397043e-06
3.9583733998546e-06
3.8652859771672e-06
3.7677389386298e-06
3.6854717512087e-06
3.5991628515645e-06
3.5259588337518e-06
3.4496786177455e-06
3.3835033237506e-06
3.316589413927e-06
3.2552508143798e-06
3.1967429667236e-06
3.1389567490832e-06
3.0867516671578e-06
3.0335008869997e-06
2.9861473012775e-06
2.9385848248769e-06
2.8939361240176e-06
2.8509582607882e-06
2.8098668000523e-06
2.7704459545299e-06
2.7325749077997e-06
2.6961106919421e-06
2.6609945669187e-06
2.6271782514337e-06
2.5946205315812e-06
2.563242854709e-06
2.5329489781408e-06
2.5036465627446e-06
2.4752642930668e-06
2.4477438241862e-06
2.421036954045e-06
2.3951100880404e-06
2.3699533230108e-06
2.3455730369692e-06
2.3219671078225e-06
2.2991002891669e-06
4.7749664429165e-06
0.00033879462781258
0.0004861440315994
0.00041892701533214
0.00036089141133919
0.00030711517731986
0.00024999624570365
0.00018380268942506
0.00013033278783104
0.00014103587956246
0.00015480968238449
0.00015044953091815
0.0001452807614294
0.00014249760369015
0.00014154099703183
0.00014100132110866
0.00014064211280722
0.00014011181540428
0.0001391698403921
0.00013767649362687
0.00013532874886458
0.00013210038523346
0.00012797978072157
0.00012303333611048
0.0001173760951709
0.00011111930562289
0.00010442249385192
9.7469846603979e-05
9.0471890673543e-05
8.3637700224909e-05
7.7162793024458e-05
7.1186370053336e-05
6.5829421547319e-05
6.1175245467875e-05
5.6281683342539e-05
5.3294647530536e-05
5.0972692904451e-05
4.921404914065e-05
4.7916801534104e-05
4.7003676350704e-05
4.6428864340132e-05
4.6207947018092e-05
4.6134495954658e-05
4.6136694698254e-05
4.6221118609277e-05
4.6372667377235e-05
4.6570447939148e-05
4.6787827621653e-05
4.694880427827e-05
4.7032263777778e-05
4.697239695097e-05
4.685814217356e-05
4.6767711323061e-05
4.6605008682786e-05
4.6375833781615e-05
4.6071578271822e-05
4.5695205954466e-05
4.5243355279579e-05
4.4709032630145e-05
4.4116259152337e-05
4.3465038440774e-05
4.2759885392807e-05
4.203281989216e-05
4.1274624444466e-05
4.0591433057263e-05
4.0006443240923e-05
3.9274292789596e-05
3.8045560081233e-05
3.809754583308e-05
3.887753424734e-05
3.4960628077775e-05
1.9669433572201e-05
1.2254253764748e-05
8.6317422926422e-06
6.3689717223468e-06
4.8647095958143e-06
3.7660977714302e-06
2.955370394632e-06
2.3676168713492e-06
1.9744336502904e-06
1.7406337590718e-06
1.6911057741864e-06
1.7627896764466e-06
1.8990206024334e-06
2.1086651791755e-06
2.3745873122454e-06
2.6926512029957e-06
3.0611166597848e-06
3.4444002857845e-06
3.8364622111482e-06
4.2367845053123e-06
4.6425220109884e-06
5.0434781352243e-06
5.4414993043278e-06
5.319577133034e-06
5.1136988646186e-06
4.9265021103648e-06
4.755826585887e-06
4.5980890469408e-06
4.4536387777735e-06
4.3198108638609e-06
4.1964220643212e-06
4.0815424398515e-06
3.9745697714556e-06
3.8746909847263e-06
3.7809443977879e-06
3.6930021884918e-06
3.6102641216263e-06
3.5324423493198e-06
3.459068735338e-06
3.3896279133109e-06
3.324038512774e-06
3.261526616673e-06
3.2023764076649e-06
3.1456958576707e-06
3.0919860392857e-06
3.0404224063028e-06
2.9915140186361e-06
2.9446101686597e-06
2.899941194924e-06
2.8570620736722e-06
2.8159787100405e-06
2.7765506213569e-06
2.7386553578229e-06
2.7022177579551e-06
2.6671092126309e-06
2.6332992213974e-06
2.6007260638772e-06
2.569334086942e-06
2.5390367065871e-06
2.5097533852831e-06
2.481404429616e-06
2.4539213515343e-06
2.4272432478569e-06
2.4013291399079e-06
2.376159457814e-06
2.3517320666538e-06
2.3280488916137e-06
2.305105610599e-06
2.2829192835075e-06
2.166275447353e-05
0.00048312509917055
0.00046868473260905
0.00040353974811351
0.00034732745723448
0.00029363768925474
0.00023467709956856
0.00016768077859408
0.00012837652352655
0.00014882927079579
0.00015730621813956
0.00015234677546856
0.00014812828682463
0.00014608256862427
0.0001442567712739
0.00014393569424429
0.00014379693712838
0.00014348213812309
0.00014274040475231
0.00014144054021487
0.00013930625818214
0.00013626894502492
0.00013232649670394
0.00012751845865706
0.00012197366473472
0.00011578743661187
0.00010910954135622
0.00010211572824421
9.5002146160691e-05
8.7974310697176e-05
8.1217243467893e-05
7.4892849446519e-05
6.9148227265176e-05
6.4077747910622e-05
5.8658549359891e-05
5.5291918005736e-05
5.2631448604271e-05
5.058195431353e-05
4.9041415763042e-05
4.792716622494e-05
4.7169729373905e-05
4.6753218674319e-05
4.6585338154099e-05
4.6505428764513e-05
4.650291763669e-05
4.6571369296404e-05
4.6690904869009e-05
4.6838884394867e-05
4.6958514806594e-05
4.6999961303107e-05
4.6904868913152e-05
4.6788545248696e-05
4.6681433504667e-05
4.6500808091606e-05
4.625194449041e-05
4.5930844493992e-05
4.5539392115172e-05
4.507574158316e-05
4.453579464945e-05
4.3940514477825e-05
4.328857065034e-05
4.2583919508037e-05
4.1876010730381e-05
4.1139070171344e-05
4.0495159915523e-05
3.9914946749952e-05
3.9197296553861e-05
3.7990481970024e-05
3.8204220055415e-05
3.8769074087996e-05
2.5604976167937e-05
1.3357503325262e-05
8.6292428944507e-06
6.3675499159373e-06
4.7859737843279e-06
3.7399307290185e-06
2.9752503075487e-06
2.4433091541114e-06
2.0786216013208e-06
1.8395586545969e-06
1.7520484223514e-06
1.7312657598241e-06
1.7900351293705e-06
1.9085355485534e-06
2.0687316295533e-06
2.2620608654644e-06
2.4894268242497e-06
2.7360337894691e-06
2.9754070995102e-06
3.2205285914799e-06
3.4845553533007e-06
3.7575222544047e-06
4.0369151740584e-06
4.3378373957036e-06
4.6555042515087e-06
4.9776034499864e-06
4.8528328992837e-06
4.6813134509456e-06
4.5243716635225e-06
4.380006532337e-06
4.247568673104e-06
4.1250168142741e-06
4.012259767534e-06
3.9074271654502e-06
3.8101808974338e-06
3.7193263080936e-06
3.6341835182788e-06
3.5539949962752e-06
3.4788342623472e-06
3.40771864193e-06
3.3407900759064e-06
3.2771311097189e-06
3.2169880953245e-06
3.159559522307e-06
3.105009264364e-06
3.0528357894442e-06
3.0031293498089e-06
2.9557084712122e-06
2.91038319767e-06
2.8671313851021e-06
2.8256473537597e-06
2.7859476592063e-06
2.7477452899686e-06
2.7110204669664e-06
2.675648489223e-06
2.6415807696371e-06
2.6087691380238e-06
2.5771541277753e-06
2.5466693712164e-06
2.517232874733e-06
2.4887710364484e-06
2.4612096258338e-06
2.4344794143713e-06
2.4085193325032e-06
2.3832915027877e-06
2.3587808250998e-06
2.3349867858477e-06
2.311909296961e-06
2.2895429513301e-06
2.2679153878976e-06
2.2223111382864e-05
0.00048457839781629
0.00046856603677116
0.00040339734781539
0.00034736728088372
0.00029393469459929
0.00023533180321538
0.00016891271774255
0.0001302493865638
0.00015162964193813
0.00016158053604182
0.00015741844791583
0.00015360480699319
0.00015190833979361
0.00014983051560818
0.00014990171298462
0.00015016912161794
0.00015026385930205
0.000149922717923
0.00014897266575045
0.00014726214546324
0.00014459646213243
0.00014098645592
0.00013644855664146
0.00013111477216295
0.00012506188476558
0.0001184227063203
0.0001113568791741
0.0001040443111486
9.6680472843386e-05
8.9448475934282e-05
8.252603832124e-05
7.6087086315048e-05
7.0247526531461e-05
6.3836089460106e-05
5.9729434603297e-05
5.6389870944016e-05
5.3742100679944e-05
5.1692102174651e-05
5.0147126777639e-05
4.9029659594846e-05
4.826345806215e-05
4.7806726664534e-05
4.7563372954719e-05
4.7417067761178e-05
4.7329595757059e-05
4.7306001469896e-05
4.7322652621926e-05
4.7349154825637e-05
4.7297875075566e-05
4.7139453789011e-05
4.7009329881402e-05
4.6849048335081e-05
4.6609382125054e-05
4.6300132765178e-05
4.5924052209476e-05
4.5484396696893e-05
4.498245294168e-05
4.4413678625848e-05
4.3795434740254e-05
4.3126596675257e-05
4.2407368138265e-05
4.1706162874152e-05
4.0976135822731e-05
4.0332616200236e-05
3.9735866821363e-05
3.9007622075972e-05
3.7792855599749e-05
3.7990328983362e-05
3.768920389125e-05
1.3435241984193e-05
7.7055157186781e-06
5.2127351508131e-06
3.8672126212094e-06
3.0723915911897e-06
2.5762713656978e-06
2.2655101330038e-06
2.0717609350509e-06
1.9543814750292e-06
1.9303292981519e-06
1.9097157286665e-06
1.9210168897124e-06
1.9665509191452e-06
2.0469497661418e-06
2.1671966115455e-06
2.3296557523076e-06
2.5159814359736e-06
2.7221996374472e-06
2.9319127633236e-06
3.1292123018616e-06
3.3125982232606e-06
3.5106382580213e-06
3.722855359986e-06
3.9345115016331e-06
4.1575990346489e-06
4.4052969346398e-06
4.6596945597404e-06
4.6184173060821e-06
4.4625066602652e-06
4.3189362035731e-06
4.1866462707917e-06
4.0644634884191e-06
3.9514227832465e-06
3.8467511078865e-06
3.7493064956095e-06
3.6584733176924e-06
3.5734058824996e-06
3.4939935010909e-06
3.4196438496578e-06
3.349734960519e-06
3.2839806525855e-06
3.2220935461137e-06
3.1636576534736e-06
3.1083660202906e-06
3.055802366862e-06
3.0055258996491e-06
2.9576701797229e-06
2.9119023195757e-06
2.8682978879697e-06
2.8265392840661e-06
2.7866064963049e-06
2.7483199821601e-06
2.7115382239165e-06
2.6761341048714e-06
2.6419945305615e-06
2.6091152703391e-06
2.5774426878284e-06
2.5469312844489e-06
2.5175030409764e-06
2.4890786559417e-06
2.4615832311998e-06
2.4349468127602e-06
2.4091044978986e-06
2.3839984954139e-06
2.3595906858811e-06
2.3358668323981e-06
2.3128295429507e-06
2.2904824615691e-06
2.2688189212891e-06
2.2475765822809e-06
2.2990375787665e-05
0.00048601129674857
0.00046835470951226
0.0004032215747406
0.00034744773360762
0.00029438200918799
0.00023629601625698
0.00017069078042347
0.00013281348852232
0.00015531634733277
0.00016721911417718
0.00016407433123976
0.00016071486806305
0.00015940023436756
0.00015733369932989
0.00015785446474546
0.00015860106945137
0.00015917932302084
0.00015931985508666
0.00015880395713088
0.00015755522374872
0.00015533116865225
0.00015209765229081
0.00014787332460571
0.00014277343318482
0.00013687016456981
0.0001302782766508
0.0001231418931257
0.00011562629096718
0.0001079096448252
0.00010017832641954
9.2616204819778e-05
8.5404439465046e-05
7.8672195772926e-05
7.1085527878733e-05
6.6052930495822e-05
6.1820291448495e-05
5.8354675456321e-05
5.5581833522293e-05
5.3407213440585e-05
5.175030336744e-05
5.052670517069e-05
4.9645225459232e-05
4.9051004327462e-05
4.8636631535838e-05
4.8349525616172e-05
4.8140586765189e-05
4.7975412330764e-05
4.7831976150285e-05
4.763267002366e-05
4.7422465825445e-05
4.7216994667897e-05
4.6954843981836e-05
4.6621264231245e-05
4.6228480829542e-05
4.5784258722359e-05
4.5291407794092e-05
4.4746177221715e-05
4.4141386997944e-05
4.349289165537e-05
4.2798066041227e-05
4.2052614838913e-05
4.134138968545e-05
4.0605720032507e-05
3.9948193580933e-05
3.9350768981595e-05
3.8626367331915e-05
3.7403645031509e-05
3.7490987254615e-05
3.6987173735239e-05
5.3907458473599e-06
4.3670749274192e-06
3.6452905195539e-06
3.2802220756191e-06
2.9718857481475e-06
2.7053846155678e-06
2.5125677431344e-06
2.4097091073558e-06
2.3504859009416e-06
2.2568073548078e-06
2.2430908486202e-06
2.2466786005147e-06
2.2742965988393e-06
2.3314246629779e-06
2.4060725162204e-06
2.5077977399025e-06
2.6514672830534e-06
2.8093833063097e-06
2.9685119515516e-06
3.1356500734696e-06
3.3118593756629e-06
3.4770642834828e-06
3.6425242180652e-06
3.8224612130291e-06
4.0063511283693e-06
4.1912780444717e-06
4.3924305432619e-06
4.5585876831489e-06
4.4059666767296e-06
4.2648369338097e-06
4.1340583554749e-06
4.0130036621592e-06
3.9005434506369e-06
3.7961878465671e-06
3.699016097435e-06
3.608344086447e-06
3.5233943322831e-06
3.4440473940829e-06
3.3697265584479e-06
3.3000838908732e-06
3.2344878390153e-06
3.1727735518941e-06
3.1144462401477e-06
3.0593178270939e-06
3.0069367203268e-06
2.9572145998034e-06
2.9099937013945e-06
2.865061113986e-06
2.8223172380437e-06
2.7816348565519e-06
2.742908248935e-06
2.7058882221674e-06
2.6705236031019e-06
2.6364770018066e-06
2.6036127929217e-06
2.5719186193738e-06
2.5413948448496e-06
2.5120087844367e-06
2.4836743391207e-06
2.4563059458908e-06
2.4298249286291e-06
2.4041679478955e-06
2.3792746996e-06
2.3550860541589e-06
2.3315603402442e-06
2.3086869137021e-06
2.2864735374803e-06
2.264923292996e-06
2.2440225196396e-06
2.2226872071402e-06
2.3979252093114e-05
0.00048760390517111
0.00046805546377717
0.00040302444863954
0.00034758143374792
0.00029498787011092
0.0002375708936761
0.00017298416686426
0.00013590967755386
0.00015954986662857
0.00017374930083291
0.00017176638800615
0.00016883539460154
0.00016784827832442
0.00016593662808158
0.00016688092268863
0.00016809176342968
0.00016914408766806
0.00016975833296132
0.00016969828575072
0.00016884268626441
0.00016706991706534
0.00016419896646549
0.00016027423713386
0.0001553856948812
0.00014962042009775
0.00014307464815725
0.00013588139951793
0.00012819531668796
0.00012018276412542
0.0001120220964879
0.00010389693409779
9.5985703424487e-05
8.841138932462e-05
7.9726781163029e-05
7.3758723217107e-05
6.8557584674978e-05
6.4154999507164e-05
6.0514804312753e-05
5.7556366592993e-05
5.5206965706218e-05
5.3386605798e-05
5.1997454250986e-05
5.0937438786881e-05
5.013309701271e-05
4.951689123543e-05
4.9027587432157e-05
4.8648294006615e-05
4.8305186769678e-05
4.7941389634858e-05
4.7594839528385e-05
4.7252171452243e-05
4.6854708423477e-05
4.6412414337011e-05
4.5936115879337e-05
4.5423278391634e-05
4.4869364728504e-05
4.4269270258185e-05
4.3617756941811e-05
4.2929381185361e-05
4.2200557756948e-05
4.1426814541856e-05
4.0694035178313e-05
3.995172616495e-05
3.9284544658976e-05
3.8687388538918e-05
3.7975150803931e-05
3.6768656923386e-05
3.6761154844277e-05
3.618499835978e-05
2.4492095455414e-06
2.9533180186531e-06
3.6362950823089e-06
4.3063147991112e-06
5.0381284588565e-06
4.8902568609214e-06
4.1931942292537e-06
3.6051765061358e-06
3.1917737835226e-06
2.958463276589e-06
2.8106185991239e-06
2.727772741205e-06
2.6982272517736e-06
2.7039786930884e-06
2.739871244404e-06
2.801544531808e-06
2.8823153430606e-06
2.9782935272294e-06
3.0905874382416e-06
3.2153375220567e-06
3.3508283424797e-06
3.5014613469603e-06
3.6535881551212e-06
3.8080225613801e-06
3.9732565517283e-06
4.13916043464e-06
4.3049981014435e-06
4.4783038346657e-06
4.3506359996555e-06
4.2133328371849e-06
4.0856592524937e-06
3.9665799115552e-06
3.8558071677117e-06
3.7525842545752e-06
3.6562221379404e-06
3.5660315287062e-06
3.4815792433317e-06
3.4023681151346e-06
3.3281241672586e-06
3.2584322643928e-06
3.1928593637348e-06
3.1310360078728e-06
3.0726798119364e-06
3.0175430894977e-06
2.9652442227216e-06
2.9156354146884e-06
2.8685020406246e-06
2.8238138702213e-06
2.7813190240279e-06
2.7408847907287e-06
2.7023530732822e-06
2.6655988416193e-06
2.6304816368721e-06
2.5967960294688e-06
2.5644500229606e-06
2.5333524634662e-06
2.5034808759353e-06
2.4748071763526e-06
2.4472776982165e-06
2.4207708862996e-06
2.395216943825e-06
2.3705198574198e-06
2.3465660970977e-06
2.3232654921512e-06
2.3005942091849e-06
2.2785584534049e-06
2.25716800335e-06
2.2364184780668e-06
2.2163020351283e-06
2.1946149250069e-06
2.5197975399238e-05
0.00048930057157341
0.00046766488794443
0.00040281552701635
0.00034778047018382
0.00029576150709053
0.00023915865786989
0.0001757622089516
0.00013938627330308
0.0001640019339603
0.00018072896714872
0.00018000862381207
0.00017743494572786
0.00017666335730908
0.00017496389295777
0.00017625012471774
0.00017785696111455
0.00017932405747659
0.00018035452706112
0.00018069920596684
0.00018018841613307
0.00017879401304259
0.00017623980832325
0.00017257395510002
0.00016786502743502
0.00016221851537555
0.00015571596771788
0.0001484820399312
0.00014066323375947
0.00013241812018103
0.00012391962557915
0.000115348393485
0.00010687538246572
9.8597124223638e-05
8.9052562555984e-05
8.2248700345491e-05
7.6127601280655e-05
7.0787054702247e-05
6.6236020055486e-05
6.2417165642118e-05
5.9274816432875e-05
5.6742929747144e-05
5.4732942790158e-05
5.3142057749846e-05
5.1857582287606e-05
5.0813724467055e-05
4.9956336665812e-05
4.9271128714593e-05
4.8682391389298e-05
4.8117245037637e-05
4.7593116075335e-05
4.7068767455956e-05
4.6530958010577e-05
4.5980810796447e-05
4.5408737069077e-05
4.4808140374977e-05
4.4175726634989e-05
4.3505825379303e-05
4.2795287987699e-05
4.2054791120282e-05
4.1282074432564e-05
4.0474211990619e-05
3.9699851368159e-05
3.89647218253e-05
3.8282162908725e-05
3.7692133459147e-05
3.7002999280823e-05
3.5836826260324e-05
3.5744760333932e-05
3.5110179042045e-05
9.8390551011399e-07
1.9108458233953e-06
2.2187120184282e-06
2.7840233422066e-06
3.3789216726227e-06
4.0462325625995e-06
4.8601504833916e-06
5.6870554711651e-06
4.8053336782426e-06
4.1561766591944e-06
3.7302289892537e-06
3.4684324808752e-06
3.3005107085438e-06
3.203908369805e-06
3.1583908367068e-06
3.1483185265424e-06
3.1637550811221e-06
3.2023259576895e-06
3.2611321279425e-06
3.3370847713702e-06
3.4313107900565e-06
3.5413116175321e-06
3.6678801274688e-06
3.8081841730676e-06
3.9394651206146e-06
4.0977560924266e-06
4.2564391311176e-06
4.4178872634346e-06
4.3309126084622e-06
4.1949816628037e-06
4.0686057670394e-06
3.9507379819228e-06
3.8404423512986e-06
3.737273698516e-06
3.6409241043197e-06
3.5505896028301e-06
3.465619002071e-06
3.3857862973721e-06
3.3108358214552e-06
3.2402993082221e-06
3.1738158788016e-06
3.1111000852594e-06
3.0518926120456e-06
2.9958853302407e-06
2.9427998172632e-06
2.8924610544893e-06
2.8446658875728e-06
2.7993134613164e-06
2.7561916773749e-06
2.7152165947964e-06
2.6762068172531e-06
2.6390562976802e-06
2.603599553075e-06
2.5696734254942e-06
2.5371663687681e-06
2.5059663235228e-06
2.4760455051798e-06
2.4473445774187e-06
2.4198054078834e-06
2.3933349832266e-06
2.3678460076654e-06
2.3432576083662e-06
2.3194965517236e-06
2.2964982010528e-06
2.2741916723924e-06
2.2525419513568e-06
2.2315701795097e-06
2.21128223587e-06
2.1916556095239e-06
2.1726145983996e-06
6.3917348775246e-06
0.00037046536508332
0.00048480615092273
0.0004175906453063
0.00036110440967866
0.00030966077682813
0.00025573499667722
0.00019439048066256
0.00014576114538699
0.00015989824190679
0.00018543351296605
0.00018894225343179
0.00018657151752469
0.00018543829819545
0.00018392425364081
0.00018544555956328
0.00018735524238944
0.00018915609361996
0.00019052684646896
0.00019120596137986
0.00019100380664549
0.00018988924910162
0.00018760405240992
0.00018415176555537
0.00017959101571227
0.00017404342959419
0.0001675806729939
0.00016032142665315
0.00015240627990123
0.00014398774612911
0.00013523296352489
0.00012631674868221
0.00011740491414589
0.00010857081763885
0.00010304027694292
9.5119519153794e-05
8.7806907242197e-05
8.1216569948836e-05
7.5390320242147e-05
7.0306228221404e-05
6.5939405383229e-05
6.2255798173434e-05
5.9196289394659e-05
5.6672394209436e-05
5.4570412478258e-05
5.2807316409923e-05
5.1309192465109e-05
5.006366892724e-05
4.9016092121206e-05
4.8109305119917e-05
4.7300573588913e-05
4.6542054253016e-05
4.5798766094809e-05
4.5052742983465e-05
4.4295908032759e-05
4.3525502594082e-05
4.2741708096823e-05
4.1938620194744e-05
4.1114176681109e-05
4.0271673624002e-05
3.9414103314129e-05
3.8537051816996e-05
3.7671101683473e-05
3.6936181189284e-05
3.6227354346956e-05
3.5644844712271e-05
3.4991667632886e-05
3.3920527697601e-05
3.3704563106106e-05
3.2997686195773e-05
4.9060315166805e-07
1.2613178326785e-06
1.5039066717623e-06
1.7775828715996e-06
2.1427692865594e-06
2.6271728129961e-06
3.1743027185464e-06
3.8245668197094e-06
4.5908070692685e-06
5.28741967172e-06
5.79569251067e-06
5.2781654045143e-06
4.7399204273801e-06
4.368616848998e-06
4.1268665431985e-06
3.9716762369463e-06
3.8643917761238e-06
3.8018929806105e-06
3.7747418118245e-06
3.7773133909051e-06
3.8049432835764e-06
3.853361890854e-06
3.9193906715518e-06
4.002894058889e-06
4.1091664856459e-06
4.2318340696999e-06
4.3423619364458e-06
4.336115169299e-06
4.1973352688156e-06
4.0684446554178e-06
3.9490441791356e-06
3.8379721498541e-06
3.7347053401749e-06
3.6380615081372e-06
3.5472397378203e-06
3.4614759686086e-06
3.380671397507e-06
3.3044449652446e-06
3.2324942199444e-06
3.1644060903667e-06
3.0999965921503e-06
3.039015340389e-06
2.9811917939146e-06
2.9262738391836e-06
2.8740955259235e-06
2.8245118752328e-06
2.7773488115112e-06
2.7324411622195e-06
2.6896634251838e-06
2.6489185530726e-06
2.6101011514191e-06
2.573087764428e-06
2.5377393949776e-06
2.5039295075693e-06
2.471542167503e-06
2.440518956864e-06
2.4107980879755e-06
2.3823177849366e-06
2.3550057173713e-06
2.3287809928803e-06
2.3035760717693e-06
2.2793252073453e-06
2.2559590999198e-06
2.2334052027411e-06
2.2116054326507e-06
2.190529732473e-06
2.1701640534597e-06
2.1504939564912e-06
2.131505676646e-06
2.1110532868157e-06
3.054551194359e-05
0.00049432451624562
0.00046583601795371
0.00040219401707275
0.00034887971152208
0.00029916596986725
0.00024580229256205
0.00018671754913104
0.00015098400355487
0.00017603889693153
0.00020091548146723
0.00020461791241702
0.00020267671421021
0.00020175412802123
0.00020044798099857
0.000202101046683
0.00020433407915002
0.00020655642050002
0.00020838115730634
0.00020951913898947
0.00020974887196738
0.00020898108753714
0.00020709384394165
0.00020393117625644
0.00019956827366134
0.00019414985150546
0.00018773940867293
0.00018044915613374
0.00017241255494728
0.0001637732853152
0.0001546882847815
0.00014532046710402
0.0001358272997215
0.00012627955584703
0.00011866220021183
0.00010972693737368
0.00010128458295771
9.3446231548664e-05
8.6272735376185e-05
7.9784479445592e-05
7.3996290510376e-05
6.8913877188808e-05
6.4528321061505e-05
6.0810586259745e-05
5.7665729122692e-05
5.4975662061106e-05
5.2663549912871e-05
5.070643668306e-05
4.906213521362e-05
4.7728323449717e-05
4.6536839697168e-05
4.5389521688691e-05
4.4262839239853e-05
4.3151364984147e-05
4.2052940375695e-05
4.096808083767e-05
3.989697611029e-05
3.8832860329053e-05
3.7773723372643e-05
3.6707980664007e-05
3.5666519661864e-05
3.4600199572795e-05
3.3610012756787e-05
3.2760637882378e-05
3.1998314755245e-05
3.1378903862535e-05
3.0752137962856e-05
2.9906163032066e-05
2.9575047251041e-05
2.8787786913852e-05
5.6191663554029e-07
9.6279829135722e-07
1.148144664835e-06
1.3121485187806e-06
1.5497703699327e-06
1.8546747614842e-06
2.2451726958819e-06
2.7091409545101e-06
3.2634197660793e-06
3.9167877427161e-06
4.5837677237452e-06
5.102478598801e-06
5.4307615890365e-06
5.5134378081461e-06
5.2924413002416e-06
4.9114352071657e-06
4.6668379984556e-06
4.494465659235e-06
4.376099058285e-06
4.297560088273e-06
4.2567949372408e-06
4.2464242853412e-06
4.2617285129862e-06
4.2988639367238e-06
4.3561043101311e-06
4.4298201708044e-06
4.3655015548607e-06
4.2349654589004e-06
4.1096818995121e-06
3.9897157592083e-06
3.8756964093585e-06
3.768331549061e-06
3.6671911510739e-06
3.5723673178387e-06
3.4831050772544e-06
3.399539116471e-06
3.321496870301e-06
3.248219981302e-06
3.1788848688051e-06
3.1130913025702e-06
3.0506773190662e-06
2.991302849612e-06
2.9347517726027e-06
2.8808290380675e-06
2.829542915676e-06
2.7806586470804e-06
2.734043712218e-06
2.6895036402217e-06
2.6469648060704e-06
2.6063548583785e-06
2.5675567493188e-06
2.5304697600344e-06
2.4949720625205e-06
2.4609824381615e-06
2.4283891036825e-06
2.3971243009579e-06
2.3671383957567e-06
2.3383747444581e-06
2.3107731092594e-06
2.2842484814334e-06
2.258739432587e-06
2.2341993697675e-06
2.2105751552889e-06
2.1878109650845e-06
2.1658453459508e-06
2.1446398636049e-06
2.1241746616882e-06
2.1044346632491e-06
2.085397866162e-06
2.0652740808613e-06
3.5594210409724e-05
0.0004986699064102
0.00046441414823633
0.00040194905277066
0.00035014078650909
0.00030238554078794
0.00025175020017027
0.0001959617364015
0.00015924077983743
0.00018128845670854
0.00021134149745822
0.00021888526511571
0.00021736826530131
0.00021577113605553
0.00021427741485304
0.00021562617033376
0.00021782588567858
0.00022017575848401
0.00022219322336569
0.0002235486595707
0.0002239872596744
0.00022336265181787
0.00022164868289308
0.00021858607641627
0.00021426892270801
0.00020885374000511
0.0002024080042485
0.00019504502242205
0.00018689748795232
0.00017810510158358
0.00016881856105064
0.00015919058194095
0.00014937158006957
0.00013944649379861
0.00012971168002067
0.00012010263564139
0.00011091721003719
0.00010223324152744
9.411512898358e-05
8.661113038922e-05
7.9766289746007e-05
7.3594886925822e-05
6.8148861857095e-05
6.3470535678588e-05
5.9516127027889e-05
5.6104445868557e-05
5.3155292668527e-05
5.0722738636478e-05
4.865292671891e-05
4.6844390434238e-05
4.5186155946229e-05
4.360385359313e-05
4.2044054503907e-05
4.0492382054586e-05
3.8941956374358e-05
3.7406137108359e-05
3.5974460549286e-05
3.457976297573e-05