/*--------------------------------*- C++ -*----------------------------------*\
| =========                 |                                                 |
| \\      /  F ield         | OpenFOAM: The Open Source CFD Toolbox           |
|  \\    /   O peration     | Version:  2312                                  |
|   \\  /    A nd           | Website:  www.openfoam.com                      |
|    \\/     M anipulation  |                                                 |
\*---------------------------------------------------------------------------*/
FoamFile
{
    version     2.0;
    format      ascii;
    arch        "LSB;label=32;scalar=64";
    class       volScalarField;
    location    "8e-05";
    object      omega;
}
// * * * * * * * * * * * * * * * * * * * * * * * * * * * * * * * * * * * * * //

dimensions      [0 0 -1 0 0 0 0];

internalField   nonuniform List<scalar> 
109340
(
9618.5837067841
9907.0617212328
10709.348855366
12440.599990089
15328.561892799
19260.675682379
23838.07789504
28452.569084559
32572.533841695
36520.873878052
40374.92443586
44155.874046383
47870.045096774
51518.630406163
55100.850179964
58615.201712078
62060.00452928
65433.645501659
68734.709036986
71962.024055617
75114.676750701
78192.009477134
81193.620897441
84119.351583015
86969.245286863
89743.477768845
92442.247119816
95065.625667589
97613.362068633
100084.59068875
102477.3764654
104787.91267414
107008.88361883
109125.43223716
111104.04090978
112860.22605857
9725.3542237438
10825.270017944
13675.053551454
17978.731541643
22986.082886441
28055.122615292
32898.300972769
37733.963879081
42573.698099571
47358.435249166
52070.514050137
56701.166472695
61244.168769033
65694.476925082
70047.928736103
74301.156501915
78451.55620214
82497.270487797
86437.177350372
90270.902031618
93998.872147248
97622.288460135
101143.02146652
104563.42219341
107886.102401
111113.69159672
114248.58927842
117292.71310895
120247.18909072
123111.91824735
125884.84169513
128560.5628541
131127.08484277
133556.59095515
135778.49694192
137613.54799125
9968.1248910981
13972.784315997
21404.827531301
29013.211393462
36229.131532327
43380.202332516
50588.957488345
57789.182489285
64930.222769196
71966.074848087
78863.077374664
85598.468334318
92156.810461846
98527.674937302
104704.32673462
110682.93835733
116462.10213657
122042.69963951
127428.30844633
132625.97316902
137646.26730294
142501.77363829
147205.61531257
151770.30446697
156207.04647069
160525.39663603
164733.07277979
168835.75874651
172836.8538433
176736.99176724
180532.89337044
184215.10546238
187761.9678485
191118.45200694
194130.48716378
196377.38231002
11930.855640788
28479.810022344
45369.546814366
62238.398035815
78921.139250803
95327.91994045
111349.34126986
126900.84290635
141914.3076366
156337.99278665
170135.64039574
183286.74759182
195785.29694913
207637.29740708
218858.43479197
229472.01441419
239509.25683853
249020.64973761
258099.42383248
266869.27759598
275437.08292885
283877.52981804
292238.13303117
300546.60706956
308816.88380427
317053.40316062
325253.71855407
333410.35033763
341510.77456743
349537.57156234
357470.08340106
365304.70703176
373064.09187432
380668.3516318
387585.66676566
391935.12775922
46715.657641503
146310.63464428
240861.03652808
331495.45275382
416909.82428493
495797.33533164
567353.26419273
631302.45912644
687833.2671988
737423.35848951
780709.54189279
818375.33101944
851090.02744674
879468.39225668
904051.19680957
925338.56371244
944032.2981989
962029.60697306
982451.2753316
1006808.174988
1034892.6945621
1065771.8642001
1098431.9916737
1132023.1950645
1165879.0831829
1199460.4555495
1232336.5580899
1264156.1300565
1294613.7348012
1323406.0992291
1350240.8115226
1374714.0928646
1396294.3954994
1413963.4689418
1425161.4884455
1418536.8918915
4715802.998554
5538880.245011
6154368.7738003
6584469.6956424
6865540.4882161
7035012.0312191
7124899.380541
7160031.9232396
7158298.9688525
7133623.3142769
7093878.9323486
7045146.4892307
6991578.5293261
6935980.8588204
6880252.9353715
6825768.0399786
6773442.8103515
6723912.0846512
6677805.4619408
6635759.4196218
6597136.1644023
6561535.7214382
6528772.3051687
6498759.4633635
6471445.7967547
6446798.2301621
6424803.1680062
6405473.7203264
6388860.9462374
6375072.1036133
6364311.8524975
6356971.0755819
6353635.6847836
6355655.9521255
6364487.0946679
6379182.9608943
114202.95229848
114392.39102256
113650.23247634
113067.36749122
113539.28994897
115547.86938952
119663.64937134
126046.26198631
134083.6075021
144603.4550528
158001.42549416
169766.44299325
179108.81893708
182712.00613818
181653.61959204
177909.02194507
172485.51869057
166246.09191613
159708.30204621
153196.77721764
146888.01751124
140858.21677724
135200.39374253
130051.64480146
125347.59916165
121056.59062397
117222.53514769
113505.88894243
110197.6658778
107091.30004604
104128.67019686
101548.30765327
98940.491099012
96719.366400089
94424.260149693
92471.683322935
90432.095562514
88691.02452923
86870.840382338
85309.681431518
83691.724564071
82275.892351505
80847.953158653
79527.805720142
78263.285218535
77010.204705292
75867.020828629
74703.412941836
73656.797609847
72610.789496713
71626.807228604
70677.952872762
69769.817306857
68896.524149992
68054.712937371
67241.113672379
66454.43766565
65693.972500927
64959.745478809
64251.089870027
63566.354914015
62903.195357721
62259.27065099
61632.603609639
61021.806608398
60426.151475297
59845.696956457
59281.137714228
58733.202237806
58202.251175784
72158.762229876
8354018.8179107
7569191.82284
5442382.5599514
4017437.1938392
3026562.5921415
2311418.1846348
1746894.2792588
1128263.0585599
591050.59309294
428846.33126367
389713.72878602
377249.2597091
372995.10814464
372894.26176615
375054.89703072
378373.54466752
382239.28732484
386029.91455775
389376.60200511
391976.2243479
393601.74686233
394158.51707613
393501.1933468
391500.35310191
388235.02524876
383740.08977863
378086.17534549
371388.61433173
363862.6786605
355798.26493084
347379.10078947
338882.2699177
330754.89486136
321451.56039116
315434.05374644
310705.39032993
307238.16497394
304951.72218037
303807.18086436
303688.07882721
304056.27480783
304928.69190725
306243.86244241
307877.07661423
309719.67374562
311692.73467124
313750.50214987
315555.35293186
317189.15845898
318518.82714648
319250.6453362
319282.03819226
319077.44253712
318634.38610794
317901.12495313
316898.36636419
315601.53861243
313957.29604201
312084.26003392
309963.06589884
307602.6215861
305166.66840398
302690.3669144
300703.09999211
299238.98781014
296980.29098899
292927.14797308
294855.48397762
302289.79172301
138609.41570615
137413.05241923
134411.21715343
130532.7745029
126389.6918768
122440.14419258
119025.09337258
116406.93075996
114686.89898864
113884.99686483
113875.73538205
114560.8358931
115236.20884973
115660.63443386
116033.73969369
116450.36790031
116941.73488157
117273.96423848
116919.36067847
116042.72339199
114759.43089683
113151.33635629
111301.68050598
109265.33346691
107181.169357
105150.75478416
103143.29007135
101142.30267633
99151.667624204
97217.238472002
95331.280632469
93525.786144848
91789.310971352
90121.398219419
88519.237112894
86973.392238482
85486.626094901
84053.734093127
82679.651234698
81363.468868272
80101.700973832
78893.770319053
77726.324346801
76605.287700674
75515.628513663
74468.374259406
73450.251090373
72474.178038652
71530.983682115
70627.733478532
69756.879211311
68918.478456488
68109.206019821
67326.361689723
66568.228438703
65832.223030259
65118.117529777
64425.742438252
63755.371817179
63106.303522019
62477.082833182
61865.58707725
61269.741897358
60687.842276232
60118.895539281
59562.641535296
59019.515590752
58490.371727293
57976.064374616
57476.496375695
307298.98050345
9339283.6896152
6955279.7510128
5032154.486244
3735551.0410469
2826237.6890128
2161890.2456014
1607902.1639797
960135.85139426
528617.50965986
415429.59086325
386730.97716677
377219.3704916
374356.30327616
374127.63935522
376397.90467699
379848.47026934
383819.98478536
387714.58581605
391169.11694588
393886.14580806
395643.80179753
396326.64247052
395865.70475009
394076.03059979
391051.23604381
386834.15762749
381496.31955951
375141.98287644
367936.57178461
360082.6667915
351797.51044085
343352.31012038
335107.769699
325430.88967902
318969.47948217
313736.01540744
309763.93791922
306992.4002837
305355.31817124
304814.09701652
304957.09337423
305553.90083727
306597.58629481
307980.64719007
309595.77043146
311357.20382507
313211.80298516
314935.83753802
316502.73681937
317767.44492177
318406.98119218
318425.20272495
318228.75560947
317790.20421064
317073.27161188
316083.83509842
314802.6881783
313191.1604984
311352.54217442
309264.59363009
306943.67181609
304589.04808811
302338.43491469
300566.96938465
299174.55637877
297059.53643171
293209.43977436
296254.27267961
302613.13463392
196609.83172942
192378.31883796
183948.83357791
173525.47883243
162922.42166082
153108.31042821
144638.71706091
137647.31422028
132026.82606985
127438.79596816
123959.42284448
120952.28507047
118670.05166758
116850.42492604
115301.47452427
113856.76483393
112307.10340223
110590.5245182
108459.5249009
106131.10215788
103789.52961243
101538.07560578
99385.391357898
97343.88713153
95424.9993713
93606.255197326
91901.634141716
90357.101574925
88938.144120525
87605.880619141
86360.233117059
85191.620953229
84091.283045845
83024.944535433
81985.806699855
80945.343785872
79915.104559646
78889.963033978
77888.486194605
76907.992343364
75958.710860454
75027.922604667
74122.573391556
73231.405000883
72361.340476549
71505.77438933
70670.490790118
69856.916188943
69067.216740237
68304.482260179
67565.014506785
66849.471100186
66152.584274982
65474.20314268
64812.155321285
64165.835257871
63535.228514751
62920.966177247
62323.75355029
61743.322962601
61178.519446156
60627.504262423
60088.456298773
59559.938964169
59041.197553485
58532.189870853
58033.564300068
57546.380636953
57071.734040406
56609.865888247
316735.08053417
9349241.361059
6953814.0256229
5029874.6544021
3733986.7302427
2825850.251033
2162442.5859496
1609253.6593589
964980.96516217
533251.08700026
418232.88069651
389033.52913051
379559.09274938
376847.59132773
376589.64774786
379036.41091345
382694.91451073
386874.31838968
390988.65228353
394681.05240083
397656.12470929
399693.58160965
400662.4574708
400555.77445187
399161.0133034
396567.9498867
392832.65874842
388025.51474409
382246.47955816
375618.34860404
368283.61170967
360430.17319537
352285.27669751
344083.85055947
334098.42104532
327094.97513872
321138.61705966
316383.37542042
312825.58830166
310404.38844813
309089.54837762
308787.15376094
309025.39368958
309683.15690308
310700.54611845
311972.69732906
313402.73317335
314936.28192753
316506.44786344
317969.77474472
319099.10156357
319537.70113789
319501.45789573
319244.86349535
318730.62044413
317941.47004436
316876.9292073
315526.36708878
313853.52365645
311955.8683902
309821.85575064
307452.71598386
305224.83883776
302967.45294592
301178.18190926
299734.15176758
297600.071772
293718.25314226
297273.60423992
297622.69682602
386273.90813766
363946.8947611
325597.22896142
284429.96422917
247219.02626672
217158.4843658
193567.34079629
175439.24419302
161369.68239285
149835.90220882
141369.46324371
134152.55238947
128254.7766553
123426.44381783
119361.73163187
115935.91123115
113148.19531603
110561.37686344
107674.03084801
104540.42177673
101355.29554682
98279.941685406
95404.208205198
92744.059717894
90297.617221527
88060.028510914
86012.148140612
84141.508618213
82483.988262057
81007.88675003
79685.932112775
78497.826079405
77425.087971911
76449.221482854
75546.428732076
74705.27484825
73907.002230686
73145.984293688
72415.731593052
71723.166864709
71057.184453658
70409.08659771
69770.01280542
69130.093501684
68490.609793952
67848.922058769
67212.806955894
66582.44477215
65966.245040059
65363.145565572
64775.378934192
64200.475321911
63636.621652114
63082.116335235
62535.465967379
61997.10585843
61467.456653616
60948.200007663
60440.524822959
59944.614302762
59459.486252847
58983.579060404
58515.410759869
58053.872909595
57598.374657906
57149.003257319
56706.657916225
56272.75429414
55848.719749106
55434.993888803
329604.28419688
9353719.2975765
6948063.9361568
5025772.7158287
3731618.3696235
2825340.9258164
2163379.5427086
1611571.1350301
972486.21920179
540018.61753038
422128.03995779
392037.11646298
382489.03648354
379902.38383675
379701.55119022
382353.36314509
386241.89421633
390654.47321999
395016.34398351
398967.01994005
402211.23943279
404531.55758911
405791.66300728
405991.94874607
404952.14244977
402734.19738588
399413.09600815
395064.14926351
389786.11260174
383687.46287
376892.85436969
369568.81380196
361884.11485233
353983.84855903
344134.23341041
336938.78162678
330506.18212438
325091.86531355
320787.56000564
317562.98071608
315424.61576072
314340.98998947
314150.68814496
314385.30856231
314954.75969469
315796.19172326
316819.27618343
317977.40860996
319232.48892315
320490.13038697
321371.63261548
321596.46105129
321494.93353728
321154.44360544
320543.65498353
319652.74554373
318482.94561048
317025.61367778
315249.73691016
313257.99911231
311034.75008841
308555.79432894
306311.32030868
304021.96341475
302147.36227117
300715.67994199
298598.47985767
294599.20211044
297673.91012871
296557.37439262
1321516.159946
1071988.9120336
803280.38435582
595362.00216388
447319.15150017
347297.62645809
280636.4084425
235173.03017929
203550.04783633
180811.23859678
164280.65169043
151586.45463708
141544.54222252
133436.37754448
126742.05033271
121191.88366979
116560.56327411
112361.52212202
108431.87296083
104721.94812533
101187.46964852
97777.523494534
94485.281913554
91405.132535982
88556.430971185
85935.823330389
83527.183228741
81318.086717348
79329.173965131
77560.335215794
75983.895534794
74580.161285331
73323.613105316
72198.164553815
71183.523140165
70263.76293742
69419.334358106
68641.211524941
67920.020192381
67254.040373338
66634.48328852
66055.284994331
65504.273206353
64976.940040334
64465.423408161
63966.653503219
63477.014551264
62999.005562853
62535.147820131
62082.987658615
61641.917167346
61206.881873654
60775.820593996
60346.619406208
59918.893125754
59492.302828202
59068.25308218
58649.165419195
58236.719959525
57831.385155509
57432.294135021
57038.153855178
56647.733704691
56260.125884738
55874.811152587
55491.952100183
55112.680098443
54738.759090064
54371.837067136
54012.685623677
346535.21532709
9356183.9965808
6938918.0791565
5019898.752672
3728482.8717576
2824759.2267488
2164772.9257155
1615054.6577264
982881.0793492
548875.43189904
426963.24627788
395515.64791383
385732.04334742
383204.69595131
383080.32586592
385934.90373457
390042.53666535
394677.42053681
399268.86589441
403451.44300232
406927.42163943
409480.99863323
410973.14247385
411393.2999774
410622.89472666
408670.12013092
405635.54932957
401603.73110366
396679.75692619
390974.75764087
384615.43542088
377753.63674447
370527.32732653
363028.77508528
353614.93964533
346557.74289955
340016.29437839
334305.91251199
329567.39830612
325782.16863456
322987.46659133
321200.7055987
320332.03865442
320175.20457204
320325.13203709
320710.40848199
321280.52294081
322013.85898291
322886.92493749
323833.09415449
324376.61362136
324412.99084962
324231.33980631
323774.55764412
323034.12495226
322012.23452812
320712.60608379
319124.0417146
317224.11034515
315118.90786191
312788.67094205
310213.9718976
307902.64800367
305581.57786701
303636.66746482
302180.7829451
300068.42988553
295983.84677708
298457.73817627
296802.80201671
4665046.0120997
2572849.5130976
1598810.9532017
1066262.6767471
742304.52044251
537837.92254413
404950.56067402
317930.75983546
259783.58267629
220416.48710188
192777.55054505
172789.45982444
157673.10838732
145737.91813774
136137.10813508
128323.97035416
121697.41014088
115839.79701786
110621.5655389
105956.82592005
101765.59899759
97964.767805743
94480.842369702
91221.955967484
88150.728393023
85286.179024934
82640.822736579
80191.840260705
77959.492731886
75955.023018646
74155.278946941
72533.580026086
71075.074431257
69760.425160535
68573.995511958
67500.727789068
66527.057741228
65637.863381386
64825.854060383
64085.122259846
63408.391962463
62785.820343075
62208.357754934
61669.117337919
61160.124821343
60676.816849669
60214.529426663
59774.292082161
59355.010201199
58956.85242261
58577.277868129
58213.187127844
57861.49139653
57517.800297982
57179.105332483
56842.999878159
56510.35931448
56181.686495541
55857.799620424
55538.534092419
55222.078235748
54907.305991688
54593.083942509
54278.670991666
53963.647687534
53648.089923077
53333.083556956
53020.565582287
52712.462705869
52409.862887647
367935.16860192
9356830.2794374
6926717.6434891
5012426.9445015
3724704.0895399
2824206.8412834
2166735.5971808
1619940.0043782
996420.22116382
559859.41517648
432670.34694793
399338.5008642
389122.95873236
386572.52598019
386517.7225708
389554.31340462
393865.70050746
398710.17234898
403514.17410911
407904.91638927
411580.68363605
414324.41159534
415997.96761076
416571.16806035
415987.74481021
414205.43719939
411346.67802646
407504.78236282
402792.28156185
397329.00633055
391250.82649901
384711.46380446
377841.73320518
370704.99798034
361763.35265675
354975.58097062
348550.01116013
342815.08221617
337923.926551
333850.81825222
330645.22039095
328371.63431461
326995.2218637
326318.82153264
326071.47648918
326064.95988281
326175.19795947
326479.58533285
326958.38595308
327520.35782812
327733.58528783
327653.16827404
327333.59664338
326719.79390313
325820.40953174
324646.08142812
323202.52478875
321472.36039083
319447.39807494
317223.5300889
314785.42181947
312133.20226983
309705.13190699
307405.86107869
305356.49422452
303896.2803822
301815.13516228
297692.78677915
299528.78723038
297298.13059499
6474272.303208
3575572.5452478
2319964.639742
1585749.8036797
1118434.5903277
803497.91364869
584271.68040238
441336.13484607
345887.66725598
280709.00306264
235642.6806801
203817.73970509
180772.16901529
163412.40959212
149857.15240909
138872.22251542
129743.58926049
122015.86047508
115349.31721443
109527.03600345
104400.05498302
99867.988290416
95840.660468037
92238.567970791
88958.043251534
85933.55717749
83111.416134811
80470.502836777
78028.702259225
75808.893090144
73801.945433675
71982.347100434
70325.401109364
68816.500230326
67446.475296324
66200.16902226
65063.181963837
64025.454822274
63078.114798894
62212.31501184
61421.428487536
60697.767774402
60032.712787001
59417.773742293
58846.287516677
58313.274174023
57813.595390799
57345.233781242
56905.968619709
56495.682049725
56111.396032368
55750.390581413
55408.790351499
55082.90759313
54769.471337317
54464.864497085
54167.803696072
53878.411133621
53597.897456409
53326.102318205
53061.550959921
52802.154937978
52545.671933637
52290.340375566
52035.051985636
51779.215830428
51522.502540733
51266.460124249
51012.955445692
50762.932077067
77152.492530475
8759403.7293715
7526363.5760103
5409404.7410081
3997748.341372
3020569.9006043
2316684.8428572
1761677.1922879
1173656.5494937
644875.61450626
458037.16566254
408789.92163388
394240.91685165
390134.8096243
389917.87093357
393118.28204808
397626.55806618
402676.60512235
407685.68589509
412271.95427257
416127.78752589
419033.27286559
420850.80878794
421534.22830519
421072.85304567
419389.6872165
416621.76087857
412870.64680258
408256.94273909
402910.30554792
396976.83037119
390617.80480415
383972.45076487
377099.70799676
371691.75764957
365233.91591169
359081.52622329
353514.62463088
348661.20442104
344475.82646881
340983.53812627
338272.24397024
336382.11114701
335185.4340614
334379.054601
333732.73001438
333193.48890226
332940.75631094
332866.92562534
332798.00856441
332634.64247954
332283.36225913
331665.25611561
330752.041512
329566.44217425
328125.62635394
326429.9227725
324465.88736819
322242.30637651
319819.50996225
317204.98296577
314432.96125331
311696.42162165
309426.66031978
307300.36955638
305915.8485004
303979.86374437
300042.90623735
300934.62978006
297872.15168538
5638690.3975694
2715823.4748055
2108357.4445442
1653866.3277365
1307751.5191408
1007322.7458324
777932.06281804
600281.60181339
462732.56920444
368810.44718313
301954.3678938
251707.22302864
215647.01738723
189092.588732
169072.05353337
153489.66263038
140902.50471305
130466.73711421
121691.89601379
114245.33648134
107833.62656651
102243.64200613
97343.913342015
93025.804525715
89196.859168601
85782.389572678
82701.79246807
79906.893920574
77385.468800726
75091.051496166
72984.699074832
71030.40302714
69222.645290427
67555.035573463
66018.743547381
64600.215139879
63293.763419258
62088.977896171
60976.305313518
59946.078146956
58993.627359487
58112.962514906
57296.532606652
56537.458527011
55831.635981857
55175.98033873
54566.705704621
54000.109645847
53473.285807973
52983.779968656
52528.846097862
52105.512337552
51710.814512203
51341.755641335
50994.746422946
50666.787261317
50355.75539568
50061.03769317
49782.542953699
49519.440738672
49270.044620437
49032.154496404
48803.607693674
48582.3959006
48366.773732939
48155.608305437
47948.779784691
47747.00353107
47551.236502974
47345.168241782
468480.88677277
9336291.2499348
6867669.7514048
4979574.9941157
3710209.7079373
2823780.6077322
2177234.8194441
1644922.9763181
1057883.7305883
607234.75486762
455538.799905
412727.69895485
399736.97824184
396553.28993274
396538.52751548
400028.07247128
404939.31585635
410422.45657758
415857.78627677
420836.18459013
425032.50920576
428218.46671906
430254.84875108
431081.36749947
430734.19254292
429106.08317643
426347.23660841
422571.83638494
417914.42505505
412521.47410908
406559.64902785
400211.2273071
393642.58596881
386957.5496616
380804.14344958
374500.66685634
368659.95742761
363390.6315764
358774.64906339
354750.64227115
351281.8227843
348409.12308717
346225.62897673
344672.72419664
343460.53285724
342283.99298641
341080.25986406
340084.93047765
339292.27636297
338585.13581165
337841.38461641
336974.95731392
335877.73344918
334496.42641153
332835.41312421
330932.94307962
328837.15783088
326536.60513995
324018.97794419
321291.79547421
318381.63781982
315267.15749817
312224.83630829
309553.98318608
307359.82242636
305977.69837022
304156.83878606
300526.38015223
300134.09195428
295992.86041736
5212774.1554683
2117650.4889349
1825566.5329064
1545370.6179679
1292653.837241
1071646.6587302
878766.58126592
712434.7361651
575621.52806888
459421.05949596
371998.6416817
310306.97808741
258364.51959401
219880.59506329
191909.52474194
170792.3801643
154422.86835023
141313.5277425
130450.85016095
121299.82248856
113514.47697402
106822.35049715
101021.60436325
95952.632439288
91484.166904569
87513.185992178
83967.187435177
80811.034979823
77995.496995969
75473.878720554
73207.724290868
71148.912623559
69264.422614283
67526.43002337
65909.972437729
64403.705584591
62992.599589868
61673.4299466
60441.861080321
59292.995969733
58223.392966722
57225.538013818
56292.136838719
55416.430566696
54596.936074557
53830.041353017
53113.415216498
52442.84084497
51815.453496297
51228.458627621
50678.71382517
50163.938186735
49681.961562768
49231.034442163
48808.100206132
48410.247848088
48035.347743598
47682.277261282
47350.499148007
47038.712833328
46745.201435697
46468.090167739
46205.557174651
45955.98589111
45717.691838426
45489.416804744
45270.599943706
45061.363467311
44862.100702418
44651.736862414
580531.67737535
9252724.5153757
6796205.2778446
4944208.5222496
3696550.8016757
2824555.2963515
2188642.6968787
1670806.1701377
1116832.7865015
653989.67623207
477338.88054465
424027.55941305
407483.76992869
403243.69733589
403044.6559366
406769.44671857
412119.42661471
418096.42585067
424010.84161588
429411.65971575
433949.26272359
437385.59901701
439580.52623954
440478.23348559
440123.5328372
438417.74539718
435513.29307282
431532.24684969
426618.55192309
420929.68858149
414650.57612655
407979.82604829
401112.03505365
394211.07734677
387265.33240497
380862.42514666
375065.93527815
369900.56030865
365419.57638054
361555.4272872
358222.58886717
355374.75825364
353094.90148339
351361.07274646
349920.83036733
348476.48511508
346950.07931926
345400.21165625
343921.8114847
342521.00246808
341094.5818032
339576.88904853
337918.34054256
335992.72950025
333715.88781457
331095.99174211
328143.56201034
324892.9683297
321363.82060711
317556.85465098
313564.55887287
309344.24534325
305321.73842491
301276.36032874
298732.04702044
296822.56380282
294845.88362333
291823.82611531
290714.33720983
285919.92239645
5198024.7829543
1814807.6681434
1557300.4709669
1385164.3298782
1212063.8869397
1047440.3279717
894349.00513373
755575.47961207
632359.09237768
527309.91057109
434144.11011308
356994.68519477
302973.75683294
257254.10651418
218565.33246315
190075.67603591
168777.62129166
152389.96780316
139371.73256448
128673.5008285
119646.89324566
111923.79844825
105262.32735608
99485.232758371
94434.587975352
89985.683569406
86041.635158182
82527.651914486
79387.460227426
76576.757833726
74051.354744973
71771.63757365
69705.500352435
67824.526202116
66101.923072961
64518.819836852
63053.900601335
61690.196660938
60417.404439156
59221.913773747
58094.578563999
57026.311512551
56013.490833149
55058.625195413
54159.365212975
53314.735906712
52521.011858669
51775.052980702
51073.99523535
50413.178791413
49789.98326291
49201.451423159
48646.854304218
48124.424931575
47631.663021045
47166.168241479
46725.785374024
46309.752844756
45917.182740566
45546.807252426
45196.985901911
44865.871556698
44552.057551264
44254.209010314
43971.106993458
43701.776501204
43445.614418032
43202.37794862
42972.027704769
42731.844719357
749106.35999619
9122426.5292017
6689866.9404617
4892117.6693723
3676437.9178879
2824585.5653025
2202836.9715932
1702968.8736762
1188430.531394
717168.39437472
507455.85842699
438811.0872798
416571.39652318
410422.83685227
409725.46981041
413580.9268909
419397.71164903
425938.76413883
432398.18244128
438259.63438984
443139.68022265
446789.37744464
449073.14929551
449960.4273936
449484.31703747
447584.68421525
444414.22123485
440099.98172473
434789.74758588
428645.43431671
421864.55751557
414656.06845617
407243.68893771
399854.01321092
391962.11718181
385194.92767574
379181.2593731
373911.41705338
369418.16178451
365621.87583239
362394.72860761
359593.24446429
357254.69003636
355358.0452945
353709.62224785
352056.15031846
350288.36136021
348326.70989317
346263.29632373
344173.55417724
342005.7721508
339529.1449091
336529.05569993
332880.63083227
328540.88541694
323611.97312617
318276.84287885
312725.22776754
307006.82466607
301149.46049526
295400.39523909
289695.6108609
284661.57616802
279378.37385979
276527.46765478
273897.18774067
271944.81525665
269891.79501444
269893.25914954
266481.7374467
5844591.2022895
1659881.1083865
1369212.6580105
1235842.9309153
1115857.694143
993062.86423047
873398.18221194
760036.89634654
655334.27855602
559701.58379847
477252.93470438
401469.38803866
335577.34152833
289495.92753327
250277.83811671
214613.18818545
186692.90739893
165657.4803318
149466.7945395
136653.7741191
126207.38547109
117457.67860993
109984.20366909
103524.95406371
97899.194395026
92967.752128112
88618.466487215
84760.081491125
81317.09030532
78228.227219837
75445.476473036
72931.439848941
70653.005682383
68580.540299914
66690.754826775
64964.938561327
63383.590981349
61927.323997401
60580.9176617
59327.814094036
58155.937268144
57056.365542446
56018.000790364
55034.871218041
54101.790999739
53214.087803051
52371.211382908
51572.927369339
50816.859217831
50100.957485798
49421.589455788
48778.323574945
48169.558267734
47593.339194231
47047.391450866
46529.016174051
46037.129684221
45570.301788035
45127.307113368
44706.997744088
44307.616104636
43927.758037681
43566.120871912
43221.416827526
42892.969053006
42580.137461277
42282.434132258
41999.614173191
41731.346369763
41454.068568289
1003979.1528274
9015827.7407385
6563234.7646369
4823707.6465372
3647493.2331663
2821555.9019782
2217954.2655607
1739000.2560424
1268187.8742705
800611.98400675
550275.09344673
459568.32640954
428355.98528804
418869.68764102
417077.7918675
420826.02111125
427079.66174323
434231.41488999
441288.48461993
447632.27055939
452830.75441901
456623.52799261
458887.68979039
459641.02547723
458891.94077623
456657.67081989
453092.6492533
448329.51546195
442513.95610273
435807.4796032
428403.1915123
420517.91427154
412399.70244787
404327.78282212
395316.53447202
387978.65916372
381552.20444058
376026.06240472
371402.40454592
367570.68515377
364363.85804062
361561.3398385
359107.66106393
357028.30142679
355145.59079399
353245.74829496
351189.29761361
348735.74728098
345712.05569085
341962.39286052
337497.34707182
332227.29817679
326057.8244905
319013.24862692
311199.29429029
303018.82570401
294739.39272579
287270.77224666
280630.41178594
274709.92430825
269099.06403244
264215.97161007
259927.67469682
255774.22657835
253600.72122923
251640.31058828
250600.22652411
250437.92332147
251799.42747687
250598.88693943
7443333.5352302
1544710.6919676
1257287.6790608
1115286.2973303
1023546.2749329
930228.09325581
837054.52609275
745034.97816006
656374.4805147
573675.52363826
498530.79327214
430238.1261888
367520.46444969
312759.24417539
273416.48449155
239993.67192429
208692.35942967
182246.27642885
161988.81088092
146273.54563159
133809.99278897
123687.80113273
115249.53327726
108048.46031766
101812.61843997
96366.548692806
91582.641206515
87356.241830866
83598.204640156
80234.222988292
77206.561767483
74470.097701829
71988.090604535
69729.484277756
67667.80343362
65782.146555778
64055.161604015
62470.47608614
61011.685026777
59662.873861117
58411.653362618
57245.729965336
56152.911821737
55125.59063374
54158.97113011
53247.16329262
52386.191789061
51570.176255833
50792.809067659
50050.335437468
49339.633088374
48659.73626359
48011.818678499
47394.655952852
46806.922795253
46247.978826335
45715.704535432
45208.957231317
44726.405576377
44266.597176921
43828.335504092
43409.853433955
43009.564597561
42626.642283799
42260.246498637
41910.222245783
41576.367550213
41258.16706535
40955.191596426
40649.319293304
1454462.5139007
8914707.4028883
6430294.0888227
4743887.251797