/*--------------------------------*- C++ -*----------------------------------*\
| =========                 |                                                 |
| \\      /  F ield         | OpenFOAM: The Open Source CFD Toolbox           |
|  \\    /   O peration     | Version:  2312                                  |
|   \\  /    A nd           | Website:  www.openfoam.com                      |
|    \\/     M anipulation  |                                                 |
\*---------------------------------------------------------------------------*/
FoamFile
{
    version     2.0;
    format      ascii;
    arch        "LSB;label=32;scalar=64";
    class       volScalarField;
    location    "8e-05";
    object      p;
}
// * * * * * * * * * * * * * * * * * * * * * * * * * * * * * * * * * * * * * //

dimensions      [1 -1 -2 0 0 0 0];

internalField   nonuniform List<scalar> 
109340
(
388763.68046985
387234.75608759
384314.24995509
380804.30714448
376962.616278
372999.67736401
368997.42905528
365006.03772374
361113.11734144
357308.70296611
353538.69598829
349799.48980869
346094.64298203
342426.60351352
338797.08957988
335207.6238596
331657.62704402
328144.72185416
324664.12395756
321209.13600326
317769.7251301
314334.97848621
310892.48145335
307427.3703863
303919.83551827
300344.14560396
296665.95895738
292839.0715229
288800.0430609
284459.81198002
279690.18408994
274300.94994884
268004.64307613
260375.48649939
250824.36165317
238617.50013626
389005.64586777
387033.93255959
383756.61757395
380014.93345164
376070.53148822
372103.71649104
368166.57347274
364269.81862421
360409.81422387
356589.790803
352804.16610516
349053.87562034
345341.37198697
341668.18556351
338035.31324591
334442.35881266
330889.35295737
327373.36460832
323888.80441559
320427.87366948
316980.32358726
313534.99586673
310079.1108671
306596.97749441
303067.64926553
299463.54167856
295747.82305235
291870.58087172
287762.75476705
283326.58923803
278419.58372338
272825.93816352
266206.88032638
258038.8907274
247466.72585456
233574.13076878
389879.46411128
387588.39022087
383974.31771799
380141.53825114
376228.82875953
372316.22822772
368396.46570502
364481.81627407
360597.16220393
356750.15811667
352939.82748385
349166.74423319
345432.74322838
341739.3380559
338088.07482332
334480.03679628
330914.9425791
327389.95911848
323899.01869186
320433.94805379
316983.7138723
313536.96957944
310080.77980664
306599.27137327
303071.33488139
299469.14201801
295755.73081008
291881.07988059
287775.97333155
283342.01655388
278435.12572549
272833.28470188
266169.59346482
257832.53803208
246727.52246914
231103.43283664
391099.26852844
388324.80195558
384520.6906123
380573.96440891
376580.77414197
372582.42141312
368593.39491337
364627.9442132
360702.45619311
356822.59983619
352987.9216174
349197.88078698
345452.63581093
341752.48745858
338097.66967403
334488.14265556
330923.15481928
327399.47497714
323910.1200921
320447.14140653
316998.05745166
313552.07333272
310096.59175479
306615.74374916
303088.96086595
299488.3097273
295776.9165644
291904.78175517
287802.52252641
283370.84168678
278463.71510444
272853.59213205
266136.71567864
257588.95138512
245717.48344413
227168.28539309
393030.72784072
389401.13718098
385027.86045522
380805.44803976
376700.80115907
372661.74396117
368659.21981194
364695.19903666
360773.25906017
356893.82584571
353058.51490996
349267.77470725
345521.94670618
341821.47143539
338166.82957909
334558.45726101
330996.60838502
327479.25581054
323992.6690124
320535.59293032
317090.28504147
313647.49180982
310195.1391095
306716.9067048
303193.28163436
299596.10616964
295888.59716243
292020.73968459
287922.81694348
283494.41430128
278583.80539832
272971.02204138
266204.6143627
257451.65502117
244718.90913641
221712.54522112
396659.57756006
389973.63863171
385147.87385488
380835.7044023
376725.83485332
372695.42513715
368703.33110057
364742.15122097
360818.14261646
356932.82081105
353088.90433195
349287.25824444
345528.43040454
341812.92608175
338141.31302673
334514.29299788
330932.86361292
327403.38497862
323940.94050426
320478.43169341
317025.5202487
313575.68860543
310117.01450147
306633.78223101
303105.36705428
299503.91691321
295792.39699176
291920.77285524
287819.37888112
283387.35436549
278462.41846896
272852.57620334
266061.39768338
257209.51447798
244008.11797197
216159.01763612
223903.22559643
209199.24965109
196909.49447856
186997.52405106
178069.4376059
168554.3668262
158048.76512729
146369.80449123
133685.7439101
120318.46874586
105952.51223904
93158.580161412
80653.423695672
69145.080962492
59079.642170843
50309.740169783
42840.85961748
36531.680019951
31233.470001719
26827.50975481
23170.893678611
20110.900752303
17548.788181461
15401.491536053
13577.960360928
12032.457716642
10749.811399556
9597.0284063885
8633.4439602264
7799.2387665934
7050.445786977
6434.6131460732
5851.684056068
5378.4716172287
4921.5338709025
4549.7354542278
4187.031675633
3890.0796342696
3598.7901631332
3358.1021850741
3122.4552651248
2923.763286468
2733.1542134777
2565.5560796881
2411.1928306029
2267.0235438132
2139.841786827
2016.734773697
1909.4971182058
1806.5943041436
1712.7311523575
1625.4645522662
1544.6058502962
1469.513189395
1399.6229995732
1334.4423292061
1273.5593995993
1216.6132474521
1163.287063357
1113.2829933662
1066.325426332
1022.167985346
980.59753973903
941.42352959783
904.46950756406
869.57190153852
836.58652406083
805.38691806414
775.85069187179
747.85191415427
721.18122112206
1122.6469277812
4670.9901269286
5359.8041702843
5511.0799877326
5609.5589401403
5678.5794927408
5723.054942696
5728.368461613
5678.5217870179
5614.1729987568
5553.1054973555
5495.4896622554
5446.0118674963
5402.0844458136
5381.2233231755
5379.2521058913
5395.1361485384
5423.841861987
5466.4451999389
5520.1850792074
5582.181422182
5649.5191208824
5719.5343071987
5790.0155096713
5858.7730144497
5924.3015898897
5985.5542323043
6042.0374531115
6094.1257478632
6141.746622391
6184.9199229046
6224.5626706713
6261.2472167124
6304.9305906149
6337.6035265744
6369.2601850626
6400.0437878325
6430.335894875
6460.1827690093
6488.8236707572
6515.5582235392
6539.3838797589
6559.4045394972
6575.008132699
6586.0949166497
6592.5702256402
6594.8485857981
6591.799253623
6583.7549607881
6570.6969829826
6554.5730078574
6536.6344668507
6516.4456647692
6496.0980584545
6476.4550459369
6456.5973027077
6437.7239434548
6418.9999612714
6399.9976052234
6389.1006480558
6377.399720532
6401.8100637562
6459.3010185345
6568.4524195852
6728.0075145668
6852.3188994246
6885.1335190309
6855.4049357781
7367.1669155016
216349.140591
200822.28411262
189175.91019573
180076.84231288
171119.00143152
161059.38041463
150121.15182065
138294.38331717
125804.97741798
112897.45923913
99915.121599309
87129.908761244
75678.487263629
65188.399552222
55796.054868743
47662.818100896
40686.982162882
34781.313393673
29829.400818977
25687.097808963
22226.518422586
19334.939314169
16908.803933057
14863.73936576
13134.234339037
11663.957810551
10406.979701878
9329.318949651
8396.3121258709
7589.8629034847
6884.9956654215
6269.704799418
5727.7822881611
5249.4143661258
4825.4716753379
4447.9176662277
4111.0270969858
3809.0487574296
3537.741973154
3293.1912243878
3071.9303095566
2871.7937239258
2689.3481449675
2523.7299151892
2371.8173011202
2233.4124518171
2105.8102548821
1988.996946425
1880.9817212405
1781.51695108
1689.30584782
1603.8471016435
1524.5134419764
1450.7391653378
1382.0863746639
1318.0315574953
1258.2034724904
1202.2229538379
1149.7783411806
1100.572894497
1054.3519112452
1010.879625109
969.94556334822
931.35658666873
894.94182372265
860.54765727678
828.03570790341
797.2777858511
768.15383678217
740.55872607594
717.06779116374
1941.3179002765
5000.4216131313
5394.6847124821
5526.3668665681
5616.8995254698
5680.2454310408
5718.6436416374
5711.6238509901
5653.7427769304
5591.1837917571
5531.9567050831
5477.0515130984
5431.1036732224
5399.6221677456
5379.1555121399
5377.7630157668
5393.3290714384
5422.9450268618
5466.0277447192
5520.1461811629
5582.420325412
5649.9606989379
5720.1134197232
5790.6323771133
5859.3593751872
5924.8016819809
5985.9417427663
6042.1405200854
6093.6859142142
6140.4811465882
6182.8302352317
6222.0413321245
6258.5493761412
6302.1481454875
6334.871974623
6366.51011903
6397.2266875666
6427.3960306493
6456.968462367
6485.2094713076
6511.4556546495
6534.7524183834
6554.2583979052
6569.3711489946
6579.9646755945
6585.9390445937
6587.8270747637
6583.9383025109
6575.1948319403
6561.8183734907
6545.7529539754
6527.8179426751
6508.1232406864
6488.13333458
6468.8891982128
6449.1164997463
6430.4855471608
6411.7843577409
6393.0742987312
6381.606367331
6368.0254733223
6389.4975192285
6447.4152628353
6559.1223747205
6718.8807980188
6840.7134823652
6882.8311165644
6855.9287668764
7394.6991053217
209827.17904822
191519.44494091
180936.45359592
170403.31181201
161302.69462665
151536.60555468
140778.68221276
129506.88478915
117889.60029408
105762.93976111
94436.954175363
83214.620499236
72635.065258867
62913.545435246
54161.54269865
46459.46243595
39806.063733255
34149.924380445
29374.719060542
25346.862662733
21969.291738987
19141.509120845
16759.389573858
14747.217559841
13043.918476669
11593.090454137
10349.741189884
9282.205165644
8360.3570713471
7558.5212467849
6860.4517545528
6247.7310999905
5710.1982393757
5234.0744163899
4812.8018305343
4436.7727079134
4101.7899869178
3800.8384832757
3530.9637350795
3286.9578447369
3067.0066327459
2866.9855959486
2685.6690914396
2520.0113480188
2368.9774819711
2230.4956865984
2103.4652025937
1986.7047962484
1878.9754046399
1779.6606029613
1687.6181955915
1602.42384852
1523.1910993769
1449.5377220075
1380.9418704331
1316.9766105995
1257.2340596253
1201.3339471638
1148.9562534377
1099.8095881161
1053.6432199967
1010.2226780339
969.33552923936
930.78882426849
894.41414943402
860.05959365582
827.58550180559
796.86105806359
767.7676896824
740.2058710877
716.81278073615
1953.0833276689
5001.5564052849
5392.9627020774
5523.7521055067
5613.7213430687
5676.7219653813
5714.7849272067
5707.7281930728
5649.9006649779
5587.2960626936
5528.2536671216
5473.5630746439
5427.7376708475
5396.9757816502
5376.5909336386
5374.7269222698
5389.5248067744
5419.0496933156
5462.0713440665
5516.207740323
5578.5450596607
5646.1904323737
5716.4792496554
5787.0632194288
5855.9568852657
5921.5961493634
5982.9831834899
6039.6493258736
6091.8177127766
6139.4439574326
6182.8161074316
6222.8881432913
6260.3636875628
6304.9570912704
6338.315706579
6370.3578540229
6401.3880908097
6431.8129494395
6461.5378320174
6489.8614566343
6516.1429609135
6539.4832643276
6559.0304311018
6574.1275708108
6584.5981356895
6590.3643948314
6591.9401876558
6587.2202889746
6578.3618334225
6565.3692279102
6549.6554991487
6531.9044477432
6512.6728398342
6492.8770168352
6473.5696501739
6453.8108484705
6434.9569339747
6416.3136601223
6397.7070646522
6385.0205256738
6368.7665893255
6389.5486231855
6448.0891580715
6563.1823207657
6719.0328790969
6831.3486981726
6871.3515356448
6849.5448493306
7460.9016837651
197588.52299815
176259.85874747
166021.06370784
155460.49043173
145829.06413447
136549.10106447
126774.38395152
116935.73744534
106972.27501843
96530.098515987
87480.211468413
77924.828671476
68621.125635829
59919.13405226
51921.568081754
44822.727125315
38624.244703062
33277.512265049
28723.976831636
24876.311225985
21624.58442832
18869.885249143
16551.479350794
14589.371996861
12918.322209364
11491.816386213
10270.70733258
9217.8542254488
8307.2456764124
7515.5586239241
6824.4130433318
6218.0971973354
5684.5359166281
5213.1259832125
4794.3291117182
4421.6818204211
4088.3900641963
3789.7697211813
3521.050903331
3278.8042228002
3059.5934914609
2860.7566198994
2680.0679421942
2515.1582400872
2364.650127239
2226.5894561017
2100.1071493935
1983.5594364442
1876.2731334641
1777.088667882
1685.3586440565
1600.3332187207
1521.3420057592
1447.8674776885
1379.3920953308
1315.5496831188
1255.9093099144
1200.1121442376
1147.8277705839
1098.7692433283
1052.6803050673
1009.3273417747
968.50205071595
930.01610967635
893.70012051852
859.39953681644
826.97439427357
796.29590508022
767.24683766626
739.7211625628
716.49391432233
1971.9130496955
5002.3072705522
5390.567938994
5520.0750890154
5609.2280769702
5671.6684057433
5709.320855951
5702.1999026914
5644.4877021907
5581.7829478973
5522.9060911607
5468.4439321056
5422.7188476435
5392.3441555129
5371.9641330846
5370.1870296749
5384.7084036857
5414.4600181378
5457.6027053602
5511.8401866958
5574.3073705412
5642.1142879311
5712.592354324
5783.3747676169
5852.4659534826
5918.3083595851
5979.8830437894
6036.6492414707
6088.8506110688
6136.4679345347
6180.1162941409
6220.585629087
6258.4445307351
6303.4234704258
6337.0644738372
6369.2770009208
6400.4041888268
6430.8670194022
6460.49640722
6488.6194013546
6514.6190264703
6537.6505370319
6556.8702117068
6571.5953195324
6581.6250794813
6586.8991598549
6587.9766299653
6582.6253106677
6573.4747515567
6560.4445759204
6544.881983444
6527.3475368476
6508.4971915863
6488.8991436268
6469.7205473856
6450.070180795
6431.2752079585
6412.7271148512
6394.0600943374
6380.9309406561
6364.0745986338
6384.2429179201
6442.2845420242
6556.2740959924
6708.1998430125
6822.5938835949
6862.567187148
6848.6029556455
7477.8572268757
171117.35263966
151338.54786029
140004.70801975
131094.53725651
123418.10973183
116058.26793445
109109.49079626
102208.96672882
94978.940336955
87553.465592767
79761.208435635
71762.763146692
63870.449445499
56315.961152988
49274.11241253
42852.899233463
37160.977910965
32205.433775594
27931.659995754
24276.440530708
21169.540408452
18537.258889377
16289.845051221
14382.171215297
12757.074969188
11365.94771619
10167.799311831
9134.7926981153
8239.4294864039
7460.0618913321
6778.0100761808
6179.8363022968
5652.1153709856
5185.6045747405
4771.0868838543
4401.9250136073
4071.4187709729
3775.2882196331
3508.5555323003
3268.0323643295
3050.1504778494
2852.6821406599
2672.8259714771
2508.9144282295
2358.9869798434
2221.6873143619
2095.6275005864
1979.5874592911
1872.6839384307
1773.8406209282
1682.4414542929
1597.6309866359
1518.9162886317
1445.6654045387
1377.4073976384
1313.7167049595
1254.2079270803
1198.5390894696
1146.3758366781
1097.4301905649
1051.4390187856
1008.1738559803
967.43146358436
929.02547998551
892.78369952328
858.55098914631
826.18912533117
795.57065192337
766.57531167162
739.09857232944
716.09235305843
1995.8493676524
5003.6202106017
5387.5795859255
5515.3820993071
5603.4180560328
5665.1158955666
5702.207944425
5695.043007594
5637.4884488591
5574.6020172674
5515.9012183731
5461.7065175052
5416.1254021271
5386.3344900378
5365.9852482536
5364.1549227687
5378.361841802
5408.1399485411
5451.3465320495
5505.6598863296
5568.2562173873
5636.2337718336
5706.9114567617
5777.8937407816
5847.2179752739
5913.3269713315
5975.2384548528
6032.4447358292
6085.1598567377
6133.3532044985
6177.5484544633
6218.4843524001
6256.7685722098
6302.1806459419
6336.1141987502
6368.5051016311
6399.7658810628
6430.3063023688
6459.8688644331
6487.811869803
6513.5292261626
6536.237919751
6555.1116530367
6569.4474346921
6579.0146714213
6583.8008508552
6584.4076712408
6578.5177336429
6569.1671632195
6556.0895779405
6540.6812646947
6523.3575888403
6504.7926966249
6485.35707958
6466.3342862824
6446.8049515943
6428.1288105415
6409.5584371005
6390.7917922526
6377.0377555968
6359.7023276944
6374.5744066876
6431.4578623763
6545.3887297646
6698.9545548545
6812.7337086233
6853.3458591353
6845.3069304604
7490.3430831988
103593.0294816
99970.765403799
98717.564267483
98581.444585453
97290.208348827
94930.459278568
91599.872542496
87826.104656419
83070.978448211
77586.213901657
71551.484481842
65233.870527358
58763.051152521
52370.354754516
46276.624671821
40622.591342108
35502.713753508
30962.18293414
27000.385137031
23577.51451313
20638.038594231
18122.720023535
15979.41087009
14138.659999479
12562.594043422
11209.7577459
10045.393110624
9034.4202368497
8156.72255936
7391.9635075448
6722.3586074318
6132.6418691453
5612.7208860363
5152.2913202058
4742.881322339
4377.6229846716
4050.984930971
3757.5829634723
3493.3347822309
3254.7764064333
3038.7816856692
2842.6513963664
2664.0439893888
2501.17682094
2352.1425330955
2215.6198541633
2090.1361298882
1974.7414688764
1868.2757624946
1769.8990980914
1678.8218545587
1594.3509418953
1515.9326687017
1442.9492123782
1374.9474329785
1311.4554543741
1252.1318428636
1196.6231527491
1144.6029365309
1095.784106723
1049.9126644274
1006.7643118788
966.12856389646
927.81638520427
891.66126414987
857.51345040639
825.2321908976
794.68558296328
765.75433793432
738.33639539616
715.62033326715
2025.033114726
5005.9059380951
5384.1467323715
5509.7771566185
5596.3741474064
5657.0823448218
5693.4378645474
5686.2621928733
5628.9337816548
5565.7852784369
5507.261579839
5453.3715646821
5407.9890056217
5378.730405425
5358.5205626198
5356.6965947981
5370.769642648
5400.6694676889
5444.0672715147
5498.5868129445
5561.4283349897
5629.6811581042
5700.6571894338
5771.9363528543
5841.5611171765
5907.9672694491
5970.1663843298
6027.6640180404
6080.6682862594
6129.1924934939
6173.8354233012
6215.2532570087
6254.0855712216
6299.9556515212
6334.3946933779
6367.1095716275
6398.6421705274
6429.3895260744
6458.9472142212
6486.7179826602
6512.0956355554
6534.3686016132
6552.7329596887
6566.5048352618
6575.4469004985
6579.6063965362
6579.5079124382
6573.0104698956
6563.4076732704
6550.3205770493
6535.1312916938
6518.109392706
6499.9381479406
6480.7706716412
6461.9572392376
6442.6580046673
6424.1765728501
6405.6351187912
6386.6999072926
6371.9529204071
6354.8455889066
6364.9687706963
6420.0073859861
6532.7962897149
6684.6359471914
6800.399315032
6844.0020040159
6840.5369636108
7499.5233699931
10082.098025115
46036.327933761
60012.151762211
68497.910307672
73740.641729853
76072.679409228
76061.984466543
74598.899305274
72074.382107767
68658.002873985
64541.560410132
59873.581518935
54822.177458273
49590.067691285
44391.748620068
39413.691835533
34776.678067523
30570.136872228
26826.684648004
23541.610544596
20685.920061343
18220.083092441
16095.787502986
14273.451189066
12699.9222776
11339.566007149
10166.841663092
9150.673412866
8265.1397802481
7489.9754670965
6812.0408688058
6215.9895072889
5688.8401534522
5221.2875419856
4806.2122823217
4435.9236153567
4104.1388437476
3806.3134270144
3538.297769443
3296.1365275533
3076.7792940967
2877.6765791535
2696.4776406209
2531.1033509511
2379.8019446576
2241.2163558732
2113.9149532509
1996.8074490514
1888.7444561449
1788.9562906949
1696.5818540514
1610.9426005993
1531.3983857436
1457.3936065282
1388.4896713668
1324.1863683588
1264.0959392618
1207.8470027547
1155.1505799178
1105.7196332541
1059.286580484
1015.6138184582
974.48896606119
935.72990063646
899.16485243028
864.63658630711
832.00023617054
801.12496842963
771.88563586791
744.15414396272
717.6277875817
1181.2489118582
4690.4280507881
5335.870626992
5477.301562577
5569.5675398861
5634.8872299957
5676.9502079271
5683.2557379921
5635.2913048387
5570.6562088189
5511.2553960267
5456.2327724292
5408.5651306472
5369.7347570769
5349.6253218841
5347.8000646473
5361.820684869
5391.8477331803
5435.4879845697
5490.2840097503
5553.4366568214
5622.0285203493
5693.3519029032
5764.9713554387
5834.9405100654
5901.7058225357
5964.2934681745
6022.2425572102
6075.7296336942
6124.7694636464
6169.9251041823
6211.8094282796
6250.9933073696
6295.5909587801
6330.6475610142
6363.7832408633
6395.7005008642
6426.7957567205
6456.3104408922
6483.7626431207
6508.5143109058
6529.960475738
6547.3814129669
6560.1587863917
6568.018158173
6571.1700098607
6569.7656933308
6562.4493453577
6552.3656944087
6539.1957067107
6524.1567563435
6507.4576514676
6489.7037639229
6470.8757630308
6452.3562133558
6433.2876291621
6415.0198900171
6396.6243307308
6377.9467161905
6360.3632444757
6343.9139102647
6343.7856080975
6393.1048080696
6504.8276281518
6657.1181846873
6776.9685341194
6828.17285204
6828.3368701677
7507.0943433653
7931.235044414
14661.924179541
25070.752979452
33682.342197548
40422.15070017
45360.297452787
48630.081750235
50575.817946739
50750.946710353
50038.610529309
48516.812731784
46240.636572707
43412.489503962
40173.484855082
36716.380223557
33217.376198523
29815.476359057
26609.181147894
23668.010070885
21019.919259503
18666.057217785
16593.105890449
14777.660612367
13192.078421296
11810.789353531
10608.899563962
9558.749121878
8636.6340675075
7830.4494633924
7122.3595275486
6498.5353459192
5945.277366022
5454.9894169987
5019.0056621355
4629.9183315076
4280.8638360566
3967.7247392653
3685.9832076852
3431.6814136687
3201.1634014027
2991.9391798396
2801.6931251236
2628.1821470677
2469.4552556504
2324.017222199
2190.5823937203
2067.877121344
1954.750769262
1850.2616098908
1753.6257597644
1664.1027748209
1581.0069283224
1503.7360000098
1431.804111863
1364.7479543594
1302.1555221364
1243.6155690719
1188.7777231853
1137.3532745929
1089.0746843391
1043.7003885774
1001.0059243119
960.79184025762
922.87711586351
887.09425520356
853.28936294685
821.3214622907
791.06213396099
762.39646959125
735.20625883809
713.798363141
2152.4230061908
5018.9243790174
5371.7328099894
5488.1757273358
5568.6013159227
5624.7629431915
5657.52290722
5650.7493683317
5594.7557866561
5530.310339395
5472.0183796889
5419.1196723342
5374.5284228039
5347.4288818585
5327.5670152081
5325.975638849
5340.2276050561
5370.7280464662
5415.1454835563
5470.8203647801
5534.8991925108
5604.4415041758
5676.6874174754
5749.1870732634
5819.9931508029
5887.5742762738
5950.9629853771
6009.7876747331
6064.14488325
6114.1071035006
6160.2012772661
6202.9782146119
6242.8755553782
6287.9088196641
6323.7515127779
6357.6570232865
6390.4899617492
6422.0065530847
6451.5508280406
6478.5681226392
6502.4216438774
6522.66195993
6538.6768922753
6549.9953166316
6556.2796886661
6557.9872441949
6554.442596185
6546.4742182859
6535.7942693753
6522.5737947788
6507.594150201
6491.2811062888
6473.9844249118
6455.7026001647
6437.6852037586
6419.0795917194
6401.0653212398
6382.6021488441
6364.399418901
6343.1088760149
6326.8100668923
6315.3827648261
6354.2620125106
6462.0892084369
6611.8205404022
6734.0508233841
6798.7028927342
6800.4500190779
7509.839960325
7675.4531585444
8423.1247571335
12965.793377412
18432.210609665
23478.257739512
27773.525418216
31241.64323348
33839.159463356
35640.584135175
36541.323458915
36412.79069021
35795.713059108
34573.551300146
32816.617986934
30694.167893086
28354.899455216
25935.260061245
23538.305129376
21246.074582516
19110.536213125
17159.077347276
15399.791082615
13828.914465039
12434.689536997
11201.432198704
10113.480386759
9153.9799663039
8307.3956873039
7560.0225040585
6897.0222478106
6308.890109462
5786.7110190923
5321.3336965385
4905.9657515169
4532.7895348418
4197.702673223
3896.19332251
3624.1953127338
3377.8495472957
3154.1476499055
2950.9518440862
2765.7476899265
2596.4983951134
2441.3370316198
2299.1417574087
2168.4378369769
2048.1002438119
1936.982417112
1834.2582374976
1739.2049162428
1651.0562813735
1569.1658211401
1492.9480222781
1421.9691412199
1355.7649679954
1293.9156586299
1236.043034411
1181.8119186633
1130.9484065943
1083.1740510267
1038.2455985582
995.95301692393
956.10543096749
918.53624083645
883.07592537171
849.5688745008
817.87418045981
787.86610094353
759.42828252762
732.42274384962
712.55145444528
2273.5562618601
5035.1707509929
5362.7661326047
5470.7573179554
5545.5515584231
5597.3720477771
5626.6188836997
5620.2502622187
5565.9877240455
5500.2296908455
5441.4832025185
5389.0867502958
5345.1035311092
5319.6164208428
5300.0930903936
5299.0810008015
5314.0054427436
5345.3264934301
5390.9050974767
5447.8672988076
5513.2513952074
5584.0656338942
5657.5079873304
5731.1070783024
5802.9163037166
5871.4352914164
5935.7118717411
5995.4721178278
6050.702571574
6101.5476338658
6148.5028908481
6192.1139074054
6232.8213925098
6278.5458666912
6315.1809880412
6349.8612976495
6383.4832385537
6415.3091152807
6444.7434499289
6471.2004320559
6494.0304194565
6512.9082506208
6527.3480588794
6537.1376589767
6541.8589496068
6541.9784595553
6537.0308338097
6528.6729251705
6517.5689192075
6504.4671848364
6489.3407146745
6473.3196501691
6456.2315502383
6438.1912229743
6420.4722219415
6401.7440895437
6384.1330921753
6365.1790747817
6346.1345700575
6322.3841111641
6307.6264616102
6285.292195228
6308.2670466889
6405.1407165524
6550.7362577652
6674.9811636533
6751.0767363723
6765.9995380989
7496.6016745434
6996.6661750847
6982.6999709532
8430.5809457493
11595.27608514
15072.218079393
18351.583816214
21260.368858321
23708.411472602
25649.667142446
27015.23413578
27768.300271565
27756.590698977
27441.655399829
26616.85733458
25433.839033119
23960.35541647
22309.825175291
20584.508860959
18858.320307788
17187.273452266
15612.099833319
14155.177010853
12824.693224471
11621.461056368
10540.278432902
9572.6421318226
8709.402855629
7939.9413481917
7253.9221842448
6642.0185352322
6095.837040754
5607.2683118366
5168.7666766676
4774.8514350285
4420.8205557862
4101.8057400359
3813.7522481501
3552.2358882236
3314.9026740056
3099.3360852785
2902.8755407515
2723.4452672153
2558.8784588464
2408.1411894417
2269.6358547934
2142.1814881755
2024.5287135774
1915.7620688772
1815.2106280755
1722.0042638534
1635.5075920619
1555.0148291312
1480.0841079335
1410.2554307568
1345.0649889242
1284.1186388886
1227.0312524443
1173.522164213
1123.3162409975
1076.1436947976
1031.7671527831
989.96744626804
950.5694922029
913.40718752436
878.31838508397
845.1539837739
813.77446167538
784.04716774
755.85678687156
729.10632120859
711.2859564028
2439.0013449908
5058.6843976076
5354.8329717133
5452.3131366683
5520.1699222098
5566.6254321014
5591.602754794
5584.9190460466
5533.6491273664
5466.3359281197
5406.3314849547
5354.0202346649
5310.6044800446
5286.6192456954
5267.7861828099
5267.6260897428
5283.7117574231
5316.2479065108
5363.4024056002
5422.0650978034
5489.1299103745
5561.5286570709
5636.4176998153
5711.3108786593
5784.2683299717
5853.8093256342
5919.0130007146
5979.6996599656
6035.7567130049
6087.3910012502
6135.0942327171
6179.4319069714
6220.8730518147
6266.9788932076
6304.2988591151
6339.9010218637
6374.0587669761
6406.1591409386
6435.4504079313
6461.3290911187
6483.084537015
6500.4771828256
6513.1571013051
6521.2542638344
6524.4289765215
6522.8862527449
6516.8896359306
6508.1300807576
6496.362098303
6483.2927301893
6467.6336621939
6451.85348281
6434.7464556239
6416.9601172252
6398.1429952614
6378.8720482347
6361.1675453369
6341.2680347419
6322.3532102733
6296.303940613
6283.6598929747
6259.0534481776
6266.4881524388
6345.8080383795
6480.4830000288
6596.9069383024
6681.6458885668
6728.0956191235
7441.2176287958
6357.0122868729
6354.0511650384
6582.6195068192
8167.1706589779
10479.603424019
12882.235520088
15168.571336556
17232.470816009
18982.530984629
20359.706877154
21418.840064802
21939.24579904
21917.32043151
21693.936638907
21062.167782955
20192.738494039
19112.41624182
17897.226301799
16626.092719714
15346.652928231
14100.681705618
12916.395143732
11809.402606829
10788.008916378
9854.1151044564
9005.8057819159
8238.8956857274
7547.7712399124
6925.6774331078
6365.8877227695
5862.0506230483
5408.2907833199
4999.3393722581
4630.3915591218
4296.6826968792
3994.2678955781
3720.1655066993
3471.0682324345
3244.3266359335
3037.632778454
2848.277552643
2674.9305868849
2516.1125592247
2370.1794663815
2235.9376578887
2111.9045908924
1997.3400511429
1891.4245275473
1793.2651609119
1702.2270720226
1617.5090732608
1538.6843713295
1465.2569372568
1396.7411522464
1332.7212405199
1272.7700036155
1216.6217525349
1163.9713339964
1114.5241168979
1068.042501307
1024.2825560502
983.05627094954
944.19311613203
907.50486085285
872.84224147306
840.05797937486
809.01423627736
779.60048824775
751.70812876864
725.22450511313
711.12644021319
2661.0860763813
5089.4005578555
5348.7605583813
5434.0424514884
5493.7311669915
5533.8884518654
5553.8872663155
5546.1435090075
5498.8179082448
5430.1719748859
5367.8650152673
5314.9691035775
5271.9325376245
5249.3277249888
5231.4485727044
5232.3984175153
5250.0950125299
5284.3234664056
5333.4495199899
5394.21140493
5463.3122457122
5537.5813267198
5614.1336780615
5690.48668768
5764.6864714068
5835.2856808798
5901.408633568
5962.9526080103
6019.759434586
6072.0735855947
6120.3999533181
6165.3208048747
6207.3456443049
6253.7911240072
6292.1356974636
6328.266543084
6362.8510703649
6395.0419859758
6424.0283791612
6449.1560773682
6469.6646587724
6485.3915685521
6496.1891365646
6502.4430310488
6503.9043829004
6500.8205697477
6493.8483308868
6484.5071746837
6471.5080575542
6458.3279817592
6443.2082659568
6427.1361993635
6408.3261444883
6390.1974426951
6370.6189473772
6352.2980234071
6333.319701215
6314.789713889
6296.0169465773
6268.6734881912
6251.0809222267
6228.3916705484
6229.1391358864
6280.0285964569
6402.1489604303
6507.9664390197
6587.8322609903
6645.5183811415
7334.4548544825
5845.4016722067
5813.4209752663
5772.9420999254
6361.3943503324
7797.5306021905
9533.1527729586
11290.285805924
12962.086406115
14438.602650007
15701.764602973
16705.053768224
17369.046333384
17706.002448685
17813.08126369
17496.595078888
17018.694552006
16342.500099406
15516.344864629
14599.195884426
13638.913218864
12670.172224532
11721.287051329
10813.133361025
9957.5436554518
9161.5892917607
8427.5439069492
7754.3808680131
7140.1687062015
6581.6533392055
6074.434146239
5614.1180924878
5196.5325258312
4817.7100990394
4473.9138764538
4161.5367480143
3877.4135982127
3618.6694732582
3382.4587195922
3166.2838130108
2968.6052312919
2787.5156400418
2621.396344307
2468.750805833
2327.8870901795
2197.9217913597
2077.9829519967
1966.9956010713
1864.1831769109
1768.7019604192
1679.8498331691
1597.2788010652
1520.3404508992
1448.5868621002
1381.520093039
1318.731325275
1259.9810476323
1204.9010655162
1153.2075395397
1104.6253339122
1058.8964138102
1015.8417904883
975.27061960302
936.98731015862
900.83646861475
866.64222206095
834.27664576921
803.63013608932
774.57947512363
747.02106148791
720.84500266594
712.87818081059
2953.2053364019
5127.5577721944
5345.4756454653
5416.933015913
5467.4542164189