/*--------------------------------*- C++ -*----------------------------------*\
| =========                 |                                                 |
| \\      /  F ield         | OpenFOAM: The Open Source CFD Toolbox           |
|  \\    /   O peration     | Version:  2312                                  |
|   \\  /    A nd           | Website:  www.openfoam.com                      |
|    \\/     M anipulation  |                                                 |
\*---------------------------------------------------------------------------*/
FoamFile
{
    version     2.0;
    format      ascii;
    arch        "LSB;label=32;scalar=64";
    class       volScalarField;
    location    "8e-05";
    object      pTsat;
}
// * * * * * * * * * * * * * * * * * * * * * * * * * * * * * * * * * * * * * //

dimensions      [1 -1 -2 0 0 0 0];

internalField   nonuniform List<scalar> 
109340
(
388763.64847805
387234.78992755
384314.25935721
380804.30959189
376962.61647738
372999.67657599
368997.42767085
365006.03879626
361113.11942112
357308.70465569
353538.69732153
349799.49085366
346094.64378813
342426.60414047
338797.09005891
335207.62423097
331657.6273115
328144.72202211
324664.12405078
321209.13603339
317769.72510674
314334.97842098
310892.48135246
307427.37025539
303919.83536845
300344.14544278
296665.95879454
292839.07136243
288800.0429083
284459.81183515
279690.18395373
274300.94981859
268004.64295527
260375.48638841
250824.3615563
238617.50005308
389005.65137329
387033.94713502
383756.62138087
380014.93461799
376070.53157757
372103.71661147
368166.57483826
364269.82000643
360409.81528762
356589.79161123
352804.16670784
349053.87605846
345341.37236205
341668.18583086
338035.31340814
334442.35890525
330889.35298491
327373.36459034
323888.80434735
320427.87356181
316980.32344442
313534.99569833
310079.11067274
306596.97728155
303067.64904345
299463.54145355
295747.82282064
291870.58065074
287762.75455508
283326.58903885
278419.58353445
272825.93799548
266206.88016569
258038.89058646
247466.72577684
233574.13072073
389879.4642022
387588.39649981
383974.32047533
380141.54012694
376228.83054677
372316.22964842
368396.46677691
364481.81708524
360597.16279446
356750.15858191
352939.82787392
349166.7445759
345432.74351924
341739.33832233
338088.07505962
334480.03700089
330914.94274487
327389.95925004
323899.0187895
320433.94812058
316983.7139179
313536.96960628
310080.77981049
306599.27136247
303071.33486207
299469.14199106
295755.73077354
291881.07984115
287775.97328679
283342.01650236
278435.12567049
272833.28464197
266169.59339657
257832.53795389
246727.52238167
231103.43273189
391099.26065228
388324.80550386
384520.69399537
380573.96605737
376580.77516526
372582.42215316
368593.39552207
364627.94473118
360702.45660497
356822.60013139
352987.92181077
349197.88090757
345452.6358831
341752.48749731
338097.66969321
334488.14267117
330923.15482452
327399.4749753
323910.12008061
320447.14139006
316998.0574374
313552.07331819
310096.59173401
306615.74372764
303088.96084549
299488.30970431
295776.91653714
291904.78172807
287802.52249717
283370.84165582
278463.71507053
272853.59209352
266136.71562953
257588.95132252
245717.48336624
227168.28529093
393030.72115835
389401.1393762
385027.86112344
380805.44815497
376700.80112887
372661.74393026
368659.21984309
364695.19906233
360773.25909186
356893.82586287
353058.51491977
349267.77471889
345521.94671214
341821.47144175
338166.82958166
334558.45726956
330996.60839177
327479.25581767
323992.66901926
320535.59294176
317090.28505521
313647.49182181
310195.13912415
306716.90672165
303193.28165519
299596.10616029
295888.59715127
292020.73967948
287922.81694259
283494.41430089
278583.80533116
272971.02204571
266204.61434012
257451.65497936
244718.90906134
221712.54511229
396659.57190044
389973.63910252
385147.87397575
380835.70444443
376725.83486923
372695.4251431
368703.33092496
364742.15126309
360818.142645
356932.82082004
353088.90432405
349287.25823519
345528.43038968
341812.92605538
338141.31300314
334514.29296842
330932.86357915
327403.38494957
323940.94047512
320478.43165926
317025.52021708
313575.68856876
310117.01446267
306633.78218848
303105.36701485
299503.91686707
295792.39694376
291920.77280424
287819.37882555
283387.35430613
278462.41757871
272852.57633797
266061.39760438
257209.51435906
244008.11781373
216159.01743426
223903.22571498
209199.24956289
196909.49455846
186997.52286196
178069.4363696
168554.36690189
158048.76520549
146369.80460622
133685.74403608
120318.46646615
105952.56032273
93158.578571384
80653.42374831
69145.08071438
59079.642924414
50309.739747883
42840.859300722
36531.680222057
31233.469743012
26827.509517144
23170.893720654
20110.901089086
17548.788349168
15401.489716305
13577.956775484
12032.464989356
10749.817378192
9597.0157263803
8633.4700945741
7799.227983831
7050.4517646406
6434.6041488645
5851.68789892
5378.4668097641
4921.5350534823
4549.7313776185
4187.0327233935
3890.0720700473
3598.7925957453
3358.0982460054
3122.4581434457
2923.7603496088
2733.1668129259
2565.5520070061
2411.1854316781
2267.0208202772
2139.847800663
2016.7330250435
1909.4961844527
1806.5950124587
1712.7307166822
1625.4646453813
1544.6057794568
1469.5131881388
1399.6229620569
1334.4423168479
1273.5593732588
1216.6132284116
1163.2870403197
1113.2829737887
1066.3254073216
1022.1679699751
980.5975272982
941.42352141627
904.46950291355
869.57190024886
836.58652471979
805.38691961527
775.85069328132
747.85191522111
721.18114427005
1122.6482312452
4670.9921315158
5359.8042831104
5511.0800274484
5609.5589630504
5678.5794797209
5723.054906408
5728.3685165452
5678.5217764923
5614.1729437387
5553.1054364835
5495.4896151527
5446.0118400537
5402.0844317521
5381.2233491454
5379.2521331654
5395.1361697991
5423.8418807961
5466.4452163659
5520.1850901909
5582.181428034
5649.5191230928
5719.534307684
5790.0155108987
5858.7730173784
5924.3015952663
5985.5542382551
6042.037461631
6094.1257559808
6141.7466248738
6184.9199310277
6224.5626757969
6261.2472156404
6304.9305958257
6337.60352063
6369.2601772957
6400.0437801217
6430.3358891737
6460.1827656537
6488.8236701996
6515.5582255052
6539.3838839961
6559.4045457341
6575.0081406966
6586.094925911
6592.5702342575
6594.8485934282
6591.799258943
6583.7549611784
6570.6969781833
6554.5730025965
6536.6344678027
6516.4456810464
6496.0980969994
6476.4551142801
6456.5973986383
6437.7240522667
6419.0001074799
6399.9977937267
6389.1009138443
6377.4000269842
6401.8104629116
6459.3015063567
6568.4529689661
6728.0079757736
6852.3183189124
6885.1328459291
6855.4037135916
7367.1652034965
216349.1406935
200822.28406276
189175.90868857
180076.78258503
171118.99957063
161059.39031689
150121.15257684
138294.38339026
125804.97712615
112897.46130114
99915.12136957
87129.90972309
75678.486675537
65188.399516077
55796.054939721
47662.817895983
40686.982164872
34781.313250421
29829.400728445
25687.097729874
22226.518238689
19334.939154351
16908.8037657
14863.739379862
13134.234585062
11663.956988393
10406.978594517
9329.3203464466
8396.3108054056
7589.8638462303
6884.9948309786
6269.7054373438
5727.7827514632
5249.414577453
4825.4721963913
4447.9178547469
4111.0274876586
3809.0491307898
3537.7421267131
3293.191635034
3071.9299067818
2871.7939124395
2689.3474852086
2523.7299820835
2371.8167972353
2233.4126038874
2105.8099918328
1988.9971342966
1880.9818094713
1781.5168409662
1689.3058703639
1603.8470254516
1524.5134260525
1450.7391393708
1382.0863497373
1318.0315355755
1258.2034486274
1202.2229316666
1149.7783188895
1100.5728746148
1054.3518932128
1010.87961031
969.94555185421
931.35657907089
894.94181934109
860.54765532347
828.03570693851
797.2777850147
768.15383525282
740.55872405173
717.06785945128
1941.3146056829
5000.4223190037
5394.6847238128
5526.3668755045
5616.8995322403
5680.2454100621
5718.643604452
5711.6239059658
5653.7427513758
5591.1837392812
5531.9566577102
5477.0514829311
5431.1036675445
5399.6221609346
5379.1555391306
5377.7630457078
5393.3290979342
5422.945047123
5466.0277574724
5520.1461872519
5582.4203258862
5649.9606957872
5720.1134152933
5790.6323737961
5859.3593742649
5924.8016841582
5985.941747461
6042.1405259226
6093.6859184601
6140.4811506513
6182.8302380257
6222.0413321644
6258.5493702388
6302.1481467695
6334.8719628059
6366.5101041178
6397.2266715431
6427.3960156347
6456.9684494866
6485.2094617319
6511.4556488698
6534.7524164072
6554.2583993564
6569.3711531386
6579.9646813219
6585.9390498268
6587.82707916
6583.9383036356
6575.1948299736
6561.818369066
6545.752951807
6527.8179493349
6508.1232633156
6488.1333783163
6468.8892681551
6449.1165966738
6430.4856578933
6411.7844968621
6393.0744736011
6381.6066080179
6368.0257407449
6389.4979524932
6447.4157648184
6559.1229699001
6718.8811828568
6840.712971852
6882.8304220585
6855.9276006313
7394.6973659943
209827.17906935
191519.4448643
180936.45552727
170403.30976344
161302.6925202
151536.51571386
140778.68196168
129506.88481732
117889.60029963
105762.93973485
94436.954549346
83214.620503849
72635.065010308
62913.545575575
54161.542486681
46459.462241542
39806.063839591
34149.924258729
29374.718873022
25346.862601737
21969.291573439
19141.508987519
16759.389504468
14747.217483438
13043.918478603
11593.090338938
10349.740924724
9282.205462016
8360.3566440693
7558.521330415
6860.4517223828
6247.7310005984
5710.1983521012
5234.0742157086
4812.8019975589
4436.772530489
4101.7901176243
3800.8383207888
3530.9638007404
3286.9577506744
3067.0066204136
2866.9856043391
2685.6689894509
2520.0114391481
2368.9773111833
2230.4957638364
2103.4650143382
1986.7048259293
1878.975270659
1779.6606026146
1687.6181408984
1602.4238144867
1523.1910838081
1449.537682184
1380.9418515415
1316.9765823371
1257.2340361601
1201.3339227198
1148.9562313401
1099.8095678528
1053.6432023402
1010.2226632918
969.33551781861
930.78881633003
894.41414434336
860.0595903727
827.58549901575
796.86105501965
767.7676859509
740.20586739209
716.81284682444
1953.0801812318
5001.5570940136
5392.9627133301
5523.75211503
5613.721352418
5676.7219486094
5714.7848951881
5707.7282495172
5649.9006396941
5587.2960086424
5528.253615687
5473.563038939
5427.7376593305
5396.9757716029
5376.5909606498
5374.726950513
5389.5248339667
5419.0497153628
5462.0713600237
5516.2077500357
5578.5450640259
5646.1904332186
5716.479249095
5787.0632200332
5855.9568880741
5921.5961549119
5982.9831909784
6039.6493340293
6091.8177209709
6139.4439627594
6182.8161163133
6222.8881496436
6260.3636892588
6304.9571006769
6338.3157036757
6370.357849215
6401.388086251
6431.8129467724
6461.5378319133
6489.861459786
6516.1429674216
6539.4832738015
6559.0304431477
6574.1275850102
6584.5981510648
6590.3644100532
6591.940200726
6587.2202987708
6578.3618438532
6565.3692376541
6549.6555135181
6531.9044724462
6512.6728815843
6492.8770799548
6473.5697379212
6453.8109637092
6434.9570648305
6416.3138191213
6397.7072512444
6385.0207577231
6368.7668413463
6389.5490834092
6448.0896941674
6563.1829163658
6719.0332915636
6831.3483172694
6871.3507821687
6849.5434832462
7460.9002395039
197588.5229439
176259.85864817
166021.06339345
155460.53351185
145829.06043386
136549.10063201
126774.38377836
116935.73742327
106972.27500821
96530.098432195
87480.211322001
77924.828604271
68621.125665797
59919.133894053
51921.568002452
44822.727215423
38624.244636571
33277.512170741
28723.976738889
24876.311306632
21624.584276082
18869.885165455
16551.479297706
14589.371835378
12918.322141418
11491.816386825
10270.707159337
9217.8541648375
8307.2457814697
7515.5583623923
6824.4132410167
6218.0969120515
5684.5360414598
5213.1257726867
4794.3292466578
4421.6816580178
4088.3901749477
3789.7695567985
3521.0510095496
3278.8040566274
3059.5935734996
2860.7564570599
2680.0679918224
2515.1581244878
2364.6501309913
2226.5894084477
2100.1070980173
1983.5594396043
1876.2730434999
1777.0886812325
1685.3585669088
1600.3332154064
1521.3419572283
1447.8674536127
1379.3920688416
1315.5496532466
1255.9092852736
1200.1121181082
1147.8277486953
1098.7692229164
1052.6802879588
1009.3273272219
968.50203938525
930.01610116785
893.70011430514
859.39953166598
826.97438903639
796.29589919462
767.24683109049
739.72115651489
716.49397987606
1971.9098400257
5002.3079516397
5390.5679530444
5520.0750958199
5609.2280840058
5671.6683891883
5709.3208268618
5702.1999589813
5644.4876773234
5581.7828947091
5522.9060397418
5468.4438959116
5422.7188350328
5392.3441417093
5371.9641581672
5370.1870567956
5384.7084289456
5414.4600382237
5457.6027196444
5511.8401950008
5574.3073738507
5642.1142880394
5712.5923533529
5783.374767771
5852.4659558767
5918.3083645685
5979.8830505854
6036.649249294
6088.8506181197
6136.4679413502
6180.1163032587
6220.5856351926
6258.444532756
6303.4234803712
6337.0644698108
6369.2769943993
6400.4041816571
6430.8670134503
6460.4964031695
6488.6194000584
6514.6190282663
6537.6505418388
6556.870219118
6571.595328946
6581.6250894622
6586.8991692748
6587.9766369702
6582.6253146862
6573.4747567389
6560.4445818824
6544.881995558
6527.3475606493
6508.4972328333
6488.8992062792
6469.7206332283
6450.07029387
6431.2753367503
6412.7272659775
6394.0602671228
6380.931155123
6364.0748391366
6384.2433580427
6442.2850565648
6556.2746983197
6708.2002396993
6822.5934986699
6862.5665232853
6848.6016011688
7477.8557714035
171117.35255212
151338.54777999
140004.70767815
131094.51704958
123418.10938621
116058.26832393
109109.49078418
102208.96643649
94978.940310575
87553.465592377
79761.208320284
71762.763121055
63870.449401998
56315.96104319
49274.112372681
42852.899172347
37160.977782645
32205.433730275
27931.65986196
24276.440390467
21169.540237976
18537.258881175
16289.844978862
14382.171104159
12757.074905127
11365.94767635
10167.799241491
9134.7925807796
8239.4295299888
7460.0617917623
6778.0100189791
6179.8362576006
5652.1152607596
5185.6046060689
4771.0867948544
4401.925043444
4071.4186893521
3775.2882384637
3508.5554781927
3268.0323506227
3050.1504468751
2852.6820868665
2672.8259712397
2508.9143485
2358.9869947365
2221.6872228327
2095.6275041266
1979.5873847911
1872.683919981
1773.8405818317
1682.4414119144
1597.6309674782
1518.9162424142
1445.6653870232
1377.4073595913
1313.7166789968
1254.207898237
1198.5390635733
1146.3758144319
1097.430170549
1051.4390021316
1008.1738416116
967.43145207893
929.02547059635
892.78369173206
858.55098160834
826.18911717077
795.57064284384
766.57530229373
739.09856592984
716.09243396742
1995.8477914056
5003.6209058505
5387.5796116589
5515.3821073968
5603.4180615796
5665.1158795101
5702.2079189195
5695.0430638901
5637.4884251139
5574.6019664063
5515.9011674085
5461.7064811241
5416.1253890719
5386.3344719958
5365.9852718241
5364.1549480282
5378.3618654835
5408.1399671809
5451.3465451727
5505.659893883
5568.2562203886
5636.2337720838
5706.9114563686
5777.8937416669
5847.2179785007
5913.3269770548
5975.2384623906
6032.4447437603
6085.1598634911
6133.3532111071
6177.5484637067
6218.4843588061
6256.7685758719
6302.1806605863
6336.1141983037
6368.5050986059
6399.7658770614
6430.3062993201
6459.8688629074
6487.8118705149
6513.5292295524
6536.2379256624
6555.1116610343
6569.4474442611
6579.014680955
6583.8008593209
6584.4076766161
6578.5177369322
6569.1671680575
6556.0895858616
6540.6812806086
6523.3576180175
6504.7927437946
6485.3571485428
6466.334377093
6446.8050693636
6428.1289454815
6409.5585912599
6390.7919615234
6377.037959555
6359.7025532436
6374.5748247388
6431.4583824125
6545.3893450817
6698.9549609759
6812.7333636563
6853.3452039376
6845.3055823951
7490.3415925132
103593.02954186
99970.76533626
98717.564450421
98581.442258748
97290.211604566
94930.459473244
91599.872307996
87826.104449685
83070.978411166
77586.213876613
71551.484434973
65233.870539169
58763.05107308
52370.354688303
46276.624638057
40622.591253908
35502.713691912
30962.182873769
27000.385003933
23577.514413021
20638.038505907
18122.71987132
15979.41070104
14138.659870208
12562.594002747
11209.757660548
10045.393049026
9034.4201947083
8156.7224929206
7391.9635089956
6722.3584759891
6132.6418758233
5612.7207804451
5152.2913462828
4742.8812281374
4377.6229952235
4050.984852804
3757.582990492
3493.3347075856
3254.7764222015
3038.7816090018
2842.6514054683
2664.0439278296
2501.1768135564
2352.1424945263
2215.6198187034
2090.1361083519
1974.7414145647
1868.2757540322
1769.8990433318
1678.8218418547
1594.350900933
1515.9326418256
1442.9491828236
1374.9473973242
1311.4554280817
1252.1318105669
1196.6231282904
1144.6029133701
1095.7840876472
1049.9126479994
1006.7642976704
966.12855193251
927.81637472705
891.66125441006
857.51344015833
825.23217969081
794.68557087646
765.754326655
738.33638753528
715.62042318135
2025.0315036398
5005.9066387327
5384.1467733935
5509.7771694764
5596.3741528013
5657.0823297017
5693.4378426673
5686.2622498553
5628.9337597466
5565.7852293282
5507.2615299564
5453.3715286124
5407.9889922359
5378.7303825499
5358.5205847597
5356.6966182219
5370.769664752
5400.6694848763
5444.067283472
5498.5868196822
5561.4283375774
5629.6811583635
5700.657189297
5771.9363541498
5841.5611208413
5907.9672754514
5970.1663920429
6027.6640262536
6080.668292957
6129.1925025033
6173.8354341647
6215.2532646717
6254.0855719676
6299.9556697621
6334.3946911976
6367.1095667889
6398.6421645673
6429.3895204786
6458.9472094351
6486.7179791155
6512.0956334782
6534.3686010579
6552.7329600616
6566.504836255
6575.4469004463
6579.6063949649
6579.5079066863
6573.0104653141
6563.4076696144
6550.3205797022
6535.1313047809
6518.1094209716
6499.9381951039
6480.7707417077
6461.9573300487
6442.6581231957
6424.1767086157
6405.6352693928
6386.7000667341
6371.9531027306
6354.8457870867
6364.9691509688
6420.0078892504
6532.7968963124
6684.6363650311
6800.3990554411
6844.0013067996
6840.5356116664
7499.5219017861
10082.098056998
46036.327960353
60012.151820587
68497.910256727
73740.640855619
76072.679715506
76061.984501352
74598.899119664
72074.38204244
68658.002779761
64541.560361246
59873.581532003
54822.177427142
49590.067643521
44391.748549825
39413.691758545
34776.678020784
30570.136803059
26826.684539932
23541.610452072
20685.919975454
18220.082970997
16095.78738814
14273.451158964
12699.922206764
11339.565933747
10166.841587603
9150.6733616691
8265.1397088581
7489.9754228187
6812.0407879224
6215.9894665991
5688.84009547
5221.2875025032
4806.2122225934
4435.9235769039
4104.1388001822
3806.3134060911
3538.2977213755
3296.136512224
3076.7792358434
2877.6765694254
2696.4775873941
2531.1033478485
2379.8018988652
2241.2163411099
2113.9149176139
1996.8074172151
1888.7444362936
1788.9562521816
1696.5818415214
1610.9425621333
1531.3983658894
1457.3935737241
1388.489641239
1324.1863397315
1264.0959069593
1207.8469784995
1155.1505559314
1105.719614744
1059.286563933
1015.6138039637
974.48895311211
935.72988852062
899.16484055536
864.63657366327
832.00022229292
801.12495321063
771.88561939324
744.15412628101
717.62775508626
1181.2502169932
4690.4293189878
5335.8707175884
5477.3015834835
5569.5675494972
5634.8872219974
5676.9501860135
5683.2557977597
5635.2913001504
5570.6561665665
5511.2553467411
5456.232733128
5408.5651080676
5369.7347293137
5349.6253426423
5347.8000863766
5361.8207051083
5391.8477487389
5435.4879950504
5490.2840153507
5553.4366586127
5622.0285202985
5693.3519027955
5764.9713569672
5834.9405140388
5901.7058287864
5964.2934759132
6022.2425652272
6075.7296398668
6124.7694731192
6169.9251157296
6211.809436756
6250.9933225966
6295.5909927717
6330.647552914
6363.7832310531
6395.7004909111
6426.7957470814
6456.3104321013
6483.7626354935
6508.5143041908
6529.9604694102
6547.381406707
6560.15878005
6568.0181506841
6571.1700006922
6569.7656805754
6562.4493362682
6552.3656892329
6539.1957111824
6524.1567743756
6507.4576870034
6489.7038190227
6470.8758423486
6452.3563119912
6433.2877545571
6415.0200353309
6396.6244836591
6377.9468597024
6360.3634166207
6343.9140877886
6343.7859086792
6393.1053139576
6504.8282403149
6657.1186272824
6776.9683622088
6828.1721471353
6828.3355426992
7507.0919913765
7931.2350421774
14661.924154486
25070.75291725
33682.342162018
40422.150829553
45360.297513236
48630.081713115
50575.81800488
50750.946642393
50038.61053707
48516.812804463
46240.636617504
43412.489517924
40173.484806417
36716.380162042
33217.376149314
29815.476325946
26609.181072594
23668.009997431
21019.919166282
18666.05709239
16593.105801953
14777.66054383
13192.078345981
11810.789287957
10608.899580148
9558.7491044775
8636.6340239632
7830.4494078557
7122.3594882016
6498.5352959888
5945.2772948684
5454.9893608322
5019.0056189105
4629.9182835355
4280.8638012239
3967.7246958749
3685.9831612564
3431.6813608775
3201.1633532869
2991.9391381925
2801.6930775552
2628.1821195035
2469.4552151821
2324.0172021525
2190.5823579213
2067.8770971921
1954.7507404055
1850.2615854034
1753.6257431392
1664.1027508407
1581.0069142666
1503.7359749941
1431.8040903845
1364.7479279911
1302.1554938929
1243.6155454345
1188.7776993311
1137.353257112
1089.0746679989
1043.7003745689
1001.0059106276
960.79182589693
922.87710070852
887.09423839266
853.28934453478
821.32144247487
791.06211425904
762.39645112869
735.20625338533
713.79843184838
2152.4220025664
5018.9250141513
5371.7328545241
5488.1757502814
5568.6013253773
5624.7629341372
5657.5228768275
5650.7494318774
5594.7557772072
5530.3103024165
5472.0183379389
5419.1196413007
5374.5284118918
5347.4288434993
5327.5670333935
5325.9756573778
5340.227621892
5370.7280582295
5415.1454903379
5470.8203671093
5534.8991917143
5604.4415020767
5676.6874157308
5749.1870733551
5819.9931532862
5887.574280841
5950.962991064
6009.787680709
6064.144886552
6114.1071141635
6160.2012890671
6202.9782238419
6242.8755730735
6287.9088683024
6323.751512994
6357.6570211485
6390.4899593343
6422.0065504263
6451.5508252446
6478.568119517
6502.4216400376
6522.6619547074
6538.6768851828
6549.9953074632
6556.2796772144
6557.9872300529
6554.4425815352
6546.4742082957
6535.7942678366
6522.5738072892
6507.5941800968
6491.2811563594
6473.9844947127
6455.7026935651
6437.6853144907
6419.0797212716
6401.0654746647
6382.6023090341
6364.3995593859
6343.1090217724
6326.8101771132
6315.3829990015
6354.2624675309
6462.0898105658
6611.8210088432
6734.0506939568
6798.7021945703
6800.4487422509
7509.8377220368
7675.4531676577
8423.1247879827
12965.793397011
18432.210676925
23478.257742669
27773.525488748
31241.643215057
33839.159424279
35640.584078642
36541.323653159
36412.789173596
35795.712638668
34573.550072963
32816.617929985
30694.167134506
28354.899261431
25935.259988253
23538.305102257
21246.074557535
19110.536155412
17159.07727192
15399.791000625
13828.914363087
12434.689427571
11201.432110847
10113.480315975
9153.9798995981
8307.3956169764
7560.0224868726
6897.0222111604
6308.8900647187
5786.7109729846
5321.3336559521
4905.965722305
4532.789519479
4197.7026522698
3896.1932892039
3624.1952669655
3377.8494968079
3154.1476000651
2950.9517905729
2765.7476442146
2596.4983501966
2441.3369992878
2299.1417228091
2168.4378085471
2048.100213017
1936.9823881942
1834.2582143741
1739.204892484
1651.0562646442
1569.165800623
1492.948003959
1421.9691199985
1355.7649447429
1293.9156374594
1236.0430125042
1181.8119019717
1130.948391653
1083.1740386071
1038.2455869334
995.9530036631
956.10541634403
918.53622337572
883.07590570817
849.56885282758
817.87415782226
787.86607984462
759.4282672031
732.42271631878
712.55153905219
2273.5554070776
5035.1713333613
5362.766165185
5470.7573354085
5545.5515696019
5597.372044408
5626.6188922585
5620.2503324742
5565.9877290224
5500.2296668471
5441.4831712369
5389.0867265669
5345.1035250309
5319.6163731851
5300.0931064407
5299.0810167555
5314.0054558235
5345.3265012927
5390.9051000737
5447.867296964
5513.2513904347
5584.0656280244
5657.5079820027
5731.1070747128
5802.9163022212
5871.435291649
5935.7118729194
5995.4721190547
6050.7025748188
6101.5476445783
6148.5029000782
6192.1139146353
6232.8214104235
6278.5459155752
6315.1809841101
6349.8612914507
6383.4832320743
6415.3091080361
6444.7434415881
6471.2004219641
6494.030406713
6512.9082341279
6527.3480381007
6537.1376337641
6541.8589208745
6541.9784283782
6537.0308054362
6528.6729033053
6517.5689096978
6504.4671937081
6489.3407446931
6473.3197048338
6456.2316277619
6438.1913233146
6420.4723338192
6401.7442164886
6384.1332270732
6365.179214482
6346.1347008166
6322.3842344626
6307.6265684178
6285.2923443882
6308.2673832364
6405.1413373555
6550.7367262974
6674.9810602002
6751.0760881786
6765.9985306526
7496.5994866128
6996.6661707884
6982.6999600633
8430.5810031956
11595.276106983
15072.218104851
18351.583842664
21260.368900357
23708.411500196
25649.667018006
27015.234020049
27768.302597583
27756.590528278
27441.65326996
26616.857214836
25433.837557191
23960.355305397
22309.825458924
20584.508850284
18858.320233412
17187.273438117
15612.099809482
14155.176940806
12824.693152566
11621.461008976
10540.278389244
9572.6420797984
8709.4027991822
7939.9412918244
7253.9221241967
6642.0184549589
6095.8369690398
5607.2682748998
5168.7666605336
4774.8514030402
4420.8205246633
4101.8057163607
3813.7522236577
3552.2358430784
3314.9026325147
3099.3360389191
2902.8754958494
2723.4452182039
2558.8784195665
2408.141147342
2269.6358205037
2142.1814592207
2024.5286840848
1915.7620446165
1815.2106033267
1722.0042420329
1635.5075693609
1555.0148091632
1480.0840871584
1410.2554088455
1345.0649678211
1284.118617053
1227.0312339011
1173.5221479259
1123.3162279982
1076.1436841463
1031.767141806
989.96743441758
950.56947712959
913.40716947018
878.31836415089
845.15396073109
813.77443710847
784.04714154943
755.85675974065
729.10629728398
711.28599958183
2439.0004614582
5058.6849347218
5354.8329954458
5452.3131493707
5520.169933984
5566.6254347766
5591.6027675093
5584.9191239719
5533.6491520089
5466.3359213279
5406.3314680955
5354.0202216861
5310.6044817383
5286.6191930575
5267.7861992976
5267.6261046444
5283.7117678659
5316.2479114422
5363.4024046262
5422.0650920653
5489.1299014827
5561.528646862
5636.4176898599
5711.3108701038
5784.2683229453
5853.8093198326
5919.0129951528
5979.6996531909
6035.7567145579
6087.391006628
6135.0942364464
6179.4319091313
6220.8730656351
6266.9789410226
6304.298855588
6339.901011618
6374.0587576717
6406.1591304479
6435.4503953727
6461.329075369
6483.0845165433
6500.4771562024
6513.1570683081
6521.254224851
6524.4289326756
6522.8862104072
6516.8895946178
6508.1300497854
6496.36207996
6483.2927344837
6467.6336952114
6451.8535460991
6434.7465443899
6416.9602314038
6398.1431202205
6378.8721972219
6361.1676723517
6341.2681630339
6322.3533326822
6296.3040108432
6283.659985258
6259.0535157319
6266.4884008351
6345.8086912874
6480.4835850628
6596.9070859326
6681.6451680323
6728.0949220048
7441.2157349895
6357.0122961702
6354.0511910435
6582.6195104863
8167.1706687656
10479.603446033
12882.235513807
15168.571374498
17232.470783468
18982.531140565
20359.708439599
21418.839261005
21939.246236052
21917.319370756
21693.934943032
21062.168548071
20192.736486972
19112.416332314
17897.227073062
16626.092649986
15346.652874325
14100.681595048
12916.395056705
11809.402547482
10788.008858971
9854.1150669677
9005.8057490204
8238.8956504836
7547.7712008412
6925.6773878034
6365.887682233
5862.0505925044
5408.2907595356
4999.3393384352
4630.3915057614
4296.6826429267
3994.2678422057
3720.1654630548
3471.0681972341
3244.3265970336
3037.6327406758
2848.2775048798
2674.9305460251
2516.1125101006
2370.1794220503
2235.9376192557
2111.904557688
1997.3400283284
1891.4245053756
1793.2651395236
1702.2270494112
1617.5090545141
1538.6843489241
1465.2569151665
1396.7411312936
1332.7212184697
1272.7699821959
1216.6217330269
1163.9713168183
1114.5241024728
1068.0424883944
1024.2825438776
983.05625713054
944.19310044884
907.50484304524
872.84222164084
840.05795786172
809.01421340477
779.60046479043
751.70810738133
725.22448337364
711.12640506662
2661.0853270065
5089.4010438517
5348.7605713308
5434.0424588299
5493.7311788376
5533.8884598049
5553.8872820008
5546.143590878
5498.8179545659
5430.1719862562
5367.8650156342
5314.9691041198
5271.9325496645
5249.3276752813
5231.4485879698
5232.3984316974
5250.0950221049
5284.3234699445
5333.4495171539
5394.2113969141
5463.3122339478
5537.5813128774
5614.1336636656
5690.4866740633
5764.6864585633
5835.2856685583
5901.4086206091
5962.9525999262
6019.7594345205
6072.0735836488
6120.3999497301
6165.320799933
6207.3456496674
6253.7911693737
6292.1356903208
6328.266528357
6362.8510563552
6395.0419701258
6424.0283600503
6449.15605359
6469.6646287551
6485.3915309246
6496.1890924306
6502.4429797205
6503.9043291769
6500.820521426
6493.848284202
6484.5071386759
6471.508034392
6458.3279830512
6443.2083115295
6427.1362830517
6408.326249668
6390.1975664696
6370.6190865125
6352.298189138
6333.319809258
6314.7898590896
6296.0170732601
6268.6735683371
6251.0810430685
6228.3917135393
6229.1392853282
6280.0291837005
6402.1494452227
6507.9665631826
6587.8320909766
6645.5179007012
7334.4530969323
5845.4016683612
5813.4209806656
5772.9421052716
6361.3943789546
7797.5305912969
9533.152789591
11290.285849489
12962.086529473
14438.602479158
15701.762573335
16705.052299786
17369.046536512
17706.007289229
17813.077260093
17496.589650689
17018.696718882
16342.499268859
15516.3432525
14599.196269526
13638.913055063
12670.172142625
11721.286977755
10813.133319747
9957.5436290297
9161.5892308251
8427.543842899
7754.3808189942
7140.1686632171
6581.6532973923
6074.4341173305
5614.1180722181
5196.5325043827
4817.7100745529
4473.9138491619
4161.5367110678
3877.4135539572
3618.6694354037
3382.4586966831
3166.2837970546
2968.6052048247
2787.5156104845
2621.3963060276
2468.7507600646
2327.8870448607
2197.9217469888
2077.9829193362
1966.9955754762
1864.1831616646
1768.7019414375
1679.8498136514
1597.2787783362
1520.3404299456
1448.5868414745
1381.5200725689
1318.7313040596
1259.9810265677
1204.9010450673
1153.2075215438
1104.6253166172
1058.8963977789
1015.8417739719
975.27060332164
936.98729343354
900.83645110565
866.64220390837
834.27662695528
803.63011670338
774.57945617869
747.02104166314
720.84498634798
712.87777882652
2953.2059930737
5127.5581618407