/*--------------------------------*- C++ -*----------------------------------*\
| =========                 |                                                 |
| \\      /  F ield         | OpenFOAM: The Open Source CFD Toolbox           |
|  \\    /   O peration     | Version:  2312                                  |
|   \\  /    A nd           | Website:  www.openfoam.com                      |
|    \\/     M anipulation  |                                                 |
\*---------------------------------------------------------------------------*/
FoamFile
{
    version     2.0;
    format      ascii;
    arch        "LSB;label=32;scalar=64";
    class       volScalarField;
    location    "8e-05";
    object      rho;
}
// * * * * * * * * * * * * * * * * * * * * * * * * * * * * * * * * * * * * * //

dimensions      [1 -3 0 0 0 0 0];

internalField   nonuniform List<scalar> 
109340
(
662.4806740741
662.47571185519
662.46617993202
662.45463153088
662.44187189551
662.42857432293
662.41499814947
662.40126277602
662.38749646077
662.37334636313
662.35815758547
662.34130551371
662.32204629349
662.29947975764
662.27253455465
662.23994449545
662.20020107463
662.15149617116
662.09163679073
662.01793295671
661.9270353407
661.81474256671
661.67573003949
661.50318323273
661.28827451116
661.01943168339
660.68125496639
660.25287492298
659.70534968403
658.99734685912
658.06759265141
656.82081686982
655.09983951703
652.62693258216
648.87406731104
642.75914301362
662.48145852021
662.47505938763
662.46435295626
662.45202076071
662.43889112645
662.42554876896
662.41216015845
662.39869874019
662.38494354156
662.37054562523
662.35498061468
662.33760370301
662.31762954086
662.29411381446
662.26593647825
662.23176896542
662.19003844293
662.13885100948
662.07590191189
661.99835337895
661.90266693491
661.78439184673
661.63787390809
661.45585694043
661.22891515119
660.94464892315
660.5864910074
660.13187433155
659.54929664806
658.7933878172
657.79613206641
656.45014429381
654.57418994666
651.83741199308
647.57223128501
640.33358100619
662.48428579734
662.47686329869
662.46506782973
662.45244071275
662.43942134159
662.42626794231
662.41294870917
662.39944816672
662.38564729751
662.37121194562
662.35563200568
662.33825928371
662.31830394176
662.29481941534
662.26668590657
662.23257997479
662.19092809167
662.13983871012
662.07700796471
661.99960010947
661.90407572001
661.78598380172
661.63966966791
661.4578746241
661.23116966632
660.94714920615
660.58923804767
660.13486066531
659.55250816493
658.79679732479
657.79966796394
656.45346180109
654.57494353007
651.82238077845
647.4744418437
639.78660887853
662.48822263843
662.47925541599
662.46685950756
662.45387315405
662.44059950023
662.42716887706
662.41362466013
662.39997077843
662.38606894308
662.37157955725
662.35599326505
662.33865641196
662.31877155185
662.29538594094
662.26737255168
662.23340036592
662.19188960799
662.14094135639
662.07823919872
662.0009355317
661.90546241111
661.78733629844
661.64085461953
661.4586877501
661.23131110036
660.94617830742
660.58651590527
660.12946542437
659.54311094587
658.78146242295
657.77550022797
656.41589890354
654.51460997995
651.71183468077
647.1988348861
638.67302824986
662.49443289454
662.48274476932
662.46852251165
662.45464241505
662.44100487408
662.42744144832
662.41385505168
662.40021911268
662.38636507512
662.37194063026
662.35644216582
662.33921190438
662.31943854427
662.29614826423
662.26818263576
662.23416559778
662.19245616134
662.14107211387
662.07753768262
661.99887061689
661.9012408593
661.77983743237
661.62850266995
661.43926500935
661.20172518312
660.90210593731
660.52191558426
660.03587354438
659.40860400499
658.58906596818
657.50051202567
656.021914326
653.94282234651
650.85279695356
645.76871985139
635.23602229352
662.50601566806
662.48455747277
662.46884231851
662.45463598254
662.44094945792
662.4273850878
662.41380499505
662.40011454478
662.38605749389
662.3711412755
662.35466927435
662.33572894169
662.31318536232
662.28565868191
662.25148599462
662.20866465666
662.1547727308
662.08689177967
662.00153453246
661.89371763181
661.75744121455
661.58496533058
661.36625392363
661.08821012823
660.73361153237
660.27958088869
659.69536565401
658.93895703252
657.95171433531
656.64931478226
654.9050951121
652.52230270075
649.15623635212
644.13504358484
635.80445086192
617.20888401209
632.24519049954
614.62912078245
587.60200528779
550.91285974602
506.2060068916
455.25222031775
400.22194142693
343.52919270035
287.7909502487
235.55404054607
187.79409040447
148.48726425102
115.8859476206
89.899186756544
69.883793697367
54.5336386282
42.880357658043
34.022436772949
27.260628316081
22.088522064259
18.10400772716
14.990189021014
12.536645972945
10.588015037287
9.014988874245
7.7409049639102
6.7178521371721
5.8391132677298
5.129321834849
4.5283205431142
4.0106298060178
3.5893228606144
3.2065439684524
2.8978717391184
2.6105507720273
2.377955940447
2.1584227062347
1.9792553948832
1.8088385107502
1.6681332204015
1.5343783316458
1.4214700960667
1.3161081743051
1.2233147995263
1.1397317092159
1.0620445463817
0.99440616913714
0.92971842707878
0.87370766631428
0.82070160413206
0.77262536840868
0.7283821565054
0.68769943462948
0.65022129791675
0.61560186200725
0.583555888571
0.5538353717947
0.52622879021746
0.50054835380355
0.47662272706362
0.45429493769454
0.43342601520568
0.41389508812914
0.39559471438638
0.37842651727776
0.36230047023783
0.34713710156153
0.33286654974332
0.3194225632956
0.30673925963483
0.29472051007785
0.44873564427289
1.8022641534802
2.0255895037351
2.0364226142907
2.0187144639017
1.9803441486499
1.9256008910414
1.8650648011087
1.8233999384017
1.7987028354025
1.7793483129678
1.7617174518889
1.7466254154099
1.7332913471635
1.7271326566225
1.7269260819421
1.7323512409085
1.7418048144584
1.7556392365585
1.7729748127716
1.7928935371563
1.8144670201534
1.8368525717207
1.8593412208695
1.8812392738723
1.9020773106193
1.9215302300214
1.9394510513926
1.95596999985
1.9710753202565
1.9847858092236
1.9974026065244
2.0091162597369
2.0231312249577
2.0336733279771
2.0439216357396
2.0539245997095
2.0637984401872
2.0735516910432
2.0829350299402
2.091721448443
2.0995871220667
2.1062414123881
2.1114865494958
2.115284108265
2.1175979070986
2.1185609759884
2.1178072176201
2.1154421568288
2.1114603630262
2.1064868215494
2.1009257256284
2.0946355668827
2.0882755503292
2.0821030606113
2.0758205240897
2.0698368756644
2.0638922870539
2.0578401458367
2.0543776071378
2.0506187161089
2.0583940026679
2.0767048281569
2.1114862028385
2.1623053384773
2.2017424506353
2.2113467303778
2.1799415258108
1.7964941087571
627.13335859638
604.58550515034
571.14854039137
528.40634904706
478.72158961392
424.19347248086
367.7635891828
311.96904944902
259.1891000563
211.19118521775
169.08327011029
133.29444631556
104.72111226144
81.953133043189
64.099507060999
50.367631312939
39.835352073772
31.775034767567
25.599987412374
20.838673186457
17.140686800785
14.245475566691
11.955013046332
10.124262566267
8.6482244119192
7.4465948405497
6.4592387131399
5.642235873742
4.958319197896
4.3845016042466
3.8969267061191
3.4821422338396
3.1254101034885
2.8176111409988
2.5503109736143
2.3170062253271
2.1124664582657
1.9323500900025
1.7730207105269
1.6316500309674
1.5055096557503
1.3929782254015
1.2917017920063
1.2008738261852
1.1185503333723
1.0443377588947
0.97667788385626
0.91531726621011
0.85916097249334
0.80789766048523
0.76081806327409
0.71754972589194
0.67771673763891
0.64096476543604
0.60702092691046
0.5755829162003
0.54642603551716
0.51933093490418
0.49411476948165
0.47060769892367
0.44866326548554
0.42814794518492
0.40894302612915
0.39094077404722
0.37404594029296
0.35817328735114
0.34324633728366
0.32919501223454
0.31595447880974
0.30346774408879
0.29274251430211
0.7662175170604
1.9191373466667
2.0279673640634
2.0295899072687
2.0067503405958
1.9642390866203
1.9071052339675
1.84987631329
1.8137203012432
1.791378277323
1.7729043010635
1.7561717607256
1.7422111774803
1.7326406794752
1.7266295320163
1.7266280691715
1.7319711813316
1.7417366237549
1.7557444249656
1.7732207148142
1.7932473681505
1.8149039150503
1.8373492716441
1.859866304584
1.8817691416327
1.9025913503227
1.9220174628194
1.9398535839956
1.9562012496111
1.9710408009684
1.9844804568558
1.9969472693617
2.0085882926285
2.022550208314
2.0330934583628
2.0433220812021
2.053289637886
2.0631127910401
2.0727700322889
2.0820211277717
2.0906485854989
2.0983455754966
2.1048380823465
2.1099308880695
2.113576074895
2.1157366517417
2.1165833304428
2.1155704091415
2.1129929517853
2.1089219765577
2.10397952937
2.098429812222
2.0923074675852
2.0860730940479
2.0800414036819
2.0737957636161
2.0678948220246
2.0619628793767
2.0560085187883
2.0523678070075
2.0480091303513
2.0548656441743
2.0733217917244
2.1089283429607
2.1598214374862
2.1984922521511
2.2110596205817
2.1808475877245
1.8078046735131
624.34126763206
595.91176079514
555.16346019452
504.07544278009
448.91632668779
391.93612661892
335.72810731609
282.72714326788
234.40212887864
191.08456381703
154.53750684221
123.50925874589
97.999658206214
77.466057439077
61.186275021623
48.446295130864
38.565166719863
30.94010126201
25.044567213344
20.455579803284
16.871581934741
14.055304878304
11.816712388916
10.022092251818
8.5725021404834
7.3896083504623
6.4150714859486
5.607469309223
4.9323360191522
4.3628213171978
3.8803802961991
3.4678295903985
3.114278606883
2.808107638474
2.5427047271686
2.3104210581949
2.1071707161058
1.9276991281197
1.7692905439859
1.6282602206921
1.5028919444587
1.3904636460191
1.2898028717338
1.1989948950609
1.1171183071597
1.0429059965915
0.97552104087978
0.91422107934503
0.85819927206067
0.80703055565836
0.76003111711572
0.71689498689562
0.67711300597988
0.64042064133855
0.60650789764581
0.57511338639728
0.54599788467039
0.51894089172134
0.4937565199818
0.47027711443641
0.44835813772858
0.42786661374303
0.40868310693724
0.39070000529565
0.37382315550895
0.35796805761015
0.34305774554588
0.32902108420039
0.31579389364557
0.3033214965895
0.29263516099064
0.77076719758653
1.9195423135881
2.0273641265318
2.0288018180435
2.0059693407185
1.9635732384813
1.9065273258768
1.8492537221673
1.8128176128469
1.7903328418026
1.7719065596279
1.7552787869522
1.7414036374984
1.7320743440734
1.7261316965641
1.726019502587
1.7311566193994
1.7409326356836
1.7549593019324
1.7724787316638
1.7925614706186
1.8142853561302
1.8368028317897
1.8593701964592
1.8813517627568
1.9022566542396
1.9217765805657
1.9397709764703
1.9563210711756
1.9714225923057
1.9851780970617
1.9979013317913
2.0098255761708
2.0240649469669
2.0347814553889
2.0451214769739
2.0551680744247
2.0650543464893
2.0747465079506
2.0840155758086
2.0926513236404
2.1003625723115
2.1068737852155
2.1119694229926
2.1155882569706
2.1176987210453
2.1184639106494
2.1172075200909
2.1146198952634
2.1107002044449
2.1058966418441
2.1004289834733
2.0944764561626
2.088328813449
2.0823042125289
2.0760870873154
2.0701280766392
2.0642264220215
2.0583158889889
2.0542916319452
2.049089835141
2.0557707325924
2.074435804642
2.1111380735795
2.1607790831538
2.1964566517677
2.2083776198543
2.1810453100659
1.8440802026174
618.10014238132
576.25541329833
520.549383051
457.73717824848
396.23181606051
339.32469017974
287.48776384311
241.6052722852
201.28655292247
165.60896532282
136.55946288758
111.06477268866
89.533206632367
71.805407004426
57.401310481909
45.944060620413
36.912804213335
29.824678984679
24.279002733238
19.93667603934
16.513624606066
13.792579698945
11.626214681434
9.883784748211
8.4677104172087
7.3088515744489
6.354006701897
5.5594866556932
4.8941523936076
4.3326900955896
3.8558972945605
3.448137742365
3.0977351372186
2.7948341672666
2.5313157144047
2.3012470621729
2.0992197971923
1.9212134334431
1.7636138958535
1.6236303654867
1.4987821134489
1.3870349178414
1.2867886004014
1.1964010002145
1.1148541935094
1.0408807794208
0.97380622764794
0.91263524211156
0.85685091776343
0.80576726066122
0.75893037231221
0.71589073770286
0.67623019513087
0.63963213754759
0.60578320951063
0.57445260710955
0.54539012641748
0.51838509594306
0.49324736089165
0.46981124646004
0.44793010100683
0.42747141680608
0.40831766766223
0.39036325997548
0.37351372240753
0.35768352195219
0.34279564589143
0.32877985827017
0.31557258467011
0.30311649240735
0.29249665921909
0.77805625436452
1.9197717283682
2.0265246453654
2.027704367854
2.004886306363
1.962642944744
1.9057543798815
1.8483914254669
1.8115441573249
1.788833052668
1.7704337892278
1.7539215501509
1.7401379419432
1.7309674760506
1.7250829042525
1.7250537051764
1.7301561396533
1.7400574142428
1.754173331402
1.7717731897201
1.791942609277
1.8137594891652
1.8363736639311
1.8590357411762
1.8811079874549
1.9020979003075
1.9216914203425
1.9397248970792
1.9562860169583
1.9713784582189
1.9852089818076
1.9980394628556
2.0100590944455
2.0243815437161
2.0351554838364
2.0455266421539
2.0555880303445
2.0654667728908
2.0751121075976
2.0843062445403
2.0928473462062
2.1004611142152
2.1068744120361
2.1118627382944
2.1153564267369
2.1173319705949
2.1179645919561
2.1165391867871
2.1138966130517
2.110005233614
2.1052889335057
2.0999265849485
2.0941292122682
2.0880802241638
2.0821345155732
2.0759869631481
2.0700668283424
2.0642103953526
2.0582956928487
2.0541438227303
2.0487628544143
2.0552794755104
2.0738056861261
2.1101864732112
2.1586058271745
2.194978265659
2.2069382748751
2.1826005837805
1.8518983256607
597.21221423233
520.38103043646
438.6491999207
369.10785183639
312.84934094411
266.39019248591
227.70733574547
194.69093244678
165.68270460564
140.18147177797
117.46475219667
97.402583254348
80.038939904501
65.312048535398
53.057586808739
43.015375888225
34.929380572185
28.483714266673
23.359804521887
19.290158459616
16.054212762355
13.472406298089
11.388790296813
9.7054046798018
8.3345916631706
7.208705049742
6.2754525288284
5.4981349681699
4.845612608393
4.2940795048492
3.8244886571762
3.4228529603491
3.0768004684014
2.7774804602587
2.5169136548072
2.2892478047139
2.0890768293064
1.9127091595448
1.7563733768575
1.6174902935106
1.4934693258232
1.3825501466196
1.2828241091217
1.1930202214202
1.1118345882135
1.0382878879718
0.97147541597994
0.91058496029913
0.85502566959047
0.80412974280077
0.75747748805443
0.71455983422142
0.67504664811931
0.6385678662853
0.60483131521577
0.57358258270242
0.54459017589068
0.51765223068685
0.49257656722501
0.46919752139399
0.44736565145901
0.42695086851437
0.40783795074598
0.38992225623089
0.37310826301635
0.35731030226464
0.34245218966273
0.32846432137848
0.31528194547276
0.30284843072661
0.29231776886099
0.78729268798674
1.9201874888006
2.025478392836
2.0263178104688
2.0035080387738
1.9614727124193
1.9047908780781
1.8472939250711
1.8098842411796
1.7868476274667
1.7684571338179
1.7520722814216
1.7384019024652
1.7294714462669
1.7236634072473
1.7236827973727
1.7287482012013
1.7387195078637
1.7529144487672
1.7705934263448
1.7908546354232
1.8127711266025
1.8354877190344
1.858244059678
1.8804168177837
1.9015090550434
1.92121906018
1.939395007892
1.9561157658599
1.971382147703
1.985372085795
1.9983313950604
2.0104608151791
2.0248876058749
2.0357266309819
2.0461285226008
2.0562226899055
2.0661140196642
2.0757257560209
2.0848538766408
2.0933020254078
2.100816335084
2.1071292448158
2.1120092913997
2.1153768541339
2.1172239008477
2.1177400677678
2.1161861164218
2.1135312259063
2.1096781199689
2.1050635070497
2.0998178614235
2.0941558525536
2.0882009907826
2.0823453666658
2.0762721172339
2.0704137743071
2.0645658656243
2.0586368169749
2.0543017456767
2.0487776134106
2.0536298334369
2.0718062998095
2.1082033582361
2.1571922341863
2.1933966116307
2.2055950368684
2.18351012381
1.8551369682319
448.94832894815
325.05763564992
272.79795826277
240.91977000113
214.66006085756
191.50784398424
170.25467417727
151.02100149294
132.59048077805
115.12295850961
98.784821650263
83.853594002263
70.390915359088
58.53630182661
48.362280957524
39.806428121466
32.73310465508
26.964334732988
22.301919507606
18.546993352654
15.523067242379
13.082554481196
11.109336716303
9.4965689867868
8.1753272395569
7.0859952961574
6.1822709250459
5.4244348052408
4.7868092890326
4.2470366367616
3.7869384070109
3.3918673448572
3.0514853208983
2.756520932901
2.4995033143202
2.2745389906132
2.0768859959531
1.9023250850869
1.7475722771138
1.6099401678638
1.4870637772862
1.376982406955
1.2780020599607
1.1888272160711
1.1081625561286
1.0350723154055
0.96859844692247
0.90807014458665
0.85276451834502
0.80212548127112
0.7556596846737
0.71292639928748
0.67357609176634
0.63723998267817
0.60363871822238
0.57249602075782
0.54360089228263
0.51674714968564
0.49174597916996
0.46843275740919
0.44666197822811
0.42630562329822
0.40724555101553
0.38937620081099
0.3726045897801
0.35684743079949
0.34202759932858
0.32807375553341
0.31492164573723
0.30251569027882
0.29210205901962
0.79855826779336
1.9209428105956
2.0242821688512
2.0246845741248
2.0018726744476
1.9600843823041
1.9036553857398
1.8459715486805
1.8078412287544
1.7843721137218
1.7659621778162
1.7497097671506
1.7361738603833
1.7274808578487
1.7217917762373
1.7218870093381
1.7269814021722
1.7370609179671
1.7513827208154
1.7691885574231
1.7895833534182
1.8116361573752
1.834488407974
1.8573698040374
1.8796622051543
1.9008628132972
1.9206684104119
1.9389330524743
1.9557348942189
1.9710902886999
1.9852026873602
1.9982923437323
2.0105694545394
2.0251116310796
2.0360857796716
2.0465668247102
2.0567349143546
2.0666915028308
2.076297366841
2.0853680660943
2.0937095755284
2.1010926376798
2.1072576929864
2.1119796101685
2.1151766674561
2.1168600666866
2.1171949766578
2.1155002521144
2.1128294414184
2.1090400587697
2.1045581434828
2.0994674731536
2.0939786523271
2.0881460448617
2.0823856616265
2.0764082059337
2.0706321124599
2.0648094240657
2.0588413166743
2.0541999603819
2.0487564767671
2.0521053894728
2.0697124782595
2.1057763567739
2.1542510988224
2.1911250290073
2.2042981945804
2.1841333463349
1.8574543723915
15.246993175836
103.74605735169
127.50745121746
136.46729721016
138.06281770893
134.02827190672
126.28828193615
116.78040303127
106.37493968265
95.51045377641
84.55015393952
73.80422320743
63.569604362462
54.09648042475
45.588900340883
38.162682542199
31.820159630149
26.506965021615
22.115298498925
18.514831862191
15.574649405377
13.176829321531
11.216815747183
9.6130736189867
8.2887292793028
7.1896681437384
6.2761160771526
5.5109227307253
4.8649437205425
4.3159449888884
3.8483906910727
3.4474414371479
3.1011120793611
2.8006086446785
2.5391473409269
2.3103136758107
2.1089569573934
1.9312359979313
1.7738144873039
1.6337173277233
1.5086100771461
1.3965775610931
1.2959118939916
1.2051584525592
1.1230869994914
1.0487377024935
0.98115913067575
0.91961451227561
0.86337486878147
0.81191672705265
0.76470598185762
0.72130733947322
0.68132917006186
0.64442732105749
0.61032761642713
0.57873803127833
0.54942667393725
0.52217792414592
0.49681802792411
0.47318132571307
0.45111535937825
0.43048570391407
0.41117266744602
0.39307297414807
0.37609085541196
0.36013940214872
0.34513933921222
0.3310193535691
0.31771242250623
0.30515215032425
0.29320239581562
0.47145806002003
1.8091249571835
2.016714241035
2.0253594491005
2.0075600196434
1.9704861905
1.9173667713695
1.8576594565956
1.8133315246508
1.7866192288609
1.7673164884452
1.7506354857872
1.7364532876042
1.7250324757276
1.7194563727234
1.7196325333788
1.7247901013355
1.734987473147
1.7494599970628
1.7674219541655
1.7879771021138
1.8101909532601
1.8331972019613
1.8562193974634
1.8786434241043
1.8999693708773
1.9198985017857
1.9382973154294
1.955235491212
1.9707317468452
1.984980242915
1.9981895203057
2.0105484161969
2.0251441818362
2.036267950389
2.0468431338664
2.0571075107852
2.0671772959717
2.0767718372725
2.0857475443391
2.0939038146445
2.1010484695874
2.1069497703834
2.1114044037399
2.114319087125
2.1157573898699
2.1157655862489
2.1139114510805
2.111193567611
2.1074743496564
2.1031175947814
2.0981863693507
2.092868608476
2.0871567766573
2.0814953198168
2.075594262582
2.0698972418915
2.0641320588272
2.0582445280906
2.052686572456
2.047449969719
2.0474830901788
2.0633155979305
2.0990629338207
2.1477353968871
2.1859757391236
2.2016603035475
2.1836082264513
1.859831407169
6.8103094942413
18.223199103693
32.517482486498
44.441559199016
53.467616631351
59.51063972837
62.662088321604
63.470398407448
61.757651330609
58.770803724237
54.789713499861
50.07117788429
44.9821606954
39.769745729839
34.694802079798
29.957720236706
25.680789594616
21.917407692775
18.676220957785
15.92521647955
13.610709990373
11.673472218328
10.054916127855
8.7016278933082
7.5689559854321
6.618921623961
5.8170089657223
5.1355003863233
4.5567374653418
4.0620834049347
3.6372262388284
3.2694874772063
2.9507323399794
2.6731012565238
2.4301258754795
2.2161937589441
2.0275449611123
1.8605426823688
1.7121059522256
1.579528100626
1.4608521987266
1.3543409917106
1.2584076631216
1.1716947679463
1.093142362179
1.0218430816989
0.9569513771595
0.89771716146772
0.84352504328603
0.79385930678527
0.74824789185602
0.70626621194054
0.66754214794367
0.63177288237418
0.59867592127109
0.5680034993715
0.53951728938443
0.51301316893074
0.48832127269013
0.46528596061792
0.44376843670379
0.4236413391379
0.40479196996101
0.38711880229331
0.37052896169592
0.35493796766038
0.34026904890025
0.3264526939875
0.31342672464217
0.30112925205436
0.29124065952291
0.8476516314417
1.9253538561956
2.0200017744149
2.018588540909
1.9957672086716
1.95497951047
1.8995387479528
1.8410475979139
1.7997249674135
1.7741912937633
1.7553853410476
1.7394598795993
1.7263804124943
1.71863434496
1.7133185947318
1.7137561141687
1.7191741262327
1.7297056570875
1.7446015235169
1.7630069813553
1.7840044753264
1.806648261229
1.8300514194658
1.8534297625189
1.8761680909141
1.89777291935
1.9179478798434
1.9365913088826
1.9537519632883
1.969472343771
1.9839409675064
1.9973533169963
2.0098636096915
2.024476595293
2.03577722418
2.0465369105533
2.0570507720687
2.0672491685321
2.0768676101438
2.0857272151809
2.0936335195999
2.1004457841844
2.105968255765
2.1100469119539
2.1125686394019
2.1136733147965
2.1131403034269
2.1112222567647
2.1084200068372
2.1047564726654
2.100453574363
2.095645633123
2.0904663755887
2.0848907487497
2.0793329885387
2.0735540127825
2.0679168840436
2.0620834332072
2.0562903687502
2.0494756820069
2.0442267301294
2.0405773351129
2.0530591730486
2.0876172473367
2.1355169396705
2.1745881213937
2.1947086791457
2.1790228638722
1.8618266771894
5.4283402296698
8.0194572195495
12.971287586846
18.969319373423
24.599641878759
29.403650772403
33.146151792939
35.713353853438
37.158280797904
37.394505659802
36.435683981241
34.872602377669
32.667213048545
29.9940594077
27.086433310926
24.12797800621
21.268103760986
18.603827805791
16.194952485836
14.064347621345
12.20986980102
10.612700602499
9.2461592255069
8.0806988732506
7.0874737789592
6.2409980035365
5.5181330004513
4.8992006697417
4.3678171977215
3.9087918865113
3.5114635353249
3.1666086205026
2.8658035779205
2.6026427779614
2.3707695046072
2.1662492081192
1.9852842580537
1.8245996739316
1.6812662382768
1.5529758312701
1.4379995824372
1.3345492445982
1.2411710799841
1.1565805632207
1.0799116606609
1.0101891658866
0.94664743881966
0.88855223164262
0.83534913788213
0.78655707882287
0.74169945972017
0.70037240385504
0.66221749134106
0.62695649269874
0.59431019031789
0.56402926317718
0.53589134388366
0.50970107345244
0.48529554217413
0.46251609311638
0.44122392576939
0.42129876266048
0.40263225637803
0.38512942421616
0.36869707534402
0.35325038611944
0.33871299989407
0.32501680970702
0.31209928837425
0.2998909255176
0.29061467153979
0.89425430704481
1.9309866177466
2.0169541301544
2.0138740392034
1.9910658109652
1.9512021134569
1.8967083042603
1.8375929475034
1.7932446396073
1.7655067769972
1.7459499649118
1.7300492669066
1.717254554084
1.7102157030189
1.7052117528118
1.7060543852609
1.711914848876
1.7229367829086
1.7384268106273
1.7574548645435
1.7790619792733
1.8022799382507
1.8262027547701
1.8500341348798
1.8731566983752
1.8950859282658
1.9155301427559
1.9344226218884
1.9517831053591
1.9676848441066
1.9823146047397
1.9958745564661
2.0085294280849
2.0232151955419
2.0346740211807
2.0456051745729
2.0563180106962
2.0665979639422
2.0761990567897
2.084911231767
2.0925397433602
2.0989869850134
2.1040993213281
2.1078058044162
2.109963482193
2.1107021123668
2.1098459331319
2.1078702245169
2.104933530665
2.1012751383677
2.0968849809542
2.0920863140496
2.0868804290855
2.0813049844956
2.0757619191012
2.0698388963151
2.0642391087579
2.0581776651042
2.0520528256797
2.044380644498
2.0395666805123
2.0323105894647
2.0395599543042
2.0705935739437
2.1170331409329
2.1566793540335
2.1804035981522
2.1710210891158
1.8631648776505
4.3401483826699
5.6855704709727
7.2013150388032
10.182555182406
13.504879566837
16.68015180678
19.510741491927
21.831679349882
23.564486839906
24.647020655284
25.013174189084
24.597704686406
23.84365488588
22.595407299902
21.035286678343
19.269999342813
17.424756268539
15.601604245579
13.868299311396
12.267541243276
10.822757431448
9.5396104862779
8.4121504572279
7.428834998909
6.574897015242
5.8347711722004
5.1939799432191
4.638643874022
4.1564580350207
3.7369078206618
3.3710186806796
3.050825246928
2.7693916878539
2.5214685728662
2.3026650375921
2.1088743596592
1.9367167723146
1.7828855082284
1.6453228598446
1.5220884573073
1.4112591892688
1.3113097593205
1.2207669314363
1.1387699946628
1.0642526594456
0.99639635528507
0.93439443564727
0.87763219885668
0.82563529311367
0.7778646120395
0.73390872490242
0.69334383533587
0.65587925384062
0.62122930760365
0.58911805418292
0.55930990068789
0.53158214509308
0.50576435011661
0.48169494188831
0.4592200734339
0.43820461657075
0.41852548374695
0.40008170392649
0.38277933535568
0.36652881391472
0.35124855857843
0.33686316937163
0.32330204050195
0.31050359009048
0.29841545109589
0.28994975708195
0.95786360423468
1.9391843073399
2.0142866357564
2.0090716659957
1.9862335562094
1.9475100996282
1.8943337358552
1.8346602932029
1.7867611551987
1.755929431455
1.7349908721103
1.7187957345174
1.7061818077373
1.6997971119875
1.6952271314649
1.6965919932921
1.7030941574691
1.7147846868443
1.731059661138
1.7509034788672
1.7733012300956
1.7972504413602
1.8218237304932
1.8462120985475
1.869795525787
1.8920953633394
1.9128263176202
1.931956384527
1.9494809330013
1.9655035393957
1.9802209337627
1.9938541163653
2.0065886241526
2.021211123825
2.0327701954399
2.0439050917896
2.0547313091101
2.065084482911
2.0746644414908
2.0832365864131
2.0905921892426
2.0966620564708
2.1013338412047
2.1046402561687
2.1064396563256
2.1067503576393
2.1055622191805
2.1034051589184
2.1001796696205
2.0963936289275
2.0917039709184
2.0868795692624
2.0815439941966
2.0759293455868
2.069914068226
2.0636760814138
2.0578335261204
2.0511779411944
2.0447254447437
2.0358549161552
2.0312008968031
2.0225837421515
2.0242042857677
2.0489066912256
2.0910134122271
2.1272027029557
2.1531961265793
2.1551440763678
1.8590179987784
3.5338328700182
4.646533980248
5.0420982717582
6.4213252141776
8.3991314418158
10.479448114834
12.477917506426
14.277665571269
15.769920567648
16.889522622923
17.674783571732
17.921522404267
17.672129035462
17.221145711709
16.410361516239
15.400840927737
14.244669427695
13.020412931084
11.798004311494
10.619143684656
9.515493817598
8.5043149983266
7.5912734419666
6.7760903425339
6.0536022581625
5.4163688702179
4.856068378122
4.364186301704
3.9322742131623
3.5526256264631
3.2184083581365
2.9236401480502
2.6631632033939
2.4324912470502
2.227522685815
2.0448814347689
1.8819259059581
1.7360487396663
1.605146261792
1.4874204941173
1.3809970683079
1.2847692702061
1.1976287391479
1.1184576373161
1.0464058369914
0.98053572763959
0.9202955264246
0.86512572438612
0.8144622788041
0.76788172749428
0.72490625732542
0.68524260042342
0.64858089156647
0.61462825908755
0.58313336571042
0.55384964850806
0.52660859783522
0.50123120753787
0.47754917958382
0.45542397433449
0.43471904883676
0.41532551672129
0.39714532966417
0.38007596993642
0.36403402291309
0.34893929267902
0.33471765893579
0.32130815666348
0.30865236844466
0.29669151601027
0.28968718417074
1.0431619694138
1.9498424287336
2.0122086264076
2.0044840400212
1.9815409065709
1.9441625163921
1.8927607481094
1.8330664169022
1.7813165616227
1.7463314716435
1.7231149869904
1.7061302230613
1.6934711512518
1.6876271557748
1.683557002092
1.6855421086325
1.6928673114077
1.7054318214634
1.7226812102206
1.7435374256765
1.7669105058266
1.7917514704022
1.8171076477397
1.8421612592995
1.8662777410163
1.8889887281009
1.9100178025853
1.9293609890489
1.9470073441704
1.9630844793813
1.9778088787637
1.991424035023
2.0041444956673
2.018641204993
2.0303854118625
2.0415877052572
2.0525015543753
2.0628931248573
2.0724214592941
2.0808299411724
2.0878973055303
2.093571991238
2.0977908280319
2.100649557866
2.1019920596032
2.1017803033373
2.100198763663
2.0976869118882
2.0939057740941
2.0899477355442
2.0852737951756
2.0801857459613
2.0740722481645
2.0679862547861
2.0612076780674
2.0545861886262
2.0474645051365
2.0402245162553
2.0326156567415
2.0219737163541
2.0141956476955
2.0044980600278
2.0020154529992
2.0154242087505
2.0509101868042
2.0809004498973
2.1030166854251
2.1081753180177
1.8543979797418
2.9137721270224
3.924467095037
4.0746671129229
4.6049985021644
5.7464453314216
7.1266948871527
8.5341077438739
9.8810199981189
11.063256964091
12.048855827626
12.799695222443
13.246947441755
13.386066880428
13.313240112363
12.907731059764
12.360055054695
11.657440046282
10.854774293075
10.006300184324
9.1530975497173
8.3230748346522
7.5370533977051
6.8081210768
6.1415284607254
5.5387068826693
4.997545494524
4.5138720912537
4.0831606997188
3.7004263435425
3.3604054787424
3.0582168344444
2.7894638009833
2.5501953911551
2.3368787508633
2.1463092922355
1.9757376410418
1.8227545287836
1.6851290065067
1.5609432851285
1.4488635099769
1.3474713800812
1.2555669902858
1.1720775870411
1.0958990163144
1.0263568924571
0.96281894333966
0.90459355964269
0.85115673043723
0.80197844249801
0.75661613216705
0.71480315317081
0.67615350515775
0.64038396620059
0.60720094161049
0.57636040399687