/*--------------------------------*- C++ -*----------------------------------*\
| =========                 |                                                 |
| \\      /  F ield         | OpenFOAM: The Open Source CFD Toolbox           |
|  \\    /   O peration     | Version:  2312                                  |
|   \\  /    A nd           | Website:  www.openfoam.com                      |
|    \\/     M anipulation  |                                                 |
\*---------------------------------------------------------------------------*/
FoamFile
{
    version     2.0;
    format      ascii;
    arch        "LSB;label=32;scalar=64";
    class       volScalarField;
    location    "8e-05";
    object      rhoHat;
}
// * * * * * * * * * * * * * * * * * * * * * * * * * * * * * * * * * * * * * //

dimensions      [1 -3 0 0 0 0 0];

internalField   nonuniform List<scalar> 
109340
(
661.22067608038
661.21593222981
661.20676518115
661.19556261818
661.18306242292
661.16989800758
661.15631039593
661.14236807327
661.12802930531
661.11262004332
661.09501119313
661.07396236073
661.04796979947
661.01522041337
660.97356080519
660.92044825024
660.85286232461
660.76718946422
660.65905483512
660.52309700211
660.35264901855
660.13934648159
659.87259039281
659.53882226811
659.12049538539
658.59463097517
657.93068897349
657.0873446021
656.00739290822
654.60931792871
652.77259569098
650.31044062272
646.91593356915
642.04964453272
634.69395626029
622.79026477951
661.22142421758
661.21530700636
661.20499991806
661.19301540402
661.18012369216
661.16688315595
661.15345015994
661.13973484129
661.12530625105
661.10945334168
661.09114334518
661.06907990403
661.04167988404
661.00704488367
660.96292646126
660.90666356705
660.83510501774
660.74446759709
660.63015582238
660.48651673623
660.30650650616
660.0812641282
659.79953494905
659.44688412011
659.00457970251
658.44800702909
657.74432184751
656.84885654994
655.69937754918
654.20646169901
652.23642707819
649.57893991035
645.88055283667
640.49968904758
632.15277977262
618.10143017779
661.22411661003
661.21703468191
661.20569092622
661.19342548248
661.18064694127
661.16760053106
661.15424731431
661.14051442195
661.12607819275
661.11024215143
661.09198643292
661.07000910489
661.04272012703
661.00821663177
660.96424879237
660.90816077936
660.83680106425
660.7463907955
660.63233787321
660.48899463756
660.30931797842
660.08444693637
659.80312632793
659.45091675233
659.00908021845
658.45299070697
657.74978821
656.85478820231
655.7057438442
654.21320742133
652.24341323127
649.585505874
645.88217855141
640.47078230277
631.96389868495
617.05167941983
661.22785511162
661.21932173761
661.20742103338
661.19482320953
661.18180881597
661.16849856867
661.15493013631
661.14106282635
661.12656328233
661.11073088444
661.09254547688
661.07069796047
661.04358873613
661.00930666374
660.96559187892
660.90977716949
660.83870006379
660.74856825987
660.63476760507
660.49162588587
660.31204777129
660.08710523239
659.80544608626
659.45248909033
659.00930352749
658.45098302452
657.74427269151
656.84392624384
655.68689203035
654.18252951224
652.19519774497
649.5108074815
645.76278159201
640.25362700181
631.42778558905
614.91325455661
661.2337276134
661.22264969657
661.20902455299
661.19557309422
661.18220829065
661.16877012639
661.15516295455
661.14132678001
661.12691122313
661.11120801925
661.09320146722
661.07157080755
661.04468800312
661.01059914102
660.96698052257
660.91107298177
660.83958789452
660.74856192348
660.63308464604
660.48719146976
660.30328035405
660.07176315692
659.78037654317
659.41325937956
658.94973374322
658.36244431212
657.61472360775
656.65652838484
655.41797986889
653.79851807149
651.64742353161
648.72791077199
644.63044217907
638.56109715387
628.63407236917
608.31184169826
661.24459961179
661.22437634851
661.20933484359
661.19556896174
661.18215518391
661.16871425438
661.15510975731
661.14117708053
661.12638086416
661.10972792733
661.08981186745
661.06479976771
661.03241422572
660.98988737766
660.93388443829
660.86039027634
660.76455008531
660.64049842297
660.48120443819
660.27692649825
660.01563563117
659.68189030255
659.25569830963
658.71100048267
658.0135777496
657.11805785674
655.96358404995
654.46725367137
652.51374167381
649.9379293163
646.49312853402
641.79858538308
635.19287897745
625.39975639026
609.3186037165
574.18837328987
602.56975607238
569.41160148973
520.33729399133
457.24353447606
385.87297564586
311.92059198208
240.89537583798
177.32650002003
124.32172938185
83.184736117231
52.798464739291
32.959001114128
20.040368366287
12.039266051678
7.2618770841266
4.414084155313
2.7242693077497
1.7119976150253
1.0972792972398
0.71925133885032
0.48242568298542
0.33026541207523
0.23068521974123
0.16434112497812
0.1189946888303
0.087609181775323
0.065919781770168
0.049777955317015
0.038328795727594
0.029876306435963
0.0233995584896
0.01873528172191
0.014935957343041
0.012191694709378
0.0098858609867252
0.0081973972982574
0.0067487375037669
0.0056716262172081
0.0047332921231658
0.0040239995111004
0.0034013348437836
0.0029187920344955
0.002499111024534
0.0021595529481149
0.0018724205934333
0.0016261526259329
0.0014244617787293
0.0012449204717131
0.0010988091987935
0.00096900643234688
0.00085852988698965
0.00076268281146008
0.00067960942955037
0.00060731898721333
0.00054417145963759
0.00048881403779644
0.00044013795722286
0.00039721727002984
0.00035927473667563
0.0003256438457353
0.00029575455855013
0.00026912304557558
0.00024534085156597
0.00022405854996072
0.00020497353098342
0.00018782321731847
0.00017238245902262
0.0001584577288315
0.00014587770080554
0.00013448797703264
0.00012412318473548
0.00028713975591499
0.0046262410557003
0.0058366408543451
0.0058894500209234
0.0057756749614097
0.0055441275394228
0.0052257971569962
0.004887321905187
0.0046643741217225
0.0045374221122829
0.0044401674155232
0.0043527258976011
0.0042785949260513
0.004213644713599
0.0041838617807524
0.0041829689412818
0.0042093919156299
0.0042555718416093
0.0043235447478069
0.0044094436291617
0.0045091606453938
0.00461840016005
0.0047331171463505
0.0048497611443112
0.0049646860874955
0.0050752773713445
0.00517959864034
0.0052766231599779
0.0053668395093738
0.0054499915916451
0.0055259998629846
0.0055964040613152
0.0056621622445334
0.0057413442075318
0.0058012727273411
0.0058598332044704
0.0059172845758115
0.0059742811756318
0.0060308699942282
0.006085587641544
0.0061370730712555
0.0061833688336392
0.0062226885930237
0.006253787670552
0.0062763743963208
0.0062901875655554
0.0062959795832671
0.006291569760049
0.0062775942676661
0.0062540400615001
0.0062246421921417
0.0061918310791618
0.0061547982419818
0.0061174526775081
0.0060813022136723
0.0060446168348336
0.0060098067247276
0.0059752883147364
0.005940234323266
0.0059201560949305
0.0058984675940423
0.0059430774467741
0.0060491197686163
0.0062533393779947
0.0065582403424749
0.006801092009574
0.0068607257874782
0.0066657035946855
0.0044883858239098
592.86328672773
550.93173293695
491.55207115882
420.56448315742
345.01483593555
270.71539552705
203.31629504346
146.16446264821
100.77871247707
66.824421638643
42.773203499563
26.540475757556
16.354428668897
9.9986453507809
6.1058636649314
3.7633032359858
2.3498477458258
1.4925627225473
0.96721857410589
0.63988219913933
0.43228051000686
0.2981567584906
0.20970307240159
0.15020253943239
0.10946695027998
0.081068782258235
0.060928435678478
0.046443504446756
0.035831889248575
0.027991833116534
0.022093918876534
0.017625231580512
0.014188407381773
0.011522009949123
0.0094331918858459
0.0077804072838568
0.0064633728187382
0.0054044592113081
0.004547395437736
0.0038486838900613
0.0032749014094569
0.0028019810902105
0.0024081568533225
0.002080280710447
0.0018039650865902
0.0015717653836238
0.0013740533445552
0.0012063005336451
0.0010623464597855
0.00093897530750753
0.00083237658348911
0.00074010501861954
0.00065995610579606
0.00059009770198093
0.0005290583751979
0.00047550707041133
0.00042840341773343
0.00038683984908516
0.00035006991776493
0.00031745109485892
0.00028844483127988
0.0002625883913111
0.0002394872954436
0.0002188017311065
0.00020024122440165
0.00018355554906896
0.00016852843032356
0.00015497106666634
0.00014271788635151
0.00013162609946465
0.00012245174709574
0.00083638960668231
0.005244501815689
0.0058480902874418
0.0058472569330617
0.0057041278162262
0.0054504639207484
0.0051217923489382
0.004805445090498
0.0046144048761201
0.0045004952931751
0.0044081238162317
0.004325442389197
0.0042570769165466
0.0042105206909033
0.0041814678590222
0.004181574044051
0.0042076018018684
0.0042552983438326
0.0043241267967578
0.0044107358304761
0.0045110148455714
0.0046207038751815
0.0047357613708725
0.0048525898829761
0.004967577119926
0.0050781193526355
0.005182327721881
0.0052789156952966
0.0053682091404059
0.0054498956371081
0.0055243922362023
0.0055939416837154
0.0056592719945256
0.0057381302066206
0.0057980499418919
0.0058564846912552
0.0059137192827503
0.0059704087376526
0.0060264228443869
0.0060803477950326
0.0061308763380943
0.006176152019711
0.0062144899431735
0.0062446646229133
0.0062663317523213
0.0062792263826403
0.0062843255033629
0.0062783850680694
0.0062631640216773
0.0062391038339551
0.0062099201333456
0.0061772110472753
0.0061412057401258
0.0061046418412851
0.0060693577481414
0.0060329273299411
0.005998633542839
0.0059642240518003
0.005929779507527
0.0059087036876964
0.0058836031510765
0.0059228211204219
0.0060295156252619
0.0062383023683052
0.0065433021410386
0.0067810037093952
0.0068591051051787
0.006671502051093
0.0045458175997573
587.60530838979
535.22977587263
464.37980765276
382.66362947102
303.30590729632
231.02323065691
169.36406561648
119.98824216874
82.381062144834
54.676168041304
35.710879421683
22.775684611825
14.315902278766
8.9301470992768
5.5615761638661
3.4806339272797
2.2018254784268
1.4148568393257
0.92553917218394
0.61647850332256
0.41876048156036
0.29021801681549
0.20486050163974
0.14717493268132
0.10755052493224
0.079827239789806
0.060096101503121
0.045869927251225
0.035456218626436
0.027715006194665
0.021905483434093
0.017480704907384
0.014086751831561
0.01144457590038
0.0093765324472992
0.0077363842753586
0.0064307208915246
0.0053785784413114
0.0045280974357047
0.0038327619963359
0.00326340972078
0.0027918759255852
0.0024010293438452
0.0020737553734997
0.0017993469901807
0.0015674397123091
0.0013708259502547
0.0012033956185518
0.0010599858486202
0.00093694773915209
0.00083065945186911
0.00073874978064203
0.00065877931825253
0.00058909559707954
0.00052816311945802
0.00047473099472828
0.00042773156584619
0.0003862584572224
0.00034956192786051
0.00031700480805075
0.00028805222152667
0.00026224307205464
0.00023918266262857
0.00021853205966038
0.00020000256035463
0.0001833450986396
0.000168343165309
0.00015480725656114
0.00014257276637353
0.00013149916660971
0.00012236173763575
0.00084633407871992
0.0052466874735992
0.0058445961457561
0.0058427369775877
0.0056997550207694
0.0054468864986716
0.0051188528106809
0.0048023753448787
0.0046099064976752
0.0044953020387004
0.0044032171473927
0.0043211071589702
0.0042532061750116
0.0042078466789877
0.0041791445322534
0.0041787263803732
0.0042037566938573
0.0042514905000204
0.0043203901807276
0.004407185460835
0.0045077151067212
0.0046177152854487
0.0047331148122751
0.0048501807438694
0.0049655622532128
0.0050765298564404
0.0051812337733275
0.0052786807014316
0.0053690859158046
0.0054522294816299
0.0055285000118999
0.0055995087331688
0.0056664637279944
0.0057469404884487
0.0058078907950936
0.0058670114228017
0.0059247487659451
0.0059818514626646
0.0060381163699534
0.0060921921343762
0.0061428123609288
0.0061882111513256
0.0062266940923665
0.0062569144060047
0.0062784476375861
0.0062910583594711
0.0062956806303704
0.0062882920305345
0.006272994278083
0.0062498067545205
0.0062214188522112
0.0061891634133122
0.0061541265443013
0.0061180400596688
0.0060827701222839
0.0060464700948208
0.0060117941503943
0.0059775295762727
0.0059433129441779
0.0059200338726151
0.0058900727250473
0.0059282178182118
0.0060362031450412
0.0062516042918177
0.0065493777655705
0.0067685488014835
0.0068426828104768
0.006673172221396
0.004733062844646
575.93006867525
500.4709596929
408.18888603652
315.43526696612
236.17148055686
173.05022594874
124.09609437111
87.552281559168
60.698431747009
41.036098038871
27.864327065952
18.404560636551
11.941841257744
7.6686771180976
4.8925338607021
3.1291435039988
2.0165287875536
1.3143115925113
0.86961180328213
0.58548049862945
0.40111071060388
0.27942826772659
0.19828354005558
0.14312538812473
0.10492731400504
0.078085094210408
0.058953019873487
0.045085895408773
0.034906681958571
0.02733244587604
0.021628703379365
0.0172821452379
0.013936931785548
0.011336248324846
0.0092924402602388
0.0076748435843177
0.0063821211515549
0.0053423244645259
0.0044989782380238
0.0038109421262535
0.0032455048428504
0.0027781091159369
0.0023897571544129
0.0020647925394897
0.0017920146206976
0.001561356172229
0.00136598177456
0.0011992175760661
0.0010566450025519
0.00093400859071391
0.00082825032688638
0.00073667441612257
0.00065706060277593
0.00058764155910807
0.00052689936594075
0.00047363844937198
0.00042677798635615
0.00038542993843749
0.0003488399680544
0.00031637587558198
0.00028750146537654
0.00026175799087913
0.00023875436854681
0.00021815490374172
0.00019967108393493
0.00018305333119367
0.00016808569251336
0.00015458006205055
0.00014237276408324
0.00013132124427806
0.00012224553995521
0.00086240444739005
0.0052479080816961
0.0058397404469042
0.0058364499513601
0.0056937007527695
0.0054419004637649
0.0051149462100626
0.0047981364857816
0.0046035639845075
0.004487852327097
0.0043959701544325
0.0043145076654203
0.0042471221355205
0.004202575446332
0.0041741879160422
0.0041741860206876
0.0041990492468966
0.0042473793574134
0.0043166965430352
0.004403866079469
0.0045048047198459
0.0046152528685421
0.0047311292209087
0.0048486730343593
0.0049645231540241
0.0050759393847781
0.005181037808534
0.0052786975581958
0.0053691639264064
0.0054522564909183
0.0055289441871924
0.005600552592347
0.0056680463810719
0.0057489993620203
0.0058102830892928
0.0058695909390711
0.005927424011289
0.0059844922581034
0.0060404929597104
0.0060941370891112
0.0061442057943659
0.0061890322543134
0.0062269374239787
0.0062565227464697
0.0062773141552732
0.0062891245546459
0.0062929622744341
0.0062845742689928
0.0062689556866569
0.0062459438413689
0.0062180823160625
0.0061864588852725
0.0061523468790528
0.0061168503566771
0.0060820545364275
0.0060461670238361
0.0060117185838791
0.0059777246612045
0.0059434919742785
0.0059194916655452
0.0058884866068389
0.0059257037513842
0.0060328507044569
0.0062462816855384
0.0065365301029674
0.0067597142348599
0.0068339673374416
0.0066830436399905
0.0047740548910236
537.66630679843
408.00195259439
289.67068304014
204.92320583525
147.07427214155
106.53427169511
77.762077793286
56.786428577703
41.078905549048
29.371467675507
20.597022272222
14.142926660604
9.5362036541642
6.3402285862071
4.1777032819911
2.741604177774
1.8049039387786
1.1983631197469
0.80477536650299
0.54798733609316
0.37902140355276
0.26655654613517
0.19023765072247
0.13798676159352
0.10164198345197
0.075951964164796
0.057498834453821
0.044092791188222
0.034215252448396
0.026845557706612
0.021276715916969
0.017028548330762
0.013748660401954
0.0111952937203
0.0091867251783251
0.0075946625040171
0.006320443343939
0.0052949156619784
0.004462024709786
0.003782038927943
0.0032224803329624
0.0027600917523058
0.0023750125719126
0.0020530953193152
0.001782285938323
0.0015535661658161
0.0013594226151205
0.0011938256004486
0.0010521270071839
0.00093020903674546
0.00082506971435437
0.0007339311251936
0.00065475580928809
0.00058568176535456
0.00052524077795824
0.0004722007758482
0.00042552387956429
0.00038433811342142
0.00034788945899944
0.0003155478087824
0.00028677561190193
0.00026111939774259
0.00023819243852852
0.00021766121684824
0.0001992369374027
0.00018267078402068
0.00016774842257217
0.00015428297041675
0.00014211017087079
0.00013108862520833
0.00012209526653917
0.00088302268192997
0.0052501490525065
0.0058336999869217
0.0058285182290123
0.0056860087371595
0.0054356469913346
0.0051101021736866
0.0047927540268144
0.0045952989835643
0.0044779909391774
0.0043862395349259
0.004305504913886
0.0042387610838042
0.0041954369080401
0.0041674617865068
0.0041677113070977
0.004192392430499
0.0042410403076028
0.0043107081615334
0.0043982234544397
0.0044995708951283
0.004610472637083
0.0047268261454401
0.0048448158298933
0.0049611574754331
0.0050730877196126
0.0051787888623622
0.0052772052006538
0.005368535567674
0.0054525831987262
0.0055301575464579
0.0056024922468485
0.0056706127052562
0.0057521717986369
0.0058138397911787
0.0058733376077118
0.0059313769422986
0.0059885348967583
0.0060443556619409
0.006097627221592
0.0061471609971964
0.0061914098139715
0.0062287283951297
0.0062576773795717
0.0062777239969898
0.0062887729125429
0.0062919226313412
0.0062827735872615
0.0062670867807699
0.0062443077079561
0.0062170552504237
0.006186127952204
0.0061528196731619
0.0061178795047105
0.0060836159955668
0.0060481616040478
0.0060140684074153
0.0059801238011876
0.0059458093397602
0.0059207556071366
0.0058889353074316
0.0059165741729617
0.0060215741512843
0.0062348939431995
0.0065283211140117
0.0067503083815148
0.006825969964066
0.0066889874041345
0.0047909942270676
303.68346193292
158.95638130492
111.83412961156
87.144541003832
69.120933443853
54.966422525486
43.403927982776
34.118697950913
26.272699961661
19.784912597563
14.550766242591
10.471481213597
7.3692498700986
5.0890237573573
3.4687063239782
2.3464792444158
1.5842935424075
1.0734848572654
0.73327820240504
0.50642568718664
0.35426589172506
0.25129851465934
0.18098210796935
0.13209050763839
0.097780445054529
0.073379010168703
0.055797731652596
0.042914251724027
0.03338703652251
0.026258402747505
0.020859541925554
0.016720529764148
0.013522562973635
0.011026384061477
0.0090596340524427
0.0074970570695938
0.0062466375982044
0.0052373799489855
0.0044172706477565
0.0037466855839769
0.0031948107450701
0.0027378177169355
0.0023571399285751
0.0020386286066396
0.001770500070561
0.0015439186645239
0.0013513589443339
0.0011872165527685
0.0010465504338606
0.00092556393247956
0.00082109951711828
0.00073057051781977
0.00065189603362048
0.00058324181645897
0.00052316506377337
0.00047040817556621
0.00042397493983437
0.00038299139761822
0.00034671396786962
0.00031451714187242
0.0002858717415119
0.00026032865617093
0.0002374991983759
0.00021705049576376
0.0001986981054754
0.00018219673113379
0.00016733178490519
0.00015391547588728
0.00014178482012855
0.00013080008382005
0.00012191424926516
0.00090845492215685
0.0052542578110255
0.0058268083221145
0.0058191924233473
0.0056769015974572
0.0054282531983232
0.0051044268235039
0.004786285643563
0.004585132108293
0.0044656996537182
0.0043739569934582
0.0042939955441481
0.0042280163307933
0.0041859156244288
0.0041585673733928
0.0041592015798926
0.0041840163344518
0.0042331595909131
0.0043034014362304
0.0043914867169987
0.0044934404369659
0.0046049709595937
0.004721962864354
0.0048405509303813
0.00495747841549
0.0050699489892905
0.0051761337343859
0.005275006557977
0.0053667606699532
0.0054512833758984
0.0055295268453448
0.0056025837865785
0.0056715330169146
0.0057537511291006
0.0058161962088326
0.0058761574667092
0.0059346369989686
0.0059921914768886
0.006047996361358
0.0061009484012917
0.0061498692345139
0.006193355176801
0.006229807966859
0.0062578245202181
0.0062768609780925
0.006286938691169
0.0062890153428543
0.0062790324531785
0.0062632599659684
0.0062408679383767
0.0062144118825604
0.0061844102494693
0.0061521312520623
0.0061179127707587
0.0060842118456255
0.0060493152651104
0.0060156973380709
0.0059819002747474
0.0059473676400259
0.0059205521771193
0.0058892014998326
0.0059082019366241
0.0060097862347503
0.006220928657986
0.0065109067526845
0.0067366050210573
0.0068183121640963
0.0066931925515514
0.0048031665364368
0.34656710425603
16.128755090284
24.358182224462
27.890276103912
28.53191029987
26.872295507392
23.841849522139
20.371527320842
16.888794297961
13.602664001004
10.649159271103
8.1053877638039
6.0061915534592
4.3440281624115
3.0810450531209
2.1560642530617
1.4968582026867
1.037254084423
0.72101684918817
0.50466724043825
0.35663529794933
0.25494828131682
0.18451545255812
0.1353640679023
0.10052271903324
0.075550516698044
0.057511435995561
0.044299059434921
0.034490163071105
0.027120832436832
0.021544664385852
0.017275096676776
0.013967649125906
0.011383314284279
0.0093503841097893
0.0077356561977955
0.0064417626183437
0.0053983936252291
0.0045514148544001
0.0038585875972359
0.0032883971299502
0.0028165808663865
0.0024239056210396
0.0020952245035577
0.0018186821041044
0.0015850973044673
0.0013867607051183
0.0012176990177051
0.0010728483992132
0.00094837579602813
0.00084094548560809
0.00074790793630042
0.00066704135119056
0.00059651864164956
0.00053486358711241
0.00048075755715904
0.0004331424486238
0.00039111155579341
0.00035392777522952
0.00032094794868842
0.00029162018612305
0.00026547638659791
0.00024211741950803
0.00022120554271038
0.00020244641343414
0.00018558525723988
0.00017040070811319
0.0001567010873767
0.0001443174245439
0.00013309775003767
0.00012284573197896
0.00031683346297245
0.0046614667986327
0.0057855018492203
0.0058258030160392
0.0057126182613922
0.0054901899508615
0.0051828488163665
0.0048504019849691
0.004614067250889
0.004477217843371
0.0043807361509525
0.0042985783731224
0.004229434372734
0.0041741906595467
0.0041474481321613
0.0041484925275994
0.0041736006810944
0.0042232752167957
0.0042941919457942
0.0043829730335345
0.0044856465264596
0.0045979103432654
0.0047156143739024
0.0048348632628947
0.0049524208161833
0.0050655048457675
0.0051723084678224
0.0052718720771689
0.0053643428137953
0.0054496199524039
0.0055286032331017
0.0056023190304644
0.0056717224585467
0.0057544023772507
0.0058176976845519
0.0058782024632396
0.0059372469919001
0.0059954766572621
0.0060512363373557
0.0061036519990458
0.0061515012196356
0.0061935929473727
0.0062284918582143
0.0062549271342087
0.0062722893510485
0.0062809145929226
0.0062810596616498
0.0062701392806579
0.0062541040919952
0.0062321471132409
0.0062064509752626
0.0061774093282843
0.0061461564347827
0.0061126576160446
0.006079548067587
0.0060451058594011
0.006011948418601
0.0059785024776646
0.0059444633744321
0.0059123583910892
0.0058822070425815
0.0058821911348121
0.0059731989536611
0.0061818278565089
0.0064720289940858
0.0067053671178652
0.0068024997846274
0.0066905162825051
0.0048157912018805
0.068423183589496
0.49366647829184
1.573362863934
2.9402287150428
4.2566782518906
5.2732534646499
5.8453669254655
5.9948840521884
5.6728377104434
5.1341633225343
4.4588378914863
3.7207545641201
3.0000425890548
2.3426401044937
1.7809329903182
1.3262583702298
0.97342067589009
0.70815075804985
0.51355292389369
0.37294288005618
0.27208668398282
0.19990904219309
0.14814669308994
0.11082983984796
0.083765708340376
0.06399190137087
0.049377164471658
0.038449110798975
0.030244046478486
0.024013589870889
0.019237281850271
0.015531777029359
0.012641357264922
0.010366936155082
0.0085620071292491
0.0071161208635302
0.0059523759681825
0.0050091085790431
0.0042392033999019
0.0036060223444787
0.0030828024090748
0.002648239067367
0.0022851719029922
0.001980106531678
0.0017226709821769
0.0015045770946336
0.0013189495555819
0.0011602096219324
0.0010239236438445
0.00090652154977189
0.0008050209767696
0.00071693915469917
0.00064023237270583
0.00057324560193361
0.00051457123848397
0.00046303191251029
0.00041760925424361
0.00037745985597648
0.00034188695590898
0.0003102932184772
0.00028216912311146
0.00025707558764598
0.00023463806676582
0.0002145342362197
0.00019648462639704
0.0001802469754798
0.00016561104387269
0.00015239424806618
0.00014043844682093
0.0001296009312548
0.0001211924684914
0.0010235775699526
0.005278334948188
0.0058022352308962
0.0057845307490481
0.0056430931591074
0.005401328976345
0.00508419837114
0.0047624647340461
0.004544874708369
0.0044152710355547
0.0043219731161699
0.0042440892495355
0.0041807643177012
0.0041435318716005
0.0041181880307726
0.0041205325481131
0.0041468579459574
0.0041980379122115
0.0042708551928374
0.004361625904326
0.0044662962846453
0.0045805247274311
0.0047000653773215
0.0048209843206859
0.0049400356366984
0.00505446481161
0.0051624698841941
0.0052632573038482
0.00535685731447
0.0054432963699247
0.005523441025026
0.0055982432027561
0.0056684590821146
0.0057511842613316
0.0058154587117394
0.0058770033522149
0.005937478354602
0.0059964639666172
0.0060523808979345
0.0061041359525191
0.0061505316515338
0.0061906742900599
0.0062233399891509
0.006247551870723
0.0062625868564075
0.0062692395811541
0.0062661812478972
0.0062548976467331
0.0062383775697996
0.0062167684158019
0.0061914071564591
0.0061631076878488
0.0061326878434995
0.0060999995443312
0.0060675045653458
0.0060337983783172
0.0060009904008207
0.0059671540694803
0.0059336658915625
0.005894351449339
0.005864195196422
0.0058430327561165
0.0059144196710683
0.00611496155364
0.0063989095870198
0.0066358974186675
0.0067599167841941
0.0066627818579308
0.0048265778037235
0.043237075251677
0.095097721412499
0.24909547744267
0.53310793359898
0.89698073982231
1.2819275939545
1.629238569601
1.8913116755555
2.0470425690929
2.0724076229465
1.9665689965813
1.8004011902555
1.5787478340616
1.3298783841243
1.0835747133316
0.85896746897923
0.66672401500746
0.50960011736518
0.38575393425964
0.2906109820498
0.21878552038417
0.16511196571209
0.12519579761974
0.095525062232758
0.073412223271426
0.056868840449762
0.04441673956314
0.034980357218366
0.027779751046039
0.022229286608193
0.01792552677655
0.014566419690558
0.011921696163062
0.0098257945691782
0.0081474580331187
0.0067979302055234
0.0057060062960741
0.0048168040596717
0.0040873600304261
0.0034854116494907
0.0029867953142724
0.0025711532230397
0.0022228008058649
0.0019291866050481
0.0016810915291632
0.0014703435503616
0.0012906095253917
0.0011365662328334
0.001004108647316
0.00088986968260218
0.00079094769321186
0.00070498685539977
0.00063002768106002
0.0005645118815234
0.00050707083821733
0.0004565551922332
0.00041199800516467
0.00037258692380548
0.00033765068762648
0.00030659883518169
0.00027893304545834
0.00025423215339931
0.00023213381842996
0.00021232873624627
0.00019454116633155
0.00017853228742609
0.00016409561699426
0.00015105284522093
0.00013924809089649
0.00012853415471398
0.00012066835886126
0.0011391851582894
0.0053091697522381
0.0057847794814467
0.0057578610377282
0.0056172677642001
0.0053817221538781
0.0050707917000179
0.0047462309596249
0.0045129892202482
0.0043724772014118
0.0042757971853382
0.0041984180201138
0.0041368341785601
0.0041032406634036
0.0040795661056106
0.0040838938357448
0.0041122807547307
0.0041656712430758
0.0042411566349114
0.0043347290251263
0.0044421617276778
0.0045590202440557
0.0046809698238159
0.0048040130822595
0.004924883318044
0.0050408619667626
0.00515016018211
0.0052521633023417
0.0053467372226208
0.0054340705739895
0.0055150166583466
0.0055905616447205
0.0056615199667411
0.0057445729722891
0.0058096955266147
0.0058721812262279
0.0059337743714285
0.0059932181013336
0.0060490302052689
0.0060999214631132
0.0061446847657312
0.0061826742818285
0.0062129139169613
0.006234920976492
0.0062477985562581
0.0062522849706439
0.0062473100968554
0.006235690219166
0.006218374579869
0.0061967960886089
0.0061709252452129
0.0061426795653574
0.0061121019065467
0.0060794330732561
0.0060470427061543
0.0060125100268205
0.0059799504000857
0.0059448033891907
0.0059094059425515
0.0058652140672737
0.0058375429788193
0.0057958945125298
0.0058369751250806
0.0060154898220555
0.0062883853352607
0.0065266557180199
0.0066715962508801
0.006613289466546
0.0048344380515055
0.027519535593308
0.047615721271375
0.076485261768505
0.15303950613227
0.26935290367261
0.41107827168549
0.56260265743369
0.70451535647383
0.82078830986087
0.89781754126433
0.92438306112224
0.89363824000621
0.83927926676712
0.75322251060289
0.65234015508396
0.54701780694259
0.44688826914937
0.35793931244402
0.28255743074816
0.22087855140871
0.17174682499671
0.13330580116085
0.10355727694127
0.080685143377265
0.06314304036342
0.049682316895893
0.039334456101535
0.031346236974679
0.025147422853659
0.020310826500627
0.016515547055984
0.013517131788491
0.011130373746787
0.0092204219564067
0.0076845477079401
0.0064414165660374
0.0054293175257876
0.0045983557038185
0.0039138930182876
0.0033476952417606
0.0028763844133188
0.0024820977925031
0.0021500839705926
0.0018700393479141
0.0016325373581836
0.0014303392228143
0.0012573101640447
0.0011087141299527
0.0009808193747477
0.00087024901120325
0.00077436826016797
0.00069086492561021
0.00061798874400087
0.00055421440128967
0.00049822290755197
0.00044892423206744
0.00040537901183502
0.00036683684594729
0.00033264426059576
0.00030223184821354
0.00027511756050147
0.00025088643813509
0.00022919374126634
0.00020973798963014
0.00019225330243627
0.00017650890235937
0.00016230314693128
0.00014945882535056
0.000137824019737
0.00012726910839989
0.00012011184930694
0.0013069388160625
0.005354213990161
0.0057695229834565
0.0057308141723493
0.0055909223803896
0.0053629024940498
0.0050602552686747
0.0047332132854538
0.0044815011582084
0.0043255997057123
0.0042224629436518
0.0041440681522382
0.0040837535523004
0.0040535404642834
0.0040321310127078
0.0040389795457494
0.0040703397419399
0.0041267388589088
0.0042057470572765
0.004302996570025
0.0044140246230393
0.0045342474131858
0.0046592277249913
0.0047848965261335
0.0049079580812683
0.0050257071891944
0.0051363706495886
0.005239505840952
0.005334835722399
0.0054227049564379
0.0055040165727758
0.005579857909449
0.005651160705868
0.0057337343055228
0.0057993417326236
0.0058629223010254
0.0059251108644189
0.0059849363118274
0.0060405962103651
0.0060906461384254
0.0061337903126488
0.0061695435756008
0.0061971704709816
0.0062168029798255
0.0062275542143739
0.0062295009153757
0.0062225439582786
0.0062098377057325
0.0061908128806651
0.0061684658216659
0.0061408220630126
0.0061124234697054
0.0060811009280024