/*--------------------------------*- C++ -*----------------------------------*\
| =========                 |                                                 |
| \\      /  F ield         | OpenFOAM: The Open Source CFD Toolbox           |
|  \\    /   O peration     | Version:  2312                                  |
|   \\  /    A nd           | Website:  www.openfoam.com                      |
|    \\/     M anipulation  |                                                 |
\*---------------------------------------------------------------------------*/
FoamFile
{
    version     2.0;
    format      ascii;
    arch        "LSB;label=32;scalar=64";
    class       volScalarField;
    location    "8e-05";
    object      T;
}
// * * * * * * * * * * * * * * * * * * * * * * * * * * * * * * * * * * * * * //

dimensions      [0 0 0 1 0 0 0];

internalField   nonuniform List<scalar> 
109340
(
372.99991460225
372.99868670852
372.99651156117
372.99373228257
372.9907559146
372.98777736216
372.98486885101
372.98206614192
372.97933039463
372.97658369604
372.9738321673
372.97107856577
372.96831966574
372.96554772188
372.96275220159
372.95991961006
372.9570327809
372.95407029763
372.95100509053
372.94780325156
372.94442251617
372.94081131833
372.93690580176
372.9326250284
372.92786552799
372.92249304132
372.91633108032
372.90914404443
372.90061088128
372.89028273895
372.87751113124
372.86131933108
372.84016029471
372.81144287737
372.77052233226
372.70864992492
372.99972191356
372.99808274481
372.99556830587
372.99273201358
372.98982121888
372.98693236124
372.98408599281
372.98127207939
372.97848506563
372.97571299179
372.9729479516
372.97018511542
372.9674178785
372.9646372828
372.96183167979
372.95898667291
372.95608462126
372.95310278519
372.95001240163
372.94677769842
372.94335447309
372.93968851165
372.93571248005
372.93134065315
372.92646297387
372.92093605804
372.91457076649
372.90711338893
372.89821617158
372.88738929758
372.87391805209
372.85671049117
372.83399989016
372.80273863374
372.75717818171
372.68587696497
372.9997624057
372.99781886823
372.99520618268
372.99241784388
372.98956208838
372.98669232523
372.98382078391
372.98096450831
372.97813659238
372.97533394489
372.97254776575
372.96977058795
372.96699427954
372.96420917659
372.96140362685
372.95856338709
372.95567082152
372.95270345257
372.94963268492
372.94642314459
372.94303062027
372.93940143981
372.93546879495
372.9311470969
372.92632622955
372.92086258074
372.91456694529
372.90718552252
372.8983704244
372.88763148327
372.87425313154
372.85713911038
372.83449568475
372.80315975736
372.75691354023
372.68210319101
372.99972452745
372.99746280236
372.99471730149
372.99183602211
372.98891582629
372.98598341388
372.98305513306
372.98014603315
372.97726771127
372.97442410361
372.97161127849
372.96882264326
372.96604967049
372.96328287705
372.96051251676
372.95772484405
372.95490310688
372.95202551124
372.94906406313
372.9459849362
372.94274436118
372.93928880214
372.9355504548
372.93144244338
372.92685258797
372.9216348835
372.91559711898
372.90848177805
372.89993620204
372.88946332844
372.8763369842
372.85944331447
372.83693011477
372.80544376238
372.75798879862
372.67676700301
372.99951086601
372.99649380898
372.99311710831
372.98981522317
372.98659261217
372.98344666214
372.98038893268
372.97744747336
372.9746416854
372.97196626409
372.96942451207
372.96701504794
372.96473087837
372.96256319904
372.96050227179
372.95853577586
372.9566482188
372.95481937732
372.9530189266
372.95121602657
372.94933218668
372.94729029311
372.94500443756
372.94237102125
372.93926237054
372.93551327204
372.93090801272
372.92515960684
372.91787467494
372.90849935192
372.89622228779
372.87981268417
372.85718369435
372.82448748181
372.77315376757
372.67677938423
373.00338059205
373.01765933596
373.03303281176
373.04829251611
373.06300599784
373.07693572142
373.08995444869
373.10200760505
373.11308418577
373.12319296626
373.13235682466
373.1406019936
373.14795452426
373.15443810576
373.16007138114
373.16486712377
373.1688319657
373.1719700042
373.17433190559
373.17603441546
373.17706738305
373.17737820449
373.17688869415
373.17546689603
373.17300207664
373.16926943474
373.16397962277
373.15673711466
373.14698708281
373.13393381288
373.11639132162
373.09255810085
373.05931313193
373.01082623464
372.93358338804
372.77758720141
372.61045547058
372.45574879235
372.21898904623
371.88055896695
371.42966736641
370.85570341965
370.14508532453
369.28475596443
368.26264321211
367.07355015083
365.7143759518
364.20829070098
362.5884766473
360.8883821234
359.14508758965
357.3946628066
355.66581746769
353.98026382879
352.35250571222
350.79190717722
349.30373798594
347.88856664038
346.54548891444
345.27232949431
344.06467197159
342.91888507321
341.83476148437
340.80111388746
339.81824660444
338.88615501658
337.99141780194
337.14500180858
336.32796086835
335.55383392248
334.80450646259
334.09276908623
333.40204816338
332.74475985218
332.1050946533
331.49547264287
330.90085571083
330.33283524554
329.77886249081
329.24689657439
328.72973734568
328.22906652654
327.74464387453
327.27221966569
326.81613491526
326.37067937343
325.93871180272
325.5180703084
325.10879581328
324.71005004856
324.32145776083
323.94244442649
323.57262723364
323.21157464249
322.85893603981
322.51434021271
322.17744940528
321.84793849368
321.52551769908
321.20990927576
320.90084909967
320.59808359987
320.30138311725
320.01053792096
319.7253543265
319.44559399581
319.1642742068
320.69377541582
320.52296802108
319.22227173611
317.68251626379
315.8540085985
313.67483551498
311.06474664365
308.17468035214
306.33622515475
305.7736812263
305.66548805312
305.67048696124
305.69074163671
305.71230919565
305.72791290578
305.74325252419
305.7588607254
305.77360131606
305.7875459273
305.80012833959
305.81067498375
305.81855989541
305.8233436879
305.82454630066
305.82212015224
305.81570841383
305.80557546313
305.79225056715
305.77655151821
305.75927798593
305.74127521516
305.7236033576
305.70720592718
305.68956921859
305.67914595315
305.67194446308
305.66785669584
305.66670848635
305.66802370654
305.6713980845
305.6760833142
305.68140920546
305.68696007651
305.69210963209
305.69643229434
305.70000075887
305.70251931442
305.70353444289
305.70277352444
305.700215094
305.69605530924
305.69050156557
305.68383897189
305.67616324514
305.66722112613
305.65737255122
305.64657066488
305.63521359764
305.62367231164
305.61148747237
305.6003688091
305.5976761942
305.60270798547
305.61832586916
305.64230540618
305.65242252491
305.71551720795
307.53164910051
361.42792753165
372.56720158014
372.37434100165
372.08047994804
371.67333413187
371.14671613841
370.4912067644
369.69900479431
368.76192957722
367.6751862543
366.43890071311
365.05736256127
363.54630395824
361.93749974516
360.26157357117
358.54837771363
356.82970609009
355.13240118909
353.47727169358
351.87893994997
350.34617723821
348.88359609724
347.49254845642
346.17198973887
344.91939109439
343.73183751742
342.60500959447
341.53508478919
340.5184931488
339.55088206914
338.62962611574
337.75069179677
336.91153177729
336.10906846439
335.34072537435
334.60429663704
333.89735349842
333.21822584478
332.56483451343
331.93575636094
331.32927830108
330.74411461903
330.17902125466
329.63262328101
329.10414454066
328.59218330558
328.0963030579
327.61510304832
327.14834836724
326.69476054356
326.25412552306
325.82536582189
325.40817946233
325.00192385383
324.60610098309
324.22025769239
323.84388679311
323.47659078101
323.11794876362
322.7675999027
322.42518375666
322.09037809154
321.76286931393
321.44236648922
321.12859060303
320.82128602763
320.52021254048
320.2251453623
319.93586811126
319.65217468661
319.37385556473
319.09809787435
321.05103496894
320.21948132019
318.86160777162
317.25778021625
315.35185559262
313.07805912188
310.36182577338
307.58086523407
306.13719565259
305.73864873635
305.67526222314
305.68938380785
305.71164223261
305.72375265627
305.74055838053
305.75720761446
305.77393755498
305.78978755163
305.80477556515
305.81835313744
305.82985634525
305.83866988766
305.84431457238
305.84637255101
305.84471538406
305.83908749232
305.82965568115
305.81694264814
305.80169194344
305.78467160911
305.7666648277
305.74871294325
305.73172472506
305.71302616201
305.70155120786
305.69327509452
305.68808282292
305.68584996114
305.68613557646
305.68845836707
305.69238666396
305.69699897931
305.70189019029
305.7064069982
305.71035744171
305.71348675819
305.7156024321
305.71619251022
305.71503306311
305.71210271433
305.70756515773
305.70164483678
305.69456692716
305.68645964553
305.67706165846
305.66662296257
305.65519970174
305.64322259879
305.63103574048
305.61813039239
305.60629698754
305.60146254679
305.60617394308
305.62167179261
305.64580946898
305.65580191746
305.71782243054
307.51818814615
361.25813301179
372.54771507634
372.31332022893
371.95496767103
371.46447141559
370.85311703469
370.1154107502
369.25256743463
368.26273990919
367.14576658412
365.9015554794
364.53785276187
363.06711394272
361.50588376735
359.87980565584
358.217645956
356.54600195563
354.89100351791
353.27306439358
351.70638298891
350.19976817503
348.75861087367
347.38525457869
346.07913842518
344.83833125645
343.66024227263
342.54148534854
341.47853644718
340.46772433235
339.50559653146
338.58835830827
337.71340953948
336.87731126712
336.07784496174
335.31197595881
334.57781164743
333.87284428049
333.19553191459
332.54372654033
331.91614663448
331.31091238129
330.72709026031
330.16291509
329.61773629692
329.08995392389
328.57907400792
328.08374501785
327.6034432205
327.13719894763
326.68431626704
326.24418448061
325.81602864729
325.39939129362
324.99356695171
324.59817198034
324.2126857186
323.83668823374
323.46973744025
323.11142580293
322.76137928038
322.4192476804
322.08471013175
321.75745563009
321.43719061499
321.12363826941
320.81654631663
320.51567714847
320.22080524859
319.93171254213
319.64818359094
319.37003011207
319.09488584652
321.05013887033
320.21730977172
318.86219545339
317.26273760142
315.36305368622
313.09740676362
310.39240227396
307.62176023947
306.16937015431
305.76126910424
305.69471801818
305.71030213966
305.73565430252
305.74769868185
305.76719986284
305.78645144188
305.80548327388
305.82351527476
305.84052791557
305.85601115026
305.8693212468
305.87984808169
305.8870793543
305.89066474368
305.89035730132
305.88611050243
305.8778687861
305.86614365088
305.85162371602
305.83499818578
305.8170365268
305.79865904392
305.78070740738
305.76028126636
305.74697991166
305.73675162904
305.72956159119
305.72534650667
305.7237376845
305.72429551798
305.72658353229
305.72992895606
305.73356635802
305.73705404252
305.74004511533
305.74228774478
305.74370619225
305.74340217413
305.74144587004
305.73770093309
305.73231759896
305.72548927035
305.71734759309
305.70814094067
305.69765339448
305.68586312889
305.67305552391
305.65969017695
305.64616146071
305.63195136419
305.61793226764
305.60933465904
305.61330318733
305.62921780947
305.65489692614
305.6618279584
305.71959062906
307.43115476157
359.92188273514
372.50852475942
372.17898995734
371.68193072297
371.04135950818
370.28928062569
369.43728196331
368.4924640081
367.45913312199
366.33377421852
365.11193677886
363.80205099685
362.40067956016
360.91678940817
359.36832231728
357.77813008159
356.17176629979
354.57324859706
353.00326494405
351.47691595515
350.00451703902
348.59207213586
347.24161815469
345.95476124118
344.73013753553
343.5652548344
342.45736025857
341.4035251175
340.40053242912
339.44504600481
338.53378178789
337.66373361654
336.83217154634
336.03636516474
335.27406790088
334.54272314351
333.84061458529
333.16553269114
332.51602775918
331.89023418995
331.28693347103
330.70453007476
330.14194652002
329.59794956264
329.07145829435
328.56158971693
328.06727668782
327.58792761293
327.12246302757
326.67044759715
326.23094140011
325.80352957759
325.38748137064
324.98230279192
324.58745379006
324.20246578542
323.82693859038
323.46042407323
323.1025318245
322.75287927324
322.41112259629
322.07693425428
321.7500062643
321.43004992996
321.11679465375
320.80998650354
320.50938602375
320.21476896133
319.92591800624
319.64261290511
319.36469000377
319.09064898719
321.05015768828
320.21391565943
318.86309442721
317.27012119288
315.3796009781
313.12598285484
310.43751410985
307.68113909048
306.21525584877
305.79307915239
305.72156081711
305.73872054773
305.76810386667
305.78165071839
305.80488065752
305.82758968408
305.84968356085
305.87054808127
305.89015596057
305.90801368487
305.92351984457
305.93606605853
305.94514747032
305.95041634104
305.95161056933
305.94879410926
305.94182149626
305.93114606688
305.91740917875
305.90124724281
305.88339949061
305.86467670144
305.84582066546
305.82377732111
305.80868669246
305.79621760963
305.78675252514
305.78019067136
305.77625838441
305.7745934389
305.77482389111
305.77634946727
305.77833883814
305.78033048405
305.78194639419
305.78293655792
305.78320767665
305.78169477009
305.77858770506
305.77362274366
305.76687175523
305.75848007589
305.74861593592
305.7375055505
305.72508796
305.71121860692
305.69629516909
305.6809307222
305.6655285355
305.64944825778
305.63390458796
305.62107181565
305.62374513265
305.6379095266
305.66165730482
305.66720370532
305.72142130287
307.39948221747
359.88112563211
372.40359317587
371.79839635797
370.99726854105
370.12353966344
369.22301136173
368.29383767153
367.32998294279
366.31878652788
365.24521296917
364.10051269228
362.87552138891
361.56869268604
360.18282703225
358.73036964893
357.23067338204
355.70579551441
354.17803954397
352.66810765912
351.19212208374
349.76148151953
348.38356544351
347.06294149922
345.79986464371
344.5949866281
343.44693532041
342.35329295591
341.31113163248
340.31793085491
339.37089489705
338.46693280467
337.60309377725
336.7769793209
335.98589555008
335.22766721855
334.50006426061
333.80117291049
333.12903324441
332.48211185398
331.85870475495
331.25750123896
330.67702083193
330.11622271217
329.57375216883
329.0487738805
328.54014560963
328.04713954226
327.56881066171
327.10443476052
326.65332197086
326.21471744304
325.78811500817
325.37279734997
324.96835228109
324.5741657675
324.18981846376
323.81484787253
323.44886043122
323.09146909823
322.74229424539
322.40098814513
322.06721887627
321.7406863802
321.42110792648
321.10821429083
320.80174840789
320.50147293546
320.20716686853
319.91860993218
319.63558397088
319.35791661013
319.085395521
321.05061706333
320.20951852375
318.86441443994
317.28011591495
315.40179100271
313.16426978362
310.49786123986
307.75910062678
306.27429050536
305.83332056263
305.75471701707
305.77313028324
305.80706436742
305.82330151008
305.85096376728
305.87767155964
305.90327431966
305.92730873571
305.94975624905
305.97013990536
305.987902473
306.00244869832
306.01329561404
306.02009438897
306.0226469074
306.02096949582
306.01501284212
306.00514518945
305.99199737797
305.97619146132
305.95843653135
305.93944479648
305.91984830535
305.89663323195
305.88011867766
305.86567314355
305.85401051766
305.84518059757
305.83890856351
305.83492105734
305.83292528863
305.83238229646
305.83245586825
305.8326589898
305.83259644225
305.83199319248
305.83072620595
305.82759949007
305.82286961147
305.81603854614
305.80716326955
305.79633467779
305.78385408688
305.77000848702
305.75488672538
305.73840370886
305.72103964132
305.70320328258
305.68526808917
305.66670854455
305.64899811677
305.63115900234
305.63254535286
305.64439802169
305.66538995833
305.66846046824
305.71864951609
307.36885033786
360.03356271117
371.79587921059
370.25162432736
369.19837943891
368.32542943616
367.4864872321
366.64979398308
365.78957386028
364.89360342763
363.93832836401
362.90901457948
361.79785517283
360.60504141535
359.33235909092
357.98857102385
356.58998609916
355.15718231611
353.71070143735
352.27032096675
350.85322759404
349.47184080883
348.13506492127
346.84816925793
345.61433457826
344.43337381477
343.30507177285
342.22819344029
341.20060702343
340.21939155666
339.28255592615
338.38741722757
337.53134999722
336.71166100754
335.92634912457
335.1731072955
334.44993337881
333.75486755794
333.08630073127
332.44241780284
331.82181373261
331.22305691884
330.64490328775
330.08606978929
329.54548612214
329.02216416757
328.51509782155
328.02348801423
327.54642276233
327.08328250909
326.63322636587
326.1956779597
325.76996552009
325.35555103513
324.95191324383
324.55850132622
324.1748791077
323.8005683696
323.43520934792
323.07839744772
322.72976724704
322.38897186415
322.05569263886
321.72962906502
321.41049095422
321.09801020284
320.79193992371
320.4920474263
320.19810629292
319.90988718282
319.62718417508
319.34979816952
319.07931849331
321.05149786096
320.20417767644
318.86625581499
317.29291931351
315.42995421056
313.21280547033
310.57417088511
307.85586798889
306.34611251061
305.88137066852
305.79322800208
305.81215218539
305.85079812234
305.87055884068
305.90310848427
305.93416204313
305.96352746729
305.99087841718
306.01621520819
306.03909551627
306.05899157243
306.07534318044
306.08769415151
306.09571494066
306.09926961411
306.09834793699
306.09302801169
306.08360217992
306.07071706249
306.05500050071
306.0371635644
306.01786739571
305.99760485322
305.97359194094
305.95601071363
305.94001290856
305.92644789984
305.9156455863
305.90723426296
305.90103820892
305.89681732482
305.89408780002
305.8920569138
305.8902391987
305.88817709451
305.88556320437
305.88218701368
305.87675737328
305.86963463874
305.86012269656
305.84829374627
305.83419165993
305.81834163404
305.80114057755
305.78298342538
305.76348993816
305.74312111243
305.72220724527
305.70094611596
305.67913326124
305.65829631077
305.63552008021
305.63369189836
305.64169565069
305.65898641261
305.66004248541
305.70558560372
307.3198701582
360.19029535457
362.98737049905
366.59230854872
366.33447826621
365.91746001723
365.43109190437
364.85911704403
364.20509624968
363.47891179818
362.68438676086
361.81568727095
360.86123894973
359.81732867426
358.68820951835
357.47913683033
356.20251829503
354.87679012724
353.52195926223
352.15729633142
350.80074603789
349.4670086635
348.16685267561
346.90786997152
345.69437982546
344.5289993974
343.41199983834
342.34247267815
341.31985809414
340.34214922205
339.40722931467
338.51243313725
337.65608494288
336.83572873373
336.04905714005
335.29398279715
334.56888890766
333.87177610102
333.20088067855
332.55468598541
331.93179213282
331.33068691925
330.75014925977
330.18899988082
329.64617996098
329.1205982089
328.61135010173
328.11760066016
327.63850386636
327.1733382962
326.72132020314
326.28189153556
325.8543611378
325.43820072596
325.03283197318
324.63777374806
324.25258274315
323.87676960158
323.50993570252
323.15167482378
322.80165702795
322.45952974211
322.12496447279
321.79765123193
321.47730525385
321.16366427666
320.85647317975
320.55549199936
320.26049350663
319.97128445649
319.68767341891
319.40937386584
319.12945509315
320.70392595184
320.49604986302
319.22079527
317.72311337026
315.95534984833
313.85696819346
311.35614539779
308.58603230829
306.68341522107
306.00609109025
305.84393092382
305.8458047447
305.88675540389
305.92171969956
305.95947704204
305.99510131672
306.02838103409
306.05909805197
306.08729355647
306.11255663517
306.13438730939
306.15227522045
306.16579899474
306.17467121495
306.17880872843
306.17821395036
306.1730502856
306.16361344689
306.15058097938
306.13460450476
306.11641227318
306.09665679802
306.07575487458
306.09170507485
306.07252935271
306.05460567562
306.03874986379
306.02544922808
306.01420145847
306.00491726602
305.99734366513
305.99104080685
305.98541444124
305.97995126176
305.97410099609
305.96747560727
305.95951204938
305.94915865592
305.93673141929
305.92151035183
305.90384619648
305.88441023729
305.86364887833
305.84138669628
305.81785420899
305.79271729826
305.76646920302
305.73951678751
305.71167126578
305.68323343936
305.65541594227
305.62583049461
305.61129999488
305.61460073381
305.62643208926
305.623023973
305.6605240086
307.20497167578
360.40926419234
353.84767145062
359.05830419815
359.88888906377
360.28256731184
360.44563847057
360.42334954866
360.21700077178
359.85827427826
359.36889759677
358.76590740286
358.0555896655
357.24746264594
356.34673125838
355.35625283184
354.2868017418
353.15479229717
351.97837391694
350.77582954893
349.56411153942
348.35867206165
347.17163644907
346.01168463039
344.8846911202
343.79453324284
342.74331236492
341.73178275099
340.75986179013
339.82620750978
338.93030534677
338.07053197475
337.24517979588
336.45219284978
335.69011582859
334.95739482523
334.25228615502
333.57307431248
332.91851151166
332.28726476161
331.67794068284
331.08920898954
330.52000973016
329.96935567532
329.43616293371
328.91948043495
328.41846452088
327.93238204331
327.46043615442
327.00188769713
326.55608372126
326.12243044499
325.70036263312
325.28929926121
324.88873957476
324.49822383889
324.11730809756
323.74557515715
323.38259215119
323.02799085914
322.68142728954
322.34258044185
322.01114016704
321.6868139447
321.36933140558
321.05843271944
320.75387101249
320.4554103983
320.1628142796
319.87587266314
319.5943941095
319.31807541025
319.05762070239
321.05483768595
320.18260523925
318.87528976881
317.34953142803
315.55297731132
313.42438410698
310.9044769394
308.2636108779
306.64025873078
306.07045204298
305.93522538953
305.94737077906
305.9982401218
306.03104897891
306.07987716196
306.12519043228
306.16666979868
306.20422775936
306.23799799302
306.26763123185
306.29269924444
306.31280757449
306.32763929737
306.3370259792
306.34101685722
306.33978911241
306.3335495684
306.32276920989
306.30819096493
306.29055137674
306.27064493099
306.24918578979
306.22676573437
306.23639531844
306.21498311673
306.19491730617
306.17677342947
306.16084935441
306.14658822438
306.13371916892
306.12191379684
306.1108751041
306.10009978186
306.08895322039
306.07673838087
306.06298648328
306.04670322136
306.02752861396
306.00570267032
305.9816059127
305.95516006328
305.92614302817
305.89500582883
305.86129870185
305.8254938448
305.78793165205
305.74875645874
305.70798573971
305.66575351312
305.62211506836
305.57826014457
305.53264322394
305.4984142627
305.48392470321
305.48097872005
305.46567649774
305.48704602848
306.89690763532
360.63429172867
349.45279195606
354.0449220169
355.07940595013
355.72928114505
356.15439267329
356.41971790079
356.52041294313
356.47257206702
356.27100421969
355.93354095327
355.47260921007
354.90272071325
354.22256752875
353.44439917608
352.58130683865
351.64359042793
350.64661542529
349.6068311612
348.5406095233
347.46257054546
346.38570420077
345.32107639376
344.27648171343
343.25734918863
342.26725477638
341.30841177622
340.38203695564
339.4881521011
338.62667382161
337.79654375079
336.99674305462
336.22654697725
335.48456082659
334.76958393454
334.07994712459
333.41460995782
332.77249759038
332.15231447404
331.55285609551
330.97296490389
330.41186343006
329.86844409737
329.3418016576
328.83098661706
328.33540626788
327.85423545307
327.38677151522
326.93229647232
326.49022677361
326.0600397049
325.64113621857
325.23299987111
324.83513453243
324.44713610789
324.06856655908
323.69899691124
323.33804144976
322.98533550598
322.64056081734
322.30338522062
321.97350276766
321.65064218105
321.33454478842
321.02496903231
320.72166562017
320.42439130334
320.13291077267
319.84705000227
319.56659076619
319.29131990301
319.04260269955
321.05590458898
320.16302451122
318.88402757204
317.40250937716
315.66785949889
313.62198921416
311.2108143193
308.6401267582
306.91217903546
306.23872267817
306.05207612868
306.04884142339
306.10352802114
306.14523719566
306.20584293605
306.2617327403
306.31210973192
306.35687701256
306.39620868161
306.42983822651
306.4574324097
306.47872853941
306.49357454437
306.50196777805
306.50416004441
306.50056108823
306.49146468815
306.47758171088
306.45975576824
306.43884124323
306.41571744127
306.39119430067
306.36595559483
306.36802790302
306.34381577153
306.32122278436
306.30068441478
306.28226578559
306.26504125612
306.24845314768
306.23225778893
306.21598108992
306.19896752872
306.18053196416
306.15998591455
306.13690347955
306.1106608257
306.08162077328
306.04898306671
306.01236720312
305.97158830044
305.926476501
305.87787373993
305.82597993674
305.77061848694
305.71184234213
305.65040072271
305.58615517964
305.51927710035
305.44977202961
305.37883378184
305.3028189627
305.23949035056
305.18153159004
305.14845148459
305.09704174857
305.09202737844
306.34024693708
360.49126667749
346.74861372943
350.43093850725
351.45762735649
352.15237338727
352.66601751775
353.04974423613
353.30206775539
353.42044919088
353.41267689281
353.27084097736
353.0002153214
352.612707343
352.12891463627
351.5372216469
350.85127853584
350.08543770766
349.2512501662
348.36316452181
347.43627549907
346.48434703225
345.51994491959
344.55369331248
343.59500745971
342.65084257317
341.72614067267
340.82428374839
339.94745384215
339.09696906949
338.27337130243
337.47664466787
336.7065193299
335.9623835591
335.24320655731
334.54814304705
333.87664473024
333.2274900415
332.59983150026
331.99239344416
331.40435249307
330.83504963838
330.2833916278
329.74856663012
329.22956935238
328.72590150613
328.2367818855
327.76151231703
327.29938571022
326.84978908815
326.41228797585
325.98625672093
325.57119415064
325.16655670233
324.77196254907
324.38700546601
324.01124378867
323.64428775881
323.2857461088
322.93531027393
322.59266403853
322.25748474508
321.92948043539
321.60837499597
321.29393192215
320.98591127934
320.68406860072
320.38817522355
320.09802598547
319.81344121406
319.53423397285
319.26011274358
319.02734393064
321.05349972402
320.1379647209
318.89358137512
317.46586532425
315.80671358284
313.86180000292
311.58184088658
309.10596695203
307.2636341449
306.45366680077
306.19375727796
306.16204967399
306.21388281862
306.2626155174
306.3354943944
306.40306714272
306.46342574205
306.51618233598
306.56141537674
306.59893978116
306.62854436154
306.65013426451
306.66378816617
306.66978756853
306.66854153861
306.66069129531
306.64693340994
306.62814554282
306.60530954238
306.57942777524
306.55147131705
306.52236210865
306.49288866767
306.48644411906
306.4585297103
306.43262939569
306.4090019411
306.38748083633
306.36673404194
306.34573040947
306.32410216474
306.30121992167
306.27633413622
306.2488889541
306.21904690954
306.18643444302
306.14875572173
306.10538853253
306.05554332375
305.99885045168
305.93585902137
305.8671049859
305.79222175355
305.71182069105
305.62525139918
305.5322873253
305.43255257878
305.32592393565
305.21318127521
305.09434254986
304.97159829413
304.84363214516
304.71423136807
304.588717202
304.49582972742
304.38965348766
304.29698661135
305.4042100057
359.47590371024
345.17935860574
347.56018789778
348.59956139438
349.26394881677
349.79563712587
350.21936719584
350.53831268462
350.75759866385
350.84957653589
350.83876409374
350.71450053521
350.47143250942
350.1180518603
349.6860750334
349.15286578293
348.53302461179
347.8420445812
347.09013794459
346.29117564085
345.45693265436
344.60004991141
343.73118045032
342.85890569532
341.99099422382
341.13348339819
340.2907295662
339.46588785708
338.66120953622
337.87801285406
337.11704905401
336.37855952635
335.66242157407
334.96835758333
334.29599000136
333.64457687276
333.01326180678
332.4015345281
331.80872255068
331.23386368894
330.67643754375
330.13535047754
329.6100200629
329.09997961803
328.60441620101
328.12272713994
327.65412121966
327.19813646191
326.75432103869
326.32205963639
325.90088617969
325.49022221864
325.08971502815
324.69898099068
324.31756548014
323.94509070347
323.58115363703
323.2254694179
322.87771695551
322.53755896955
322.20470968445
321.87888323255
321.55983930665
321.24734422326
320.94114078769
320.64100625111
320.34672394848
320.0580901867
319.77495149203
319.49707160678
319.22424396837
319.02252027761
321.04285242834
320.10587881635
318.9014194261
317.53588081244
315.96418761829
314.13626741682
312.00764983373
309.65914897781
307.71759349456
306.73580701686
306.37432896081
306.29566167426
306.33416553318
306.38546142038
306.46996830275
306.55019356982
306.62185161518
306.68371189883
306.7354852389
306.77702212153
306.80824894167
306.82933278337
306.8406035336
306.84260148618
306.83614052298
306.82223220833
306.80187247543
306.77626456461
306.74658203033
306.71396529269
306.67950001061
306.64420581206
306.60896967555
306.59294653552
306.56017932315
306.52987657537
306.50210007077
306.47630574238
306.45054146115
306.423501038
306.3947963889
306.36378091987
306.33054010283
306.2947208931
306.25450350023
306.20664334897
306.15031925174
306.0844780087
306.00932187169
305.92457479751
305.82988215467
305.72561292854
305.6104713434
305.48360572419
305.34371521193
305.1908411548
305.02424823044
304.84489469939
304.65308844925
304.44937621817
304.23639809862
304.01452882985
303.78188818814
303.5426773936
303.34191263791
303.13082173297
302.9047509014
303.85409884531
356.07656310833
344.41898448264
345.15033622355
346.24706969555
346.86840982941
347.38075022458
347.80984578426
348.15575480409
348.42346210694
348.58402067106
348.64336196852
348.61816653304
348.48457474817
348.24589075484
347.92100968145
347.51055608567
347.02168721133
346.45067307476
345.81654252683
345.13134562232
344.4054387485
343.64845024764
342.87111884127
342.08259839818
341.29005592411
340.49987406402
339.71715675403
338.94565597078
338.18827403555
337.44709176054
336.72346144414
336.01822133607
335.33183592939
334.66442495157
334.01585075658
333.38581723257
332.77400048958
332.17992696632
331.60292365654
331.04219763256
330.4976204522
329.96842965209
329.45400042057
328.95389293231
328.46724372401
327.99355092819
327.53255598764
327.08357812908
326.64616723491
326.21979872108
325.80392481301
325.39833935331
325.00255256962
324.61615537235
324.23874835737
323.8699463302
323.5095214356
323.15711933508
322.81241380197
322.47510822744
322.14490761775
321.82158755656
321.50491315151
321.1946245787
320.89050024821
320.59230266846
320.29983958498
320.01297142314
319.73146452512
319.4551685218
319.18378645126
319.03902421134
321.02662238228
320.06752270483
318.90513750523