/*--------------------------------*- C++ -*----------------------------------*\
| =========                 |                                                 |
| \\      /  F ield         | OpenFOAM: The Open Source CFD Toolbox           |
|  \\    /   O peration     | Version:  2312                                  |
|   \\  /    A nd           | Website:  www.openfoam.com                      |
|    \\/     M anipulation  |                                                 |
\*---------------------------------------------------------------------------*/
FoamFile
{
    version     2.0;
    format      ascii;
    arch        "LSB;label=32;scalar=64";
    class       volScalarField;
    location    "8e-05";
    object      TpSat;
}
// * * * * * * * * * * * * * * * * * * * * * * * * * * * * * * * * * * * * * //

dimensions      [0 0 0 1 0 0 0];

internalField   nonuniform List<scalar> 
109340
(
372.99991451745
372.99868668668
372.99651153764
372.99373225599
372.99075588639
372.98777733267
372.98486882028
372.98206611358
372.97933036965
372.97658367269
372.97383214539
372.97107854514
372.96831964624
372.96554770336
372.96275218392
372.95991959312
372.95703276461
372.9540702819
372.95100507528
372.94780323673
372.9444225017
372.94081130417
372.93690578785
372.9326250147
372.92786551446
372.92249302792
372.91633106701
372.90914403119
372.90061086805
372.89028272567
372.87751111785
372.86131931748
372.84016028081
372.81144286303
372.77052231742
372.70864990933
372.99972187711
372.99808272576
372.9955682833
372.99273198937
372.9898211938
372.98693233666
372.98408597216
372.98127206094
372.97848504861
372.975712976
372.97294793687
372.97018510161
372.96741786544
372.96463727042
372.96183166802
372.95898666165
372.95608461044
372.95310277474
372.95001239149
372.94677768854
372.94335446344
372.93968850218
372.9357124707
372.93134064391
372.92646296471
372.92093604892
372.91457075738
372.90711337981
372.8982161624
372.88738928829
372.87391804263
372.85671048144
372.83399988006
372.8027386231
372.75717817041
372.68587695273
372.99976237344
372.9978188455
372.99520616003
372.99241782271
372.98956207041
372.98669230978
372.98382077005
372.98096449566
372.97813658079
372.97533393418
372.97254775578
372.9697705786
372.96699427074
372.96420916823
372.96140361888
372.95856337945
372.95567081416
372.95270344545
372.94963267798
372.94642313781
372.94303061362
372.93940143324
372.93546878845
372.93114709044
372.92632622311
372.92086257429
372.91456693881
372.90718551598
372.89837041778
372.88763147651
372.87425312458
372.85713910313
372.83449567709
372.80315974911
372.75691353117
372.6821031807
372.99972449264
372.9974627852
372.99471729054
372.99183601277
372.98891581808
372.98598340655
372.98305512638
372.98014602708
372.97726770572
372.97442409854
372.97161127382
372.96882264326
372.96604967049
372.96328287705
372.96051251676
372.95772484405
372.95490310688
372.95202551124
372.94906406313
372.9459849362
372.94274436118
372.93928880214
372.9355504548
372.93144244338
372.92685258797
372.9216348835
372.91559711898
372.90848177805
372.89993620204
372.88946332844
372.8763369842
372.85944331447
372.83693010977
372.80544375667
372.75798879182
372.67676699445
372.9995108491
372.99649380898
372.99311710831
372.98981522317
372.98659261217
372.98344666214
372.98038893268
372.97744747336
372.9746416854
372.97196626409
372.96942451207
372.96701504794
372.96473087837
372.96256319904
372.96050227179
372.95853577586
372.9566482188
372.95481937732
372.9530189266
372.95121602657
372.94933218668
372.94729029311
372.94500443756
372.94237102125
372.93926237054
372.93551327204
372.93090801272
372.92515960684
372.91787467494
372.90849935192
372.89622228779
372.87981268417
372.85718369435
372.82448748181
372.77315376194
372.67677937596
373.00338058487
373.01765933596
373.03303281176
373.04829251611
373.06300599784
373.07693572142
373.08995444869
373.10200760505
373.11308418577
373.12319296626
373.13235682466
373.1406019936
373.14795452426
373.15443810576
373.16007138114
373.16486712377
373.1688319657
373.1719700042
373.17433190559
373.17603441546
373.17706738305
373.17737820449
373.17688869415
373.17546689603
373.17300207664
373.16926943474
373.16397962277
373.15673711466
373.14698708281
373.13393381288
373.11639132162
373.09255810085
373.05931313193
373.01082623464
372.93358338804
372.77758719489
372.61045545529
372.45574878094
372.21898902952
371.88055907861
371.42966703331
370.85570298265
370.14508547645
369.28475617047
368.26264328635
367.07355073569
365.71437328182
364.20827532533
362.58848383042
360.88837854181
359.14509051881
357.39466067635
355.66581479348
353.98026526677
352.35250291355
350.79190391562
349.30373781825
347.88856987425
346.54548356976
345.27228117356
344.06460364161
342.91907731229
341.83476425236
340.80065592133
339.81894298596
338.88574644525
337.99177021173
337.14470610021
336.32810039832
335.55365866388
334.80453116927
334.09262504195
333.40207750449
332.74458415375
332.10523067404
331.49522523818
330.90121236996
330.33247850644
329.77955957617
329.24648290596
328.73040947134
328.22861940386
327.74471089018
327.27193081938
326.81602944523
326.37080636592
325.93864388096
325.51808283515
325.10878186687
324.71004924641
324.32144933401
323.94244114508
323.57262058861
323.21156948536
322.85892962605
322.5143344885
322.17744362483
321.84793360284
321.52551357563
321.20990642973
320.90084738973
320.59808305724
320.30138330086
320.0105384689
319.7253548288
319.44559422597
319.16427937045
320.69444259261
320.52297105982
319.22227045034
317.68251587968
315.85400886859
313.67483615915
311.06474715404
308.17467827712
306.33622387842
305.77368007841
305.66548722272
305.67048660925
305.69074185841
305.71231051421
305.72791451542
305.74325411412
305.75886230371
305.77360243978
305.78754658311
305.80012856382
305.8106748561
305.81855952823
305.82334320906
305.82454581989
305.82211974831
305.81570812443
305.8055752783
305.79225044078
305.77655141812
305.75927784056
305.74127506567
305.72360307753
305.70720550798
305.68956868502
305.67914534806
305.6719438316
305.66785609668
305.66670798128
305.66802334119
305.67139787577
305.67608324175
305.68140922979
305.68696016354
305.69210976152
305.69643244201
305.7000008747
305.70251937477
305.70353437901
305.70277323719
305.70021459688
305.6960548495
305.69050138734
305.68383952522
305.67616488547
305.66722410456
305.65737691961
305.64657563272
305.63522022792
305.62368105576
305.61149976163
305.60038254926
305.59769673676
305.60273231543
305.61835198401
305.64232230556
305.65239867365
305.71548351015
307.5316004056
361.42784242605
372.56720156862
372.37434099367
372.08048020957
371.67333840548
371.14671578158
370.49120613125
369.69900470113
368.76192971042
367.67518611624
366.43890056737
365.05735842887
363.54630713876
361.93749693655
360.26157294281
358.548378463
356.82970461161
355.13240080084
353.47727060223
351.87893828999
350.34617634661
348.88359358648
347.49254623308
346.17198879661
344.91939105378
343.73183377198
342.6049985585
341.53509566584
340.51848494331
339.55087570551
338.6296406209
337.75066424268
336.9115610452
336.10903896759
335.34075490533
334.60426709044
333.89738481328
333.21819599384
332.56486574838
331.93572172827
331.32930511623
330.74407602281
330.17903362422
329.63258971683
329.10414566483
328.5921699049
328.09629942254
327.61511457335
327.14833491625
326.69477382593
326.25410530905
325.82536881959
325.40816509918
325.00191995369
324.6060951126
324.22025185849
323.84388127935
323.47658462465
323.11794273459
322.76759361929
322.425177884
322.09037255074
321.76286455699
321.44236263937
321.12858793592
320.82128440612
320.52021175091
320.22514491697
319.9358676911
319.6521739445
319.37385449132
319.09814403439
321.05132001164
320.21948156213
318.86160707006
317.25778016586
315.3518559902
313.07805977352
310.36182586709
307.58086295429
306.13719457848
305.73864777377
305.67526164344
305.68938372466
305.71164272305
305.72375401831
305.74056001559
305.75720921491
305.77393904853
305.78978859232
305.80477612105
305.81835324586
305.8298560923
305.83866939471
305.84431397405
305.84637196383
305.84471489164
305.83908713407
305.82965545201
305.81694249813
305.80169183993
305.7846714723
305.76666469762
305.74871270691
305.73172437031
305.71302571954
305.70155071174
305.69327458116
305.68808234289
305.68584956897
305.68613531405
305.68845825252
305.69238668827
305.69699911441
305.70189041033
305.7064072843
305.71035775959
305.71348704398
305.71560265263
305.71619258984
305.71503293973
305.71210247942
305.70756507564
305.70164516672
305.69456809936
305.68646189364
305.67706521076
305.66662785821
305.65520513535
305.64322965251
305.63104451745
305.61814239765
305.60631002298
305.60148373567
305.60619949737
305.62169862702
305.64582715328
305.65578142802
305.71778716363
307.5181356859
361.25805260797
372.54771506609
372.31332022893
371.95496763748
371.46446998533
370.85312115537
370.11541587725
369.2525670799
368.26274005371
367.14576641584
365.90155554541
364.53785322124
363.06711350955
361.50588297281
359.87980647378
358.21764430835
356.5460008675
354.8910043411
353.27306262769
351.70638114871
350.19976789433
348.75860821256
347.38525217522
346.07913701931
344.83832941517
343.66024191246
342.54148037321
341.47853127864
340.46773487171
339.50557965566
338.58836344153
337.71340473135
336.87730808346
336.0778470942
335.31196556056
334.57781866739
333.87283363656
333.19553830906
332.54371592782
331.91614888306
331.31090636707
330.72708521501
330.16291607734
329.61772196653
329.0899626918
328.57905143284
328.08375460954
327.60341730603
327.1372039744
326.68429685246
326.2441835289
325.81601829009
325.39938430593
324.99356310699
324.59816348433
324.2126809896
323.83668132383
323.46973132277
323.11141919485
322.76137303344
322.41924170381
322.08470469905
321.75745089534
321.43718679161
321.12363549319
320.81654445195
320.5156758762
320.22080411222
319.93171125046
319.64818193655
319.37002845558
319.09493297048
321.05042381398
320.21731026001
318.86219480824
317.26273753389
315.36305404853
313.09740737185
310.39240230219
307.62175796173
306.16936911974
305.76126817386
305.69471745871
305.71030206901
305.73565479662
305.74770003805
305.76720149559
305.78645305118
305.80548471739
305.82351630494
305.84052847529
305.85601127528
305.86932102218
305.87984762806
305.88707880251
305.89066420923
305.89035686275
305.88611019521
305.87786859952
305.86614354493
305.85162364183
305.8349980779
305.81703642623
305.79865882837
305.78070706925
305.76028083357
305.74697941019
305.73675109365
305.72956106857
305.72534605409
305.72373734948
305.72429532726
305.72658348434
305.72992903032
305.73356652865
305.73705428221
305.74004538
305.74228796831
305.74370633913
305.74340215717
305.74144573622
305.73770081618
305.73231771193
305.72548989282
305.71734905942
305.7081434324
305.69765706539
305.68586810928
305.67306128203
305.65969734623
305.64617000415
305.63196200925
305.6179436516
305.60935764911
305.61332944169
305.62924525682
305.65491292768
305.661810866
305.71955618531
307.4310963013
359.9218087646
372.50852475092
372.17898995076
371.68193068711
371.04134409805
370.28927892855
369.43728323575
368.49246383025
367.45913293347
366.33377401113
365.11193663501
363.8020509122
362.40067911778
360.91678952358
359.36832154301
357.7781293439
356.17176667477
354.57324743159
353.00326359656
351.47691533631
350.00451640338
348.59206931856
347.24161684961
345.95475955051
344.73013433737
343.56525326066
342.45735954335
341.4035198433
340.40053142843
339.44504795947
338.53377203591
337.66374081388
336.83215817495
336.03637095965
335.27405586954
334.54273098872
333.84060357489
333.16554018174
332.51601492868
331.89024228256
331.28691881134
330.70453684025
330.14193061527
329.59795346343
329.07144582776
328.56158814122
328.06727042991
327.58791830288
327.1224627014
326.6704323096
326.2309428895
325.80351552589
325.38747986917
324.98229294311
324.58744817361
324.2024594476
323.82693128681
323.46041760759
323.10252478399
322.7528730594
322.41111657984
322.07692897886
321.75000159317
321.43004613408
321.11679168075
320.80998423635
320.50938405859
320.21476688032
319.92591557608
319.64261008807
319.3646874859
319.09069716579
321.05043975576
320.21391639729
318.86309386352
317.27012110783
315.37960129254
313.1259834025
310.43751405325
307.68113681505
306.2152548608
305.79307825842
305.72156027628
305.73872048315
305.76810435281
305.78165206412
305.80488226272
305.82759128025
305.84968496517
305.87054910156
305.89015653544
305.90801384529
305.92351967277
305.93606567177
305.94514699309
305.95041588422
305.95161020602
305.94879387067
305.94182137135
305.93114601201
305.91740914031
305.9012471631
305.88339940843
305.86467650238
305.84582034011
305.82377690012
305.80868619638
305.79621706898
305.78675198654
305.78019018946
305.77625800663
305.77459319375
305.77482378091
305.77634947503
305.77833893943
305.78033064757
305.78194656793
305.78293667664
305.78320770391
305.78169463775
305.77858751294
305.77362265133
305.76687197371
305.75848087957
305.74861760488
305.73750824081
305.72509176274
305.7112237308
305.69630108871
305.68093784216
305.66553679044
305.64945815984
305.63391571116
305.62109391065
305.62377098577
305.6379370583
305.66167333213
305.66718785365
305.72138984227
307.39942394858
359.88105094029
372.40359316878
371.79839634068
370.99726870201
370.12353680988
369.22301706261
368.29383756305
367.32998280054
366.31878623248
365.2452127988
364.10051253353
362.87552114566
361.56869257023
360.18282678436
358.73036896769
357.23067301996
355.70579508275
354.17803811746
352.66810707321
351.19212055015
349.76147910756
348.38356347006
347.06294089498
345.79986253048
344.59498369497
343.44693370614
342.35329173823
341.31112938796
340.3179264291
339.37089605849
338.46692811282
337.60309144793
336.77697611752
335.98589014607
335.22766797547
334.50005923808
333.80117411469
333.1290278994
332.48211239901
331.85870064322
331.25749891482
330.67701799119
330.11621608145
329.57375195855
329.04876381318
328.54014704305
328.04712710793
327.56881030788
327.10442365374
326.65331791617
326.21471070269
325.78810673899
325.3727932498
324.96834259647
324.57416148551
324.18980969167
323.81484133734
323.44885295469
323.09146208221
322.74228792739
322.40098223631
322.06721373516
321.74068176878
321.42110407009
321.10821101651
320.80174557654
320.50147008528
320.20716365788
319.91860622567
319.63558001483
319.35791371229
319.08544840524
321.0508810232
320.20951947814
318.86441397511
317.2801158187
315.40179126127
313.16427025705
310.49786108785
307.7590983553
306.27428956832
305.8333197063
305.75471649581
305.77313022099
305.80706483404
305.82330283295
305.85096533325
305.87767312355
305.9032756837
305.92730973568
305.94975682795
305.97014009157
305.98790234749
306.00244837304
306.01329520732
306.02009400526
306.02264661323
306.02096931677
306.01501276631
306.00514517388
305.99199736632
305.97619139814
305.95843646175
305.93944460608
305.9198479824
305.89663281297
305.88011817611
305.86567258568
305.8540099501
305.84518007368
305.83890813031
305.83492074443
305.83292510135
305.83238221724
305.832455879
305.83265904915
305.83259649526
305.83199318554
305.83072610346
305.82759926761
305.82286940201
305.81603853011
305.80716364425
305.79633569558
305.78385597865
305.77001141911
305.75489070685
305.73840901957
305.72104576106
305.7032104228
305.68527611752
305.66671803334
305.64900836739
305.63117989344
305.63257136789
305.64442618657
305.66540695251
305.66844559247
305.71861898475
307.36879240346
360.03348639412
371.79587919113
370.2516242595
369.19837930726
368.32542870885
367.48648931857
366.64979483131
365.78957315647
364.89360328594
363.93832805417
362.90901429509
361.79785493183
360.60504144918
359.33235868682
357.98857056063
356.58998572956
355.15718154495
353.710700741
352.27032036511
350.85322587743
349.47183900912
348.1350635683
346.84816620978
345.61433093203
344.43337130536
343.30507037369
342.22819082093
341.20060483568
340.21938974485
339.28255336311
338.38741694628
337.53134385478
336.71166092576
335.92634307805
335.17310849299
334.44992709022
333.75486799219
333.08629462494
332.4424196834
331.82180719252
331.22305795947
330.64489560442
330.0860700762
329.54547925469
329.02216257263
328.5150928085
328.02348248746
327.54641941904
327.0832736185
326.63322440594
326.19566835456
325.76996256276
325.35554305638
324.95190728117
324.5584946813
324.17487074242
323.80056172581
323.43520104636
323.0783907558
322.72976069041
322.38896621584
322.05568757148
321.72962450137
321.41048694744
321.0980065557
320.79193639323
320.49204356207
320.19810190149
319.90988227526
319.62717944542
319.34979465282
319.07937465794
321.05175738565
320.20417872543
318.86625544439
317.29291921539
315.42995441185
313.2128058618
310.5741706403
307.85586572379
306.3461116264
305.88136985835
305.79322750192
305.8121521234
305.85079856312
305.87056013457
305.9031100013
305.93416355624
305.96352877898
305.99087938109
306.01621577456
306.03909571278
306.05899147898
306.07534290471
306.08769380561
306.09571462074
306.09926937987
306.09834780861
306.09302797494
306.08360219126
306.07071706249
306.05500044178
306.03716349619
306.01786720453
305.99760452999
305.97359155435
305.95601024666
305.94001238281
305.92644735686
305.91564507658
305.90723382645
305.90103787269
305.89681709498
305.89408765899
305.89205682835
305.8902391378
305.88817701726
305.88556306769
305.88218678358
305.87675709755
305.86963446031
305.86012283535
305.84829437331
305.83419300753
305.81834386911
305.80114389492
305.78298772436
305.7634955814
305.74312756653
305.722214544
305.70095379196
305.67914214386
305.65830561368
305.6355394415
305.63371775792
305.64172376769
305.65900383756
305.66003078686
305.70555477398
307.31981235157
360.19021739756
362.98737064468
366.59230838944
366.33447831357
365.91746032769
365.43109098059
364.85911826702
364.20509682487
363.47891145073
362.68438624156
361.81568695584
360.86123856325
359.81732873231
358.68820941294
357.47913644306
356.20251771057
354.87678943866
353.52195872077
352.15729558211
350.80074458567
349.46700715764
348.16685127705
346.90786755714
345.69437754025
344.52899867736
343.41199785016
342.34246997128
341.31985599673
340.34214715889
339.40722630663
338.51243089481
337.65608082644
336.8357264248
336.04905351463
335.29398032304
334.56888467591
333.87177336834
333.20087701978
332.55468416852
331.93178762977
331.33068531534
330.75014317865
330.18899842765
329.64617377802
329.12059736667
328.6113442002
328.11759802166
327.63849854741
327.17333285419
326.72131671805
326.28188460677
325.85435846673
325.4381932059
325.03282749911
324.63776657778
324.2525756282
323.87676254213
323.50992746416
323.15166822945
322.80165032038
322.45952430222
322.12495941944
321.79764662156
321.47730096361
321.16366009733
320.85646891141
320.55548728146
320.26048812598
319.97127833247
319.68766652801
319.40936615842
319.12945481991
320.70477586735
320.49605421935
319.22079494336
317.72311320752
315.95534993705
313.85696848263
311.35614542884
308.58603016842
306.68341419838
306.00609031174
305.84393035613
305.84580457179
305.88675569392
305.92172095835
305.95947850099
305.995102764
306.02838228271
306.05909896497
306.08729409387
306.11255682603
306.13438722926
306.15227498054
306.16579869653
306.1746709462
306.17880854151
306.17821386005
306.17305027449
306.16361347197
306.15058098587
306.13460445667
306.11641219548
306.09665659461
306.07575453293
306.0917047543
306.07252897457
306.05460524638
306.03874941381
306.02544879915
306.01420107732
306.00491694866
305.99734340487
305.99104058455
305.9854142344
305.97995104709
305.97410074719
305.96747530224
305.95951165275
305.94915834473
305.9367313459
305.92151076153
305.90384723707
305.88441211192
305.86365166566
305.8413906411
305.81785904492
305.79272343622
305.76647633314
305.73952435367
305.71167817909
305.68324170875
305.65542462337
305.62584633395
305.6113261251
305.61462891867
305.62645156454
305.62301533679
305.66049283396
307.2049127785
360.40916326977
353.84767166405
359.05830345446
359.8888883549
360.28256698105
360.44564005093
360.4233493338
360.21700043457
359.85827431735
359.36889712652
358.76590666076
358.0555892317
357.24746292603
356.34673154712
355.35625239029
354.28680116302
353.15479174253
351.97837372931
350.77582849017
349.56411051028
348.35867049557
347.1716340229
346.01168273466
344.8846895665
343.79453125844
342.74331035709
341.73178303086
340.75986103665
339.82620574257
338.93030323137
338.07053006061
337.24517720259
336.45218888829
335.69011239402
334.95739178107
334.25228268964
333.57307147674
332.91850793155
332.28726049683
331.67793558992
331.08920386613
330.52000507703
329.9693500322
329.43615935844
328.91947512403
328.41846147377
327.93237679785
327.46043217834
327.00188294657
326.55607935077
326.12242730004
325.70035797045
325.28929624355
324.88873425245
324.4982188796
324.11730185065
323.74556810607
323.38258594904
323.02798438729
322.68142227962
322.34257560678
322.01113583689
321.68680953576
321.36932658981
321.05842742859
320.75386491479
320.45540345408
320.16280652461
319.87586466958
319.5943863504
319.31806726362
319.0576832937
321.05506457006
320.1826065118
318.87528948993
317.34953132576
315.5529773708
313.42438426743
310.90447652322
308.26360867862
306.64025799815
306.07045141341
305.93522497218
305.94737072592
305.99824047686
306.03105015593
306.07987849081
306.12519172073
306.1666708859
306.20422853195
306.23799842772
306.26763136461
306.29269915626
306.31280736125
306.32763905286
306.33702577333
306.3410167268
306.33978906049
306.3335495684
306.32276922236
306.30819093748
306.29055134284
306.2706447986
306.24918552688
306.22676533332
306.23639499091
306.21498274722
306.19491688888
306.17677298576
306.16084890209
306.14658776687
306.13371869918
306.12191329621
306.11087454372
306.10009913804
306.08895248042
306.07673754122
306.06298554629
306.0467022387
306.02752787502
306.00570236081
305.98160628106
305.95516126984
305.92614519982
305.89500894518
305.86130301974
305.82549896859
305.78793768563
305.74876369972
305.70799321937
305.66576010696
305.62212208317
305.57826499926
305.53265584419
305.49843680516
305.48395287399
305.48099950915
305.46567035516
305.48701375153
306.89685102373
360.63419527897
349.45279219719
354.04492343751
355.07940423627
355.72928242469
356.15439269066
356.41971886548
356.52041256599
356.47257142338
356.27100361313
355.9335423895
355.47260516307
354.90272133057
354.22257553381
353.4444004622
352.58130553844
351.64358867375
350.64661460711
349.60683074342
348.5406087385
347.46256974872
346.3857028393
345.32107449264
344.27647910024
343.25734609265
342.26725202788
341.30840919824
340.38203446917
339.48814918614
338.62667248181
337.79654199819
336.99674047374
336.22654425545
335.48455832543
334.76958188836
334.07994587041
333.41460818905
332.77249464821
332.15231027687
331.552850992
330.97295963538
330.41185735231
329.86843856912
329.34179592934
328.83098215951
328.33540131416
327.85423110194
327.38676659
326.9322915422
326.49022261614
326.06003525121
325.64113285417
325.23299564505
324.83513049304
324.44713125474
324.06856095793
323.69899155458
323.33803571527
322.98533091005
322.64055655129
322.30338150706
321.97349915351
321.65063791052
321.33453985765
321.02496292116
320.7216584619
320.4243831138
320.13290190521
319.8470414658
319.5665818658
319.29131380917
319.04267421759
321.0561007491
320.16302582416
318.88402726397
317.40250923726
315.66785949091
313.62198927297
311.21081390347
308.6401247004
306.91217838436
306.23872222263
306.05207580658
306.04884140397
306.10352834153
306.14523828612
306.20584412523
306.26173385387
306.31211064221
306.35687761884
306.39620897786
306.42983825855
306.45743226038
306.47872830285
306.49357430243
306.50196758313
306.50415991825
306.50056102187
306.49146465111
306.47758165902
306.45975565533
306.438841126
306.41571720423
306.39119393116
306.36595508893
306.36802752984
306.34381536635
306.3212223304
306.30068391831
306.28226524906
306.26504066274
306.2484524672
306.23225698146
306.21598011568
306.19896636145
306.18053060319
306.15998439827
306.13690184896
306.11065932035
306.08161966553
306.04898257323
306.01236756439
305.97158968525
305.92647902086
305.87787742467
305.82598472722
305.77062386785
305.71184847045
305.65040723515
305.58616198985
305.51928333539
305.44977812374
305.3788386218
305.30282718354
305.23950705114
305.18156185356
305.14847313909
305.09703751616
305.09199582262
306.34020349918
360.49116626019
346.7486141535
350.4309378815
351.45762867617
352.15237383644
352.66601820242
353.04974482746
353.30206850042
353.42044945737
353.41267588374
353.27084028323
353.00024559584
352.61269831523
352.12889241866
351.53723135053
350.85128556378
350.085437117
349.25125080408
348.3631644247
347.43627408051
346.48434671828
345.51994432289
344.55369164726
343.59500536229
342.65084115584
341.72613924039
340.82428187819
339.94745162915
339.09696660248
338.27336847553
337.47664054669
336.7065153161
335.96238124903
335.24320516407
334.54814089359
333.87664253812
333.22748814704
332.59982932991
331.99238954526
331.40434828055
330.83504477211
330.28338654536
329.74856064522
329.22956430969
328.72589580631
328.23677685108
327.76150780953
327.29938094213
326.84978491583
326.4122835061
325.98625252323
325.57118963014
325.16655247758
324.77195796051
324.38700039566
324.01123866536
323.64428223343
323.28574119664
322.93530579052
322.59266028496
322.2574815392
321.92947700815
321.60837113081
321.29392681909
320.98590492231
320.68406094456
320.38816645768
320.09801631634
319.81343050875
319.53422243401
319.26010276292
319.0274378594
321.05366607639
320.13796596756
318.89358105834
317.46586515212
315.80671352959
313.86180001329
311.58184056741
309.10596519397
307.26363354458
306.45366658329
306.19375710935
306.16204973616
306.21388315331
306.26261651845
306.3354954278
306.40306809583
306.46342648791
306.51618278785
306.5614155399
306.59893970837
306.62854413777
306.65013397941
306.6637878912
306.66978734185
306.66854136889
306.66069116409
306.64693328243
306.62814537537
306.60530936166
306.5794275121
306.55147092632
306.52236158484
306.49288801396
306.4864436513
306.4585292142
306.43262884523
306.4090013321
306.38748015521
306.36673325455
306.34572946086
306.32410099322
306.3012184737
306.27633239387
306.24888694531
306.2190447261
306.18643218839
306.14875375534
306.10538704829
306.05554248829
305.99885061398
305.93586050848
305.86710804692
305.79222596648
305.71182628325
305.62525743211
305.53229445361
305.43255891911
305.32593009299
305.21318761865
305.09434633721
304.97160309223
304.84363533306
304.71424381998
304.58874945638
304.49585550671
304.38966012028
304.29696143521
305.40417925662
359.47580970291
345.17935922517
347.560189146
348.59956221124
349.263949587
349.79563775792
350.2193666977
350.53831386597
350.75759965937
350.84957870744
350.83878560345
350.71448118142
350.47141445998
350.1180302787
349.68606475236
349.15287620769
348.53303314482
347.84204223688
347.09013630399
346.29117384476
345.45693140415
344.6000471307
343.73117809678
342.85890392098
341.99099231502
341.13348201349
340.29072829563
339.46588638269
338.66120778484
337.87801061059
337.11704687222
336.37855774662
335.66242010838
334.96835537736
334.29598621209
333.6445727128
333.01325725949
332.40153049491
331.80871906741
331.23385967621
330.67643344861
330.13534522382
329.61001508548
329.09997364591
328.60440986213
328.12272149335
327.65411610517
327.19813271155
326.7543171522
326.3220557207
325.90088185583
325.49021822741
325.08971031298
324.69897606942
324.31756059594
323.94508533084
323.58114817816
323.22546420763
322.87771217154
322.53755477074
322.20470576799
321.87887937646
321.55983476495
321.24733886701
320.94113447325
320.64099894195
320.34671573214
320.05808119519
319.77494190765
319.49706250818
319.22423463283
319.02264205544
321.04298371065
320.10587990688
318.90141912134
317.53588064199
315.96418755479
314.13626742938
312.00764968482
309.65914775716
307.71759292104
306.73580710875
306.37432903138
306.29566188908
306.33416594855
306.3854623456
306.46996922285
306.5501943967
306.62185223888
306.68371224887
306.7354853183
306.77702198609
306.80824867174
306.82933245909
306.84060321517
306.84260120175
306.8361402724
306.82223196737
306.80187220846
306.77626423217
306.74658169376
306.71396483676
306.67949942241
306.64420509129
306.60896883095
306.59294592661
306.56017868533
306.52987586935
306.50209928017
306.47630483553
306.4505403834
306.42349971961
306.39479476628
306.36377895363
306.33053781551
306.29471836116
306.25450082125
306.20664092087
306.15031708474
306.0844763946
306.00932081456
305.92457487459
305.8298844758
305.72561691289
305.6104766018
305.48361193011
305.34372195293
305.19084975044
305.02425389901
304.84490123174
304.65309427453
304.44938014635
304.23640505865
304.01453210565
303.78189508389
303.54270747867
303.34193422535
303.1308262866
302.90473092388
303.85407980346
356.07647903365
344.41898487539
345.15033650986
346.24707002214
346.86841137461
347.38074973072
347.80984688219
348.15575587366
348.42346305971
348.58402416912
348.64331186295
348.61808657429
348.48458421013
348.24594909597
347.92100914642
347.51048462219
347.02172544539
346.45069014366
345.81654814677
345.1313456113
344.40543442454
343.64844799308
342.8711166669
342.08259707728
341.29005497127
340.49987176235
339.7171539817
338.945653864
338.18827197664
337.44708960011
336.72345981968
336.01822013936
335.33183456466
334.66442325488
334.01584871221
333.3858142291
332.773996653
332.17992333412
331.60292130836
331.04219563858
330.49761758146
329.96842635608
329.45399558259
328.95388669989
328.46723710501
327.99354427709
327.53255061142
327.08357403836
326.64616437487
326.21979517655
325.80392096905
325.39833486143
325.00254804609
324.61615060482
324.23874349959
323.86994108525
323.50951599705
323.15711383936
322.81240873918
322.47510315019
322.14490270808
321.82158229743
321.50490776261
321.1946188035
320.89049399504
320.59229591781
320.29983234316
320.012963708
319.73145668219
319.45516010084
319.18377936254
319.03923245802
321.02672274744
320.06752382898
318.90513731604
317.6075427197
316.1323130411