/*--------------------------------*- C++ -*----------------------------------*\
| =========                 |                                                 |
| \\      /  F ield         | OpenFOAM: The Open Source CFD Toolbox           |
|  \\    /   O peration     | Version:  2312                                  |
|   \\  /    A nd           | Website:  www.openfoam.com                      |
|    \\/     M anipulation  |                                                 |
\*---------------------------------------------------------------------------*/
FoamFile
{
    version     2.0;
    format      ascii;
    arch        "LSB;label=32;scalar=64";
    class       volScalarField;
    location    "8e-05";
    object      Y.Liq;
}
// * * * * * * * * * * * * * * * * * * * * * * * * * * * * * * * * * * * * * //

dimensions      [0 0 0 0 0 0 0];

internalField   nonuniform List<scalar> 
109340
(
0.99999
0.99999
0.99999
0.99999
0.99998999999994
0.99998999999817
0.99998999994911
0.99998999915357
0.99998999493113
0.99998998239304
0.99998995467635
0.99998990305482
0.99998981702331
0.99998968428298
0.99998949061151
0.99998921960579
0.99998885223921
0.99998836620165
0.99998773495619
0.99998692644418
0.99998590133734
0.99998461079879
0.99998299357438
0.99998097214161
0.99997844738783
0.99997529118371
0.9999713356867
0.99996635742781
0.99996005269904
0.99995199773462
0.99994158097969
0.99992788086185
0.99990943041517
0.99988373630802
0.99984624023991
0.99978794319422
0.99999
0.99999
0.99999
0.99999
0.99998999999989
0.999989999997
0.99998999991627
0.99998999878172
0.9999899933915
0.99998997834784
0.99998994628851
0.99998988801892
0.99998979257067
0.99998964716202
0.99998943704148
0.99998914518172
0.99998875180659
0.9999882336656
0.9999875629994
0.9999867061382
0.99998562164542
0.99998425791929
0.9999825500868
0.99998041585293
0.99997774973518
0.99997441495808
0.99997023170485
0.99996495948104
0.99995826954432
0.99994969976491
0.99993857662889
0.99992387157933
0.99990391528431
0.9998757887812
0.99983389840625
0.99976655462654
0.99999
0.99999
0.99999
0.99999
0.99998999999995
0.99998999999866
0.99998999995358
0.99998999903947
0.99998999414599
0.99998997986507
0.99998994879645
0.99998989170322
0.99998979757626
0.99998965359809
0.99998944498964
0.99998915471302
0.99998876299336
0.99998824659941
0.99998757780003
0.99998672296088
0.99998564066488
0.99998427930142
0.99998257398038
0.99998044236078
0.99997777889982
0.99997444672985
0.99997026590255
0.99996499577592
0.99995830747855
0.99994973875438
0.99993861587775
0.9999239091125
0.99990393853174
0.99987572067812
0.99983332522109
0.99976325771495
0.99999
0.99999
0.99999
0.99999
0.99998999999999
0.99998999999972
0.99998999998368
0.99998999929888
0.99998999495999
0.99998998155661
0.99998995164844
0.99998989595384
0.99998980342118
0.99998966119085
0.99998945443546
0.99998916605793
0.99998877621105
0.99998826157388
0.99998759428893
0.99998674054371
0.99998565863105
0.99998429648771
0.99998258859235
0.99998045171536
0.99997777909011
0.99997443213879
0.99997022852381
0.99996492426015
0.99995818578911
0.99994954415887
0.99993831557876
0.99992345437582
0.99990324419673
0.99987457898838
0.99983098101148
0.99975569691342
0.99999
0.99999
0.99999
0.99999
0.99999
0.99998999999999
0.99998999999608
0.99998999947573
0.99998999564684
0.99998998317166
0.99998995457539
0.99998990044791
0.99998980951042
0.99998966858064
0.99998946236463
0.99998917310666
0.99998878006239
0.99998825871575
0.99998757947593
0.99998670641752
0.99998559478786
0.9999841883191
0.99998241581473
0.99998018622409
0.99997738215025
0.9999738503866
0.9999693884585
0.99996372448231
0.99995648583901
0.99994714792094
0.99993494491324
0.99991870773411
0.99989650985816
0.99986481405062
0.99981589550602
0.99972625948824
0.99999
0.99999
0.99999
0.99999
0.99999
0.99999
0.99998999997579
0.99998999884829
0.99998999234842
0.99998997300012
0.999989930481
0.99998985176755
0.99998972111754
0.99998951988211
0.99998922611376
0.99998881393441
0.99998825261139
0.99998750541494
0.99998652860595
0.99998526505582
0.99998364185002
0.99998156698917
0.9999789226646
0.99997555688087
0.99997127219584
0.99996580986171
0.99995882714718
0.99994986349476
0.99993828790413
0.99992321250897
0.99990334036733
0.99987670052145
0.99984002275419
0.99978726225327
0.9997048301544
0.99954592318329
0.99969199341363
0.9995335143039
0.99928286250329
0.99891842321682
0.9984295716599
0.99780631062433
0.99703482939662
0.99610204015866
0.9949961245261
0.99371314817799
0.99225377540833
0.99063821609192
0.98891043692624
0.98710596624934
0.98526512752233
0.98342750559009
0.98162370570012
0.97987608159424
0.97819913912439
0.97660102987125
0.97508585775274
0.97365360452464
0.97230188454998
0.97102711097163
0.96982470828756
0.96868990836207
0.96761858252643
0.9666054530624
0.96564580495778
0.96473698951296
0.9638729870332
0.9630525047646
0.96227047548245
0.96152544099243
0.96081364931743
0.96013344842527
0.95948200641769
0.9588578464573
0.95825857437556
0.95768309729382
0.95712925201516
0.95659633008361
0.9560823212649
0.95558676632309
0.95510790862782
0.95464534370536
0.95419769056155
0.95376439840256
0.95334454918056
0.95293742721025
0.95254244200352
0.95215889596111
0.95178624596012
0.95142393932927
0.95107147674771
0.95072837907613
0.95039420715899
0.95006854975944
0.9497510274203
0.94944128556836
0.94913899267992
0.94884383517363
0.94855551583862
0.94827375296497
0.94799827998502
0.94772884492635
0.94746521055509
0.9472071539494
0.94695446636282
0.94670695039254
0.9464636019885
0.94550761721412
0.94364981869687
0.94225999573566
0.94066155609995
0.93871750076119
0.93631875369894
0.93343613449307
0.93056013575208
0.92916414230993
0.9288718342127
0.92885278401372
0.928885407386
0.92891966697064
0.92895403568591
0.92897900121056
0.92900017878978
0.92901787430926
0.92903227034664
0.92904350407724
0.92905166091133
0.92905683724831
0.92905917710616
0.92905905626895
0.92905638674182
0.92905147698972
0.92904474347406
0.92903664047287
0.92902767235166
0.92901840173751
0.92900940594523
0.92900124490777
0.92899446847823
0.92898950845069
0.92898631445968
0.92898659087687
0.92898865793144
0.92899259281418
0.92899815623524
0.92900506576706
0.92901304591259
0.92902183097079
0.92903114135302
0.92904072168881
0.92905035474529
0.92905974180218
0.92906872629189
0.92907721761177
0.92908503501824
0.92909209715455
0.92909836412593
0.92910385758178
0.92910877085201
0.92911308542682
0.92911650949696
0.92911834672849
0.92911864196324
0.92911835503749
0.92911746598859
0.92911585840217
0.92911356295213
0.92911057255816
0.92910709366212
0.9291033280411
0.92909954803799
0.92909634731312
0.92909373998431
0.9290806100278
0.9287924062632
0.92094887041014
0.99964991234826
0.99944991590824
0.99913596162272
0.99869511988274
0.99812302335206
0.9974116630926
0.99655264029663
0.99553823458266
0.99436485399955
0.9930345246645
0.99155347122996
0.98994097886156
0.98823062490102
0.98645808250709
0.98465623576613
0.98285851150936
0.98109399373655
0.97938359323618
0.97774155973575
0.97617607392444
0.97469072496447
0.97328564570111
0.97195881253523
0.97070677852145
0.96952551646513
0.96841004238429
0.96735576613543
0.96635827195118
0.96541328526102
0.96451686288091
0.96366530165839
0.96285516378953
0.96208343850535
0.96134718330367
0.96064390430809
0.95997116330043
0.95932688330096
0.95870904928833
0.9581159216422
0.95754582883287
0.95699732405841
0.95646900693916
0.95595965676826
0.9554681019904
0.95499330883507
0.95453429155025
0.95409016004356
0.95366008698915
0.95324330565359
0.9528391191425
0.95244686199413
0.95206593504306
0.95169576197814
0.95133581563829
0.95098559683071
0.95064464169065
0.95031251613156
0.9499888180398
0.94967317341441
0.9493652337309
0.94906467136367
0.94877117612669
0.94848445416135
0.94820422721982
0.94793023231936
0.94766222143412
0.94739996075087
0.94714323013738
0.94689182201612
0.94664553775185
0.94639748285395
0.94489287135449
0.94330882828534
0.94188709123971
0.94021617329177
0.93817211395239
0.93565381767326
0.93268835470649
0.93005816729916
0.92904966097227
0.92886446540775
0.92886766384296
0.92890395893241
0.92893900097937
0.92896235716106
0.92898849944077
0.92901080296003
0.92902957478621
0.92904499220271
0.92905718804245
0.92906625416514
0.92907228320431
0.92907541343898
0.92907595698237
0.92907396101814
0.92906963348133
0.92906338279108
0.92905565098696
0.9290469160688
0.92903770662189
0.92902857345886
0.92902005828423
0.92901270447744
0.92900696258995
0.92900255226879
0.92900203450546
0.92900336704434
0.92900656155639
0.92901147833773
0.92901785644154
0.92902542292979
0.92903390507008
0.92904302721877
0.92905251524289
0.92906213536472
0.92907161246369
0.92908073990893
0.92908944123699
0.92909750974719
0.92910487260076
0.92911147244244
0.92911729137292
0.92912247343732
0.92912703880698
0.92913079748688
0.92913303792696
0.92913358514839
0.92913338124197
0.92913259280991
0.92913109256248
0.92912888697234
0.92912594544544
0.9291224891615
0.92911871543229
0.92911491576141
0.92911173119727
0.92910893630361
0.92909587820658
0.92881406836604
0.92111343254227
0.9996323863883
0.99938859545314
0.9990014230934
0.99847086793947
0.99780651519818
0.99700561429298
0.99607040008046
0.99499970361532
0.99379477965587
0.99245736807697
0.9909962170367
0.9894274944575
0.98777017805704
0.98605287888235
0.98430691255267
0.98256084024107
0.98084259138041
0.9791724420598
0.97756448793848
0.97602727697266
0.97456509701955
0.97317907608519
0.9718679214444
0.970628767659
0.96945785688541
0.96835114833635
0.96730456379572
0.9663135584951
0.9653741747498
0.96448251637685
0.96363509824213
0.9628286051936
0.96206000873483
0.96132653804487
0.96062563763801
0.9599550328684
0.95931259140831
0.95869641690682
0.95810472419875
0.95753592588086
0.95698853346149
0.95646120810236
0.95595271278028
0.95546191303506
0.95498778013211
0.95452934067171
0.9540857275444
0.95365610338766
0.95323973107056
0.95283589278235
0.95244394965478
0.95206328781138
0.95169334999491
0.9513336073879
0.95098356734168
0.95064276959009
0.95031078280031
0.94998720775301
0.94967167168321
0.94936382713827
0.94906334742412
0.94876992336575
0.94848326218453
0.94820308730156
0.9479291373616
0.94766116583166
0.94739894045072
0.94714224200134
0.94689086252119
0.9466446030488
0.94639632586025
0.94488597453488
0.94330746390501
0.94188829769033
0.94022203211432
0.93818510015516
0.93567578224109
0.93271990649693
0.93009152653496
0.92906989078155
0.92887753976187
0.9288796556037
0.9289178563327
0.92895560382786
0.92897947356317
0.92900802487041
0.92903261108458
0.92905353783505
0.92907097337121
0.92908504581905
0.92909585417107
0.92910348260321
0.92910805782554
0.92910978182848
0.92910896819007
0.92910561828474
0.92910014067892
0.92909297249613
0.9290845684353
0.92907542107479
0.92906604561416
0.92905695656238
0.92904867055733
0.92904164208093
0.92903525848581
0.92903318417664
0.92903335769051
0.92903526723458
0.92903899478339
0.92904436424415
0.92905113429692
0.92905903676554
0.92906778703928
0.92907709620464
0.92908668541504
0.9290963378513
0.92910578302718
0.9291149271928
0.92912355585725
0.92913159838877
0.9291389426798
0.92914546859915
0.9291512553467
0.92915637235601
0.92916079765648
0.92916382688966
0.9291649668754
0.92916493684521
0.92916434572332
0.92916305610915
0.92916103875264
0.92915822002134
0.92915487880778
0.92915112253146
0.92914728436011
0.92914399618248
0.9291408592981
0.92912816139442
0.92886711527145
0.92168744926816
0.99959382497593
0.99924722339085
0.99870812447704
0.99801383806423
0.99719676261813
0.99627269395273
0.99524995747489
0.99413413247609
0.99292261573741
0.99161181422898
0.99020967046709
0.9887170857932
0.98714430698451
0.98551157064938
0.98384421425685
0.98216869276747
0.98051108681626
0.9788926937296
0.97732817928318
0.97582730080015
0.97439534324162
0.97303415896048
0.971743439265
0.97052120387833
0.96936436993432
0.96826930210756
0.96723223397131
0.96624953385471
0.96531724212166
0.96443172534398
0.96358958817076
0.96278771958074
0.96202316165978
0.96129325533511
0.96059551380873
0.95992771378798
0.95928777742642
0.95867384797418
0.95808418437727
0.95751722292235
0.95697148735086
0.95644566421802
0.95593851621886
0.95544894385931
0.95497590729476
0.95451847319608
0.9540757616725
0.953646969408
0.95323134862561
0.95282819840893
0.95243687788566
0.95205677832234
0.95168734711633
0.95132805887409
0.95097843048929
0.9506380052339
0.950306358316
0.94998309321532
0.94966783972648
0.94936025199331
0.94906000484703
0.94876679099459
0.94848031951531
0.94820031577979
0.94792652064048
0.94765868998633
0.94739659370204
0.94714001396978
0.94688874335169
0.94664258172969
0.9463940539117
0.9448763753864
0.9433050370686
0.94188999972227
0.9402306823987
0.93820426780366
0.93570828464913
0.93276659917822
0.93013998866088
0.9290984664884
0.92889534187868
0.9288954078975
0.9289358319778
0.92897707295992
0.92900282328534
0.92903464810908
0.92906232407939
0.92908613449268
0.92910623840723
0.9291227509439
0.92913576695442
0.92914536744449
0.92915166150578
0.9291548227232
0.92915519540509
0.92915284402462
0.92914807619265
0.92914135160112
0.92913312826701
0.92912389015254
0.92911413848091
0.92910437843994
0.92909509932685
0.92908671902353
0.92907835604804
0.92907458899949
0.92907331730796
0.92907403322427
0.92907643668318
0.92908060861026
0.92908639691494
0.92909357380488
0.92910185792307
0.92911094260847
0.92912052518073
0.92913035791178
0.92914024864124
0.92915002686798
0.92915949729567
0.92916857474274
0.92917701493228
0.92918457965914
0.92919128548536
0.92919721773197
0.92920251119499
0.929206503101
0.92920846562554
0.92920873878799
0.92920834924434
0.92920731190342
0.92920552374309
0.92920285515011
0.92919966687006
0.92919589734465
0.92919193962143
0.92918841476991
0.92918486922892
0.92917225028361
0.92892025150089
0.92183304083377
0.99946621702724
0.99882162419593
0.99796028969787
0.99701947443572
0.99604607780108
0.99504209112829
0.99400025667462
0.99290943583854
0.99175490191638
0.99052814594403
0.9892207076274
0.98783254720034
0.98636729880312
0.984839076078
0.9832693846238
0.98168224575617
0.98010052842665
0.97854595931734
0.97703497500368
0.97557855328348
0.97418339687115
0.97285284475321
0.97158748969157
0.97038623169744
0.96924686773211
0.96816645179862
0.96714170533607
0.96616920906001
0.96524572732019
0.96436775118516
0.96353210851558
0.9627358266818
0.96197613809334
0.96125047787048
0.96055650083701
0.95989202414099
0.95925506307066
0.95864378152893
0.95805651385937
0.95749170485818
0.9569479316591
0.95642388225242
0.95591835901287
0.95543026483569
0.95495858323966
0.95450239009308
0.95406081890026
0.95363308285605
0.95321843460877
0.95281618927044
0.95242570025491
0.95204637081542
0.95167764536183
0.95131900600933
0.95096997372572
0.9506300981571
0.95029896096325
0.94997616835705
0.94966135286513
0.94935416984131
0.94905429566117
0.94876142490382
0.94847526876559
0.9481955548918
0.94792202679531
0.94765444302083
0.9473925756672
0.94713620859506
0.94688513475531
0.9466391529782
0.94639034432724
0.94486360349424
0.94330161757855
0.9418922379743
0.94024227428797
0.93822992073139
0.9357518948281
0.93282926854543
0.9302037090014
0.92913485313943
0.92891700248795
0.92891368331867
0.92895625629604
0.92900145097539
0.92903012381995
0.92906581784892
0.92909714293565
0.92912433769327
0.92914754197013
0.92916685040208
0.92918233839011
0.92919408360017
0.92920217766446
0.92920678503504
0.92920820843301
0.92920670157888
0.92920240874539
0.92919584927234
0.92918751567364
0.92917791701159
0.929167577091
0.92915701742992
0.92914672125441
0.92913704444667
0.92912699342903
0.92912175171161
0.92911897184202
0.92911870926188
0.9291200444502
0.92912313726839
0.92912798469588
0.92913444633581
0.92914228225114
0.929151189602
0.92916084428041
0.92917097936601
0.92918139613142
0.92919195683559
0.92920252543062
0.92921297453529
0.92922281259835
0.92923170813691
0.92923959980529
0.92924652971067
0.92925274368176
0.92925762175095
0.92926032903151
0.92926098217835
0.9292607328927
0.92925990115831
0.92925828506962
0.92925568688074
0.92925253850171
0.92924857660138
0.92924429634318
0.92924031948934
0.9292361542544
0.92922328865848
0.92897688920481
0.92187284881415
0.9985979476639
0.99703562691789
0.99596061355448
0.9950471684525
0.99415929433282
0.99326691273998
0.99234519020112
0.99138236177279
0.99035747158774
0.98925707993827
0.98807502840835
0.98681168821112
0.98546991211551
0.98405967761946
0.98259914652119
0.98111068576018
0.97961598398984
0.97813586232402
0.97668728813193
0.9752827955946
0.97393080934997
0.97263607248698
0.97140053201601
0.97022416173668
0.96910562323991
0.96804272626911
0.96703275026818
0.96607276610658
0.96515990459735
0.96429099719098
0.9634631648152
0.96267360698473
0.96191974733004
0.9611991642012
0.96050964402571
0.95984910405968
0.95921563513569
0.95860746418077
0.95802297486676
0.95746065330882
0.9569191211908
0.9563970968234
0.95589341974793
0.9554070066152
0.95493686969776
0.95448208889719
0.95404182155233
0.95361528547146
0.95320175027031
0.95280053810389
0.95241100899941
0.95203257340301
0.95166467669868
0.95130680864123
0.9509584921529
0.95061928446196
0.95028877168786
0.94996656441398
0.94965229773913
0.94934562807492
0.9490462328546
0.94875380793748
0.94846806659717
0.94818873885371
0.947915570793
0.9476483234218
0.94738677106244
0.94713069922034
0.94687990079424
0.9466341743173
0.94638503444297
0.94484751525041
0.94329714893418
0.94189507993132
0.94025699325015
0.93826241257129
0.93580726122738
0.93290884454612
0.93028308913195
0.92917873070666
0.92894180136798
0.92893339791476
0.92897768745196
0.92902704436405
0.92905941475659
0.92909941361774
0.92913481446397
0.92916578778815
0.92919243499407
0.92921481852913
0.92923298506792
0.92924699540357
0.92925692848383
0.92926294033523
0.92926529003103
0.92926441001676
0.9292603235737
0.92925361100725
0.92924482304021
0.92923452189471
0.92922328779794
0.92921169468448
0.92920023969232
0.92918921896939
0.92917766724014
0.92917108998805
0.92916695854563
0.92916567807291
0.92916640476897
0.92916874310422
0.92917289298753
0.92917880802334
0.92918632682241
0.92919518739623
0.92920506483012
0.929215680821
0.92922683629178
0.92923839576838
0.92925022714998
0.92926231799892
0.92927381359119
0.92928419927946
0.92929339688488
0.92930126649826
0.92930807031706
0.92931336304658
0.92931627396833
0.92931705557314
0.92931682956938
0.92931598305031
0.92931422659274
0.92931135428074
0.929307876509
0.9293032968666
0.92929828772912
0.92929341524676
0.92928831377092
0.92927499549318
0.92903521158636
0.92190901491359
0.98756340515502
0.99285888520764
0.99273974044871
0.99237628216845
0.99190020507648
0.99131204299128
0.99062903797085
0.98986499841667
0.98902195193374
0.9880978438198
0.98708419324664
0.98597988382975
0.98479131284563
0.98352494112591
0.98219410005504
0.98081849281689
0.97941964050443
0.97801762370554
0.97663161417835
0.9752760093101
0.97396128656278
0.97269446712531
0.97147947006872
0.97031798887511
0.96921001496712
0.96815436365137
0.96714914805434
0.96619203695736
0.96528058763307
0.96441201516621
0.96358366925584
0.96279299652769
0.9620375620604
0.9613150725665
0.96062339930177
0.95996056165909
0.95932470397921
0.95871409707611
0.95812714768089
0.9575623756448
0.95701841828165
0.95649401338902
0.95598800817195
0.95549933136502
0.95502700017716
0.95457009542442
0.95412777411395
0.95369925014063
0.95328379684252
0.95288073433387
0.95248942508772
0.95210927628678
0.95173973135851
0.95138027625614
0.95103042965422
0.95068974683647
0.9503578120175
0.95003423513216
0.94971864855871
0.94941070536142
0.94911007980374
0.94881646474575
0.94852957091746
0.94824912591474
0.94797487407178
0.94770657529065
0.94744400326966
0.94718694410596
0.94693519716697
0.94668857642319
0.94644566009675
0.94542199805154
0.94362606164372
0.94226323570007
0.94070912533171
0.93883437231375
0.93652800303916
0.93374960130996
0.9309233889229
0.92939167857386
0.92899820140433
0.92894826702831
0.92898591260844
0.92903929300232
0.92908915361088
0.92913381420747
0.92917366779765
0.92920879172425
0.92923922127094
0.9292649696829
0.92928604504132
0.9293024768295
0.92931432797608
0.92932173929319
0.92932496809495
0.92932450794131
0.9293203920697
0.92931323012625
0.92930364920317
0.92929228602352
0.92927979721802
0.92926683602567
0.92925397566966
0.92924150988676
0.92925513088099
0.92924625450523
0.92924005532162
0.92923712711609
0.92923716274982
0.92923876752995
0.92924229311547
0.92924781570672
0.92925527595641
0.92926448438164
0.92927514718268
0.92928697850768
0.92929976663437
0.92931333896902
0.92932748440954
0.92934198220214
0.92935549069157
0.92936724335001
0.92937725877885
0.92938545674439
0.9293917067171
0.92939615833548
0.92939808809105
0.92939805994632
0.92939710335956
0.92939504869689
0.92939178527702
0.92938734366045
0.92938203675721
0.92937571244158
0.9293690792041
0.92936251436441
0.92935634963296
0.92934334187638
0.92911790627751
0.92197754380074
0.97723937793464
0.98477053328439
0.98575859149644
0.98627693162614
0.98651446520176
0.98653584836192
0.98635376071852
0.98599260168444
0.98549315581568
0.98487002421598
0.98412971327538
0.9832836968299
0.9823423136274
0.98131191749487
0.98020460730959
0.97903784586224
0.97783101864039
0.9766030520408
0.97537098135977
0.97415132947931
0.97295616115123
0.97179371050582
0.9706696036253
0.96958710834482
0.96854773892163
0.96755183591317
0.9665987988256
0.96568750211667
0.96481631191663
0.96398329504685
0.96318647003572
0.96242387642419
0.96169354237753
0.96099356368029
0.96032212523262
0.95967752640263
0.95905816417512
0.95846251385326
0.95788915508524
0.95733676730455
0.956804127271
0.95629010441019
0.95579365188717
0.9553137957677
0.95484962311494
0.95440028603267
0.95396499487296
0.95354301569994
0.9531336617009
0.95273629380905
0.95235031718962
0.95197517398136
0.95161034136143
0.95125532651916
0.95090967103338
0.95057294791942
0.9502447591375
0.94992473070841
0.94961250900832
0.94930776153579
0.94901017482725
0.9487194533814
0.94843531736631
0.94815750283978
0.94788576220002
0.94761986292519
0.94735958506181
0.94710471705147
0.94685505497799
0.94661039795562
0.94635953270317
0.94477937979756
0.94327664654368
0.9419073358324
0.94032129466339
0.9384039230765
0.93604963052499
0.93325776807476
0.93062422178258
0.92935794359735
0.92903208064149
0.9289944015294
0.92903809338221
0.92909916903718
0.92914550043297
0.92920047647223
0.92925039506336
0.92929503968348
0.92933424318199
0.92936784383042
0.92939570614926
0.92941775682532
0.92943399294913
0.92944450369452
0.92944953710292
0.92944966291791
0.92944499444904
0.9294362105026
0.92942412834807
0.9294095916939
0.92939347734346
0.92937666120243
0.92935996682381
0.92934399239008
0.92935139505901
0.92933906690641
0.92932994600555
0.92932472559646
0.92932373458785
0.92932495907276
0.92932829126457
0.92933397343348
0.92934203611366
0.92935236385949
0.92936470600424
0.9293787584725
0.92939420858165
0.92941071825201
0.92942771310195
0.92944369764028
0.92945769356512
0.92946875372988
0.92947674432232
0.92948251782924
0.9294850660004
0.92948500971937
0.92948350516653
0.92947997290948
0.92947451302329
0.92946741971673
0.92945888946907
0.92944918253626
0.92943868211591
0.92942778848887
0.92941738988177
0.92940694822508
0.92939816206823
0.92938469884092
0.92918650767116
0.92208081466635
0.97195939681079
0.97952134283403
0.98071232480133
0.98145453555095
0.98196244197039
0.9822940445024
0.98243951336963
0.98241504650215
0.98222914772032
0.98188426318056
0.98142050932005
0.98083867489992
0.9801365508328
0.9793342063313
0.97844620794793
0.97748503094062
0.97646738744773
0.97541096654531
0.97433231651422
0.97324602100204
0.9721656366664
0.97110206075459
0.97006291620893
0.96905343985889
0.96807684893511
0.96713488936835
0.96622834681768
0.96535711415815
0.96452047226208
0.96371740983932
0.96294664168156
0.96220675408777
0.96149631268588
0.96081385249596
0.96015790327063
0.95952703838373
0.95891989433404
0.95833516117391
0.95777158040407
0.95722796850248
0.95670322659338
0.9561963253088
0.95570630004488
0.95523226028421
0.95477337126736
0.95432884484253
0.95389793822872
0.95347996053126
0.95307426657118
0.95268024958057
0.95229734589874
0.95192503269459
0.95156281848264
0.95121023658923
0.9508668445655
0.95053222653377
0.95020599422063
0.94988778439804
0.94957725692943
0.94927409241205
0.94897798999702
0.94868866459763
0.94840584516723
0.94812927432633
0.94785870895488
0.94759392005119
0.94733469031291
0.94708081228277
0.94683208779293
0.94658832376185
0.94633518701137
0.94471623070149
0.94325612758287
0.94191788479924
0.94038076786376
0.93853571707478
0.93627736498642
0.93358815039702
0.93095266524919
0.9295287752572
0.92910874581405
0.9290350107627
0.9290699548708
0.92913601511023
0.92919260504084
0.92925905864714
0.92932070992909
0.92937679424594
0.9294267863057
0.92947022958286
0.9295067436751
0.92953604292975
0.92955798266288
0.92957256001393
0.92957996556852
0.9295808153305
0.92957532315868
0.92956424597054
0.92954863223375
0.92952960495119
0.92950835858479
0.92948608396114
0.9294639126309
0.92944278813728
0.92944277794283
0.92942614883579
0.92941350769468
0.92940563906064
0.92940326713529
0.9294042475587
0.92940767050604
0.92941392450159
0.92942310328786
0.9294351096681
0.92944967997151
0.92946637375682
0.92948446822471
0.92950292030194
0.9295199547526
0.92953360687738
0.92954374144113
0.92955031877519
0.92955192597771
0.92955068621602
0.92954667040985
0.92953960354321
0.9295298889893
0.92951839112927
0.92950528251531
0.92949052126965
0.92947406645828
0.92945593338456
0.92943605737909
0.92941466261877
0.92939265530582
0.92936980165456
0.92934897869073
0.92932610365684
0.92915394926931
0.92224388418656
0.96772833191223
0.97572240371922
0.97697775850035
0.97775007522207
0.97833368958366
0.97876697575956
0.97907551122092
0.97922751016485
0.97923389360112
0.97911514458956
0.97884209149435
0.97845685941989
0.97797177874572
0.97737159273282
0.97667234700962
0.97589309211051
0.97504721141258
0.97414942333169
0.97321598819066
0.97226128902469
0.9712978529663
0.97033617445349
0.96938568471199
0.96845309897051
0.9675432376937
0.96665928982479
0.96580315903662
0.96497576127362
0.96417739358288
0.96340785261718
0.96266650797317
0.96195250211822
0.96126487397317
0.96060256473662
0.95996446647326
0.95934945616872
0.9587564106586
0.9581842663018
0.95763198232645
0.95709854965646
0.95658300464268
0.95608443826192
0.95560199489209
0.95513484824179
0.95468223403591
0.95424343959481
0.95381778070939
0.95340460845782
0.95300332155597
0.95261335846978
0.95223418516862
0.95186530561001
0.95150625716766
0.95115660246955
0.95081592599882
0.9504838322644
0.95015994657151
0.9498439162072
0.94953541307659
0.94923413386501
0.94893979387407
0.94865212129155
0.94837085505499
0.94809574573658
0.94782655701504
0.94756306456976
0.94730505686105
0.9470523338722
0.94680470309725
0.94656197775799
0.94630478311442
0.94463708157679
0.94322850100205
0.94192837271641
0.94045099045102
0.93869444920574
0.93655513303463
0.93399689139895
0.93138007880434
0.92976350136154
0.92920977619262
0.92907960354565
0.92909505486385
0.92916079907633
0.92922655932942
0.92930510483689
0.92938009792488
0.9294497755079
0.92951299543166
0.929568818053
0.9296164648208
0.92965531744554
0.92968495376169
0.92970521111914
0.92971615922133
0.92971838446373
0.92971224412465
0.92969853730662
0.92967857512739
0.92965382600512
0.92962590473879
0.929596426305
0.92956697438527
0.92953891873643
0.92952999341351
0.92950802758082
0.92949115800008
0.92948032173302
0.92947652195471
0.92947736429044
0.92948117504169
0.92948849832003
0.92949941492309
0.92951372082899
0.92953097734313
0.92955014450441
0.92956960130104
0.92958563232995
0.92959772346045
0.92960505952871
0.92960607485652
0.92960334748463
0.92959612014349
0.92958483362187
0.92957026610653
0.92955216050573
0.92952987861869
0.92950255063025
0.92946984177902
0.92943163446847
0.92938818531157
0.92933952268673
0.92928603774592
0.92922751077996
0.92916654243515
0.92910316188686
0.92903880091583
0.92898014533844
0.92881079585612
0.92242683143481
0.96378106668393
0.97270202836743
0.97403187397369
0.97480109499833
0.97539047467099
0.97585834410518
0.9762196352475
0.976468082789
0.97659008731717
0.97659468737644
0.97649134039576
0.97624400071503
0.97589900038722
0.9754725577435
0.97494084126468
0.97431565684832
0.97361827891827
0.97286407044311
0.97206385227894
0.97123089372691
0.97037844580953
0.96951723501131
0.96865552966639
0.96780135900674
0.9669603250626
0.96613656770867
0.96533310369169
0.96455193747808
0.96379423524488
0.96306050392347
0.96235078434749
0.96166482758744
0.96100211717182
0.96036198450685
0.95974367978186
0.95914637626675
0.95856919877383
0.95801127370547
0.95747175783708
0.95694981346244
0.95644464845281
0.95595547837418
0.95548156430952
0.95502220374969
0.95457669801412
0.95414440078933
0.95372470658507
0.95331702529745
0.95292079782326
0.95253550113726
0.9521606463697
0.9517957636017
0.95144041139878
0.95109417718254
0.95075667161676
0.95042752592142
0.95010638663164
0.94979291706993
0.94948680050192
0.94918774434398
0.94889547924952
0.94860974866173
0.9483303032825
0.94805690335874
0.94778932026838
0.94752733898376
0.9472707560057
0.94701937667274
0.94677301443694
0.94653149268898
0.94626685741659
0.94454165016119
0.94319137630058
0.9419354521251
0.94052722885369
0.93887340340184
0.93687428066822
0.93447674464904
0.93191871754228
0.93009479344
0.92935544261262
0.92913927502154
0.92911918431683
0.92917524891242
0.92924610771474
0.92933593109828
0.92942531869014
0.92951063824324
0.92958969424752
0.92966077265129
0.92972247055274
0.92977366245477
0.9298135197376
0.9298415805662
0.9298577330693
0.92986241966351
0.92985619801534
0.9298398335573
0.92981491122811
0.92978330647043
0.92974712468938
0.92970856402337
0.92966982692685
0.92963285363056
0.92961305065344
0.92958462134993
0.9295629201873
0.92954919217522
0.92954453313851
0.92954563305984
0.9295505394101
0.92955990057718
0.92957354936591
0.9295909457497
0.92961107699787
0.92963100809432
0.92964601797934
0.92965524559014
0.92965669097178
0.92965306613623
0.92964317964992
0.92962778669949