/*--------------------------------*- C++ -*----------------------------------*\
| =========                 |                                                 |
| \\      /  F ield         | OpenFOAM: The Open Source CFD Toolbox           |
|  \\    /   O peration     | Version:  2312                                  |
|   \\  /    A nd           | Website:  www.openfoam.com                      |
|    \\/     M anipulation  |                                                 |
\*---------------------------------------------------------------------------*/
FoamFile
{
    version     2.0;
    format      ascii;
    arch        "LSB;label=32;scalar=64";
    class       volScalarField;
    location    "8e-05";
    object      Ybar.Liq;
}
// * * * * * * * * * * * * * * * * * * * * * * * * * * * * * * * * * * * * * //

dimensions      [0 0 0 0 0 0 0];

internalField   nonuniform List<scalar> 
109340
(
0.99909011896186
0.99908653647015
0.99907961337054
0.99907115309556
0.99906171260582
0.99905177019829
0.99904150785007
0.99903097690302
0.99902014452334
0.99900849907291
0.99899518398919
0.99897925763643
0.99895957843583
0.99893477004858
0.99890319783609
0.99886293155535
0.99881167816037
0.9987466939308
0.99866465647456
0.9985614930589
0.99843213756376
0.99827023130176
0.99806771264701
0.99781426243937
0.99749651585794
0.99709695416184
0.99659226721441
0.99595086903192
0.99512896099433
0.99406400036012
0.99266327807788
0.99078265642611
0.98818432444824
0.98444798876883
0.97877423865371
0.96952413931573
0.99909068439761
0.9990860648283
0.99907828082654
0.9990692298395
0.99905949345894
0.99904949341253
0.99903934776848
0.99902898815204
0.99901808736305
0.99900610546797
0.99899225843897
0.9989755621165
0.99895481468683
0.99892857507501
0.99889513649777
0.99885247888685
0.99879820984863
0.99872945673401
0.99864272939319
0.99853373334431
0.99839711558143
0.99822613912663
0.99801224245557
0.99774443752936
0.99740845376527
0.99698552038413
0.9964505605985
0.99576942014738
0.99489442769748
0.99375693397508
0.99225403537976
0.99022327962997
0.9873905036616
0.98325510788667
0.97680686050209
0.96585728409674
0.99909271842016
0.9990873703829
0.99907880330719
0.99906954002484
0.99905988908446
0.99905003568638
0.99903995037062
0.99902957764275
0.9990186713848
0.99900670265833
0.99899289716768
0.99897626652518
0.99895560368301
0.99892946417808
0.99889614017123
0.99885361553962
0.99879949763841
0.99873091713864
0.99864438647867
0.99853561522285
0.99839925095625
0.99822855677789
0.99801497081961
0.99774750166644
0.99741187424738
0.9969893093062
0.99645471826937
0.9957739342559
0.99489927617464
0.99376207651821
0.99225936850159
0.990228302306
0.98739175721943
0.98323288574984
0.97666063977037
0.96503516821088
0.99909554285078
0.99908909865026
0.99908011097269
0.9990705966972
0.99906076765364
0.99905071500442
0.99904046717554
0.99902999307249
0.99901903931824
0.99900707383541
0.99899332208511
0.99897679024406
0.998956264025
0.99893029269787
0.99889716081921
0.99885484364342
0.99880094022959
0.99873257105114
0.99864623182942
0.99853761349143
0.99840132400644
0.99823057552219
0.99801673244137
0.99774869545759
0.99741204271413
0.99698778117049
0.99645052057606
0.99576566387938
0.99488491181845
0.99373867725161
0.99222254123636
0.99017113770983
0.98730014338789
0.98306562234613
0.97624514157217
0.96335789030195
0.99909997967934
0.99909161402497
0.99908132430564
0.99907116561185
0.99906107219052
0.99905092315168
0.99904064621435
0.99903019575721
0.99901930563058
0.99900743802972
0.99899382175765
0.99897745411347
0.99895709921093
0.99893127384241
0.99889821409837
0.99885582541271
0.99880161104278
0.9987325615534
0.99864494776745
0.99853423830756
0.99839465614728
0.99821891138391
0.99799767494589
0.99771887255658
0.99736674968503
0.99692044259752
0.99635194901186
0.9956229907397
0.9946800119108
0.99344575477613
0.99180407846901
0.98957182715476
0.9864308071653
0.98176056454494
0.974075713363
0.95815875671422
0.99910818869561
0.99909289362607
0.99908151184231
0.99907109380294
0.99906094231711
0.99905077113686
0.99904047733284
0.99902993605588
0.99901874069105
0.99900613707172
0.99899105733579
0.99897210992567
0.99894756593492
0.99891532416165
0.99887285295253
0.99881710387654
0.99874439038252
0.99865025727332
0.99852936201382
0.99837430147771
0.99817592764662
0.99792248987918
0.99759876203456
0.99718487658087
0.99665471025204
0.99597356763322
0.99509481467193
0.9939547558201
0.99246449182565
0.99049621568407
0.98785801848399
0.98425170843979
0.97915548536958
0.97155249320483
0.95894074239465
0.93081271986014
0.95360955420955
0.92692743588812
0.88597347331506
0.83037256901203
0.7626325327675
0.68545645450008
0.60214971940392
0.51638578051472
0.43213584195801
0.35325558555629
0.28122857373358
0.22201523630008
0.17296985533523
0.13394358213325
0.10393025030566
0.08095308791541
0.063539009952453
0.050324678964543
0.040254738988265
0.032564514652878
0.026649139069204
0.022033381609554
0.018401728200902
0.015521644226858
0.013199578176142
0.011319246853499
0.0098132072062724
0.0085230447001629
0.0074752158585041
0.0065966085733785
0.0058353523965567
0.0052192605334187
0.0046582147321773
0.0042069495944535
0.0037868855931177
0.0034471453593114
0.0031266979671655
0.0028654153344422
0.0026168575925915
0.0024121112952069
0.00221701098732
0.0020531664419406
0.0018993237825227
0.0017651268735131
0.0016431877929961
0.0015309509841072
0.001432532571945
0.0013389106481289
0.0012576118694541
0.0011807456640299
0.0011111712667001
0.0010470998600412
0.00098823696031302
0.00093402267062487
0.00088396826038352
0.00083764988415841
0.00079471062944002
0.0007548392895582
0.00071776360167981
0.00068323315689266
0.00065101995719047
0.00062092151887913
0.00059276210150764
0.00056638528371356
0.00054164808762928
0.0005184196380555
0.00049658447123329
0.00047604100391757
0.00045669301107951
0.00043844494789987
0.00042115713875309
0.00064024157251218
0.0025673458023764
0.0028815925621253
0.0028921503036445
0.0028611255505102
0.0027996137404046
0.0027138768008313
0.002620483241106
0.0025581027543299
0.0025226557623004
0.002495449015756
0.0024707983976192
0.0024497131337815
0.0024310932599143
0.002422518768671
0.002422287815625
0.0024299494006291
0.0024432610180669
0.0024627112643699
0.0024870660098266
0.0025150375324549
0.0025453232070047
0.0025767409080745
0.0026082947999533
0.0026390113120768
0.0026682325450912
0.0026955038339832
0.0027206197936972
0.0027437653227511
0.0027649258278525
0.0027841274373281
0.0028017968094377
0.0028182019606813
0.0028378341922645
0.0028526069680767
0.0028669717468068
0.0028809978674829
0.0028948484948859
0.002908537097493
0.0029217143091477
0.0029340613049364
0.0029451219678916
0.0029544862814618
0.0029618752143474
0.0029672340450024
0.0029705117687572
0.0029718926485247
0.0029708641746029
0.0029675740256055
0.0029620114686548
0.0029550503799455
0.0029472596325964
0.0029384396117188
0.0029295166771183
0.0029208509447779
0.0029120281326579
0.0029036306492792
0.0028952785499124
0.0028867710520751
0.002881884723594
0.0028765964121607
0.0028874483168389
0.0029130888591377
0.0029618478485028
0.003033190193199
0.0030888348389609
0.003102324881126
0.003057429849494
0.0024980583120331
0.94587792209713
0.91172393121505
0.86105551719626
0.79628230162128
0.72101698522503
0.63845252789963
0.55305909531706
0.46868999284039
0.38894990229182
0.31650954472246
0.25303565724645
0.19915791852738
0.15620189092546
0.12202540491408
0.095270220210591
0.074726107899181
0.058995430723527
0.046977169968903
0.037784998334438
0.03070860108242
0.025221042469162
0.020931005539531
0.017541822490331
0.014836511533004
0.012658171418313
0.010886969047929
0.0094330969333204
0.0082315831122166
0.0072267640526318
0.0063844507108728
0.0056696074486471
0.0050617643621301
0.0045397059527756
0.0040893969221662
0.0036988441271235
0.0033580425069827
0.0030596325644626
0.0027968959972103
0.0025647649894476
0.0023588128468257
0.0021752663178568
0.0020115293656377
0.0018643216827754
0.0017323199082125
0.0016127742982413
0.0015050444255215
0.0014068782494849
0.0013179073590072
0.0012365041854611
0.0011622452777327
0.0010940609225587
0.0010314345358213
0.00097379680970329
0.00092064225936051
0.00087156754093178
0.00082613329909509
0.00078401157232611
0.00074488268337046
0.00070848025125814
0.00067455688250725
0.000642899391332
0.00061331340550571
0.00058562623412766
0.00055968119046246
0.00053533980498551
0.00051247815068119
0.0004909850680831
0.00047075870218485
0.00045170489674403
0.00043374083262465
0.00041829731828168
0.0010923455519844
0.0027330280489124
0.0028838483655603
0.0028810914147253
0.0028425252333611
0.0027748813145941
0.0026856618372227
0.0025977419180636
0.0025442075684155
0.0025123599390039
0.0024864480623688
0.0024630670801133
0.0024435706316319
0.0024302027148893
0.0024218379383852
0.0024218976903429
0.0024294478920763
0.0024431991636605
0.0024628950913426
0.002487449860887
0.0025155754068839
0.0025459801042581
0.0025774839233207
0.0026090799411477
0.002639805264028
0.0026690061643226
0.0026962413302662
0.002721238809211
0.0027441437986647
0.0027649298875906
0.0027837504909559
0.0028012077264694
0.0028175089402536
0.0028370644499367
0.0028518380950861
0.0028661750693161
0.0028801513560309
0.0028939307971533
0.0029074844483144
0.0029204755698806
0.0029325986117456
0.0029434215398622
0.0029525579739675
0.0029597327196921
0.0029648780709881
0.0029679415751555
0.00296916029957
0.0029677695100485
0.0029641816118435
0.0029584931468534
0.0029515750575322
0.0029437997200336
0.0029352151197958
0.0029264701010563
0.0029180040891724
0.002909234375143
0.0029009536528713
0.0028926202637653
0.0028842531821971
0.0028791196131028
0.00287299327785
0.002882547204352
0.0029083886874253
0.0029583090692888
0.0030297588244702
0.0030842949440379
0.0031019839100893
0.0030587951211022
0.0025142147746292
0.94166595264632
0.89861011228767
0.83686205173065
0.75947013782605
0.67592471616607
0.5896736689711
0.50465108125279
0.42453831704258
0.35155939528765
0.28621492887931
0.23113957748852
0.18444485315505
0.14610900942547
0.11529752261908
0.09090875180177
0.071854060106428
0.057099781502182
0.045733042952368
0.036958579019074
0.0301394949087
0.024821906432312
0.020649342794645
0.017337288620881
0.014685633327577
0.012546443032814
0.010802954627843
0.0093681961135862
0.0081804065052373
0.0071886354647133
0.0063526898259362
0.0056452899276652
0.0050408991665845
0.0045233590485179
0.0040755887006198
0.0036876841261108
0.0033485007997159
0.0030518717602193
0.0027901728043723
0.0025593022139815
0.0023539165121379
0.0021714365215939
0.0020078907262704
0.0018615539685706
0.0017295952756005
0.0016107040181108
0.0015029681056416
0.0014052217919926
0.0013163168369196
0.0012351273242425
0.0011609878095119
0.0010929302011614
0.001030488332498
0.00097292699886222
0.00091985915281977
0.00087082889033293
0.00082545805368248
0.00078339585445583
0.00074432209770433
0.0007079654704641
0.00067408206170342
0.000642461266442
0.00061290960174531
0.00058525328828599
0.00055933585093093
0.00053502037377519
0.00051218400119045
0.00049071486059954
0.0004705095894765
0.00045147495869581
0.00043353143309874
0.00041814329963461
0.0010988162181064
0.0027335955199431
0.0028829885535461
0.0028799866011064
0.0028414550949844
0.0027740029857209
0.0026849363124074
0.0025969584481929
0.002542994691771
0.0025109275492657
0.0024850798047695
0.0024618507759561
0.0024424811964877
0.0024294531869168
0.0024211903593556
0.002421101183074
0.002428368749021
0.0024421397764133
0.0024618674829483
0.0024864879826276
0.0025146972346463
0.0025452011537289
0.002576810328048
0.0026084811426948
0.0026393207536274
0.0026686409910118
0.0026960106599425
0.0027212331469391
0.0027444233501532
0.0027655773755192
0.0027848403123967
0.002802655255357
0.0028193509792772
0.0028392913617299
0.002854304862505
0.0028687959009819
0.0028828802717828
0.0028967453828509
0.0029103452158116
0.0029233589550461
0.0029354914467325
0.0029463327907988
0.0029554946341973
0.0029626732462302
0.0029677823026104
0.002970776400174
0.002971882185869
0.0029701515693699
0.0029665494219457
0.0029610732849619
0.0029543511333448
0.0029466918584372
0.0029383475388477
0.0029297269751522
0.0029212747815653
0.0029125469679482
0.0029041833846094
0.0028958944227579
0.0028875922388443
0.0028819284992111
0.0028746222740238
0.002883910376969
0.0029100518445224
0.0029615129351798
0.0030312176851289
0.0030815140302733
0.0030983220663696
0.0030592657908265
0.002566276907291
0.93224600893282
0.86888031659996
0.78448415722649
0.68937897410281
0.59626480151194
0.51016499762182
0.43179846389756
0.3624872381243
0.30163624464373
0.24785153514864
0.20409214942099
0.16574404747578
0.13340311451048
0.10681492448639
0.085245569091767
0.068115885315975
0.054635131009974
0.04407183417303
0.035820216790463
0.029368978145195
0.024291072418186
0.020260350985155
0.017055625594663
0.01448138486202
0.012391895597587
0.010683972502519
0.0092783266944369
0.0081099254614859
0.0071324997994256
0.0063085276049057
0.0056093798198452
0.0050120820497979
0.0044991547013211
0.0040561842917626
0.0036710532577125
0.0033351087327167
0.0030402785445901
0.0027807207933681
0.0025510325400205
0.0023471836992194
0.0021654522622039
0.0020029179165573
0.0018571653443383
0.001725841881529
0.0016074088953063
0.0015000401118987
0.0014027294404418
0.0013140235413386
0.001233173965229
0.0011591607482178
0.0010913401311841
0.0010290363437258
0.00097165396863691
0.00091872056424175
0.00086978410041558
0.00082450559889236
0.00078252031042133
0.000743521789327
0.000707232584952
0.00067341178632527
0.00064184565685499
0.00061234147442346
0.00058472815913748
0.00055885216390933
0.00053457609673631
0.00051177564181239
0.00049033885200994
0.00047016365506625
0.00045115768027642
0.00043323758445866
0.00041794421413641
0.0011091938021501
0.0027339099762095
0.00288179330878
0.0028784498984079
0.0028399745335552
0.0027727810706437
0.0026839785463529
0.0025958794406413
0.0025412835845163
0.0025088700063638
0.0024830548775159
0.0024599937824201
0.0024407617011694
0.002427961372159
0.0024197886363098
0.0024198240333117
0.0024270510901552
0.002441004855097
0.0024608646134999
0.0024856045875677
0.0025139417270881
0.0025445819006778
0.0025763319550625
0.0026081402880051
0.0026391113724047
0.0026685543311988
0.0026960295638838
0.0027213082961842
0.0027445145587272
0.0027656554840939
0.0027850229331244
0.0028029861910031
0.00281981276129
0.0028398654644796
0.0028549559608895
0.0028694878960932
0.0028835909338862
0.0028974428284839
0.0029109744252901
0.0029238807940829
0.0029358786908769
0.0029465820440273
0.0029556059856891
0.0029626342462043
0.0029675685071402
0.0029703746533305
0.0029712964324458
0.0029693306645317
0.002965653144062
0.0029602185064636
0.0029536208040527
0.002946111259096
0.0029379870623804
0.0029295077121342
0.0029211698866313
0.0029125420168004
0.0029042334660941
0.0028960101428437
0.0028877043998144
0.0028818654164641
0.0028743041545574
0.0028833682326208
0.0029093136695857
0.00296032304258
0.0030283154612924
0.003079575221526
0.003096421736047
0.0030616154281963
0.0025775696247535
0.90068804472378
0.78434896352517
0.66060758015226
0.55537009962221
0.47026606403789
0.40003818960413
0.34159675709541
0.29175223616786
0.2479986271284
0.20957260547987
0.17538310544628
0.14522820006827
0.11916466379484
0.097090400654063
0.078749369424191
0.063742740065386
0.051678048232348
0.042075514499018
0.034453856693406
0.028409439225473
0.023610180701658
0.019786369283672
0.016704666106307
0.014218060168955
0.012195617129877
0.010536471416282
0.0091627509817788
0.0080197772742985
0.0070612455794434
0.0062518796847319
0.0055633833592878
0.0049750390062822
0.0044685533673907
0.0040307987543534
0.0036500378358927
0.0033175801367458
0.0030255005894136
0.0027683117029788
0.0025404975850501
0.002338234870449
0.0021577309638901
0.0019963897561744
0.0018514077572635
0.0017209296566788
0.0016030252316287
0.0014962808301842
0.0013993466631449
0.0013110566181621
0.0012305264395472
0.0011567933470458
0.0010892362903299
0.0010271129593286
0.00096994339698859
0.00091718296604805
0.00086841021233536
0.00082324989498717
0.00078136670149641
0.00074246524515957
0.00070626600386253
0.00067252778773548
0.00064103299430101
0.00061159235387359
0.00058403810168938
0.00055821806772033
0.00053399335504663
0.00051123946539191
0.0004898456309726
0.00046971068949381
0.00045074057542071
0.00043285292223596
0.00041768643582448
0.0011223671177908
0.0027344886962957
0.002880305917177
0.0028765110150035
0.0028380942218612
0.0027712518643212
0.0026827971782286
0.0025945115437768
0.0025390507710281
0.0025061410991572
0.0024803294497786
0.0024574527695052
0.00243838985483
0.0024259338833419
0.0024178786368653
0.0024179916686743
0.0024251761383787
0.0024392365965862
0.0024592151944891
0.0024840736712812
0.0025125464966367
0.0025433326286548
0.0025752317699641
0.0026071767266264
0.0026382927656073
0.0026678822915221
0.0026955230672669
0.0027210028765149
0.0027444333879837
0.0027658175172074
0.0027854070469145
0.0028035490468299
0.0028205270739498
0.0028407229008001
0.0028559017700315
0.0028704737496217
0.0028846213044193
0.0028984889929907
0.0029119713403709
0.0029247830810358
0.0029366489401947
0.0029472117887973
0.0029560947396542
0.0029629716243136
0.0029677299901217
0.0029703571261278
0.0029711177723075
0.0029689737454825
0.0029652816645822
0.0029599034865704
0.0029534515521054
0.0029461088546194
0.0029381777285155
0.0029298331669201
0.0029216250500412
0.0029131035437143
0.0029048825371713
0.0028966727693967
0.0028883489333686
0.0028822548090643
0.0028744953011342
0.0028812281278267
0.0029066757119564
0.0029577065854981
0.003026497795777
0.0030775168463391
0.0030946944348747
0.0030630701333692
0.0025821937064419
0.67661269943187
0.48913569703848
0.4100566382558
0.36180783508015
0.32208408521979
0.28709038109474
0.25499594767158
0.22597202245304
0.19819226886591
0.17189394166747
0.14732532702052
0.12489969303823
0.10470663272469
0.086949996165871
0.071732232161865
0.058953630258733
0.048404949050349
0.039814602451136
0.032881967910205
0.027306723384581
0.022823169193455
0.019209591576354
0.016291673775109
0.013909812244259
0.011960839424523
0.010355806744024
0.009025686364531
0.0079114787751598
0.0069749504079191
0.0061828870772505
0.0055083760308689
0.0049296796757757
0.0044315287473148
0.0040001692741133
0.0036246140595878
0.0032961192138754
0.0030077222447253
0.0027531780899106
0.0025276807882154
0.002327243040984
0.0021484151562382
0.0019882902188822
0.001844404436234
0.0017148350466828
0.0015976981086802
0.0014916119036625
0.0013951764034252
0.0013074104030992
0.0012272503335942
0.0011538919995346
0.0010866041026175
0.0010247513321136
0.00096781629934863
0.00091526463571022
0.0008666873540825
0.00082168111569856
0.00077993912275668
0.00074115957805352
0.00070506843796436
0.00067142555011886
0.00064001927376424
0.00061066317590965
0.00058318537977807
0.00055743238968202
0.0005332689718521
0.0005105740292886
0.0004892354449698
0.00046914958401049
0.00045022307286725
0.00043237514849487
0.00041737552521225
0.0011384055335475
0.0027355520341516
0.0028786084182063
0.002874231278545
0.0028358694302188
0.0027694481402056
0.0026814210047926
0.0025928703465602
0.0025363000201153
0.0025027324770159
0.0024768803676647
0.0024541941116148
0.0024353307392046
0.0024232175656104
0.0024153405265957
0.0024155705835096
0.0024228060501755
0.0024370278448351
0.0024571932426046
0.0024822378679458
0.0025109054740779
0.0025418892562452
0.0025739840815133
0.0026061086221255
0.0026373958819995
0.0026671396052227
0.0026949153820492
0.0027205195084632
0.0027440628823685
0.0027655703546528
0.0027853297740086
0.0028036523073147
0.0028208347567926
0.0028411899446426
0.002856555939155
0.0028712365112335
0.0028854864965618
0.0028994457388354
0.002912919332203
0.0029256498528684
0.0029373655562976
0.0029477443106693
0.0029564205923013
0.0029630766675467
0.0029675970843833
0.0029699962589924
0.002970505225028
0.0029681655918094
0.0029644546589565
0.0029591690973034
0.0029529067980304
0.0029457848753909
0.0029380997043523
0.0029299281911802
0.0029218556092864
0.0029134689304815
0.0029053634504843
0.0028971903316002
0.0028888144916716
0.0028822919838734
0.0028746463197384
0.0028792745742923
0.0029039147351767
0.0029544781467467
0.0030225448764326
0.003074477855743
0.003093044160575
0.0030641292484961
0.0025855220734035
0.022730816687587
0.15548236533719
0.19106328023162
0.20440988982213
0.20669833710118
0.20053743093881
0.18882683791969
0.17447708272862
0.15879664724596
0.1424463979099
0.12597222195298
0.1098402534744
0.094495889284688
0.080312084354224
0.067591220682614
0.056502611676098
0.04704558274047
0.039134592252256
0.032604967551678
0.027259179338087
0.022899722435622
0.019349164464201
0.016450604181648
0.014081797772254
0.012128053221782
0.010508523586619
0.0091637901366114
0.0080386085319017
0.0070896841124851
0.0062839951686495
0.0055984543712276
0.0050110735580373
0.0045041437239412
0.0040646418314951
0.0036825343713458
0.0033483528784141
0.0030545099702157
0.0027953334375243
0.0025659132766952
0.0023618662312369
0.0021797678000031
0.0020167894463243
0.0018704355540454
0.0017385592426538
0.0016193680797163
0.0015114422365473
0.0014133965515358
0.0013241463920777
0.0012426272923624
0.0011680741164171
0.0010997024314211
0.0010368810325641
0.00097903273232853
0.00092565911333866
0.00087635684305827
0.00083070146916421
0.00078835478974007
0.00074900196599553
0.0007123903867697
0.00067827817382657
0.00064644382454307
0.00061669153365861
0.00058884718982726
0.00056276048455582
0.00053829213660295
0.00051531581395225
0.0004937162983031
0.00047338996570874
0.00045423950626255
0.00043616871057414
0.00041898035028452
0.0006725011910538
0.0025770692505218
0.0028689458762183
0.0028765527285901
0.0028456409815482
0.0027862724886049
0.0027031542040295
0.0026110742522694
0.0025445803159499
0.002506033520554
0.0024788186907385
0.0024555141254018
0.0024357550035465
0.0024198599192572
0.0024121536948824
0.0024125089740301
0.0024198442368566
0.0024342419588936
0.0024546285098988
0.002479901050314
0.0025088014969128
0.0025400179232078
0.0025723342175258
0.0026046603513538
0.0026361350810737
0.0026660561799865
0.0026940054403366
0.002719796808273
0.0027435295658492
0.0027652320682396
0.0027851793935926
0.0028036667408898
0.0028209608549466
0.0028414685825635
0.0028570396016508
0.0028718484670565
0.0028862313274779
0.0029003503021623
0.0029138087135866
0.0029264067724572
0.002937863844875
0.0029479097612427
0.0029562180342069
0.0029625018804988
0.0029666295532757
0.002968689070502
0.0029687450740452
0.0029661858185115
0.0029624137155164
0.0029572304765131
0.002951146363555
0.0029442496296701
0.0029368054367124
0.0029288011272331
0.0029208654656897
0.0029125831378559
0.0029045844761832
0.0028964923965586
0.0028882318636209
0.0028804169788016
0.0028730562113846
0.0028730442725992
0.002895174705577
0.002945290841028
0.0030136195008127
0.0030674538167669
0.0030895693856509
0.0030636535430367
0.0025890132484189
0.010047223195755
0.027091020188466
0.048388292232529
0.066165308390853
0.079620957850522
0.088620873802961
0.093295913890295
0.094464319538249
0.091868755511152
0.087370632411929
0.081391412654617
0.074318502852272
0.066701816271148
0.058911408092847
0.051336451107527
0.044274955688663
0.037907678335143
0.032312279095518
0.027499443872924
0.023419707678969
0.019991623930896
0.017125834414393
0.014734345399087
0.012737129746917
0.0110673612511
0.0096683124954451
0.0084886346704698
0.0074871006718722
0.0066373548510902
0.0059117573693391
0.0052890887920976
0.0047505958147635
0.0042842025543789
0.0038782938153862
0.0035233189827078
0.0032110011177286
0.0029357847216082
0.0026923080492228
0.0024760368804086
0.0022829915844529
0.002110291593827
0.001955383237043
0.0018159350870744
0.0016899601080447
0.0015758981270108
0.001472422020402
0.0013782894283027
0.0012924054868966
0.0012138678339123
0.001141921957961
0.0010758785505876
0.0010151156471366
0.00095909189689985
0.00090736288328826
0.00085951752678856
0.00081519365338368
0.00077404399802886
0.00073577168761167
0.00070012857849077
0.00066688848050437
0.00063584895714645
0.00060682481016552
0.0005796519751924
0.00055418272872001
0.0005302820631683
0.00050782716259705
0.00048670648469917
0.0004668190228348
0.00044807448390753
0.00043038323153234
0.00041613258440503
0.0012083424287814
0.0027417828717305
0.002872550750246
0.0028657561211945
0.0028276250350646
0.0027629280974694
0.0026766015061863
0.0025868824114672
0.0025253833412639
0.0024886814865457
0.0024621979137499
0.0024399694334285
0.0024217773378935
0.0024110294390868
0.0024037155234302
0.0024044640468582
0.0024121904471216
0.0024270812997929
0.0024480844457813
0.0024739998305105
0.0025035389738658
0.0025353737283298
0.0025682586750614
0.0026010927742449
0.0026330132853674
0.0026633271016236
0.0026916193254816
0.0027177490868296
0.0027417869918512
0.0027637955365956
0.0027840425426182
0.0028028057712351
0.0028203039447178
0.0028408203495431
0.0028566317131002
0.0028716937179948
0.0028864229074775
0.0029007235277599
0.002914218737618
0.0029266575445636
0.0029377678531119
0.0029473520591868
0.0029551342999529
0.0029608969076652
0.0029644800009145
0.0029660788866556
0.0029653817472501
0.0029627378284349
0.0029588482910531
0.0029537416227062
0.0029477282567794
0.0029409966451491
0.0029337388578727
0.0029259139237488
0.0029181103724625
0.0029099915805166
0.002902064135226
0.0028938626936233
0.0028857201684847
0.0028761314046639
0.0028687498831296
0.0028635529511159
0.0028809757817658
0.0029293953352167
0.002996619972868
0.0030515920418692
0.0030799534643563
0.0030574115153464
0.0025920555363736
0.0079652364633364
0.01185866573417
0.019204233312998
0.028105125967672
0.036465454365406
0.0436008530927
0.04915726129594
0.052962869657094
0.055095028538316
0.055425611827341
0.053979042069592
0.051632930169823
0.048332960348637
0.044342031563888
0.040007605709713
0.035603164973792
0.031350732034079
0.027393968028705
0.023820766131449
0.020664026564149
0.017919573908641
0.015558603093348
0.013540800556838
0.011821774080784
0.010358332113509
0.0091123841719209
0.0080494294953651
0.0071401699026445
0.0063602305343893
0.0056871029278184
0.0051049447665092
0.0046000766198067
0.0041600424188012
0.0037753641117793
0.0034366729923512
0.0031381463763021
0.0028741798256455
0.0026399472498188
0.0024311393590213
0.0022443600978285
0.0020770623066412
0.0019266199058123
0.001790900139991
0.0016680183259688
0.0015567015697593
0.0014555203702693
0.001363353726727
0.0012791268718851
0.001202027719509
0.0011313522136064
0.0010664033330855
0.0010065920182652
0.00095139401258794
0.00090040299144536
0.00085321121116145
0.00080945498135522
0.00076881052232655
0.0007309927589494
0.00069576459566568
0.00066289485614155
0.00063218161948041
0.00060344976952578
0.00057654149236898
0.0005513185788825
0.00052764549181146
0.00050539901932502
0.000484468216426
0.0004647541234861
0.0004461661124178
0.00042860329831915
0.00041522647375375
0.0012747126296112
0.0027497498165618
0.0028682425502557
0.0028592323415465
0.0028213449261899
0.0027582433868113
0.0026735418919509
0.0025829237059108
0.0025167391681489
0.00247669313741
0.0024490625665485
0.0024268466823567
0.0024090674296365
0.0023993388607757
0.0023924923836188
0.0023938402340352
0.0024022178240993
0.0024178265869281
0.0024396915878291
0.0024665064444909
0.0024969237739224
0.0025295832150447
0.0025632119862611
0.0025966918738091
0.0026291568606766
0.0026599265687048
0.0026885928071597
0.0027150644139636
0.0027393720214715
0.0027616223275331
0.0027820816779609
0.0028010381307187
0.0028187262898205
0.002839325976788
0.0028553490116193
0.0028706437702693
0.0028856474371946
0.0029000618185724
0.0029135356262923
0.0029257714010407
0.0029364968950407
0.0029455749831767
0.0029527888016388
0.0029580370667867
0.0029611169478465
0.0029622088678187
0.0029610596615651
0.0029583318800773
0.0029542434508829
0.0029491294757175
0.0029429775366331
0.0029362372543997
0.002928918281496
0.0029210742995865
0.0029132715780567
0.0029049264176377
0.0028970325905186
0.0028884863824991
0.0028798514822009
0.0028690381383315
0.0028622347547669
0.0028519759301436
0.0028620326940904
0.0029054343708072
0.0029705702708643
0.0030262916756833
0.0030596726753188
0.0030459844206817
0.0025943951487065
0.0063408184894032
0.0083749883597229
0.010621271607551
0.015030056238851
0.019945684280487
0.024645991862768
0.028837209059643
0.03227239599568
0.03483397044549
0.036429665812015
0.036959553990423
0.036332589229789
0.035201512231765
0.033337785912314
0.031013954760026
0.028388859404288
0.025648317096592
0.022943759519693
0.02037537551493
0.018005967804693
0.015869722937377
0.013974458367696
0.012310864060943
0.010861419247486
0.0096039300968614
0.0085150899412473
0.0075732628071309
0.0067577726260293
0.0060503206470888
0.0054352880102203
0.0048993511474798
0.004430713923937
0.0040191247423083
0.0036568132740504
0.003337280242338
0.003054467209452
0.0028033900074885
0.002579187704772
0.0023788186059701
0.0021994251456741
0.0020381824220778
0.0018928498976424
0.0017612669321673
0.0016421657692773
0.0015339831317265
0.0014355192769938
0.0013455943029663
0.0012633070876535
0.0011879619612884
0.0011187709909716
0.001055132567329
0.00099642809555944
0.00094223236028067
0.00089212782579997
0.00084571199866908
0.00080264141041604
0.00076259140141339
0.00072531348393924
0.00069057203502003
0.00065814320668677
0.00062783037903081
0.00059945439003183
0.00057286825083613
0.0005479351217105
0.00052452481427108
0.00050251875084315
0.0004818074395402
0.00046228848164516
0.00044387241347142
0.00042648299033117
0.00041426123251492
0.0013652889212068
0.0027613496112583
0.0028644736742578
0.0028526151948712
0.0028149583682777
0.0027538237355907
0.0026713457318294
0.002579969116193
0.0025082589995612
0.002463514006237
0.0024337982267291
0.0024111194519199
0.0023935933560394
0.0023848067666474
0.0023786007712969
0.0023807157020482
0.0023900295651748
0.0024066124913058
0.0024296138466295
0.0024576061249745
0.0024891622700242
0.0025228727543261
0.0025574339705718