/*--------------------------------*- C++ -*----------------------------------*\
| =========                 |                                                 |
| \\      /  F ield         | OpenFOAM: The Open Source CFD Toolbox           |
|  \\    /   O peration     | Version:  2312                                  |
|   \\  /    A nd           | Website:  www.openfoam.com                      |
|    \\/     M anipulation  |                                                 |
\*---------------------------------------------------------------------------*/
FoamFile
{
    version     2.0;
    format      ascii;
    arch        "LSB;label=32;scalar=64";
    class       volScalarField;
    location    "8e-05";
    object      yPlus;
}
// * * * * * * * * * * * * * * * * * * * * * * * * * * * * * * * * * * * * * //

dimensions      [0 0 0 0 0 0 0];

internalField   uniform 0;

boundaryField
{
    inlet
    {
        type            calculated;
        value           uniform 0;
    }
    outlet
    {
        type            calculated;
        value           uniform 0;
    }
    nozzleWalls
    {
        type            calculated;
        value           nonuniform List<scalar> 
144
(
35.104446873222
34.690467324232
34.259898574921
33.835191574288
33.422727320505
33.024631734209
32.641656353373
32.273732429033
31.920869719172
31.583054862063
31.260383487334
30.953053057924
30.661358268384
30.385697861699
30.126576772925
29.884579166837
29.660319734899
29.453800103231
29.262066476789
29.082969790616
28.916237633604
28.761886882302
28.619996380482
28.490680842736
28.374199217143
28.271001811585
28.181839429588
28.107923527631
28.051195110177
28.014836360323
28.004572524199
28.02935505979
28.108596879025
28.289852523321
28.741033287988
30.896514746947
35.343476429694
35.005755814702
34.58300899813
34.152791062796
33.730811356068
33.321808657286
32.927456676217
32.548271346933
32.184106000344
31.835003452897
31.500961202137
31.182102776583
30.878649641352
30.590921598217
30.319345427093
30.064447743651
29.826828788464
29.607077147789
29.404612074763
29.216129868077
29.040128301666
28.876486905725
28.725242166935
28.586481343679
28.460343733728
28.347130856971
28.247357659894
28.161870311146
28.092032378904
28.04003228804
28.009505462052
28.006975608879
28.042930679529
28.141250139957
28.364218755062
28.963492548293
35.196200353184
34.797221204748
34.367433437765
33.940352964371
33.524548907979
33.122745229155
32.735970174605
32.364304035741
32.007675722094
31.666094451444
31.339622411944
31.028432940964
30.732795969046
30.453083270801
30.189775728737
29.94343897389
29.714692353281
29.503886182095
29.308784370831
29.126583423481
28.956761909767
28.799310267926
28.654295425437
28.521819060352
28.402096187275
28.295520683128
28.202757898011
28.124882883734
28.063620034285
28.021770535628
28.004266440554
28.019076316582
28.081908536646
28.229890713057
28.579498265198
29.849057050401
35.278631869221
34.902675977393
34.475244378723
34.046243402391
33.627252868746
33.22181016364
32.831230162113
32.455818850149
32.09542106905
31.750077935428
31.419816138476
31.104784570548
30.805228830813
30.521494469011
30.254035043596
30.003398508972
29.77019730563
29.554943372748
29.356292268111
29.170969701579
28.99805891842
28.837510748371
28.689377795528
28.553753997229
28.43081347335
28.320901095902
28.224603976468
28.142875704813
28.077249724536
28.030199118694
28.005878125011
28.011722048149
28.060259850733
28.181115596432
28.458059808225
29.299059612317
)
;
    }
    tipWalls
    {
        type            calculated;
        value           nonuniform List<scalar> 
304
(
9.2110705454312
3.0070399390524
4.5435745238661
4.8631810649096
4.7498798145165
4.4602866067679
4.0259538905562
3.3166737212933
2.2710432649405
1.2361846939048
0.3231563573347
0.53764689387356
0.54042903315982
0.48546928881046
0.42607609749663
0.37688741389453
0.33883951532903
0.3089886457182
0.2843712065098
0.2630636257082
0.24402895463653
0.22674654016873
0.21085250217349
0.19625443461641
0.18298750860768
0.17104554894599
0.16042614619675
0.1510966749262
0.14299434500333
0.13603259107144
0.13009465736554
0.12504521735196
0.12074293645168
0.1170850575407
0.11396928242893
0.1113289138273
0.10911963165678
0.10731362993693
0.10588696965126
0.10480625471116
0.10403252256936
0.10351613429292
0.10318562989336
0.10296475886808
0.10279151047042
0.10262928923499
0.10246819113499
0.10232056026838
0.10222136903781
0.10222800752705
0.10236684826456
0.10263482402508
0.10299036184083
0.10337062029939
0.10371717486464
0.10402030420061
0.10430967393433
0.10463783498387
0.10505229477292
0.10557109378503
0.10616824739495
0.10677851690632
0.10731709103588
0.10782072965293
0.11022409817793
0.21441076805289
0.21612417757316
0.21694286923365
0.2176301027624
0.21819654694145
0.21870779017313
0.21924745507536
0.21990665265495
0.22077854646618
0.22216235277334
0.2249211624434
0.23434170244825
0.43923109783167
0.44363246483948
0.44611876186302
0.44806837913478
0.44951883706469
0.45052542046655
0.45119793309573
0.4516007083623
0.45177306076764
0.45165904818029
0.4512951726038
0.45068940741381
0.44991054675309
0.44930395421353
0.44889911998259
0.44905140055156
0.4502157433423
0.45321217547556
0.4573944772057
0.44767106221561
1.5910661774407
4.0210247737653
4.7888173665008
4.8366654590095
4.6194867631355
4.2663436659995
3.7153467451514
2.8255502644572
1.7145483185112
0.79307070020309
0.42842853096804
0.55475827544678
0.51708998067571
0.45423823272502
0.40006514826319
0.3565988814413
0.32309146507998
0.29622133555273
0.27339631225007
0.25329492373398
0.23519089830825
0.21864176110122
0.2033854121968
0.18945465659199
0.17685073116298
0.16557167617222
0.15560350855014
0.1468968948788
0.13937755170047
0.13294392821551
0.12746737452411
0.12280768437244
0.11884124631778
0.11546401607829
0.11259287754866
0.11017248533362
0.10816760088046
0.10655467152716
0.10530582229906
0.10438344288253
0.10374630703952
0.10333253018062
0.10306589359711
0.10287510784884
0.10271022637122
0.10254830099743
0.10239116251718
0.10226096316702
0.10220916460686
0.10228006435082
0.10248663448634
0.10280461638912
0.10318329872253
0.10354957372667
0.1038732133107
0.10416359512417
0.10446549812993
0.10483222236506
0.10529920666728
0.10586309948251
0.10647711835019
0.10706154287357
0.10755007936154
0.1083773071179
0.11139157079668
0.21565855224669
0.21654448476451
0.21730488242691
0.21792534626069
0.21845529904667
0.21896818317575
0.21955722706071
0.22030673733083
0.22137987727379
0.22330174302478
0.22744400368478
0.23614957161628
22.557662010003
2.1294470009207
4.3217323927492
4.8418819124266
4.7995434330561
4.5430768435401
4.1535171047402
3.5296608316915
2.5526703305012
1.462428243054
0.56344502698495
0.50018972212796
0.5499325205516
0.50130907029625
0.43965050750761
0.38825997531905
0.34746074975522
0.31583718153013
0.29018161499416
0.26816064476042
0.24860561989886
0.23092411482384
0.21470793836724
0.19977809179323
0.18617946222443
0.17390661979482
0.1629581813489
0.1533111382302
0.1449091246443
0.1376720232239
0.13149044410954
0.1262315879731
0.12175336237328
0.11794565079037
0.11470136657675
0.11194718855599
0.10963329138241
0.10772853939404
0.10620968974342
0.10504614488491
0.10419938551346
0.10362479074692
0.10325510431785
0.1030134838261
0.10283282441258
0.10266977309738
0.10250802981179
0.10235478335051
0.10223795124875
0.10221466003268
0.10231915621635
0.10255756699635
0.10289563228128
0.10327783226583
0.10363488822972
0.10394762264788
0.10423586668243
0.10454921860266
0.10493891083267
0.1054322700893
0.1060145675878
0.10662941803091
0.10719299002759
0.10767155530327
0.10896780264552
3.2878874653944
3.6131546844958
4.6924784060057
4.8588358525456
4.6885970366902
4.3674617117508
3.8809139665176
3.0828108097153
1.9864667335388
1.0161101661229
0.3262896151172
0.55160554839889
0.5294823851808
0.47043791243554
0.4124834573272
0.36633149031723
0.33076112272186
0.3024746344788
0.27878438516505
0.25811144902759
0.23955803378547
0.22265373168263
0.20707744698459
0.19281324987165
0.17987787347363
0.16826731301601
0.15797485710538
0.14895898847742
0.14115105890073
0.13445725821481
0.12875439748812
0.1239052487101
0.11977317559552
0.1162582289266
0.11326671581539
0.11073753521222
0.10863118014918
0.10692248507222
0.10558589190013
0.10458555406464
0.10388184811399
0.10341912666862
0.10312293083319
0.10291887791591
0.1027507433614
0.10258877216651
0.1024291077866
0.1022891021748
0.10221147207175
0.10224970034379
0.10242283890711
0.1027174795702
0.1030871709667
0.10346135912865
0.10379652765699
0.10409200175249
0.10438592494288
0.10473199389771
0.10517243682004
0.10571497372628
0.10632293500063
0.10692303119229
0.10743499874001
0.10803609891315
0.11317534004487
)
;
    }
    wedge1
    {
        type            wedge;
    }
    wedge2
    {
        type            wedge;
    }
    defaultFaces
    {
        type            empty;
    }
}


// ************************************************************************* //
