/*--------------------------------*- C++ -*----------------------------------*\
| =========                 |                                                 |
| \\      /  F ield         | OpenFOAM: The Open Source CFD Toolbox           |
|  \\    /   O peration     | Version:  2312                                  |
|   \\  /    A nd           | Website:  www.openfoam.com                      |
|    \\/     M anipulation  |                                                 |
\*---------------------------------------------------------------------------*/
FoamFile
{
    version     2.0;
    format      ascii;
    arch        "LSB;label=32;scalar=64";
    class       volScalarField;
    location    "0.25";
    object      cSound;
}
// * * * * * * * * * * * * * * * * * * * * * * * * * * * * * * * * * * * * * //

dimensions      [0 1 -1 0 0 0 0];

internalField   nonuniform List<scalar> 
800
(
1.18322
1.18322
1.18322
1.18322
1.18322
1.18322
1.18322
1.18322
1.18322
1.18322
1.18322
1.18322
1.18322
1.18322
1.18322
1.18322
1.18322
1.18322
1.18322
1.18322
1.18322
1.18322
1.18322
1.18322
1.18322
1.18322
1.18322
1.18322
1.18322
1.18322
1.18322
1.18322
1.18322
1.18322
1.18322
1.18322
1.18322
1.18322
1.18322
1.18322
1.18322
1.18322
1.18322
1.18322
1.18322
1.18322
1.18322
1.18322
1.18322
1.18322
1.18322
1.18322
1.18322
1.18322
1.18322
1.18322
1.18322
1.18322
1.18322
1.18322
1.18322
1.18322
1.18322
1.18322
1.18322
1.18322
1.18322
1.18322
1.18322
1.18322
1.18322
1.18322
1.18322
1.18322
1.18322
1.18322
1.18322
1.18322
1.18322
1.18322
1.18322
1.18322
1.18322
1.18322
1.18322
1.18322
1.18322
1.18322
1.18322
1.18322
1.18322
1.18322
1.18322
1.18322
1.18322
1.18322
1.18322
1.18322
1.18322
1.18322
1.18322
1.18322
1.18322
1.18322
1.18322
1.18322
1.18322
1.18322
1.18322
1.18322
1.18322
1.18322
1.18322
1.18322
1.18322
1.18322
1.18322
1.18322
1.18322
1.18322
1.18322
1.18322
1.18322
1.18322
1.18322
1.18322
1.18322
1.18322
1.18322
1.18322
1.18322
1.18321
1.18321
1.18321
1.18321
1.1832
1.18319
1.18319
1.18317
1.18316
1.18314
1.18312
1.18309
1.18306
1.18302
1.18297
1.18291
1.18283
1.18274
1.18264
1.18251
1.18237
1.1822
1.18201
1.1818
1.18156
1.18129
1.181
1.18068
1.18033
1.17995
1.17954
1.17911
1.17865
1.17817
1.17766
1.17713
1.17658
1.176
1.17541
1.17481
1.17418
1.17354
1.17289
1.17222
1.17154
1.17085
1.17016
1.16945
1.16873
1.16801
1.16728
1.16654
1.16579
1.16504
1.16429
1.16353
1.16277
1.162
1.16123
1.16045
1.15967
1.15889
1.1581
1.15731
1.15652
1.15573
1.15494
1.15414
1.15334
1.15254
1.15174
1.15094
1.15013
1.14933
1.14852
1.14771
1.1469
1.14609
1.14528
1.14446
1.14365
1.14284
1.14202
1.1412
1.14039
1.13957
1.13875
1.13793
1.13711
1.13629
1.13547
1.13465
1.13383
1.133
1.13218
1.13136
1.13053
1.12971
1.12888
1.12806
1.12723
1.12641
1.12558
1.12476
1.12393
1.1231
1.12227
1.12145
1.12062
1.11979
1.11896
1.11813
1.11731
1.11648
1.11565
1.11482
1.11399
1.11316
1.11233
1.1115
1.11067
1.10984
1.10901
1.10817
1.10734
1.10651
1.10568
1.10485
1.10402
1.10319
1.10235
1.10152
1.10069
1.09986
1.09902
1.09819
1.09736
1.09653
1.09569
1.09486
1.09403
1.09319
1.09236
1.09153
1.09069
1.08986
1.08902
1.08819
1.08736
1.08652
1.08569
1.08485
1.08402
1.08318
1.08235
1.08151
1.08068
1.07984
1.07901
1.07817
1.07734
1.0765
1.07567
1.07483
1.07399
1.07316
1.07232
1.07148
1.07065
1.06981
1.06898
1.06814
1.0673
1.06646
1.06563
1.06479
1.06395
1.06312
1.06228
1.06144
1.0606
1.05977
1.05893
1.05809
1.05726
1.05642
1.05558
1.05474
1.05391
1.05307
1.05223
1.0514
1.05056
1.04972
1.04889
1.04805
1.04722
1.04638
1.04554
1.04471
1.04387
1.04304
1.0422
1.04137
1.04053
1.0397
1.03887
1.03803
1.0372
1.03637
1.03553
1.0347
1.03387
1.03304
1.03221
1.03137
1.03054
1.02971
1.02889
1.02806
1.02723
1.0264
1.02558
1.02475
1.02392
1.0231
1.02228
1.02146
1.02063
1.01981
1.019
1.01818
1.01736
1.01655
1.01573
1.01492
1.01411
1.01331
1.0125
1.0117
1.0109
1.0101
1.00931
1.00852
1.00773
1.00695
1.00617
1.0054
1.00464
1.00388
1.00314
1.00242
1.00172
1.00104
1.0004
0.999812
0.999279
0.998816
0.998433
0.998134
0.997918
0.997777
0.997694
0.997652
0.997638
0.997639
0.997642
0.997666
0.997709
0.997762
0.997792
0.997801
0.997806
0.997811
0.997817
0.997825
0.997837
0.997855
0.997866
0.997871
0.997872
0.997873
0.997874
0.997876
0.997879
0.99788
0.997884
0.997888
0.997891
0.997893
0.997893
0.997893
0.997894
0.997896
0.997899
0.997903
0.997901
0.997902
0.997903
0.997904
0.997908
0.997908
0.997907
0.997908
0.997909
0.99791
0.997911
0.997914
0.997913
0.997913
0.997913
0.997914
0.997915
0.997916
0.997917
0.997918
0.997917
0.997918
0.99792
0.997919
0.997921
0.997921
0.997923
0.997922
0.997924
0.997925
0.997925
0.997926
0.997927
0.997929
0.99793
0.997931
0.997932
0.997933
0.997935
0.997936
0.997936
0.997939
0.99794
0.997941
0.997943
0.997944
0.997945
0.997948
0.997949
0.99795
0.997951
0.997954
0.997954
0.997956
0.997959
0.99796
0.997963
0.997964
0.997966
0.997967
0.997969
0.99797
0.997972
0.997974
0.997977
0.997978
0.99798
0.997981
0.997984
0.997986
0.997987
0.997988
0.997991
0.997993
0.997995
0.997997
0.998
0.998002
0.998003
0.998005
0.998007
0.998009
0.998012
0.998013
0.998014
0.998016
0.998018
0.998021
0.998023
0.998025
0.998028
0.99803
0.998032
0.998034
0.998036
0.998038
0.998041
0.998044
0.998047
0.998049
0.998051
0.998056
0.998057
0.998061
0.998064
0.998069
0.998072
0.998075
0.998081
0.998086
0.998089
0.998094
0.998098
0.998103
0.998109
0.998116
0.99812
0.998128
0.998133
0.99814
0.998146
0.998155
0.998161
0.998171
0.998179
0.998189
0.998202
0.998218
0.998238
0.998264
0.998298
0.998344
0.998404
0.998486
0.998597
0.998747
0.998951
0.999226
0.999593
1.00008
1.00073
1.00157
1.00266
1.00407
1.00585
1.0081
1.01089
1.01432
1.01849
1.02351
1.02947
1.03648
1.04462
1.05396
1.06454
1.07638
1.08947
1.10374
1.11909
1.13536
1.15231
1.16942
1.18513
1.19904
1.21117
1.22159
1.2304
1.23773
1.24377
1.24866
1.25259
1.25569
1.25813
1.26001
1.26145
1.26253
1.26335
1.26395
1.26439
1.26471
1.26494
1.2651
1.26521
1.26529
1.26534
1.26537
1.26539
1.26541
1.26542
1.26542
1.26543
1.26543
1.26543
1.26543
1.26543
1.26543
1.26543
1.26543
1.26543
1.26544
1.26544
1.26544
1.26544
1.26544
1.26544
1.26544
1.26544
1.26544
1.26545
1.26545
1.26545
1.26545
1.26545
1.26545
1.26545
1.26545
1.26545
1.26545
1.26546
1.26546
1.26546
1.26546
1.26545
1.26545
1.26546
1.26546
1.26546
1.26546
1.26546
1.26546
1.26546
1.26546
1.26546
1.26546
1.26546
1.26546
1.26546
1.26546
1.26546
1.26546
1.26546
1.26546
1.26546
1.26546
1.26546
1.26546
1.26546
1.26547
1.26546
1.26546
1.26546
1.26546
1.26546
1.26546
1.26546
1.26547
1.26547
1.26546
1.26546
1.26546
1.26546
1.26546
1.26546
1.26547
1.26547
1.26547
1.26547
1.26546
1.26546
1.26546
1.26546
1.26546
1.26547
1.26547
1.26547
1.26546
1.26546
1.26546
1.26546
1.26546
1.26546
1.26547
1.26547
1.26547
1.26547
1.26546
1.26546
1.26546
1.26546
1.26546
1.26547
1.26547
1.26547
1.26547
1.26546
1.26546
1.26546
1.26546
1.26546
1.26547
1.26547
1.26547
1.26547
1.26546
1.26546
1.26546
1.26546
1.26546
1.26546
1.26546
1.26546
1.26546
1.26545
1.26543
1.26539
1.26533
1.26519
1.26491
1.26434
1.26314
1.2607
1.2557
1.24545
1.22439
1.18316
1.12177
1.08023
1.06458
1.05999
1.05875
1.05842
1.05833
1.05831
1.0583
1.0583
1.0583
1.0583
1.0583
1.0583
1.0583
1.0583
1.0583
1.0583
1.0583
1.0583
1.0583
1.0583
1.0583
1.0583
1.0583
1.0583
1.0583
1.0583
1.0583
1.0583
1.0583
1.0583
1.0583
1.0583
1.0583
1.0583
1.0583
1.0583
1.0583
1.0583
1.0583
1.0583
1.0583
1.0583
1.0583
1.0583
1.0583
1.0583
)
;

boundaryField
{
    sides
    {
        type            calculated;
        value           nonuniform List<scalar> 2(1.0583 1.18322);
    }
    empty1
    {
        type            empty;
    }
    empty2
    {
        type            empty;
    }
}


// ************************************************************************* //
