/*--------------------------------*- C++ -*----------------------------------*\
| =========                 |                                                 |
| \\      /  F ield         | OpenFOAM: The Open Source CFD Toolbox           |
|  \\    /   O peration     | Version:  2312                                  |
|   \\  /    A nd           | Website:  www.openfoam.com                      |
|    \\/     M anipulation  |                                                 |
\*---------------------------------------------------------------------------*/
FoamFile
{
    version     2.0;
    format      ascii;
    arch        "LSB;label=32;scalar=64";
    class       volScalarField;
    location    "0.25";
    object      p;
}
// * * * * * * * * * * * * * * * * * * * * * * * * * * * * * * * * * * * * * //

dimensions      [1 -1 -2 0 0 0 0];

internalField   nonuniform List<scalar> 
800
(
1
1
1
1
1
1
1
1
1
1
1
1
1
1
1
1
1
1
1
1
1
1
1
1
1
1
1
1
1
1
1
1
1
1
1
1
1
1
1
1
1
1
1
1
1
1
1
1
1
1
1
1
1
1
1
1
1
1
1
1
1
1
1
1
1
1
1
1
1
1
1
1
1
1
1
1
1
1
1
1
1
1
1
1
1
1
1
1
1
1
1
1
1
1
1
1
1
1
1
1
1
1
1
1
1
1
1
1
1
1
1
1
1
1
1
1
1
1
1
1
1
1
1
1
1
1
1
1
0.999999
0.999998
0.999995
0.999986
0.999974
0.999959
0.999936
0.999905
0.999865
0.999817
0.999753
0.999674
0.999573
0.999447
0.999287
0.999089
0.998843
0.998542
0.998177
0.997737
0.997211
0.99659
0.995862
0.995017
0.994044
0.992935
0.991681
0.990275
0.988713
0.98699
0.985106
0.983061
0.980856
0.978494
0.975982
0.973324
0.970527
0.9676
0.96455
0.961386
0.958116
0.954749
0.951293
0.947755
0.944145
0.940468
0.936732
0.932943
0.929107
0.925229
0.921315
0.917368
0.913394
0.909395
0.905376
0.901338
0.897286
0.893222
0.889148
0.885067
0.880979
0.876886
0.87279
0.868692
0.864593
0.860497
0.856404
0.852316
0.848233
0.844156
0.840086
0.836023
0.831969
0.827924
0.823888
0.819861
0.815845
0.811839
0.807844
0.80386
0.799888
0.795928
0.79198
0.788044
0.784121
0.780211
0.776313
0.772429
0.768558
0.7647
0.760856
0.757025
0.753209
0.749406
0.745617
0.741842
0.738081
0.734335
0.730602
0.726884
0.723181
0.719492
0.715817
0.712157
0.708511
0.70488
0.701263
0.697661
0.694074
0.690501
0.686942
0.683399
0.67987
0.676355
0.672855
0.66937
0.665899
0.662442
0.659001
0.655573
0.652161
0.648762
0.645378
0.642009
0.638654
0.635313
0.631987
0.628675
0.625377
0.622093
0.618824
0.615569
0.612328
0.609101
0.605888
0.60269
0.599505
0.596334
0.593177
0.590034
0.586905
0.58379
0.580688
0.5776
0.574526
0.571465
0.568418
0.565384
0.562364
0.559357
0.556364
0.553384
0.550417
0.547464
0.544523
0.541596
0.538682
0.535781
0.532893
0.530018
0.527156
0.524307
0.52147
0.518647
0.515836
0.513038
0.510252
0.507479
0.504719
0.501971
0.499236
0.496513
0.493802
0.491104
0.488418
0.485744
0.483083
0.480434
0.477797
0.475173
0.47256
0.46996
0.467372
0.464797
0.462234
0.459683
0.457144
0.454617
0.452102
0.4496
0.44711
0.444631
0.442165
0.439711
0.437268
0.434838
0.432419
0.430013
0.427618
0.425235
0.422864
0.420504
0.418156
0.41582
0.413496
0.411184
0.408883
0.406594
0.404316
0.40205
0.399796
0.397554
0.395323
0.393103
0.390896
0.3887
0.386516
0.384343
0.382182
0.380033
0.377895
0.375769
0.373655
0.371554
0.369463
0.367384
0.365318
0.363264
0.361222
0.359191
0.357173
0.355169
0.353175
0.351194
0.349226
0.347271
0.345328
0.3434
0.341484
0.339582
0.337693
0.335819
0.333959
0.332113
0.330284
0.328469
0.326672
0.324891
0.323129
0.321386
0.319667
0.317972
0.316308
0.314678
0.313091
0.311558
0.310092
0.30871
0.307435
0.30629
0.305298
0.304478
0.30384
0.303377
0.303073
0.302893
0.302804
0.302774
0.302771
0.302783
0.302833
0.302922
0.303033
0.303097
0.303116
0.303127
0.303138
0.303148
0.303163
0.303189
0.303226
0.303249
0.303256
0.303256
0.303256
0.303257
0.303261
0.303266
0.30327
0.303275
0.303282
0.303286
0.303288
0.303289
0.303289
0.303289
0.303292
0.303298
0.303303
0.303301
0.303301
0.303301
0.303304
0.303309
0.303309
0.303307
0.303306
0.303307
0.303307
0.303309
0.303311
0.303309
0.303308
0.303308
0.303308
0.303308
0.303309
0.303309
0.30331
0.30331
0.30331
0.303309
0.303308
0.303309
0.303309
0.303309
0.303308
0.303308
0.303308
0.303308
0.303308
0.303308
0.303308
0.303308
0.303308
0.303308
0.303308
0.303307
0.303306
0.303306
0.303307
0.303306
0.303305
0.303305
0.303305
0.303305
0.303305
0.303305
0.303305
0.303304
0.303304
0.303303
0.303303
0.303304
0.303304
0.303305
0.303304
0.303303
0.303303
0.303303
0.303302
0.303302
0.303302
0.303303
0.303302
0.303302
0.303301
0.303302
0.303302
0.303301
0.303301
0.303301
0.3033
0.3033
0.3033
0.303301
0.303301
0.3033
0.303299
0.3033
0.303299
0.3033
0.3033
0.303299
0.303299
0.303298
0.303299
0.303299
0.303299
0.303299
0.303299
0.303299
0.303299
0.303298
0.303298
0.303299
0.303299
0.303298
0.303298
0.303298
0.303299
0.303297
0.303298
0.303298
0.303299
0.303298
0.303297
0.303299
0.303299
0.303298
0.303297
0.303297
0.303297
0.303298
0.303298
0.303298
0.303298
0.303297
0.303297
0.303297
0.303298
0.303297
0.303298
0.303298
0.303296
0.303297
0.303296
0.303295
0.303297
0.303297
0.303297
0.303296
0.303297
0.303296
0.303295
0.303295
0.303297
0.303296
0.303297
0.303296
0.303296
0.303295
0.303295
0.303296
0.303296
0.303297
0.303297
0.303296
0.303296
0.303296
0.303297
0.303298
0.303299
0.303299
0.303298
0.303303
0.3033
0.303302
0.303286
0.303236
0.303276
0.303306
0.303302
0.303299
0.303298
0.303297
0.303296
0.303297
0.303298
0.303298
0.303299
0.303299
0.303299
0.303299
0.303298
0.303298
0.303298
0.303299
0.3033
0.3033
0.3033
0.3033
0.303299
0.303299
0.303298
0.303298
0.303299
0.303301
0.303302
0.303303
0.303302
0.303302
0.3033
0.303299
0.303299
0.303299
0.3033
0.303302
0.303303
0.303303
0.303302
0.303301
0.3033
0.303299
0.3033
0.3033
0.303303
0.303305
0.303306
0.303304
0.303303
0.303301
0.303299
0.303299
0.3033
0.303301
0.303304
0.303307
0.303308
0.303306
0.303303
0.303301
0.303301
0.303301
0.303303
0.303306
0.303308
0.303309
0.303308
0.303303
0.303301
0.303301
0.303301
0.303303
0.303306
0.303311
0.303312
0.303311
0.303307
0.303303
0.303302
0.303303
0.303305
0.303308
0.303313
0.303314
0.303313
0.303308
0.303304
0.303303
0.303304
0.303306
0.303312
0.303315
0.303315
0.303313
0.303308
0.303305
0.303304
0.303305
0.303307
0.30331
0.303315
0.303316
0.303315
0.303312
0.303307
0.303304
0.303304
0.303307
0.303313
0.303318
0.303318
0.303317
0.303311
0.303306
0.303304
0.303305
0.303308
0.303314
0.303317
0.303318
0.303317
0.303315
0.303309
0.303305
0.303305
0.303306
0.303311
0.303318
0.30332
0.303319
0.303315
0.303307
0.303303
0.303303
0.303306
0.303314
0.303319
0.30332
0.303319
0.303314
0.303308
0.303305
0.303306
0.303307
0.30331
0.303314
0.303316
0.303316
0.303306
0.303283
0.303246
0.303184
0.303069
0.302836
0.302348
0.301349
0.299296
0.295154
0.286869
0.270771
0.241025
0.191688
0.138292
0.112261
0.103417
0.100913
0.100241
0.100064
0.100017
0.100004
0.100001
0.1
0.1
0.1
0.1
0.1
0.1
0.1
0.1
0.1
0.1
0.1
0.1
0.1
0.1
0.1
0.1
0.1
0.1
0.1
0.1
0.1
0.1
0.1
0.1
0.1
0.1
0.1
0.1
0.1
0.1
0.1
0.1
0.1
0.1
0.1
0.1
0.1
0.1
0.1
)
;

boundaryField
{
    sides
    {
        type            zeroGradient;
    }
    empty1
    {
        type            empty;
    }
    empty2
    {
        type            empty;
    }
}


// ************************************************************************* //
