/*--------------------------------*- C++ -*----------------------------------*\
| =========                 |                                                 |
| \\      /  F ield         | OpenFOAM: The Open Source CFD Toolbox           |
|  \\    /   O peration     | Version:  2312                                  |
|   \\  /    A nd           | Website:  www.openfoam.com                      |
|    \\/     M anipulation  |                                                 |
\*---------------------------------------------------------------------------*/
FoamFile
{
    version     2.0;
    format      ascii;
    arch        "LSB;label=32;scalar=64";
    class       surfaceScalarField;
    location    "0.25";
    object      phi;
}
// * * * * * * * * * * * * * * * * * * * * * * * * * * * * * * * * * * * * * //

dimensions      [1 0 -1 0 0 0 0];

oriented        oriented;

internalField   nonuniform List<scalar> 
799
(
1.35525e-19
1.0842e-19
2.1684e-19
3.25261e-19
2.98156e-19
2.43945e-19
1.6263e-19
1.6263e-19
1.35525e-19
1.89735e-19
2.71051e-20
1.89735e-19
2.71051e-20
1.6263e-19
1.0842e-19
8.13152e-20
1.6263e-19
2.71051e-20
8.13152e-20
1.0842e-19
2.98156e-19
4.33681e-19
2.98156e-19
4.06576e-19
3.79471e-19
4.06576e-19
2.98156e-19
4.60786e-19
6.23416e-19
4.06576e-19
4.33681e-19
2.98156e-19
3.52366e-19
3.79471e-19
5.14996e-19
4.87891e-19
5.14996e-19
7.04731e-19
8.13152e-19
8.13152e-19
7.58942e-19
7.04731e-19
7.86047e-19
7.31836e-19
7.31836e-19
7.86047e-19
5.42101e-19
7.04731e-19
5.69206e-19
5.14996e-19
5.96311e-19
7.31836e-19
5.96311e-19
3.25261e-19
4.33681e-19
2.43945e-19
1.35525e-19
1.0842e-19
-5.42101e-20
-1.0842e-19
-5.42101e-20
-8.13152e-20
-8.13152e-20
-5.42101e-20
-1.35525e-19
-8.13152e-20
2.71051e-20
8.13152e-20
1.89735e-19
5.51383e-20
-1.35525e-19
-1.0842e-19
-5.42101e-20
-2.71051e-20
-5.42101e-20
-7.55679e-20
5.42101e-20
-2.98156e-19
-4.33681e-19
-5.14996e-19
-4.33681e-19
-6.23416e-19
-5.14996e-19
-5.14996e-19
-2.71051e-19
-3.25261e-19
-3.79471e-19
-4.60786e-19
-2.71051e-19
-2.1684e-19
-3.25261e-19
-3.79471e-19
-3.52366e-19
-3.79471e-19
-1.6263e-19
-5.42101e-20
-2.98156e-19
-4.06576e-19
-2.43945e-19
-5.14996e-19
-1.0842e-19
-2.71051e-20
1.0842e-19
4.06576e-19
1.11131e-18
2.84603e-18
7.48099e-18
1.82417e-17
4.30157e-17
1.00641e-16
2.33618e-16
5.408e-16
1.24792e-15
2.87471e-15
6.61274e-15
1.5196e-14
3.48865e-14
8.00179e-14
1.83376e-13
4.19899e-13
9.60761e-13
2.19664e-12
5.01839e-12
1.14547e-11
2.61178e-11
5.94698e-11
1.35188e-10
3.06769e-10
6.9531e-10
1.57652e-09
3.54335e-09
6.82389e-09
1.17563e-08
1.86269e-08
2.75515e-08
3.92099e-08
5.42745e-08
7.34652e-08
9.71111e-08
1.27329e-07
1.65623e-07
2.13799e-07
2.74105e-07
3.48938e-07
4.41096e-07
5.53502e-07
6.89375e-07
8.52199e-07
1.04558e-06
1.27309e-06
1.53825e-06
1.84449e-06
2.19506e-06
2.59283e-06
3.04018e-06
3.53896e-06
4.09049e-06
4.69544e-06
5.35387e-06
6.06526e-06
6.82853e-06
7.6421e-06
8.50392e-06
9.41161e-06
1.03625e-05
1.13537e-05
1.23823e-05
1.34452e-05
1.45394e-05
1.56619e-05
1.68099e-05
1.79806e-05
1.91713e-05
2.03797e-05
2.16034e-05
2.28403e-05
2.40884e-05
2.53459e-05
2.66111e-05
2.78825e-05
2.91588e-05
3.04388e-05
3.17213e-05
3.30053e-05
3.42899e-05
3.55741e-05
3.68572e-05
3.81387e-05
3.9418e-05
4.06947e-05
4.19683e-05
4.32384e-05
4.45043e-05
4.57651e-05
4.70206e-05
4.82706e-05
4.95146e-05
5.07526e-05
5.19842e-05
5.32092e-05
5.44276e-05
5.5639e-05
5.68435e-05
5.80407e-05
5.92307e-05
6.04133e-05
6.15883e-05
6.27558e-05
6.39156e-05
6.50677e-05
6.6212e-05
6.73484e-05
6.84768e-05
6.95974e-05
7.07099e-05
7.18144e-05
7.29108e-05
7.39992e-05
7.50794e-05
7.61516e-05
7.72156e-05
7.82714e-05
7.93191e-05
8.03586e-05
8.13899e-05
8.2413e-05
8.34279e-05
8.44347e-05
8.54332e-05
8.64237e-05
8.74059e-05
8.838e-05
8.9346e-05
9.03038e-05
9.12536e-05
9.21952e-05
9.31288e-05
9.40543e-05
9.49718e-05
9.58813e-05
9.67827e-05
9.76762e-05
9.85618e-05
9.94394e-05
0.000100309
0.000101171
0.000102025
0.000102871
0.000103709
0.00010454
0.000105363
0.000106178
0.000106985
0.000107785
0.000108577
0.000109362
0.000110139
0.000110908
0.00011167
0.000112424
0.000113171
0.000113911
0.000114643
0.000115367
0.000116085
0.000116795
0.000117498
0.000118193
0.000118882
0.000119563
0.000120237
0.000120904
0.000121564
0.000122217
0.000122863
0.000123502
0.000124134
0.000124759
0.000125377
0.000125988
0.000126593
0.00012719
0.000127781
0.000128366
0.000128943
0.000129514
0.000130078
0.000130636
0.000131187
0.000131732
0.00013227
0.000132802
0.000133327
0.000133846
0.000134358
0.000134864
0.000135364
0.000135857
0.000136345
0.000136826
0.000137301
0.000137769
0.000138232
0.000138688
0.000139139
0.000139583
0.000140021
0.000140454
0.00014088
0.0001413
0.000141715
0.000142123
0.000142526
0.000142923
0.000143314
0.000143699
0.000144078
0.000144452
0.00014482
0.000145182
0.000145539
0.00014589
0.000146236
0.000146576
0.00014691
0.000147239
0.000147562
0.00014788
0.000148193
0.0001485
0.000148802
0.000149099
0.00014939
0.000149676
0.000149957
0.000150232
0.000150503
0.000150768
0.000151028
0.000151283
0.000151533
0.000151778
0.000152018
0.000152253
0.000152483
0.000152708
0.000152928
0.000153143
0.000153354
0.00015356
0.000153761
0.000153957
0.000154148
0.000154335
0.000154517
0.000154694
0.000154867
0.000155035
0.000155199
0.000155358
0.000155513
0.000155663
0.000155808
0.00015595
0.000156087
0.000156219
0.000156347
0.000156471
0.000156591
0.000156707
0.000156818
0.000156925
0.000157028
0.000157126
0.000157221
0.000157312
0.000157398
0.000157481
0.000157559
0.000157633
0.000157703
0.000157769
0.00015783
0.000157886
0.000157938
0.000157984
0.000158024
0.000158058
0.000158086
0.000158107
0.000158122
0.000158133
0.000158139
0.000158142
0.000158143
0.000158143
0.000158142
0.000158141
0.000158139
0.000158136
0.000158134
0.000158133
0.000158132
0.000158132
0.000158132
0.000158131
0.00015813
0.000158129
0.000158128
0.000158128
0.000158127
0.000158127
0.000158127
0.000158127
0.000158126
0.000158126
0.000158126
0.000158126
0.000158125
0.000158125
0.000158125
0.000158125
0.000158125
0.000158124
0.000158124
0.000158124
0.000158124
0.000158124
0.000158123
0.000158123
0.000158123
0.000158122
0.000158122
0.000158122
0.000158122
0.000158122
0.000158122
0.000158121
0.000158121
0.000158121
0.000158121
0.000158121
0.00015812
0.00015812
0.00015812
0.00015812
0.00015812
0.000158119
0.000158119
0.000158119
0.000158119
0.000158119
0.000158118
0.000158118
0.000158118
0.000158118
0.000158117
0.000158117
0.000158117
0.000158116
0.000158116
0.000158116
0.000158115
0.000158115
0.000158114
0.000158114
0.000158113
0.000158113
0.000158112
0.000158112
0.000158112
0.000158111
0.000158111
0.00015811
0.00015811
0.000158109
0.000158109
0.000158108
0.000158108
0.000158107
0.000158106
0.000158106
0.000158105
0.000158105
0.000158104
0.000158104
0.000158103
0.000158103
0.000158102
0.000158101
0.000158101
0.0001581
0.0001581
0.000158099
0.000158098
0.000158098
0.000158097
0.000158097
0.000158096
0.000158096
0.000158095
0.000158094
0.000158094
0.000158093
0.000158092
0.000158091
0.000158091
0.00015809
0.000158089
0.000158089
0.000158088
0.000158088
0.000158087
0.000158086
0.000158085
0.000158085
0.000158084
0.000158084
0.000158083
0.000158082
0.000158081
0.000158081
0.00015808
0.000158079
0.000158078
0.000158077
0.000158077
0.000158076
0.000158075
0.000158074
0.000158073
0.000158072
0.00015807
0.000158069
0.000158068
0.000158067
0.000158065
0.000158064
0.000158062
0.000158061
0.000158059
0.000158057
0.000158056
0.000158054
0.000158052
0.00015805
0.000158048
0.000158045
0.000158043
0.000158041
0.000158038
0.000158035
0.000158031
0.000158027
0.000158021
0.000158015
0.000158005
0.000157993
0.000157977
0.000157956
0.000157926
0.000157887
0.000157833
0.00015776
0.000157663
0.000157532
0.00015736
0.000157133
0.000156837
0.000156457
0.000155972
0.000155362
0.000154603
0.00015367
0.000152539
0.000151185
0.000149588
0.000147731
0.000145602
0.000143199
0.000140527
0.000137603
0.000134453
0.000131114
0.000127633
0.000124057
0.000120445
0.000116875
0.000113633
0.000110831
0.000108448
0.000106447
0.000104784
0.000103416
0.000102303
0.000101406
0.000100691
0.000100125
9.96831e-05
9.93406e-05
9.9078e-05
9.88787e-05
9.8729e-05
9.86177e-05
9.85359e-05
9.84763e-05
9.84335e-05
9.84032e-05
9.83819e-05
9.83673e-05
9.83574e-05
9.83508e-05
9.83463e-05
9.83434e-05
9.83415e-05
9.83404e-05
9.83395e-05
9.83393e-05
9.83391e-05
9.83391e-05
9.83392e-05
9.83393e-05
9.83393e-05
9.83392e-05
9.8339e-05
9.83388e-05
9.83387e-05
9.83387e-05
9.83386e-05
9.83386e-05
9.83387e-05
9.83386e-05
9.83384e-05
9.8338e-05
9.83378e-05
9.83376e-05
9.83377e-05
9.83375e-05
9.83377e-05
9.83378e-05
9.83378e-05
9.83377e-05
9.83376e-05
9.83372e-05
9.83371e-05
9.8337e-05
9.83371e-05
9.83373e-05
9.83376e-05
9.83377e-05
9.83377e-05
9.83376e-05
9.83375e-05
9.83373e-05
9.83372e-05
9.83374e-05
9.83377e-05
9.83381e-05
9.83382e-05
9.83382e-05
9.83382e-05
9.83381e-05
9.83378e-05
9.83378e-05
9.83379e-05
9.83382e-05
9.83386e-05
9.83389e-05
9.83389e-05
9.83388e-05
9.83388e-05
9.83386e-05
9.83385e-05
9.83387e-05
9.8339e-05
9.83395e-05
9.83397e-05
9.83398e-05
9.83397e-05
9.83394e-05
9.83392e-05
9.83392e-05
9.83394e-05
9.83398e-05
9.83402e-05
9.83404e-05
9.83404e-05
9.83403e-05
9.83401e-05
9.83398e-05
9.83397e-05
9.83399e-05
9.83401e-05
9.83406e-05
9.8341e-05
9.8341e-05
9.83409e-05
9.83406e-05
9.83402e-05
9.83401e-05
9.83402e-05
9.83406e-05
9.83412e-05
9.83414e-05
9.83414e-05
9.83413e-05
9.8341e-05
9.83407e-05
9.83406e-05
9.83407e-05
9.83408e-05
9.83412e-05
9.83417e-05
9.83417e-05
9.83416e-05
9.83413e-05
9.83408e-05
9.83406e-05
9.83405e-05
9.83408e-05
9.83414e-05
9.83419e-05
9.8342e-05
9.83418e-05
9.83414e-05
9.83407e-05
9.83406e-05
9.83407e-05
9.83411e-05
9.83417e-05
9.83422e-05
9.83423e-05
9.83422e-05
9.83418e-05
9.83411e-05
9.83402e-05
9.83388e-05
9.83362e-05
9.83318e-05
9.83225e-05
9.83031e-05
9.82628e-05
9.81802e-05
9.80126e-05
9.76715e-05
9.69793e-05
9.55726e-05
9.27418e-05
8.7125e-05
7.63487e-05
5.68857e-05
2.76495e-05
9.93493e-06
2.8894e-06
7.81828e-07
2.07296e-07
5.47228e-08
1.43713e-08
3.7374e-09
9.35795e-10
1.98281e-10
4.02217e-11
7.9855e-12
1.57534e-12
3.10379e-13
6.11545e-14
1.20542e-14
2.37685e-15
4.68789e-16
9.24824e-17
1.82824e-17
3.61852e-18
7.14896e-19
1.28749e-19
3.04932e-20
-4.37198e-21
1.69407e-20
1.69407e-20
-4.25468e-21
-1.69407e-20
-6.77626e-21
-3.38813e-21
-2.03288e-20
-3.04932e-20
-1.35525e-20
-2.03288e-20
-3.72694e-20
-2.71051e-20
-2.71051e-20
-1.35525e-20
0
-1.35525e-20
1.35525e-20
-1.35525e-20
-1.69407e-20
-3.38813e-21
2.03288e-20
0
-4.53713e-21
)
;

boundaryField
{
    sides
    {
        type            calculated;
        value           uniform 0;
    }
    empty1
    {
        type            empty;
        value           nonuniform List<scalar> 0();
    }
    empty2
    {
        type            empty;
        value           nonuniform List<scalar> 0();
    }
}


// ************************************************************************* //
