/*--------------------------------*- C++ -*----------------------------------*\
| =========                 |                                                 |
| \\      /  F ield         | OpenFOAM: The Open Source CFD Toolbox           |
|  \\    /   O peration     | Version:  2312                                  |
|   \\  /    A nd           | Website:  www.openfoam.com                      |
|    \\/     M anipulation  |                                                 |
\*---------------------------------------------------------------------------*/
FoamFile
{
    version     2.0;
    format      ascii;
    arch        "LSB;label=32;scalar=64";
    class       volScalarField;
    location    "0.25";
    object      rho;
}
// * * * * * * * * * * * * * * * * * * * * * * * * * * * * * * * * * * * * * //

dimensions      [1 -3 0 0 0 0 0];

internalField   nonuniform List<scalar> 
800
(
1
1
1
1
1
1
1
1
1
1
1
1
1
1
1
1
1
1
1
1
1
1
1
1
1
1
1
1
1
1
1
1
1
1
1
1
1
1
1
1
1
1
1
1
1
1
1
1
1
1
1
1
1
1
1
1
1
1
1
1
1
1
1
1
1
1
1
1
1
1
1
1
1
1
1
1
1
1
1
1
1
1
1
1
1
1
1
1
1
1
1
1
1
1
1
1
1
1
1
1
1
1
1
1
1
1
1
1
1
1
1
1
1
1
1
1
1
1
1
1
1
1
1
1
1
1
1
1
0.999999
0.999998
0.999995
0.999989
0.99998
0.999968
0.999952
0.99993
0.999902
0.999867
0.999823
0.999768
0.999696
0.999606
0.999493
0.999351
0.999176
0.998961
0.998701
0.998387
0.998012
0.997569
0.997049
0.996445
0.99575
0.994956
0.994059
0.993052
0.991933
0.990699
0.989348
0.98788
0.986296
0.984599
0.982792
0.980878
0.978864
0.976753
0.974552
0.972267
0.969903
0.967466
0.964963
0.962398
0.959776
0.957104
0.954386
0.951626
0.948828
0.945997
0.943136
0.940247
0.937335
0.934401
0.931448
0.928479
0.925494
0.922497
0.919489
0.916472
0.913445
0.910411
0.907371
0.904325
0.901274
0.898221
0.895167
0.892112
0.889056
0.886001
0.882947
0.879895
0.876844
0.873796
0.87075
0.867708
0.864669
0.861633
0.858602
0.855575
0.852553
0.849535
0.846522
0.843514
0.840512
0.837515
0.834524
0.831538
0.828559
0.825586
0.822618
0.819657
0.816703
0.813755
0.810813
0.807879
0.804951
0.802029
0.799115
0.796208
0.793307
0.790414
0.787528
0.784649
0.781777
0.778912
0.776055
0.773205
0.770362
0.767527
0.764699
0.761879
0.759066
0.756261
0.753463
0.750672
0.747889
0.745114
0.742346
0.739586
0.736833
0.734088
0.73135
0.72862
0.725898
0.723183
0.720476
0.717777
0.715085
0.7124
0.709724
0.707054
0.704393
0.701739
0.699092
0.696454
0.693822
0.691199
0.688582
0.685974
0.683373
0.680779
0.678193
0.675615
0.673044
0.670481
0.667925
0.665376
0.662835
0.660301
0.657775
0.655256
0.652744
0.65024
0.647743
0.645254
0.642771
0.640297
0.637829
0.635369
0.632916
0.63047
0.628031
0.6256
0.623176
0.620759
0.618349
0.615946
0.613551
0.611163
0.608781
0.606407
0.60404
0.601681
0.599328
0.596982
0.594644
0.592313
0.589989
0.587671
0.585362
0.583059
0.580763
0.578475
0.576194
0.573921
0.571654
0.569395
0.567143
0.564899
0.562662
0.560432
0.558209
0.555994
0.553786
0.551585
0.549392
0.547205
0.545026
0.542855
0.540691
0.538534
0.536384
0.534242
0.532107
0.529979
0.527859
0.525746
0.52364
0.521542
0.519451
0.517368
0.515292
0.513224
0.511164
0.50911
0.507065
0.505027
0.502997
0.500975
0.49896
0.496953
0.494954
0.492964
0.490981
0.489006
0.487039
0.485081
0.483131
0.481189
0.479257
0.477334
0.475418
0.473511
0.471615
0.469727
0.467848
0.46598
0.464122
0.462273
0.460435
0.458608
0.456792
0.454987
0.453195
0.451416
0.449649
0.447897
0.44616
0.44444
0.44274
0.441062
0.439411
0.437793
0.436215
0.434688
0.433226
0.431846
0.430571
0.429425
0.428431
0.427609
0.426968
0.426503
0.426194
0.426013
0.425924
0.425893
0.425888
0.425902
0.425952
0.42604
0.426152
0.426216
0.426236
0.426246
0.426257
0.426266
0.426281
0.426307
0.426343
0.426367
0.426373
0.426371
0.42637
0.426371
0.426375
0.426379
0.426383
0.426388
0.426394
0.426398
0.426399
0.4264
0.4264
0.4264
0.426402
0.426407
0.426411
0.426409
0.426408
0.426408
0.426411
0.426415
0.426415
0.426413
0.426411
0.426411
0.426411
0.426412
0.426412
0.426411
0.426409
0.426409
0.426409
0.426408
0.426408
0.426408
0.426408
0.426408
0.426407
0.426405
0.426405
0.426404
0.426404
0.426402
0.426401
0.4264
0.4264
0.426399
0.426398
0.426397
0.426396
0.426395
0.426394
0.426393
0.426391
0.426389
0.426387
0.426386
0.426385
0.426383
0.426381
0.42638
0.426379
0.426377
0.426376
0.426374
0.426373
0.426371
0.426369
0.426367
0.426366
0.426364
0.426363
0.426362
0.42636
0.426358
0.426356
0.426354
0.426352
0.426351
0.426349
0.426347
0.426345
0.426343
0.426341
0.42634
0.426338
0.426337
0.426335
0.426333
0.426331
0.426328
0.426327
0.426326
0.426323
0.426321
0.426319
0.426317
0.426315
0.426314
0.426312
0.42631
0.426308
0.426306
0.426304
0.426302
0.4263
0.426299
0.426297
0.426295
0.426292
0.426291
0.426289
0.426287
0.426284
0.426281
0.426279
0.426277
0.426274
0.426271
0.426268
0.426266
0.426263
0.426259
0.426256
0.426252
0.426249
0.426244
0.426239
0.426236
0.426232
0.426227
0.426222
0.426217
0.426211
0.426206
0.4262
0.426194
0.426189
0.426181
0.426174
0.426168
0.426156
0.426147
0.426132
0.426113
0.426093
0.426065
0.426026
0.425973
0.425904
0.425808
0.425679
0.425506
0.425274
0.42496
0.424545
0.423998
0.423283
0.422359
0.421179
0.419686
0.417822
0.415521
0.412714
0.409339
0.405334
0.40065
0.395252
0.389119
0.382256
0.374695
0.366495
0.357749
0.348553
0.339059
0.329394
0.31972
0.310471
0.302327
0.29535
0.289458
0.284542
0.280483
0.277166
0.274484
0.272337
0.270634
0.269297
0.268257
0.267457
0.266846
0.266386
0.266043
0.265789
0.265605
0.265471
0.265376
0.265309
0.265262
0.26523
0.265208
0.265193
0.265184
0.265178
0.265175
0.265174
0.265173
0.265172
0.265171
0.26517
0.265169
0.265169
0.265169
0.265169
0.26517
0.265171
0.26517
0.265169
0.265168
0.265167
0.265166
0.265165
0.265166
0.265167
0.265168
0.265167
0.265166
0.265165
0.265163
0.265162
0.265162
0.265161
0.265162
0.265164
0.265165
0.265165
0.265165
0.265162
0.26516
0.26516
0.26516
0.265162
0.265163
0.265165
0.265165
0.265164
0.265161
0.26516
0.265159
0.26516
0.265161
0.265163
0.265166
0.265167
0.265166
0.265163
0.265161
0.26516
0.26516
0.265161
0.265164
0.265167
0.265167
0.265166
0.265164
0.265161
0.26516
0.265161
0.265163
0.265166
0.265168
0.265168
0.265166
0.265163
0.265161
0.265161
0.265161
0.265163
0.265166
0.265168
0.265169
0.265168
0.265166
0.265162
0.265161
0.265161
0.265163
0.265167
0.26517
0.26517
0.265169
0.265165
0.265162
0.265161
0.265162
0.265164
0.265168
0.26517
0.26517
0.265169
0.265167
0.265164
0.265162
0.265162
0.265163
0.265166
0.26517
0.265172
0.265171
0.265168
0.265163
0.265161
0.26516
0.265163
0.265168
0.265171
0.265171
0.26517
0.265167
0.265163
0.265162
0.265163
0.265164
0.265166
0.265168
0.26517
0.265169
0.265163
0.265148
0.265124
0.265084
0.265011
0.264862
0.264553
0.263921
0.262618
0.259986
0.254707
0.244388
0.225086
0.191706
0.153858
0.134688
0.127751
0.125739
0.125196
0.125052
0.125014
0.125003
0.125001
0.125
0.125
0.125
0.125
0.125
0.125
0.125
0.125
0.125
0.125
0.125
0.125
0.125
0.125
0.125
0.125
0.125
0.125
0.125
0.125
0.125
0.125
0.125
0.125
0.125
0.125
0.125
0.125
0.125
0.125
0.125
0.125
0.125
0.125
0.125
0.125
0.125
0.125
0.125
)
;

boundaryField
{
    sides
    {
        type            calculated;
        value           nonuniform List<scalar> 2(0.125 1);
    }
    empty1
    {
        type            empty;
    }
    empty2
    {
        type            empty;
    }
}


// ************************************************************************* //
