/*--------------------------------*- C++ -*----------------------------------*\
| =========                 |                                                 |
| \\      /  F ield         | OpenFOAM: The Open Source CFD Toolbox           |
|  \\    /   O peration     | Version:  2312                                  |
|   \\  /    A nd           | Website:  www.openfoam.com                      |
|    \\/     M anipulation  |                                                 |
\*---------------------------------------------------------------------------*/
FoamFile
{
    version     2.0;
    format      ascii;
    arch        "LSB;label=32;scalar=64";
    class       volScalarField;
    location    "0.25";
    object      T;
}
// * * * * * * * * * * * * * * * * * * * * * * * * * * * * * * * * * * * * * //

dimensions      [0 0 0 1 0 0 0];

internalField   nonuniform List<scalar> 
800
(
2.5
2.5
2.5
2.5
2.5
2.5
2.5
2.5
2.5
2.5
2.5
2.5
2.5
2.5
2.5
2.5
2.5
2.5
2.5
2.5
2.5
2.5
2.5
2.5
2.5
2.5
2.5
2.5
2.5
2.5
2.5
2.5
2.5
2.5
2.5
2.5
2.5
2.5
2.5
2.5
2.5
2.5
2.5
2.5
2.5
2.5
2.5
2.5
2.5
2.5
2.5
2.5
2.5
2.5
2.5
2.5
2.5
2.5
2.5
2.5
2.5
2.5
2.5
2.5
2.5
2.5
2.5
2.5
2.5
2.5
2.5
2.5
2.5
2.5
2.5
2.5
2.5
2.5
2.5
2.5
2.5
2.5
2.5
2.5
2.5
2.5
2.5
2.5
2.5
2.5
2.5
2.5
2.5
2.5
2.5
2.5
2.5
2.5
2.5
2.5
2.5
2.5
2.5
2.5
2.5
2.5
2.5
2.5
2.5
2.5
2.5
2.5
2.5
2.5
2.5
2.5
2.5
2.5
2.5
2.5
2.5
2.5
2.5
2.5
2.5
2.5
2.5
2.5
2.5
2.5
2.5
2.49999
2.49998
2.49998
2.49996
2.49994
2.49991
2.49988
2.49982
2.49977
2.49969
2.4996
2.49949
2.49934
2.49917
2.49895
2.49869
2.49837
2.49799
2.49755
2.49702
2.49642
2.49572
2.49492
2.49402
2.49301
2.49188
2.49064
2.48928
2.48781
2.48621
2.4845
2.48268
2.48074
2.47871
2.47657
2.47434
2.47202
2.46962
2.46714
2.46458
2.46196
2.45928
2.45655
2.45376
2.45092
2.44804
2.44512
2.44216
2.43917
2.43615
2.4331
2.43002
2.42692
2.4238
2.42066
2.41751
2.41433
2.41114
2.40794
2.40472
2.40149
2.39825
2.395
2.39174
2.38848
2.3852
2.38193
2.37864
2.37535
2.37206
2.36876
2.36545
2.36215
2.35884
2.35552
2.35221
2.34889
2.34557
2.34225
2.33892
2.3356
2.33227
2.32895
2.32562
2.32229
2.31896
2.31563
2.3123
2.30897
2.30564
2.30231
2.29898
2.29565
2.29232
2.28899
2.28566
2.28233
2.27901
2.27568
2.27235
2.26903
2.26571
2.26239
2.25906
2.25574
2.25243
2.24911
2.24579
2.24248
2.23916
2.23585
2.23254
2.22923
2.22593
2.22262
2.21932
2.21602
2.21271
2.20942
2.20612
2.20282
2.19953
2.19624
2.19295
2.18966
2.18637
2.18309
2.17981
2.17653
2.17325
2.16997
2.1667
2.16342
2.16015
2.15688
2.15362
2.15035
2.14709
2.14383
2.14057
2.13731
2.13406
2.1308
2.12755
2.1243
2.12106
2.11781
2.11457
2.11133
2.10809
2.10485
2.10162
2.09838
2.09515
2.09193
2.0887
2.08548
2.08225
2.07903
2.07581
2.0726
2.06938
2.06617
2.06296
2.05975
2.05655
2.05334
2.05014
2.04694
2.04375
2.04055
2.03736
2.03417
2.03098
2.02779
2.0246
2.02142
2.01824
2.01506
2.01189
2.00872
2.00555
2.00238
1.99921
1.99605
1.99289
1.98974
1.98658
1.98343
1.98028
1.97714
1.974
1.97086
1.96772
1.96458
1.96145
1.95833
1.9552
1.95208
1.94896
1.94584
1.94273
1.93962
1.93652
1.93341
1.93031
1.92722
1.92413
1.92104
1.91795
1.91487
1.91179
1.90872
1.90565
1.90259
1.89952
1.89647
1.89342
1.89037
1.88732
1.88429
1.88125
1.87822
1.8752
1.87218
1.86917
1.86616
1.86316
1.86017
1.85718
1.8542
1.85123
1.84826
1.8453
1.84235
1.83941
1.83648
1.83356
1.83064
1.82774
1.82485
1.82197
1.81911
1.81626
1.81342
1.81061
1.80782
1.80505
1.80231
1.79961
1.79696
1.79436
1.79185
1.78944
1.78715
1.78504
1.78314
1.78149
1.78012
1.77906
1.77828
1.77778
1.77749
1.77734
1.77729
1.77729
1.7773
1.77739
1.77754
1.77773
1.77784
1.77787
1.77789
1.77791
1.77793
1.77795
1.778
1.77806
1.7781
1.77812
1.77812
1.77813
1.77813
1.77814
1.77815
1.77815
1.77816
1.77818
1.77819
1.7782
1.7782
1.7782
1.7782
1.77821
1.77822
1.77823
1.77823
1.77823
1.77823
1.77824
1.77825
1.77825
1.77825
1.77825
1.77825
1.77826
1.77826
1.77827
1.77827
1.77827
1.77827
1.77827
1.77827
1.77828
1.77828
1.77829
1.77828
1.77829
1.77829
1.77829
1.7783
1.7783
1.7783
1.7783
1.77831
1.77831
1.77831
1.77832
1.77832
1.77832
1.77833
1.77833
1.77834
1.77834
1.77835
1.77835
1.77835
1.77836
1.77837
1.77837
1.77837
1.77838
1.77838
1.77839
1.7784
1.7784
1.7784
1.77842
1.77842
1.77842
1.77843
1.77844
1.77845
1.77845
1.77846
1.77846
1.77847
1.77847
1.77848
1.77848
1.7785
1.7785
1.77851
1.77851
1.77852
1.77853
1.77853
1.77854
1.77855
1.77855
1.77856
1.77857
1.77858
1.77858
1.77859
1.77859
1.7786
1.77861
1.77862
1.77863
1.77863
1.77864
1.77864
1.77865
1.77866
1.77867
1.77868
1.77868
1.77869
1.7787
1.77871
1.77872
1.77873
1.77874
1.77875
1.77875
1.77876
1.77878
1.77878
1.7788
1.77881
1.77882
1.77884
1.77885
1.77887
1.77888
1.7789
1.77891
1.77893
1.77894
1.77897
1.77899
1.77901
1.77904
1.77905
1.77908
1.7791
1.77913
1.77915
1.77919
1.77922
1.77925
1.7793
1.77936
1.77943
1.77952
1.77964
1.7798
1.78002
1.78031
1.78071
1.78124
1.78197
1.78295
1.78426
1.78601
1.78831
1.79133
1.79524
1.80028
1.80668
1.81475
1.8248
1.83721
1.85236
1.87065
1.89253
1.91838
1.94862
1.98361
2.02364
2.06891
2.11953
2.17542
2.23635
2.30185
2.3711
2.44206
2.5081
2.56731
2.61954
2.66479
2.70335
2.73569
2.76243
2.78422
2.80174
2.81566
2.82657
2.83503
2.84151
2.84642
2.85009
2.85281
2.8548
2.85624
2.85727
2.85799
2.85849
2.85884
2.85906
2.85922
2.85932
2.85939
2.85943
2.85946
2.85948
2.85948
2.85949
2.85948
2.85948
2.85949
2.85949
2.85949
2.8595
2.85951
2.85952
2.85952
2.85952
2.85952
2.85952
2.85953
2.85954
2.85955
2.85956
2.85957
2.85957
2.85957
2.85957
2.85957
2.85957
2.85957
2.85958
2.85959
2.8596
2.85961
2.85961
2.8596
2.8596
2.8596
2.8596
2.85961
2.85962
2.85962
2.85963
2.85962
2.85961
2.85961
2.85961
2.85961
2.85961
2.85962
2.85963
2.85964
2.85964
2.85963
2.85962
2.85962
2.85962
2.85962
2.85963
2.85964
2.85964
2.85965
2.85963
2.85962
2.85962
2.85963
2.85962
2.85964
2.85964
2.85965
2.85965
2.85963
2.85963
2.85962
2.85963
2.85963
2.85963
2.85965
2.85965
2.85966
2.85965
2.85963
2.85963
2.85963
2.85963
2.85964
2.85966
2.85966
2.85966
2.85964
2.85963
2.85962
2.85962
2.85963
2.85965
2.85965
2.85965
2.85965
2.85965
2.85964
2.85962
2.85963
2.85962
2.85963
2.85965
2.85966
2.85966
2.85965
2.85962
2.85962
2.85962
2.85962
2.85964
2.85966
2.85966
2.85966
2.85965
2.85963
2.85962
2.85962
2.85962
2.85963
2.85965
2.85964
2.85965
2.85962
2.85956
2.85947
2.85932
2.85902
2.85842
2.85715
2.85454
2.84916
2.83817
2.81567
2.76989
2.67703
2.49977
2.24707
2.08373
2.0238
2.00638
2.00169
2.00045
2.00012
2.00003
2
2
2
2
2
2
2
2
2
2
2
2
2
2
2
2
2
2
2
2
2
2
2
2
2
2
2
2
2
2
2
2
2
2
2
2
2
2
2
2
)
;

boundaryField
{
    sides
    {
        type            zeroGradient;
    }
    empty1
    {
        type            empty;
    }
    empty2
    {
        type            empty;
    }
}


// ************************************************************************* //
