/*--------------------------------*- C++ -*----------------------------------*\
| =========                 |                                                 |
| \\      /  F ield         | OpenFOAM: The Open Source CFD Toolbox           |
|  \\    /   O peration     | Version:  2312                                  |
|   \\  /    A nd           | Website:  www.openfoam.com                      |
|    \\/     M anipulation  |                                                 |
\*---------------------------------------------------------------------------*/
FoamFile
{
    version     2.0;
    format      ascii;
    arch        "LSB;label=32;scalar=64";
    class       volScalarField;
    location    "0.25";
    object      thermo:psiGasEff;
}
// * * * * * * * * * * * * * * * * * * * * * * * * * * * * * * * * * * * * * //

dimensions      [-2 4 2 0 0 0 0];

internalField   nonuniform List<scalar> 
800
(
1
1
1
1
1
1
1
1
1
1
1
1
1
1
1
1
1
1
1
1
1
1
1
1
1
1
1
1
1
1
1
1
1
1
1
1
1
1
1
1
1
1
1
1
1
1
1
1
1
1
1
1
1
1
1
1
1
1
1
1
1
1
1
1
1
1
1
1
1
1
1
1
1
1
1
1
1
1
1
1
1
1
1
1
1
1
1
1
1
1
1
1
1
1
1
1
1
1
1
1
1
1
1
1
1
1
1
1
1
1
1
1
1
1
1
1
1
1
1
1
1
1
1
1
1
1
1
1
1
1
1.00001
1.00002
1.00005
1.00007
1.00011
1.00016
1.00023
1.00032
1.00042
1.00056
1.00073
1.00095
1.00122
1.00156
1.00198
1.0025
1.00313
1.00389
1.00479
1.00587
1.00713
1.00859
1.01029
1.01222
1.01442
1.01689
1.01964
1.02269
1.02605
1.02971
1.03368
1.03796
1.04255
1.04744
1.05262
1.05808
1.06382
1.06983
1.0761
1.08262
1.08937
1.09635
1.10355
1.11096
1.11856
1.12636
1.13435
1.14251
1.15085
1.15935
1.16801
1.17683
1.1858
1.19492
1.20419
1.2136
1.22315
1.23284
1.24266
1.25262
1.26272
1.27295
1.28331
1.2938
1.30442
1.31517
1.32604
1.33704
1.34816
1.35941
1.37079
1.38229
1.39392
1.40568
1.41756
1.42958
1.44172
1.45399
1.46639
1.47892
1.49158
1.50438
1.51731
1.53037
1.54356
1.55689
1.57036
1.58397
1.59771
1.6116
1.62563
1.63979
1.65411
1.66856
1.68316
1.69791
1.71281
1.72786
1.74306
1.75841
1.77391
1.78957
1.80539
1.82136
1.8375
1.85379
1.87025
1.88687
1.90366
1.92061
1.93774
1.95503
1.9725
1.99014
2.00796
2.02595
2.04413
2.06248
2.08102
2.09974
2.11865
2.13775
2.15704
2.17653
2.1962
2.21608
2.23615
2.25642
2.2769
2.29758
2.31847
2.33956
2.36087
2.3824
2.40414
2.42609
2.44827
2.47067
2.4933
2.51615
2.53924
2.56256
2.58611
2.6099
2.63393
2.65821
2.68273
2.7075
2.73252
2.7578
2.78333
2.80912
2.83518
2.8615
2.88809
2.91495
2.94209
2.9695
2.99719
3.02517
3.05344
3.08199
3.11084
3.13999
3.16943
3.19918
3.22924
3.2596
3.29028
3.32128
3.3526
3.38424
3.4162
3.4485
3.48114
3.51411
3.54742
3.58108
3.61508
3.64944
3.68415
3.71922
3.75465
3.79044
3.82661
3.86314
3.90005
3.93734
3.97501
4.01307
4.05153
4.09037
4.12962
4.16927
4.20933
4.2498
4.29069
4.33199
4.37372
4.41588
4.45847
4.50149
4.54496
4.58887
4.63322
4.67804
4.7233
4.76903
4.81522
4.86188
4.90902
4.95662
5.00471
5.05328
5.10234
5.15189
5.20193
5.25246
5.3035
5.35505
5.40709
5.45964
5.5127
5.56629
5.62038
5.67496
5.73008
5.78574
5.84188
5.89853
5.95573
6.01344
6.07163
6.13035
6.1896
6.24932
6.30954
6.37026
6.43145
6.49312
6.55524
6.61781
6.68079
6.74417
6.80792
6.87202
6.9364
7.00099
7.06568
7.13035
7.19481
7.2588
7.32198
7.38387
7.44382
7.50101
7.55442
7.60291
7.64531
7.68063
7.70833
7.72849
7.74187
7.74975
7.75364
7.75498
7.75514
7.75459
7.75241
7.74852
7.74365
7.74083
7.74
7.73954
7.73906
7.73863
7.73798
7.73686
7.73525
7.73423
7.73393
7.73399
7.73401
7.73396
7.73377
7.73357
7.7334
7.73317
7.7329
7.73272
7.73265
7.73261
7.73262
7.73261
7.73249
7.73225
7.73207
7.73215
7.73217
7.73215
7.73204
7.73185
7.73182
7.73193
7.73198
7.73197
7.73195
7.73189
7.73184
7.73191
7.73196
7.73196
7.73196
7.73197
7.73196
7.73195
7.73193
7.73194
7.73196
7.73199
7.73204
7.73202
7.73202
7.73205
7.7321
7.73212
7.73213
7.73213
7.73215
7.73217
7.73219
7.73221
7.73223
7.73226
7.7323
7.73237
7.73241
7.73245
7.73243
7.73249
7.73253
7.73255
7.73258
7.73262
7.73263
7.73266
7.7327
7.73275
7.73278
7.73285
7.73288
7.73288
7.7329
7.7329
7.73294
7.733
7.73305
7.7331
7.73315
7.73317
7.73321
7.73321
7.73328
7.73332
7.73336
7.73337
7.7334
7.73344
7.73349
7.73351
7.73358
7.73362
7.73365
7.73364
7.7337
7.73376
7.73382
7.73385
7.73388
7.73389
7.73394
7.73398
7.73403
7.73408
7.73411
7.73414
7.73417
7.73418
7.73421
7.73427
7.73432
7.73435
7.73439
7.73442
7.73446
7.73453
7.73458
7.73463
7.73466
7.73474
7.73477
7.73481
7.73484
7.73493
7.73502
7.73504
7.7351
7.73523
7.73531
7.73538
7.73544
7.73552
7.7356
7.7357
7.7358
7.73593
7.73602
7.73614
7.73622
7.73639
7.73649
7.7366
7.73685
7.737
7.73728
7.73766
7.73797
7.73848
7.73919
7.74019
7.74142
7.74317
7.74557
7.74869
7.75287
7.75863
7.76619
7.77622
7.78938
7.80645
7.82831
7.85613
7.89117
7.93486
7.98881
8.05471
8.13431
8.22938
8.34178
8.4732
8.62532
8.79936
8.99627
9.21606
9.45929
9.72401
10.01
10.3144
10.6202
10.9053
11.1632
11.3905
11.5874
11.7551
11.8958
12.012
12.1067
12.1828
12.2433
12.2907
12.3275
12.3557
12.3771
12.3931
12.4049
12.4135
12.4197
12.4241
12.4272
12.4294
12.431
12.4321
12.4328
12.4332
12.4334
12.4335
12.4335
12.4335
12.4336
12.4337
12.4338
12.4339
12.4339
12.4339
12.4338
12.4337
12.4336
12.4337
12.4337
12.4338
12.4339
12.434
12.434
12.434
12.4338
12.4337
12.4337
12.4338
12.4339
12.434
12.4342
12.4342
12.4342
12.4341
12.4339
12.4337
12.4337
12.4338
12.434
12.4342
12.4342
12.4342
12.434
12.4338
12.4337
12.4337
12.4338
12.434
12.4342
12.4342
12.4342
12.4341
12.4338
12.4335
12.4334
12.4335
12.4338
12.4341
12.4341
12.4341
12.434
12.4337
12.4334
12.4333
12.4334
12.4337
12.4341
12.4341
12.4341
12.4339
12.4335
12.4333
12.4332
12.4334
12.4338
12.434
12.434
12.434
12.4338
12.4336
12.4332
12.4332
12.4332
12.4335
12.4339
12.434
12.434
12.4338
12.4334
12.4331
12.433
12.4332
12.4336
12.4339
12.434
12.434
12.4337
12.4333
12.4331
12.4331
12.4331
12.4333
12.4337
12.4339
12.434
12.4339
12.4335
12.433
12.4329
12.433
12.4333
12.4338
12.4341
12.4341
12.4339
12.4333
12.433
12.4329
12.433
12.4334
12.4338
12.4339
12.4339
12.4338
12.4336
12.4333
12.4331
12.4332
12.4339
12.4355
12.4381
12.4425
12.4508
12.4673
12.5019
12.5733
12.722
13.0305
13.683
15.1042
18.4123
27.1922
47.0715
66.2494
75.7363
78.8234
79.6861
79.917
79.978
79.9944
79.9989
79.9998
80
80
80
80
80
80
80
80
80
80
80
80
80
80
80
80
80
80
80
80
80
80
80
80
80
80
80
80
80
80
80
80
80
80
80
80
80
80
)
;

boundaryField
{
    sides
    {
        type            calculated;
        value           nonuniform List<scalar> 2(80 1);
    }
    empty1
    {
        type            empty;
    }
    empty2
    {
        type            empty;
    }
}


// ************************************************************************* //
