/*--------------------------------*- C++ -*----------------------------------*\
| =========                 |                                                 |
| \\      /  F ield         | OpenFOAM: The Open Source CFD Toolbox           |
|  \\    /   O peration     | Version:  2312                                  |
|   \\  /    A nd           | Website:  www.openfoam.com                      |
|    \\/     M anipulation  |                                                 |
\*---------------------------------------------------------------------------*/
FoamFile
{
    version     2.0;
    format      ascii;
    arch        "LSB;label=32;scalar=64";
    class       volScalarField;
    location    "0.25";
    object      thermo:psiLiqEff;
}
// * * * * * * * * * * * * * * * * * * * * * * * * * * * * * * * * * * * * * //

dimensions      [-2 4 2 0 0 0 0];

internalField   nonuniform List<scalar> 
800
(
5.78597e-11
5.78597e-11
5.78597e-11
5.78597e-11
5.78597e-11
5.78597e-11
5.78597e-11
5.78597e-11
5.78597e-11
5.78597e-11
5.78597e-11
5.78597e-11
5.78597e-11
5.78597e-11
5.78597e-11
5.78597e-11
5.78597e-11
5.78597e-11
5.78597e-11
5.78597e-11
5.78597e-11
5.78597e-11
5.78597e-11
5.78597e-11
5.78597e-11
5.78597e-11
5.78597e-11
5.78597e-11
5.78597e-11
5.78597e-11
5.78597e-11
5.78597e-11
5.78597e-11
5.78597e-11
5.78597e-11
5.78597e-11
5.78597e-11
5.78597e-11
5.78597e-11
5.78597e-11
5.78597e-11
5.78597e-11
5.78597e-11
5.78597e-11
5.78597e-11
5.78597e-11
5.78597e-11
5.78597e-11
5.78597e-11
5.78597e-11
5.78597e-11
5.78597e-11
5.78597e-11
5.78597e-11
5.78597e-11
5.78597e-11
5.78597e-11
5.78597e-11
5.78597e-11
5.78597e-11
5.78597e-11
5.78597e-11
5.78597e-11
5.78597e-11
5.78597e-11
5.78597e-11
5.78597e-11
5.78597e-11
5.78597e-11
5.78597e-11
5.78597e-11
5.78597e-11
5.78597e-11
5.78597e-11
5.78597e-11
5.78597e-11
5.78597e-11
5.78597e-11
5.78597e-11
5.78597e-11
5.78597e-11
5.78597e-11
5.78597e-11
5.78597e-11
5.78597e-11
5.78597e-11
5.78597e-11
5.78597e-11
5.78597e-11
5.78597e-11
5.78597e-11
5.78597e-11
5.78597e-11
5.78597e-11
5.78597e-11
5.78597e-11
5.78597e-11
5.78597e-11
5.78597e-11
5.78597e-11
5.78597e-11
5.78597e-11
5.78597e-11
5.78597e-11
5.78597e-11
5.78597e-11
5.78597e-11
5.78597e-11
5.78597e-11
5.78597e-11
5.78597e-11
5.78597e-11
5.78597e-11
5.78597e-11
5.78597e-11
5.78597e-11
5.78597e-11
5.78597e-11
5.78597e-11
5.78597e-11
5.78597e-11
5.78597e-11
5.78597e-11
5.78597e-11
5.78597e-11
5.78597e-11
5.78597e-11
5.78597e-11
5.78597e-11
5.78597e-11
5.78597e-11
5.78599e-11
5.78601e-11
5.78603e-11
5.78607e-11
5.78612e-11
5.78619e-11
5.78626e-11
5.78639e-11
5.78652e-11
5.78669e-11
5.78691e-11
5.78718e-11
5.78751e-11
5.78792e-11
5.78843e-11
5.78905e-11
5.78979e-11
5.79067e-11
5.79172e-11
5.79295e-11
5.79437e-11
5.79602e-11
5.79789e-11
5.80001e-11
5.80239e-11
5.80504e-11
5.80796e-11
5.81117e-11
5.81466e-11
5.81844e-11
5.82249e-11
5.82681e-11
5.8314e-11
5.83625e-11
5.84134e-11
5.84667e-11
5.85222e-11
5.85798e-11
5.86394e-11
5.87009e-11
5.87641e-11
5.88289e-11
5.88952e-11
5.8963e-11
5.9032e-11
5.91023e-11
5.91737e-11
5.92463e-11
5.93198e-11
5.93942e-11
5.94695e-11
5.95457e-11
5.96226e-11
5.97003e-11
5.97786e-11
5.98576e-11
5.99372e-11
6.00175e-11
6.00983e-11
6.01796e-11
6.02615e-11
6.03439e-11
6.04268e-11
6.05101e-11
6.05938e-11
6.0678e-11
6.07625e-11
6.08475e-11
6.09328e-11
6.10184e-11
6.11045e-11
6.11908e-11
6.12775e-11
6.13646e-11
6.14519e-11
6.15396e-11
6.16276e-11
6.17159e-11
6.18045e-11
6.18934e-11
6.19826e-11
6.20721e-11
6.21619e-11
6.22519e-11
6.23423e-11
6.24329e-11
6.25238e-11
6.26149e-11
6.27064e-11
6.27981e-11
6.28901e-11
6.29823e-11
6.30748e-11
6.31676e-11
6.32606e-11
6.33539e-11
6.34474e-11
6.35412e-11
6.36352e-11
6.37295e-11
6.38241e-11
6.39189e-11
6.40139e-11
6.41092e-11
6.42048e-11
6.43006e-11
6.43967e-11
6.4493e-11
6.45895e-11
6.46863e-11
6.47834e-11
6.48806e-11
6.49782e-11
6.5076e-11
6.5174e-11
6.52723e-11
6.53708e-11
6.54696e-11
6.55686e-11
6.56679e-11
6.57674e-11
6.58672e-11
6.59672e-11
6.60675e-11
6.6168e-11
6.62687e-11
6.63698e-11
6.6471e-11
6.65725e-11
6.66743e-11
6.67763e-11
6.68786e-11
6.69811e-11
6.70839e-11
6.71869e-11
6.72902e-11
6.73937e-11
6.74975e-11
6.76016e-11
6.77059e-11
6.78104e-11
6.79153e-11
6.80204e-11
6.81257e-11
6.82313e-11
6.83372e-11
6.84433e-11
6.85497e-11
6.86564e-11
6.87633e-11
6.88705e-11
6.89779e-11
6.90856e-11
6.91936e-11
6.93019e-11
6.94104e-11
6.95192e-11
6.96283e-11
6.97376e-11
6.98472e-11
6.99571e-11
7.00673e-11
7.01777e-11
7.02884e-11
7.03994e-11
7.05107e-11
7.06223e-11
7.07341e-11
7.08462e-11
7.09586e-11
7.10713e-11
7.11843e-11
7.12976e-11
7.14111e-11
7.15249e-11
7.1639e-11
7.17534e-11
7.18681e-11
7.19831e-11
7.20983e-11
7.22138e-11
7.23296e-11
7.24456e-11
7.2562e-11
7.26786e-11
7.27954e-11
7.29126e-11
7.303e-11
7.31477e-11
7.32657e-11
7.3384e-11
7.35025e-11
7.36213e-11
7.37404e-11
7.38597e-11
7.39794e-11
7.40993e-11
7.42195e-11
7.43399e-11
7.44606e-11
7.45816e-11
7.47029e-11
7.48244e-11
7.49462e-11
7.50683e-11
7.51906e-11
7.53132e-11
7.5436e-11
7.55591e-11
7.56825e-11
7.58061e-11
7.593e-11
7.60541e-11
7.61784e-11
7.6303e-11
7.64279e-11
7.65529e-11
7.66782e-11
7.68038e-11
7.69295e-11
7.70554e-11
7.71816e-11
7.7308e-11
7.74346e-11
7.75612e-11
7.76882e-11
7.78154e-11
7.79426e-11
7.80699e-11
7.81975e-11
7.83252e-11
7.84529e-11
7.85807e-11
7.87087e-11
7.88367e-11
7.89647e-11
7.90928e-11
7.92209e-11
7.93489e-11
7.94769e-11
7.96048e-11
7.97325e-11
7.986e-11
7.99873e-11
8.01143e-11
8.02408e-11
8.03668e-11
8.0492e-11
8.06162e-11
8.07391e-11
8.08602e-11
8.0979e-11
8.10945e-11
8.12056e-11
8.13109e-11
8.14087e-11
8.1497e-11
8.15737e-11
8.16374e-11
8.1687e-11
8.1723e-11
8.17464e-11
8.17603e-11
8.17673e-11
8.17695e-11
8.17694e-11
8.17689e-11
8.17649e-11
8.17577e-11
8.1749e-11
8.17439e-11
8.17424e-11
8.17417e-11
8.17407e-11
8.17398e-11
8.17385e-11
8.17365e-11
8.17334e-11
8.17316e-11
8.17309e-11
8.17307e-11
8.17304e-11
8.17304e-11
8.17299e-11
8.17295e-11
8.17292e-11
8.17287e-11
8.1728e-11
8.17274e-11
8.17272e-11
8.17272e-11
8.17271e-11
8.1727e-11
8.17267e-11
8.17261e-11
8.17255e-11
8.17258e-11
8.17256e-11
8.17254e-11
8.17253e-11
8.17247e-11
8.17246e-11
8.17247e-11
8.17247e-11
8.17245e-11
8.17244e-11
8.17241e-11
8.17237e-11
8.17238e-11
8.17238e-11
8.17237e-11
8.17236e-11
8.17235e-11
8.17233e-11
8.17232e-11
8.1723e-11
8.17231e-11
8.17229e-11
8.17227e-11
8.17228e-11
8.17225e-11
8.17224e-11
8.17221e-11
8.17222e-11
8.1722e-11
8.17219e-11
8.17217e-11
8.17216e-11
8.17214e-11
8.17212e-11
8.1721e-11
8.17208e-11
8.17206e-11
8.17204e-11
8.17202e-11
8.17199e-11
8.17199e-11
8.17194e-11
8.17192e-11
8.17191e-11
8.17188e-11
8.17187e-11
8.17185e-11
8.1718e-11
8.17178e-11
8.17177e-11
8.17175e-11
8.17169e-11
8.17169e-11
8.17167e-11
8.17161e-11
8.17159e-11
8.17155e-11
8.17153e-11
8.1715e-11
8.17147e-11
8.17144e-11
8.17143e-11
8.1714e-11
8.17137e-11
8.17132e-11
8.1713e-11
8.17127e-11
8.17124e-11
8.1712e-11
8.17117e-11
8.17115e-11
8.17113e-11
8.17108e-11
8.17105e-11
8.17101e-11
8.17099e-11
8.17093e-11
8.1709e-11
8.17089e-11
8.17086e-11
8.17081e-11
8.17078e-11
8.17073e-11
8.17071e-11
8.17069e-11
8.17066e-11
8.17063e-11
8.17058e-11
8.17054e-11
8.17051e-11
8.17047e-11
8.17044e-11
8.1704e-11
8.17036e-11
8.17033e-11
8.17029e-11
8.17024e-11
8.17019e-11
8.17015e-11
8.17011e-11
8.17008e-11
8.17e-11
8.16998e-11
8.16991e-11
8.16986e-11
8.16978e-11
8.16973e-11
8.16968e-11
8.16958e-11
8.1695e-11
8.16944e-11
8.16936e-11
8.1693e-11
8.16922e-11
8.16911e-11
8.16901e-11
8.16893e-11
8.1688e-11
8.16872e-11
8.1686e-11
8.1685e-11
8.16836e-11
8.16825e-11
8.16809e-11
8.16796e-11
8.16779e-11
8.16756e-11
8.1673e-11
8.16698e-11
8.16654e-11
8.16597e-11
8.16522e-11
8.16421e-11
8.16285e-11
8.16101e-11
8.15851e-11
8.15513e-11
8.15057e-11
8.14449e-11
8.1364e-11
8.12574e-11
8.11183e-11
8.09386e-11
8.07088e-11
8.04181e-11
8.0055e-11
7.96068e-11
7.90608e-11
7.84043e-11
7.76256e-11
7.67148e-11
7.56655e-11
7.44737e-11
7.3141e-11
7.16737e-11
7.00835e-11
6.83871e-11
6.66069e-11
6.47687e-11
6.29027e-11
6.10433e-11
5.92487e-11
5.76708e-11
5.63257e-11
5.51904e-11
5.42431e-11
5.34613e-11
5.28226e-11
5.2306e-11
5.18924e-11
5.15645e-11
5.1307e-11
5.11069e-11
5.09529e-11
5.08355e-11
5.0747e-11
5.0681e-11
5.06322e-11
5.05965e-11
5.05708e-11
5.05524e-11
5.05394e-11
5.05305e-11
5.05243e-11
5.05203e-11
5.05175e-11
5.05157e-11
5.05145e-11
5.05137e-11
5.05131e-11
5.05129e-11
5.05128e-11
5.05127e-11
5.05128e-11
5.05128e-11
5.05127e-11
5.05127e-11
5.05126e-11
5.05124e-11
5.05123e-11
5.05122e-11
5.05122e-11
5.05122e-11
5.05121e-11
5.0512e-11
5.05119e-11
5.05118e-11
5.05115e-11
5.05114e-11
5.05112e-11
5.05113e-11
5.05112e-11
5.05112e-11
5.05113e-11
5.05112e-11
5.05112e-11
5.0511e-11
5.05108e-11
5.05106e-11
5.05105e-11
5.05106e-11
5.05107e-11
5.05107e-11
5.05107e-11
5.05107e-11
5.05105e-11
5.05104e-11
5.05103e-11
5.05102e-11
5.05103e-11
5.05105e-11
5.05105e-11
5.05106e-11
5.05105e-11
5.05104e-11
5.05104e-11
5.05101e-11
5.051e-11
5.051e-11
5.05101e-11
5.05104e-11
5.05104e-11
5.05103e-11
5.05103e-11
5.05102e-11
5.051e-11
5.05099e-11
5.05099e-11
5.05101e-11
5.05103e-11
5.05103e-11
5.05102e-11
5.05103e-11
5.051e-11
5.05099e-11
5.05098e-11
5.05098e-11
5.05101e-11
5.05102e-11
5.05103e-11
5.05102e-11
5.05102e-11
5.05101e-11
5.05098e-11
5.05098e-11
5.05097e-11
5.05099e-11
5.05101e-11
5.05102e-11
5.05102e-11
5.05102e-11
5.051e-11
5.05097e-11
5.05097e-11
5.05096e-11
5.05099e-11
5.05102e-11
5.05103e-11
5.05103e-11
5.05101e-11
5.05099e-11
5.05097e-11
5.05097e-11
5.05097e-11
5.05097e-11
5.05101e-11
5.05103e-11
5.05102e-11
5.05103e-11
5.05101e-11
5.05097e-11
5.05096e-11
5.05096e-11
5.05098e-11
5.05103e-11
5.05104e-11
5.05103e-11
5.05104e-11
5.05099e-11
5.05097e-11
5.05096e-11
5.05096e-11
5.05098e-11
5.05101e-11
5.05104e-11
5.05104e-11
5.05103e-11
5.05101e-11
5.05099e-11
5.05099e-11
5.05099e-11
5.05103e-11
5.05113e-11
5.0513e-11
5.05157e-11
5.05211e-11
5.05317e-11
5.05544e-11
5.06011e-11
5.06977e-11
5.0896e-11
5.13068e-11
5.21637e-11
5.39923e-11
5.78651e-11
6.44559e-11
6.95783e-11
7.16678e-11
7.22989e-11
7.24709e-11
7.25165e-11
7.25288e-11
7.2532e-11
7.25331e-11
7.25331e-11
7.25331e-11
7.25331e-11
7.25331e-11
7.25331e-11
7.25331e-11
7.25331e-11
7.25331e-11
7.25331e-11
7.25331e-11
7.25331e-11
7.25331e-11
7.25331e-11
7.25331e-11
7.25331e-11
7.25331e-11
7.25331e-11
7.25331e-11
7.25331e-11
7.25331e-11
7.25331e-11
7.25331e-11
7.25331e-11
7.25331e-11
7.25331e-11
7.25331e-11
7.25331e-11
7.25331e-11
7.25331e-11
7.25331e-11
7.25331e-11
7.25331e-11
7.25331e-11
7.25331e-11
7.25331e-11
7.25331e-11
7.25331e-11
7.25331e-11
7.25331e-11
)
;

boundaryField
{
    sides
    {
        type            calculated;
        value           nonuniform List<scalar> 2(7.25331e-11 5.78597e-11);
    }
    empty1
    {
        type            empty;
    }
    empty2
    {
        type            empty;
    }
}


// ************************************************************************* //
