/*--------------------------------*- C++ -*----------------------------------*\
| =========                 |                                                 |
| \\      /  F ield         | OpenFOAM: The Open Source CFD Toolbox           |
|  \\    /   O peration     | Version:  2312                                  |
|   \\  /    A nd           | Website:  www.openfoam.com                      |
|    \\/     M anipulation  |                                                 |
\*---------------------------------------------------------------------------*/
FoamFile
{
    version     2.0;
    format      ascii;
    arch        "LSB;label=32;scalar=64";
    class       volVectorField;
    location    "0.25";
    object      U;
}
// * * * * * * * * * * * * * * * * * * * * * * * * * * * * * * * * * * * * * //

dimensions      [0 1 -1 0 0 0 0];

internalField   nonuniform List<vector> 
800
(
(9.44943e-17 0 0)
(2.60494e-16 0 0)
(4.06626e-16 0 0)
(5.91492e-16 0 0)
(6.80992e-16 0 0)
(6.75971e-16 0 0)
(6.24493e-16 0 0)
(4.56694e-16 0 0)
(3.60301e-16 0 0)
(3.66695e-16 0 0)
(3.31254e-16 0 0)
(4.1107e-16 0 0)
(3.09881e-16 0 0)
(1.0373e-16 0 0)
(2.66262e-16 0 0)
(3.09694e-16 0 0)
(2.79e-16 0 0)
(1.3134e-16 0 0)
(1.83141e-18 0 0)
(1.86491e-16 0 0)
(5.46334e-16 0 0)
(8.57843e-16 0 0)
(8.83754e-16 0 0)
(7.86288e-16 0 0)
(9.23864e-16 0 0)
(9.68664e-16 0 0)
(9.97571e-16 0 0)
(9.69612e-16 0 0)
(1.37067e-15 0 0)
(1.39559e-15 0 0)
(1.02451e-15 0 0)
(9.33635e-16 0 0)
(8.86268e-16 0 0)
(9.56966e-16 0 0)
(1.22344e-15 0 0)
(1.36621e-15 0 0)
(1.27654e-15 0 0)
(1.58071e-15 0 0)
(1.90116e-15 0 0)
(2.01172e-15 0 0)
(2.12578e-15 0 0)
(1.74276e-15 0 0)
(1.81003e-15 0 0)
(1.87085e-15 0 0)
(1.79258e-15 0 0)
(1.95576e-15 0 0)
(1.63477e-15 0 0)
(1.49978e-15 0 0)
(1.24395e-15 0 0)
(1.17728e-15 0 0)
(1.40118e-15 0 0)
(1.71347e-15 0 0)
(1.67136e-15 0 0)
(1.05082e-15 0 0)
(8.06395e-16 0 0)
(6.59413e-16 0 0)
(4.83066e-16 0 0)
(2.99164e-16 0 0)
(-1.16964e-18 0 0)
(-1.36801e-16 0 0)
(-2.26983e-16 0 0)
(-2.21748e-16 0 0)
(-2.64221e-16 0 0)
(-2.93236e-16 0 0)
(-4.01287e-16 0 0)
(-2.28886e-16 0 0)
(-9.5977e-17 0 0)
(5.27536e-17 0 0)
(2.88676e-16 0 0)
(1.51532e-16 0 0)
(-1.69321e-16 0 0)
(-2.45231e-16 0 0)
(-4.74267e-17 0 0)
(5.15383e-17 0 0)
(-1.23383e-16 0 0)
(-2.20995e-17 0 0)
(1.20215e-16 0 0)
(-1.45153e-16 0 0)
(-8.59028e-16 0 0)
(-1.07267e-15 0 0)
(-1.21271e-15 0 0)
(-1.36006e-15 0 0)
(-1.47954e-15 0 0)
(-1.26558e-15 0 0)
(-9.67452e-16 0 0)
(-7.32063e-16 0 0)
(-8.247e-16 0 0)
(-1.04001e-15 0 0)
(-8.42408e-16 0 0)
(-6.1005e-16 0 0)
(-6.28274e-16 0 0)
(-9.29107e-16 0 0)
(-9.80911e-16 0 0)
(-7.98035e-16 0 0)
(-6.08195e-16 0 0)
(-3.74115e-16 0 0)
(-4.23878e-16 0 0)
(-8.38839e-16 0 0)
(-7.26957e-16 0 0)
(-8.6402e-16 0 0)
(-7.34602e-16 0 0)
(-4.63257e-16 0 0)
(-3.94499e-18 0 0)
(4.03646e-16 0 0)
(1.32182e-15 0 0)
(3.94784e-15 0 0)
(1.02158e-14 0 0)
(2.57229e-14 0 0)
(6.23269e-14 0 0)
(1.46803e-13 0 0)
(3.42165e-13 0 0)
(7.93304e-13 0 0)
(1.83391e-12 0 0)
(4.22998e-12 0 0)
(9.73986e-12 0 0)
(2.2398e-11 0 0)
(5.14575e-11 0 0)
(1.18107e-10 0 0)
(2.70836e-10 0 0)
(6.20539e-10 0 0)
(1.42065e-09 0 0)
(3.24992e-09 0 0)
(7.42908e-09 0 0)
(1.69689e-08 0 0)
(3.87235e-08 0 0)
(8.8268e-08 0 0)
(2.00914e-07 0 0)
(4.56519e-07 0 0)
(1.03553e-06 0 0)
(2.34948e-06 0 0)
(5.42994e-06 0 0)
(1.20464e-05 0 0)
(2.22726e-05 0 0)
(3.65979e-05 0 0)
(5.62077e-05 0 0)
(8.13775e-05 0 0)
(0.000114793 0 0)
(0.000157035 0 0)
(0.000209702 0 0)
(0.000275767 0 0)
(0.00036065 0 0)
(0.000467288 0 0)
(0.000601593 0 0)
(0.000769085 0 0)
(0.000976336 0 0)
(0.00123063 0 0)
(0.00153955 0 0)
(0.00191169 0 0)
(0.00235626 0 0)
(0.00288247 0 0)
(0.00349942 0 0)
(0.0042162 0 0)
(0.00504174 0 0)
(0.00598433 0 0)
(0.00705118 0 0)
(0.0082483 0 0)
(0.00958059 0 0)
(0.0110515 0 0)
(0.0126631 0 0)
(0.0144157 0 0)
(0.0163087 0 0)
(0.0183399 0 0)
(0.020506 0 0)
(0.0228027 0 0)
(0.0252248 0 0)
(0.0277666 0 0)
(0.0304219 0 0)
(0.0331843 0 0)
(0.0360471 0 0)
(0.0390039 0 0)
(0.0420481 0 0)
(0.0451735 0 0)
(0.048374 0 0)
(0.0516439 0 0)
(0.0549779 0 0)
(0.0583707 0 0)
(0.0618178 0 0)
(0.0653147 0 0)
(0.0688573 0 0)
(0.0724421 0 0)
(0.0760656 0 0)
(0.0797248 0 0)
(0.0834169 0 0)
(0.0871396 0 0)
(0.0908904 0 0)
(0.0946669 0 0)
(0.0984672 0 0)
(0.10229 0 0)
(0.106133 0 0)
(0.109997 0 0)
(0.113879 0 0)
(0.117779 0 0)
(0.121694 0 0)
(0.125624 0 0)
(0.129566 0 0)
(0.13352 0 0)
(0.137485 0 0)
(0.14146 0 0)
(0.145446 0 0)
(0.14944 0 0)
(0.153443 0 0)
(0.157454 0 0)
(0.161473 0 0)
(0.165498 0 0)
(0.169531 0 0)
(0.17357 0 0)
(0.177615 0 0)
(0.181666 0 0)
(0.185722 0 0)
(0.189783 0 0)
(0.19385 0 0)
(0.197921 0 0)
(0.201996 0 0)
(0.206075 0 0)
(0.210159 0 0)
(0.214246 0 0)
(0.218337 0 0)
(0.222431 0 0)
(0.226528 0 0)
(0.230629 0 0)
(0.234733 0 0)
(0.23884 0 0)
(0.242949 0 0)
(0.247061 0 0)
(0.251175 0 0)
(0.255292 0 0)
(0.259411 0 0)
(0.263532 0 0)
(0.267655 0 0)
(0.271781 0 0)
(0.275908 0 0)
(0.280037 0 0)
(0.284168 0 0)
(0.2883 0 0)
(0.292434 0 0)
(0.29657 0 0)
(0.300707 0 0)
(0.304845 0 0)
(0.308985 0 0)
(0.313127 0 0)
(0.317269 0 0)
(0.321413 0 0)
(0.325558 0 0)
(0.329704 0 0)
(0.333852 0 0)
(0.338 0 0)
(0.342149 0 0)
(0.3463 0 0)
(0.350451 0 0)
(0.354604 0 0)
(0.358757 0 0)
(0.362911 0 0)
(0.367066 0 0)
(0.371222 0 0)
(0.375379 0 0)
(0.379536 0 0)
(0.383694 0 0)
(0.387853 0 0)
(0.392013 0 0)
(0.396173 0 0)
(0.400335 0 0)
(0.404496 0 0)
(0.408659 0 0)
(0.412822 0 0)
(0.416986 0 0)
(0.421151 0 0)
(0.425316 0 0)
(0.429481 0 0)
(0.433648 0 0)
(0.437815 0 0)
(0.441982 0 0)
(0.44615 0 0)
(0.450319 0 0)
(0.454488 0 0)
(0.458658 0 0)
(0.462829 0 0)
(0.467 0 0)
(0.471171 0 0)
(0.475343 0 0)
(0.479516 0 0)
(0.48369 0 0)
(0.487863 0 0)
(0.492038 0 0)
(0.496213 0 0)
(0.500389 0 0)
(0.504565 0 0)
(0.508742 0 0)
(0.512919 0 0)
(0.517097 0 0)
(0.521275 0 0)
(0.525455 0 0)
(0.529634 0 0)
(0.533814 0 0)
(0.537995 0 0)
(0.542177 0 0)
(0.546358 0 0)
(0.550541 0 0)
(0.554724 0 0)
(0.558908 0 0)
(0.563092 0 0)
(0.567276 0 0)
(0.571461 0 0)
(0.575647 0 0)
(0.579833 0 0)
(0.58402 0 0)
(0.588206 0 0)
(0.592394 0 0)
(0.596581 0 0)
(0.600769 0 0)
(0.604957 0 0)
(0.609145 0 0)
(0.613333 0 0)
(0.617521 0 0)
(0.621708 0 0)
(0.625896 0 0)
(0.630083 0 0)
(0.63427 0 0)
(0.638456 0 0)
(0.642643 0 0)
(0.646829 0 0)
(0.651014 0 0)
(0.655199 0 0)
(0.659384 0 0)
(0.663568 0 0)
(0.667752 0 0)
(0.671935 0 0)
(0.676117 0 0)
(0.680299 0 0)
(0.68448 0 0)
(0.688661 0 0)
(0.69284 0 0)
(0.697019 0 0)
(0.701196 0 0)
(0.705373 0 0)
(0.709548 0 0)
(0.713723 0 0)
(0.717896 0 0)
(0.722068 0 0)
(0.726238 0 0)
(0.730407 0 0)
(0.734575 0 0)
(0.73874 0 0)
(0.742904 0 0)
(0.747066 0 0)
(0.751226 0 0)
(0.755384 0 0)
(0.759539 0 0)
(0.763692 0 0)
(0.767842 0 0)
(0.77199 0 0)
(0.776135 0 0)
(0.780275 0 0)
(0.784413 0 0)
(0.788548 0 0)
(0.792678 0 0)
(0.796804 0 0)
(0.800926 0 0)
(0.805044 0 0)
(0.809155 0 0)
(0.813261 0 0)
(0.817363 0 0)
(0.821458 0 0)
(0.825545 0 0)
(0.829627 0 0)
(0.833701 0 0)
(0.837767 0 0)
(0.841824 0 0)
(0.845872 0 0)
(0.84991 0 0)
(0.853937 0 0)
(0.857952 0 0)
(0.861954 0 0)
(0.865942 0 0)
(0.869915 0 0)
(0.873869 0 0)
(0.877805 0 0)
(0.881719 0 0)
(0.885606 0 0)
(0.889461 0 0)
(0.893275 0 0)
(0.897041 0 0)
(0.900743 0 0)
(0.904364 0 0)
(0.907877 0 0)
(0.911251 0 0)
(0.914442 0 0)
(0.917399 0 0)
(0.920063 0 0)
(0.922378 0 0)
(0.924297 0 0)
(0.925794 0 0)
(0.926881 0 0)
(0.927602 0 0)
(0.928024 0 0)
(0.928232 0 0)
(0.928302 0 0)
(0.928312 0 0)
(0.928283 0 0)
(0.928164 0 0)
(0.927953 0 0)
(0.927689 0 0)
(0.927538 0 0)
(0.927495 0 0)
(0.92747 0 0)
(0.927444 0 0)
(0.927421 0 0)
(0.927386 0 0)
(0.927324 0 0)
(0.927236 0 0)
(0.927181 0 0)
(0.927167 0 0)
(0.927169 0 0)
(0.92717 0 0)
(0.927167 0 0)
(0.927156 0 0)
(0.927146 0 0)
(0.927136 0 0)
(0.927123 0 0)
(0.927108 0 0)
(0.927098 0 0)
(0.927094 0 0)
(0.927092 0 0)
(0.927092 0 0)
(0.927091 0 0)
(0.927084 0 0)
(0.92707 0 0)
(0.92706 0 0)
(0.927065 0 0)
(0.927066 0 0)
(0.927064 0 0)
(0.927058 0 0)
(0.927046 0 0)
(0.927044 0 0)
(0.927048 0 0)
(0.927052 0 0)
(0.927051 0 0)
(0.92705 0 0)
(0.927045 0 0)
(0.927042 0 0)
(0.927047 0 0)
(0.927049 0 0)
(0.927048 0 0)
(0.927048 0 0)
(0.927048 0 0)
(0.927046 0 0)
(0.927046 0 0)
(0.927044 0 0)
(0.927044 0 0)
(0.927044 0 0)
(0.927045 0 0)
(0.927048 0 0)
(0.927047 0 0)
(0.927047 0 0)
(0.927047 0 0)
(0.927049 0 0)
(0.927049 0 0)
(0.92705 0 0)
(0.927049 0 0)
(0.92705 0 0)
(0.92705 0 0)
(0.92705 0 0)
(0.92705 0 0)
(0.92705 0 0)
(0.92705 0 0)
(0.927051 0 0)
(0.927053 0 0)
(0.927055 0 0)
(0.927055 0 0)
(0.927053 0 0)
(0.927056 0 0)
(0.927057 0 0)
(0.927057 0 0)
(0.927057 0 0)
(0.927057 0 0)
(0.927056 0 0)
(0.927057 0 0)
(0.927057 0 0)
(0.927057 0 0)
(0.927059 0 0)
(0.92706 0 0)
(0.92706 0 0)
(0.92706 0 0)
(0.92706 0 0)
(0.927058 0 0)
(0.927059 0 0)
(0.927061 0 0)
(0.927062 0 0)
(0.927064 0 0)
(0.927064 0 0)
(0.927064 0 0)
(0.927064 0 0)
(0.927063 0 0)
(0.927065 0 0)
(0.927066 0 0)
(0.927066 0 0)
(0.927065 0 0)
(0.927066 0 0)
(0.927065 0 0)
(0.927066 0 0)
(0.927067 0 0)
(0.927068 0 0)
(0.92707 0 0)
(0.92707 0 0)
(0.927068 0 0)
(0.92707 0 0)
(0.927069 0 0)
(0.92707 0 0)
(0.927071 0 0)
(0.927071 0 0)
(0.92707 0 0)
(0.927071 0 0)
(0.92707 0 0)
(0.927071 0 0)
(0.927072 0 0)
(0.927072 0 0)
(0.927072 0 0)
(0.927072 0 0)
(0.927071 0 0)
(0.92707 0 0)
(0.927072 0 0)
(0.927074 0 0)
(0.927074 0 0)
(0.927073 0 0)
(0.927073 0 0)
(0.927073 0 0)
(0.927075 0 0)
(0.927076 0 0)
(0.927075 0 0)
(0.927075 0 0)
(0.927077 0 0)
(0.927076 0 0)
(0.927075 0 0)
(0.927074 0 0)
(0.927075 0 0)
(0.927076 0 0)
(0.927075 0 0)
(0.927074 0 0)
(0.927076 0 0)
(0.927079 0 0)
(0.927079 0 0)
(0.927077 0 0)
(0.927078 0 0)
(0.927078 0 0)
(0.927078 0 0)
(0.927079 0 0)
(0.92708 0 0)
(0.92708 0 0)
(0.92708 0 0)
(0.927079 0 0)
(0.927082 0 0)
(0.927081 0 0)
(0.927079 0 0)
(0.927083 0 0)
(0.927081 0 0)
(0.927083 0 0)
(0.927086 0 0)
(0.927082 0 0)
(0.927082 0 0)
(0.927081 0 0)
(0.927084 0 0)
(0.927082 0 0)
(0.927084 0 0)
(0.927086 0 0)
(0.927085 0 0)
(0.927082 0 0)
(0.927084 0 0)
(0.927084 0 0)
(0.927084 0 0)
(0.927087 0 0)
(0.92709 0 0)
(0.927091 0 0)
(0.927093 0 0)
(0.927096 0 0)
(0.927102 0 0)
(0.927112 0 0)
(0.927129 0 0)
(0.92715 0 0)
(0.927176 0 0)
(0.927208 0 0)
(0.927249 0 0)
(0.9273 0 0)
(0.927362 0 0)
(0.927436 0 0)
(0.927502 0 0)
(0.927595 0 0)
(0.927647 0 0)
(0.927643 0 0)
(0.927432 0 0)
(0.92695 0 0)
(0.926908 0 0)
(0.926955 0 0)
(0.927006 0 0)
(0.927041 0 0)
(0.927068 0 0)
(0.927088 0 0)
(0.927102 0 0)
(0.92711 0 0)
(0.927114 0 0)
(0.927117 0 0)
(0.92712 0 0)
(0.927122 0 0)
(0.927125 0 0)
(0.927127 0 0)
(0.927129 0 0)
(0.92713 0 0)
(0.927129 0 0)
(0.927128 0 0)
(0.927126 0 0)
(0.927126 0 0)
(0.927127 0 0)
(0.927129 0 0)
(0.927133 0 0)
(0.927135 0 0)
(0.927135 0 0)
(0.927134 0 0)
(0.92713 0 0)
(0.927126 0 0)
(0.927123 0 0)
(0.927125 0 0)
(0.927127 0 0)
(0.927132 0 0)
(0.927137 0 0)
(0.927138 0 0)
(0.927139 0 0)
(0.927136 0 0)
(0.92713 0 0)
(0.927128 0 0)
(0.927128 0 0)
(0.92713 0 0)
(0.927134 0 0)
(0.92714 0 0)
(0.927143 0 0)
(0.927142 0 0)
(0.92714 0 0)
(0.927133 0 0)
(0.927128 0 0)
(0.927128 0 0)
(0.927131 0 0)
(0.927136 0 0)
(0.927143 0 0)
(0.927148 0 0)
(0.927149 0 0)
(0.927149 0 0)
(0.927145 0 0)
(0.927137 0 0)
(0.92713 0 0)
(0.927129 0 0)
(0.927133 0 0)
(0.927144 0 0)
(0.927151 0 0)
(0.927154 0 0)
(0.927153 0 0)
(0.927148 0 0)
(0.92714 0 0)
(0.927134 0 0)
(0.927133 0 0)
(0.927139 0 0)
(0.927152 0 0)
(0.92716 0 0)
(0.927161 0 0)
(0.92716 0 0)
(0.927155 0 0)
(0.927146 0 0)
(0.927134 0 0)
(0.927133 0 0)
(0.927137 0 0)
(0.92715 0 0)
(0.927162 0 0)
(0.927166 0 0)
(0.927164 0 0)
(0.927161 0 0)
(0.927151 0 0)
(0.927138 0 0)
(0.927137 0 0)
(0.927141 0 0)
(0.927156 0 0)
(0.92717 0 0)
(0.927174 0 0)
(0.927171 0 0)
(0.927164 0 0)
(0.927148 0 0)
(0.927139 0 0)
(0.92714 0 0)
(0.927148 0 0)
(0.927166 0 0)
(0.927175 0 0)
(0.927177 0 0)
(0.927175 0 0)
(0.927169 0 0)
(0.927158 0 0)
(0.927144 0 0)
(0.927144 0 0)
(0.927146 0 0)
(0.927158 0 0)
(0.927175 0 0)
(0.927183 0 0)
(0.927184 0 0)
(0.927175 0 0)
(0.927154 0 0)
(0.927142 0 0)
(0.927142 0 0)
(0.927148 0 0)
(0.927167 0 0)
(0.927182 0 0)
(0.927186 0 0)
(0.927184 0 0)
(0.927175 0 0)
(0.927157 0 0)
(0.927148 0 0)
(0.927147 0 0)
(0.927149 0 0)
(0.927157 0 0)
(0.927177 0 0)
(0.927185 0 0)
(0.927186 0 0)
(0.927183 0 0)
(0.927167 0 0)
(0.927146 0 0)
(0.927141 0 0)
(0.927143 0 0)
(0.927157 0 0)
(0.927182 0 0)
(0.927193 0 0)
(0.927194 0 0)
(0.927184 0 0)
(0.927159 0 0)
(0.927144 0 0)
(0.927142 0 0)
(0.927147 0 0)
(0.927164 0 0)
(0.927184 0 0)
(0.92719 0 0)
(0.927188 0 0)
(0.927182 0 0)
(0.92717 0 0)
(0.927155 0 0)
(0.927137 0 0)
(0.927115 0 0)
(0.927104 0 0)
(0.927086 0 0)
(0.927023 0 0)
(0.926857 0 0)
(0.926482 0 0)
(0.925717 0 0)
(0.924192 0 0)
(0.921084 0 0)
(0.914832 0 0)
(0.902051 0 0)
(0.876195 0 0)
(0.824007 0 0)
(0.721446 0 0)
(0.527347 0 0)
(0.249942 0 0)
(0.0835004 0 0)
(0.0240182 0 0)
(0.00648819 0 0)
(0.0017197 0 0)
(0.000454025 0 0)
(0.000118742 0 0)
(3.03656e-05 0 0)
(6.65492e-06 0 0)
(1.27793e-06 0 0)
(2.52111e-07 0 0)
(4.97783e-08 0 0)
(9.81329e-09 0 0)
(1.93347e-09 0 0)
(3.81081e-10 0 0)
(7.51382e-11 0 0)
(1.48187e-11 0 0)
(2.92347e-12 0 0)
(5.77183e-13 0 0)
(1.14255e-13 0 0)
(2.28476e-14 0 0)
(4.42861e-15 0 0)
(9.10447e-16 0 0)
(1.80924e-16 0 0)
(8.72505e-17 0 0)
(4.08374e-16 0 0)
(-1.22503e-17 0 0)
(-1.74866e-16 0 0)
(-1.76264e-16 0 0)
(-8.73961e-17 0 0)
(-5.78074e-17 0 0)
(-2.75068e-16 0 0)
(-4.92041e-16 0 0)
(-3.8813e-16 0 0)
(-5.0269e-16 0 0)
(-5.36019e-16 0 0)
(-6.05439e-16 0 0)
(-5.50029e-16 0 0)
(-2.49466e-16 0 0)
(-1.53833e-16 0 0)
(1.75324e-17 0 0)
(-1.37123e-17 0 0)
(-3.63326e-16 0 0)
(-1.81477e-16 0 0)
(1.28839e-16 0 0)
(9.39826e-17 0 0)
(-6.20221e-17 0 0)
(1.47541e-17 0 0)
)
;

boundaryField
{
    sides
    {
        type            fixedValue;
        value           uniform (0 0 0);
    }
    empty1
    {
        type            empty;
    }
    empty2
    {
        type            empty;
    }
}


// ************************************************************************* //
