/*--------------------------------*- C++ -*----------------------------------*\
| =========                 |                                                 |
| \\      /  F ield         | OpenFOAM: The Open Source CFD Toolbox           |
|  \\    /   O peration     | Version:  2312                                  |
|   \\  /    A nd           | Website:  www.openfoam.com                      |
|    \\/     M anipulation  |                                                 |
\*---------------------------------------------------------------------------*/
FoamFile
{
    version     2.0;
    format      ascii;
    arch        "LSB;label=32;scalar=64";
    class       volScalarField;
    location    "0.1";
    object      cSound;
}
// * * * * * * * * * * * * * * * * * * * * * * * * * * * * * * * * * * * * * //

dimensions      [0 1 -1 0 0 0 0];

internalField   nonuniform List<scalar> 
100
(
446.438
446.371
446.312
446.258
446.199
446.137
446.073
446.006
445.935
445.86
445.782
445.7
445.614
445.522
445.426
445.324
445.217
445.103
444.983
444.855
444.719
444.575
444.421
444.257
444.081
443.893
443.691
443.474
443.24
442.988
442.715
442.418
442.095
441.742
441.356
440.931
440.461
439.94
439.358
438.705
437.967
437.124
436.155
435.024
433.686
432.07
430.063
427.471
423.878
418.289
403.775
391.304
384.213
378.783
373.849
369.511
365.454
361.823
358.329
355.241
352.11
349.391
346.563
344.135
341.548
339.351
336.972
334.956
332.757
330.896
328.849
327.122
325.217
323.574
321.206
321.795
375.413
430.616
436.562
437.166
437.628
438.125
438.583
439.002
439.392
439.755
440.094
440.412
440.709
440.988
441.251
441.499
441.733
441.954
442.162
442.359
442.55
442.722
442.878
443.108
)
;

boundaryField
{
    inlet
    {
        type            calculated;
        value           uniform 446.437;
    }
    outlet
    {
        type            calculated;
        value           uniform 443.108;
    }
    upperWall
    {
        type            calculated;
        value           nonuniform List<scalar> 
100
(
446.438
446.371
446.312
446.258
446.199
446.137
446.073
446.006
445.935
445.86
445.782
445.7
445.614
445.522
445.426
445.324
445.217
445.103
444.983
444.855
444.719
444.575
444.421
444.257
444.081
443.893
443.691
443.474
443.24
442.988
442.715
442.418
442.095
441.742
441.356
440.931
440.461
439.94
439.358
438.705
437.967
437.124
436.155
435.024
433.686
432.07
430.063
427.471
423.878
418.289
403.775
391.304
384.213
378.783
373.849
369.511
365.454
361.823
358.329
355.241
352.11
349.391
346.563
344.135
341.548
339.351
336.972
334.956
332.757
330.896
328.849
327.122
325.217
323.574
321.206
321.795
375.413
430.616
436.562
437.166
437.628
438.125
438.583
439.002
439.392
439.755
440.094
440.412
440.709
440.988
441.251
441.499
441.733
441.954
442.162
442.359
442.55
442.722
442.878
443.108
)
;
    }
    lowerWall
    {
        type            calculated;
        value           nonuniform List<scalar> 
100
(
446.438
446.371
446.312
446.258
446.199
446.137
446.073
446.006
445.935
445.86
445.782
445.7
445.614
445.522
445.426
445.324
445.217
445.103
444.983
444.855
444.719
444.575
444.421
444.257
444.081
443.893
443.691
443.474
443.24
442.988
442.715
442.418
442.095
441.742
441.356
440.931
440.461
439.94
439.358
438.705
437.967
437.124
436.155
435.024
433.686
432.07
430.063
427.471
423.878
418.289
403.775
391.304
384.213
378.783
373.849
369.511
365.454
361.823
358.329
355.241
352.11
349.391
346.563
344.135
341.548
339.351
336.972
334.956
332.757
330.896
328.849
327.122
325.217
323.574
321.206
321.795
375.413
430.616
436.562
437.166
437.628
438.125
438.583
439.002
439.392
439.755
440.094
440.412
440.709
440.988
441.251
441.499
441.733
441.954
442.162
442.359
442.55
442.722
442.878
443.108
)
;
    }
    frontAndBack
    {
        type            empty;
    }
}


// ************************************************************************* //
