/*--------------------------------*- C++ -*----------------------------------*\
| =========                 |                                                 |
| \\      /  F ield         | OpenFOAM: The Open Source CFD Toolbox           |
|  \\    /   O peration     | Version:  2312                                  |
|   \\  /    A nd           | Website:  www.openfoam.com                      |
|    \\/     M anipulation  |                                                 |
\*---------------------------------------------------------------------------*/
FoamFile
{
    version     2.0;
    format      ascii;
    arch        "LSB;label=32;scalar=64";
    class       surfaceScalarField;
    location    "0.1";
    object      phi;
}
// * * * * * * * * * * * * * * * * * * * * * * * * * * * * * * * * * * * * * //

dimensions      [1 0 -1 0 0 0 0];

oriented        oriented;

internalField   nonuniform List<scalar> 
99
(
0.00845086
0.00845086
0.00845086
0.00845086
0.00845086
0.00845086
0.00845086
0.00845086
0.00845086
0.00845086
0.00845086
0.00845086
0.00845086
0.00845086
0.00845086
0.00845086
0.00845086
0.00845086
0.00845086
0.00845086
0.00845086
0.00845086
0.00845086
0.00845086
0.00845086
0.00845086
0.00845086
0.00845086
0.00845086
0.00845086
0.00845086
0.00845086
0.00845086
0.00845086
0.00845086
0.00845086
0.00845086
0.00845086
0.00845086
0.00845086
0.00845086
0.00845086
0.00845086
0.00845086
0.00845086
0.00845086
0.00845086
0.00845086
0.00845086
0.00845086
0.00845086
0.00845086
0.00845086
0.00845086
0.00845086
0.00845086
0.00845086
0.00845086
0.00845086
0.00845086
0.00845086
0.00845086
0.00845086
0.00845086
0.00845086
0.00845086
0.00845086
0.00845086
0.00845086
0.00845086
0.00845086
0.00845086
0.00845086
0.00845086
0.00845086
0.00845086
0.00845086
0.00845086
0.00845086
0.00845086
0.00845086
0.00845086
0.00845086
0.00845086
0.00845086
0.00845086
0.00845086
0.00845086
0.00845086
0.00845086
0.00845086
0.00845086
0.00845086
0.00845086
0.00845086
0.00845086
0.00845086
0.00845086
0.00845086
)
;

boundaryField
{
    inlet
    {
        type            calculated;
        value           uniform -0.00845086;
    }
    outlet
    {
        type            calculated;
        value           uniform 0.00845086;
    }
    upperWall
    {
        type            calculated;
        value           nonuniform List<scalar> 
100
(
7.15282e-21
7.13742e-21
0
1.42513e-20
0
7.11607e-21
7.11098e-21
1.42113e-20
2.13e-20
-4.81482e-35
0
1.41627e-20
1.4149e-20
0
1.41192e-20
-4.81482e-35
1.40862e-20
2.81365e-20
-5.24377e-35
0
-4.81482e-35
-2.79701e-20
1.39609e-20
1.39352e-20
-9.62965e-35
2.77566e-20
0
2.76263e-20
1.37768e-20
-1.37378e-20
-4.81482e-35
1.36498e-20
-1.36002e-20
1.35462e-20
1.34872e-20
-1.34226e-20
1.33515e-20
0
-7.22224e-35
-2.61766e-20
0
-2.57102e-20
-9.62965e-35
0
-4.9439e-20
-9.62965e-35
-1.03309e-34
2.30105e-20
-9.62965e-35
-2.0722e-20
0
1.44445e-34
0
-2.49604e-20
9.97399e-35
4.40955e-20
-2.08705e-20
9.62965e-35
9.62965e-35
0
9.62965e-35
3.33209e-20
-1.60072e-20
-1.54433e-20
7.48254e-35
0
4.81482e-35
1.34893e-20
-1.30645e-20
0
2.46311e-20
1.19831e-20
-1.16504e-20
2.26938e-20
5.93251e-35
0
7.28693e-35
0
-1.56538e-20
0
4.81482e-35
1.59771e-20
-1.60648e-20
-8.07051e-21
-8.1065e-21
-8.14012e-21
-1.63432e-20
-1.64022e-20
-1.64578e-20
0
-8.27969e-21
0
-8.32499e-21
-1.66916e-20
-1.67312e-20
0
4.81482e-35
-8.41784e-21
0
8.40399e-21
)
;
    }
    lowerWall
    {
        type            calculated;
        value           nonuniform List<scalar> 
100
(
0
-4.02532e-35
1.42585e-20
7.12564e-21
7.1211e-21
-4.81482e-35
7.11098e-21
7.10564e-21
-7.09999e-21
0
0
1.41627e-20
1.4149e-20
1.41345e-20
1.41192e-20
-4.97981e-35
1.40862e-20
1.40682e-20
1.40492e-20
2.80582e-20
-1.40077e-20
-5.53724e-35
0
-2.78703e-20
2.78154e-20
0
0
1.38131e-20
-2.75537e-20
-1.37378e-20
2.73911e-20
1.36498e-20
-1.36002e-20
-2.70924e-20
2.69745e-20
-1.34226e-20
1.33515e-20
2.65458e-20
-2.63714e-20
-2.61766e-20
2.59578e-20
-2.57102e-20
-5.08549e-20
2.51012e-20
-4.9439e-20
-9.99311e-35
-2.37101e-20
-4.60211e-20
-2.20637e-20
0
3.43619e-20
1.09576e-34
0
2.49604e-20
9.62965e-35
6.61432e-20
-4.17409e-20
5.95379e-20
3.78274e-20
-1.8104e-20
3.46583e-20
4.99814e-20
-1.60072e-20
-1.54433e-20
0
-1.43984e-20
4.17382e-20
0
-2.61289e-20
-1.26908e-20
-2.46311e-20
1.19831e-20
-2.33009e-20
-1.13469e-20
-3.28243e-20
-2.20787e-20
3.24522e-20
0
4.81482e-35
-1.58153e-20
-1.5888e-20
-1.59771e-20
-8.03238e-21
-1.6141e-20
8.1065e-21
-1.62802e-20
-8.17159e-21
-1.64022e-20
-1.64578e-20
-1.65101e-20
0
-1.66059e-20
4.39834e-35
-8.34582e-21
-8.3656e-21
-8.38429e-21
-1.68016e-20
0
4.81482e-35
-8.40399e-21
)
;
    }
    frontAndBack
    {
        type            empty;
        value           nonuniform List<scalar> 0();
    }
}


// ************************************************************************* //
