/*--------------------------------*- C++ -*----------------------------------*\
| =========                 |                                                 |
| \\      /  F ield         | OpenFOAM: The Open Source CFD Toolbox           |
|  \\    /   O peration     | Version:  2312                                  |
|   \\  /    A nd           | Website:  www.openfoam.com                      |
|    \\/     M anipulation  |                                                 |
\*---------------------------------------------------------------------------*/
FoamFile
{
    version     2.0;
    format      ascii;
    arch        "LSB;label=32;scalar=64";
    class       volScalarField;
    location    "0.1";
    object      rho;
}
// * * * * * * * * * * * * * * * * * * * * * * * * * * * * * * * * * * * * * //

dimensions      [1 -3 0 0 0 0 0];

internalField   nonuniform List<scalar> 
100
(
2.11114
2.1066
2.10418
2.10312
2.10178
2.10029
2.09879
2.09721
2.09555
2.0938
2.09197
2.09004
2.08802
2.08588
2.08363
2.08126
2.07875
2.0761
2.0733
2.07033
2.06718
2.06383
2.06026
2.05647
2.05241
2.04808
2.04344
2.03846
2.0331
2.02733
2.0211
2.01436
2.00704
1.99907
1.99037
1.98083
1.97033
1.95874
1.94586
1.93149
1.91535
1.89708
1.87622
1.85214
1.82398
1.79044
1.7495
1.69788
1.62802
1.52902
1.26773
1.08399
0.989153
0.920877
0.862603
0.813418
0.769984
0.732187
0.697793
0.66792
0.639333
0.614663
0.590562
0.569756
0.549087
0.531207
0.513289
0.497668
0.481994
0.468208
0.454364
0.4421
0.429825
0.418626
0.403667
0.40728
0.598637
1.0131
1.15505
1.16696
1.17233
1.1789
1.18537
1.191
1.19631
1.20127
1.20591
1.21027
1.21437
1.21823
1.22187
1.2253
1.22855
1.23163
1.23455
1.2373
1.23974
1.24225
1.24403
1.24021
)
;

boundaryField
{
    inlet
    {
        type            calculated;
        value           uniform 2.10731;
    }
    outlet
    {
        type            calculated;
        value           uniform 1.2478;
    }
    upperWall
    {
        type            calculated;
        value           nonuniform List<scalar> 
100
(
2.11114
2.1066
2.10418
2.10312
2.10178
2.10029
2.09879
2.09721
2.09555
2.0938
2.09197
2.09004
2.08802
2.08588
2.08363
2.08126
2.07875
2.0761
2.0733
2.07033
2.06718
2.06383
2.06026
2.05647
2.05241
2.04808
2.04344
2.03846
2.0331
2.02733
2.0211
2.01436
2.00704
1.99907
1.99037
1.98083
1.97033
1.95874
1.94586
1.93149
1.91535
1.89708
1.87622
1.85214
1.82398
1.79044
1.7495
1.69788
1.62802
1.52902
1.26773
1.08399
0.989153
0.920877
0.862603
0.813418
0.769984
0.732187
0.697793
0.66792
0.639333
0.614663
0.590562
0.569756
0.549087
0.531207
0.513289
0.497668
0.481994
0.468208
0.454364
0.4421
0.429825
0.418626
0.403667
0.40728
0.598637
1.0131
1.15505
1.16696
1.17233
1.1789
1.18537
1.191
1.19631
1.20127
1.20591
1.21027
1.21437
1.21823
1.22187
1.2253
1.22855
1.23163
1.23455
1.2373
1.23974
1.24225
1.24403
1.24021
)
;
    }
    lowerWall
    {
        type            calculated;
        value           nonuniform List<scalar> 
100
(
2.11114
2.1066
2.10418
2.10312
2.10178
2.10029
2.09879
2.09721
2.09555
2.0938
2.09197
2.09004
2.08802
2.08588
2.08363
2.08126
2.07875
2.0761
2.0733
2.07033
2.06718
2.06383
2.06026
2.05647
2.05241
2.04808
2.04344
2.03846
2.0331
2.02733
2.0211
2.01436
2.00704
1.99907
1.99037
1.98083
1.97033
1.95874
1.94586
1.93149
1.91535
1.89708
1.87622
1.85214
1.82398
1.79044
1.7495
1.69788
1.62802
1.52902
1.26773
1.08399
0.989153
0.920877
0.862603
0.813418
0.769984
0.732187
0.697793
0.66792
0.639333
0.614663
0.590562
0.569756
0.549087
0.531207
0.513289
0.497668
0.481994
0.468208
0.454364
0.4421
0.429825
0.418626
0.403667
0.40728
0.598637
1.0131
1.15505
1.16696
1.17233
1.1789
1.18537
1.191
1.19631
1.20127
1.20591
1.21027
1.21437
1.21823
1.22187
1.2253
1.22855
1.23163
1.23455
1.2373
1.23974
1.24225
1.24403
1.24021
)
;
    }
    frontAndBack
    {
        type            empty;
    }
}


// ************************************************************************* //
