/*--------------------------------*- C++ -*----------------------------------*\
| =========                 |                                                 |
| \\      /  F ield         | OpenFOAM: The Open Source CFD Toolbox           |
|  \\    /   O peration     | Version:  2312                                  |
|   \\  /    A nd           | Website:  www.openfoam.com                      |
|    \\/     M anipulation  |                                                 |
\*---------------------------------------------------------------------------*/
FoamFile
{
    version     2.0;
    format      ascii;
    arch        "LSB;label=32;scalar=64";
    class       volVectorField;
    location    "0.1";
    object      U;
}
// * * * * * * * * * * * * * * * * * * * * * * * * * * * * * * * * * * * * * //

dimensions      [0 1 -1 0 0 0 0];

internalField   nonuniform List<vector> 
100
(
(89.2665 -1.86887e-12 0)
(90.9179 -1.87331e-12 2.19017e-15)
(92.3257 -1.84114e-12 0)
(93.6606 -1.8694e-12 -2.37861e-15)
(95.0617 -1.86225e-12 0)
(96.5076 -1.86338e-12 -2.43751e-15)
(97.9856 -1.85066e-12 0)
(99.512 -1.85847e-12 -2.50713e-15)
(101.09 -1.83774e-12 -2.54382e-15)
(102.72 -1.86005e-12 -2.58185e-15)
(104.404 -1.85159e-12 0)
(106.146 -1.85466e-12 -2.6607e-15)
(107.95 -1.84081e-12 0)
(109.818 -1.85437e-12 0)
(111.755 -1.82817e-12 -2.78899e-15)
(113.763 -1.84494e-12 0)
(115.848 -1.84176e-12 -5.76286e-15)
(118.014 -1.84141e-12 0)
(120.266 -1.839e-12 -2.98003e-15)
(122.61 -1.83857e-12 -3.03176e-15)
(125.051 -1.83252e-12 -3.08514e-15)
(127.596 -1.83201e-12 0)
(130.252 -1.82196e-12 -3.19747e-15)
(133.028 -1.82622e-12 0)
(135.931 -1.80497e-12 -3.318e-15)
(138.972 -1.82048e-12 0)
(142.161 -1.78774e-12 0)
(145.51 -1.79367e-12 0)
(149.032 -1.78251e-12 -3.58711e-15)
(152.742 -1.78764e-12 0)
(156.658 -1.77531e-12 -3.73774e-15)
(160.797 -1.78833e-12 0)
(165.182 -1.76613e-12 0)
(169.838 -1.76307e-12 0)
(174.794 -1.76229e-12 -4.07678e-15)
(180.083 -1.75327e-12 -4.17032e-15)
(185.746 -1.75964e-12 0)
(191.829 -1.74677e-12 0)
(198.39 -1.76318e-12 0)
(205.496 -1.77314e-12 0)
(213.235 -1.75581e-12 0)
(221.714 -1.77386e-12 0)
(231.073 -1.77967e-12 0)
(241.502 -1.77057e-12 0)
(253.259 -1.76541e-12 5.18243e-15)
(266.726 -1.76458e-12 0)
(282.491 -1.76096e-12 -5.42119e-15)
(301.534 -1.76227e-12 0)
(325.931 -1.76164e-12 0)
(360.251 -1.76285e-12 0)
(435.245 -1.75884e-12 0)
(488.668 -1.76352e-12 -6.07942e-31)
(516.25 -1.75742e-12 0)
(535.726 -1.75434e-12 4.31533e-15)
(552.989 -1.75692e-12 0)
(567.181 -1.75372e-12 3.83741e-15)
(580.375 -1.75153e-12 0)
(591.44 -1.7495e-12 0)
(602.181 -1.75439e-12 0)
(611.063 -1.75294e-12 0)
(620.252 -1.75259e-12 0)
(627.701 -1.75595e-12 3.89238e-31)
(635.68 -1.751e-12 0)
(642.058 -1.75541e-12 0)
(649.107 -1.74973e-12 2.53197e-15)
(654.666 -1.74977e-12 0)
(660.958 -1.75006e-12 2.34504e-15)
(665.887 -1.74763e-12 0)
(671.549 -1.74741e-12 2.1804e-15)
(675.963 -1.74681e-12 0)
(681.103 -1.74518e-12 0)
(685.086 -1.74668e-12 0)
(689.767 -1.74806e-12 1.90659e-15)
(693.463 -1.74656e-12 0)
(699.024 -1.74583e-12 1.51178e-15)
(697.565 -1.74521e-12 0)
(547.437 -1.74542e-12 2.0121e-15)
(278.087 -1.73646e-12 0)
(227.068 -1.74823e-12 -2.98136e-15)
(221.232 -1.73187e-12 0)
(216.551 -1.74022e-12 5.86529e-15)
(211.483 -1.72296e-12 0)
(206.676 -1.7385e-12 2.85799e-15)
(202.186 -1.71454e-12 2.8154e-15)
(197.902 -1.73333e-12 -2.77273e-15)
(193.825 -1.72686e-12 2.73143e-15)
(189.938 -1.73547e-12 0)
(186.225 -1.72695e-12 0)
(182.673 -1.74058e-12 2.61366e-15)
(179.27 -1.71425e-12 0)
(176.006 -1.73376e-12 2.54004e-15)
(172.873 -1.72883e-12 2.50467e-15)
(169.861 -1.71586e-12 2.47006e-15)
(166.962 -1.71825e-12 0)
(164.175 -1.71245e-12 2.40434e-15)
(161.494 -1.71225e-12 2.36656e-15)
(158.878 -1.70818e-12 2.3327e-15)
(156.491 -1.71105e-12 0)
(154.25 -1.7087e-12 -2.17289e-15)
(150.912 -1.70769e-12 0)
)
;

boundaryField
{
    inlet
    {
        type            zeroGradient;
    }
    outlet
    {
        type            zeroGradient;
    }
    upperWall
    {
        type            slip;
    }
    lowerWall
    {
        type            slip;
    }
    frontAndBack
    {
        type            empty;
    }
}


// ************************************************************************* //
