/*--------------------------------*- C++ -*----------------------------------*\
| =========                 |                                                 |
| \\      /  F ield         | OpenFOAM: The Open Source CFD Toolbox           |
|  \\    /   O peration     | Version:  2312                                  |
|   \\  /    A nd           | Website:  www.openfoam.com                      |
|    \\/     M anipulation  |                                                 |
\*---------------------------------------------------------------------------*/
FoamFile
{
    version     2.0;
    format      ascii;
    arch        "LSB;label=32;scalar=64";
    class       volScalarField;
    location    "0.0006";
    object      cSound;
}
// * * * * * * * * * * * * * * * * * * * * * * * * * * * * * * * * * * * * * //

dimensions      [0 1 -1 0 0 0 0];

internalField   nonuniform List<scalar> 
28800
(
315.13516656654
314.96864512153
314.77071509831
314.534875681
314.25109043739
313.90676087897
313.4891066772
312.98833772567
312.40026424582
311.7273511715
310.97790510082
310.16390522825
309.29834999037
308.39245136545
307.45384116327
306.4863520161
305.49067230485
304.46537857176
303.40798726467
302.31610290108
301.18805965425
300.02353818637
298.82333403745
297.58896844485
296.32516633612
295.03764611023
293.73545869447
292.42729889341
291.11807005649
289.79383148403
288.4510560007
287.09427278823
285.72556401631
284.33505503618
282.95025904298
281.54604077373
280.14544686617
278.75944466289
277.35415053143
275.96884380469
274.5870320235
273.18743855027
271.80551731875
270.45904501163
269.09891349234
267.71991279349
266.38739618938
265.05575435292
263.7188326975
262.42046771125
261.11483324088
259.85049122563
258.57358744524
257.28482013414
256.03901840525
254.77677036718
253.55250937278
252.32091321735
251.07849282575
249.82997338964
248.62349045299
247.40404777046
246.19049967952
245.01575901792
243.82745779323
242.62616712371
241.45611958331
240.27113227739
239.14411534175
238.01177245021
236.89075717963
235.80038134279
234.71530939531
233.65521973544
232.58469509424
231.54914850887
230.50049559515
229.49406696491
228.50196894963
227.50972227892
226.54255286159
225.56880131683
224.61301844099
223.64926349938
222.71402291011
221.76904075564
220.84432000252
219.93034582622
219.00890244233
218.10840536555
217.20000738172
216.29861244996
215.41480728871
214.52409767243
213.65557691981
212.77676235293
211.91957095799
211.05817041889
210.19669829875
209.35951739083
208.51686915468
207.70049036065
206.87761999566
206.08090952298
205.27463360794
204.49507476585
203.70674476497
202.82819352104
201.8870734414
202.963517872
212.42011111442
254.67859867196
323.5055702601
345.09099225417
346.92569852184
347.57024224182
347.70715941691
347.45681908015
346.64903379054
345.0822632204
342.83491260405
340.69297320827
339.37193072912
338.70101025011
338.46530039826
338.47135255118
338.71010700606
339.33397045285
340.40563715293
341.75954385034
342.95027308626
343.69717802738
344.0697521632
344.18366498751
344.11336424567
343.7654441412
342.96466918296
341.63700801168
340.14439189222
338.9465867365
338.04509967566
337.31906835979
336.69428812065
336.12259162028
335.56833290557
334.98830537325
334.33810209601
333.62823534505
332.92700260531
332.27237524765
331.66167772269
331.08608403504
330.53250694723
329.99786559685
329.47283348587
328.94717972805
328.41168564534
327.86096785592
327.30566628863
326.76215119022
326.24184586259
325.7534419781
325.30298160876
324.89328604561
324.52227867601
324.1824750569
323.86433906441
323.55568176141
323.23340646988
322.88437719233
322.50818545586
322.10860268774
321.69222722884
321.26269423187
320.82099175045
320.36575315391
319.89270242979
319.39686197177
318.8731031242
318.31591927272
317.719866626
317.08065852056
316.39581473019
315.66401079582
314.88553351462
314.05860044254
313.18499260383
312.26331241923
311.3023521062
310.30593905899
309.29471059105
308.26580098828
307.2460180352
306.21537983947
305.18016163782
304.12234998537
303.06334104307
301.98980517741
300.93710492442
299.88665379531
298.8191223044
297.76904732293
296.67644559342
295.62493829816
294.53563392431
293.49861051847
292.4227021075
291.38581320583
290.36401462539
289.36187385954
288.37437712719
287.36185004545
286.34928871139
285.38025767839
284.45818420732
283.62644503015
282.86407404886
282.23499812018
281.68137099001
281.24350310452
280.83706714215
280.60214547583
280.3855730694
280.41886748214
280.55986173328
280.85805692301
281.33720431966
282.04445205336
282.96944104536
284.13188075923
285.54469001084
287.19728046926
289.06195627332
291.0563576245
293.14592719946
295.27601458826
297.28772058675
299.32258933571
300.63604855509
301.60110956017
315.13518609646
314.96866378676
314.77061374254
314.53422563001
314.24922617759
313.90306604337
313.48337004005
312.98092390312
312.39204171529
311.71939864756
310.97114020385
310.15881031681
309.29476749967
308.38976599456
307.45142192152
306.48369411398
305.48738400159
304.46119568908
303.40282839052
302.31011981538
301.18157900828
300.01708325553
298.81740540663
297.58431957671
296.32271531967
295.03814926251
293.74020240945
292.43434710494
291.12502469992
289.8001945307
288.45695909879
287.09877155552
285.73223090013
284.34452161864
282.96448049964
281.56468006078
280.16547005495
278.77889364897
277.37291215035
275.98611877405
274.60475247717
273.20552764159
271.82429963281
270.47888337219
269.11873037888
267.73934719373
266.40841481652
265.07416473184
263.73483674673
262.43756601393
261.13307281281
259.86619105843
258.58587245895
257.29675428554
256.05204612719
254.79200285939
253.56802702358
252.33096686576
251.08012982424
249.84035179327
248.63337760568
247.41191345253
246.20908737201
245.02685862395
243.83223861658
242.62720142931
241.46217352342
240.28115057666
239.15593864979
238.02198844842
236.8972711977
235.81122306025
234.72073656105
233.65647413538
232.58252007811
231.54478480992
230.49466375024
229.49212587715
228.48998354104
227.50232385276
226.53453500176
225.55929319988
224.60276845868
223.63887417169
222.70378622019
221.75892899014
220.83430172205
219.9198349941
218.99819334984
218.09607435397
217.18727719087
216.28510158881
215.40201455931
214.51064533134
213.64218223872
212.7636193946
211.90660602808
211.04468472891
210.18318760629
209.34641520261
208.50449345002
207.68800533058
206.8645595864
206.06722088767
205.26014455782
204.48022107781
203.69127887694
202.81261703569
201.87097601385
202.94140642387
212.36574123239
254.51226276497
323.27661545575
345.01031848066
346.89299774003
347.56401349267
347.70485055335
347.45504470346
346.63086208771
345.03361924218
342.76896260865
340.64205893908
339.33985738032
338.68438293183
338.45724717444
338.46898312693
338.71546591429
339.34529034334
340.41401109247
341.76346743024
342.96327086759
343.73496503917
344.12067428449
344.23933471281
344.1754164287
343.84946481724
343.08967650564
341.82100688911
340.36106964627
339.15737953501
338.25171142639
337.52845110894
336.90988618357
336.34635008769
335.80209676526
335.23706408128
334.60717137081
333.91810834502
333.23323732887
332.58899870612
331.98390929545
331.41076682003
330.85819874516
330.32085225942
329.79007168292
329.25893694182
328.72060971533
328.17136569809
327.61947730067
327.07785421173
326.55738580274
326.06803199157
325.61595714062
325.20284193474
324.82798739031
324.48681485127
324.16355575698
323.83900734886
323.50003109502
323.13842622172
322.75269907321
322.34595421479
321.92294583867
321.48649973096
321.03683505614
320.57221067745
320.08810391085
319.5799052872
319.04247859635
318.47102014864
317.86000016924
317.20546625406
316.50499130678
315.75723917652
314.96268220633
314.11895872238
313.22753742757
312.28608826123
311.30060413524
310.26965162794
309.21402246694
308.13207142246
307.0515313448
305.9546567735
304.8803925707
303.78955407556
302.72045167656
301.63703158495
300.58159519472
299.53400096548
298.46775003143
297.41685746333
296.32119307203
295.26670377239
294.17464438682
293.13697710161
292.06037180244
291.02550998985
290.00657880561
288.99906192209
288.01316472419
287.00124403993
285.9983705654
285.03356943269
284.12206105876
283.30585321717
282.553879893
281.93392135494
281.37703697323
280.93190086913
280.53714283012
280.29424975943
280.10876332094
280.15064637594
280.30090806169
280.59811392932
281.05003496913
281.75869918439
282.68592369321
283.83602998993
285.22297107945
286.83075723566
288.65348695414
290.61487286325
292.65868115903
294.73186104237
296.66132831298
298.63624238947
299.91246951477
300.94525648355
315.13523184238
314.96877241707
314.77046229449
314.53275636398
314.24480153841
313.89396515583
313.46841441852
312.95996933651
312.36606239585
311.6901272429
310.94048277585
310.12818959152
309.26471567948
308.35986864223
307.42060468035
306.45063424459
305.45085140988
304.42030432415
303.35715660924
302.25983340301
301.12729249425
299.95986225595
298.75829886246
297.52573512815
296.26697708118
294.98600819999
293.69261859304
292.38880985231
291.07818800842
289.75146786593
288.40641318667
287.04663461152
285.67858498613
284.28913680323
282.90897153856
281.50899802288
280.11191062017
278.72663625032
277.32199678069
275.9365315563
274.55608347794
273.15772725553
271.77853374058
270.43351166172
269.0736442934
267.6947438044
266.36455961631
265.02679682373
263.69178835557
262.39387032098
261.08765554805
259.81681229956
258.53288076013
257.25093827322
256.00408140461
254.74181650183
253.51371044097
252.27341703242
251.02114216282
249.79239038773
248.58093671739
247.35457498554
246.15988932613
244.96886013201
243.76538012756
242.58452594674
241.4139324122
240.23545978895
239.10905030717
237.97104646426
236.85654816423
235.7647881563
234.67095315256
233.60824856283
232.53710686851
231.49989131841
230.45260533652
229.44932268144
228.43511717465
227.45626733746
226.48457092285
225.50585289924
224.54824781257
223.58523290984
222.64935347336
221.70420772854
220.77670223458
219.86269832441
218.94236947337
218.0301299364
217.13163190724
216.22699860064
215.34207086507
214.45057164056
213.58005094451
212.70277986937
211.8451260002
210.98199980603
210.12823733941
209.28673450671
208.44546721474
207.62717108619
206.80198492782
206.00310950644
205.19496505397
204.41371780948
203.62199607298
202.73928931289
201.79150742648
202.87475255573
212.39810128846
254.87166907459
323.78436523868
345.16010889102
347.0042057343
347.65195959999
347.76123699386
347.4861018384
346.6004677161
344.92288758571
342.61917503336
340.53002885605
339.27005030658
338.64752246219
338.43822062433
338.46035405844
338.72008602761
339.35821969766
340.42115425507
341.76119702534
342.96858102619
343.77860372493
344.22193744655
344.36904903114
344.32664893061
344.05855462627
343.39956260139
342.26626326948
340.88493098941
339.67455190248
338.75644356802
338.03075689778
337.42247644068
336.8795245465
336.35977157633
335.82701044689
335.24247566337
334.60147368808
333.95273910654
333.33228122799
332.74173238027
332.17565481963
331.6265656586
331.0863360079
330.54881843123
330.01071480631
329.46886292305
328.92188614873
328.37489892314
327.83640408368
327.3158862343
326.82521845484
326.3753479308
325.96482261851
325.58666116808
325.22876471242
324.87632375719
324.51780588024
324.14710963866
323.75811939542
323.34967580202
322.92328436484
322.48196351729
322.02691763568
321.556336966
321.06757305319
320.55522445186
320.01550340132
319.44322769101
318.83520442595
318.18560869174
317.49143174592
316.75067155872
315.96218823758
315.12760438826
314.24294629693
313.31066676715
312.32825960611
311.30487925506
310.23715405751
309.1376973605
307.99493636398
306.84152615609
305.65848624993
304.50267986432
303.31982290336
302.18562857964
301.03262007874
299.91849544768
298.82186242658
297.70542107342
296.63097917522
295.51935073317
294.45930459797
293.36272440999
292.32105740905
291.24047471543
290.20821139521
289.19232178884
288.17220079548
287.18379412262
286.16718861198
285.17821029334
284.22308611485
283.33124657284
282.54597449695
281.8161422847
281.21220554175
280.66670674337
280.21040072356
279.85733832204
279.59902650864
279.48080106352
279.54287607553
279.72452307005
280.06079678495
280.5464116836
281.26593170107
282.20242617211
283.34329329116
284.71035735826
286.256651071
287.99078860698
289.833138161
291.74436000833
293.67350933457
295.42668737256
297.20863714304
298.46534526839
299.51768170507
315.13532950277
314.96912372231
314.77034623226
314.53025428631
314.23722817522
313.8787041026
313.44383313395
312.92598073364
312.32403630052
311.6422781989
310.88904109119
310.07463376851
309.20930680692
308.30165234169
307.35778973739
306.38113195534
305.37278997274
304.33237966341
303.25876959285
302.1511819841
301.0093691973
299.83416828844
298.62720412685
297.3927108885
296.13541130002
294.85862209918
293.56791741778
292.26338276433
290.94884073619
289.61670505787
288.26622237346
286.90238644143
285.53114929142
284.13840755868
282.75669747572
281.35849606619
279.96292911617
278.5783659184
277.17432541028
275.79013079386
274.41170990809
273.01514736936
271.64052209692
270.29751579503
268.93945869071
267.56373603217
266.23635506992
264.89616099483
263.57057240203
262.27553695638
260.96790236687
259.69478571776
258.40695611028
257.13860455691
255.89016585938
254.6269082063
253.39382407349
252.14910240216
250.8937106959
249.68385687322
248.46854668314
247.2398270507
246.0529163552
244.85735008187
243.65111580555
242.48557764736
241.30798647781
240.14814678183
239.02352754107
237.88617871994
236.79244249747
235.68787295125
234.60377324426
233.54087934703
232.47428473648
231.43967726759
230.40085817005
229.39950707808
228.3864292427
227.41333488056
226.43622832886
225.45484054477
224.49881213729
223.5356065149
222.60000768868
221.65777829213
220.72380228022
219.81141660751
218.89835208101
217.97778034929
217.08042120052
216.1754287307
215.2912617956
214.4002911357
213.52814508095
212.65139801906
211.79208978199
210.92654093436
210.08284779126
209.23515926598
208.39569597826
207.57785157297
206.75408371323
205.95422156314
205.14561038529
204.36236464886
203.56748867468
202.68136352582
201.73099896618
202.82748938105
212.45188846102
255.23999297535
324.33279316524
345.36722325695
347.19694164293
347.82659362585
347.88443640732
347.54170773358
346.55363737511
344.74697284771
342.38835825992
340.37196545989
339.17635912208
338.59768716515
338.41082192975
338.44623864524
338.72083927574
339.362906107
340.41105078253
341.73103455211
342.94371484643
343.79578612612
344.31893671282
344.55065675298
344.57790516377
344.42282800304
343.95813027771
343.07759439494
341.83854300788
340.61716184642
339.69838455057
338.983865267
338.40192952447
337.89367722671
337.41391332942
336.93115497448
336.41510277552
335.85048817388
335.2621584408
334.68324757745
334.12209793132
333.575595692
333.04054129905
332.51037099056
331.97892948281
331.44552189823
330.90958626251
330.3722439282
329.83699926077
329.30950624421
328.79733634697
328.30839306148
327.84735995133
327.41582702399
327.00320688566
326.59669107721
326.1925065796
325.78442162351
325.36627638555
324.93400825617
324.48684288591
324.02459685424
323.54806941718
323.05655428126
322.54566923169
322.01153530247
321.447438572
320.85064083122
320.21565962302
319.54166837494
318.82269966197
318.0575275555
317.24523978906
316.38536906948
315.48160554214
314.52724542427
313.5274708162
312.47949693761
311.39779929531
310.28003888599
309.13834450362
307.95285373093
306.75479613681
305.51344381369
304.27388546569
302.98760431799
301.7626474298
300.51271385149
299.30977492916
298.12761961276
296.93336892531
295.79436801085
294.62144016568
293.49893745908
292.34096255798
291.2345095872
290.09116502021
288.99660717935
287.9341271086
286.85593452873
285.85152496196
284.8188272286
283.8450726524
282.90300076586
282.03438736523
281.28261243921
280.58463132419
279.98484834475
279.47230478249
278.99236706945
278.71403070645
278.43714141198
278.41292739458
278.49719834002
278.71978245944
279.08699019554
279.63351903507
280.3901386011
281.34167849645
282.48147208069
283.80743818229
285.27973928908
286.87845523321
288.54367794125
290.20626322023
291.8609682066
293.31874800838
294.76729207931
296.11134140336
297.07230921993
315.13559075409
314.96996564757
314.77033509698
314.52634700757
314.22569164094
313.85635608995
313.4091316948
312.87940729823
312.26773903372
311.57911394436
310.82158965957
310.00438599097
309.13633629059
308.22466022078
307.27452675726
306.28900545967
305.26949134341
304.21635040777
303.12947588368
302.00914228174
300.85598915814
299.6715714668
298.45927543482
297.22335268517
295.96630324786
294.69326308734
293.40359961853
292.09659352464
290.77657313275
289.43725347522
288.079302507
286.71163006541
285.33632103632
283.93913554277
282.55534832492
281.15919520588
279.76446054405
278.3807174358
276.97714564146
275.59317701664
274.21603603967
272.82014001332
271.44970451974
270.10689020291
268.74950212777
267.37790612083
266.05133713749
264.70950216778
263.39305008592
262.09663715791
260.78668220144
259.51290639888
258.22319587133
256.96707531079
255.71461214628
254.44799773622
253.21089481399
251.95914482075
250.72001513026
249.51078907581
248.29427332182
247.07395228806
245.88528845864
244.6875146093
243.47985874784
242.32197815798
241.15195680366
240.00099701466
238.87757137852
237.74257942799
236.65214880145
235.54864218201
234.46988274855
233.40484543148
232.34945249227
231.31712276047
230.28336237048
229.28103661021
228.27164974809
227.29880543629
226.31762973492
225.34039514765
224.38686981769
223.42687154051
222.49050652771
221.54953229771
220.62007017002
219.69895760833
218.79064038189
217.87286436406
216.97674092737
216.07400200431
215.18977499014
214.29885422893
213.42864169416
212.55500070805
211.69761634999
210.8318974965
209.99277635824
209.14398822902
208.30920572594
207.48835249595
206.66539915395
205.86338403396
205.05275670396
204.26408849193
203.46439091644
202.56739058152
201.60225258634
202.71715520654
212.47057245714
255.59070745066
324.78156727403
345.51302429686
347.33452356773
347.94347348232
347.95975290793
347.54811925175
346.45107673002
344.49258698093
342.06748196061
340.15316345427
339.04888700565
338.52777620649
338.36624873778
338.41431725444
338.70014067369
339.33758683553
340.35403768502
341.64306496926
342.86555240463
343.76239293997
344.35406757599
344.69086635029
344.82180100106
344.78842425818
344.56200353009
344.03553823276
343.16757853441
342.13556081775
341.22792776092
340.54078754367
340.0150154399
339.58206462007
339.19031714048
338.805935377
338.40318134951
337.96056699398
337.48026512611
336.98141852339
336.47934202389
335.97771510148
335.47639570491
334.97367940437
334.46375136539
333.94452566122
333.4173069432
332.88467761187
332.35006011186
331.81829467456
331.29431744466
330.78115987747
330.27976327277
329.79069155767
329.30974182892
328.83344030503
328.35760322156
327.87932968681
327.3947472279
326.90121623061
326.39703875322
325.88014096751
325.34861216743
324.7995114119
324.22596660312
323.62267546028
322.9809854473
322.29897742727
321.57049696229
320.7977188823
319.97494555832
319.10323468663
318.18344497188
317.21732407645
316.20926718098
315.15086741216
314.05023337313
312.90327883788
311.72876309413
310.52179592538
309.30111226887
308.04770456991
306.79918750695
305.50822868976
304.21897302181
302.87081499871
301.56656347446
300.23852100854
298.95766115564
297.68748911847
296.41513744162
295.18618259352
293.92802393497
292.71099248598
291.45899196212
290.25241163837
289.01159353279
287.81108584701
286.66876893582
285.49771148641
284.43258765274
283.33652382866
282.33067041642
281.36440524086
280.48395709552
279.73512789611
279.01683139907
278.40914036753
277.86788307819
277.38790937382
277.12216049271
276.86330414214
276.87914544258
276.99483992074
277.25186745064
277.63353461938
278.22286029968
278.99977833266
279.94804714138
281.07147277179
282.31355268035
283.68663280693
285.12274728732
286.56733111103
287.90657458836
289.25186901187
290.41709553214
291.55722360006
292.83326904722
293.75115909213
315.13623216012
314.97165254633
314.7703717019
314.52028540525
314.20909219392
313.82603270381
313.36401708762
312.82069060992
312.19802252604
311.50159025975
310.73877887054
309.91765895116
309.04547788482
308.12815683829
307.16991175363
306.17356551656
305.14086862578
304.07309078921
302.97141375254
301.83720510397
300.67233857092
299.47992134017
298.26445845404
297.02744401627
295.77369595855
294.50171635017
293.21035898921
291.89922435483
290.57196732388
289.22523293754
287.85889124682
286.48936216196
285.11156695524
283.71119592446
282.32487277946
280.9343705503
279.53814065813
278.15621469126
276.75406744034
275.3692026416
273.99462017606
272.60048247741
271.23607564197
269.89245745911
268.53362699659
267.17428571879
265.8465223742
264.50343600056
263.19957415661
261.89322081282
260.58292591695
259.31144178279
258.02328938578
256.7742542078
255.51491261047
254.24306333254
253.00425195444
251.74886024947
250.52664959654
249.31360878777
248.09506408335
246.87982802922
245.68909523234
244.48916700794
243.29738079906
242.14097787213
240.97324838115
239.84331627195
238.70122004543
237.57632686094
236.48836354363
235.39139443507
234.32456244491
233.2494076101
232.20936113206
231.16127847001
230.14627047179
229.14183468356
228.13239089715
227.15422924832
226.16612311936
225.20553758725
224.23708719081
223.27880122379
222.33999440976
221.39962982912
220.47614556337
219.54673653271
218.63538462721
217.71862958529
216.81835789425
215.91531036657
215.03031864791
214.14116060068
213.26541841192
212.39217747702
211.53424353827
210.66856865758
209.82681761827
208.98301230806
208.15600225256
207.32565425138
206.50665138255
205.69621921116
204.87935612139
204.07363518146
203.25699817308
202.34781458606
201.37487759665
202.52048370712
212.39262930243
255.7526982871
325.00133329534
345.55060535984
347.37448750737
347.9598366193
347.94442419225
347.48660263255
346.28200088116
344.15839003314
341.68671432807
339.89262744889
338.88865949858
338.42657708544
338.28592329039
338.34117345715
338.62973449678
339.25145476846
340.21880196778
341.45925540849
342.68537341893
343.63214917209
344.30035412058
344.72029926532
344.94030830915
345.00761818593
344.95178021967
344.74006819422
344.311721171
343.67028745352
342.95758886221
342.36679566058
341.92013537726
341.56636580767
341.25579444963
340.95672595069
340.64828794797
340.31361061724
339.94418601406
339.54442174506
339.12220830695
338.68281242914
338.23078279556
337.76809998067
337.29297642336
336.80311501909
336.29953365547
335.78457194018
335.26049168644
334.72873580754
334.19114917089
333.6501431433
333.10771188607
332.5633304461
332.01571933689
331.46320866512
330.90392946665
330.33760111051
329.76320471426
329.17971776677
328.58673097855
327.98292439071
327.36524813669
326.72916268188
326.06546124259
325.36761117488
324.62655130672
323.84411463151
323.01292413842
322.13725577194
321.20972374522
320.23258365165
319.21082018357
318.15054896529
317.05319312577
315.90526475329
314.71352051677
313.47361424826
312.21233199567
310.92224642827
309.61864473098
308.2799216712
306.95708486315
305.60384868569
304.2617329538
302.86073875478
301.49334341578
300.11131682143
298.76260548527
297.41945038484
296.08354610134
294.77807488253
293.45136139176
292.15675955001
290.82749220839
289.53879781252
288.21986153316
286.92274034277
285.69706419584
284.43381059901
283.28260494326
282.09547755894
281.02638080955
280.01792989713
279.10456345015
278.32824695802
277.54442588875
276.92783145005
276.30811105643
275.86436976499
275.55506028511
275.36011227133
275.40103925794
275.55527459151
275.83936169575
276.27278143201
276.90819630947
277.69072368448
278.64155929095
279.72012121814
280.89065057173
282.10083569019
283.30921742003
284.46692448586
285.49165588433
286.47775157327
287.37690468322
288.28853529592
289.41708790922
290.1617656702
315.1375700272
314.97447595824
314.7698117201
314.51112323216
314.18665151988
313.78743018385
313.30892336539
312.75060410666
312.11598321818
311.41029044032
310.64064504442
309.81337235097
308.93468467051
308.00896155213
307.03993610273
306.03005252593
304.981732353
303.89717334277
302.77900106616
301.62970977748
300.4532197479
299.254105868
298.0338625165
296.79783244611
295.54247004039
294.26613929959
292.96983703594
291.65205033562
290.31569552467
288.96279130948
287.58926881943
286.21763635044
284.83847211561
283.43678006241
282.04553469217
280.66178384079
279.26370801832
277.88373215318
276.48323100444
275.09412730511
273.72438132999
272.33362596739
270.97395660831
269.62891992392
268.26793889031
266.9302423945
265.59593099523
264.24855626587
262.95245073019
261.64324944117
260.34147031858
259.07167722434
257.78522415003
256.53550608255
255.27388098812
253.99892624147
252.76129678564
251.50657726777
250.29724088738
249.0801271713
247.85945820595
246.65530056264
245.45105384911
244.2733997417
243.08663546665
241.93371047212
240.7728620024
239.65061435165
238.51521197031
237.40937133853
236.32469997774
235.23170993685
234.166166833
233.09827397693
232.06388587311
231.02142113962
230.01598423212
228.99895879939
228.00315052381
227.02398209563
226.03666051589
225.07758919125
224.11125593161
223.15292640597
222.21615080702
221.27629559041
220.35411686672
219.430607734
218.510133718
217.60555104475
216.69673999628
215.80396879067
214.91351398208
214.03100714768
213.15260620317
212.28081926603
211.42293474705
210.55907676835
209.70918061781
208.85435389618
208.02428187724
207.1907563646
206.3611157511
205.54164761465
204.71885862874
203.91262883178
203.11198661963
202.22055907514
201.29911026164
202.46759286591
212.43583310676
255.9416722919
325.49101343221
345.67461362502
347.42417424186
347.97667876397
347.9309014232
347.39410163656
346.06593847534
343.81439769269
341.34323763458
339.64709798165
338.70799929765
338.28858433923
338.16510807668
338.22102618102
338.49521870093
339.07737152163
339.97366323357
341.12916621902
342.32604039461
343.32451246976
344.08469946227
344.60936003031
344.92005823564
345.06505667489
345.09362027819
345.03633125764
344.87682039954
344.57910374234
344.17055609171
343.7474147924
343.38949268118
343.08630941518
342.80950078318
342.54074995681
342.26903848534
341.98516089873
341.68120137633
341.35147332273
340.99379812114
340.61095290153
340.20706082939
339.785506248
339.34744210496
338.89283539432
338.42286975646
337.93911329542
337.44144307458
336.92838871454
336.39763993372
335.8498311187
335.28558848408
334.70620797137
334.11291571044
333.50281903189
332.87574376296
332.23170898962
331.57266547964
330.89947027057
330.2137929591
329.51817765133
328.81072510563
328.08614934746
327.33396485538
326.54653715978
325.71762606866
324.85428748159
323.94638319019
322.9972069638
321.99651255226
320.94738442141
319.86195393606
318.75052960115
317.60709697822
316.40960463487
315.16145210799
313.86428086411
312.55437328599
311.21844328865
309.85781089838
308.46202844753
307.08691107679
305.69986007515
304.31440840578
302.87470920045
301.45443952782
300.03534718117
298.62237715491
297.22105577697
295.82950881803
294.46778017817
293.08822032016
291.73501667364
290.34881522917
288.99114110637
287.62552632664
286.24614546506
284.95455998568
283.6148221427
282.39428853644
281.14141553049
280.03609841893
279.01662453191
278.0830923915
277.26493473265
276.43000406228
275.80167704164
275.15349807599
274.75810907183
274.43105744091
274.35108971173
274.43077362451
274.63140287314
274.96089731563
275.47883880706
276.16184213064
276.94894751037
277.89813160065
278.88876109054
279.92675615443
280.88999216517
281.86839148777
282.6602724121
283.38286716029
284.05574317856
284.74944573905
285.47507336796
286.45168567801
286.94317513645
315.14016191034
314.97873990774
314.76910823892
314.49914871286
314.15877614192
313.7416869565
313.24531596205
312.6711301328
312.02270748336
311.3060813011
310.52659892265
309.6904960558
308.80152061399
307.86430302947
306.8806857495
305.85463574603
304.78751747396
303.68493033776
302.54878623942
301.38530791903
300.19835642582
298.99119727436
297.76940500864
296.52812361916
295.26600099082
293.98207699837
292.67768104027
291.35149268128
290.00551407802
288.6498742108
287.27161277801
285.89848122834
284.51812478153
283.1159450839
281.71993724312
280.34148891368
278.94048101793
277.56373835826
276.16652295832
274.77100924278
273.40693730679
272.02146780821
270.66291326844
269.31973345328
267.95980574138
266.63325070572
265.29093428144
263.95329457003
262.65908448736
261.35117662336
260.05707381585
258.78556373706
257.49769805507
256.24493901613
254.97999878801
253.70550242305
252.46827730989
251.22226008149
250.01270220965
248.78989173307
247.56534285129
246.37129217486
245.16693498684
243.99264389367
242.80897335565
241.65718234554
240.50293550141
239.38443308011
238.25475932549
237.16568983558
236.06437994871
234.98199418549
233.91930755287
232.85870736612
231.82412151098
230.79139827328
229.78555303685
228.76606007732
227.78088252107
226.7855323754
225.79715428004
224.83917624775
223.87702348918
222.91626266338
221.97960120701
221.03852082614
220.11588308855
219.19024549714
218.26754993201
217.3643046781
216.45189092986
215.56515226923
214.66834519881
213.78395763431
212.91438310791
212.04185176582
211.18095293884
210.32120434245
209.4678582336
208.60261508096
207.75345421912
206.91285866176
206.0614363585
205.22439448553
204.41992908563
203.59916790507
202.82450114121
201.95398863143
201.10168531656
202.24432844331
212.14094683014
255.83992202092
326.50480135559
345.99172508826
347.66103655382
348.12137370084
347.98505826216
347.32205669789
345.86318390737
343.57192121709
341.15890109358
339.51626667632
338.5718600694
338.14056206315
338.00895608613
338.04907872709
338.28182317573
338.79012410195
339.5785244676
340.59601416697
341.70925079145
342.7348374099
343.58054102567
344.22980764148
344.67696135576
344.93399325237
345.0396959984
345.05503831697
345.01260304657
344.87729802341
344.64412584996
344.36294235472
344.08334054224
343.81740268236
343.55639969555
343.29680771179
343.03671855502
342.77145012021
342.49376489951