/*--------------------------------*- C++ -*----------------------------------*\
| =========                 |                                                 |
| \\      /  F ield         | OpenFOAM: The Open Source CFD Toolbox           |
|  \\    /   O peration     | Version:  2312                                  |
|   \\  /    A nd           | Website:  www.openfoam.com                      |
|    \\/     M anipulation  |                                                 |
\*---------------------------------------------------------------------------*/
FoamFile
{
    version     2.0;
    format      ascii;
    arch        "LSB;label=32;scalar=64";
    class       volScalarField;
    location    "0.0006";
    object      p;
}
// * * * * * * * * * * * * * * * * * * * * * * * * * * * * * * * * * * * * * //

dimensions      [1 -1 -2 0 0 0 0];

internalField   nonuniform List<scalar> 
28800
(
271381.6389181
270388.1483486
269214.01760097
267829.21507508
266176.75242414
264182.53650775
261769.65141975
258881.67367063
255501.97508715
251660.59961794
247427.14998952
242893.13535929
238152.50424376
233286.25291743
228345.98340863
223357.91389645
218329.75236641
213257.77665732
208134.87701882
202954.36271611
197716.80947062
192427.88214968
187102.46520041
181756.02950548
176404.48286552
171100.02973571
165877.42773208
160770.56270612
155786.08093535
150884.3483334
146053.26516119
141307.0327878
136656.15457648
132068.17078428
127615.48465114
123240.50033479
119005.98869838
114931.28855204
110929.18607319
107096.83657416
103384.89131974
99739.979413212
96265.85856661
92957.064103705
89727.986681884
86552.163836228
83567.054600232
80682.782978142
77867.357547373
75219.762564988
72631.129404818
70193.028144901
67808.986418825
65470.848453283
63277.936043525
61127.1709466
59079.438909788
57101.40266458
55158.478875831
53261.663120076
51481.081525764
49742.295419296
48048.5868863
46461.204662727
44904.040213336
43369.414171051
41928.108037292
40508.439535472
39188.882877881
37911.655081374
36671.232593727
35508.284670711
34369.988506411
33302.981534162
32239.862074189
31250.010213459
30271.724926386
29354.095962595
28479.64408049
27620.474624849
26810.047805405
26009.453584259
25248.896775756
24497.16084078
23789.099102027
23092.227606035
22421.312883896
21781.940626341
21146.895347871
20545.794835528
19954.241270879
19379.361709673
18833.19601011
18292.286269784
17781.10905603
17275.123756247
16790.079314116
16320.667358761
15857.594859547
15423.577411456
14991.931820158
14588.148835316
14186.684396289
13809.38044726
13436.870232129
13079.836944724
12736.138151804
12386.004575741
11945.064872591
11964.867504968
13317.787205352
23645.727422778
74714.301404067
134803.25810311
139477.40020118
140275.44975886
141969.55282693
143590.93522093
144594.46860815
145436.31812876
146120.54315692
146656.13155813
147147.22472026
147634.99501204
148147.00798736
148699.01170525
149286.39287926
149921.76521127
150564.82389294
151236.19593135
151947.45230385
152610.5514565
153282.06662424
153929.32352664
154502.3114436
154969.90468474
155330.63025782
155562.57582556
155554.69322398
155467.18978168
155302.22313412
155084.23451368
154827.89006076
154516.79596334
154082.0443265
153432.00650228
152508.27389303
151374.36200932
150221.47284318
149162.40223211
148198.8515797
147328.93260434
146478.55208417
145640.643338
144815.18070113
143963.36519098
143056.06251624
142091.10403259
141101.50213049
140136.16211533
139229.40303067
138404.33921026
137674.18624757
137039.97384043
136484.62249021
135992.08453386
135540.12545861
135095.13675863
134640.13700468
134180.24280003
133690.11927305
133169.79901665
132610.64367117
132008.64915435
131366.05642078
130641.07500737
129848.03370178
128949.8415093
127961.80320196
126849.17297041
125634.06562149
124299.83939713
122842.58681595
121298.3990216
119628.50903107
117887.43125586
116006.95419526
114068.85198763
112000.36205675
109921.38993901
107724.93515201
105555.7695816
103268.30416445
101059.03979039
98716.78863835
96473.762390237
94103.677556145
91865.904044658
89546.557472641
87394.298914124
85142.403208669
83103.643070946
80940.83005708
78988.320934902
76931.576563904
75064.351520787
73117.666419719
71291.72360201
69520.490271925
67827.529805895
66192.435901982
64554.267609119
62956.109689142
61443.936517486
60038.348418579
58781.87362856
57643.145530416
56689.19332072
55888.026051303
55189.184802625
54616.845148991
54198.465115298
53866.146672611
53773.199358781
53847.661443749
54130.613802513
54702.023363891
55567.059771449
56750.945345137
58301.450050754
60254.118411282
62639.124548772
65428.429688982
68597.806222404
72074.135307195
75770.803675437
79459.544237778
83176.169480473
85745.007113978
87827.528234105
271382.15648984
270388.05332436
269214.12343948
267826.8474156
266167.6777177
264161.94717095
261735.35307964
258835.74966765
255450.52063283
251612.14620002
247389.69597625
242871.82035221
238148.94662711
233296.37323048
228366.16216709
223385.77994101
218363.54195314
213296.24934883
208177.4696185
203002.06848915
197771.29871148
192491.99056571
187179.09617036
181847.82046171
176515.97439538
171236.40820674
166043.92444988
160958.66085616
155987.96305053
151096.69687409
146274.15053472
141533.2196676
136896.215673
132327.44728832
127902.50858827
123553.16235878
119335.56245823
115270.52176065
111275.77883058
107447.24587928
103742.02702353
100104.55511723
96635.353091009
93334.562481969
90110.219026482
86932.235001883
83954.7329297
81066.097087549
78245.363431343
75599.122625299
73011.271328236
70568.665696188
68177.615217368
65833.615334353
63641.601484102
61487.09559941
59444.001480875
57453.564870176
55492.783030288
53599.192402692
51818.811753062
50068.228868344
48384.553271403
46787.297188337
45217.709775146
43673.367561537
42234.215606796
40809.644029412
39488.223957251
38205.774602745
36954.890185941
35791.213584281
34644.078340613
33566.127435885
32495.439216824
31498.305056869
30512.422065485
29593.411871584
28705.115624119
27842.986393459
27027.840170573
26220.193636149
25454.322522595
24697.226740006
23984.994727269
23282.730295509
22608.228316017
21963.443409138
21324.888182763
20717.240099082
20123.259212391
19543.41468619
18993.861405067
18448.787332324
17933.907597437
17424.076052644
16936.863532833
16463.203334133
15996.218059804
15559.584390937
15124.652417113
14718.36498838
14313.355990185
13933.344355343
13557.633469848
13198.157995811
12851.652597353
12498.811747066
12054.773166308
12074.800384914
13433.087322574
23817.971619899
75124.259092448
135439.40722089
139984.32818166
140850.46217717
142547.29435714
144131.58181736
145113.46107293
145924.29741138
146569.87284638
147062.63161819
147509.19673525
147951.06812453
148416.78771934
148924.14855009
149470.88770741
150069.10692012
150692.84759495
151350.55314808
152057.83804726
152756.41565656
153466.6899854
154170.87612298
154821.07002084
155375.59340739
155790.94370939
156019.36989589
155984.05147003
155854.71513812
155642.01785163
155373.563579
155063.35910892
154696.89389785
154216.02340113
153535.25723071
152595.46580508
151457.07999124
150293.9310629
149210.76436639
148217.91669697
147317.51939525
146431.67197655
145555.23944207
144685.7200559
143796.43415001
142868.30546073
141898.03284105
140908.80105379
139937.79805565
139019.18641646
138178.01247989
137426.73378773
136765.99825702
136180.85726579
135655.46227301
135167.83003262
134688.97233569
134205.98551468
133721.0681399
133212.53440397
132677.31968522
132106.31507316
131493.83567742
130840.51261324
130110.40624605
129310.53701013
128410.00824712
127418.97573198
126309.26881964
125097.10943981
123768.76536277
122320.44974186
120785.3470718
119131.16389168
117400.92830379
115540.07904258
113614.17090802
111567.26536739
109498.13186804
107328.24963176
105173.74544745
102919.95697527
100729.79560958
98416.932534596
96192.656093683
93849.7848864
91630.379213977
89336.087453302
87207.489134183
84979.017209972
82959.880960326
80817.368170459
78882.004676186
76840.076155674
74987.245181332
73054.500418974
71241.945291653
69486.676061333
67793.587082085
66169.301679938
64538.154134648
62957.656033156
61453.155807559
60061.326243296
58823.199662703
57700.296040022
56758.428621138
55954.061718869
55247.355063361
54681.972477749
54262.612233455
53950.984336317
53875.219380133
53959.109798936
54252.400917754
54806.593175655
55676.457781045
56862.560919511
58397.531215102
60319.112756303
62639.60571871
65373.491752534
68458.602651279
71848.475348892
75349.564793781
78854.34685394
82289.042464306
84775.581677978
86893.396143304
271382.70989254
270388.56812901
269214.92496571
267822.12791819
266146.49947252
264112.45408115
261648.43414108
258708.82034614
255288.48535328
251425.0024851
247188.55045337
242665.15956873
237939.69192622
233081.7896794
228139.8710548
223140.3169995
218092.36103121
212994.90152134
207843.85275221
202637.69632273
197379.28624946
192078.96205162
186749.99672375
181409.72477923
176088.25955619
170821.87727954
165644.08715665
160562.90408471
155586.65332366
150687.72709708
145857.30341894
141110.44148386
136468.60660511
131894.29542763
127468.1248913
123119.59404762
118908.91804193
114849.119262
110860.30800046
107039.05705691
103340.14803573
99710.058329152
96250.273568987
92956.392364512
89737.459985966
86566.536817964
83597.649062252
80707.290283448
77901.948729239
75261.83554591
72676.164147642
70233.299579306
67841.555346212
65517.594835332
63329.844636328
61177.11301323
59134.864498932
57143.494439567
55184.330270914
53319.29382982
51538.191407017
49786.637248925
48120.601503427
46518.145487579
44941.609512742
43434.319838968
41992.68531368
40577.633116185
39266.813831682
37980.580840015
36750.671209979
35585.498061602
34441.986846968
33368.783403061
32309.036676564
31317.769353694
30339.256004597
29428.17593955
28534.065062503
27684.544223446
26869.723978998
26063.719514837
25301.940220673
24549.29532292
23840.878281389
23141.380818803
22470.616388948
21827.402571352
21196.52849416
20583.253530028
19999.006897697
19421.231966162
18872.911354092
18331.506251546
17818.091824947
17311.087383682
16828.516504722
16354.72621259
15894.969604113
15457.974895865
15026.450163113
14621.701239559
14218.557968325
13840.327992812
13465.92404395
13108.672485959
12762.792697485
12410.663659361
11966.393372541
11985.47109587
13351.967430546
23775.96474154
75242.385877513
135209.68317727
139747.92270865
140724.81842138
142456.58921478
144020.00797348
145004.14093584
145808.0721701
146443.1118611
146933.65965442
147386.47524347
147846.07867711
148335.50197101
148874.3086887
149460.49655105
150098.56335738
150756.96424096
151428.15764663
152131.5846128
152855.63627793
153571.64064243
154259.05003817
154883.5303244
155404.92660913
155784.67345328
155985.60756921
155974.73587211
155852.8226212
155638.46761538
155362.18280707
155038.39724973
154655.61318452
154160.63940879
153486.45997303
152587.18777412
151503.42261857
150368.26071273
149287.27121453
148286.02220554
147355.66900488
146434.78796713
145523.9279118
144619.74451626
143705.38364845
142772.81031181
141816.99210984
140850.9191056
139900.83436961
138994.1863544
138155.49406689
137398.24810075
136723.67146315
136119.2737474
135570.79048502
135062.94306802
134569.72107607
134079.74064469
133592.77413808
133088.63112369
132563.00753705
132007.47066765
131410.02184593
130770.32996125
130051.61325969
129258.28781363
128360.06451722
127369.77517663
126260.05761564
125044.84928598
123711.45493945
122256.51837692
120715.54583748
119056.64251408
117316.29206241
115447.11876556
113507.70060459
111455.28787285
109374.27901104
107204.07086184
105041.82261135
102795.61896745
100599.14568244
98291.037513871
96064.993131922
93721.206105711
91502.155007102
89209.320072975
87090.638597713
84865.709527355
82853.601509045
80713.431019259
78785.310558158
76745.697355634
74899.609885742
72965.266759253
71158.170728952
69411.279267841
67704.875587958
66084.156985003
64453.317513134
62891.29324202
61400.92660803
60029.878826513
58831.521697358
57733.591468299
56816.272263273
56011.509575484
55305.501053017
54765.301820401
54360.874067496
54109.061848084
54085.17981508
54231.287729501
54602.553435632
55224.99113822
56153.212572396
57402.942336266
58986.065077982
60943.149750901
63244.712632291
65925.287953787
68893.264754895
72107.154634419
75366.83649494
78598.693957289
81643.95102637
84089.732937894
86258.504695431
271382.69599965
270390.73564532
269217.79168126
267814.11310138
266109.94346798
264029.26909758
261506.41663612
258507.16970836
255037.83361646
251142.50786209
246891.5530957
242365.4368033
237640.12851686
232776.96620525
227819.42306642
222792.91629733
217708.82880609
212570.34961329
207377.26399257
202132.54646702
196842.35950083
191520.02672279
186179.84556614
180840.82621351
175546.45461298
170311.85471483
165157.39502502
160085.38339352
155107.24986042
150201.87833673
145365.77865763
140618.24399572
135978.59524135
131406.9682384
126990.04666882
122660.00150898
118467.05495865
114421.47323174
110446.49752733
106640.05069932
102957.08142324
99343.342693882
95903.054325563
92623.929461291
89417.024219686
86262.508779925
83308.164107079
80419.058182599
77641.027418315
75010.919445378
72428.286721332
69989.346399622
67596.638296768
65302.561758901
63118.137854131
60967.017290279
58925.893232305
56933.30617392
54978.800375465
53145.819662703
51361.535364405
49613.583817885
47961.524137801
46358.453492105
44779.404822396
43301.903943813
41853.726230414
40462.14610593
39157.272968216
37871.096624564
36665.64838624
35488.098622026
34356.285492811
33285.04172705
32232.63560558
31245.578431577
30274.730554323
29367.613871251
28472.329773475
27629.522891576
26812.299352474
26006.880946133
25247.235175347
24496.554115021
23789.34430881
23091.945643022
22422.0449478
21776.982879793
21154.404303226
20536.459290521
19954.568519013
19379.127585978
18830.482645192
18291.1779594
17778.11151443
17271.528990508
16791.484431215
16316.565094764
15863.998108689
15424.052502372
14994.572796156
14589.881109654
14188.200618634
13810.111886865
13435.782298672
13079.016133519
12732.83289667
12380.372731304
11935.680038844
11955.25481981
13336.052456576
23846.338199507
75613.408705755
135163.10893584
139599.87865009
140725.76615867
142478.21080748
143991.01223249
144978.35492689
145748.75529379
146330.82044104
146840.8532981
147316.62225169
147800.20591845
148317.25829772
148875.69510286
149471.65431958
150124.67042016
150815.19541866
151504.5266658
152208.19997746
152953.01690207
153689.58461319
154388.51281188
155021.59971871
155552.07681751
155927.27141175
156100.00932884
156107.5863802
155975.02575597
155743.43501904
155438.39491841
155079.77697098
154655.25284087
154122.29329459
153440.07064093
152581.17550374
151560.54286087
150464.49937564
149388.59736242
148371.89533205
147399.85151893
146435.50388719
145490.39594544
144548.42242725
143606.35515969
142662.61861927
141712.54336479
140762.42128259
139828.92352395
138931.66907482
138091.08998496
137316.46441913
136615.8772659
135980.45366294
135398.12480058
134862.58273635
134346.99127298
133842.04900272
133346.89099869
132841.11920225
132317.49052547
131770.95229866
131184.02372676
130552.78602831
129842.03037709
129051.27591861
128152.79919869
127160.09100082
126050.044373
124829.44775555
123489.47468648
122027.73961988
120481.62362342
118820.89368759
117071.2147597
115196.68372875
113245.75320416
111192.13473514
109103.863968
106936.87493512
104771.11349798
102539.95918097
100339.55421016
98049.239795733
95819.416232961
93486.378006972
91271.92046297
88992.512205442
86887.791351399
84672.277341324
82673.475186296
80545.651499342
78628.518121663
76596.280454114
74756.571417373
72819.67511416
71019.760594592
69286.086997982
67556.407393889
65944.502508702
64315.150955024
62780.172062499
61320.157882551
59987.511546946
58847.409004917
57779.000788387
56894.120890469
56086.60872057
55401.09255087
54909.192127779
54540.703199017
54386.020256323
54420.590732399
54659.591271899
55130.669201967
55861.33602606
56880.284471607
58201.848110499
59835.611617506
61805.086692784
64066.786925447
66628.128853067
69395.767411483
72261.108567114
75113.630920836
77840.552940768
80473.753338693
82952.117186461
85127.705341491
271382.65553864
270396.69309232
269224.56596365
267801.16650101
266053.12273728
263905.77093861
261304.81249229
258231.33210874
254704.60192032
250774.04014843
246508.05746341
241978.90296739
237252.91243103
232382.51198422
227405.65870398
222346.38626783
217218.53725238
212030.38203409
206787.36459885
201498.3962207
196173.76835831
190829.34826432
185479.74299109
180162.51013275
174896.41775126
169698.95847009
164569.31412417
159507.40896227
154528.78166852
149617.62254388
144776.27022491
140034.41783204
135400.38678471
130834.06778241
126431.00662392
122125.40808906
117952.87816931
113925.98656061
109969.00056958
106179.45228251
102514.69538569
98919.340460549
95500.401290609
92236.672327197
89042.241136691
85909.713305597
82969.868658647
80087.230499317
77336.33344477
74712.321177834
72134.551205907
69703.90217243
67316.918980403
65051.043395636
62865.668041114
60714.968296785
58678.493641444
56680.202895248
54753.359124705
52932.621463591
51149.354804244
49417.609250829
47770.490778713
46169.300487676
44595.028119784
43133.559881288
41697.424056668
40320.99644372
39020.945618732
37737.900608701
36543.849338003
35368.595815483
34246.712688279
33175.559529789
32134.855730532
31151.716260755
30187.265095582
29281.921233145
28388.858905884
27551.105924654
26730.729422361
25930.035732848
25173.155686995
24425.610607789
23718.983834968
23022.352270948
22358.245522588
21707.524720178
21091.333483995
20475.286773808
19894.54603776
19320.573979248
18774.261813516
18235.665665786
17724.613042577
17218.894727201
16741.542737569
16265.727724762
15818.283687079
15376.735540019
14950.484584982
14544.68303658
14144.165443024
13765.360757284
13391.063482403
13032.213295889
12685.561871758
12330.679873783
11880.381391517
11897.910223821
13295.856294545
23909.851400847
75905.553410991
135079.4559028
139451.53564091
140696.7830432
142462.09974399
143910.98532331
144832.15062152
145647.77416975
146245.84683454
146751.83408461
147220.33729162
147698.30615873
148222.42073425
148825.82726043
149462.20921777
150134.04392063
150832.83140345
151556.05769495
152344.35297155
153099.48178175
153840.24398708
154548.44660482
155191.26964606
155740.74392073
156107.62751446
156263.4133544
156256.20012519
156126.96756615
155868.9524035
155536.70420666
155138.11919705
154664.20071088
154094.89667324
153401.834139
152569.71625622
151610.02558114
150568.45505839
149512.87773571
148482.25691351
147468.06731396
146466.40770662
145487.49983578
144512.17950741
143544.1024427
142583.9982212
141629.0820757
140682.70557007
139756.34527216
138862.26096456
138016.16752701
137224.61124151
136497.72018663
135832.96014344
135221.5046886
134659.17063435
134119.09913684
133598.64754999
133097.66410974
132591.84664822
132070.75813321
131534.49725162
130961.06632985
130340.27912864
129638.90465695
128851.15686228
127952.80770691
126957.10982118
125846.80037993
124618.43979157
123268.9675852
121799.29810078
120246.30680697
118583.036627
116821.70721919
114936.88187788
112967.41935664
110905.03145779
108806.50468333
106637.77331812
104463.00437254
102239.26264192
100040.90776915
97764.814412949
95526.18149057
93201.981289773
90993.086002146
88726.778146188
86630.526864072
84428.552126127
82441.193084408
80329.157533387
78420.132831903
76399.894033868
74562.084582533
72629.263022964
70829.259423895
69110.813265312
67361.278148317
65761.700646243
64135.074651685
62638.773176489
61228.709761826
59952.415370946
58877.15711208
57835.987250931
56992.105605508
56184.224966411
55559.418852635
55124.956954173
54826.417891008
54779.014686068
54908.502473604
55258.33734172
55835.827806243
56685.566617861
57810.935884907
59214.789394029
60911.126377889
62863.083112882
65065.731884392
67461.401603949
69916.832264808
72351.967602992
74720.258670119
76976.816805949
79258.047976165
81643.510924264
83890.999406028
271384.10676863
270410.68132806
269236.6509128
267779.89458817
265968.00908572
263733.80882643
261039.00817181
257881.94034948
254291.89204528
250322.38872239
246036.19360627
241497.56893284
236762.22275648
231874.6761549
226867.50921803
221763.93228629
216580.57369646
211331.30645562
206028.94732106
200688.60022894
195326.30256888
189957.08987258
184617.35613383
179323.63493023
174093.60647404
168921.89049797
163807.28112445
158750.26371965
153766.7227631
148849.73193858
144002.49766687
139272.48723197
134649.78924656
130093.95310276
125707.06146545
121435.30787286
117279.4985282
113275.8812881
109342.5117534
105570.13039217
101929.59593174
98358.101347832
94966.27376388
91719.595395552
88537.08924465
85444.535518108
82519.29147282
79645.993899437
76931.332607529
74302.799302961
71738.153502557
69324.651062431
66951.926712096
64706.87142454
62521.319654583
60372.054576124
58343.786890518
56348.894787737
54456.465632411
52640.120445595
50859.297602044
49147.66712616
47503.294340654
45909.930693784
44360.969638109
42910.016537882
41481.217677916
40137.806885506
38823.40346817
37559.009652896
36374.875175418
35206.172203077
34106.710435228
33023.960073435
32007.158839824
31013.652559682
30069.124415393
29166.121965106
28276.463041866
27440.875596038
26615.29479204
25832.694668061
25066.042877303
24324.316995574
23619.660236019
22926.74733396
22267.035816806
21615.870356189
20997.727436806
20387.556873181
19807.318807831
19235.230862774
18691.912727047
18156.125703391
17645.493524593
17142.008894342
16667.417007218
16192.643816747
15747.450904562
15307.847188802
14890.835570024
14478.668873087
14085.308441681
13701.159550804
13328.005867889
12962.37367197
12610.131413826
12250.024059941
11799.685715606
11822.85922257
13240.941663545
23936.722173532
75966.43536621
134862.44197936
139258.27565234
140662.58036092
142467.10799109
143809.92564847
144753.92001569
145541.12788694
146097.09824113
146569.99861415
147069.58755754
147575.74273262
148114.86840913
148711.89355928
149387.80458824
150112.54491162
150862.52916956
151627.78987811
152451.206
153235.25700309
154004.7934349
154736.44379199
155388.94701933
155954.97928458
156364.75913934
156515.38048931
156526.70632117
156377.56966293
156093.80933452
155715.29263991
155267.48616736
154745.35103175
154131.68986298
153412.03726682
152582.67592491
151659.19991664
150666.43476723
149639.79965534
148598.73955844
147547.99017969
146513.24575511
145498.55793158
144496.70315519
143508.46920591
142532.50224267
141567.14812457
140614.39318077
139684.25014772
138783.45295732
137926.58063278
137117.69439722
136366.45170206
135674.5927057
135032.25856165
134445.12547213
133879.24496136
133338.42892919
132829.15309897
132319.01466647
131795.91001939
131265.6228041
130704.4443269
130091.37369786
129394.92475655
128605.60054416
127705.11913506
126703.92318371
125591.07057697
124349.76686122
122984.18611714
121502.91330173
119942.2539406
118276.79129303
116502.75448491
114604.02556481
112610.76816798
110539.15393323
108428.5839761
106257.6013325
104061.4459149
101844.76472982
99653.351310149
97397.174771997
95147.005980161
92829.096730615
90634.471243526
88384.626551493
86294.053286285
84115.513884422
82138.336980846
80050.688707323
78149.681094836
76144.245663553
74310.348560835
72396.864900991
70580.111786727
68878.339618041
67118.914355144
65533.048958788
63915.223448044
62469.650570245
61133.310455176
59924.794204965
58915.583752945
57895.277607546
57109.77968221
56318.019493512
55792.046895541
55428.950046485
55249.257974518
55305.665236732
55563.645650477
56034.33289269
56739.989467553
57716.02317536
58943.653243534
60438.852005479
62182.906272151
64113.85613326
66179.254112035
68334.794831389
70407.110557883
72390.149223627
74314.696812329
76209.801380497
78194.795223598
80348.396802004
82567.39342734
271387.6241
270439.4481351
269248.68328487
267739.95790595
265844.45025798
263506.49402445
260707.99883014
257460.49510835
253804.95951887
249789.76944725
245476.80470221
240916.69834638
236160.11606588
231241.39333037
226191.80164091
221032.35777883
215784.77005977
210467.44753907
205102.34789458
199710.0461878
194309.98444762
188936.69368756
183609.79069664
178346.71261561
173136.26476806
167974.0928687
162866.67874278
157810.45444984
152820.79759681
147906.21075792
143061.56174087
138349.22017471
133747.27821693
129211.74143218
124841.24852068
120611.99560412
116474.33077218
112498.40290455
108594.891246
104836.24206799
101231.62905038
97689.766606417
94327.068302923
91098.675077872
87928.228535957
84901.520232736
81976.802992991
79112.841244029
76432.00467269
73813.262585836
71276.880838169
68879.711884383
66520.671753744
64285.85361694
62108.083220601
59965.513514778
57952.850314937
55970.9534823
54106.771127739
52295.141217566
50519.723682937
48832.82912772
47184.000307909
45624.117296527
44090.308513732
42649.570283329
41233.354411792
39907.993467309
38603.381614503
37362.340307173
36185.030892762
35024.601860606
33932.660619273
32861.10004831
31856.008874606
30865.392574044
29938.885469769
29025.394992793
28149.473388995
27314.123049236
26489.899996569
25711.334165095
24949.189239761
24209.974454547
23509.28810711
22819.272386215
22162.623669235
21516.838244403
20894.12564109
20294.74780554
19709.082477616
19145.734949802
18601.627279223
18069.886297329
17559.985202145
17059.995975962
16585.270059192
16113.127607332
15667.00974681
15225.450805332
14809.053942893
14391.914935019
13999.542090966
13609.643111327
13238.747984812
12870.022017707
12526.840555935
12176.671177366
11745.24199765
11775.400895048
13207.341592622
23981.966883948
75897.40689586
134365.53270063
139021.43632434
140655.66725966
142489.01479468
143873.61611986
144724.72857864
145401.92183723
145943.54117532
146403.34522547
146853.87479742
147371.44148673
147962.72778722
148613.70371479
149317.29440712
150067.35910061
150855.11672241
151660.74569215
152495.02545461
153326.82870299
154144.73616864
154927.45836416
155628.57914331
156190.65082157
156643.23211937
156866.18305483
156878.67041603
156703.56402234
156409.51992471
156022.9169126
155539.2130241
154953.44787977
154277.31144311
153518.98920237
152676.7027208
151762.28316968
150793.69132779
149783.1457269
148734.04432883
147665.51448091
146605.8570144
145558.69210062
144528.80347612
143519.2088937
142526.87228592
141550.87750382
140589.23408967
139651.55554667
138736.69723595
137861.97800108
137028.10231604
136249.68054001
135533.96327849
134863.2047968
134255.60716558
133662.22085184
133096.6576403
132579.55022468
132059.34685814
131530.83165501
131003.50387928
130451.05209486
129842.14006006
129144.08057006
128344.34099448
127436.56612088
126425.84724751
125301.92064889
124038.53158902
122644.29281875
121144.44666894
119576.72352869
117909.43271326
116121.22067514
114200.30312515
112174.72037704
110095.46289464
107976.77766346
105795.58213856
103564.19240395
101363.35932656
99179.626442373
96951.909770689
94683.065712551
92363.395773148
90197.474320124
87957.304763964
85876.268343327
83724.642108854
81762.647899136
79703.848330889
77817.960298259
75828.772790516
73981.851860193
72134.026485665
70261.44381884
68576.673645681
66810.751799225
65250.437336931
63664.371124281
62286.802358405
61048.058830466
59911.557026391
58951.630912536
57963.047836327
57250.047882034
56536.334527566
56123.415243403
55842.107279473
55841.984278549
56003.02882093
56399.746288705
57005.459554775
57869.013409355
58980.718025501
60313.190410531
61896.873831473
63654.956170614
65486.316791044
67336.574444485
69206.541946858
70832.945184225
72420.687592092
74012.142269592
75654.672926133
77361.563671761
79231.65359865
81242.067115627
271404.38389875
270481.00795855
269250.9321947
267672.14024012
265672.50822656
263219.77631367
260311.35274386
256972.26781816
253243.84044207
249177.37687754
244824.47867023
240231.49416963
235437.34903789
230474.30777403
225367.557712
220144.45082007
214823.52846151
209437.86689925
204008.78955731
198570.48817509
193148.35613281
187777.10248743
182472.9765761
177219.00967131
172011.92050178
166848.32299588
161738.76801253
156681.13310152
151688.55126246
146792.523571
141964.33239022
137277.48623168
132702.51826391
128195.03381207
123844.42560186
119658.9914326
115542.12396976
111600.97934426
107733.07413228
103986.85521865
100424.32595758
96919.333361051
93583.080623849
90381.115669174
87235.931974688
84252.97050164
81332.907207538
78507.447909614
75850.439278888
73250.28846299
70744.916642013
68362.494390459
66016.192559615
63794.3803513
61627.944363413
59501.456516549
57505.970465923
55546.396928728
53700.836300143
51892.220998234
50130.435999325
48466.125575513
46829.296098735
45286.271492026
43768.143344947
42341.809107656
40943.600639181
39634.315996097
38341.622627714
37132.679043257
35946.456780817
34804.295820011
33722.320901343
32663.641567698
31667.110134169
30687.586814506
29769.852796103
28853.989766335
27996.430768536
27151.75980505
26335.486765582
25560.410005076
24807.708304531
24069.844874956
23373.19250305
22686.506356297
22033.299283581
21392.611392203
20768.847240032
20177.025706198
19589.533043707
19036.193665618
18489.442695686
17961.547542711
17458.016730388
16961.853743265
16487.615117814
16021.808595497
15575.609745975
15130.120689212
14708.801031439
14289.190903988
13891.617661615
13496.786182746
13133.789377373
12769.982008016
12438.106463977
12100.804266709
11693.28712718
11724.917017819
13121.726165081
23823.710510757
75680.107700373
133787.41680806
138745.78464042
140768.78242814
142617.92839492
143888.23032291
144728.31936182
145285.84551692
145723.29258463
146195.79783016
146681.57057317
147204.56980507
147789.86488287
148451.2014572
149185.3877078
149979.24697794
150810.18382328
151652.0296139
152509.50199987
153374.97607171
154231.51471871
155058.22619338
155829.73038905
156465.00678734
156932.99929184
157211.44250569
157252.59215354
157124.72453485
156852.55763348
156454.36901391
155928.37291778
155287.7908639
154560.27338878
153755.27302789
152885.76308891
151960.06893255
150986.36337558
149968.51066732
148914.40652745
147840.63661946