/*--------------------------------*- C++ -*----------------------------------*\
| =========                 |                                                 |
| \\      /  F ield         | OpenFOAM: The Open Source CFD Toolbox           |
|  \\    /   O peration     | Version:  2312                                  |
|   \\  /    A nd           | Website:  www.openfoam.com                      |
|    \\/     M anipulation  |                                                 |
\*---------------------------------------------------------------------------*/
FoamFile
{
    version     2.0;
    format      ascii;
    arch        "LSB;label=32;scalar=64";
    class       surfaceScalarField;
    location    "0.0006";
    object      phi;
}
// * * * * * * * * * * * * * * * * * * * * * * * * * * * * * * * * * * * * * //

dimensions      [1 0 -1 0 0 0 0];

oriented        oriented;

internalField   nonuniform List<scalar> 
57240
(
3.2986027114788e-08
-1.2596959925345e-13
3.2986037223747e-08
-8.472205485085e-15
3.2986180757578e-08
-1.4250353661477e-13
3.2986281898516e-08
-1.0371854477553e-13
3.2985301176342e-08
9.6819241079086e-13
3.2981146630838e-08
4.1234884524752e-12
3.2970570927625e-08
1.0515971096712e-11
3.2950068689955e-08
2.040189810572e-11
3.2916614438316e-08
3.3304065435223e-11
3.2868232800843e-08
4.817143292427e-11
3.2804226184016e-08
6.3735383599687e-11
3.2724853230973e-08
7.9045581196052e-11
3.2630933296894e-08
9.3550770917368e-11
3.2523864109529e-08
1.0669751306905e-10
3.2403522028794e-08
1.1999670536966e-10
3.2269416935452e-08
1.3385829849736e-10
3.2120677127231e-08
1.4864423927079e-10
3.1956031511236e-08
1.6480009701854e-10
3.1774385328189e-08
1.8212213121128e-10
3.1574315575962e-08
2.0095796402532e-10
3.1355408497472e-08
2.2026127441268e-10
3.1116897204113e-08
2.4038547404054e-10
3.0859601349153e-08
2.5970197123823e-10
3.0583617467774e-08
2.7891423566398e-10
3.0290957906749e-08
2.9613469623105e-10
2.9983952705257e-08
3.1094827299472e-10
2.9664954055135e-08
3.2309179261909e-10
2.9336465140963e-08
3.3243510126313e-10
2.8997129947818e-08
3.4250429121424e-10
2.8647881731025e-08
3.513345755658e-10
2.8288501679963e-08
3.6014629030411e-10
2.7919336695605e-08
3.6917122558262e-10
2.754149577687e-08
3.7729920559805e-10
2.7154451337696e-08
3.8577596658963e-10
2.675941292875e-08
3.9344244766414e-10
2.6359510048411e-08
3.9801298191633e-10
2.5956868218461e-08
4.0194684176541e-10
2.5551833556256e-08
4.0435934722914e-10
2.5144178049642e-08
4.0631930331578e-10
2.4736425422837e-08
4.0765217683373e-10
2.4327344343892e-08
4.0820449977177e-10
2.3917845980769e-08
4.0840232310616e-10
2.351320179311e-08
4.0690396581837e-10
2.3108933582158e-08
4.0592646340747e-10
2.2706719271803e-08
4.0266719640487e-10
2.2306214924746e-08
3.9980735732023e-10
2.1911631626947e-08
3.9611752176617e-10
2.1520397183131e-08
3.9229347674093e-10
2.1134199522973e-08
3.8826830587885e-10
2.0753729503857e-08
3.8337882943834e-10
2.0378759826838e-08
3.7875820500653e-10
2.0008716617388e-08
3.7343249545055e-10
1.9641303584732e-08
3.6966962750226e-10
1.9279708704224e-08
3.6412823984384e-10
1.8922982720464e-08
3.5965435070537e-10
1.8572820949451e-08
3.528964807663e-10
1.8226480555582e-08
3.4937254852372e-10
1.7886049886632e-08
3.4194346636653e-10
1.7544266214932e-08
3.4011232359268e-10
1.7210794428134e-08
3.3340395334932e-10
1.6882760041087e-08
3.2848856916359e-10
1.6559051042397e-08
3.2308249539809e-10
1.6241404626843e-08
3.173236769747e-10
1.5930027768555e-08
3.1059295497301e-10
1.5620716362721e-08
3.0737314231855e-10
1.5316867561889e-08
3.0104384268128e-10
1.5018550721726e-08
2.9569851305092e-10
1.4727483599627e-08
2.8967588547588e-10
1.4444654755958e-08
2.832277670924e-10
1.4167644980178e-08
2.7747291160188e-10
1.3897132958601e-08
2.7132214597428e-10
1.3633884751497e-08
2.6440474191869e-10
1.3376518762613e-08
2.5882425821231e-10
1.312472553223e-08
2.525627705128e-10
1.2877409005423e-08
2.4778319440961e-10
1.2636959675602e-08
2.4132828532831e-10
1.2401619288874e-08
2.3679187034181e-10
1.2175168184974e-08
2.2928436984026e-10
1.1952655254937e-08
2.2563832238681e-10
1.1735303909958e-08
2.2011647306065e-10
1.1522703549685e-08
2.1480954081793e-10
1.1313899624183e-08
2.1019699593427e-10
1.1108820591098e-08
2.0588604535207e-10
1.0908161881122e-08
2.0126950913756e-10
1.0711768917724e-08
1.9694918691758e-10
1.0519206095308e-08
1.9261008817561e-10
1.0331276838058e-08
1.883151285361e-10
1.0146392395177e-08
1.844727950879e-10
9.9647154532306e-09
1.8046873842286e-10
9.7866959135821e-09
1.7670953773293e-10
9.6114702878603e-09
1.7332620434324e-10
9.4403825484861e-09
1.6931768889326e-10
9.2721973007372e-09
1.6597862394387e-10
9.1074030727083e-09
1.6276336735152e-10
8.94588904505e-09
1.5907853302135e-10
8.7868345471388e-09
1.5643035895763e-10
8.6310844172748e-09
1.5270524881335e-10
8.4783185986039e-09
1.4969510478284e-10
8.328717585198e-09
1.4686472364637e-10
8.1826384781e-09
1.4357644191215e-10
8.0398355050747e-09
1.4079044925158e-10
7.9004598691348e-09
1.3766055422912e-10
7.7640210701562e-09
1.350306708709e-10
7.630695924629e-09
1.3220582445269e-10
7.5001754239622e-09
1.2964544810342e-10
7.3724704005022e-09
1.2699277315142e-10
7.2473928617386e-09
1.2453610227747e-10
7.1248676319758e-09
1.221401257826e-10
7.0053674893405e-09
1.1909374403272e-10
6.8895169100595e-09
1.1809128966483e-10
6.759065959488e-09
1.1909491394929e-10
6.5723486149642e-09
1.422979719525e-10
6.0365079522057e-09
2.6959459911693e-10
5.5153097688092e-09
3.7609530585375e-10
5.0798816988205e-09
3.9134682403767e-10
4.6409024393941e-09
4.0907136081596e-10
4.2117424457043e-09
4.0604400877311e-10
3.7816602873625e-09
4.1798726178337e-10
3.3847495512945e-09
4.0207437905607e-10
3.0239934928594e-09
3.8545206233475e-10
2.689753750419e-09
3.6725824861237e-10
2.370581342224e-09
3.4620589903688e-10
2.0761848516227e-09
3.1781481153161e-10
1.8179329862983e-09
2.8193782241996e-10
1.6069025102486e-09
2.3900022087714e-10
1.4460056310138e-09
1.9250360870335e-10
1.3286660988268e-09
1.4776089420526e-10
1.246506666133e-09
1.0912376695298e-10
1.1881173887165e-09
8.170551193767e-11
1.1483039412476e-09
6.547992002415e-11
1.1201712858784e-09
5.9620061647901e-11
1.0873083638775e-09
6.9941646899759e-11
1.0356424624762e-09
9.3928406655066e-11
9.4168792631063e-10
1.369832862808e-10
7.8127115486596e-10
2.0148368734407e-10
5.391833490381e-10
2.8175665387343e-10
2.2365000052563e-10
3.5461517481285e-10
-1.0037027522516e-10
3.6238432551579e-10
-3.8989767078255e-10
3.2647509283685e-10
-6.48827669449e-10
2.9192428979673e-10
-8.7705722650878e-10
2.5966738936804e-10
-1.0745115689725e-09
2.2856774228197e-10
-1.2422493813862e-09
1.976683277313e-10
-1.3843450523166e-09
1.6615053325607e-10
-1.5079753601155e-09
1.3296095758354e-10
-1.619676038501e-09
9.9570662916777e-11
-1.7217323863503e-09
6.8503909566117e-11
-1.8079398346849e-09
4.3601324093211e-11
-1.869980216248e-09
2.4831174827148e-11
-1.9060708891036e-09
8.2062743555849e-12
-1.9198271886804e-09
-5.5150656615716e-12
-1.9184245565805e-09
-1.5089289493718e-11
-1.9013247265173e-09
-2.6093240884328e-11
-1.8689688069466e-09
-4.0409679737406e-11
-1.8214907819453e-09
-5.9242404325144e-11
-1.7613601975363e-09
-7.8671041455031e-11
-1.6911784798046e-09
-9.7180574689811e-11
-1.6120554066023e-09
-1.1346644252036e-10
-1.5224219172496e-09
-1.2704145448979e-10
-1.4190879987359e-09
-1.3929364747979e-10
-1.299524042167e-09
-1.5158056534778e-10
-1.161535072643e-09
-1.639556256101e-10
-1.003384511749e-09
-1.770609817937e-10
-8.2296026742082e-10
-1.9243845702355e-10
-6.2044288299585e-10
-2.0876740329269e-10
-3.9648077354792e-10
-2.2602215148344e-10
-1.4972140522398e-10
-2.4689988300672e-10
1.1863146364152e-10
-2.6839073995067e-10
4.0621188940017e-10
-2.8878606351773e-10
7.1463974125189e-10
-3.1113643373233e-10
1.0419289469199e-09
-3.3108621339625e-10
1.3888250590377e-09
-3.5053105075326e-10
1.7534590765555e-09
-3.6718822718382e-10
2.133829218747e-09
-3.8059620137075e-10
2.5312089069449e-09
-3.9456688909344e-10
2.9390920145601e-09
-4.0164496585459e-10
3.3588918527023e-09
-4.0991513375113e-10
3.7833145932476e-09
-4.1105368995312e-10
4.2140167348926e-09
-4.145541594576e-10
4.6430540407402e-09
-4.1075780586345e-10
5.0707838297122e-09
-4.0787039075614e-10
5.4923428150711e-09
-4.0108740247974e-10
5.9050699103319e-09
-3.9176270499433e-10
6.3088464487759e-09
-3.828656912311e-10
6.6983804553146e-09
-3.6881031644171e-10
7.0762931778257e-09
-3.5744882763192e-10
7.4356355180036e-09
-3.3949162823369e-10
7.7799984677006e-09
-3.2501440443269e-10
8.1023080662759e-09
-3.0411410898461e-10
8.4077219591003e-09
-2.887792770715e-10
8.6876546797932e-09
-2.6645448919297e-10
8.9490949077966e-09
-2.5024503204228e-10
9.1836913248331e-09
-2.2614477819425e-10
9.401454997565e-09
-2.114682312454e-10
9.5937923363751e-09
-1.8649925729122e-10
9.7714143209748e-09
-1.7272122276944e-10
9.9240657006335e-09
-1.4831093670975e-10
1.0061638726546e-08
-1.3434901768035e-10
1.0177109102633e-08
-1.1190918136252e-10
1.0279331888733e-08
-9.8598031216606e-11
1.0363442971048e-08
-8.0750420265426e-11
1.0436635039769e-08
-6.8391617554035e-11
1.0495191578537e-08
-5.4204280320323e-11
1.0543183137671e-08
-4.3775389171143e-11
1.0578509868803e-08
-3.2215142630638e-11
1.06040665177e-08
-2.2912788723073e-11
1.0618809666074e-08
-1.3129985380382e-11
1.0624982803279e-08
-4.3028459434295e-12
1.0624053652479e-08
3.4502053244355e-12
1.0616346062613e-08
1.0234305956322e-11
1.0598406242426e-08
2.034861176633e-11
1.0575629945004e-08
2.5465559790398e-11
1.0544288687132e-08
3.4016304619245e-11
1.0512710347159e-08
3.5214203651444e-11
1.0477242625329e-08
4.0118694072295e-11
1.0445630276537e-08
3.7260872927869e-11
1.0415410712279e-08
3.5848182638249e-11
1.0392578300204e-08
3.0921280173569e-11
1.0374918820221e-08
2.3906474082761e-11
1.0362808191774e-08
2.0105573706365e-11
1.0357591845799e-08
1.2623745327981e-11
1.0358454921816e-08
5.180376628544e-12
1.0369932626701e-08
-6.5095857039422e-12
1.0393931127416e-08
-2.1550748868202e-11
1.0435214536852e-08
-4.208164424158e-11
1.0495557637292e-08
-6.612955790053e-11
1.0578492176447e-08
-9.6360587767709e-11
1.0687276267336e-08
-1.2873601155223e-10
1.0823966059188e-08
-1.6556945311231e-10
1.0991735507466e-08
-2.0864554961674e-10
1.1189650985672e-08
-2.5308118875645e-10
1.1422942870295e-08
-3.0551102916382e-10
1.1677834864415e-08
-3.4576036442288e-10
1.1964351645249e-08
-3.9703944124535e-10
1.2260902340858e-08
-4.270151261069e-10
1.2573701435309e-08
-4.5786943503068e-10
1.2857342002916e-08
-4.4138989661398e-10
1.3148835022762e-08
-4.5647533145119e-10
1.3370492640028e-08
-3.6270199907119e-10
-3.2596717531604e-10
9.895809797833e-08
-2.3791678634814e-13
9.8958148890188e-08
-5.4326892378671e-14
9.8958842493422e-08
-8.3323875261189e-13
9.8959555604574e-08
-8.2619234211607e-13
9.8956757715421e-08
3.726341937569e-12
9.8943436718033e-08
1.7349717241481e-11
9.8910281793014e-08
4.3491058332793e-11
9.8847278668529e-08
8.3106625386807e-11
9.8746052647392e-08
1.340832559837e-10
9.8601449587235e-08
1.9215666593864e-10
9.8411554004569e-08
2.5283418081881e-10
9.8176926728058e-08
3.1271918968101e-10
9.7899932992687e-08
3.6948291235585e-10
9.7582452707283e-08
4.2310143280756e-10
9.7225095714874e-08
4.7638237393897e-10
9.6826572504973e-08
5.3170651070645e-10
9.6384110776622e-08
5.909222007184e-10
9.5893779585618e-08
6.5569022258664e-10
9.5352334483129e-08
7.2510553257374e-10
9.4755944828192e-08
8.0009142974174e-10
9.4103471477718e-08
8.7686371701847e-10
9.3392959645786e-08
9.5651553262939e-10
9.2627193394668e-08
1.0326481025137e-09
9.180556997474e-08
1.1092107270054e-09
9.0936140546105e-08
1.1757614535217e-09
9.002646128399e-08
1.2321112500775e-09
8.9081349134413e-08
1.279822360599e-09
8.8106238137745e-08
1.318708615161e-09
8.7098176942485e-08
1.3594517216306e-09
8.6059344524058e-08
1.3958651135559e-09
8.4988450548421e-08
1.4330869259833e-09
8.388942539305e-08
1.468045085089e-09
8.276427295645e-08
1.5004433248898e-09
8.1616695951043e-08
1.5292166019893e-09
8.0448270307322e-08
1.5571535787698e-09
7.9263125527786e-08
1.5779912886341e-09
7.8068568471536e-08
1.5949790440122e-09
7.6864629829046e-08
1.6066474104168e-09
7.5650967044659e-08
1.6161401291596e-09
7.4437386059447e-08
1.6212550259195e-09
7.3219212612842e-08
1.6239100109204e-09
7.2000598569179e-08
1.6240742381774e-09
7.0795598857258e-08
1.6187842280106e-09
6.9592910907448e-08
1.6140748451079e-09
6.8395052223564e-08
1.6022663956888e-09
6.7198392081594e-08
1.5943472254354e-09
6.6021377304152e-08
1.5771851464477e-09
6.4852651517797e-08
1.5645305366946e-09
6.3698098911518e-08
1.5496020628228e-09
6.2562401408126e-08
1.5283891412038e-09
6.1442189877908e-08
1.5105736443227e-09
6.033549608293e-08
1.489847509511e-09
5.9235576086812e-08
1.4758520769939e-09
5.8151789607324e-08
1.4559371239162e-09
5.7087388857609e-08
1.4332654387043e-09
5.6039061340419e-08
1.410125466962e-09
5.5003017812466e-08
1.3926959819791e-09
5.3979734570567e-08
1.3689181348498e-09
5.2954302985847e-08
1.3611774005852e-09
5.1954390143105e-08
1.3346419021433e-09
5.0972725607956e-08
1.3115294801827e-09
5.0002868784875e-08
1.2907980267458e-09
4.9052731510427e-08
1.2702984834574e-09
4.8118471399958e-08
1.2426596036217e-09
4.7185184928578e-08
1.231629153369e-09
4.6273285075329e-08
1.2054411205495e-09
4.5381645616247e-08
1.1797470890361e-09
4.450560970556e-08
1.1619767481012e-09
4.365753134018e-08
1.1322277914637e-09
4.2824856091265e-08
1.1114093981261e-09
4.2010605057809e-08
1.0878851589092e-09
4.1221032608807e-08
1.0571544915522e-09
4.044334389643e-08
1.0405773921159e-09
3.9683019924307e-08
1.0150176747713e-09
3.8937241888154e-08
9.9527625581618e-10
3.8212012835646e-08
9.6943663819167e-10
3.7502918780338e-08
9.5034463014645e-10
3.6817558672265e-08
9.2272839736133e-10
3.6146594320074e-08
9.0603952536897e-10
3.5491296392505e-08
8.837578976555e-10
3.4849841349982e-08
8.6288329416526e-10
3.4218847871096e-08
8.4503131059465e-10
3.3600181681422e-08
8.2680692118621e-10
3.299457279843e-08
8.0869652954956e-10
3.2402114989976e-08
7.9067578638469e-10
3.182090820842e-08
7.7392100748562e-10
3.1253812295496e-08
7.5672157710756e-10
3.0695901735002e-08
7.4109608529791e-10
3.0146945936352e-08
7.2552392164412e-10
2.9609381036979e-08
7.1063234709802e-10
2.9081097081213e-08
6.9619443119358e-10
2.8564365053653e-08
6.8057929225604e-10
2.8056644621258e-08
6.6710404541413e-10
2.7559091985246e-08
6.5428699648075e-10
2.7071503842327e-08
6.3939362072095e-10
2.6591659390077e-08
6.2842813338565e-10
2.6121846594512e-08
6.1377655109954e-10
2.5659546174311e-08
6.0238457515024e-10
2.5207916577518e-08
5.9025831922206e-10
2.4767055691891e-08
5.7709786464865e-10
2.4335977747498e-08
5.6585885244998e-10
2.3915109236998e-08
5.5341955591327e-10
2.3502907733811e-08
5.4314130234094e-10
2.3100305454675e-08
5.3154436172826e-10
2.2706033044534e-08
5.2143136878202e-10
2.2320463417388e-08
5.1055043671465e-10
2.1942486930862e-08
5.0100234599654e-10
2.1572469510651e-08
4.9110452096537e-10
2.1212150378646e-08
4.7826298538473e-10
2.0862514125807e-08
4.7454699271237e-10
2.0465315913695e-08
4.821056238398e-10
1.9886507725096e-08
5.8614393288134e-10
1.8382075922224e-08
9.7229253251803e-10
1.6743407546379e-08
1.5818869677805e-09
1.5331142334371e-08
1.6716412989404e-09
1.3957267497524e-08
1.6976539308018e-09
1.2628681881195e-08
1.6696118823204e-09
1.1341227738603e-08
1.6708890548556e-09
1.01542482349e-08
1.6058584768045e-09
9.0679291589876e-09
1.5465935488552e-09
8.0542278935912e-09
1.4789479306799e-09
7.0826747357387e-09
1.3961641690202e-09
6.1902273886484e-09
1.2767235192037e-09
5.4137635433748e-09
1.1251668820803e-09
4.7842325575193e-09
9.4786440489048e-10
4.3073193999716e-09
7.5895021498967e-10
3.9618683815493e-09
5.784987707073e-10
3.7190148339269e-09
4.2789796656448e-10
3.5476516060473e-09
3.1766201987986e-10
3.4279745950878e-09
2.5547091437102e-10
3.3414401857482e-09
2.3454497938775e-10
3.2471181714162e-09
2.7147291920364e-10
3.0984458904332e-09
3.6459458772965e-10
2.8261302640875e-09
5.3536968639959e-10
2.3658370355507e-09
7.8653256966641e-10
1.6865209594457e-09
1.0831769816275e-09
8.2212150100616e-10
1.3382097462716e-09
-8.8015462792275e-11
1.3900566021909e-09
-9.184991400502e-10
1.2698239543986e-09
-1.6678638025804e-09
1.1421108424904e-09
-2.3312729918032e-09
1.0183656944277e-09
-2.9070937239556e-09
8.9774578809345e-10
-3.3979520771447e-09
7.7782607605984e-10
-3.8153237887016e-09
6.5625145806178e-10
-4.1768471406904e-09
5.2705947839568e-10
-4.5034747218076e-09
3.9758144862781e-10
-4.8012620940624e-09
2.769544161897e-10
-5.0526011358454e-09
1.7887462569504e-10
-5.2341025178876e-09
1.0117503855787e-10
-5.3415848345785e-09
3.5214573053823e-11
-5.3860816937829e-09
-1.8692428887274e-11
-5.3817837589816e-09
-6.2957790816709e-11
-5.3285466549182e-09
-1.127401590509e-10
-5.2306863733522e-09
-1.7108317925004e-10
-5.0902719801526e-09
-2.4043030757871e-10
-4.9135339146974e-09
-3.1156637066298e-10
-4.7064602619556e-09
-3.803179204698e-10
-4.4717384246776e-09
-4.4263867495496e-10
-4.2047029074818e-09
-4.9801830426288e-10
-3.8977568647764e-09
-5.4863065445775e-10
-3.5436140117438e-09
-5.9739052352217e-10
-3.1349561544454e-09
-6.4698716377701e-10
-2.6666926340834e-09
-6.9940665758792e-10
-2.1331833948761e-09
-7.6054566255632e-10
-1.5336940718798e-09
-8.27048750067e-10
-8.7020422305378e-10
-8.9774180020512e-10
-1.4085692465039e-10
-9.795129444562e-10
6.5312505346008e-10
-1.0650490687632e-09
1.5062541843968e-09
-1.1465132107412e-09
2.4216078236675e-09
-1.2335221481035e-09
3.3948349871238e-09
-1.3127320885271e-09
4.4262472629796e-09
-1.389497465936e-09
5.5105739633095e-09
-1.4555111285465e-09
6.6417797218609e-09
-1.5089057920986e-09
7.8224140263956e-09
-1.5632139797211e-09
9.0360675020191e-09
-1.5929819661721e-09
1.0284050216031e-08
-1.6246682154105e-09
1.1547356877917e-08
-1.6307434821747e-09
1.2827863217659e-08
-1.6430366807313e-09
1.4105164754862e-08
-1.6295924784831e-09
1.5377777865188e-08
-1.6171867139914e-09
1.6632567254026e-08
-1.5904418042982e-09
1.7861156964161e-08
-1.5532096506648e-09
1.9062703296189e-08
-1.516919630424e-09
2.0223013473562e-08
-1.4617307515379e-09
2.1347789974988e-08
-1.414986480578e-09
2.2419500742975e-08
-1.3448924908782e-09
2.3445704503773e-08
-1.2855276203552e-09
2.4409221176568e-08
-1.2018770841693e-09
2.5321409869805e-08
-1.136319865472e-09
2.6162947220599e-08
-1.0491540666919e-09
2.6949297605944e-08
-9.818312330403e-10
2.7660716352781e-08
-8.9009095545584e-10
2.8318055094103e-08
-8.2862748765375e-10
2.8900666028855e-08
-7.3622749391823e-10
2.9432668101648e-08
-6.788209821839e-10
2.989195677629e-08
-5.8512017244353e-10
3.0302901394427e-08
-5.281258492257e-10
3.0649797887523e-08
-4.4263793694638e-10
3.095514208903e-08
-3.8850956500442e-10
3.1207667193894e-08
-3.1867768159694e-10
3.142756096197e-08
-2.6916848293437e-10
3.1604520244151e-08
-2.1275844961859e-10
3.1749247901321e-08
-1.712954074557e-10
3.1855555663698e-08
-1.2445483720763e-10
3.1932872533975e-08
-8.8195122064409e-11
3.197743797089e-08
-4.8591033213139e-11
3.19964890495e-08
-1.4463431156623e-11
3.1992750807614e-08
1.8063529017925e-11
3.1968920662755e-08
4.5322770582653e-11
3.1915999084757e-08
8.4327724559154e-11
3.1848114004765e-08
1.0483959196862e-10
3.175448858668e-08
1.3856526044578e-10
3.1658436514719e-08
1.4468312144763e-10
3.155193028891e-08
1.6325436949792e-10
3.1457102244295e-08
1.5179557120219e-10
3.1368995029123e-08
1.4426369666439e-10
3.1301745992938e-08
1.2424143251357e-10
3.1248090034379e-08
9.9236885949723e-11
3.1210460518118e-08
8.3184201056671e-11
3.1196877526678e-08
5.004795946092e-11
3.1199913859963e-08
2.0807246006663e-11
3.1236202607836e-08
-2.7328366836615e-11
3.1312010180772e-08
-8.953319486246e-11
3.1434217751745e-08
-1.6653497959411e-10
3.1619846023884e-08
-2.6517422297302e-10
3.1870950723173e-08
-3.8620612604037e-10
3.2196192927678e-08
-5.1560475644663e-10
3.2602939930652e-08
-6.6097716234134e-10
3.3099896196476e-08
-8.284245871032e-10
3.3684170142132e-08
-1.0026222396898e-09
3.4363942076233e-08
-1.19994949132e-09
3.5122067176181e-08
-1.3741214301192e-09
3.5953508836817e-08
-1.5562646933514e-09
3.6836934657709e-08
-1.6969214699718e-09
3.7715533295779e-08
-1.7585180504115e-09
3.855656073351e-08
-1.7458333463766e-09
3.9326923683859e-08
-1.6912067832226e-09
3.9983631390083e-08
-1.4366953350109e-09
-1.3077152614263e-09
1.6493030706763e-07
1.7810517920168e-13
1.6493061192575e-07
-3.5219138335529e-13
1.6493322699264e-07
-3.4469529897346e-12
1.6493581586025e-07
-3.4376899728958e-12
1.6493128568712e-07
8.1817472523112e-12
1.6490673269001e-07
4.1734393661774e-11
1.6484618921482e-07
1.0372422620599e-10
1.6473364373479e-07
1.9514947882968e-10
1.645562710349e-07
3.1071262528481e-10
1.6430651012599e-07
4.4091131238273e-10
1.6398159767398e-07
5.7647063962481e-10
1.6358297047634e-07
7.0985480663434e-10
1.6311341030942e-07
8.374368725198e-10
1.6257519220534e-07
9.5976136297188e-10
1.6196853318084e-07
1.0817682635722e-09
1.6129091459396e-07
1.2086357912915e-09
1.6053775137846e-07
1.3443332494767e-09
1.5970260174975e-07
1.4923778465406e-09
1.5878033385748e-07
1.650579850134e-09
1.57765872591e-07
1.8197071138145e-09
1.5665724318655e-07
1.9928927959289e-09
1.5545374097532e-07
2.1697200127846e-09
1.5415805203813e-07
2.3404711906535e-09
1.5277517795577e-07
2.5065495265717e-09
1.5131489899258e-07
2.6525857759847e-09
1.4979122555779e-07
2.7740660070777e-09
1.4820659979266e-07
2.8824464376839e-09
1.4656961096964e-07
2.9726894110599e-09
1.4487631750049e-07
3.0664173564507e-09
1.4313152602732e-07
3.1491145378027e-09
1.4133131934387e-07
3.2360535478515e-09
1.39485948623e-07
3.3129329736096e-09
1.3759710818287e-07
3.3858519991913e-09
1.3567065658801e-07
3.4488019748528e-09
1.3370902945242e-07
3.5113361094372e-09
1.3172381030055e-07
3.5556343784444e-09
1.2972396773895e-07
3.5928136548391e-09
1.2770957246018e-07
3.6182396546795e-09
1.2568082693809e-07
3.6382152237598e-09
1.2365282278536e-07
3.6489561524633e-09
1.2161714702065e-07
3.6552196358772e-09
1.1958382992642e-07
3.6532300662625e-09
1.1757241794261e-07
3.6421677914248e-09
1.1556554047606e-07
3.6300004825723e-09
1.1356481952898e-07
3.6054171760472e-09
1.1156972706469e-07
3.5870516334352e-09
1.0960417948201e-07
3.5478594818947e-09
1.0765325502779e-07
3.5213246815669e-09
1.0573393232316e-07
3.481788976852e-09
1.0384029290369e-07
3.4375175412412e-09
1.0196936659018e-07
3.398912685028e-09
1.0012099901784e-07
3.3538271820394e-09
9.828722999043e-08
3.319808814922e-09
9.648853644679e-08
3.2708054514603e-09
9.4715283536236e-08
3.2216983954108e-09
9.2964529281915e-08
3.1734949601765e-09
9.1234434880566e-08
3.1328808497813e-09
8.9522994849801e-08
3.0843803732469e-09
8.7824982159015e-08
3.0557166659852e-09
8.6168075008519e-08
2.9952854671443e-09
8.4527266653907e-08
2.95254950628e-09
8.2914629612534e-08
2.8996863340481e-09
8.1331687465171e-08
2.8543787631817e-09
7.9770635733305e-08
2.7972756713571e-09
7.8227217128619e-08
2.7617307510051e-09
7.6717120709047e-08
2.7063391269018e-09
7.522980548558e-08
2.6561208684317e-09
7.3783398030806e-08
2.6038891601874e-09
7.2372678554297e-08
2.5433084148095e-09
7.0992436699269e-08
2.4943602988387e-09
6.9646499906312e-08
2.4380135174926e-09
6.8326103711408e-08
2.3834642591639e-09
6.7037696918306e-08
2.3350262931888e-09
6.5778684716151e-08
2.2793671152704e-09
6.4545752359008e-08
2.2333694317296e-09
6.3343757736446e-08
2.1782222219359e-09
6.2171914983014e-08
2.1317317585483e-09
6.1030285526007e-08
2.0774286463255e-09
5.9917910014209e-08
2.0325360093223e-09
5.8832937378174e-08
1.9849060345609e-09
5.7765433106894e-08
1.9401675783342e-09
5.6717468800845e-08
1.8993372171108e-09
5.5692332933541e-08
1.8562504503863e-09
5.4687241188396e-08
1.8173690270445e-09
5.3704972574176e-08
1.775500546982e-09
5.2739404090349e-08
1.740064065186e-09
5.1797785760057e-08
1.6994463200022e-09
5.0871001302535e-08
1.6668672069334e-09
4.9959955711246e-08
1.6299211980534e-09
4.9068847339441e-08
1.5957770721804e-09
4.8193158420645e-08
1.5636481219911e-09
4.733384232003e-08
1.5309076652823e-09
4.6490811401173e-08
1.4982911067035e-09
4.5664778703388e-08
1.4702716438196e-09
4.4854923702951e-08
1.4364439250467e-09
4.4060148982219e-08
1.4103868311355e-09
4.3280159157782e-08
1.3799379408377e-09
4.2514036974811e-08
1.353120475023e-09
4.1766490865727e-08
1.3245641336164e-09
4.1034721998247e-08
1.2967072760786e-09
4.031901052385e-08
1.2713588070261e-09
3.9620005681354e-08
1.2438228934255e-09
3.8935840488171e-08
1.2203727719923e-09
3.8267728161014e-08
1.1939745716825e-09
3.7612324073973e-08
1.1723194988245e-09
3.6971672860051e-08
1.1477277287631e-09
3.6342068531634e-08
1.127952146167e-09
3.5726422458997e-08
1.1048363078726e-09
3.5123951085401e-08
1.0784168378298e-09
3.4538826753644e-08
1.070871483392e-09
3.38724253839e-08
1.0894267202107e-09
3.2901479815791e-08
1.3274747822766e-09
3.0271561108861e-08
2.2579885741214e-09
2.7525213291224e-08
3.6038076123284e-09
2.5169308756721e-08
3.8114038331462e-09
2.2892639466168e-08
3.8380222967285e-09
2.0692297380219e-08
3.766257294127e-09
1.8573859958046e-08
3.7393068447695e-09
1.6611019592652e-08
3.6063482599329e-09
1.4781400386174e-08
3.5091501780708e-09
1.3046490386223e-08
3.3806292329785e-09
1.1397902608949e-08
3.1760908238438e-09
9.9187889069407e-09
2.8652265074059e-09
8.6689354427541e-09
2.4836476379275e-09
7.6821434224679e-09
2.0629052932948e-09
6.9537109838544e-09
1.6323096908595e-09
6.4396928357197e-09
1.2282270661243e-09
6.0908738082117e-09
8.9385536427347e-10
5.853267375687e-09
6.5322922545193e-10
5.6857772575611e-09
5.2764664750535e-10
5.5740214652356e-09
4.7924550873565e-10
5.4714611452864e-09
5.3796632068159e-10
5.2880151639722e-09
7.3437644153086e-10
4.9229875075696e-09
1.0954793199389e-09
4.2783872952356e-09
1.6232782231247e-09
3.3021268817624e-09
2.2470938717768e-09
2.0498175744006e-09
2.7786524319229e-09
7.0972437277051e-10
2.9234059822337e-09
-5.5401500766636e-10
2.7189441203852e-09
-1.7089372906984e-09
2.4648150711379e-09
-2.7418576537996e-09
2.2103642756626e-09
-3.6456564406363e-09
1.9560630255827e-09
-4.4210595509412e-09
1.7003020838249e-09
-5.0827290860737e-09
1.4384149124202e-09
-5.6577227597715e-09
1.1643429367802e-09
-6.1740969518201e-09
8.8831843768455e-10
-6.6391323370513e-09
6.2952980650188e-10
-7.031182782226e-09
4.0733016652372e-10
-7.3190035043974e-09
2.3004293778337e-10
-7.4948986822285e-09
8.4091396811148e-11
-7.5745964437073e-09
-3.5580190767794e-11
-7.5658529196116e-09
-1.5053412008848e-10
-7.4738099510106e-09
-2.7643345481341e-10
-7.3126282649727e-09
-4.021752719473e-10
-7.0843192429736e-09
-5.4363098835231e-10
-6.797449930923e-09
-6.8593544575101e-10
-6.4601747554222e-09
-8.2489872790066e-10
-6.0761325089334e-09
-9.5493100472309e-10
-5.6393394437336e-09
-1.076085916124e-09
-5.138842020682e-09
-1.1906914397722e-09
-4.5636872328193e-09
-1.3014115204405e-09
-3.9004436601605e-09
-1.4155766421382e-09
-3.140341198641e-09
-1.5354125306622e-09
-2.2738330829856e-09
-1.6741087627322e-09
-1.2980833320096e-09
-1.8262423640282e-09
-2.1768631441471e-10
-1.9852584437626e-09
9.7293146219178e-10
-2.1686774629371e-09
2.2741574968874e-09
-2.3614698197358e-09
3.6771813344905e-09
-2.5437428060262e-09
5.1865995020073e-09
-2.7365365020739e-09
6.7952785246909e-09
-2.9132924995623e-09
8.5012110275659e-09
-3.0825388308906e-09
1.0297425728219e-08
-3.2315455333592e-09
1.2171054883738e-08
-3.3514337597191e-09
1.4126770521924e-08
-3.4737855546971e-09
1.6137667810498e-08
-3.5428126404003e-09
1.8205340029326e-08
-3.6145670179396e-09
2.0296908101556e-08
-3.6285613230212e-09
2.2416472793809e-08
-3.6558263163935e-09
2.4530038941625e-08
-3.6266752687463e-09
2.6634738225804e-08
-3.5975180306031e-09
2.8708550501474e-08
-3.5360340668246e-09
3.0737025733257e-08
-3.4498642255296e-09
3.2718560925907e-08
-3.3649776365891e-09
3.4630377931854e-08
-3.239186170058e-09
3.648101750558e-08
-3.1303482942556e-09
3.824368927894e-08
-2.9724527757568e-09
3.992785234913e-08
-2.8347011321851e-09
4.150750790129e-08
-2.6489758915809e-09
4.299819172295e-08
-2.4945912386717e-09
4.4377227332753e-08
-2.2967440440991e-09
4.5668793871462e-08
-2.1413603261502e-09
4.6841584940786e-08
-1.9386753161456e-09
4.7924193321626e-08
-1.792734973244e-09
4.8887757822703e-08
-1.5960333579238e-09
4.9761589826499e-08
-1.4623881218775e-09
5.0518300277372e-08
-1.2612335729195e-09
5.1189541013274e-08
-1.1297330011263e-09
5.1756817006513e-08
-9.475360000347e-10
5.2253066294507e-08
-8.2354642974227e-10
5.2659980285647e-08
-6.7137932507056e-10
5.300599438079e-08
-5.6163238191925e-10
5.3279814989381e-08
-4.3721210935732e-10
5.349944525773e-08
-3.4576580897185e-10
5.3656192020388e-08
-2.4148278523249e-10
5.3766845625178e-08
-1.6411380594767e-10
5.382044920539e-08
-7.3440792522663e-11
5.3834840764535e-08
-2.4032012373879e-12
5.3808434833676e-08
7.5829473615814e-11
5.3754940140446e-08
1.3112052397933e-10
5.3651266557759e-08
2.1961535115989e-10
5.3528303723957e-08
2.5937329951525e-10
5.3359193448237e-08
3.3704370355694e-10
5.3191228344883e-08
3.4547677787258e-10
5.3006700834295e-08
3.8576539783283e-10
5.2847400878296e-08
3.5452722074998e-10
5.2699773769691e-08
3.3716971967807e-10
5.2585788215089e-08
2.8882254058928e-10
5.2492554133575e-08
2.3925732878833e-10
5.2428348018567e-08
1.9624491855566e-10
5.2410833413231e-08
1.1426139448508e-10
5.2428275735067e-08
4.0832849194261e-11
5.2512605293389e-08
-8.0818950197021e-11
5.2664214400075e-08
-2.2340784392193e-10
5.2905033572987e-08
-4.0575601926887e-10
5.3250584383472e-08
-6.3258791125354e-10
5.37066489712e-08
-8.9948325050837e-10
5.4290867115408e-08
-1.2004608020382e-09
5.5012780507499e-08
-1.5332686602128e-09
5.5880233117453e-08
-1.9049908216381e-09
5.6888280916967e-08
-2.2895779958733e-09
5.8034660576591e-08
-2.7066524551387e-09
5.9308560054193e-08
-3.095576581992e-09
6.067837813999e-08
-3.4672186122949e-09
6.2108438155542e-08
-3.7568811517999e-09
6.3515444190975e-08
-3.8618954755175e-09
6.485370366543e-08
-3.8234573695275e-09
6.6070764484151e-08
-3.6419499113037e-09
6.7182417373074e-08
-3.2386525021471e-09
-2.9866142511309e-09
2.3090254266829e-07
1.2305054147278e-12
2.3090416650759e-07
-1.971063347903e-12
2.3091135933421e-07
-1.0647290550303e-11
2.3091809774502e-07