/*--------------------------------*- C++ -*----------------------------------*\
| =========                 |                                                 |
| \\      /  F ield         | OpenFOAM: The Open Source CFD Toolbox           |
|  \\    /   O peration     | Version:  2312                                  |
|   \\  /    A nd           | Website:  www.openfoam.com                      |
|    \\/     M anipulation  |                                                 |
\*---------------------------------------------------------------------------*/
FoamFile
{
    version     2.0;
    format      ascii;
    arch        "LSB;label=32;scalar=64";
    class       surfaceScalarField;
    location    "0.0006";
    object      phiByRho;
}
// * * * * * * * * * * * * * * * * * * * * * * * * * * * * * * * * * * * * * //

dimensions      [0 3 -1 0 0 0 0];

oriented        oriented;

internalField   uniform 0;

boundaryField
{
    inlet
    {
        type            calculated;
        value           nonuniform List<scalar> 
40
(
-8.6066636130863e-09
-2.5819990839259e-08
-4.3033318065431e-08
-6.0246645291604e-08
-7.7459972517776e-08
-9.4673299743949e-08
-1.1188662697012e-07
-1.2909995419629e-07
-1.4631328142247e-07
-1.6352660864864e-07
-1.8073993587481e-07
-1.9795326310098e-07
-2.1516659032716e-07
-2.3237991755333e-07
-2.495932447795e-07
-2.6680657200567e-07
-2.8401989923185e-07
-3.0123322645802e-07
-3.1844655368419e-07
-3.3565988091036e-07
-3.5287320813654e-07
-3.7008653536271e-07
-3.8729986258888e-07
-4.0451318981505e-07
-4.2172651704123e-07
-4.389398442674e-07
-4.5615317149357e-07
-4.7336649871974e-07
-4.9057982594592e-07
-5.0779315317209e-07
-5.2500648039826e-07
-5.4221980762443e-07
-5.5943313485061e-07
-5.7664646207678e-07
-5.9385978930295e-07
-6.1107311652912e-07
-6.282864437553e-07
-6.4549977098147e-07
-6.6271309820764e-07
-6.7992642543381e-07
)
;
    }
    outlet
    {
        type            calculated;
        value           uniform 0;
    }
    freestreamInlet
    {
        type            calculated;
        value           uniform 0;
    }
    freestream
    {
        type            calculated;
        value           uniform 0;
    }
    wedge1
    {
        type            wedge;
        value           uniform 0;
    }
    wedge2
    {
        type            wedge;
        value           uniform 0;
    }
    defaultFaces
    {
        type            empty;
        value           nonuniform List<scalar> 0();
    }
}


// ************************************************************************* //
