/*--------------------------------*- C++ -*----------------------------------*\
| =========                 |                                                 |
| \\      /  F ield         | OpenFOAM: The Open Source CFD Toolbox           |
|  \\    /   O peration     | Version:  2312                                  |
|   \\  /    A nd           | Website:  www.openfoam.com                      |
|    \\/     M anipulation  |                                                 |
\*---------------------------------------------------------------------------*/
FoamFile
{
    version     2.0;
    format      ascii;
    arch        "LSB;label=32;scalar=64";
    class       volScalarField;
    location    "0.0006";
    object      rho;
}
// * * * * * * * * * * * * * * * * * * * * * * * * * * * * * * * * * * * * * //

dimensions      [1 -3 0 0 0 0 0];

internalField   nonuniform List<scalar> 
28800
(
3.8284017579944
3.8184208481978
3.8066225263387
3.7927229512105
3.7761333344176
3.7560689149863
3.7316866728886
3.7023355904499
3.6677714191769
3.6282415623858
3.5844214773841
3.537231745649
3.4876326253417
3.4364691905944
3.3842646352927
3.3312701268418
3.2775384789133
3.2229964869622
3.1675364940323
3.1110473113614
3.0535067041048
2.9949400168034
2.9354945685779
2.8753184849077
2.8145134545927
2.7537594562037
2.6934277185394
2.6339133996699
2.5752601675594
2.5170781699104
2.4592223064972
2.4018479163894
2.3451022525506
2.2885907364105
2.2331298040447
2.1781379871674
2.1243812784375
2.0720960360788
2.0202600370951
1.9700956864516
1.9210019920493
1.8723136666232
1.8255197575922
1.7803695742924
1.7359404381957
1.6917935526749
1.6498274875333
1.6089301159923
1.5685701024846
1.5302674241869
1.4924180589752
1.4563899705326
1.4208548578411
1.3856400499929
1.3522929488463
1.3193056605038
1.2874528156388
1.2565248048979
1.2258124850818
1.1955188423885
1.1667938435645
1.1385261398698
1.1106285296632
1.0842594470503
1.0581591271894
1.0321410859788
1.0075337838131
0.98304434456382
0.96000671728372
0.93757636949308
0.9155036096055
0.89468771107843
0.87403200794244
0.85460007623224
0.83495235539476
0.81657216634781
0.79822298055313
0.78083014299879
0.76416202143382
0.74758744971976
0.7318613179957
0.71614992457002
0.70113773934257
0.68613819292315
0.67191394645886
0.65780137793845
0.64404966219054
0.63089493540721
0.61766623913833
0.60507460696725
0.59257910420279
0.58031365161091
0.56859587721623
0.55686074865329
0.54570906008348
0.53456874144304
0.52377094231222
0.51329184038863
0.50282437614701
0.49298134564878
0.48306546800529
0.47375731339567
0.46439193647612
0.45554308141103
0.44674359745046
0.43819499253027
0.42998937974159
0.42179883532596
0.41058423791054
0.40691407833688
0.41349626726148
0.51073845832106
1.0001634959569
1.585856650593
1.6235351151336
1.6267742226344
1.6451243619958
1.6663112662365
1.6857861322915
1.7110329832469
1.7416944964436
1.7701279431734
1.7899092914836
1.8029642486001
1.8117378925153
1.8184234936911
1.8230337038451
1.8240670364329
1.8203748178359
1.8140331853915
1.8099305144309
1.8099368173547
1.8139660028384
1.8204201609041
1.827943161071
1.837188482898
1.8500741012981
1.8672655790999
1.8835938951745
1.895863232305
1.9039659115932
1.9094867616841
1.9134119553528
1.9160686829151
1.9169945432375
1.9155233849998
1.9114038018172
1.9052743222831
1.8987367645902
1.8927867291868
1.8874916412873
1.8829421332295
1.8783497814764
1.8736614106593
1.8689843042248
1.8639336154048
1.8582316331038
1.8519030242585
1.8452506836291
1.8387280941845
1.8326621697223
1.8272689104766
1.8226665182712
1.8188487212676
1.8156221598961
1.812864518112
1.8103911102165
1.8078918189552
1.8053975634066
1.8031227568928
1.8007300525935
1.7981746961643
1.7952628062282
1.7918950838482
1.7880859638849
1.7832751698106
1.777696008219
1.7708847915744
1.7630935658351
1.7538874004015
1.7436104226721
1.732055683596
1.7191678409604
1.7054371282681
1.6902854691704
1.6744682147815
1.6569634307362
1.6389131186993
1.6191437501634
1.5993106202113
1.5776186830856
1.5561880223507
1.5325875899171
1.5099131022338
1.4849410285368
1.4613132631039
1.4353921538311
1.4112390162322
1.3852501395948
1.3614434649692
1.335856838771
1.3130816891621
1.2883453812357
1.2662268914886
1.2423950961302
1.2208222149264
1.1979286064706
1.1763406190096
1.1552022517989
1.1348910470155
1.1151307968793
1.0952103054937
1.075663547809
1.0569683080143
1.0394955998483
1.0237190077799
1.0093060416179
0.99703253171583
0.98680946060898
0.97750675454855
0.97017155640966
0.96435247275627
0.95992072263572
0.95803681879551
0.95839944764927
0.96139080320497
0.96823291212739
0.97861773090368
0.99294412802339
1.0117430034135
1.0353074642183
1.0639367698136
1.097022177907
1.1344538470842
1.1750125269795
1.2175206565042
1.2595717536954
1.300620857456
1.3290995683043
1.3526815795467
3.8284085849017
3.8184190537021
3.8066264743277
3.7927050996363
3.7760493973779
3.7558645980991
3.7313342895512
3.7018541902498
3.6672258261951
3.6277280923854
3.5840348193254
3.5370375384745
3.4876613178673
3.4366781203242
3.3846169645634
3.3317435214286
3.278116294836
3.2236665062294
3.168292437475
3.1119017567272
3.054479671913
2.9960667155323
2.9368133810079
2.8768604692095
2.8163388790622
2.7559449916637
2.6960441210944
2.6368679110739
2.5784742315632
2.5205099164686
2.4628407360777
2.4056171058375
2.3491122203795
2.2929310193213
2.2379274373409
2.1833748357354
2.1299600289887
2.0779221086434
2.0262980925935
1.9762941971434
1.9273891800084
1.8789086307307
1.8322733621063
1.7873374356476
1.7430786368818
1.6989759470558
1.6572197219199
1.6163494014421
1.5759934144346
1.5377847092423
1.5000196136721
1.4640069201766
1.4284432901561
1.3931884824121
1.3599263345798
1.3269152311935
1.2952387797053
1.2641734430764
1.2332258005275
1.2029951211208
1.1743549316701
1.1459134001853
1.1182254296464
1.0917705082681
1.0655089342807
1.0393659578718
1.0148386685591
0.99027128561211
0.96724400650507
0.94476900431325
0.92253443366269
0.90173363268358
0.88096139770886
0.86134351171406
0.84158706730568
0.82309120840801
0.80461054098518
0.78720935397202
0.77029264871689
0.75365906330157
0.73785884722734
0.72201335372428
0.70690673249789
0.69180608831117
0.67750922278368
0.66328849118784
0.64947771059839
0.63621281525465
0.62292603699522
0.61019267184839
0.5976684702679
0.58529932460043
0.57351466654782
0.56169545683175
0.55046752456596
0.53924459923976
0.52841456792527
0.51784083004989
0.50728515422648
0.49739076876078
0.4873998044275
0.4780436164393
0.46859761344646
0.45969346294001
0.45082232367033
0.4422231730194
0.43395519610311
0.42570580676513
0.41442129412871
0.41074228400676
0.41728974090221
0.51513153213624
1.0070763704788
1.5940856844984
1.6297430434858
1.6335011878477
1.6518410914892
1.6726023213852
1.6920143087264
1.7172580816633
1.7477226568728
1.7755650196453
1.7946515464634
1.8070016435158
1.8151234912215
1.821202164935
1.8252289345175
1.8257379003227
1.8218330287205
1.8153631832972
1.8111080961065
1.8112684499694
1.8156134078369
1.822687177491
1.8310540195477
1.8410978899729
1.8542047643002
1.8707329976292
1.8863888558583
1.8982271859859
1.9058013611767
1.910676398823
1.9138701248757
1.9157504696508
1.9159910609224
1.9139687790846
1.9094220146309
1.9030071593114
1.896162724575
1.8897971134142
1.8840716760717
1.8791089263686
1.874053585136
1.8689025115681
1.8637227270508
1.8582483620153
1.8523063326727
1.8458898911122
1.8392022048034
1.832582527521
1.8263605031402
1.8207624258414
1.8158946563201
1.8117583047689
1.8081729443713
1.80498651726
1.8020869935015
1.7993038346525
1.7966108473557
1.7941279477392
1.7915796085562
1.7888874917153
1.7858726971633
1.7824226773469
1.7785385863212
1.7737445499231
1.7681765760953
1.7614516707698
1.7537507664122
1.744721723168
1.7346277971466
1.7232985346667
1.7106798035561
1.6972210311116
1.6824337420166
1.6669171625343
1.6498466281558
1.632142274275
1.612900760119
1.5935250653416
1.5726296928088
1.5519020924928
1.529353375871
1.5075599889773
1.4833431153683
1.460249376127
1.4347642323818
1.4109153320116
1.3852652625557
1.3617340994868
1.3364344621907
1.3139164337828
1.2894664938604
1.2675928267317
1.2439648180803
1.2225791206424
1.1998652982354
1.1784317555292
1.1574883347549
1.137172982928
1.1175389229772
1.0976901493306
1.0783313172277
1.0597000447174
1.0423553273612
1.0267585662362
1.0125262154272
1.0003834193272
0.99011376646226
0.98070900062475
0.97340644697694
0.96761614465359
0.96333372801847
0.96169327564558
0.96215834782998
0.96533989048564
0.97206723513565
0.98253428834213
0.99689365941851
1.0155240791677
1.0387636201661
1.0666657783539
1.0992053951782
1.1355941396367
1.175237172892
1.2152268620981
1.255262487094
1.2926702960734
1.3204212895919
1.3441339551602
3.8284152803079
3.81842368988
3.8066414707636
3.7926736995964
3.7758552748764
3.755378657209
3.7304510967136
3.7005343509408
3.6655093024462
3.625710764762
3.5818269443852
3.5347257603753
3.4852740513789
3.4341829326564
3.3819410423282
3.3288006077858
3.2748284865042
3.2199769413801
3.1641676031863
3.1073498169043
3.0495244585752
2.9907788079022
2.9312403648107
2.8710600492491
2.8105718610452
2.7502453672076
2.6904235778814
2.6312039047162
2.5726683232311
2.5145332234509
2.4566831029339
2.3993025581785
2.3426541115331
2.2863160650894
2.2312022684093
2.1765738056939
2.1231567620554
2.0711020914205
2.0194738279286
1.9694939812249
1.920603529746
1.872159191697
1.8255866677682
1.7806929142382
1.7364498157973
1.6923926912503
1.6507145097338
1.6097705446538
1.5695888175876
1.531433773446
1.4936543416666
1.4576033487423
1.4219849849611
1.3869946839959
1.3537716952517
1.3207459306306
1.2890551197191
1.2579245724809
1.226947440582
1.197172594066
1.1684881678603
1.1399969367278
1.1125697735757
1.0860039760823
1.0595839083449
1.0340406725248
1.0094382847875
0.98501597395615
0.96219793331539
0.93960246353638
0.91775185129709
0.89690397344732
0.87619406554966
0.85663302155056
0.8370863594551
0.81869101445543
0.80033621188774
0.78310603203182
0.76607042384611
0.74967382501952
0.73386596696141
0.71804480125583
0.70301609773937
0.68799230851203
0.67376765626143
0.65958714561101
0.64586133684325
0.63260079952767
0.61949227757945
0.60661309554429
0.59428261096717
0.58195274476693
0.57017991522313
0.55843743059411
0.54723089280181
0.53605432253851
0.52533902712216
0.51473447256992
0.50433795399861
0.49442449605887
0.4845094696138
0.47518236835757
0.46577581300095
0.4569088982724
0.44805728775986
0.4395106712747
0.43124802555107
0.42300933532199
0.4117070383241
0.40797155896905
0.41464343107097
0.51277377695205
1.0054988908262
1.5900009577263
1.6259480644504
1.6312184276647
1.6502547194645
1.6710088032152
1.6910361868905
1.7169922182894
1.7477383029898
1.7751753172581
1.7938964558453
1.8061124664888
1.814333355742
1.8206855037788
1.8250522571963
1.8259571229796
1.8225316925606
1.8163181370698
1.8119303565492
1.8119848237171
1.8157862370836
1.822355976254
1.8301839931395
1.8392079981708
1.8507852871312
1.8654650955784
1.8804831116659
1.8924283052604
1.9000831298618
1.9048626398469
1.9077525313898
1.9091816068463
1.9089571968203
1.9066439876912
1.9020887463354
1.8958218778384
1.8889346876335
1.8823432289858
1.8763612435679
1.8709493663294
1.8654191094708
1.8598703821433
1.8543305665448
1.8486204041902
1.8426698905948
1.8364263319144
1.8299977950596
1.8236300297167
1.8175788168106
1.8120401882885
1.8070796077765
1.8027397229519
1.7989421616068
1.7956389386139
1.7927959816621
1.7901980334086
1.7877617444985
1.7855516456316
1.7833101600676
1.7809610120163
1.7783549016536
1.7753129569326
1.7718455391785
1.7674764618733
1.7623147061588
1.7559764009139
1.7486778013361
1.7400600330635
1.7303562542084
1.7193990455437
1.7071344266091
1.6940403950003
1.6796218685362
1.6644012660333
1.6476445356279
1.6301724492346
1.6112376739215
1.5920561218279
1.5715859122119
1.5513360372154
1.5295973517453
1.5085237847818
1.4851231451478
1.4628316693636
1.4378746991557
1.4146043549219
1.3894231070337
1.3663989640877
1.3414965061654
1.3191955143633
1.294806129115
1.2729914081436
1.2493236510854
1.2279767358935
1.2051566442582
1.1836850633311
1.1627525965324
1.1422115916723
1.1225566885135
1.1026467143611
1.0833995038514
1.0648465033058
1.0476333311759
1.0324347619801
1.0184216634293
1.0065496180104
0.99615350046228
0.98680334802874
0.97963179522184
0.9741950232062
0.9705028850683
0.96964375597832
0.97100086827809
0.97530196188667
0.9830078902437
0.99442293029103
1.0098188026078
1.0293293025257
1.0532928808208
1.0812941085239
1.1135907804627
1.148977364498
1.1868728787516
1.2242821730031
1.2616725826604
1.2948872255523
1.3224703183277
1.3470626032435
3.8284127114699
3.8184457815873
3.8066848127114
3.7926205400621
3.7755186293782
3.7545609347239
3.7290110964807
3.698453256368
3.6628959232806
3.6227492158056
3.5787073924012
3.5315795449846
3.4821337594019
3.4309870943168
3.3785712666187
3.3251261851454
3.2707409846786
3.2154158516395
3.1591132030877
3.1018331829714
3.0436122286274
2.9845766323545
2.9248575181793
2.8646174193986
2.8044142356383
2.7444037272747
2.6847980628335
2.6256307654461
2.5670221779575
2.5087589367205
2.4507863377622
2.3933385397895
2.3366536764518
2.2802858730178
2.2252287739233
2.1707693617333
2.1175190216032
2.0655872655227
2.0140800844115
1.9642360917221
1.9154981124543
1.86722248345
1.8208497515163
1.7761100771538
1.7319763008179
1.6881007668165
1.6465830159364
1.6056039923615
1.5657709081994
1.5277057196507
1.4899263745023
1.4539057823477
1.4182326619041
1.3836506088138
1.3504477058768
1.3173984267521
1.2857155857922
1.2545337138638
1.2236197984813
1.1943152187434
1.165536674901
1.1370891680134
1.1098562381712
1.0832618155318
1.0567500892572
1.0317297449219
1.0069815721159
0.98292689911137
0.96020048509487
0.93756253864707
0.91612446322846
0.8950329891484
0.87451447590951
0.85497628561516
0.83555831135615
0.81722891487182
0.79899283962636
0.78183387966949
0.76473893439671
0.74846641429561
0.73261029990246
0.71680318567068
0.70180509378797
0.68681909511022
0.67260936121404
0.65845387842749
0.64477422259611
0.63143406070944
0.61850982324966
0.60552475449842
0.59324189796997
0.58096818403852
0.56916663147137
0.55747027988999
0.54626849825192
0.53508784647756
0.52444555071402
0.51380350460909
0.50357277563043
0.49358272629753
0.48371259082267
0.4743736015437
0.46499674574233
0.45612784567234
0.44726950271218
0.43873675877095
0.43046613107871
0.42221812307633
0.41089672069208
0.40713270700085
0.41393951724455
0.51280828896169
1.0070426816965
1.5875474700806
1.6224228128102
1.6295918350694
1.6493363804947
1.6701378118639
1.6911924452173
1.7180457207565
1.7487535691219
1.7757021478917
1.7940369771207
1.8060836038256
1.8144039750791
1.8208543326602
1.825180386264
1.8262242775184
1.8233438907981
1.8175549579489
1.8131057682208
1.8129579639047
1.8161570679399
1.8219632176475
1.8291450528989
1.837057468856
1.8464676600454
1.8580140853931
1.8715987089956
1.8834443801129
1.8908347332648
1.8950952085868
1.8972313477377
1.8977339642925
1.8965761037991
1.8935955913066
1.8887773796751
1.8824565889074
1.8754079664641
1.8684448609747
1.8619672185466
1.8558347006382
1.8496219210939
1.84354914839
1.8374820335179
1.83138702761
1.8252496741449
1.8189969534996
1.8126701058471
1.80642220943
1.8004267524192
1.7948678240415
1.789822719824
1.7853880457712
1.7815714631635
1.778360790086
1.7757192300307
1.7733648804191
1.771243574838
1.769389086279
1.7675394978447
1.7655990365529
1.76348936301
1.7609807959476
1.7580632654576
1.7542974188181
1.749738505537
1.7440264216101
1.7373866589585
1.7294929322007
1.7204789556392
1.7102097238147
1.6986313043672
1.6862377721313
1.6725361572169
1.6579230409072
1.6417974020049
1.6248364629744
1.6064742754698
1.5876809820194
1.5676623207098
1.5477609281481
1.5266560470007
1.506060094142
1.4836984931139
1.4622936148029
1.4382956168169
1.4159315962365
1.3916898233817
1.3695727873124
1.3454080278014
1.3237841524669
1.3000025012635
1.2787858130704
1.2556225910494
1.2347939425046
1.2123011525064
1.1913092147491
1.1708210871269
1.1501901743953
1.1306504366676
1.1107253683498
1.091667969447
1.0733934520484
1.0565437983333
1.0420111293151
1.0281892375702
1.0167849684469
1.0060334327116
0.99715913370433
0.99028038172363
0.98559203622043
0.98296775591567
0.98299741553575
0.98573817635242
0.99161905925521
1.0008376803806
1.0136011031529
1.030147498655
1.050535141159
1.0749975101247
1.1028637734047
1.1342075530191
1.1677251706899
1.2020480908239
1.2353712884803
1.2675265136192
1.2975570433669
1.3254036951553
1.3513796293704
3.8284057930839
3.8185094982961
3.8067808690229
3.7925314236848
3.7749896432971
3.7533392134908
3.7269614555134
3.6956068253376
3.6594291194903
3.6189008647043
3.5746995880636
3.5275454025836
3.4781012988932
3.4268844623348
3.3742630470859
3.3204584142649
3.2655840349571
3.2096950865338
3.1528146987618
3.0950110179349
3.0363679398597
2.9770413160139
2.9171389108182
2.8571257285185
2.7972234713429
2.7375971932512
2.6782355424355
2.6191396876085
2.5604797058794
2.5021000868623
2.4440160616999
2.3865742798604
2.3298962135354
2.2735322454349
2.2185913567377
2.1643736117574
2.1113208696042
2.0595639621403
2.008228808033
1.9585485582224
1.9099905295815
1.8619119638652
1.815754944215
1.7711815763221
1.727155862458
1.6835344947018
1.6421782511533
1.6012347199217
1.561729236534
1.5237022795839
1.4859469373649
1.4500065157941
1.4143748080673
1.3801620740757
1.3468934149483
1.3137976554852
1.2821680949124
1.2508404880914
1.2202913789312
1.1911748871393
1.162351657344
1.134118909526
1.1069433560907
1.0803400108626
1.0538799575241
1.0291068684815
1.0045196373054
0.98069949096071
0.95802716800032
0.93539400262031
0.91416412219781
0.89307389162324
0.87272123472775
0.85315768354518
0.83391893106829
0.81563752952839
0.79749768324586
0.78035834745652
0.76326397839575
0.74709445885212
0.73114720345202
0.7154113032676
0.70044423750616
0.68549675887886
0.67128028895272
0.65711110271131
0.64354433197966
0.63006462521182
0.61727309112241
0.60430264115142
0.59202283162454
0.57975670260683
0.56800269000234
0.55630467360403
0.54513259078192
0.53394116216342
0.52335252666947
0.51266261542387
0.50255249610601
0.49249764668342
0.48269091966997
0.47331209458341
0.46395148661016
0.45505109948454
0.44618465463828
0.43758751660248
0.4293027474973
0.42099674780457
0.4095155596791
0.40562103329032
0.41261928472469
0.51276401834047
1.0081417255256
1.5852262019109
1.6194150891058
1.6281618098413
1.6484360323308
1.6691480013783
1.690487384742
1.719391896609
1.751018544562
1.7769094397633
1.794212787875
1.8055839410949
1.8137215531421
1.8205878241725
1.825288126388
1.8266108538074
1.8241680919509
1.8191096028549
1.815555118878
1.8150465947403
1.8175665053009
1.8223671511757
1.8285575774688
1.8353871087061
1.8421294293174
1.8496155955871
1.85889792977
1.8685825020632
1.8754317516218
1.878994052304
1.8799795046059
1.8790186818134
1.8764290567923
1.8722305081739
1.8665096926649
1.8596304394261
1.8521152873849
1.8445799249596
1.8373357837258
1.8302391014908
1.8232443593531
1.8164987311849
1.8098272518126
1.8032979231212
1.7969057376896
1.790587774608
1.784349707681
1.7782862334149
1.7725032667384
1.7671736109003
1.7623771981444
1.7582450216044
1.754796638059
1.7519616583006
1.7497361591132
1.7478064430377
1.7461817005208
1.7448903718985
1.7436334209292
1.7422948995719
1.740894838134
1.7391708732804
1.737056100522
1.7341563496023
1.7304744721217
1.7256898725038
1.7200276125809
1.7132092899509
1.7052228649111
1.6959854844855
1.6854676127808
1.6741282980508
1.6615146136132
1.6478486498308
1.6326457249307
1.6164555441765
1.5989256964144
1.5808893219906
1.5616326841817
1.5422591073449
1.521738694053
1.5016287853027
1.4799286363191
1.4589430881953
1.4357854770481
1.4141854203996
1.3908046135094
1.3695584604901
1.3462303269324
1.3255099871047
1.3026327952301
1.2822724000013
1.2599944280608
1.2399299577432
1.2181812022245
1.1979217503942
1.1781918824192
1.1578061225849
1.1387938591145
1.1192349602663
1.1009254459332
1.0835465740794
1.0676315969062
1.0541043466518
1.0408020378451
1.030097917574
1.0194559733852
1.0116107250794
1.0056260997573
1.0020510842714
1.001070145882
1.002598446163
1.0071163317049
1.0148454296154
1.0259298246487
1.0404784005886
1.0585371143282
1.0801743927018
1.1050018572396
1.1326751164247
1.1625788327555
1.1927767657439
1.2228634557858
1.2511713883079
1.2786343808708
1.3062507281776
1.3338642300652
1.3620309482559
3.8284106814416
3.8186661347625
3.8069508623304
3.7923763494764
3.7741807209563
3.7516184157418
3.7242424351565
3.6919921905999
3.6551314719969
3.6141813756459
3.5697588211521
3.5224991987629
3.4729490150065
3.421537731923
3.368571286768
3.3142580188819
3.2587386295978
3.2021276900184
3.1445298524971
3.0860854545625
3.0269452357027
2.9672276838293
2.9073699801774
2.847574943647
2.788011180114
2.7286074354252
2.6693490575292
2.6102334985531
2.5514420930794
2.4929093314224
2.434677900519
2.377273318296
2.3206347406455
2.2643051124624
2.2094906984978
2.1555892661332
2.1026681748718
2.0511182552594
2.0000083399037
1.9504782387588
1.9021598772559
1.8543328065922
1.8084448900354
1.764052151384
1.7201197005268
1.6769718198426
1.6357777957103
1.5948949594064
1.5558354983141
1.5177052896023
1.4800932126106
1.4443588870268
1.4088866367699
1.3749225492633
1.3416104048407
1.3084843001262
1.2769378488552
1.2456073484246
1.2155487347808
1.1864670712665
1.1576169989212
1.1296983155123
1.10251054578
1.0760146413529
1.0499217886913
1.0253045471104
1.0007938267426
0.97752794951803
0.95458611537241
0.93226330636247
0.91119797301646
0.89016072972292
0.87023188171673
0.85039135609107
0.83160762609949
0.81311791025393
0.79532326071901
0.77821697708056
0.7611705311942
0.74505287713964
0.72896547372757
0.71357950142329
0.69839589321321
0.68355970926435
0.66937463396538
0.65526873884669
0.64175605873091
0.62827465534383
0.61540663985376
0.60256622772667
0.59028857208241
0.57804454989671
0.56635029761387
0.55469424755328
0.54353024652813
0.53237231989508
0.52184042978007
0.51115081701732
0.50109383628092
0.49104685503701
0.48147304294825
0.47190364541335
0.46273149310627
0.45366522531349
0.44483562369019
0.43605525130669
0.42762135291316
0.41915117756574
0.40765300359209
0.40384563375057
0.41121672979987
0.51269019965896
1.0075862870811
1.58233519665
1.6167987345088
1.6276129210308
1.648639235239
1.668566489284
1.691224581392
1.7214713481151
1.7531383509404
1.7774294849508
1.7940708424446
1.8051647329244
1.8132662983515
1.8199807167737
1.8251381796779
1.827276781543
1.8259780298856
1.8219305253514
1.8187395600419
1.8180336186852
1.820078356225
1.8242723711129
1.8296289133557
1.8355772265784
1.8409961676765
1.8450336034826
1.8497609952432
1.8549032936458
1.859240753345
1.8611388526582
1.8606382879464
1.8582245694592
1.8542259581879
1.8488075183276
1.8421440655522
1.8345979691151
1.8265520864708
1.8183802406776
1.8102287074081
1.8020953604089
1.7942436317538
1.7867023665904
1.7794022202273
1.7723770515034
1.7655993682422
1.7590241119451
1.752652461839
1.7465950765526
1.7409190862088
1.7357857714412
1.731230572559
1.7273868298943
1.7242967913942
1.721859285182
1.7201724879414
1.7188105809757
1.7178361156298
1.7173469850463
1.7169316248111
1.7164464187446
1.7159974572032
1.7153207487823
1.7142323578459
1.7123770171182
1.7097105482014
1.705953048685
1.70130057617
1.6955384334583
1.6884896116954
1.6801537216272
1.6705607312449
1.6601129497919
1.6484130978981
1.6355101792284
1.6210628602914
1.6054941373002
1.5887179970735
1.5713429373215
1.5528753020048
1.5340169612505
1.5143078411365
1.4948756070294
1.4739490643686
1.4532487478749
1.4307358326879
1.4098062968301
1.3872509797428
1.3666991379857
1.3442447247801
1.3242998642135
1.3023376643664
1.282703021417
1.2612377387022
1.2418425897074
1.2209636507748
1.2011111185381
1.1822297929007
1.1622867029709
1.1440667000138
1.1252340080615
1.1081681945534
1.0922876371549
1.0777138443532
1.065482698938
1.0529528079401
1.0432972447679
1.0334533835202
1.0270979394809
1.0227056516095
1.0208341143114
1.021572647901
1.0251892917733
1.031745332746
1.041462977796
1.0545218016941
1.0708905597206
1.0905741728914
1.1134081241624
1.1384346765181
1.165048239767
1.1927550701884
1.2189439950926
1.2442951781437
1.2685970490481
1.2928194871133
1.3181167801007
1.343877436757
1.3739122296222
3.8284277941863
3.819003904237
3.8071345434973
3.7920316799295
3.772966285123
3.749307177051
3.7208281572145
3.6876107386462
3.6500504855225
3.6086063867061
3.5638932601178
3.5163927011461
3.4666021244312
3.4148344799391
3.3613823178969
3.3064235697991
3.2501538603386
3.1927315098062
3.1343674872235
3.0752644304038
3.0155891885633
2.9557443014627
2.8959789339999
2.8364455054152
2.7770201557338
2.7176436342026
2.6583808914522
2.5991807871766
2.5402251726749
2.4816089608954
2.4233067604124
2.3659998847806
2.3095025343484
2.2533069376267
2.1986213043363
2.1451354809332
2.0923388008127
2.0410370870677
1.9902268825603
1.9407946751729
1.8928667627025
1.8453439293742
1.7997493141501
1.7555366561077
1.71167601019
1.6693626423639
1.6280919473109
1.5872762606729
1.5486439858059
1.5105883079708
1.473305347219
1.4377462178148
1.4023982798419
1.3685202725784
1.3352609540307
1.3021726850936
1.2708211574396
1.2396377604623
1.2099579534949
1.1809022986022
1.1520750193905
1.1245059706494
1.0972251185831
1.0712057786248
1.0453260126973
1.0208282332361
0.99647035295206
0.9734946845936
0.95065726243264
0.92868651882997
0.90769825957171
0.88677259169709
0.86696268467086
0.84729524204117
0.82871849005149
0.81021091251728
0.79277579230426
0.77542876706021
0.75861139847981
0.74246258442075
0.72636237410279
0.71103485220695
0.69592090682254
0.6811142140452
0.66698953914749
0.65292424166883
0.63945445851422
0.62605837346332
0.61307248005791
0.60044675838859
0.58802045896135
0.57594892620751
0.5642275306825
0.55262791026032
0.54146904887445
0.53038129540315
0.51981539685168
0.50916987003344
0.49909361317758
0.48900565257634
0.47943533350329
0.46968708349478
0.46056282608926
0.45131301215277
0.44254964553926
0.43363250376807
0.42540366495748
0.41716585123126
0.40607760980261
0.40243472516829
0.41000641094659
0.51290103784912
1.0036440596813
1.5753740649744
1.6135873804578
1.6273753871696
1.6490209173293
1.6701945570436
1.6929955524329
1.7232679599751
1.7548219508113
1.7779763061709
1.7933509549496
1.8041366609536
1.8126982881393
1.8200714502833
1.8257269244731
1.8286029221542
1.8285223832976
1.825854923375
1.8230836186555
1.82238156936
1.8240164970693
1.8277005523202
1.8326656352127
1.8377390992927
1.842759080159
1.8459947430957
1.8478498268887
1.8489781771272
1.8498927118019
1.8498661140481
1.8479774967537
1.844273190639
1.839192333732
1.8330250464896
1.8258635883027
1.8179423760055
1.8095549976783
1.8009023692145
1.792042116367
1.7831695922845
1.7745795014589
1.7662786945892
1.7583123752955
1.7507173767673
1.7434445226027
1.7364665867103
1.7297606414065
1.723460573898
1.7175771603135
1.7123203664666
1.7076963706917
1.7038789713666
1.7009533183483
1.6987334656025
1.6974575364051
1.6965134138794
1.696057195852
1.6963489056104
1.6967173899782
1.6970693784723
1.697546765125
1.6978627438531
1.6977131338045
1.6967393220816
1.6948254936486
1.6917946213689
1.6877976863426
1.6826391119223
1.6760426492606
1.6680553111229
1.6588576666169
1.6488289521329
1.6375664755924
1.6249614478209
1.6107637838407
1.5952986337617
1.5788797229632
1.5618182599403
1.5437373839127
1.5248846333102
1.5058758508775
1.4868349928963
1.4667028059735
1.4460292452671
1.4239256349992
1.4037194519986
1.3818407693702
1.3618986981998
1.340297169136
1.3210223586324
1.299910191465
1.2809539235079
1.2601571165828
1.2410432698901
1.2215636686595
1.2013472563088
1.1831940544233
1.1636417537113
1.1463108277604
1.1284376935517
1.1127530281902
1.0986073079219
1.0854060132645
1.0743275499694
1.0627023447226
1.0544180564417
1.0461846812253
1.0415349282859
1.0387859475251
1.0393893160574
1.0417815967524
1.0476290799468
1.0563439849808
1.0683175829764
1.0834615377571
1.1016500270958
1.122866814341
1.1465710785448
1.1708264558033
1.1956643281747
1.2203521776567
1.2420427350822
1.2634156414154
1.2850694861472
1.3071961757841
1.329901997356
1.3527786510169
1.3823561568866
3.8286012446046
3.8194873773473
3.8071833601136
3.7913598652661
3.7711951668477
3.7463197892022
3.7166761711769
3.6824891499156
3.644158637394
3.6021698412214
3.5570339512099
3.5091745619266
3.4589738919924
3.4067058337135
3.352610275889
3.2969198808145
3.2398005726668
3.1815555338304
3.1224021299493
3.0626779678118
3.0026532437107
2.9427719938251
2.8831629977632
2.8236399109735
2.7641553404208
2.7046490726509
2.6452438016642
2.5859075500866
2.5268012198964
2.4682660911025
2.4100419643094
2.352915912535
2.2966249285746
2.2406464123842
2.1861103614817
2.1330516529787
2.0804057297
2.0294265365875
1.978963452922
1.9296005400326
1.8821344802142
1.8349948269999
1.7896603601042
1.7457101276245
1.7021070950545
1.6603031510995
1.619020184733
1.5786558778837
1.5402954529891
1.502419478175
1.4655096468669
1.4301072052896
1.3948726425481
1.3611394320895
1.3279943820513
1.2950860023406
1.2639505668149
1.233020911098
1.2036152629442
1.1745393794339
1.1459154461827
1.1186362429222
1.0915022114869
1.0657218872041
1.0400625149571
1.0157826261539
0.99169027580499
0.96897002515876
0.94627660761211
0.92487565372455
0.90370347558757
0.88306864871194
0.86340806864286
0.84393776634334
0.82550930415612
0.80715006621352
0.78988166267118
0.77241993478846
0.75596016315366
0.73960200067811
0.72366106490711
0.70836098040309
0.69342322536522
0.67861049253924
0.66454238793794
0.65052272909228
0.63709992822566
0.62380972548059
0.61075190525871
0.59828963663865
0.58577671053538
0.57392321141287
0.56210647677662
0.55058492009814
0.53953011369656
0.52851938745002
0.5179396222652
0.50743007577493
0.49732587831542
0.48711744225772
0.47743203039324
0.46758811313234
0.45834253416418
0.44895538731585
0.44032603661804
0.43158771417921
0.42358855984545
0.41566183603203
0.40507550202516
0.4015945959871
0.40848183646849
0.50992177813469
0.99456548291324
1.5657219122928
1.6081943846434
1.6273304933608
1.6499991324686
1.6710572482879
1.6950231503102
1.7243235663598
1.75406768315
1.776824367868
1.792687614109
1.80367189203