/*--------------------------------*- C++ -*----------------------------------*\
| =========                 |                                                 |
| \\      /  F ield         | OpenFOAM: The Open Source CFD Toolbox           |
|  \\    /   O peration     | Version:  2312                                  |
|   \\  /    A nd           | Website:  www.openfoam.com                      |
|    \\/     M anipulation  |                                                 |
\*---------------------------------------------------------------------------*/
FoamFile
{
    version     2.0;
    format      ascii;
    arch        "LSB;label=32;scalar=64";
    class       volScalarField;
    location    "0.0006";
    object      T;
}
// * * * * * * * * * * * * * * * * * * * * * * * * * * * * * * * * * * * * * //

dimensions      [0 0 0 1 0 0 0];

internalField   nonuniform List<scalar> 
28800
(
246.99095946069
246.73000207342
246.42000340236
246.05088533688
245.60709282813
245.06915706777
244.41745991047
243.63721642498
242.72253707554
241.67801004483
240.51733609719
239.25985224092
237.92634015553
236.53466442972
235.09704173664
233.61977307004
232.10432139137
230.54894979186
228.95036319042
227.30546580303
225.6123239795
223.87106982005
222.08351970173
220.25256449958
218.38579775803
216.49216660971
214.5853506639
212.67828196119
210.77817737089
208.86496215588
206.93387212103
204.99174652189
203.04182821054
201.07039460261
199.11661911404
197.14518150911
195.18860248633
193.26201316356
191.31836316297
189.41197216149
187.51990036986
185.6131624035
183.74006010792
181.92414322139
180.09896059737
178.2578514223
176.48778946454
174.72771288949
172.96953080393
171.27056414604
169.57054075906
167.93236420627
166.2859820325
164.63252717279
163.04204912122
161.43844806153
159.89067794791
158.34115680824
156.78566192299
155.23026585235
153.73460502167
152.23023559747
150.74048124543
149.30534474249
147.86062550471
146.40725324799
144.99858081002
143.57886234315
142.23507791994
140.89130599566
139.56725921586
138.28539803043
137.01564293457
135.780777948
134.53943026805
133.34406620246
132.13900882513
130.98761737891
129.85755187557
128.73221397591
127.64003017884
126.54511395384
125.47498894045
124.40053913055
123.36229584493
122.31765706867
121.29971645602
120.29778533161
119.29187240425
118.31290636082
117.32943766689
116.35760800841
115.40866659561
114.45624287125
113.53134545621
112.59930514196
111.69389859205
110.78772798541
109.88517339767
109.01160524456
108.13585258575
107.29076986339
106.44232210344
105.62405652078
104.79918110822
104.00471372796
103.20438149437
102.31609657026
101.36880876855
102.45267007131
112.22214905886
161.31405969869
260.28602060879
296.17920588839
299.33690272318
300.45019554996
300.68695284083
300.254134745
298.85966542273
296.16422244547
292.31924050575
288.67798852666
286.44362175785
285.31217328629
284.91520081005
284.92539013096
285.32749919313
286.37954532777
288.19125928631
290.48828365654
292.5159985422
293.79151616305
294.42881233601
294.62380052869
294.50345689493
293.90823517126
292.54055707046
290.28001532946
287.74908264627
285.72605668031
284.2082021508
282.98870529075
281.94137634739
280.98473371719
280.05882253605
279.09149980598
278.00913308209
276.82984820484
275.66736778126
274.58435569517
273.57594272765
272.62719311831
271.71628803729
270.83798849778
269.97685856064
269.11608263023
268.24060607909
267.34172812079
266.43689604235
265.55275467358
264.70774548727
263.91577156016
263.18637697548
262.52386604066
261.92463742087
261.37640792424
260.86365693869
260.36666424943
259.84824990218
259.28738163285
258.68354351372
258.04293061206
257.37624056078
256.68938665056
255.98402995625
255.25807290262
254.50480345635
253.71643925897
252.88501422162
252.00202759903
251.05915396819
250.04997807295
248.9710081705
247.82063102551
246.59980866046
245.30629878109
243.9434738369
242.50977151574
241.01946718531
239.47903167299
237.92074100594
236.34042457119
234.77932191589
233.20685762715
231.63272440593
230.02974245292
228.43052149148
226.81505706235
225.23651298512
223.66683608189
222.07725948171
220.51920634069
218.90387641068
217.35490873334
215.75606228386
214.23943629204
212.67159565762
211.16606373298
209.68767420955
208.24277104663
206.82386838309
205.3740369096
203.92925618458
202.55136272087
201.24457637263
200.06944203958
198.99533807223
198.11121040861
197.33474987967
196.7217211177
196.15355148342
195.82552180943
195.52335706315
195.56979470104
195.76650863216
196.18287363781
196.8528255504
197.84379800908
199.1436173924
200.78314380038
202.78484480208
205.13887249783
207.81131612548
210.68882355492
213.72486296791
216.84212706666
219.80686901267
222.8262260695
224.78608684723
226.23155868085
246.99099007431
246.73003131615
246.41984470852
246.04986830844
245.604178763
245.06338793484
244.4085146462
243.62567438665
242.70976008759
241.66567923307
240.50687196276
239.25199189532
237.9208285583
236.53054512956
235.09334196604
233.61572110626
232.0993246739
230.54261506449
228.94257752809
227.29646876574
225.60261510943
223.86143686435
222.07470755094
220.24568308098
218.3821850715
216.4929050146
214.59228166206
212.68853421595
210.78824823029
208.87413441524
206.94234193535
204.99817101361
203.05130354102
201.08378360354
199.1366353497
197.17128571044
195.2165054057
193.28898180193
191.34424749619
189.4356863488
187.54410431645
185.63774394812
183.765454609
181.95083272708
180.12548714135
178.28373265121
176.51564121308
174.75198638718
172.99052510953
171.29288352817
169.59423150126
167.95265733464
166.30178313669
164.64780048018
163.05864128386
161.45775267403
159.91024946496
158.35377516803
156.7877063731
155.24316323048
153.74683256891
152.23991542025
150.76324429672
149.31887259107
147.86642388746
146.40850150713
145.00585189291
143.59083586644
142.24914249944
140.90340099587
139.5749349577
138.29811459748
137.0219792507
135.78223585557
134.53691398844
133.33904033315
132.13232246677
130.98540157099
129.84392962971
128.72384158387
127.63099539268
126.53444598578
125.46353735958
124.38898167736
123.35095580865
122.30650294849
121.28871153619
120.28628714925
119.28020642678
118.29952882431
117.31568460694
116.3430721557
115.39495957127
114.44188871561
113.5171106909
112.58539533101
111.68023247085
110.7735707394
109.87104779929
108.99796128994
108.12301700399
107.27787159602
106.42888288844
105.61002512725
104.7843873953
103.9896053204
103.18871105775
102.30038214757
101.3526441675
102.43034829126
112.16470888411
161.1034133531
259.91772619753
296.04074326949
299.28047513965
300.43942700936
300.68295957911
300.25106810449
298.82833317509
296.0807316833
292.20678639099
288.59171301335
286.38948191169
285.28416120646
284.90164279638
284.92140097939
285.33652789318
286.39865239895
288.2054384044
290.49495361239
292.53817161701
293.85612020671
294.51596936781
294.71911564178
294.6096790414
294.05192260024
292.75385237318
290.59277758186
288.1158015167
286.0815564896
284.55572204808
283.34013127627
282.30256736567
281.35896408604
280.44914801034
279.50615439221
278.45678661425
277.31110458988
276.17473272819
275.1079097277
274.10779573554
273.16216431342
272.25202575981
271.36841536642
270.49701194766
269.62642983818
268.74549039222
267.84817191764
266.94804462549
266.06613301882
265.22004187221
264.42576068346
263.69304630028
263.02436590931
262.41834996207
261.86739425143
261.34590094292
260.82285055945
260.27710728533
259.69556255822
259.07594054016
258.42335788752
257.74555494072
257.04715310074
256.32858986433
255.58717755964
254.81581901713
254.00732756269
253.15373487516
252.24766569125
251.28066713845
250.24686370561
249.14285931894
247.96703560193
246.72066008859
245.4005976731
244.00975566573
242.54514913106
241.01676053151
239.42302519911
237.79662071848
236.13541417569
234.48218542742
232.80990485323
231.17789652489
229.52658264156
227.9139160397
226.28545224665
224.70466448073
223.14110168199
221.55529881709
219.99787143607
218.37994136291
216.82845209689
215.22751535817
213.71181261273
212.14489493232
210.64416617312
209.17174420035
207.72089443065
206.3060653888
204.85891882243
203.42973598482
202.05953106297
200.7692657642
199.61740820287
198.55913318823
197.68876196343
196.90857164708
196.28604904376
195.73480473662
195.39601147921
195.13748802981
195.19584796882
195.40529473178
195.8198948102
196.4511634438
197.44311085787
198.7447588733
200.36523278334
202.32815291781
204.61560720141
207.22442068382
210.05014752126
213.01497728029
216.04364238272
218.88156828999
221.80551621369
223.70534642405
225.24871522665
246.99106178215
246.73020150683
246.41960758477
246.04756959601
245.59726258226
245.04917805768
244.38519478684
243.59305323222
242.66939304004
241.62029507162
240.45945303731
239.20475346366
237.87459688964
236.48468566833
235.04621539837
233.56532437178
232.04381545614
230.48069210506
228.87365642814
227.2208578445
225.52129489175
223.7760527023
221.98686279963
220.15897352702
218.3000375149
216.41639170496
214.52276245709
212.62230056367
210.72042973889
208.80390061636
206.86982385149
204.92372271388
202.97506537795
201.00545676581
199.05851400028
197.09330850527
195.14187318012
193.2165241453
191.27400654259
189.36761955774
187.47763223297
185.57279079991
183.70358021434
181.8897948524
180.06513851515
178.22433610419
176.45753124962
174.68953672183
172.93405660415
171.23584795774
169.53524367405
167.88883598255
166.23363006288
164.58916908351
162.99755737474
161.39415430051
159.84174833656
158.28155102336
156.71404499864
155.18356544663
153.68198391279
152.16935946575
150.70299862486
149.2481926295
147.78534543489
146.35700271445
144.94791698288
143.53623187776
142.19336991245
140.84309454474
139.52695275695
138.24365385297
136.96386169479
135.72619203881
134.48438074916
133.28733996969
132.0841064363
130.93654524612
129.78157933173
128.67172808123
127.57470144281
126.47449511702
125.40263407737
124.3293177951
123.29066486424
122.24614965926
121.22544911295
120.22379287662
119.21940378051
118.22800058476
117.25557769501
116.28057157563
115.33074255175
114.37779880566
113.45109433253
112.52101719441
111.61543875903
110.70777612806
109.81360596245
108.93582364178
108.06180785525
107.21503491509
106.3645050775
105.54432082657
104.71785026985
103.92197507236
103.11852653707
102.22642128573
101.27286285096
102.3630751028
112.19889455633
161.5587349563
260.73483949077
296.29785842402
299.4723943566
300.59149005375
300.78048951875
300.30474615484
298.77592987122
295.89071977077
291.95145765688
288.4019206126
286.27166518651
285.2220671953
284.86961190879
284.90687335607
285.34431198465
286.42047689631
288.2175337932
290.49109398995
292.54723052359
293.93073763114
294.68932719609
294.94126626782
294.86864203222
294.40964864125
293.28293456272
291.35032352756
289.00338177832
286.95469851756
285.40557185418
284.18408555427
283.16223716092
282.25168858628
281.38141910292
280.490763474
279.51517835088
278.44730358427
277.36862763209
276.33892695798
275.36064141726
274.42452266032
273.51802040373
272.62760808399
271.74310661128
270.85908028145
269.97035147715
269.07469819102
268.18051601269
267.30167043803
266.45353500337
265.65527145526
264.92443296939
264.25839133045
263.64559901427
263.06630031477
262.49645464448
261.91741740909
261.31938336249
260.69257106084
260.0352220138
259.34987302237
258.64148003418
257.91207053954
257.15884309258
256.37767709528
255.56009257667
254.70024046193
253.79010685211
252.82490602677
251.79574316901
250.69826970062
249.52979310138
248.28903679728
246.97910570741
245.59436267188
244.13929128512
242.61066050761
241.02338038764
239.37287360284
237.67924174437
235.92527546646
234.16155106416
232.35939327139
230.60544423247
228.81732562602
227.10930604646
225.37951239632
223.71433602662
222.08133232423
220.42497686221
218.83678640273
217.19967232336
215.64424979619
214.04110196979
212.52377414388
210.95546389207
209.46270658061
207.99880214929
206.53396583739
205.11960693249
203.6699663497
202.26465412933
200.91206588479
199.65319414204
198.5480226232
197.52362585594
196.67794006842
195.91564370292
195.27912491007
194.78733530369
194.42791897376
194.26353022184
194.34983489907
194.6024940536
195.07066207399
195.74773897539
196.75309868198
198.065486131
199.67017226889
201.60154253569
203.79733010674
206.27401026118
208.92162550395
211.68605815576
214.49484730163
217.06348295996
219.68994005224
221.55172867694
223.11678792438
246.9912148672
246.73075189575
246.41942586502
246.04365504232
245.58542483766
245.02535079079
244.34686833221
243.54014590366
242.60409938483
241.54611618878
240.37989687251
239.12214438957
237.78936775202
236.39540061311
234.95017169804
233.45939224387
231.92522774192
230.347573454
228.72522053954
227.05753193291
225.34469842866
223.58855157124
221.79209047437
219.96215066713
218.10619587855
216.2295185179
214.34062944013
212.43992097158
210.53319443255
208.60971725989
206.66875897268
204.71781579037
202.76561287323
200.79236829403
198.84428755828
196.88262252716
194.93435041984
193.01101340732
191.07035753736
189.16673126486
187.28051623224
185.37911484369
183.51705484458
181.7069030174
179.88558823306
178.04993551984
176.28770975758
174.51736478781
172.77510172257
171.08143623342
169.37975774226
167.73117035947
166.07173333501
164.44545822767
162.8525298082
161.2485846041
159.6906060926
158.12559432681
156.55497288635
155.04874181401
153.54304792658
152.02820929997
150.57204597717
149.11234772615
147.64682999419
146.23763134924
144.82072239497
143.43191503312
142.09167074621
140.74265455841
139.45143651738
138.15346816731
136.88545486585
135.64792041345
134.41172607136
133.21801184302
132.02479523129
130.87969631007
129.72626276397
128.62315899023
127.52024622077
126.41728124025
125.34742383596
124.27413229821
123.23602109077
122.19495328755
121.16736279879
120.16771639298
119.17147153451
118.17123371499
117.20027453318
116.22511264678
115.27632535047
114.32417060376
113.39595752149
112.46666116057
111.55955907114
110.64958233515
109.76616967609
108.88213940746
108.01020944191
107.1641054989
106.31523670213
105.49423194659
104.66748165338
103.86976672171
103.06332650561
102.16801425478
101.21213733937
102.31538616873
112.25572769554
162.02602063564
261.61885604652
296.65355395999
299.80515754785
300.89355471917
300.99363888534
300.40086539668
298.69519810805
295.58898122648
291.55822458924
288.1342484344
286.11357620707
285.13812693514
284.8234898157
284.88310989703
285.34558108747
286.42838766899
288.2004258392
290.43982109368
292.50481107929
293.96012027458
294.85543326243
295.25243090556
295.29913218148
295.03339345896
294.23780822683
292.73323372788
290.62259435774
288.54952895618
286.99496724084
285.78891043767
284.80852142543
283.95364520882
283.14786515465
282.3382114595
281.47400123212
280.52998316481
279.54800114005
278.58342074548
277.65002515079
276.7424990178
275.85542251736
274.97784800201
274.09957247417
273.21946040115
272.33660242868
271.45286150719
270.57399833269
269.70925746098
268.87096072834
268.07189766072
267.3195364872
266.61627468871
265.94470101887
265.28389082713
264.62768523181
263.96597152579
263.28880421744
262.58967978682
261.86743950047
261.12188713791
260.35441302054
259.56398373987
258.74367841807
257.88743163865
256.98469355893
256.0313463232
255.01894865029
253.94654855437
252.80507475509
251.59307030729
250.30962319404
248.95456911773
247.53430934736
246.03894765496
244.47728616258
242.84567396741
241.16728590359
239.43905635369
237.68023685204
235.86080896167
234.02919632127
232.13892514902
230.25903406403
228.3163643796
226.4739632983
224.60168954215
222.8071474912
221.05062279661
219.2831843527
217.60412270689
215.88179181418
214.23991359318
212.55271808273
210.94682248666
209.29378023401
207.71736570507
206.19285041032
204.65153007983
203.22088798889
201.75518540976
200.37799976033
199.05011185883
197.82967824476
196.77643662568
195.80107715778
194.96487573164
194.25171908881
193.58511511134
193.19904792323
192.81537024703
192.78183569991
192.89855704897
193.2070220081
193.71645013857
194.4758928446
195.52972454734
196.85908680085
198.4573799206
200.32486781873
202.4087000769
204.68366521803
207.06678682952
209.45989433328
211.85531087357
213.97693531757
216.09558865244
218.07074196089
219.48844520589
246.99162438529
246.73207094015
246.41940843041
246.03754208397
245.56739290246
244.99046065884
244.29276793067
243.46765810853
242.51664715458
241.44821205146
240.27560108129
239.01380984946
237.67714884301
236.2773453869
234.82289331189
233.31901439531
231.76834732002
230.17196307327
228.53022912644
226.84410497567
225.11510708514
223.34611802443
221.54271745694
219.71169538635
217.85716802588
215.98706012699
214.10075224887
212.19751918879
210.28395946875
208.35128088197
206.40082628209
204.44567970331
202.48899861954
200.51082755032
198.56119701639
196.60379690695
194.65806649163
192.73723191052
190.79860215065
188.89664329123
187.01352443647
185.11438681809
183.25931730254
181.45069813317
179.63156540842
177.80270086589
176.04277660884
174.27150445186
172.54244215895
170.84812437828
169.14459954933
167.49630890021
165.8356210338
164.22613839861
162.62915616414
161.02206553702
159.46012265379
157.8874349135
156.33827959763
154.83387294239
153.32773633591
151.82428435718
150.36695612822
148.90556787373
147.43934746108
146.04037152518
144.63350086894
143.25619428002
141.91819139732
140.57278806483
139.28624237861
137.99029021607
136.72925591583
135.48994084609
134.26741408841
133.07696303681
131.8901741744
130.74454889607
129.59590323835
128.49363774212
127.38670079476
126.28896992231
125.22245049714
124.15325976039
123.11480664495
122.07563525937
121.05350110714
120.04478843633
119.05422073326
118.05750590561
117.08834868937
116.11607558089
115.16767004799
114.21601826064
113.29029788743
112.36471942372
111.46005522483
110.55030694424
109.67206702221
108.78727260932
107.92057331331
107.07171586468
106.22405110019
105.40119455204
104.57275321634
103.76989053307
102.95895908137
102.05314315637
101.08298972995
102.20410132029
112.27547313365
162.47159274584
262.34335260728
296.90407875513
300.04280908342
301.09580667422
301.12398240866
300.41194920809
298.5184298629
295.15291696638
291.01200107552
287.76392364637
285.89855739103
285.02039298347
284.74846469721
284.82937352658
285.3107082749
286.38564942367
288.10389652284
290.29030829705
292.37149308061
293.90301783946
294.91560453516
295.49277668121
295.71731174004
295.66006708227
295.27187779165
294.37025987104
292.88681299411
291.12784801787
289.58526198807
288.42014441035
287.53022926286
286.79845456608
286.13712537627
285.48897259916
284.81062857121
284.06607982669
283.25923706962
282.42245643849
281.58150772926
280.74256423492
279.90538554862
279.06712943595
278.21813234453
277.35498424023
276.4799208723
275.59728107884
274.71276565978
273.8343792588
272.97023346472
272.12525516128
271.30090791345
270.49802880316
269.7096433557
268.93001132138
268.15226630155
267.37167386939
266.58194503621
265.77883326106
264.95964776009
264.12110700667
263.26021696081
262.37234227791
261.44654389722
260.47449565344
259.44256442068
258.34804120109
257.1814919912
255.94689232094
254.63568460354
253.25016150603
251.79231866719
250.26557358701
248.67750719969
247.01557152524
245.29322817909
243.50481088646
241.68019933893
239.81232321788
237.93058991471
236.00612367863
234.09693530049
232.1309999794
230.17593166223
228.14038507695
226.17973548147
224.19201582298
222.28322662422
220.39842355526
218.51843174757
216.71020712229
214.86679591089
213.09113488454
211.27214172055
209.52651599223
207.73890925606
206.01666561388
204.38455823581
202.71812495434
201.20836060308
199.66063159065
198.24554503768
196.89089258859
195.66059486585
194.6172497475
193.61906684815
192.77659122316
192.02776301082
191.36493956735
190.99844444432
190.64179256905
190.66360911364
190.82298070781
191.17727983479
191.70399451231
192.51870872093
193.59540019056
194.9136267405
196.48113420609
198.221506473
200.1543636878
202.18598672462
204.23994075958
206.15339096224
208.08446850552
209.76434644636
211.41457757905
213.26920468156
214.6082907978
246.99262980697
246.73471381524
246.41946574307
246.02805882524
245.5414486505
244.94312319813
244.22244209833
243.37628569562
242.40837131165
241.32807802704
240.14758705534
238.88009522114
237.5374577695
236.12941437126
234.66302444015
233.14317224943
231.57308120074
229.95523189788
228.29196422447
226.58588873424
224.84035833621
223.06053454923
221.25359126379
219.42215393679
217.57370856041
215.70637389275
213.81882428556
211.91085306819
209.98812970703
208.04614689887
206.08511000317
204.1288170866
202.17013066139
200.18902607534
198.23740320955
196.28950017259
194.34325043655
192.42648776003
190.49138641515
188.58973572376
186.71163805331
184.81642200565
182.97098339411
181.16271194748
179.34310040232
177.53199434143
175.7718343056
174.00028273267
172.28905241594
170.58303272982
168.88039271833
167.23634894854
165.57895328004
163.9797692141
162.37524587462
160.76279313194
159.19996125636
157.62399984967
156.09722363419
154.58924925883
153.08180195998
151.58580354505
150.12709461442
148.6642552635
147.21843105378
145.82228584337
144.4192156694
143.06801737253
141.70872657534
140.37625267396
139.09351107347
137.80611238146
136.55982366841
135.30953971893
134.10555414886
132.89770870112
131.73318764951
130.58584088792
129.43782954306
128.33022982464
127.21620176795
126.13785697009
125.05532942142
123.98875563603
122.94829165214
121.91049613129
120.89561071588
119.87849710238
118.88531684684
117.89041645804
116.9174728683
115.94557951499
114.99705402837
114.04798645698
113.11708267856
112.19263615927
111.28808809047
110.37908940467
109.49878633927
108.61987222555
107.76188875944
106.90386499434
106.06092408472
105.23008866581
104.395966426
103.57647321936
102.74917241278
101.83201896199
100.8551075266
102.00588540465
112.19311349829
162.67760375305
262.69850614245
296.968670113
300.11185826642
301.12412729614
301.09745208611
300.30561174898
298.22713366251
294.5805310162
290.36448978391
287.32327420398
285.6284017248
284.85001108863
284.61328671758
284.70626259745
285.1921045546
286.24028469908
287.87499254499
289.97803045062
292.06428603108
293.6803536639
294.82360794092
295.543242684
295.92060912142
296.03610923922
295.94029270793
295.577141128
294.84307542096
293.74554596651
292.52847851086
291.52150280786
290.76134650547
290.15998208067
289.63256240641
289.12513061335
288.60226753376
288.03545893879
287.41044937716
286.7348745297
286.02222522595
285.2815154482
284.52051053419
283.74262326286
282.94492811695
282.12366494144
281.2806441867
280.41987663854
279.54522160362
278.65915281755
277.7647979217
276.86620562873
275.96670770309
275.06544729572
274.16032718561
273.2486205347
272.3272914902
271.39593542384
270.45294064693
269.49670206828
268.52662988259
267.54065472647
266.53390779126
265.49913924086
264.42159118809
263.29096446473
262.09298308182
260.83107752712
259.49387806455
258.08884093305
256.6047466284
255.04590587061
253.42095662504
251.74025729361
250.00666149881
248.19958176454
246.33046134616
244.39330260176
242.4305931995
240.43124845272
238.41936582709
236.36207708419
234.33795809619
232.27633052549
230.24064162285
228.12520527213
226.06991638992
224.00208601794
221.9932627596
220.00170739684
218.0298042675
216.11139881109
214.17046280387
212.28494503686
210.35761328644
208.49749982071
206.60228870235
204.74686367722
203.00132523996
201.21009083761
199.58464806241
197.91538951115
196.41809679343
195.01095052333
193.74084637198
192.66458275821
191.58095636241
190.7306670064
189.87797244423
189.26858722052
188.84439508394
188.57728464199
188.63334558342
188.84468882253
189.23427305813
189.82941875861
190.70362103798
191.78297993744
193.09858948479
194.59636942348
196.2284104244
197.92290800604
199.62214906816
201.2569434675
202.70952546487
204.11227191583
205.39555620817
206.70075413621
208.32224954552
209.39566596365
246.99472695719
246.73913730445
246.41858897509
246.01372513083
245.50637698016
244.88286790201
244.13657429058
243.26724251195
242.28098804454
241.18663424816
239.99592989576
238.71935703246
237.36717331035
235.94676264904
234.46447617613
232.92466068597
231.33160540113
229.68923377701
228.00208656831
226.27446686864
224.51276715818
222.72427474671
220.91160980835
219.08304458562
217.23365793115
215.3614173479
213.46817481967
211.55212186063
209.617892306
207.66875798939
205.69923243053
203.74178167483
201.78301780094
199.80195304221
197.84531687452
195.90877103048
193.9618502376
192.04966945916
190.11873235288
188.21314695492
186.34351509506
184.45475481565
182.61751269008
180.80909061609
178.98839058778
177.20781860212
175.44061954097
173.66510539965
171.96567291916
170.25755256164
168.56756927345
166.92723175972
165.27355133082
163.67497493578
162.06904762599
160.45419618447
158.8943546741
157.32075132016
155.81147625446
154.29983989104
152.79118878939
151.310206305
149.836327544
148.40197185808
146.96349892234
145.5727512897
144.17912585729
142.83821395946
141.48795939759
140.17902464255
138.90105625254
137.61920634839
136.37526626765
135.13424926626
133.93757703478
132.73694565116
131.58408105208
130.42304433212
129.29121419527
128.18310639121
127.07060059098
125.99456962469
124.91501851518
123.8489961725
122.81136515018
121.7747095422
120.76182162853
119.75171166939
118.74914283411
117.76798858522
116.7863468005
115.82603046618
114.8721549503
113.93068487557
112.99744197062
112.07502075385
111.17099987571
110.26438340513
109.37604227727
108.48617180311
107.62554923346
106.76479475789
105.91148381907
105.07199658773
104.23246798157
103.41310188234
102.60261409319
101.70397596037
100.77922829829
101.95261205195
112.23876162018
162.91809541512
263.49071920128
297.18185554533
300.19771744834
301.15327835508
301.07404839344
300.14575021391
297.85509255428
293.991948509
289.78101197968
286.90831462944
285.32394816064
284.61776442584
284.41002981291
284.50409619786
284.96557262628
285.94659780305
287.46029537287
289.41765701891
291.45210163125
293.15475433192
294.45439442266
295.35304752896
295.88586549738
296.13468840871
296.18371698285
296.08538617859
295.8116879459
295.30118651997
294.60135832968
293.87740697011
293.26573423535
292.74810621446
292.27590717766
291.8178183476
291.35504828956
290.87194956189
290.35512007512
289.79499541087
289.18800709015
288.53900939349
287.8551234385
287.142196054
286.40228447283
285.63544097939
284.84377028494
284.03001600616
283.19407134983
282.33357539265
281.44478013984
280.5288855127
279.58707534197
278.62164557169
277.63476480829
276.62175758456
275.58248849994
274.51714797177
273.42911635507
272.31995188194
271.19253906664
270.05117556953
268.89285823966
267.70908555835
266.48296984432
265.20242028487
263.85774077661
262.46084572121
260.99584217189
259.46862575379
257.86336984164
256.18576786863
254.45587915649
252.69063564749
250.88096663454
248.99271112061
247.03216439465
245.00283267901
242.96206928946
240.88955533076
238.7878440845
236.64140665497
234.53622453146
232.42230170028
230.32036955696
228.1462518053
226.01157724944
223.88869339948
221.78492049434
219.70829958558
217.65582915955
215.6566639832
213.64072616239
211.67249955934
209.66572215995
207.70950825959
205.75110231826
203.78237167594
201.94752741931
200.05304485942
198.3348972133
196.57893240867
195.03625730029
193.61877974423
192.32533008594
191.19530118355
190.04553829576
189.18257093008
188.29439598454
187.7536356952
187.30692577337
187.19778122301
187.30653834819
187.58050839999
188.03088524194
188.73993677254
189.67699466035
190.75975497346
192.06957332872
193.44136314076
194.88398019916
196.22749050825
197.59687509334
198.70869180417
199.72595105922
200.67555225132
201.65690278942
202.68597776158
204.07513027374
204.77602908184
246.99878984376
246.74581778444
246.41748753117
245.99499231152
245.46281510746
244.81147615626
244.03745603336
243.14362351468
242.13619853316
241.02524172536
239.81974187162
238.53003574508
237.16258661364
235.72518666083
234.22132300162
232.65771184603
231.03707146861
229.36851404747
227.65550040635
225.90792807181
224.13203700056
222.33309947083
220.51973612453
218.68505122635
216.82741992593
214.94583074606
213.04263674102
211.11632278515
209.17020830057
207.21923353734
205.24507419501
203.28765886174
201.32939717971
199.34987921829
197.3887895407
195.46187883218
193.51311720435
191.60761897753
189.68342460624
187.77126655504
185.9115525934
184.03214040684
182.19851035425
180.39465679427
178.57745380092
176.81370836053
175.03791691793
173.27722811532
171.5821755893
169.8776471161
168.19948467809
166.5587332789
164.9050743748
163.30440928394
161.69610079952
160.08369155916
158.52616418205
156.96526390699
155.45742367653
153.94046003393
152.42879332006
150.96195814608
149.48964589581
148.06103602298
146.62795690345
145.2401646933
143.85603336587
142.52108777532
141.17912548471
139.89140748177
138.59521592405
137.32717562962
136.0878826944
134.85662371763
133.66095606835
132.47275082215
131.32056989419
130.15789103892
129.03925896868
127.91397910506
126.80145772474
125.72779204737
124.654042247
123.5864405804
122.5500383584
121.51314157032
120.50084177054
119.4895055457
118.48562529361
117.50700856548
116.52257843003
115.56981771519
114.61021700118
113.66782318751
112.74500726187
111.82283392851
110.91666640168
110.0153887651
109.124458629
108.22480572735
107.34549537382
106.4785870692
105.60409603581
104.74789006936
103.92829067484
103.09540648984
102.31237138348
101.43601700644
100.5816459356
101.72788630198
111.92737631136
162.78858414717
265.13463375098
297.72735698342
300.60718673327
301.40378028216
301.16778245198
300.02127061106
297.50617760663
293.57741674655
289.46811399326
286.68732431313
285.09462983445
284.36874300415
284.14743064159
284.21489288947
284.60638758311
285.46232702499
286.79247483352
288.51370008907
290.40279390414
292.14860657091
293.59214794386
294.70280274026
295.46893652198
295.90977398097
296.09116096422
296.1174931571
296.04466388747
295.81250729248
295.41264375547
294.93080600774
294.4520686047
293.99708759938
293.55089149821
293.10744367669
292.66348272011
292.21102755911
291.73776868012
291.23129200856
290.68502773736