/*--------------------------------*- C++ -*----------------------------------*\
| =========                 |                                                 |
| \\      /  F ield         | OpenFOAM: The Open Source CFD Toolbox           |
|  \\    /   O peration     | Version:  2312                                  |
|   \\  /    A nd           | Website:  www.openfoam.com                      |
|    \\/     M anipulation  |                                                 |
\*---------------------------------------------------------------------------*/
FoamFile
{
    version     2.0;
    format      ascii;
    arch        "LSB;label=32;scalar=64";
    class       volScalarField;
    location    "0.0006";
    object      thermo:psiLiqEff;
}
// * * * * * * * * * * * * * * * * * * * * * * * * * * * * * * * * * * * * * //

dimensions      [-2 4 2 0 0 0 0];

internalField   nonuniform List<scalar> 
28800
(
6.1569429785801e-13
6.1634605091791e-13
6.1712207778808e-13
6.180486422802e-13
6.1916633636898e-13
6.2052655593531e-13
6.2218245648174e-13
6.241766420762e-13
6.2653075942245e-13
6.2924086428043e-13
6.3227992768661e-13
6.3560573789727e-13
6.3917101400777e-13
6.4293463412927e-13
6.4686926820776e-13
6.5096282278525e-13
6.552162972357e-13
6.5963993265072e-13
6.642490775548e-13
6.6905939393724e-13
6.7408402335752e-13
6.7933067491599e-13
6.8480237161575e-13
6.9049897146118e-13
6.9640530565958e-13
7.0250065524757e-13
7.0874710462044e-13
7.1510636855637e-13
7.2155682189879e-13
7.28170316675e-13
7.3496956305073e-13
7.4193682404313e-13
7.4906608329069e-13
7.5641453168414e-13
7.6384069673884e-13
7.7148313388009e-13
7.7922056432444e-13
7.8699244803681e-13
7.9499171635865e-13
8.0299708386966e-13
8.1110322502994e-13
8.1943934779565e-13
8.2779681592126e-13
8.3606342613413e-13
8.4454014086853e-13
8.5326665336203e-13
8.6182805618954e-13
8.7051310879655e-13
8.7936525576423e-13
8.8809188808458e-13
8.96998955755e-13
9.0575257835595e-13
9.1472378078055e-13
9.2391408684605e-13
9.3293021217772e-13
9.4220054925522e-13
9.5132449811406e-13
9.6063737823169e-13
9.7017129595063e-13
9.7989563877616e-13
9.8943207723666e-13
9.9921303681757e-13
1.0090913693441e-12
1.018793932629e-12
1.028751496836e-12
1.0389669846583e-12
1.0490636834259e-12
1.0594400016348e-12
1.0694521614406e-12
1.0796551748103e-12
1.0899005995025e-12
1.1000064763741e-12
1.1102033545013e-12
1.1203029223911e-12
1.1306423985812e-12
1.1407807734313e-12
1.1511870273981e-12
1.1613087225894e-12
1.1714174548212e-12
1.1816602775501e-12
1.1917740202805e-12
1.2020883122247e-12
1.2123429896119e-12
1.2228166177123e-12
1.233110623149e-12
1.2436444070185e-12
1.2540835314923e-12
1.2645309754888e-12
1.2751965041979e-12
1.2857504432275e-12
1.2965302611688e-12
1.3073615160483e-12
1.3181136874866e-12
1.3290846045331e-12
1.3399146077867e-12
1.3510082415418e-12
1.3619621665035e-12
1.3731045849625e-12
1.3843852374412e-12
1.3954814793352e-12
1.4067854491372e-12
1.4178684833927e-12
1.4291727089656e-12
1.4402468338269e-12
1.451585452767e-12
1.4626761497873e-12
1.4740213373915e-12
1.4868210326662e-12
1.5007184436894e-12
1.4848406801324e-12
1.3555631639619e-12
9.4299193254878e-13
5.843844751389e-13
5.135359027384e-13
5.0811677449904e-13
5.0623377340913e-13
5.0583436616275e-13
5.0656264695388e-13
5.0892550658639e-13
5.1355641856723e-13
5.2031034307254e-13
5.268723066889e-13
5.309813908695e-13
5.3308657723756e-13
5.3382896107134e-13
5.3380956641346e-13
5.3305703272486e-13
5.3109865913789e-13
5.2775993073755e-13
5.2358679537695e-13
5.1995733065885e-13
5.1769980219172e-13
5.1657900827182e-13
5.1623682784044e-13
5.1644745735026e-13
5.1749300172404e-13
5.1991190430465e-13
5.239600998873e-13
5.2856811985276e-13
5.3231014683568e-13
5.3515278017106e-13
5.3745878816909e-13
5.3945519620924e-13
5.4129178754181e-13
5.4308140512885e-13
5.4496386026963e-13
5.4708584182698e-13
5.4941679795104e-13
5.5173408151572e-13
5.5391060188162e-13
5.5595268328356e-13
5.5788771631495e-13
5.5975828956807e-13
5.6157383412191e-13
5.6336536013608e-13
5.6516762642613e-13
5.6701256518342e-13
5.6891941494357e-13
5.708519041843e-13
5.7275292602202e-13
5.7458166925178e-13
5.7630625252291e-13
5.7790372837258e-13
5.7936239536921e-13
5.8068807666296e-13
5.8190624707643e-13
5.8305021283872e-13
5.8416332666596e-13
5.8532895034124e-13
5.8659525752726e-13
5.8796471621544e-13
5.8942458513477e-13
5.9095161037623e-13
5.9253313467519e-13
5.9416611400713e-13
5.9585625508077e-13
5.9762020697767e-13
5.9947760879121e-13
6.014490414324e-13
6.0355702652727e-13
6.0582437615769e-13
6.082701390168e-13
6.1090700978526e-13
6.1374368246843e-13
6.1678304189355e-13
6.2003636088527e-13
6.2350138546291e-13
6.2718863606608e-13
6.3106801335269e-13
6.3512860337247e-13
6.3928984978671e-13
6.4356592803891e-13
6.4784667329284e-13
6.5221645440319e-13
6.5665042724093e-13
6.612279258185e-13
6.6585883897662e-13
6.7060297788198e-13
6.7530457110515e-13
6.8004544538725e-13
6.849148106134e-13
6.89755604171e-13
6.9484717938911e-13
6.9980056650697e-13
7.0498811871454e-13
7.0998040176545e-13
7.1521615873081e-13
7.2031699203468e-13
7.2539714348971e-13
7.3043190847873e-13
7.3544452712405e-13
7.4063794084e-13
7.4588670699474e-13
7.5096224345305e-13
7.5584005619187e-13
7.6028087643873e-13
7.6438578540594e-13
7.6779808825637e-13
7.7082003149214e-13
7.7322284089883e-13
7.7546314821078e-13
7.7676260196328e-13
7.7796339160808e-13
7.7777877863764e-13
7.7699716264001e-13
7.7534781831467e-13
7.7270845375611e-13
7.6883714201437e-13
7.6381766450957e-13
7.5757899745712e-13
7.500989329754e-13
7.4148900833156e-13
7.3195086933053e-13
7.2195128083701e-13
7.1169265381322e-13
7.014584350444e-13
6.919942007457e-13
6.826145876015e-13
6.7666105924056e-13
6.7233605561378e-13
6.1569422118101e-13
6.1634597795975e-13
6.1712247502579e-13
6.1805119800372e-13
6.1917368749282e-13
6.2054117550677e-13
6.222052479251e-13
6.2420624018308e-13
6.2656377266393e-13
6.2927299993375e-13
6.3230745953972e-13
6.356266315535e-13
6.3918582004483e-13
6.4294582032825e-13
6.4687942944233e-13
6.5097408785473e-13
6.5523037153348e-13
6.5965802128729e-13
6.6427162524144e-13
6.6908583004719e-13
6.7411297858319e-13
6.7935984367064e-13
6.8482947001612e-13
6.9052045631457e-13
6.9641671885892e-13
7.024981285443e-13
7.0872405425341e-13
7.1507171660557e-13
7.2152214883015e-13
7.2813812634526e-13
7.3493925405853e-13
7.4191333314776e-13
7.4903087085828e-13
7.5636388425609e-13
7.6376360296767e-13
7.7138064466923e-13
7.791088112741e-13
7.8688224618037e-13
7.9488375789194e-13
8.0289613238796e-13
8.1099809886262e-13
8.1933037378347e-13
8.2768194003744e-13
8.3594028443819e-13
8.4441524697775e-13
8.531422561839e-13
8.6169152055447e-13
8.7039163478226e-13
8.7925797260833e-13
8.8797559428822e-13
8.9687306461077e-13
9.0564254483955e-13
9.1463627244139e-13
9.2382778199578e-13
9.328346685517e-13
9.4208727736271e-13
9.5120742634861e-13
9.6056019959814e-13
9.7015803290365e-13
9.7981360121276e-13
9.8935274482738e-13
9.9914887148133e-13
1.0089383471163e-12
1.0187009741324e-12
1.0287105106133e-12
1.0389574875598e-12
1.0490104236436e-12
1.0593510001222e-12
1.069345754878e-12
1.0795618297461e-12
1.0898400051747e-12
1.0999046623714e-12
1.1101513566792e-12
1.120290250223e-12
1.1306629094974e-12
1.1408231439577e-12
1.1512446617213e-12
1.1613277398727e-12
1.1715397522554e-12
1.1817365317806e-12
1.191857784401e-12
1.2021890695349e-12
1.2124530615437e-12
1.2229296561414e-12
1.2332234115424e-12
1.2437572562678e-12
1.2541967513677e-12
1.2646512927414e-12
1.2753206650601e-12
1.2858952940138e-12
1.2966817098104e-12
1.30752432034e-12
1.3182697232436e-12
1.3292507798731e-12
1.3400821057032e-12
1.3511746385528e-12
1.3621283072623e-12
1.3732795618427e-12
1.3845627161456e-12
1.3956556569453e-12
1.4069519531462e-12
1.4180384598817e-12
1.4293526863666e-12
1.4404376997411e-12
1.4517899118399e-12
1.4628881828519e-12
1.4742447148508e-12
1.487048957781e-12
1.5009573308215e-12
1.4851638144451e-12
1.3562569939473e-12
9.4422465682234e-13
5.8521222227844e-13
5.1377574164948e-13
5.0821231281335e-13
5.0625162940701e-13
5.0584079538177e-13
5.0656755008895e-13
5.0897860032269e-13
5.137009687338e-13
5.2051032327706e-13
5.2702958018386e-13
5.310815592698e-13
5.3313874035178e-13
5.3385421259716e-13
5.3381691444652e-13
5.3304006538015e-13
5.3106314997691e-13
5.2773389948191e-13
5.2357471371152e-13
5.1991786646607e-13
5.1758592301373e-13
5.1642605670604e-13
5.1606976522442e-13
5.1626110676705e-13
5.1723994807604e-13
5.1953290722266e-13
5.2339598834411e-13
5.2789519475951e-13
5.3164853517848e-13
5.3449910136183e-13
5.367920961647e-13
5.3876494099739e-13
5.4057180835308e-13
5.4232556449344e-13
5.4415542850338e-13
5.4620638702084e-13
5.4846338196018e-13
5.5072055725709e-13
5.528565554644e-13
5.5487407761055e-13
5.5679525969269e-13
5.5865695082033e-13
5.6047633767136e-13
5.6228223640369e-13
5.6409810442459e-13
5.6594757139775e-13
5.6784395023186e-13
5.6975908683469e-13
5.7164803852527e-13
5.734720685541e-13
5.7519501614489e-13
5.7679360334752e-13
5.7826024370003e-13
5.7959588872689e-13
5.8081554385303e-13
5.8197470956504e-13
5.8314198641365e-13
5.8436489734325e-13
5.8567367048563e-13
5.8707459774337e-13
5.885573113114e-13
5.9010528748503e-13
5.9170886498606e-13
5.9336787206233e-13
5.9508945093267e-13
5.9689122907259e-13
5.9879153594759e-13
6.0081105416739e-13
6.029697253882e-13
6.0529075560775e-13
6.0779200182817e-13
6.1048604437058e-13
6.1338172658414e-13
6.1648131878371e-13
6.1979848838027e-13
6.233323885732e-13
6.2709751063027e-13
6.3107543560789e-13
6.3527749440995e-13
6.3962382191657e-13
6.4412492936253e-13
6.4866784800182e-13
6.5332870629344e-13
6.5794250374042e-13
6.6267758340059e-13
6.6736823800125e-13
6.7217257994506e-13
6.7690302147589e-13
6.8164774670308e-13
6.8652845307543e-13
6.9139017926111e-13
6.9651427785984e-13
7.0149968832221e-13
7.0671940464232e-13
7.1173323598961e-13
7.1699184010102e-13
7.221016446394e-13
7.2718632716184e-13
7.3226700777978e-13
7.3729036241277e-13
7.4250023172267e-13
7.4771816769262e-13
7.5279009203785e-13
7.5762939324024e-13
7.6200244275032e-13
7.6606492187161e-13
7.6943870763076e-13
7.7248824007185e-13
7.7493896571828e-13
7.7712203205344e-13
7.7846993679607e-13
7.7950162397328e-13
7.7926866100303e-13
7.7843331211066e-13
7.76784859229e-13
7.7428817040508e-13
7.7039724509597e-13
7.6535039898992e-13
7.5915896728384e-13
7.5179192575248e-13
7.4338516635331e-13
7.3402386738819e-13
7.2414649561435e-13
7.1406453723664e-13
7.0405126892335e-13
6.9491995754409e-13
6.8575649768448e-13
6.7993075097612e-13
6.7527035816001e-13
6.1569404206837e-13
6.1634555255065e-13
6.1712306811098e-13
6.1805697411932e-13
6.1919113492573e-13
6.2057718680809e-13
6.2226467005496e-13
6.2428990604016e-13
6.2666809569134e-13
6.2939131186873e-13
6.3243227651217e-13
6.3575228724809e-13
6.3931018398142e-13
6.4307064424261e-13
6.4700928220807e-13
6.5111471980452e-13
6.5538730639653e-13
6.598354672275e-13
6.6447190223011e-13
6.6930874881462e-13
6.7435635284235e-13
6.7961938054391e-13
6.8510081072657e-13
6.907927734986e-13
6.9667914084353e-13
7.0274684915174e-13
7.0895407849932e-13
7.1529482490378e-13
7.21754734139e-13
7.2838342923662e-13
7.3519728676382e-13
7.4218328312222e-13
7.4931263801728e-13
7.5665906407483e-13
7.6406380060479e-13
7.7168629586174e-13
7.7940725191202e-13
7.8717780818649e-13
7.9517614069802e-13
8.031852106216e-13
8.1128613326738e-13
8.1961764066622e-13
8.2796120637944e-13
8.3622129741552e-13
8.4469874723025e-13
8.5342707889018e-13
8.6197578450629e-13
8.7070329952646e-13
8.7954557782285e-13
8.882718638064e-13
8.9718562955162e-13
9.0598733488551e-13
9.1501178867686e-13
9.2415738728103e-13
9.3318476617124e-13
9.4245903560351e-13
9.5161560373047e-13
9.6099904987995e-13
9.7061459655422e-13
9.801904108337e-13
9.8977074588432e-13
9.9961268440823e-13
1.0093422029365e-12
1.0191839436233e-12
1.0292754502257e-12
1.0393235678019e-12
1.0494302256033e-12
1.059754505676e-12
1.069765680175e-12
1.0800245935198e-12
1.090215268825e-12
1.1003384576153e-12
1.1106229172386e-12
1.1207533292719e-12
1.1311050505474e-12
1.1412661214857e-12
1.1516653705131e-12
1.1617615118582e-12
1.1721030636985e-12
1.1822155950101e-12
1.1923841621525e-12
1.2027593873707e-12
1.2130423631799e-12
1.2235169777376e-12
1.2338269287701e-12
1.2443717564933e-12
1.2548517160109e-12
1.2653091349784e-12
1.2759715265502e-12
1.2866737366428e-12
1.297346851126e-12
1.308227558815e-12
1.3190041984008e-12
1.3299960544572e-12
1.3408623438047e-12
1.3519481554112e-12
1.3629194783448e-12
1.3740961673495e-12
1.3852873886172e-12
1.3964521897775e-12
1.407749326e-12
1.4188699860131e-12
1.4302182549691e-12
1.4413348587908e-12
1.4527128212087e-12
1.4638406506378e-12
1.4752485748629e-12
1.488125309459e-12
1.5021402544433e-12
1.4861403344169e-12
1.3558440176028e-12
9.4156352795587e-13
5.8337822184365e-13
5.1333006833937e-13
5.0788677153922e-13
5.0599561483329e-13
5.0567683479495e-13
5.0647706834429e-13
5.0906791773927e-13
5.1403087703245e-13
5.2096555872599e-13
5.2737644168937e-13
5.3130017240465e-13
5.3325485214665e-13
5.3391427789891e-13
5.3384415881261e-13
5.3302553158588e-13
5.3102267266355e-13
5.2771172024761e-13
5.2358162807242e-13
5.1990172988182e-13
5.1745449124281e-13
5.1612223678574e-13
5.1568105817827e-13
5.1580772905273e-13
5.1661152597992e-13
5.1859578156154e-13
5.2203527183027e-13
5.2627413063359e-13
5.300310336041e-13
5.3290771800161e-13
5.3519815574546e-13
5.3712947912491e-13
5.3886227785254e-13
5.4052897937004e-13
5.4224552876528e-13
5.4413840974773e-13
5.4622562180722e-13
5.4835028806595e-13
5.5039396362139e-13
5.5234974044146e-13
5.5423425927005e-13
5.5607146464475e-13
5.5788796092569e-13
5.5970418641253e-13
5.6153129741062e-13
5.6338019965021e-13
5.6525587663504e-13
5.6714098052399e-13
5.6900604444112e-13
5.7081759786595e-13
5.7253318839083e-13
5.7411293292282e-13
5.755602174812e-13
5.7689824280181e-13
5.7816885323054e-13
5.7942418166131e-13
5.8070533958156e-13
5.8203447736663e-13
5.8343410383196e-13
5.8490916187405e-13
5.8645501328852e-13
5.8806146153626e-13
5.8972480938033e-13
5.9145239173076e-13
5.9325481559125e-13
5.9515310153671e-13
5.9716272043332e-13
5.9930472148477e-13
6.0159321868765e-13
6.0405272505066e-13
6.0669776190646e-13
6.095395300193e-13
6.1258636985463e-13
6.1583633096016e-13
6.1930959779384e-13
6.2300176022663e-13
6.2692827382959e-13
6.3105819098045e-13
6.3541067908019e-13
6.3993977621352e-13
6.4469871260349e-13
6.4955609371388e-13
6.5459543072473e-13
6.5957576014334e-13
6.6473162661916e-13
6.6973256249095e-13
6.7487439413249e-13
6.7989942989253e-13
6.849004704645e-13
6.9004881704806e-13
6.9505839155037e-13
7.0029905285933e-13
7.053518441948e-13
7.1063659812826e-13
7.1571182975007e-13
7.2103437021686e-13
7.2617452357526e-13
7.3128697559331e-13
7.3647520386218e-13
7.4155495780293e-13
7.4683463065175e-13
7.5202510153097e-13
7.5708942032584e-13
7.6186450043205e-13
7.6610649605128e-13
7.7008084230745e-13
7.7339306343951e-13
7.764031666941e-13
7.7893465776738e-13
7.8090187491764e-13
7.8234589087075e-13
7.8300821177276e-13
7.8266053710194e-13
7.8164422714885e-13
7.7976788411336e-13
7.7707004623262e-13
7.7309841091329e-13
7.679745147345e-13
7.6180090083909e-13
7.5450075967866e-13
7.4636922128649e-13
7.3740519209522e-13
7.2805748441834e-13
7.1854682880117e-13
7.0913473160098e-13
7.0074043215701e-13
6.9236045415647e-13
6.8654034063008e-13
6.817228938772e-13
6.1569366057665e-13
6.1634417642586e-13
6.1712352095184e-13
6.1806681068996e-13
6.1922100048779e-13
6.2063758045233e-13
6.2236235503265e-13
6.2442564582784e-13
6.2683690287989e-13
6.2958476649994e-13
6.3264176490136e-13
6.3597210081385e-13
6.3953950996268e-13
6.4331371542957e-13
6.4727396809136e-13
6.5141038200235e-13
6.5572266388503e-13
6.6021706482385e-13
6.6490343376043e-13
6.6979053298607e-13
6.748851955748e-13
6.8018969875409e-13
6.8570285485718e-13
6.91411310534e-13
6.9729871369193e-13
7.0335457173605e-13
7.0955687658805e-13
7.1590928010129e-13
7.2239700289991e-13
7.2906183947315e-13
7.3591296061074e-13
7.4293019907216e-13
7.5008709152405e-13
7.5746249702672e-13
7.6488741031005e-13
7.7251251764695e-13
7.80237417952e-13
7.8801638804168e-13
7.9602408506535e-13
8.0403857961111e-13
8.1214043477798e-13
8.2047434239883e-13
8.2880313052948e-13
8.3706335512626e-13
8.4554225070903e-13
8.5426338391295e-13
8.6280650405064e-13
8.7156267071854e-13
8.8035511240411e-13
8.8907392438862e-13
8.9800956584806e-13
9.0683930192332e-13
9.1590415556497e-13
9.2496534301715e-13
9.3401613633795e-13
9.4331018899975e-13
9.5251661855966e-13
9.6194721934993e-13
9.7160116972656e-13
9.8104304754828e-13
9.9066667722329e-13
1.0005410947285e-12
1.0102203335235e-12
1.0201127596941e-12
1.0302413975384e-12
1.040172226987e-12
1.0503522271391e-12
1.0605255109441e-12
1.0705315912157e-12
1.0807956003829e-12
1.0908058492521e-12
1.1010569906764e-12
1.1112592886454e-12
1.1214002442371e-12
1.1317166589853e-12
1.1418602464365e-12
1.1521829274639e-12
1.1622663080066e-12
1.1726030404066e-12
1.1826621729444e-12
1.1928935250138e-12
1.2033039119677e-12
1.2135768344553e-12
1.2240604720844e-12
1.2343741932945e-12
1.2448932871281e-12
1.2554534555707e-12
1.2658997804439e-12
1.2764848972352e-12
1.2872920102237e-12
1.2979592084241e-12
1.308851979265e-12
1.3196270263421e-12
1.330620117824e-12
1.3415144948006e-12
1.3526017459494e-12
1.3636023384081e-12
1.374819032774e-12
1.385886208894e-12
1.397140887171e-12
1.4084220053745e-12
1.4195444749803e-12
1.4308812153267e-12
1.4420193834079e-12
1.453412082862e-12
1.4645766087984e-12
1.4760389009727e-12
1.4889762384173e-12
1.5030417258332e-12
1.4868332101137e-12
1.3551575824017e-12
9.3884783374106e-13
5.8140680206212e-13
5.1271465335847e-13
5.0732318082812e-13
5.0548769884026e-13
5.0531876327503e-13
5.0631504180076e-13
5.0920550831315e-13
5.1455557784148e-13
5.2166818486977e-13
5.2786636343303e-13
5.3159374292039e-13
5.3341184224727e-13
5.3400073631853e-13
5.3388868353549e-13
5.3302315495923e-13
5.3100799380797e-13
5.2774301083291e-13
5.2367400763026e-13
5.1997707804676e-13
5.1740272439093e-13
5.1583145211481e-13
5.1513757968104e-13
5.1505579325965e-13
5.1551938038784e-13
5.1691293053582e-13
5.1956933386555e-13
5.2334224915114e-13
5.271017977377e-13
5.2995673269099e-13
5.3219310516244e-13
5.3402504213994e-13
5.3563283495103e-13
5.3715725408622e-13
5.3869784927886e-13
5.4035210819121e-13
5.4217083141214e-13
5.4407575201505e-13
5.459599922915e-13
5.4779576763203e-13
5.4959252974138e-13
5.5136024112487e-13
5.5312023722659e-13
5.5489292254687e-13
5.5668074844623e-13
5.5848576347105e-13
5.6030434815454e-13
5.6212468247919e-13
5.6392734673994e-13
5.6568595120593e-13
5.673724818131e-13
5.6896964890794e-13
5.7047072187844e-13
5.7191154865148e-13
5.7333637724705e-13
5.7475829286315e-13
5.7619928793751e-13
5.7768142099707e-13
5.7921961610637e-13
5.8081729232503e-13
5.8247581003209e-13
5.8419302151765e-13
5.8597222703423e-13
5.8783019243543e-13
5.8978220885844e-13
5.9185432989312e-13
5.9405852780567e-13
5.964173268163e-13
5.9893648356896e-13
6.0164141444623e-13
6.0454038392992e-13
6.0764087840203e-13
6.1094906164874e-13
6.1445535063559e-13
6.1819080824379e-13
6.2214071319689e-13
6.2632181838307e-13
6.3068187201366e-13
6.3523527399475e-13
6.3993731018951e-13
6.448751295984e-13
6.499236307143e-13
6.5521728656092e-13
6.6056818329121e-13
6.6619025943428e-13
6.7161148692623e-13
6.7721161789478e-13
6.8266775138466e-13
6.8809400048282e-13
6.9364182553566e-13
6.989956445998e-13
7.0457405923527e-13
7.0997532095869e-13
7.1561268139061e-13
7.2106209204074e-13
7.2675890391743e-13
7.3227607794528e-13
7.3769187130145e-13
7.4324939069744e-13
7.4848330713228e-13
7.5392246701565e-13
7.591056788885e-13
7.641712681085e-13
7.6888692247114e-13
7.730035863083e-13
7.7685536619564e-13
7.8018825462818e-13
7.8305345879567e-13
7.8575064238714e-13
7.8732135859131e-13
7.8888844113151e-13
7.8902585384907e-13
7.8854838809621e-13
7.8728916618486e-13
7.8521825907577e-13
7.821511162116e-13
7.7793450513569e-13
7.7267980438092e-13
7.6645524681697e-13
7.5930810373959e-13
7.5148863907426e-13
7.4313370332382e-13
7.3457841021183e-13
7.2618313928525e-13
7.179697830806e-13
7.1084861486368e-13
7.0387709099124e-13
6.9749978849668e-13
6.9299277002822e-13
6.1569264005274e-13
6.1634087790993e-13
6.1712355957774e-13
6.1808217240344e-13
6.192664998201e-13
6.2072603700383e-13
6.2250029710365e-13
6.2461171706874e-13
6.2706313844673e-13
6.2984027409991e-13
6.3291660376582e-13
6.3626059232058e-13
6.3984170259538e-13
6.4363538634916e-13
6.4762505827343e-13
6.5180258651234e-13
6.561668237408e-13
6.6072112771713e-13
6.6547114373626e-13
6.7042113051667e-13
6.7557395410904e-13
6.8092849527508e-13
6.8647518946551e-13
6.9219995403049e-13
6.9809625276285e-13
7.041445818702e-13
7.1035230196005e-13
7.1672753519675e-13
7.2325366240936e-13
7.2996662565794e-13
7.3686874395996e-13
7.4391959530211e-13
7.511122572623e-13
7.5852656437253e-13
7.6597841747062e-13
7.7360859255638e-13
7.8134531384228e-13
7.891362339828e-13
7.9715833598084e-13
8.0518867355639e-13
8.1330035278784e-13
8.216481340307e-13
8.2996920465731e-13
8.3824570381579e-13
8.4673838967043e-13
8.5545165104486e-13
8.64007358098e-13
8.7279267303005e-13
8.8154258807106e-13
8.9028844292844e-13
8.9925844524537e-13
9.0811125677337e-13
9.1720859312298e-13
9.2620097816132e-13
9.3529940171863e-13
9.4463758920456e-13
9.5389377886432e-13
9.6339864947777e-13
9.7294824266313e-13
9.8240484845439e-13
9.9205820982379e-13
1.0018853475747e-12
1.0115985656504e-12
1.0215297250946e-12
1.0316915682149e-12
1.0415775604183e-12
1.0517121968115e-12
1.0618266847281e-12
1.0718405100253e-12
1.0821019350556e-12
1.0920998467893e-12
1.1023593260282e-12
1.1125290711839e-12
1.1227080755657e-12
1.1329333093426e-12
1.1430707754931e-12
1.1533592238478e-12
1.1634679735785e-12
1.1737828121463e-12
1.1838545457657e-12
1.1941443613155e-12
1.2045267470799e-12
1.21478825697e-12
1.2252524432546e-12
1.2355897754335e-12
1.2461103244843e-12
1.2566345740958e-12
1.2671963647978e-12
1.2777423109266e-12
1.2885323552463e-12
1.2992002047459e-12
1.3100813029168e-12
1.3208722970515e-12
1.3318803638226e-12
1.3427659182118e-12
1.3538291465115e-12
1.3648199305107e-12
1.376053906638e-12
1.3870756041496e-12
1.3983595165233e-12
1.4095920616567e-12
1.4207696355843e-12
1.4321097925469e-12
1.4432925318788e-12
1.4547289626579e-12
1.4659865418926e-12
1.4775354574418e-12
1.490652588649e-12
1.5049624825868e-12
1.4884525342225e-12
1.3549193822942e-12
9.3627288720256e-13
5.798010379292e-13
5.1228211279511e-13
5.0692146416086e-13
5.0514820035534e-13
5.0510006224369e-13
5.0629640288435e-13
5.0950707817396e-13
5.1531576439469e-13
5.2264728619137e-13
5.2854565215368e-13
5.3199355369103e-13
5.3363221196033e-13
5.341414711588e-13
5.3398942427419e-13
5.3308830296543e-13
5.3108722378068e-13
5.2791980186366e-13
5.2394366588652e-13
5.2021408317191e-13
5.1750316285901e-13
5.1572614140305e-13
5.1471854560138e-13
5.1432743819344e-13
5.1442672591752e-13
5.1510276767436e-13
5.1668019803819e-13
5.1929683994874e-13
5.2243408179189e-13
5.2521683849748e-13
5.273384638662e-13
5.2897061879582e-13
5.303204042526e-13
5.3154626743675e-13
5.32753292553e-13
5.3402248558694e-13
5.354225542015e-13
5.3694807497952e-13
5.3853939618002e-13
5.4014815784261e-13
5.4176268135081e-13
5.4338345264482e-13
5.4501604146505e-13
5.466795701032e-13
5.4838125524473e-13
5.5011726710264e-13
5.5187947183833e-13
5.53656777298e-13
5.5543312441115e-13
5.571918204881e-13
5.5892229300341e-13
5.6062088311817e-13
5.6228516425595e-13
5.6392901469815e-13
5.6556406450474e-13
5.672046012974e-13
5.6886072666598e-13
5.7054609035791e-13
5.7227026928693e-13
5.7403972214542e-13
5.7586235387992e-13
5.7774564459774e-13
5.7970092753946e-13
5.8175388593488e-13
5.8392514319573e-13
5.8624799595677e-13
5.8873206579033e-13
5.9140290772508e-13
5.9425611375365e-13
5.9731669915585e-13
6.0058522960849e-13
6.0406324601985e-13
6.0774910138001e-13
6.1163106461388e-13
6.1574707641445e-13
6.200716060588e-13
6.2462680298941e-13
6.2934372297326e-13
6.3424684827687e-13
6.392642540711e-13
6.4447834495375e-13
6.4973582850854e-13
6.552399041987e-13
6.6080689845089e-13
6.6670435230753e-13
6.7248534949438e-13
6.7844927859123e-13
6.8427693790402e-13
6.9013031128896e-13
6.9606946380465e-13
7.0187901756771e-13
7.07902385707e-13
7.1380282265854e-13
7.1995018499488e-13
7.2594988908417e-13
7.3219845990917e-13
7.3832107962048e-13
7.442185273161e-13
7.5033800787622e-13
7.5596972693525e-13
7.6183148122563e-13
7.6727100527809e-13
7.725514702677e-13
7.7741056867283e-13
7.8157943807464e-13
7.8560993475942e-13
7.8904415893629e-13
7.9212201664231e-13
7.9486636658812e-13
7.9639209035382e-13
7.9788231642229e-13
7.9779108013191e-13
7.9712463420899e-13
7.9564696285444e-13
7.9346022783655e-13
7.9010144653017e-13
7.8570600238071e-13
7.8039063350675e-13
7.7416293730445e-13
7.6736379096372e-13
7.5995124381214e-13
7.523126550498e-13
7.4474459891198e-13
7.3782981494069e-13
7.3098040135019e-13
7.251243795718e-13
7.194622807664e-13
7.1320367877415e-13
7.0875156747338e-13
6.1569013339955e-13
6.1633426749727e-13
6.1712340712097e-13
6.1810600599397e-13
6.19331978259e-13
6.208460947521e-13
6.2267970409389e-13
6.2484642317666e-13
6.2734347036464e-13
6.3015407980437e-13
6.3325427210608e-13
6.3661703466299e-13
6.4021828077693e-13
6.4403892665365e-13
6.4806660254263e-13
6.5229456142623e-13
6.567205257258e-13
6.6134431155964e-13
6.6616619271892e-13
6.7118569024672e-13
6.7640007407696e-13
6.8180090222876e-13
6.8737287129759e-13
6.9311396990077e-13
6.9900634579671e-13
7.0506143576516e-13
7.1128951893355e-13
7.1769770079256e-13
7.2427319333337e-13
7.310378768035e-13
7.3799825850312e-13
7.4507501681673e-13
7.5229759547161e-13
7.5974655811121e-13
7.6723021035919e-13
7.7484794324598e-13
7.826116688533e-13
7.9041123729616e-13
7.9844459757208e-13
8.0649966231185e-13
8.1461597409398e-13
8.2297343061193e-13
8.3127771229769e-13
8.3957882451049e-13
8.4810093047204e-13
8.5675664000284e-13
8.653397404746e-13
8.7415370028952e-13
8.8283962962153e-13
8.9167253553591e-13
9.0066585122385e-13
9.0952340810443e-13
9.1863091371809e-13
9.2759305414545e-13
9.3676248523036e-13
9.4616161074954e-13
9.5545315906889e-13
9.6500932104761e-13
9.7445124725365e-13
9.8395993446504e-13
9.9365253462631e-13
1.0034620589014e-12
1.0132153342294e-12
1.023188393264e-12
1.0332402043543e-12
1.0431357688076e-12
1.0532731651071e-12
1.0632237090233e-12
1.073425288622e-12
1.0836173663729e-12
1.0936134964647e-12
1.1038330344996e-12
1.1139097667147e-12
1.1242053242786e-12
1.1343010628642e-12
1.1446129541297e-12
1.1547340247352e-12
1.1648823446266e-12
1.1752166198513e-12
1.1853623452592e-12
1.1957451670187e-12
1.2059700971695e-12
1.2164120442789e-12
1.226878431119e-12
1.2372635649621e-12
1.247798663174e-12
1.2582761051938e-12
1.2689545503113e-12
1.27955802903e-12
1.2903590103931e-12
1.3010993888889e-12
1.312008151997e-12
1.3228324123063e-12
1.333843075855e-12
1.3448224916905e-12
1.3559060856123e-12
1.3669293183712e-12
1.378188826582e-12
1.3892710563737e-12
1.4005150270663e-12
1.4116681378711e-12
1.4230008287524e-12
1.4343128542839e-12
1.4456397956216e-12
1.4571928961059e-12
1.4687246230462e-12
1.4805527688126e-12
1.4938901088986e-12
1.5083636015507e-12
1.4913454428734e-12
1.3559142819223e-12
9.350871309758e-13
5.7901717052886e-13
5.1217081136534e-13
5.0680494055522e-13
5.051007129487e-13
5.0514456074999e-13
5.0647571351249e-13
5.1000473282373e-13
5.1631700155221e-13
5.2381274205819e-13
5.2935626043191e-13
5.3249675686981e-13
5.3395143481364e-13
5.3439519501095e-13
5.3422036627006e-13
5.3331001641668e-13
5.3135691348493e-13
5.2833951429066e-13
5.2450779986369e-13
5.2076115098661e-13
5.1789541114419e-13
5.1588696489744e-13
5.1463056694123e-13
5.139740338168e-13
5.1377323585872e-13
5.1393935033332e-13
5.1457063557373e-13
5.1585159950788e-13
5.1777884450034e-13
5.1993296741008e-13
5.2172891551269e-13
5.2309298547527e-13
5.2417726351271e-13
5.2513200722505e-13
5.2605392675896e-13
5.2700732223595e-13
5.2804477323651e-13
5.2919348320579e-13
5.3044073603569e-13
5.3176280092929e-13
5.3314390727406e-13
5.345703220354e-13
5.3603626694096e-13
5.3754789179789e-13
5.3911308642601e-13
5.407292342629e-13
5.4238941502071e-13
5.4408683973292e-13
5.4581726213385e-13
5.4757504223413e-13
5.4935256153537e-13
5.5114343878892e-13
5.5294953897292e-13
5.5477528904909e-13
5.5662652140708e-13
5.5850984804278e-13
5.6042665202301e-13
5.6238084091211e-13
5.6437641716311e-13
5.664153821913e-13
5.6850292864636e-13
5.7065038862812e-13
5.7287460407753e-13
5.7520929542134e-13
5.7767957199335e-13
5.8032030064134e-13
5.8312822011495e-13
5.8613351646917e-13
5.8932487200072e-13
5.9273379929427e-13
5.9635718664293e-13
6.0018173781361e-13
6.0418947827837e-13
6.0837986001371e-13
6.1281021579184e-13
6.1746112374833e-13
6.2235643776888e-13
6.2739616453016e-13
6.3261458078404e-13
6.3795412595817e-13
6.435081821787e-13
6.4906793275989e-13
6.5483028809839e-13
6.6062150207006e-13
6.6674904094578e-13
6.7281233258583e-13
6.7902481538926e-13
6.8517098553517e-13
6.913750205564e-13
6.9762963387579e-13
7.0382398957775e-13
7.1020414138874e-13
7.1651374716636e-13
7.2308027119966e-13
7.2953282726322e-13
7.3622670926338e-13
7.4290008412488e-13
7.4928961728381e-13
7.5596171586283e-13
7.6211992569131e-13
7.6854943133232e-13
7.744095660121e-13
7.799989027962e-13
7.8511362925633e-13
7.8950053585979e-13
7.9396726801115e-13
7.9750770805047e-13
8.0109001915571e-13
8.0366987911765e-13
8.0547554313216e-13
8.0661666267186e-13
8.0637687397278e-13
8.0547412076957e-13
8.038153027808e-13
8.0129438639497e-13
7.9762005873972e-13
7.9312964264391e-13
7.8772426720195e-13
7.816593663216e-13
7.7515620967544e-13
7.6851763324696e-13
7.6197359092893e-13
7.5578207665594e-13
7.5036432490279e-13
7.4520565092633e-13
7.4054790238972e-13
7.3586989897989e-13
7.3014025747772e-13
7.2639529556179e-13
6.1568490462213e-13
6.1632319973262e-13
6.1712559334758e-13
6.1814203911579e-13
6.1942052096075e-13
6.20998988374e-13
6.2289890509096e-13
6.2512675413995e-13
6.2767359455912e-13
6.305239510561e-13
6.3365477187725e-13
6.370460442636e-13
6.4067793553046e-13
6.44537885082e-13
6.4861582098399e-13
6.5290696003201e-13
6.5740656065281e-13
6.6211077007007e-13
6.6701376625263e-13
6.7211011269102e-13
6.7738773149059e-13
6.8283098036056e-13