/*--------------------------------*- C++ -*----------------------------------*\
| =========                 |                                                 |
| \\      /  F ield         | OpenFOAM: The Open Source CFD Toolbox           |
|  \\    /   O peration     | Version:  2312                                  |
|   \\  /    A nd           | Website:  www.openfoam.com                      |
|    \\/     M anipulation  |                                                 |
\*---------------------------------------------------------------------------*/
FoamFile
{
    version     2.0;
    format      ascii;
    arch        "LSB;label=32;scalar=64";
    class       volScalarField;
    location    "0.0006";
    object      thermo:psiGasEff;
}
// * * * * * * * * * * * * * * * * * * * * * * * * * * * * * * * * * * * * * //

dimensions      [-2 4 2 0 0 0 0];

internalField   nonuniform List<scalar> 
28800
(
9.6250291042582e-07
9.6856449652504e-07
9.7580383226269e-07
9.844438018179e-07
9.949071628074e-07
1.0077721256803e-06
1.0237066740346e-06
1.0433329253022e-06
1.0670959723033e-06
1.095187770629e-06
1.1275442291291e-06
1.1639149783877e-06
1.2039657577102e-06
1.2473789750031e-06
1.2940240145741e-06
1.3439677213206e-06
1.3974597842917e-06
1.4549073164439e-06
1.5168182701851e-06
1.5837805414543e-06
1.6563706749884e-06
1.7351771890151e-06
1.8207031573823e-06
1.9134851459335e-06
2.0141275534096e-06
2.1223822342989e-06
2.2382415587935e-06
2.3615186267057e-06
2.4925817839639e-06
2.6330459101766e-06
2.7841374206401e-06
2.946394889103e-06
3.1203880457775e-06
3.3085223925533e-06
3.5089938359895e-06
3.7253122848222e-06
3.955483369618e-06
4.1990426934447e-06
4.462195305806e-06
4.7395478891954e-06
5.0351217322416e-06
5.3550072534917e-06
5.6903754324294e-06
6.0423331757402e-06
6.4199738480706e-06
6.8293509526427e-06
7.2531623219417e-06
7.7033969272238e-06
8.1873163315377e-06
8.6876358931642e-06
9.2253947209715e-06
9.7819348783237e-06
1.0379173197904e-05
1.1023077948351e-05
1.1686292326e-05
1.2399902152629e-05
1.3147110534719e-05
1.3937172602714e-05
1.4790030048877e-05
1.5704723574401e-05
1.664769663025e-05
1.7657742989871e-05
1.8739179514141e-05
1.9850537163141e-05
2.1045636002499e-05
2.2339851918948e-05
2.3672118547947e-05
2.5112513038767e-05
2.6580373372077e-05
2.8133515018691e-05
2.9786233794073e-05
3.1477419396017e-05
3.3288376475536e-05
3.513584853967e-05
3.7149062306097e-05
3.9188313468115e-05
4.1385032283908e-05
4.3629100470455e-05
4.5949085593137e-05
4.8428748059547e-05
5.0964638764788e-05
5.3686143693236e-05
5.6487683451066e-05
5.9493990265342e-05
6.2561252693045e-05
6.5832509187298e-05
6.9249676714207e-05
7.2767832059043e-05
7.6559958542588e-05
8.0439479733523e-05
8.4570381619938e-05
8.8919819437751e-05
9.338421690787e-05
9.8171548643612e-05
0.00010305774009342
0.00010828657330039
0.00011371158742354
0.00011937254179176
0.0001254149993556
0.00013151866821943
0.00013808285789567
0.00014469259835179
0.0001517879249791
0.00015896375401851
0.00016658822423297
0.00017447390503979
0.00018260250595868
0.00019140877570671
0.0002038926110627
0.00020538672854399
0.00018160902714182
8.2728698610619e-05
1.3394670839291e-05
4.6778528160931e-06
4.4160404707661e-06
4.3821086230767e-06
4.2815953757362e-06
4.1794234789528e-06
4.1024690259518e-06
4.0185467092173e-06
3.9293100336571e-06
3.8520765845433e-06
3.7967950296411e-06
3.7568551374492e-06
3.725744743853e-06
3.6982680498997e-06
3.674403262638e-06
3.6567557785669e-06
3.6485212365091e-06
3.6450297806061e-06
3.6361936186057e-06
3.6203751607315e-06
3.5965119604737e-06
3.5686855730987e-06
3.5408090798427e-06
3.5123557409143e-06
3.4797928719887e-06
3.4426172481576e-06
3.4129469166591e-06
3.3927727854425e-06
3.3819251126838e-06
3.3768850789735e-06
3.3755339683949e-06
3.3776303702521e-06
3.385511528209e-06
3.402460255432e-06
3.430458571271e-06
3.4673143736027e-06
3.5059700641256e-06
3.5419516587528e-06
3.5749927261575e-06
3.6047968088763e-06
3.6345877160246e-06
3.6646319495724e-06
3.6947239427632e-06
3.7266403456875e-06
3.761779020112e-06
3.8002831539778e-06
3.8407421225631e-06
3.8809173911854e-06
3.9191242052908e-06
3.9541237350181e-06
3.9851295098475e-06
4.011972447119e-06
4.0354486814384e-06
4.0562184432081e-06
4.0752997316531e-06
4.0943701162377e-06
4.1138760123872e-06
4.1331815578055e-06
4.1538483022383e-06
4.1760072536326e-06
4.2004200605223e-06
4.2275089592906e-06
4.2572405322797e-06
4.2924159961273e-06
4.3321877612647e-06
4.3791429806108e-06
4.4324579496715e-06
4.4948079495025e-06
4.5650321903692e-06
4.644813399347e-06
4.7351520884533e-06
4.8340410313676e-06
4.9454607420441e-06
5.0659083519937e-06
5.2024143126827e-06
5.3490824933122e-06
5.5143894400029e-06
5.6883720633614e-06
5.8841687429887e-06
6.0877897045696e-06
6.3184543157628e-06
6.5535652759057e-06
6.8218809854548e-06
7.0933680107486e-06
7.4033551578776e-06
7.7134841889957e-06
8.0617512031086e-06
8.4047388142804e-06
8.7922735749466e-06
9.1642456802814e-06
9.5897484038312e-06
9.9984888757061e-06
1.0462700175355e-05
1.0912473203114e-05
1.1417108959747e-05
1.1924439694627e-05
1.2452007072251e-05
1.2991210170357e-05
1.3548016669176e-05
1.4144526679372e-05
1.4767154363492e-05
1.5398215901926e-05
1.6023585280066e-05
1.66183110087e-05
1.7188581200478e-05
1.7692966145832e-05
1.8132524618587e-05
1.8536866326252e-05
1.8872701527656e-05
1.9133138176938e-05
1.9340107323284e-05
1.9411572315204e-05
1.9377473996991e-05
1.9217326910852e-05
1.8883531090864e-05
1.8391857265072e-05
1.7747597336502e-05
1.6954995812733e-05
1.6032044096916e-05
1.5006442191417e-05
1.3933239822292e-05
1.285097057608e-05
1.1808897517065e-05
1.0840838140394e-05
9.9925718160216e-06
9.2451413634565e-06
8.7769519320699e-06
8.419904700748e-06
9.624993310584e-07
9.6856530702517e-07
9.7580243304934e-07
9.8445714163496e-07
9.9496319814404e-07
1.0079054999232e-06
1.0239375114414e-06
1.0436537368853e-06
1.0674696971925e-06
1.0955537061435e-06
1.1278365824339e-06
1.1640810251596e-06
1.2039738133243e-06
1.247249016896e-06
1.2937749660527e-06
1.3436091357468e-06
1.3969972558316e-06
1.454342591332e-06
1.5161461261988e-06
1.5829737023023e-06
1.6553869235623e-06
1.7339471947598e-06
1.8191406931259e-06
1.911494469703e-06
2.0115510943833e-06
2.1190103967896e-06
2.233827718042e-06
2.3561166005046e-06
2.486253183652e-06
2.6257661739759e-06
2.7758482706106e-06
2.9370764057399e-06
3.1095982030179e-06
3.2957889340639e-06
3.4936138688154e-06
3.7069707424727e-06
3.9342266498826e-06
4.1749455049661e-06
4.4350411267866e-06
4.7092738019458e-06
5.0011543416564e-06
5.3167808450188e-06
5.6477271144638e-06
5.9944327640632e-06
6.3665593079734e-06
6.7707468549501e-06
7.1874710890455e-06
7.6317816040128e-06
8.109385961225e-06
8.6017827869818e-06
9.1308563404769e-06
9.6792215514502e-06
1.0268273597125e-05
1.0902928283106e-05
1.1554289527188e-05
1.2256601115819e-05
1.2987951172096e-05
1.3767928184978e-05
1.4612569116243e-05
1.5508839406966e-05
1.6432643883e-05
1.7429689562328e-05
1.8482621316052e-05
1.9576306455971e-05
2.0755945975993e-05
2.203011650262e-05
2.3331265024871e-05
2.4745160846057e-05
2.6181722930153e-05
2.7704188460338e-05
2.9332390213408e-05
3.0984528614407e-05
3.2765261303384e-05
3.458748002046e-05
3.6566353425064e-05
3.8571517646569e-05
4.0732582827006e-05
4.2925644330127e-05
4.5225439100374e-05
4.7654573247284e-05
5.0143023372119e-05
5.2822287140231e-05
5.5574699223769e-05
5.8528415595268e-05
6.1537849537378e-05
6.4753738302958e-05
6.8103178980347e-05
7.1563138981055e-05
7.5279970573556e-05
7.9104759794268e-05
8.3145694647294e-05
8.7422342991557e-05
9.1800302881116e-05
9.6501001003394e-05
0.00010129575503968
0.00010643046323659
0.00011173215988672
0.00011730301686532
0.00012323475564382
0.0001292129396874
0.00013565408588981
0.00014212664140234
0.00014909438929201
0.00015612703839113
0.00016361074328535
0.00017133487514955
0.00017930762914114
0.00018794066816407
0.00020016641005785
0.00020161937017929
0.0001784096226399
8.1427564044033e-05
1.3229614040184e-05
4.6318467113649e-06
4.3833037353635e-06
4.3462484441866e-06
4.2469001239275e-06
4.1480878012116e-06
4.0727516739246e-06
3.9905917327902e-06
3.9037550261343e-06
3.8296676189947e-06
3.7774710025169e-06
3.7404543342028e-06
3.7120365605903e-06
3.6870432195914e-06
3.6654544363809e-06
3.649823935785e-06
3.6425025172427e-06
3.6396019831286e-06
3.6311859999507e-06
3.6142683556654e-06
3.5889266952122e-06
3.5586621395677e-06
3.5275139236408e-06
3.4957454625772e-06
3.4617811712481e-06
3.4261747303938e-06
3.3985085249668e-06
3.3801208562974e-06
3.3712903808503e-06
3.3684971747975e-06
3.3696009265318e-06
3.3742588436064e-06
3.3843424413522e-06
3.4029313869456e-06
3.4320526611311e-06
3.4695376306249e-06
3.5090295457998e-06
3.5464000417732e-06
3.5810161838692e-06
3.6124212220878e-06
3.6440791653382e-06
3.6761186198759e-06
3.7084733156983e-06
3.7423872709437e-06
3.7787753316522e-06
3.8178452460298e-06
3.858635065066e-06
3.8994479958763e-06
3.9385905284893e-06
3.9747503531821e-06
4.0071906116672e-06
4.0357389595604e-06
4.0611123606721e-06
4.0840341268309e-06
4.105358168832e-06
4.1263210193078e-06
4.1473731218159e-06
4.1681704168824e-06
4.1900339666016e-06
4.2132701991679e-06
4.2386271273517e-06
4.2666154811097e-06
4.2972863880089e-06
4.333081585978e-06
4.3736156876972e-06
4.4211030967509e-06
4.475054511609e-06
4.5377339620728e-06
4.6083667682684e-06
4.6884465575244e-06
4.7789574206997e-06
4.8780722424885e-06
4.9892794629657e-06
5.1099405174121e-06
5.2459636924855e-06
5.3927613943816e-06
5.5572196531989e-06
5.7310842224327e-06
5.9246374587754e-06
6.1267677410272e-06
6.3532463390223e-06
6.5852276492418e-06
6.8500312174693e-06
7.1192641861456e-06
7.426617910808e-06
7.7350699615685e-06
8.0806459365798e-06
8.4209187471057e-06
8.8053651339085e-06
9.1742737724548e-06
9.5960364379754e-06
1.0001157507815e-05
1.0461925064361e-05
1.0907973915665e-05
1.140851777027e-05
1.1911572959612e-05
1.2433436086318e-05
1.2971606677197e-05
1.3523524041007e-05
1.4116037274482e-05
1.4730202537044e-05
1.5356169309758e-05
1.5973450902671e-05
1.6557404764938e-05
1.7116882649391e-05
1.7612131990592e-05
1.8050628523253e-05
1.8456830832577e-05
1.878752837093e-05
1.9045993034655e-05
1.9241156184149e-05
1.9300854831322e-05
1.9261623621151e-05
1.909476780844e-05
1.8771789595277e-05
1.8282035578576e-05
1.7642331286151e-05
1.6863550912679e-05
1.5960992546152e-05
1.496779327143e-05
1.3916915625265e-05
1.2863906171452e-05
1.1843543671799e-05
1.092172616007e-05
1.0103411253457e-05
9.4022445926432e-06
8.9356592783226e-06
8.5645943516421e-06
9.6249567094073e-07
9.6856229653155e-07
9.7579568157557e-07
9.8448264195597e-07
9.9509352684881e-07
1.008224820484e-06
1.0245201592267e-06
1.0445381907616e-06
1.0686474318611e-06
1.0969791661513e-06
1.1294500988807e-06
1.1658343503356e-06
1.2058580127635e-06
1.2493043082189e-06
1.2960829355641e-06
1.3462762994912e-06
1.400138593671e-06
1.4580690196739e-06
1.5205594127158e-06
1.5881432765053e-06
1.6613699792389e-06
1.7407482698806e-06
1.8267874454871e-06
1.9199820670842e-06
2.0205749315943e-06
2.1285552368287e-06
2.2438979473632e-06
2.3670095500576e-06
2.4982915789375e-06
2.6391500531101e-06
2.7907588558393e-06
2.9536286026763e-06
3.1279403616053e-06
3.3161786588231e-06
3.5160849335349e-06
3.7316473164524e-06
3.9609934432444e-06
4.2040606268526e-06
4.4667041340644e-06
4.7435556377546e-06
5.03833513794e-06
5.3570679593759e-06
5.6910937993645e-06
6.0412752137898e-06
6.4174121248696e-06
6.825797237444e-06
7.2466393923273e-06
7.697033233206e-06
8.17836295725e-06
8.6761568788845e-06
9.2120659533267e-06
9.7681778932122e-06
1.036601717166e-05
1.1004429006819e-05
1.1663909182032e-05
1.2376285333721e-05
1.3118488668316e-05
1.3911476229157e-05
1.4769331780421e-05
1.5666077628329e-05
1.6605101861758e-05
1.761920180547e-05
1.8678463307882e-05
1.9794258835878e-05
2.1000083079868e-05
2.2265342927553e-05
2.3591286490107e-05
2.501918335507e-05
2.6467339624232e-05
2.8021767684332e-05
2.9649065329401e-05
3.1331477286053e-05
3.3136847849832e-05
3.4983248411065e-05
3.6975203618338e-05
3.9002047372443e-05
4.1184092607684e-05
4.3392704702491e-05
4.5747689273926e-05
4.8182223677407e-05
5.0712190114457e-05
5.3433336717618e-05
5.621904795243e-05
5.9207404695872e-05
6.2253642608864e-05
6.5514757906416e-05
6.8903997515185e-05
7.2420217847367e-05
7.6155778580571e-05
8.0089275390376e-05
8.4138897788539e-05
8.8477844044179e-05
9.2929475239849e-05
9.7684187817893e-05
0.00010255825462808
0.0001077624240048
0.00011311043189395
0.00011879124495211
0.00012474491932639
0.00013084283806598
0.00013735508739233
0.00014392792694458
0.00015099775353594
0.00015813442639801
0.00016574186603953
0.00017356942453679
0.00018168970225945
0.00019048189071474
0.00020297442132133
0.00020450104673399
0.00018063541827164
8.1937179348369e-05
1.3227799301481e-05
4.6517129198195e-06
4.400981681857e-06
4.3562194720548e-06
4.25368521798e-06
4.1552504035104e-06
4.0781739085796e-06
3.9943874311977e-06
3.9070966773707e-06
3.8338686195765e-06
3.7822057553387e-06
3.7449511542709e-06
3.7156873490365e-06
3.6893240866995e-06
3.6660617201311e-06
3.6486661765102e-06
3.6395605760528e-06
3.6358306952925e-06
3.6277802236625e-06
3.610486908579e-06
3.5861318330024e-06
3.5572713346607e-06
3.5277669498041e-06
3.4986752112182e-06
3.468317382473e-06
3.4365940635124e-06
3.4093845529499e-06
3.3905190381634e-06
3.38151179436e-06
3.3790246782102e-06
3.38095036821e-06
3.3867729681518e-06
3.3980364940329e-06
3.417095064084e-06
3.4454735423986e-06
3.4816191314777e-06
3.5207054985712e-06
3.5586153533188e-06
3.5940697924236e-06
3.6272202656838e-06
3.6608474564989e-06
3.6947471439976e-06
3.7289493553497e-06
3.7642612413902e-06
3.8010798089235e-06
3.8397114695101e-06
3.8796323427896e-06
3.9196191484725e-06
3.9583282701617e-06
3.9945281487061e-06
4.0275673234008e-06
4.0571791196779e-06
4.0837926583744e-06
4.1078528932926e-06
4.1298333025504e-06
4.1509816051545e-06
4.171825818905e-06
4.1922139662088e-06
4.2133837977957e-06
4.2356718951858e-06
4.2597320950218e-06
4.2864332971366e-06
4.315832726164e-06
4.3504120283568e-06
4.3899347180362e-06
4.4366112486785e-06
4.4897672696246e-06
4.5516601789031e-06
4.6216700454066e-06
4.7012519664718e-06
4.7913820424164e-06
4.8900516322365e-06
5.0007541007399e-06
5.1213508160197e-06
5.2571980815669e-06
5.4043368049648e-06
5.5685339394883e-06
5.7428563755725e-06
5.9354355768855e-06
6.136691555782e-06
6.3599032021302e-06
6.5895631976004e-06
6.8505664366771e-06
7.116126265779e-06
7.4206941267151e-06
7.7256924466927e-06
8.0678802792388e-06
8.4034206327408e-06
8.783804100717e-06
9.1492505130685e-06
9.5687319311092e-06
9.9709226472122e-06
1.0429828802965e-05
1.0872693206671e-05
1.1372281513706e-05
1.1872627887691e-05
1.2390558190527e-05
1.2931258549973e-05
1.3480374893652e-05
1.4071030578363e-05
1.4676707666163e-05
1.5294900523558e-05
1.5901237301491e-05
1.6463972785571e-05
1.7007910692806e-05
1.7486347636786e-05
1.7922708309572e-05
1.8323479988701e-05
1.86396731072e-05
1.88831465561e-05
1.9043235142383e-05
1.9068339861123e-05
1.8990370473837e-05
1.8778470689344e-05
1.8421587682782e-05
1.7909097422311e-05
1.7252100334065e-05
1.6470868136021e-05
1.5578964425971e-05
1.462335963599e-05
1.3621652962576e-05
1.2633233738432e-05
1.1684943464253e-05
1.083809348013e-05
1.0084445208607e-05
9.4601202114507e-06
8.9945499401124e-06
8.608804285223e-06
9.6249636422803e-07
9.6854892905635e-07
9.7577418051544e-07
9.8452590388685e-07
9.9531896452369e-07
1.0087621259315e-06
1.025472394808e-06
1.0459412013827e-06
1.0704608986362e-06
1.0991108617589e-06
1.1317944850232e-06
1.1683159870991e-06
1.2084669293311e-06
1.2521054900054e-06
1.2992005129866e-06
1.349865576208e-06
1.4043580407704e-06
1.4630535542863e-06
1.5264189134412e-06
1.5949438163276e-06
1.6691377763765e-06
1.749456508496e-06
1.8363805878785e-06
1.9303540224845e-06
2.0312613283475e-06
2.1394732821236e-06
2.2552269192575e-06
2.3791091935569e-06
2.5115254188837e-06
2.6537810042698e-06
2.8069328927962e-06
2.9713526515921e-06
3.1472720016252e-06
3.337278937987e-06
3.5388004289433e-06
3.7556406879047e-06
3.9863507936893e-06
4.2310395507445e-06
4.4954457057429e-06
4.7740494646282e-06
5.0705567107152e-06
5.3910469819099e-06
5.7265720132336e-06
6.078604172171e-06
6.4570248996777e-06
6.8673050983772e-06
7.2900368647e-06
7.7446971092748e-06
8.225853255272e-06
8.7264048107445e-06
9.2667326228681e-06
9.8271984446124e-06
1.0431062185051e-05
1.1067333111133e-05
1.173180305783e-05
1.2450508223061e-05
1.3199175540109e-05
1.4000698804545e-05
1.4864885713659e-05
1.5754701605528e-05
1.6704469214035e-05
1.7725872539329e-05
1.8786118292037e-05
1.9912936283877e-05
2.1132505711815e-05
2.238370753156e-05
2.3727113107426e-05
2.5143853274627e-05
2.659666393252e-05
2.8163921804511e-05
2.977058834821e-05
3.1483094403091e-05
3.3283264230814e-05
3.5139694094455e-05
3.713036589492e-05
3.9162545911509e-05
4.1340686237205e-05
4.3552748551186e-05
4.5926709757321e-05
4.835606105851e-05
5.0907978290065e-05
5.3643023156551e-05
5.6437794341317e-05
5.9436425107407e-05
6.2496052975159e-05
6.5767989092415e-05
6.9169638089352e-05
7.2722895950785e-05
7.6427026317905e-05
8.0416122021919e-05
8.4475129330996e-05
8.8820264557605e-05
9.3304837091788e-05
9.8069893881472e-05
0.00010296752673435
0.00010820552006256
0.000113555262543
0.00011928214919732
0.00012517955020546
0.0001313538437798
0.0001378737792251
0.00014448776923593
0.00015157423126918
0.00015875168817869
0.0001664062903818
0.00017426996335829
0.0001824480733059
0.00019130597798901
0.00020389815587789
0.00020543979605793
0.00018115587935393
8.1689917393423e-05
1.3142134499005e-05
4.6605292089083e-06
4.4152211152923e-06
4.360532830188e-06
4.2554054784583e-06
4.1582610347181e-06
4.0785279066371e-06
3.993559961955e-06
3.907824305296e-06
3.8351520342192e-06
3.7837029432548e-06
3.7461736099775e-06
3.7159967219864e-06
3.6889447963603e-06
3.6655276895307e-06
3.6474961690226e-06
3.6365368838406e-06
3.6315271027265e-06
3.6236113229393e-06
3.6062551427116e-06
3.5826416958071e-06
3.5550527277168e-06
3.526629811864e-06
3.4994633972779e-06
3.4732508536815e-06
3.4478513667403e-06
3.4226585809749e-06
3.4040240110856e-06
3.3957594810401e-06
3.3947753080374e-06
3.398791996855e-06
3.4072107576428e-06
3.4210742265459e-06
3.4416879213725e-06
3.4698806017414e-06
3.5049952388119e-06
3.543820948614e-06
3.5826477300087e-06
3.6197472363624e-06
3.6556550830675e-06
3.692089820294e-06
3.728314220143e-06
3.7649981072172e-06
3.8023060446021e-06
3.8403239569141e-06
3.8793588676504e-06
3.9191763511151e-06
3.9589913373393e-06
3.9978249326135e-06
4.0346219646277e-06
4.0688161037868e-06
4.0998380081756e-06
4.1278180982266e-06
4.1530522339937e-06
4.1757432114752e-06
4.1973314644101e-06
4.2182103451373e-06
4.2383108062476e-06
4.2588994386044e-06
4.2804540823226e-06
4.3033507477259e-06
4.3287625091525e-06
4.3569129891752e-06
4.3901676551657e-06
4.4285781104686e-06
4.4742339353445e-06
4.5263965900103e-06
4.5870991836181e-06
4.6562232634574e-06
4.7350079260296e-06
4.8243932789016e-06
4.9222167023874e-06
5.031901680366e-06
5.1521226430793e-06
5.2873866456772e-06
5.4346242002602e-06
5.5982563167921e-06
5.7729517048559e-06
5.9651485245012e-06
6.1667461126279e-06
6.3880378752043e-06
6.6174099255355e-06
6.8740345974138e-06
7.1369830559231e-06
7.4371424799515e-06
7.7379070228586e-06
8.0743430240774e-06
8.4034904782925e-06
8.7782636143747e-06
9.1373713459996e-06
9.5503070292694e-06
9.9455024392115e-06
1.0397714325506e-05
1.0833309792266e-05
1.1327824943617e-05
1.1819595450749e-05
1.232735621161e-05
1.2869733763808e-05
1.3412171809561e-05
1.3998650767638e-05
1.4591287596814e-05
1.5193059644379e-05
1.5778225843554e-05
1.6308207556915e-05
1.6833057401741e-05
1.7286598910239e-05
1.7722883235218e-05
1.8101842144493e-05
1.8390855620496e-05
1.8603180022464e-05
1.8705982321932e-05
1.8693493619547e-05
1.8560059023119e-05
1.8292583796416e-05
1.788703833266e-05
1.7345249048635e-05
1.6679139544743e-05
1.5908654346778e-05
1.5051149740741e-05
1.4152763261031e-05
1.3232685026547e-05
1.234020422836e-05
1.1512510771375e-05
1.0776914711021e-05
1.0135788880205e-05
9.5779139856446e-06
9.0974457069056e-06
8.6952613556484e-06
9.6249824710185e-07
9.6851142837472e-07
9.757250077349e-07
9.8459663464414e-07
9.9567103705926e-07
1.0095626970908e-06
1.0268279661362e-06
1.0478649226471e-06
1.0728768240591e-06
1.1018963236641e-06
1.1348261291061e-06
1.1715204663852e-06
1.2118426286526e-06
1.2557324055827e-06
1.3032262465728e-06
1.3544778528444e-06
1.4097506216386e-06
1.4693937160936e-06
1.5338313919544e-06
1.6034900684505e-06
1.6788222820283e-06
1.760232564379e-06
1.848189400265e-06
1.9427024046421e-06
2.0440514800211e-06
2.1525391066761e-06
2.268831561954e-06
2.3936469095274e-06
2.5273691747023e-06
2.6712343331397e-06
2.826170418135e-06
2.9921976452446e-06
3.1698752061631e-06
3.3618531311128e-06
3.5650851299796e-06
3.7832232063785e-06
4.0154814408951e-06
4.2618686460331e-06
4.528120691721e-06
4.8086829126956e-06
5.1071188829387e-06
5.4296027072128e-06
5.7668512128005e-06
6.1210861996942e-06
6.5024099119243e-06
6.914134532979e-06
7.3393863941653e-06
7.7979932457895e-06
8.2796306562764e-06
8.784273051262e-06
9.3294098623582e-06
9.8939965487633e-06
1.0502961240217e-05
1.113818730678e-05
1.1809969272097e-05
1.2536505727785e-05
1.3291454100501e-05
1.4104949811608e-05
1.4966694513325e-05
1.5859604456643e-05
1.6820086365772e-05
1.7842622668468e-05
1.8910750317834e-05
2.0048583024959e-05
2.1277998651001e-05
2.2528202268872e-05
2.3874432176756e-05
2.528916409121e-05
2.6750145058188e-05
2.8328748361877e-05
2.993384717189e-05
3.1658747982425e-05
3.3458491537511e-05
3.5330811666081e-05
3.7316574364414e-05
3.9357049146244e-05
4.1538152388828e-05
4.3762973772634e-05
4.6150468779087e-05
4.858252390788e-05
5.1166292339682e-05
5.3906431675548e-05
5.6713757165539e-05
5.9723966904981e-05
6.2805274223584e-05
6.6101688571067e-05
6.9499439904577e-05
7.3114228001006e-05
7.6809396388931e-05
8.0819941319006e-05
8.4903225348808e-05
8.9275952346095e-05
9.3776685191442e-05
9.857354535617e-05
0.00010349529368404
0.00010876829846749
0.00011413315188963
0.00011992079758905
0.00012579569499927
0.0001320484700906
0.00013857263587349
0.00014526180824014
0.00015238862077874
0.0001596446597312
0.00016736812160209
0.00017535538000109
0.000183623956168
0.00019263294715181
0.00020553917013645
0.00020720042975234
0.00018228618223096
8.1479065685069e-05
1.3076707405441e-05
4.6702457203204e-06
4.4281296495711e-06
4.3652645503139e-06
4.2581957959745e-06
4.163032705019e-06
4.0843321028742e-06
3.9932004194876e-06
3.9050380816519e-06
3.8348749481331e-06
3.7858073412095e-06
3.7497946488286e-06
3.7197735170439e-06
3.6907185169397e-06
3.6655416804433e-06
3.6464957097606e-06
3.6344646422832e-06
3.6271849631719e-06
3.61548285613e-06
3.5986525500053e-06
3.5763534310723e-06
3.5505846433038e-06
3.5239055657051e-06
3.4984042383629e-06
3.4774081287244e-06
3.459885459589e-06
3.4427655058347e-06
3.4277557199249e-06
3.4208944198016e-06
3.4216994436179e-06
3.4286880971216e-06
3.4409476177022e-06
3.4584230763631e-06
3.4818343683931e-06
3.5115588880564e-06
3.5468601211303e-06
3.585899711348e-06
3.6259748929441e-06
3.6655386896515e-06
3.7050581215311e-06
3.7447067027181e-06
3.7839032331644e-06
3.8234838288014e-06
3.8632044246608e-06
3.9030506000801e-06
3.943230598378e-06
3.9836345865826e-06
4.0237117687447e-06
4.0628301788766e-06
4.1000657806271e-06
4.1349393740895e-06
4.1667276761314e-06
4.195345711194e-06
4.2211348758153e-06
4.2441519165279e-06
4.2659454584826e-06
4.2865481813972e-06
4.3058662237618e-06
4.3254088263441e-06
4.3458115551806e-06
4.3670390487492e-06
4.3905101765493e-06
4.4167953313697e-06
4.44811580164e-06
4.4848323921633e-06
4.5288421897035e-06
4.5793877182093e-06
4.6381753676122e-06
4.7058348185706e-06
4.7832597009114e-06
4.8711892035286e-06
4.9675200629773e-06
5.0754375612385e-06
5.1946907139893e-06
5.3290409942062e-06
5.4762580117284e-06
5.6392457101488e-06
5.8135973609139e-06
6.0049608430144e-06
6.2069999009853e-06
6.4275159446486e-06
6.6567309339901e-06
6.911587468782e-06
7.1753163777818e-06
7.472860229378e-06
7.7711902762747e-06
8.1036605313531e-06
8.428515783927e-06
8.7982014288186e-06
9.1511532986599e-06
9.5566863073591e-06
9.9447874785801e-06
1.0388232796137e-05
1.0816546810357e-05
1.1302664330766e-05
1.1785913802447e-05
1.2281298039678e-05
1.2822047309667e-05
1.3353226557977e-05
1.393117986912e-05
1.4501220152045e-05
1.5073126098365e-05
1.562345665218e-05
1.6112914822065e-05
1.6612643586776e-05
1.7033804851794e-05
1.7459092507748e-05
1.7792330249063e-05
1.8039267236652e-05
1.8202231170044e-05
1.8235937986239e-05
1.8165282161258e-05
1.7969403985259e-05
1.7648209725753e-05
1.7195523266619e-05
1.6625301899508e-05
1.5953834755516e-05
1.5198865712552e-05
1.4395344476067e-05
1.3568855163263e-05
1.2750087866368e-05
1.1991151601251e-05
1.130239694236e-05
1.0697340805229e-05
1.016154117169e-05
9.6599231430711e-06
9.185118115285e-06
8.7544501263885e-06
9.6249187102845e-07
9.6842160221184e-07
9.7563764059881e-07
9.8471511802034e-07
9.9620313838299e-07
1.0106843269722e-06
1.0286239839236e-06
1.0503119083241e-06
1.0758815980066e-06
1.1053259534463e-06
1.1385762078169e-06
1.1755371467086e-06
1.216155652925e-06
1.2604493064537e-06
1.3085247740892e-06
1.3605760308223e-06
1.4168732267848e-06
1.4777384433872e-06
1.543533637772e-06
1.6146165210515e-06
1.6913550322711e-06
1.7741636588952e-06
1.8630616612448e-06
1.9583365565106e-06
2.060262034086e-06
2.1695655652522e-06
2.2869742279034e-06
2.4132692177297e-06
2.5488923066013e-06
2.6949142102971e-06
2.8522540447901e-06
3.0203391971848e-06
3.2002617411829e-06
3.394764565385e-06
3.6003823410849e-06
3.8202276162651e-06
4.0551544170742e-06
4.3039788665703e-06
4.5727851419866e-06
4.8564475249047e-06
5.1575879568061e-06
5.482896350194e-06
5.8227254640517e-06
6.1804384456648e-06
6.5663186557291e-06
6.9789713896565e-06
7.4082967035387e-06
7.8723805216981e-06
8.3547401870346e-06
8.867637765927e-06
9.4180474664981e-06
9.9870375992551e-06
1.0601311538262e-05
1.1240080796441e-05
1.192181527906e-05
1.2658881017736e-05
1.3422534993307e-05
1.4247414210033e-05
1.5106978772086e-05
1.6011032952448e-05
1.6985180142169e-05
1.8010811216684e-05
1.909337996074e-05
2.0243636112749e-05
2.1470546589337e-05
2.2729378626925e-05
2.4088245703866e-05
2.5486907985887e-05
2.6983230289524e-05
2.8559496601792e-05
3.017066912935e-05
3.1908980341344e-05
3.3691939775857e-05
3.5608294309705e-05
3.7569947514834e-05
3.9654698652227e-05
4.1814999722213e-05
4.4057580714618e-05
4.6461318198561e-05
4.8911676376559e-05
5.1541930401736e-05
5.4248300698228e-05
5.7123162513953e-05
6.014272772889e-05
6.3249401842895e-05
6.6563417014913e-05
6.9978371810036e-05
7.3633586578911e-05
7.7386302347872e-05
8.1400979352412e-05
8.552842080207e-05
8.993752536972e-05
9.4463030477911e-05
9.929385893637e-05
0.00010426585100336
0.00010957821823249
0.00011497198195635
0.00012082002487929
0.0001267284687455
0.00013303401557775
0.00013948077554211
0.00014635927647308
0.00015342837206495
0.00016088389852777
0.00016866896246636
0.00017691904499766
0.00018544923304713
0.00019475734199916
0.00020788829628563
0.00020943637639362
0.00018365265599724
8.1404808973889e-05
1.3073613613956e-05
4.6862866178245e-06
4.4414536525464e-06
4.3677970458986e-06
4.2575201864824e-06
4.1674032429805e-06
4.0847698552056e-06
3.9912975758301e-06
3.9042867275803e-06
3.8385070298894e-06
3.7899873730364e-06
3.7537819208537e-06
3.7234079063394e-06
3.6947774604832e-06
3.6676667246354e-06
3.6456858014736e-06
3.6301438789516e-06
3.6198457547179e-06
3.6066092430715e-06
3.589549749335e-06
3.5676034578805e-06
3.5425697794582e-06
3.5173611848491e-06
3.4932387732594e-06
3.473831535094e-06
3.4628961650973e-06
3.4537949008896e-06
3.4475049154588e-06
3.445715256627e-06
3.4505664295231e-06
3.4614442962877e-06
3.4776320578065e-06
3.4990013312897e-06
3.5257152547225e-06
3.5577005641345e-06
3.5940928937301e-06
3.6337129663253e-06
3.6750915808548e-06
3.7175053489191e-06
3.7608750660759e-06
3.8040082430714e-06
3.8467051009175e-06
3.889269769008e-06
3.931574537607e-06
3.9736905874416e-06
4.0157405994537e-06
4.0576463234462e-06
4.098828895664e-06
4.1388849378178e-06
4.1769121437472e-06
4.2126089194506e-06
4.2452411728991e-06
4.2745347395125e-06
4.3009466468398e-06
4.3239649240618e-06
4.3456821738792e-06
4.3657832616774e-06
4.3837704521452e-06
4.4017358469057e-06
4.420457387166e-06
4.4394772438362e-06
4.4602978672344e-06
4.4841584728975e-06
4.5131838937114e-06
4.5479647478562e-06
4.5901220961008e-06
4.6390462947989e-06
4.6960544781467e-06
4.7627378220589e-06
4.8395092992762e-06
4.9266397723823e-06
5.022154805453e-06
5.129019089572e-06
5.2482045251526e-06
5.3827012546404e-06
5.531102294324e-06
5.6942521474397e-06
5.8692955979019e-06
6.0604305900032e-06
6.2644181899388e-06
6.4840660849754e-06
6.7127995542578e-06
6.9658065535103e-06
7.232125659693e-06
7.5293429824461e-06
7.8261523630109e-06
8.1558504368754e-06
8.4790623208253e-06
8.8439588004557e-06
9.1932583338916e-06
9.5920787586536e-06
9.9758167140494e-06
1.0412809779826e-05
1.083643597566e-05
1.1313051262139e-05
1.1796082614716e-05
1.2280602577986e-05
1.2818713588838e-05
1.3338018109617e-05
1.3904539255081e-05
1.4445405607145e-05
1.4975771025905e-05
1.5484373572332e-05
1.5930366785099e-05
1.6404091158676e-05
1.6783642827783e-05
1.718162973709e-05
1.7450918273524e-05
1.7640662666596e-05
1.7730502001797e-05
1.7699761451752e-05
1.7555601168093e-05
1.7297666888174e-05
1.692291712104e-05
1.643074395637e-05
1.5842683052391e-05
1.5171479754708e-05
1.4443650659747e-05
1.3700578249898e-05
1.2969902549395e-05
1.2268982065081e-05
1.1652022294553e-05
1.1102269121426e-05
1.0607767002152e-05
1.0150855014726e-05
9.7028404479689e-06
9.2635517994704e-06
8.8178130255866e-06
9.6247509444119e-07
9.682329464934e-07
9.7554697682377e-07
9.8495151118989e-07
9.9698695169295e-07
1.0121797761549e-06
1.0308750346871e-06
1.0532811880782e-06
1.0794462865642e-06
1.1093939401782e-06
1.1430492088159e-06
1.1804175147772e-06
1.221489005415e-06
1.2663819552115e-06
1.3152409020887e-06
1.3683135962757e-06
1.425854958621e-06
1.4881703054602e-06
1.5555343875408e-06
1.6282368782799e-06
1.7066044281269e-06
1.7906754124513e-06
1.8806538234817e-06