/*--------------------------------*- C++ -*----------------------------------*\
| =========                 |                                                 |
| \\      /  F ield         | OpenFOAM: The Open Source CFD Toolbox           |
|  \\    /   O peration     | Version:  2312                                  |
|   \\  /    A nd           | Website:  www.openfoam.com                      |
|    \\/     M anipulation  |                                                 |
\*---------------------------------------------------------------------------*/
FoamFile
{
    version     2.0;
    format      ascii;
    arch        "LSB;label=32;scalar=64";
    class       volVectorField;
    location    "0.0006";
    object      U;
}
// * * * * * * * * * * * * * * * * * * * * * * * * * * * * * * * * * * * * * //

dimensions      [0 1 -1 0 0 0 0];

internalField   nonuniform List<vector> 
28800
(
(315.94684845799 -0.00048470313454155 -4.1756597431958e-12)
(316.77542588728 -0.00011591799558089 7.1486088541546e-12)
(317.75690288113 -0.00048409618252297 -1.0074296892099e-11)
(318.92163710667 -0.00052447746650491 1.5905504212391e-11)
(320.31645248061 0.0025594051567081 -2.4810628231251e-11)
(321.99915944888 0.013820285249619 -2.2142155131303e-11)
(324.02617249254 0.037915031332982 -8.0819101475177e-11)
(326.43666337494 0.077349490929356 -3.5144595055392e-11)
(329.24026132603 0.13146073269688 -8.9161004327735e-11)
(332.41323754196 0.19703150400707 -5.4462897498436e-11)
(335.90420059308 0.26904992203676 -8.7833563032422e-11)
(339.64615912941 0.3434328366689 -8.1775135490204e-11)
(343.5700958629 0.41705014274262 -7.3995536391424e-11)
(347.61803851062 0.48992309232277 -1.1238893840868e-10)
(351.75059443985 0.56563198287806 -5.3559394769333e-11)
(355.94665418569 0.64509246793455 -1.0847207311607e-10)
(360.19947941378 0.73041253282141 -3.8214229811286e-11)
(364.51132670774 0.82440693939816 -1.1209121494257e-10)
(368.88850491113 0.9270509891648 -6.3804434313022e-11)
(373.3365252413 1.0420871329128 -1.0508828809536e-10)
(377.85753778765 1.1653139934372 -4.7532772338183e-11)
(382.44825693061 1.3004082984726 -1.0221549007947e-10)
(387.10125614496 1.4394324972505 -7.478054615918e-11)
(391.80677327249 1.5861518155799 -9.7559951495069e-11)
(396.54361018905 1.7322786441368 -6.415129671814e-11)
(401.28812141807 1.875389073801 -9.3494591719067e-11)
(406.0088536431 2.010741587557 -8.8154494599782e-11)
(410.67348975914 2.1287949300573 -8.5033237804388e-11)
(415.2794993773 2.2518802435776 -8.4453124620446e-11)
(419.87184060369 2.3695516224438 -8.0824339061008e-11)
(424.46548877525 2.4897156924294 -8.0581594697568e-11)
(429.04197572261 2.6155865949024 -7.5531977344933e-11)
(433.59334055933 2.7403909818755 -7.6452278406295e-11)
(438.15091120762 2.8575777392124 -6.9135605279584e-11)
(442.62739253155 2.9711488794035 -7.5087584361622e-11)
(447.10665522934 3.0608803467207 -6.1572807045675e-11)
(451.48570740032 3.1460096929454 -4.1914168443979e-11)
(455.76000344705 3.2214549367118 -6.4829449017211e-11)
(460.04137264269 3.2966859674063 -4.1008682169851e-11)
(464.18711957297 3.3700940396981 -6.6460147070877e-11)
(468.27784549241 3.4407755638139 -3.8613461650953e-11)
(472.38201084439 3.5103504052303 -6.7628565814337e-11)
(476.31360576804 3.5682322623731 -3.0841904231319e-11)
(480.11275372699 3.629435952597 -4.5884572195154e-11)
(483.91315403643 3.669190007705 -3.4008435282823e-11)
(487.73380643917 3.7171726817081 -4.7526998647624e-11)
(491.35035712892 3.7548875662907 -3.2463835700094e-11)
(494.92868905414 3.787105773918 -4.9515024732946e-11)
(498.46499615928 3.8253515839293 -3.028477007745e-11)
(501.85486543685 3.8526999791814 -5.1665571392594e-11)
(505.20755142434 3.8789692212223 -2.810688094409e-11)
(508.4286859839 3.8939747140254 -2.9343037209035e-11)
(511.65828075512 3.9213565526255 -2.9232797595331e-11)
(514.87920701465 3.9476844421928 -2.9833971650962e-11)
(517.9501003491 3.9789518252697 -3.0456246234259e-11)
(521.02497882812 3.9765671409097 -3.0951120879244e-11)
(523.98815603725 4.0101963766081 -3.1175007322023e-11)
(526.94789940276 3.9869303566035 -3.1307367528422e-11)
(529.92854422884 4.0392827477969 -3.1281795956443e-11)
(532.88360129014 4.0640370585259 -3.1225779395631e-11)
(535.70602226432 4.0817361542787 -3.1057452574936e-11)
(538.54274576328 4.0876609663231 -3.0896316494316e-11)
(541.32094945685 4.105360016078 -3.0722427132701e-11)
(544.00205490546 4.0850587399996 -3.0561954165702e-11)
(546.69803460803 4.1006580976135 -3.0449996624584e-11)
(549.40758372328 4.1330202266126 -3.0294518634653e-11)
(552.02000114983 4.1377682489546 -3.0192619381298e-11)
(554.63747893499 4.1366804626386 -2.9994578197943e-11)
(557.07020511863 4.1427328223501 -2.9874331385911e-11)
(559.49663946439 4.1152871768087 -2.9638801240679e-11)
(561.86638049088 4.1301722968029 -2.9521680202047e-11)
(564.15628595525 4.1012966798692 -2.9260733229607e-11)
(566.39971752963 4.0930644647829 -2.9137224099181e-11)
(568.58330350726 4.0733521123049 -2.8846147159473e-11)
(570.77696847222 4.080189026084 -2.8685889464867e-11)
(572.87064935731 4.0651231475269 -2.8345888555384e-11)
(574.97742295409 4.0738175060262 -2.8144118818793e-11)
(576.95071029809 4.0515139143511 -2.7772936970538e-11)
(578.87955532816 4.0496039771545 -2.7562245998386e-11)
(580.78711378696 4.0457402972363 -2.7193243942731e-11)
(582.64738193806 4.0374001268772 -2.7002468100198e-11)
(584.51022401903 4.028959884087 -2.6657687118625e-11)
(586.33891789071 4.0307949651178 -2.6500847634547e-11)
(588.16868126973 4.0229313952092 -2.6178013303821e-11)
(589.93156461311 4.0233352618598 -2.6046933992924e-11)
(591.70492565295 4.0145318777749 -2.5742286798101e-11)
(593.41703111099 4.0147687871782 -2.5625401525805e-11)
(595.11513763452 4.0041445442976 -2.5336680662353e-11)
(596.82043518185 4.0053093489152 -2.5212635400732e-11)
(598.48029841226 3.9970230704754 -2.4945076787991e-11)
(600.14533531563 4.0018900004224 -2.4791455678817e-11)
(601.78720205346 3.9919155451562 -2.455072795042e-11)
(603.38903535663 3.9935796375638 -2.4352395539423e-11)
(604.98958954287 3.9924430115573 -2.4138227761994e-11)
(606.54484537016 3.987133551569 -2.3890156580771e-11)
(608.10346463483 3.9913883240431 -2.3696089715484e-11)
(609.62710004739 3.9878037430049 -2.3414757904625e-11)
(611.14493752487 3.9785743251638 -2.3233491210477e-11)
(612.64866892579 3.9861396269592 -2.2935870016363e-11)
(614.08996176012 3.9774788117176 -2.2771932811898e-11)
(615.5308601203 3.9780729225999 -2.2451609679202e-11)
(616.9057044565 3.968286407549 -2.2321951140824e-11)
(618.28231084735 3.9645129751777 -2.1971661977948e-11)
(619.59509612224 3.9582554074532 -2.1878691654089e-11)
(620.9151760121 3.9518201651471 -2.1498791488286e-11)
(622.17607863419 3.9491097025293 -2.143483805655e-11)
(623.44097908146 3.9395980522433 -2.1033836935811e-11)
(624.84280395994 3.9393644991243 -2.0980324895538e-11)
(626.31710941058 3.92843587578 -2.0553170567448e-11)
(624.55123399148 3.9213915799365 -2.0341129420227e-11)
(608.7909319052 3.9258858390417 -2.0126105959739e-11)
(522.65816674983 3.8388613101483 -1.9903361915504e-11)
(286.66208297837 4.3293206140566 -1.9727438346378e-11)
(132.2555671243 4.0884853827688 -1.9171855983834e-11)
(118.407320308 4.3196087549316 -1.898900665796e-11)
(109.69527184161 4.5912474437582 -1.7916536791057e-11)
(99.128015514054 4.5280059820052 -1.7083348471408e-11)
(88.212786085978 4.5811945536203 -1.6207594269946e-11)
(78.34841314135 4.3624493647745 -1.5425363813733e-11)
(69.079458294465 4.1102647038352 -1.4785789244284e-11)
(60.570579310206 3.8250547864745 -1.4282077432936e-11)
(52.795629967582 3.5239508205421 -1.3902394995041e-11)
(45.814988095445 3.1815081617154 -1.3595168939149e-11)
(39.75762790761 2.7954712268057 -1.3272236744913e-11)
(34.710151543405 2.3612843983637 -1.2790124965317e-11)
(30.713541408912 1.9025837425996 -1.205225640137e-11)
(27.730112030317 1.4655708476793 -1.1142736488207e-11)
(25.654743641049 1.0924974110494 -1.0228099378796e-11)
(24.283946634166 0.81503763326148 -9.3502693519226e-12)
(23.39518182082 0.65077110507411 -8.260893879609e-12)
(22.7952920148 0.5914369561733 -6.7024481708924e-12)
(22.23514208764 0.71069788012541 -5.3072253660175e-12)
(21.432822451013 0.95515759183088 -3.5196175606874e-12)
(20.003182940975 1.4039542401796 -2.3800483094376e-13)
(17.467455106178 2.0578072206895 5.5003918547695e-12)
(13.430130256447 2.8379392631365 1.4820712180712e-11)
(7.840472500683 3.5118105477389 2.9168288102685e-11)
(1.4707459389827 3.5182346809908 4.7901909994378e-11)
(-4.6084227152181 3.1346009281339 6.5381958524412e-11)
(-9.9736431403015 2.7783196768669 7.9804257087394e-11)
(-14.661192399325 2.4475954827783 9.2361268515163e-11)
(-18.728667357564 2.1293684678934 1.0295566381843e-10)
(-22.217486448932 1.8136019436928 1.139443664283e-10)
(-25.18782484901 1.4941486877961 1.2393627120469e-10)
(-27.747027178435 1.1724511486426 1.3336854537828e-10)
(-30.028687249875 0.86654045221762 1.4206304378964e-10)
(-32.124943747629 0.59368655243448 1.5011179829982e-10)
(-34.009288255551 0.36270091691881 1.5756791279161e-10)
(-35.543293018659 0.17311387900526 1.6454447621133e-10)
(-36.613861805369 0.016450803087179 1.7095746194536e-10)
(-37.215591055104 -0.11016011203313 1.764284446946e-10)
(-37.411834995495 -0.20706572771772 1.8074964428921e-10)
(-37.308411913192 -0.33406870121218 1.8621512495377e-10)
(-36.904443122446 -0.48754538096441 1.9224596467805e-10)
(-36.216267254068 -0.67711134022821 1.9822484250832e-10)
(-35.266867789579 -0.87142112793893 2.0438197270761e-10)
(-34.093010639626 -1.052923613847 2.1014261040208e-10)
(-32.732375090781 -1.2114755229016 2.155448734092e-10)
(-31.178445011675 -1.3470770399874 2.207521051847e-10)
(-29.372955213772 -1.4704489993239 2.258973913107e-10)
(-27.246276788758 -1.5941815850348 2.3101036942184e-10)
(-24.743254818347 -1.7242776903546 2.3609146133032e-10)
(-21.820746652104 -1.8664061799842 2.4121174223655e-10)
(-18.443154243907 -2.0333521453271 2.4632722973256e-10)
(-14.59774307234 -2.2110136824088 2.510332152498e-10)
(-10.295110490091 -2.3982675260685 2.5554753838834e-10)
(-5.5339412736485 -2.6150124908323 2.6347558332008e-10)
(-0.31156351271606 -2.83537003591 2.6267591350772e-10)
(5.3400978248868 -3.0436635535999 2.7406940571966e-10)
(11.403636332203 -3.2716959260339 2.7346374092152e-10)
(17.88576340358 -3.4753308433936 2.7959263417284e-10)
(24.783939239353 -3.6718336417714 2.8374831102855e-10)
(32.088599611392 -3.8332086018726 2.8751674230936e-10)
(39.769239808303 -3.9666359179985 2.8879179341798e-10)
(47.821893674018 -4.1077432236655 2.9255544785195e-10)
(56.223641804162 -4.1824238267957 2.9219635503103e-10)
(64.934259675017 -4.2743022637369 2.9453554762245e-10)
(73.915946986864 -4.2996073243037 2.9498051388702e-10)
(83.1329892525 -4.35156250781 2.9621803702063e-10)
(92.544232018353 -4.3329741408736 2.9664632072803e-10)
(102.10243522257 -4.3269468215016 2.9652417384886e-10)
(111.78286205563 -4.2846151471138 2.9678086582855e-10)
(121.52747790712 -4.2185438888678 2.9555965678039e-10)
(131.30664823726 -4.1579081781127 2.956623409323e-10)
(141.08242417649 -4.0421123305328 2.9337360526415e-10)
(150.84952940164 -3.9599042016315 2.9302760297064e-10)
(160.58131077749 -3.8033362233475 2.9010342047397e-10)
(170.27687342919 -3.6913842717175 2.894049954405e-10)
(179.87051915977 -3.4937601745906 2.8578285011019e-10)
(189.37381852319 -3.3547090501779 2.8476463011557e-10)
(198.7011829082 -3.1224570370436 2.8060601203744e-10)
(207.91723845717 -2.9645057965078 2.7926313880479e-10)
(216.93022236827 -2.7035068614424 2.7462600037903e-10)
(225.8244575572 -2.5500183372642 2.7290760835006e-10)
(234.53098244436 -2.2796387896028 2.6798406558719e-10)
(243.14914627287 -2.1312624882491 2.6594786782495e-10)
(251.56983823466 -1.8526273873572 2.6103139225284e-10)
(259.85532458505 -1.6981942677176 2.5842331483227e-10)
(267.8849346996 -1.4322304515081 2.5385176166737e-10)
(275.666090282 -1.273867617707 2.5060983880856e-10)
(283.32824758053 -1.0511563908074 2.4646010983574e-10)
(290.61276657927 -0.89503602080065 2.4273586419369e-10)
(297.90214476467 -0.70432382716367 2.3898958463334e-10)
(304.80759908864 -0.56359695458905 2.349853191587e-10)
(311.72582121715 -0.40352903655936 2.3152811747262e-10)
(318.2831877753 -0.27017090665618 2.2753998165683e-10)
(324.86621012095 -0.13752591598172 2.2413100631443e-10)
(331.18400666171 -0.017944174825425 2.2041483024256e-10)
(337.25212921497 0.093174250538097 2.1700744500155e-10)
(343.1037248204 0.18538867792446 2.1361676022681e-10)
(348.76366922016 0.33567830384498 2.1023713003701e-10)
(354.42809611649 0.41565928897622 2.0703549618064e-10)
(359.92091353207 0.55785724106164 2.0380048842222e-10)
(365.23063871885 0.59957794420907 2.0075742075804e-10)
(370.14905380879 0.71058425700178 1.977724672883e-10)
(374.71437253412 0.7176520230758 1.9490066063822e-10)
(378.86813686571 0.71416128117882 1.9223607396229e-10)
(382.58703095559 0.63924339017796 1.8970005770711e-10)
(385.81726119193 0.52905117914915 1.8745170211179e-10)
(388.88620995614 0.45066334291559 1.8530703884392e-10)
(391.51916311388 0.32393533988171 1.8336138213884e-10)
(393.85910315868 0.20430288304534 1.8161487838705e-10)
(395.96013082017 0.027088017014687 1.7992442415625e-10)
(397.49145983476 -0.19715139046963 1.7854250163178e-10)
(398.61955133187 -0.5350218343877 1.7761719398854e-10)
(399.34673752833 -0.90619955634225 1.7668100488086e-10)
(399.27569055951 -1.3852688093939 1.7642244352498e-10)
(398.66787267707 -1.8702811313216 1.7654256988743e-10)
(397.48468839102 -2.4090660155677 1.7698799248061e-10)
(395.66639666525 -3.0250356064294 1.7791650201347e-10)
(393.1708037195 -3.6291177560922 1.7901410452529e-10)
(390.0753608316 -4.3265375442176 1.8103067517284e-10)
(386.44514419304 -4.8449703666584 1.8258880884185e-10)
(382.49230113432 -5.5716668662754 1.8575785334562e-10)
(378.30861736925 -5.9003009320867 1.877187468749e-10)
(374.31248855429 -6.508722038099 1.9148647501695e-10)
(370.16076830259 -6.2104961906756 1.9431284307844e-10)
(367.48879322897 -6.3898445726629 1.9698537571989e-10)
(365.83076308911 -5.1338537025307 2.0041155116278e-10)
(367.54027339153 -4.5067493313845 2.0164929239775e-10)
(315.94676233385 -0.00051588320542417 -2.9784264781197e-12)
(316.77534182809 -0.00013077082716183 4.2849027517064e-12)
(317.75741318592 -0.0011715806102712 -5.9441121395385e-12)
(318.92485265215 -0.0013832776626072 8.0434367101179e-12)
(320.32560946941 0.0058882175498949 -1.0496735679121e-11)
(322.01718120071 0.029410444115672 -6.9321266084663e-12)
(324.05392791789 0.076676657343626 -3.5923585727969e-11)
(326.47218916601 0.15075167382529 -2.0053443939638e-11)
(329.27921231804 0.2490354129125 -4.2635459590406e-11)
(332.45038702417 0.36449772321844 -3.6283903967929e-11)
(335.93525781492 0.48861931072887 -4.3619390638451e-11)
(339.66900525077 0.61391490199068 -5.6367775982646e-11)
(343.5855923712 0.73690318465308 -3.917613052634e-11)
(347.62908205602 0.85795156697737 -7.6666709594585e-11)
(351.75999075763 0.98270820674818 -3.7049675320031e-11)
(355.95653125577 1.1153512954599 -7.8567767564425e-11)
(360.21135925563 1.2601990430559 -3.5001425460732e-11)
(364.52611486701 1.4218784403846 -7.5887013859856e-11)
(368.90632692422 1.5999296789944 -5.0094019911299e-11)
(373.35652902426 1.7981197642085 -7.8381376268848e-11)
(377.87826631375 2.0094074999601 -4.6994105457081e-11)
(382.4675394252 2.2372010543858 -7.6659827462423e-11)
(387.1171800394 2.468596996606 -5.9715058908764e-11)
(391.81652487576 2.7102188618893 -7.5489368315565e-11)
(396.54411478031 2.9448030625781 -5.847361643494e-11)
(401.27731750873 3.1696175509532 -7.0969995007908e-11)
(405.98247555877 3.3811698991034 -6.9438745893143e-11)
(410.64023604337 3.5711211490404 -7.2046255067814e-11)
(415.24561533219 3.7703880923318 -7.0155687395693e-11)
(419.83921473721 3.9642244601303 -7.1615790966296e-11)
(424.43351374733 4.1668241062746 -6.8536476541332e-11)
(429.01390933337 4.3739583988002 -7.0397709872843e-11)
(433.55737957165 4.5821675089947 -6.6074621521481e-11)
(438.10530484707 4.7867052296518 -6.8700929894024e-11)
(442.56539565987 4.9949333628428 -6.4003130360861e-11)
(447.02923525388 5.1840874211827 -6.6917031289821e-11)
(451.40274945231 5.3686817690693 -5.0511827676182e-11)
(455.67843530587 5.5357401326562 -6.6057673751922e-11)
(459.96171858078 5.7029444341567 -4.8470731037215e-11)
(464.11136696085 5.8606281083545 -6.5123829640938e-11)
(468.20060739938 6.0121634911152 -4.6667912527993e-11)
(472.30396051909 6.1618288189084 -6.3495722354062e-11)
(476.23229451385 6.2912804654859 -4.5711648003006e-11)
(480.02737780332 6.4253018357764 -5.1937328402716e-11)
(483.82751425968 6.5324839652271 -4.2913762452549e-11)
(487.64856180046 6.6571358300303 -5.0510215202028e-11)
(491.26305261529 6.7482976215257 -4.1541488371118e-11)
(494.84593045885 6.8533000497642 -4.996114052355e-11)
(498.3884103283 6.9511239899722 -4.049923672491e-11)
(501.77326944505 7.0240826246045 -4.9408227923604e-11)
(505.12425545686 7.1117035352054 -4.1341686217069e-11)
(508.35293963614 7.1759118156609 -3.9476758949913e-11)
(511.59272838711 7.2773886268716 -3.8487587449429e-11)
(514.81083940034 7.3521118471802 -3.7975770453429e-11)
(517.87821040995 7.4194673345136 -3.7593965930383e-11)
(520.94720336631 7.4702314762574 -3.7228927885507e-11)
(523.91349496496 7.5594873580314 -3.6749676204243e-11)
(526.88741883163 7.5926035554257 -3.6306320770773e-11)
(529.887617209 7.7245406510758 -3.5853254730151e-11)
(532.81585647863 7.7751594303542 -3.5459553968824e-11)
(535.6390771075 7.8298307053241 -3.5020069093039e-11)
(538.4814395789 7.8773571538064 -3.4628623628844e-11)
(541.23212035793 7.9554375793964 -3.4254127556976e-11)
(543.93427591632 7.9519507722107 -3.3899798462251e-11)
(546.65117257267 8.0523144145824 -3.36118844115e-11)
(549.36261066681 8.0982973015492 -3.3301288804732e-11)
(551.95984823132 8.124516834866 -3.307038832537e-11)
(554.56808833792 8.1681498402352 -3.2751204282255e-11)
(556.99900749991 8.1677515242138 -3.2539603041184e-11)
(559.43190440891 8.1845078989946 -3.2207701595025e-11)
(561.80738037129 8.203339495275 -3.2021225001979e-11)
(564.08743777802 8.1730325503042 -3.1682948337101e-11)
(566.34345107651 8.2019077655969 -3.1511002772458e-11)
(568.53617652032 8.1818739515396 -3.1153754917963e-11)
(570.73592474716 8.2147480540271 -3.0952132632296e-11)
(572.83337715125 8.1823768602836 -3.0557010882015e-11)
(574.93974155163 8.2049200907539 -3.0316981943813e-11)
(576.91121929886 8.1517548208735 -2.9897145520458e-11)
(578.85737225723 8.1625001516191 -2.9651698811204e-11)
(580.75617689249 8.1514168352607 -2.9236425430765e-11)
(582.61900077805 8.1348697745626 -2.9018184277541e-11)
(584.48552665978 8.131729511969 -2.8629772777433e-11)
(586.31571629335 8.1340164518407 -2.8452557249481e-11)
(588.14561723694 8.1282122814083 -2.8090617448131e-11)
(589.90870955041 8.1257406118441 -2.7944579921021e-11)
(591.68172992016 8.1183535218007 -2.7604528450238e-11)
(593.39352981186 8.1133751794674 -2.7475922860266e-11)
(595.09241041765 8.1152129592654 -2.7155041472084e-11)
(596.80001602087 8.1129846540569 -2.7023074508185e-11)
(598.46085479242 8.1002943455584 -2.6723073426594e-11)
(600.12344000943 8.1237545247507 -2.6561205204038e-11)
(601.76795256941 8.1004534481516 -2.6294348277585e-11)
(603.37029544521 8.1094023410018 -2.6080816694758e-11)
(604.97093336158 8.120024084547 -2.5846482669875e-11)
(606.52703483017 8.0988140954386 -2.5579748736965e-11)
(608.08454446705 8.1307392659538 -2.5369266570164e-11)
(609.60364104924 8.1108789846678 -2.5067456799215e-11)
(611.12784759047 8.1146286693244 -2.4872435073549e-11)
(612.63051616434 8.1144007650032 -2.4551515590463e-11)
(614.07037562745 8.1018315178573 -2.4377841385579e-11)
(615.5099704202 8.1064547029383 -2.4031437329409e-11)
(616.8854338034 8.0916239653194 -2.3896071967549e-11)
(618.26308008317 8.0953403998371 -2.3516403887142e-11)
(619.57706750955 8.0839818763523 -2.3419103202426e-11)
(620.89842313231 8.0847259512462 -2.3008180561439e-11)
(622.15966616691 8.0774908706083 -2.2940178160828e-11)
(623.42519205527 8.0740890053543 -2.2506830162415e-11)
(624.82689499912 8.0706716080788 -2.2450915462107e-11)
(626.30167944715 8.0736659657419 -2.1991414220903e-11)
(624.54589003543 8.075921408928 -2.176198779409e-11)
(608.8452018249 8.0549611055281 -2.15226194064e-11)
(523.01595505973 8.0004272708337 -2.1274407145781e-11)
(287.95979794886 7.2621219248395 -2.0769475502925e-11)
(133.30593156813 7.1277125404226 -2.0094190488691e-11)
(118.90434012212 7.4001714165114 -1.987176789301e-11)
(109.68539786118 7.559191905833 -1.8848000268081e-11)
(98.836014685611 7.3655557762907 -1.7983125654276e-11)
(87.849388281383 7.2941462899298 -1.7082269730481e-11)
(78.060397702536 6.929184909693 -1.6273079520086e-11)
(68.832534463138 6.5732848789207 -1.5570288275074e-11)
(60.311267224958 6.1831302111454 -1.4965385310534e-11)
(52.48684621422 5.73075486349 -1.4460785415103e-11)
(45.460054744932 5.1965085210165 -1.4010271153047e-11)
(39.393593978748 4.5624544541208 -1.3519272934274e-11)
(34.378099777179 3.8408709605171 -1.2849903519019e-11)
(30.435512272757 3.0870383451823 -1.1916297030189e-11)
(27.510841630874 2.3719898412843 -1.0802964307626e-11)
(25.488170515614 1.7555061452875 -9.7129733048951e-12)
(24.157276305636 1.2940146502437 -8.7122907069447e-12)
(23.275788231561 1.030064007209 -7.613508599252e-12)
(22.650600285784 0.94259614674021 -6.3717364752912e-12)
(22.084154513479 1.1041523060123 -5.1379664581758e-12)
(21.320479761012 1.5039919463279 -3.4898318458015e-12)
(19.942243118201 2.2184054907386 -3.329504528791e-13)
(17.518128454321 3.2482167059073 5.4226685251949e-12)
(13.728880052152 4.4340132664976 1.501654246037e-11)
(8.5647232679853 5.4209599251424 2.9864072773812e-11)
(2.6526679217917 5.4986664128287 4.9081393803052e-11)
(-3.1084865977266 4.9623388060208 6.698203823305e-11)
(-8.2577685450756 4.4290426207511 8.170916504578e-11)
(-12.792443639994 3.925360237532 9.4448243076515e-11)
(-16.747560233388 3.4356338265276 1.0418381288131e-10)
(-20.153400257083 2.9435599456235 1.147857292036e-10)
(-23.063656771897 2.4410599438725 1.243451506688e-10)
(-25.573660062449 1.9275811223179 1.3328758481632e-10)
(-27.806310876568 1.4225753364435 1.4143405437612e-10)
(-29.852289612308 0.96112729940404 1.4889441472507e-10)
(-31.688915413819 0.57716955893711 1.5572698860394e-10)
(-33.18662370736 0.26998049236203 1.6203558968791e-10)
(-34.243064316015 0.017922725291769 1.6775083594941e-10)
(-34.854812607317 -0.18650686749267 1.7261716439629e-10)
(-35.070469317657 -0.34842741845846 1.767511293777e-10)
(-34.954461741071 -0.55273405082453 1.8190500204178e-10)
(-34.541397949935 -0.78986752158649 1.8724401305219e-10)
(-33.857955332677 -1.0798754282919 1.9229598684524e-10)
(-32.920861075426 -1.3816443675219 1.9744998774976e-10)
(-31.76303891907 -1.6742501858362 2.0229437764932e-10)
(-30.412453736886 -1.9386374000782 2.068303030857e-10)
(-28.861333195334 -2.1706777667562 2.1118909611758e-10)
(-27.060565900782 -2.3802822439331 2.154621849425e-10)
(-24.946925532569 -2.5816331815011 2.1965941760942e-10)
(-22.463767243304 -2.7861642134218 2.2377180467615e-10)
(-19.566316895025 -3.0057218507573 2.2785906635792e-10)
(-16.221208046108 -3.264633823582 2.3189806319774e-10)
(-12.414154464484 -3.54439712073 2.3559945835343e-10)
(-8.1518878368373 -3.8383041579263 2.3879094284798e-10)
(-3.4325629752054 -4.1748304840363 2.4552243051768e-10)
(1.746068202242 -4.5272587428635 2.4371759515016e-10)
(7.3575923126043 -4.8660786827235 2.5386019718948e-10)
(13.387877885682 -5.2311266708688 2.519320985614e-10)
(19.844905656979 -5.5638134949159 2.5740609601994e-10)
(26.721098685302 -5.8885133249594 2.6034062147971e-10)
(34.003791753173 -6.1677761365526 2.6310300959222e-10)
(41.663688523725 -6.3980246911424 2.6340170332434e-10)
(49.692332502607 -6.6353060812338 2.6613726284887e-10)
(58.070148658467 -6.7728486963216 2.6543222999449e-10)
(66.75843327913 -6.9245165088141 2.6707501806218e-10)
(75.718828452066 -6.9730936747264 2.6717709913122e-10)
(84.913252355528 -7.0539586363177 2.6803557293211e-10)
(94.300570831957 -7.0296359843236 2.682745097836e-10)
(103.8355484696 -7.0162968618361 2.6816499541298e-10)
(113.49097050057 -6.9460605660685 2.6831064911051e-10)
(123.20973546393 -6.8353400699448 2.6742745631135e-10)
(132.95940776542 -6.7309244393375 2.6749874407624e-10)
(142.70292823269 -6.5450676037688 2.6587724971327e-10)
(152.43653692494 -6.3986435615569 2.656266811037e-10)
(162.13578239386 -6.1464768538714 2.6352778198873e-10)
(171.79817773461 -5.9445429394433 2.6302903412232e-10)
(181.36093313424 -5.6258055947345 2.6038792203659e-10)
(190.82934192516 -5.3765245258547 2.596582569316e-10)
(200.11670921811 -5.0104692269313 2.5659480524556e-10)
(209.29044177549 -4.7394968908117 2.556584514027e-10)
(218.24729417316 -4.3338712014654 2.5225103319119e-10)
(227.09486012713 -4.0744945153206 2.510433652657e-10)
(235.75298317795 -3.6534326769782 2.4744014769487e-10)
(244.32895992205 -3.4088079115287 2.459619056033e-10)
(252.70336269013 -2.9689140583338 2.4233915070093e-10)
(260.95012244561 -2.7149230949713 2.4038127539562e-10)
(268.92911375068 -2.2923939344364 2.3700977425463e-10)
(276.66096916259 -2.038351129321 2.3448303348038e-10)
(284.2790295409 -1.6793846445264 2.3143014374501e-10)
(291.52074850911 -1.4224374050363 2.2844174705687e-10)
(298.76511134681 -1.1131737369145 2.2568713826554e-10)
(305.63176476445 -0.8837459595279 2.2243972483089e-10)
(312.50939852663 -0.61881768930173 2.1987557047936e-10)
(319.0283500398 -0.40769102555348 2.1661536360207e-10)
(325.57473529924 -0.18321600562714 2.1404405293594e-10)
(331.85078908752 0.025389569563417 2.1096339540503e-10)
(337.88050074579 0.21859706260145 2.0835074849698e-10)
(343.72149590825 0.39130738558063 2.0553159595719e-10)
(349.34177332365 0.6460759215121 2.029817019803e-10)
(354.97102819363 0.79333753443809 2.0031706956198e-10)
(360.4054483108 1.0299050654484 1.9789681982251e-10)
(365.67995835165 1.0903187694478 1.9537816412663e-10)
(370.54552889293 1.2560016125147 1.9312489949291e-10)
(375.03620387664 1.2217920566558 1.9079232011029e-10)
(379.14006175334 1.1777124489196 1.886563178144e-10)
(382.81427908195 1.033584797278 1.864386970778e-10)
(386.0639428142 0.84072981105584 1.8442623690005e-10)
(389.13606915902 0.72283831664082 1.8241269151976e-10)
(391.75843564759 0.4886412874068 1.8059144054522e-10)
(394.08675670451 0.28841702282437 1.7892406054447e-10)
(396.12638310017 -0.045167530881987 1.7718025116098e-10)
(397.60862968633 -0.48586502605405 1.7618640575449e-10)
(398.6918073365 -1.0370810206586 1.75348228666e-10)
(399.37397651408 -1.7336646619336 1.7459895340463e-10)
(399.37520763032 -2.6071492067447 1.7410245262934e-10)
(398.74218303709 -3.5021278199855 1.739836427573e-10)
(397.52604488711 -4.4788328182391 1.7410877508081e-10)
(395.71573937345 -5.5788176353663 1.745005036641e-10)
(393.25813540676 -6.6559256533649 1.751248502974e-10)
(390.24959354919 -7.849199297782 1.7619874627822e-10)
(386.70210568727 -8.7669670473854 1.7724203419959e-10)
(382.86359244979 -9.762847457764 1.7902652885486e-10)
(378.82395234763 -10.322059459197 1.8041365660589e-10)
(375.08201910982 -10.753446427434 1.8257824421378e-10)
(371.30343605202 -10.297270175522 1.8469609192372e-10)
(368.68409134533 -9.8175629470203 1.864016987783e-10)
(367.07309380048 -8.0166698458696 1.8886034789811e-10)
(368.6811545377 -7.1098757646262 1.8997884439187e-10)
(315.94654286622 -0.00013523943582117 -1.9959853126196e-12)
(316.7748131427 -0.00011090867179584 2.6994785539578e-12)
(317.75818151629 -0.0032458044169747 -3.4790105824481e-12)
(318.93212256116 -0.0039763787107608 5.1345893770717e-12)
(320.34734124797 0.0093796917241501 -5.7780841795692e-12)
(322.06156486379 0.050669601512573 -4.0537864570076e-12)
(324.1262729423 0.13138270060213 -1.8873599353812e-11)
(326.5725802544 0.25551122784018 -1.0774032192959e-11)
(329.402276189 0.41831331308644 -2.0432085401449e-11)
(332.58723780556 0.60817255719694 -1.9906804950697e-11)
(336.07646175141 0.81220344371293 -2.1008281834583e-11)
(339.80769173707 1.018304824952 -3.2080333141701e-11)
(343.71918725412 1.2221618327055 -2.0305327628771e-11)
(347.75934269107 1.4240212597978 -4.493026096984e-11)
(351.8914466275 1.6315541512538 -2.0351191206019e-11)
(356.09455622266 1.8528686366221 -4.6694874601902e-11)
(360.36062985617 2.0951878239562 -2.1565773140283e-11)
(364.68961908703 2.3656310020819 -4.7413938546233e-11)
(369.08499831919 2.6628649906104 -3.1072363335228e-11)
(373.54884466395 2.9913335438706 -4.949372685822e-11)
(378.08105037957 3.339810554206 -3.16916411767e-11)
(382.67598259663 3.7117087687896 -5.1109077678279e-11)
(387.32691513865 4.0874010260502 -4.0957605386773e-11)
(392.01814954627 4.4745027825051 -5.2051938870252e-11)
(396.72949720558 4.8454256178583 -4.181711930407e-11)
(401.44474992249 5.1902825116994 -5.1818808600181e-11)
(406.12968033842 5.520418898797 -4.9486982256308e-11)
(410.77900456885 5.8251291198065 -5.4045680147577e-11)
(415.38358834607 6.1477056816759 -5.149076582359e-11)
(419.97972724072 6.4613829536246 -5.5491416590476e-11)
(424.57569229789 6.7959855647433 -5.2192298039548e-11)
(429.15632703783 7.1272065366473 -5.6045135628484e-11)
(433.69927482631 7.463381348785 -5.25245331553e-11)
(438.24788878112 7.7934340706034 -5.6358038927032e-11)
(442.70114560437 8.1351373065536 -5.2712994257843e-11)
(447.15774081749 8.4504758229926 -5.6696790561296e-11)
(451.51754601659 8.7579678777339 -4.6594679870909e-11)
(455.78394117727 9.0430520512595 -5.6912062378075e-11)
(460.05837450965 9.326643336108 -4.6574185815009e-11)
(464.19938851203 9.5922862157009 -5.7117801815056e-11)
(468.28092268883 9.8502963159593 -4.7163580483653e-11)
(472.37659086405 10.100298296492 -5.6620952105587e-11)
(476.29331644348 10.323463861266 -4.7137182739806e-11)
(480.08291266542 10.548545091338 -5.1755447747863e-11)
(483.87881574374 10.741352154403 -4.6384356869774e-11)
(487.69229896109 10.961130449347 -5.0670685256415e-11)
(491.3022469152 11.115418017333 -4.5674232647834e-11)
(494.88938779968 11.309851459102 -4.9940331675079e-11)
(498.41538242742 11.470605163575 -4.5428138870451e-11)