/*--------------------------------*- C++ -*----------------------------------*\
| =========                 |                                                 |
| \\      /  F ield         | OpenFOAM: The Open Source CFD Toolbox           |
|  \\    /   O peration     | Version:  2312                                  |
|   \\  /    A nd           | Website:  www.openfoam.com                      |
|    \\/     M anipulation  |                                                 |
\*---------------------------------------------------------------------------*/
FoamFile
{
    version     2.0;
    format      ascii;
    arch        "LSB;label=32;scalar=64";
    class       volScalarField;
    location    "5e-05";
    object      alphat;
}
// * * * * * * * * * * * * * * * * * * * * * * * * * * * * * * * * * * * * * //

dimensions      [1 -1 -1 0 0 0 0];

internalField   nonuniform List<scalar> 
109340
(
0.4788096501255
0.32893817000153
0.1776341279925
0.1485082341523
0.1439266493886
0.14692968085715
0.15252480940039
0.16139107433399
0.14072789452504
0.12520804812404
0.11291901625659
0.10289229013068
0.094537194498867
0.087460594792717
0.081386789675672
0.076115307038898
0.071496312703075
0.067415323567527
0.063783237882209
0.060529595304672
0.057597884873645
0.054942194805824
0.052524771332849
0.050314211953884
0.048284105692301
0.046411986049962
0.044678502018055
0.043066725702614
0.041561519533879
0.040148921093984
0.03881547723206
0.037547297815743
0.036328304585589
0.035136626617796
0.033936364170468
0.032658276439434
0.47324399773138
0.22992198269315
0.16856641630367
0.15425879078854
0.15328996048857
0.15644165924901
0.13957965173119
0.12143853561693
0.1073464800814
0.096189968482103
0.087157268176449
0.079699319940827
0.073439263834791
0.068111141460929
0.063522118829004
0.059529000925803
0.056023231314293
0.052921005567567
0.050156582643421
0.047677622007556
0.045441850989096
0.043414679156695
0.041567481548892
0.039876348191735
0.038321115336795
0.036884609481001
0.035552046421085
0.034310478426249
0.033148280129863
0.032054649325092
0.031019043270722
0.030030333735045
0.029075173267227
0.028134716750315
0.027176947815008
0.02613694138968
0.2780246869007
0.19625550481929
0.16926241967523
0.15854047069124
0.12686857473846
0.1057767666038
0.090488600763309
0.078967917491143
0.07001523795168
0.062887992396839
0.057096744219488
0.052307089866072
0.04828489878857
0.044862398994568
0.041916693053039
0.039355920444196
0.037110145250557
0.035125222501229
0.033358471177404
0.031775500749289
0.030348135649944
0.029053160161218
0.027871526865937
0.026787524254291
0.025788104407925
0.024862349392284
0.024001039960906
0.023196133025387
0.022440487570536
0.021727458966221
0.021050535636618
0.020402720245523
0.019775526355095
0.019156917554999
0.018526723781902
0.017840163559952
0.15987032910346
0.16140297100203
0.10132968008187
0.073782805524622
0.058051861865005
0.047894546394197
0.040815726274323
0.035611960763712
0.031633561434872
0.028499250659424
0.025970635034537
0.023890857435589
0.022152504396818
0.020679652789821
0.019417266241404
0.01832453913795
0.01737058099571
0.016531318741161
0.015785354837188
0.015114145038573
0.014503653023787
0.013943806082724
0.013427301481331
0.012948736476204
0.01250392191006
0.012089494885328
0.011702308550952
0.011339900754146
0.011000030400733
0.01068042308035
0.010378560705147
0.010090987407343
0.0098120568340952
0.0095341166378196
0.0092470168139571
0.008927378063687
0.096333855653537
0.031484765166428
0.019150152356004
0.013891061071112
0.010993694202302
0.0091751904604413
0.0079384884197569
0.0070501602950137
0.0063860875574301
0.0058748011241977
0.0054725374673566
0.0051515523742145
0.0048934839562652
0.0046859767764273
0.0045206257813225
0.0043915515309894
0.0042937618241077
0.0042197320206669
0.0041546365243582
0.0040899422352773
0.0040239908981803
0.0039589408459354
0.0038974514880189
0.0038414078219397
0.0037918831883341
0.0037493957050222
0.0037140734536894
0.0036857458202143
0.003664599077798
0.0036501026934805
0.003641171155681
0.0036365359243831
0.0036342566292999
0.003630875259007
0.0036180068577014
0.0035710961512281
0.00024220610999429
0.00036141978282428
0.00046499039637985
0.00054583094792508
0.00060364313084391
0.00064179175112804
0.000664746227526
0.00067669475657086
0.00068098086610311
0.00068036100478149
0.00067644374393653
0.00067049276518185
0.00066337769873968
0.00065568595614793
0.00064781117628982
0.00064003428036235
0.00063253687258934
0.00062543966056759
0.00061886943861674
0.00061297155525487
0.00060760442348703
0.00060267847179832
0.00059814308966482
0.00059396218907581
0.00059009960045326
0.00058651432514193
0.00058315680590863
0.00057996507943088
0.00057685769678662
0.00057372270962463
0.00057039815189213
0.00056663399694557
0.00056199234904692
0.00055555500070267
0.00054475608929376
0.00051795947043904
0.029508434185399
0.016096225181421
0.008708063753816
0.0053655048753447
0.0035867668337824
0.0024331291782759
0.0016473190678902
0.0011038704146637
0.00074800394625238
0.00054473709975726
0.00044427900238215
0.00043855718841819
0.00039986889874368
0.00036136862084799
0.00031453559910707
0.00026551474243968
0.0002228688966554
0.00018607662736324
0.00015558179787212
0.00013141881977884
0.0001115859811205
9.505432653952e-05
8.0392380896664e-05
6.5019803858153e-05
5.3152330371164e-05
4.3867564538964e-05
3.6540722195493e-05
3.0693353091465e-05
2.6065443564614e-05
2.221656834004e-05
1.9039765859125e-05
1.6545250258896e-05
1.4315909826025e-05
1.2583498912308e-05
1.1020109135099e-05
9.7595702182871e-06
8.6447931642063e-06
7.6916747619863e-06
6.8891364084441e-06
6.1613578575763e-06
5.5643772405855e-06
5.0074513424411e-06
4.5488855082024e-06
4.1191684042337e-06
3.7594224171107e-06
3.4255204719082e-06
3.1372808085831e-06
2.8759542535782e-06
2.6409924714529e-06
2.4327254712968e-06
2.2411273239681e-06
2.0706007480328e-06
1.9146669817969e-06
1.7739975982917e-06
1.6459046174271e-06
1.5291063358329e-06
1.4223833229417e-06
1.3247566492884e-06
1.2353290321461e-06
1.1532335536884e-06
1.1277220330585e-06
7.511324466223e-05
0.00066968764071743
0.00072452066712996
0.00058629844625583
0.00033756328272657
8.5599384757806e-05
5.4656286658012e-05
4.5978033235166e-05
4.0990960839024e-05
3.8442152611467e-05
3.7758338660217e-05
3.8939862259084e-05
4.1105452773537e-05
4.2610155925868e-05
4.3633685431581e-05
4.4890984602176e-05
4.6410863825529e-05
4.7976328663798e-05
4.9491910668984e-05
5.0972383543541e-05
5.2454397460841e-05
5.3955974671482e-05
5.5475529608874e-05
5.6716327300618e-05
5.8565629980636e-05
6.0064828081313e-05
6.1068618453049e-05
6.1641075984164e-05
6.1857464050218e-05
6.1686950145384e-05
6.1202850467715e-05
6.0441635984477e-05
5.9367427006231e-05
5.8017750073055e-05
5.6421513838237e-05
5.4682740450009e-05
5.2813398975069e-05
5.0885971006575e-05
4.8961317591185e-05
4.7017851355235e-05
4.5067504434781e-05
4.3155150648867e-05
4.1332975063418e-05
3.9231270447484e-05
3.7963961533514e-05
3.6578630666361e-05
3.5771301274128e-05
3.53479268541e-05
3.5324650468567e-05
3.5393989162133e-05
3.5416020077681e-05
3.5462475411743e-05
3.5541020380463e-05
3.5633440286671e-05
3.5706944273128e-05
3.569071472059e-05
3.5614844683365e-05
3.5413436183239e-05
3.4644182383646e-05
3.3479901297141e-05
3.2074982518836e-05
3.056650652025e-05
2.9026638161799e-05
2.7594248923611e-05
2.6144026542348e-05
2.5164307921929e-05
2.4482616837138e-05
2.4163616281631e-05
2.4218002649057e-05
2.4607788856619e-05
2.5225176766971e-05
2.605231300199e-05
2.6841079759162e-05
2.7257254888841e-05
2.7592258668843e-05
2.7770527819127e-05
2.7980563055199e-05
2.7060360391974e-05
2.1921523071508e-05
0.022710058889165
0.012416996540277
0.0072942805864887
0.0047935316189335
0.0032391247030937
0.0021813720346564
0.0014631229194456
0.00097875372090921
0.00065403484945062
0.0004451677765403
0.00031477249363677
0.00024079132905344
0.00019752681223073
0.00016611768499303
0.00014397391616375
0.00012736664730801
0.00011413338738417
0.0001035887804491
9.4035687403163e-05
8.5331940792705e-05
7.7522047327266e-05
7.0576524213002e-05
6.4311259134105e-05
5.8691739334235e-05
4.9527713582962e-05
4.098138153235e-05
3.4226857695781e-05
2.8833058434888e-05
2.4481226479746e-05
2.0944666031549e-05
1.8035230416071e-05
1.5628564729431e-05
1.3621944315114e-05
1.1934255229762e-05
1.0511267372593e-05
9.2957943028552e-06
8.2599761167143e-06
7.3653552805005e-06
6.5947981101053e-06
5.923669800814e-06
5.3394015522237e-06
4.8265708698098e-06
4.3763239049687e-06
3.977829487253e-06
3.6257671535796e-06
3.311926953477e-06
3.0329485815618e-06
2.7824284374479e-06
2.5584635562641e-06
2.3563270872661e-06
2.1745541582022e-06
2.0098810167425e-06
1.860596747344e-06
1.7248389526251e-06
1.6012698210319e-06
1.4884918545613e-06
1.3854500767615e-06
1.2910750830425e-06
1.2045002876189e-06
1.1249965468175e-06
2.1809549432597e-06
0.00016836389929718
0.00072367185573906
0.00069508614125534
0.00053382289884757
0.00026059393954827
6.8173404899978e-05
4.9745645073586e-05
4.2183749723877e-05
3.7799590052509e-05
3.5656178366895e-05
3.5339155257939e-05
3.6618944420365e-05
3.8422318598449e-05
3.9507958921391e-05
4.0416444912e-05
4.1615865923148e-05
4.2974263168075e-05
4.4325661509802e-05
4.5635170457163e-05
4.6947634898539e-05
4.8297387460488e-05
4.9693657678709e-05
5.1138169725732e-05
5.3353804953999e-05
5.4607886015119e-05
5.5711968927748e-05
5.654973621353e-05
5.7087681443087e-05
5.7326108913914e-05
5.7241671840427e-05
5.688015332661e-05
5.6238152828777e-05
5.5307889758262e-05
5.4141440353978e-05
5.276724424172e-05
5.1272046919941e-05
4.9663134143247e-05
4.7983606505124e-05
4.626848283113e-05
4.4532450428131e-05
4.2806686450159e-05
4.1119152290002e-05
3.9494771984571e-05
3.7627790464879e-05
3.6406481604057e-05
3.5189989011593e-05
3.4410693455298e-05
3.3963342121201e-05
3.3936256975345e-05
3.3975385848819e-05
3.4012715100243e-05
3.4092834303329e-05
3.4203486784059e-05
3.4330606432961e-05
3.4438696026566e-05
3.4452335575143e-05
3.43997057682e-05
3.4199587506117e-05
3.3455993684864e-05
3.2376686291968e-05
3.1068445698104e-05
2.9650206119961e-05
2.8200388094921e-05
2.681045173408e-05
2.5445816566495e-05
2.4495154760133e-05
2.3841175563625e-05
2.3507838920431e-05
2.3559253707366e-05
2.3942137443115e-05
2.4524678662639e-05
2.5261615425204e-05
2.5911809207685e-05
2.6337886255435e-05
2.6670470593868e-05
2.6880907478004e-05
2.7111579288793e-05
2.6430190016095e-05
2.1465487096111e-05
0.016656130791966
0.008321474600596
0.0050232405115697
0.0033566695441287
0.0022348072231576
0.0015322455756131
0.0010559937010497
0.00073226666851603
0.00051795372655453
0.00037466027650908
0.00028934762023326
0.00022855352296916
0.00018694381626357
0.00015763599347815
0.00013511199039851
0.00011694282565114
0.00010242032358755
9.0379928100058e-05
7.9698858496362e-05
7.0471876178202e-05
6.289425988809e-05
5.6490805433417e-05
5.0997745020224e-05
4.6418856452907e-05
4.2553736029271e-05
3.9179830075126e-05
3.3461338086579e-05
2.8192393076911e-05
2.3940760784386e-05
2.0479971370926e-05
1.7642253335011e-05
1.5289917673756e-05
1.3332253544e-05
1.168550753718e-05
1.0294761811256e-05
9.1127544256265e-06
8.0999625304601e-06
7.2294020257319e-06
6.4748452132608e-06
5.8205531115865e-06
5.2481447231227e-06
4.7476160758775e-06
4.3058190041873e-06
3.9165510597152e-06
3.5707094896559e-06
3.2639111434362e-06
2.989517162921e-06
2.744333543544e-06
2.5238684102161e-06
2.3257069498416e-06
2.1467541651339e-06
1.9850325634517e-06
1.838246655828e-06
1.7047805363363e-06
1.5830956164917e-06
1.4720359438795e-06
1.3705083662758e-06
1.2775116950646e-06
1.192182854589e-06
1.1138104592403e-06
2.0849636545221e-06
0.0001622420477157
0.00072044359405664
0.00069412054702303
0.00053499823251456
0.00026494021875874
6.7176333347825e-05
4.7784766760429e-05
3.9904785121206e-05
3.5360724697552e-05
3.3186322711827e-05
3.2884240320717e-05
3.4083773125009e-05
3.5704163876108e-05
3.6646828775128e-05
3.7418993510652e-05
3.8389109642439e-05
3.9442724968693e-05
4.0480746188196e-05
4.1515101118137e-05
4.2598421269005e-05
4.3772365293466e-05
4.5046123455157e-05
4.6406290025004e-05
4.8708826989473e-05
5.0039982421493e-05
5.1258573160472e-05
5.2229448951742e-05
5.2863006434498e-05
5.3171364872739e-05
5.318509040759e-05
5.2906039671126e-05
5.2342604126848e-05
5.1518339794922e-05
5.0464891921879e-05
4.9236489069847e-05
4.7880858762765e-05
4.6407486083663e-05
4.4886481891454e-05
4.3321185632206e-05
4.1727982745788e-05
4.014841624511e-05
3.8604430475598e-05
3.7118101471295e-05
3.5403725545297e-05
3.4223998622959e-05
3.3168727912667e-05
3.2380094235357e-05
3.1871757814188e-05
3.1991632659749e-05
3.199738578964e-05
3.2040086146291e-05
3.2119966805158e-05
3.2221100840622e-05
3.2350888455187e-05
3.2455458634293e-05
3.2485612195159e-05
3.2462475099796e-05
3.2269467586595e-05
3.1548764074418e-05
3.0564602290967e-05
2.9390253345861e-05
2.8118882721828e-05
2.6811378609063e-05
2.5539235785804e-05
2.4314158522624e-05
2.3390011701892e-05
2.2829147911596e-05
2.2474777514296e-05
2.2577916120314e-05
2.2964922366412e-05
2.3525750495123e-05
2.42175831399e-05
2.492209122724e-05
2.5346814697212e-05
2.5686759251466e-05
2.592840635862e-05
2.6087014894522e-05
2.5320882901448e-05
2.0991822489034e-05
0.008530377580432
0.0046389411850355
0.0028473111860474
0.0018472052177827
0.0012828714902237
0.00092289353845
0.00068679982862653
0.0005277386329488
0.00041528315065438
0.00033907534762374
0.00027694078720006
0.00022680397737998
0.00018745259879837
0.00015662713393545
0.00013263386994653
0.00011422412514519
9.9093486332437e-05
8.6739000295352e-05
7.6143701131834e-05
6.6830852373678e-05
5.8609714787494e-05
5.184567099547e-05
4.6327684769739e-05
4.1600406396087e-05
3.7599893151738e-05
3.4316351492336e-05
3.1526291525684e-05
2.7563688620827e-05
2.3422545004327e-05
2.0045423739191e-05
1.7271713233035e-05
1.4974785619905e-05
1.3056730676772e-05
1.1445815547054e-05
1.0081963539475e-05
8.9237179612405e-06
7.9319430828874e-06
7.0791422172729e-06
6.3417226794907e-06
5.701162296597e-06
5.1423553145649e-06
4.6526575217368e-06
4.2218060845262e-06
3.8414629168748e-06
3.5044248245356e-06
3.2046086939852e-06
2.9367028744802e-06
2.6969548364635e-06
2.4813472955549e-06
2.2874324513643e-06
2.1122338533538e-06
1.9538697609431e-06
1.8101009810235e-06
1.6793246413442e-06
1.5600261586431e-06
1.451105575152e-06
1.3514576984746e-06
1.2601690553114e-06
1.176371925988e-06
1.0993839113966e-06
1.9489107541044e-06
0.00015337280274402
0.00071477968531398
0.00069263191177306
0.00053664266108129
0.00027137532095525
6.6653092573093e-05
4.6252910682018e-05
3.853595313513e-05
3.4310990470127e-05
3.2455460283719e-05
3.2425923979462e-05
3.3764387412148e-05
3.5337538834293e-05
3.6148245191631e-05
3.6723867462077e-05
3.7263836193326e-05
3.769264693433e-05
3.8064810063409e-05
3.8521282438745e-05
3.9171572532127e-05
4.0024963199661e-05
4.109124324383e-05
4.2332297724081e-05
4.440210066847e-05
4.5690119671816e-05
4.6921959010582e-05
4.7935858856565e-05
4.8650839287919e-05
4.8977293564444e-05
4.9061284741099e-05
4.8858889253286e-05
4.83963251121e-05
4.7702878695345e-05
4.6779245531216e-05
4.5695949731924e-05
4.4471629270043e-05
4.3124249257507e-05
4.1734427304781e-05
4.0299313109649e-05
3.8839673204329e-05
3.7383742960549e-05
3.5962915209102e-05
3.4606561353346e-05
3.3044322236581e-05
3.1945110144605e-05
3.0987658515607e-05
3.0243004768033e-05
2.9674114841182e-05
2.9796220797323e-05
2.978870928885e-05
2.9805015079647e-05
2.9899271288356e-05
3.0012356535525e-05
3.0153950267201e-05
3.0260489501283e-05
3.0294699028901e-05
3.0277313525648e-05
3.0093069073449e-05
2.942451550307e-05
2.8543764465307e-05
2.7501669341444e-05
2.6372862113679e-05
2.5213364649755e-05
2.4087118283064e-05
2.2999646328266e-05
2.2130174910354e-05
2.1676580801968e-05
2.132339457097e-05
2.1473940297445e-05
2.1826599472602e-05
2.2322884628522e-05
2.2934931368532e-05
2.3566950744121e-05
2.4067976315122e-05
2.4401357360316e-05
2.4659966792529e-05
2.479254512063e-05
2.3910844635387e-05
1.9833702661667e-05
0.0033438324804071
0.0023408814606698
0.0016342479271838
0.0012423185635551
0.00095879097786128
0.00074762506416032
0.00059519229843883
0.00049101124264547
0.0004108451121132
0.00033337201013811
0.00027803085840182
0.00023167278390677
0.0001932024591546
0.00016187671634128
0.00013607383657972
0.00011512135841144
9.8868149830355e-05
8.5571115242065e-05
7.4250210992664e-05
6.4804781707472e-05
5.6966885027974e-05
5.021403675117e-05
4.4417214492454e-05
3.9689800159748e-05
3.5686661875143e-05
3.2258100401572e-05
2.9367696912468e-05
2.6893729090859e-05
2.2888184739479e-05
1.9611381330784e-05
1.6910299617588e-05
1.4671236080749e-05
1.279864944711e-05
1.1222661504653e-05
9.8888579512948e-06
8.7537555282859e-06
7.7820477603589e-06
6.9453264033788e-06
6.2224534610538e-06
5.5940963337988e-06
5.0461299009294e-06
4.5654309886776e-06
4.1427954909251e-06
3.7692030090801e-06
3.4383532623573e-06
3.1439393996511e-06
2.8814729012122e-06
2.6463221496516e-06
2.4351770988507e-06
2.2450905812953e-06
2.0737402104764e-06
1.9187567593557e-06
1.7781865969812e-06
1.6502906211696e-06
1.5336656298364e-06
1.4270887571984e-06
1.3295665758432e-06
1.2401726677083e-06
1.1580761846537e-06
1.0826474660613e-06
1.7876228815417e-06
0.00014277951617409
0.00070747330924053
0.00069056409835414
0.00053862024800779
0.00027964174517843
6.7569383451619e-05
4.7002430390857e-05
4.0396563380891e-05
3.7358363238226e-05
3.6525203317702e-05
3.7181161165267e-05
3.8782087466692e-05
4.0126922775962e-05
4.0304729179935e-05
4.0085591027358e-05
3.975584063489e-05
3.9226893963828e-05
3.8669305591943e-05
3.8284381726309e-05
3.8049611780559e-05
3.8185314843985e-05
3.8737563779868e-05
3.9631400449574e-05
4.1209868459124e-05
4.2457516469373e-05
4.36305606656e-05
4.4630389212304e-05
4.534045263523e-05
4.572792796313e-05
4.5765483546e-05
4.559730716523e-05
4.5220182501674e-05
4.4626347729801e-05
4.3819871951618e-05
4.2856466923066e-05
4.1722570337739e-05
4.0458703082711e-05
3.9158044010215e-05
3.7808756226811e-05
3.6436303246585e-05
3.5068993225392e-05
3.3733209550184e-05
3.2466317058437e-05
3.1023492342542e-05
2.999766522263e-05
2.9081381470431e-05
2.8392439441896e-05
2.7787286908529e-05
2.7855391385213e-05
2.7817240408762e-05
2.7804384919843e-05
2.7913492710178e-05
2.8040623297258e-05
2.8171532808961e-05
2.8253320034319e-05
2.8262168746616e-05
2.8215091397417e-05
2.800721388838e-05
2.7360635819642e-05
2.6541497493494e-05
2.5595302617002e-05
2.4582624234814e-05
2.3558099968849e-05
2.2563632372096e-05
2.1604160293783e-05
2.082438493615e-05
2.0446960618436e-05
2.0152121655739e-05
2.0309319898508e-05
2.0595558892508e-05
2.1028324133409e-05
2.1551848871765e-05
2.2093512717282e-05
2.2555981425297e-05
2.2946598391558e-05
2.3221605276039e-05
2.3334678062801e-05
2.2504629286008e-05
1.866767189115e-05
0.0011080514926082
0.00097462744030993
0.0010172750349531
0.0010649336888641
0.0011167555237436
0.0009504479291068
0.0007419246574787
0.00056199756766105
0.00044087164272416
0.00035624936619323
0.00029189715752314
0.00024133294154625
0.0002008258546502
0.00016787019038121
0.00014096498142965
0.00011888025781471
0.0001007651788012
8.5909706810587e-05
7.3837151737499e-05
6.3924323940763e-05
5.576101422514e-05
4.9073563995211e-05
4.3515808943416e-05
3.8701752360277e-05
3.4736680219026e-05
3.1319874547264e-05
2.8394091745447e-05
2.5854746203355e-05
2.2318038959287e-05
1.9155143688077e-05
1.6542372417318e-05
1.4365063455472e-05
1.2542679233102e-05
1.1006979118843e-05
9.7053051933377e-06
8.594245621087e-06
7.6429880327978e-06
6.8234818167741e-06
6.1138616138486e-06
5.4971948895461e-06
4.9589444341766e-06
4.4870861018909e-06
4.0715563684154e-06
3.7044636570804e-06
3.3792491548383e-06
3.0900197822746e-06
2.8319501287837e-06
2.6007585929491e-06
2.3932948637187e-06
2.2065232506353e-06
2.0381055583189e-06
1.8857009694909e-06
1.7474896024821e-06
1.6217645874477e-06
1.5072102703818e-06
1.4025639771305e-06
1.306876457399e-06
1.2191798007846e-06
1.1386890464249e-06
1.0647547850166e-06
1.6152932012703e-06
0.00013142249248612
0.0006987111831605
0.00068794649733436
0.00054082687794298
0.00028944778197797
7.1013785649125e-05
5.1697857661458e-05
4.9095333927954e-05
4.9816576464397e-05
5.1536537903547e-05
5.3672513752829e-05
5.5687916672456e-05
5.6034043683524e-05
5.3971013085949e-05
5.1199269156517e-05
4.8676012260192e-05
4.6355484704601e-05
4.4104601695604e-05
4.1951870786125e-05
4.0192018548862e-05
3.9207783530942e-05
3.9059691370336e-05
3.9384962154334e-05
3.997776894947e-05
4.0942490128555e-05
4.1803634373382e-05
4.2563394854402e-05
4.3123363276075e-05
4.3392873589491e-05
4.3373135729603e-05
4.3181404054286e-05
4.2787914828226e-05
4.2249477781336e-05
4.1535735857644e-05
4.0673973466434e-05
3.9612652186036e-05
3.8408767342525e-05
3.7166992386672e-05
3.5881446402659e-05
3.4573626307496e-05
3.3273373808058e-05
3.2003952144305e-05
3.0776316898753e-05
2.9423793904207e-05
2.8462733520962e-05
2.7573921351632e-05
2.6928956245533e-05
2.6315258874559e-05
2.6311116497094e-05
2.6253671261814e-05
2.6183519269593e-05
2.6292091637853e-05
2.6417242274656e-05
2.6520594929187e-05
2.6565443343429e-05
2.652271948907e-05
2.6416733999743e-05
2.6154118728205e-05
2.5503035902057e-05
2.4718465092948e-05
2.3844909228229e-05
2.292334804795e-05
2.2001379755423e-05
2.111358883287e-05
2.0258194998026e-05
1.955766601361e-05
1.9249313410593e-05
1.9067960870839e-05
1.9116916622243e-05
1.9377958601466e-05
1.9729371540435e-05
2.0190942604241e-05
2.0675538089021e-05
2.1159110537284e-05
2.1559780967528e-05
2.193908975845e-05
2.2083227750548e-05
2.1564756625832e-05
1.8939986728922e-05
1.461724486173e-05
0.0001986768548185
0.00028613848808509
0.00038767852992031
0.00047824038735723
0.00055898930875206
0.00063317166414448
0.0006856333928389
0.00052859449386959
0.00041224592594586
0.00032968852461483
0.00026876752010066
0.00022112176830601
0.00018327309119711
0.00015284193629372
0.00012798224629112
0.00010746178951716
9.0762083799605e-05
7.7250999447497e-05
6.6241188669275e-05
5.7300522179716e-05
5.0026532306535e-05
4.4063433232201e-05
3.9210390859592e-05
3.4930157346294e-05
3.1469972604509e-05
2.8496310725109e-05
2.5942623768082e-05
2.2579053093109e-05
1.9381595680508e-05
1.6740791562405e-05
1.4541512119554e-05
1.269774898308e-05
1.1139536166312e-05
9.8198148897043e-06
8.6944240327255e-06
7.729138805899e-06
6.8967658711431e-06
6.1768028615967e-06
5.5511285807716e-06
5.0045359506447e-06
4.5255278656748e-06
4.1041284711511e-06
3.7321343486947e-06
3.4024458301388e-06
3.1093556864757e-06
2.848073961168e-06
2.6143186694316e-06
2.404553116379e-06
2.2157656238337e-06
2.0455919712985e-06
1.8918088152622e-06
1.7524653465349e-06
1.6257768184059e-06
1.5103572916837e-06
1.4050282769013e-06
1.3087973586539e-06
1.2206980084273e-06
1.1398912047936e-06
1.0655945858627e-06
1.0135095747202e-06
5.0141759263391e-05
0.00061493205896505
0.00070577492941101
0.00058716196821083
0.00037083457861304
0.00010352499900147
6.3402737080582e-05
6.6864191982876e-05
7.2720842603039e-05
7.7153447731561e-05
8.0797910673985e-05
8.4225102401947e-05
8.5524446737086e-05
8.2726187380041e-05
7.7318540678267e-05
7.0523478134152e-05
6.324781332317e-05
5.690909793414e-05
5.2149839874457e-05
4.840597952194e-05
4.5454567736934e-05
4.333936718896e-05
4.2055148117284e-05
4.0935694888334e-05
4.1283958025823e-05
4.170759988287e-05
4.1884412330775e-05
4.2032923835252e-05
4.2015947126655e-05
4.177806790272e-05
4.140267588589e-05
4.0933652471011e-05
4.0345414823361e-05
3.966336403747e-05
3.8834818393972e-05
3.7858355306335e-05
3.672379249825e-05
3.554605287731e-05
3.4326606141301e-05
3.3081251016766e-05
3.1838469175187e-05
3.0616090415262e-05
2.9227677999826e-05
2.7416395029489e-05
2.6546347183025e-05
2.5718643775612e-05
2.5089500858971e-05
2.4462675161209e-05
2.4339096753669e-05
2.4221332404822e-05
2.4139494191484e-05
2.4158539713756e-05
2.4274845103737e-05
2.4353214041501e-05
2.4366692824374e-05
2.4299210559723e-05
2.41621347515e-05
2.3853841422979e-05
2.3241560483266e-05
2.2508272493095e-05
2.1729049924818e-05
2.090223924781e-05
2.0101588358064e-05
1.9341253522726e-05
1.8613046050934e-05
1.8136959076504e-05
1.7837747316229e-05
1.7818651721049e-05
1.786142647671e-05
1.8163006921132e-05
1.8478389808095e-05
1.8920595428435e-05
1.9379019734455e-05
1.986637273872e-05
2.0345754523826e-05
2.0820547915367e-05
2.1110938231121e-05
2.3083951394407e-05
3.2213911852186e-05
3.2587526257387e-06
2.2868912211679e-05
4.9078156577468e-05
7.95764026136e-05
0.00011632485360109
0.00015969343320319
0.00020427458214574
0.00025008345817241
0.00029200721995321
0.00032042122249504
0.00032848222413807
0.00027678565889472
0.00022456953766516
0.00018381865991151
0.00015194977355346
0.00012659348172189
0.00010591504478333
8.9065398286294e-05
7.5472860544447e-05
6.4477982682891e-05
5.5531165505599e-05
4.8233961012197e-05
4.22458856438e-05
3.731199392863e-05
3.3258810816417e-05
2.9923481187171e-05
2.6958953456846e-05
2.3862202197584e-05
2.0477393264502e-05
1.7676817999004e-05
1.5344641099314e-05
1.338818928144e-05
1.1737328534644e-05
1.0339184179016e-05
9.1461274806236e-06
8.1228477057543e-06
7.2399603839028e-06
6.4770485508831e-06
5.814037171066e-06
5.2351507656232e-06
4.7275940538887e-06
4.2816347976272e-06
3.8881162867059e-06
3.5397872166342e-06
3.2303086725611e-06
2.9546545710748e-06
2.7085065953764e-06
2.4879043341953e-06
2.2896209302357e-06
2.1109476318997e-06
1.9497418199609e-06
1.8039034143794e-06
1.67161175464e-06
1.5512651889252e-06
1.4415680873e-06
1.3414509753928e-06
1.2498944887511e-06
1.1660563994871e-06
1.0891551148835e-06
1.0184989384016e-06
1.1678627939764e-06
9.5986482786268e-05
0.00066123670517239
0.00067678765169245
0.00054768132319667
0.00032539910814582
0.00010926901513398
0.00010978420851616
0.00012475717158409
0.00013118501783396
0.00013472751985756
0.00013950945409472
0.0001449959887622
0.00014737539975666
0.00014564658730059
0.00014071495707296
0.00013162183900956
0.00011781124011328
0.00010091096752302
8.4491741929628e-05
7.2025620764857e-05
6.423416153092e-05
5.9462194558168e-05
5.6164322456124e-05
5.1972113260428e-05
4.8956893743345e-05
4.5532638073983e-05
4.2851481667063e-05
4.1431444497903e-05
4.0588816465001e-05
3.9775096616134e-05
3.8834756016443e-05
3.7816503576458e-05
3.6870057115906e-05
3.6142520984723e-05
3.525825417783e-05
3.4342206972298e-05
3.3315265389882e-05
3.226915754813e-05
3.114312090684e-05
2.9975391590326e-05
2.8798064000058e-05
2.7641185286242e-05
2.6353411280999e-05
2.4426760819398e-05
2.3677737876294e-05
2.2956380692487e-05
2.237737270241e-05
2.181699684618e-05
2.1602125393419e-05
2.143007899699e-05
2.1450276253052e-05
2.1480365130127e-05
2.1592015098307e-05
2.1724027775428e-05
2.1790205215456e-05
2.1807599616741e-05
2.1786643286928e-05
2.1541671760729e-05
2.1124958659017e-05
2.0554601132215e-05
1.9989331349552e-05
1.9361937371108e-05
1.876239372322e-05
1.8267698070241e-05
1.7734880196175e-05
1.7539790823028e-05
1.7477171331127e-05
1.7566984629898e-05
1.7681691604827e-05
1.8076828916119e-05
1.8550057854681e-05
1.9235876187316e-05
2.0031097067445e-05
2.0932690129774e-05
2.1840926565204e-05
2.2836999238652e-05
2.3516378694136e-05
2.8603810222735e-05
5.167847088465e-05
2.9865225904279e-06
7.6389395340514e-06
1.4856245189879e-05
2.4954228114511e-05
3.8424582142235e-05
5.5253729868477e-05
7.5823365638139e-05
9.9100420408065e-05
0.00012462434691456
0.00015067962079478
0.00017240062954168
0.00018402715486695
0.00018446934296802
0.0001729324939574
0.00015209247534612
0.00012608270505236
0.00010579755285016
8.9293129234777e-05
7.5786279584499e-05
6.4714612871691e-05
5.5699656638576e-05
4.8318389607493e-05
4.2237322119223e-05
3.7212046340688e-05
3.3035397771043e-05
2.9545637185988e-05
2.578941768043e-05
2.2200951003422e-05
1.9195379458249e-05
1.6664162293339e-05
1.4526046267626e-05
1.2719850841483e-05
1.118550020232e-05
9.8781692228333e-06
8.7578510761006e-06
7.7925543520712e-06
6.960811106268e-06
6.2395969011994e-06
5.6116656936978e-06
5.0608196644186e-06
4.5773008335011e-06
4.1508717964128e-06
3.7736627369181e-06
3.4386517820182e-06
3.1403878144917e-06
2.874486776319e-06
2.6365363145043e-06
2.4230570823685e-06
2.230817358824e-06
2.0574755186921e-06
1.9009194530234e-06
1.7591487469426e-06
1.6304374838268e-06
1.5132605503084e-06
1.406449238228e-06
1.3088914183247e-06
1.2196560410381e-06
1.1379158124223e-06
1.0628869456203e-06
9.9389979372447e-07
1.0057038328808e-06
7.1568081547185e-05
0.00062160795021525
0.00066628883302889
0.00055104313685243
0.00035166686288279
0.00015514340289367
0.00016230498561337
0.00017437024411506
0.00017598895332922
0.00017678648509718
0.00018171501475622
0.00018901605075351
0.00019450008482369
0.00019773751429805
0.00019788838872758
0.00019215507848916
0.00017864514197343
0.00015763371415835
0.00013155495543753
0.00010541633627283
8.4931384417666e-05
7.2329147544683e-05
6.5139641807767e-05
6.0384680732274e-05
5.5329501061615e-05
4.9277334949075e-05
4.3835070962426e-05
4.0252396964976e-05
3.84015282168e-05
3.7137503349871e-05
3.5843453857301e-05
3.4437941956395e-05
3.3197313905996e-05
3.2291125595446e-05
3.1308756644041e-05
3.0316238071246e-05
2.9257061243367e-05
2.819610450298e-05
2.7116621381339e-05
2.6023434644044e-05
2.4940516790188e-05
2.3904945199798e-05
2.2797696427797e-05
2.1305091848404e-05
2.0764426838034e-05
2.0302648927006e-05
1.9907777541648e-05
1.9575853014581e-05
1.9418971526107e-05
1.9320514991872e-05
1.9511128370523e-05
1.972784725299e-05
2.000860990083e-05
2.0293521145046e-05
2.057912889019e-05
2.0823094010665e-05
2.0870746343271e-05
2.0808098905935e-05
2.0715508661566e-05
2.0446233226396e-05
2.0208973489334e-05
1.9918661331474e-05
1.9650556377885e-05
1.951208078006e-05
1.9447700138567e-05
1.9704569865573e-05
1.9948112291899e-05
2.0537067696502e-05
2.1128559376034e-05
2.2106232181467e-05
2.3300891365153e-05
2.4845338206491e-05
2.6562771663893e-05
2.8558963300457e-05
3.0601486395242e-05
3.2808643718194e-05
3.469388352388e-05
4.6888190927389e-05
9.7778560569682e-05
2.6719098069244e-06
4.8098958324459e-06
6.7945025031463e-06
1.0916080238497e-05
1.6690795511444e-05
2.4312057576582e-05
3.3960860739739e-05