/*--------------------------------*- C++ -*----------------------------------*\
| =========                 |                                                 |
| \\      /  F ield         | OpenFOAM: The Open Source CFD Toolbox           |
|  \\    /   O peration     | Version:  2312                                  |
|   \\  /    A nd           | Website:  www.openfoam.com                      |
|    \\/     M anipulation  |                                                 |
\*---------------------------------------------------------------------------*/
FoamFile
{
    version     2.0;
    format      ascii;
    arch        "LSB;label=32;scalar=64";
    class       volScalarField;
    location    "5e-05";
    object      cSound;
}
// * * * * * * * * * * * * * * * * * * * * * * * * * * * * * * * * * * * * * //

dimensions      [0 1 -1 0 0 0 0];

internalField   nonuniform List<scalar> 
109340
(
551.46564654111
550.56489671065
548.66301830999
546.31405522418
543.68989247525
540.9350123704
538.0923201859
535.15654428266
532.13139272683
528.91252970451
525.34426092066
521.28753516159
516.5922742704
511.09561005735
504.62762359907
497.01902856887
488.10775476317
477.74876280421
465.82365819361
452.25111055881
436.99548877667
420.07753588713
401.57995119492
381.64754711148
360.48040843812
338.32175529901
315.44006767867
292.10805388573
268.58014262018
245.07129172617
221.73774963008
198.65992223762
175.82891157826
153.15284756048
130.51116277949
107.87200666812
551.68056412168
550.46643040195
548.30812258874
545.78601265882
543.07846852311
540.31107012091
537.50260186806
534.61380331952
531.5682907126
528.26855973405
524.58869207762
520.38830472185
515.51266990024
509.79549122715
503.06517543604
495.15154260942
485.89622610675
475.15944488664
462.83036820882
448.83754989392
433.15832970497
415.82827187364
396.9458844837
376.67100109122
355.21647223207
332.834426511
309.79738198558
286.37641856156
262.81879986436
239.32688630182
216.03901037839
193.01025966594
170.1930349587
147.43666515888
124.4859639049
101.30792181647
552.2934101187
550.85800122576
548.46421926699
545.87889241536
543.19655197278
540.47192221563
537.68259373974
534.790950699
531.74043134846
528.43662701878
524.75633829099
520.55820406556
515.68625791031
509.97340504939
503.24780206567
495.33991797233
486.09063292121
475.35990629029
463.03611323897
449.04713651184
433.36899357966
416.03639639597
397.14713591214
376.86083557917
355.39037796838
332.98838791717
309.92834826084
286.48274724394
262.90030809125
239.38448912102
216.07397354904
193.02004289866
170.15368857451
147.2597598008
123.91697362267
99.664705631691
553.1463603272
551.37758309202
548.85577355774
546.19322430088
543.45602803101
540.67194968881
537.83796325589
534.91934144902
531.85318307683
528.54312535554
524.86574644547
520.67816525936
515.82232476902
510.12922588795
503.42471499093
495.53676953913
486.30404716842
475.58428108924
463.2629609521
449.26611310312
433.5663788759
416.19696842748
397.25507823392
376.90082808547
355.34942995376
332.85673376664
309.70064057286
286.15876312854
262.4851789163
238.88793232585
215.50902849382
192.40078590162
169.46932876419
146.42202435734
122.59278649007
96.664563602763
554.48783836779
552.13412406035
549.21789373951
546.36151478105
543.54499939586
540.73244429649
537.8927823573
534.98543731394
531.93869390468
528.65164468783
525.00042118216
520.83958242011
516.00657264371
510.32644715864
503.61719211553
495.6973898841
486.39547170696
475.55859941522
463.05372311936
448.80539279124
432.77540604808
414.99726949609
395.57413381715
374.67944593196
352.54965895071
329.46677276699
305.7389134924
281.67485386163
257.55822835901
233.6225122251
210.02713175606
186.85036042977
163.98142590193
141.07484997039
117.20738125085
89.674597174575
556.97864646127
552.53477849949
549.30347648849
546.38330062621
543.5627917166
540.75576451239
537.91425750498
534.97147047272
531.82981919841
528.35153429501
524.36684507018
519.67590901994
514.05584992679
507.2692775307
499.07593811207
489.24800834737
477.58950056018
463.96468238622
448.32772367233
430.60945169222
410.90489203285
389.40667307257
366.40414173014
342.26636086707
317.41209040552
292.27351329784
267.26055644057
242.72893565202
218.9559113718
196.12586638935
174.31872358515
153.54476519331
133.61032798677
114.13685245696
94.195171651357
70.21327588717
86.159768174898
67.723635591574
54.010780443325
44.658056032869
38.51496188239
34.351200224622
31.542095945494
29.716261273453
28.631058010979
28.121284871603
28.038779977017
28.369185339305
28.97222529459
29.749215613232
30.650422495852
31.607390917495
32.580291892348
33.539065776055
34.463892072511
35.344706726026
36.175925701163
36.954668470034
37.68189836631
38.36020289802
38.992324062584
39.581378332332
40.130917845105
40.644087684443
41.12483024535
41.574278203609
41.995674685607
42.393376312331
42.766000809154
43.119190446995
43.45161491404
43.767092666256
44.065672419891
44.349072110346
44.618973073915
44.875256493581
45.120347106081
45.353503395275
45.577062310006
45.790312979793
45.995181379536
46.191198675924
46.37969294835
46.560621979299
46.734694793434
46.902329498108
47.063715191527
47.219401174272
47.369593424552
47.514674257742
47.654846330836
47.790387620887
47.921549102233
48.048561624151
48.171671268137
48.291078877831
48.406704408546
48.669666371204
49.626664668987
50.382876348905
51.347329537397
52.60710477735
53.776793265296
53.844799530742
53.817977494814
53.793376805648
53.770885007738
53.751722145494
53.739151127599
53.731376645088
53.72141389221
53.710617429925
53.703232020111
53.699232603548
53.696611789228
53.694056627366
53.691209560876
53.688081463689
53.68484316189
53.681781450145
53.675433483209
53.672725486673
53.670588567699
53.668898243206
53.667454713534
53.666203383977
53.665184479874
53.664799982794
53.664292065357
53.663484286819
53.662717009396
53.662183149805
53.662058848321
53.662130785017
53.662495975209
53.663256758259
53.664293817693
53.665650462631
53.667489081125
53.669956496107
53.674356542917
53.679505890558
53.684333278321
53.691749933568
53.701524693715
53.713533666953
53.72520762816
53.736479528315
53.747280761935
53.757902537291
53.768480441552
53.778395186513
53.787641470605
53.796076342073
53.802872911471
53.806105531943
53.806702920862
53.805603682702
53.803663318682
53.801496300901
53.799729685917
53.798108289136
53.799148669233
53.803734743295
53.810285362818
53.820445322241
53.832494949089
53.845974045361
53.860187590443
53.873242776078
53.883179219108
53.892480677654
53.899955797589
53.909338090996
54.024513450968
66.388495391803
78.929295119829
60.984328506501
48.712713498534
40.893498709889
35.775308445286
32.430526795529
30.251161977962
28.914556160631
28.204234601623
27.973265623252
28.116252363111
28.546892108307
29.225333324364
30.045712146943
30.952050652971
31.904946635837
32.864472003545
33.806102837531
34.71335274821
35.575904947704
36.388902433391
37.151146318159
37.863289860129
38.527426675262
39.146476000615
39.723911736904
40.262906257544
40.766679406457
41.23822109276
41.680332765094
42.095416271436
42.485892030898
42.853830878146
43.201088892233
43.529448886045
43.840298163449
44.135171016073
44.415176733968
44.681559260984
44.935235127118
45.177185982381
45.408199193342
45.629080667749
45.840475761522
46.043072383306
46.237387815447
46.423999810975
46.603322709748
46.77586479908
46.941977224816
47.102066994511
47.256441373042
47.40544276966
47.549355929382
47.688444808807
47.82294892296
47.953141407249
48.079251148622
48.201451368949
48.319944846374
48.435084879509
48.907343146766
49.805548726436
50.588389277772
51.621099428763
52.939715754217
53.832354393777
53.825321810034
53.795511947408
53.767991228453
53.743315544346
53.723372247365
53.710199082123
53.700579436206
53.688568653534
53.677625911542
53.670820866455
53.666938994906
53.663950459632
53.660847508983
53.6574011904
53.653645147724
53.649777237649
53.646107304635
53.650950159875
53.648399325078
53.646278281039
53.6444900796
53.642978554126
53.641707684865
53.640847339068
53.640602222547
53.640101116137
53.639462556399
53.63904276353
53.638947205434
53.639303817084
53.63982959798
53.64067272029
53.641906767435
53.64341771641
53.645260099325
53.647586579107
53.650501136953
53.655410656708
53.660780468306
53.666159321709
53.673635536963
53.682851722637
53.694980611612
53.706725269369
53.718254886404
53.729310237156
53.740086016826
53.750714953384
53.760664029879
53.770008872741
53.7783940136
53.78517544368
53.788460985292
53.789354821546
53.788590863799
53.786935307274
53.785014099554
53.783433519623
53.781981014722
53.783013095761
53.787720838824
53.794041900403
53.803696110923
53.815439936674
53.828416219263
53.841721672427
53.853839642427
53.863688799023
53.87274408776
53.880107352442
53.888908022693
54.002114272558
66.406970336209
75.124326897582
56.032905465059
44.628775342076
37.713052756032
33.376429028086
30.702647182805
29.118253465315
28.232811548963
27.858214488357
27.843746522939
28.178172549477
28.714175501351
29.419967659692
30.243982516935
31.139805037219
32.070852388741
33.007247793411
33.927229481434
34.814950098394
35.660423274666
36.4592460789
37.210040894413
37.91276189724
38.569187562225
39.182170493691
39.75450983444
40.289084179802
40.789168631565
41.257589772398
41.696995358271
42.109863952589
42.49836187713
42.864653885804
43.210479182513
43.537557891781
43.847364921868
44.141251258764
44.420486826845
44.686114493251
44.939204218521
45.180593014347
45.411174374154
45.631630492937
45.842713274287
46.044984823987
46.239068964403
46.425429845595
46.604587449872
46.77693676031
46.942913150964
47.102857063269
47.2571280944
47.406028244586
47.549866309363
47.688893969277
47.823358149951
47.953516841677
48.079591144832
48.201751898058
48.320217946294
48.435351790362
48.897570724249
49.796815363585
50.57554207905
51.600559185297
52.908853219941
53.818382867138
53.808379347591
53.773764912911
53.742228846959
53.714282634527
53.691777849777
53.676314427337
53.664605474001
53.651098313023
53.639338517582
53.631882481087
53.627284426874
53.623529415384
53.619662938126
53.615432789238
53.610834435025
53.606074863914
53.601490695829
53.608800756249
53.605331001556
53.602475895598
53.60016037744
53.598340901695
53.596885240862
53.596149097607
53.595916513777
53.595428915544
53.595048985125
53.595123573757
53.595681395131
53.596649458378
53.597736279568
53.599254641891
53.601098317985
53.603259845157
53.605829531107
53.608899602061
53.612535302375
53.618155855691
53.623981988552
53.630423020145
53.637775850483
53.645732793557
53.659647572517
53.671560135979
53.683157200834
53.694232176183
53.705048371041
53.715580240331
53.725495497575
53.734834025734
53.743052935654
53.750113258975
53.753141267854
53.754026958244
53.75346576225
53.752189433846
53.750729212134
53.74970372488
53.748491342879
53.749946620918
53.754700147515
53.759808400856
53.769688383885
53.780954575421
53.793128298813
53.805418983422
53.816309707298
53.825385272943
53.833231275231
53.839703225437
53.844957945881
53.946360719139
66.092999835308
68.092321595111
48.142519797193
38.428944202657
33.038410107407
30.239536042121
28.675131784431
27.871038075145
27.558362152052
27.581414745626
27.829210636192
28.350772333012
28.9704720277
29.697892150335
30.51328845667
31.383616119168
32.285975716732
33.19355895483
34.085334932467
34.948076641198
35.773002353843
36.554366212129
37.289851590112
37.980404591561
38.627043926961
39.231691082134
39.797116920567
40.326256381292
40.821650003109
41.28604303612
41.722033103177
42.131970858264
42.517992982189
42.882075734768
43.226034749878
43.551427133445
43.859782372305
44.152384074346
44.430458358891
44.695081716881
44.947243866132
45.187840842316
45.417675160788
45.637499024196
45.847987354165
46.049750474481
46.243351330001
46.429296846525
46.608070575568
46.780080811798
46.945744389931
47.105410487286
47.259432194055
47.408111847591
47.551752264141
47.690610482396
47.824931306081
47.954961077276
48.080913416572
48.202954612323
48.321317888712
48.436346115789
48.884174199061
49.784773322916
50.557654238214
51.57174949441
52.865401009769
53.799398107443
53.787470756086
53.747484561017
53.711810237664
53.680854227075
53.656358345528
53.639346821811
53.626285565557
53.61207385863
53.60016450161
53.592436451439
53.587145003417
53.582418442828
53.577475426819
53.572121605628
53.566380485664
53.56049399155
53.554826559716
53.561119265676
53.556810740333
53.553238778047
53.550436264243
53.548382205756
53.54693533957
53.546423733696
53.546157386236
53.545813851944
53.545818872069
53.546392844524
53.547557748937
53.548965956856
53.550432209712
53.552353339495
53.554568408284
53.55712797492
53.56013798537
53.563637746192
53.567754909523
53.573867016285
53.580034358844
53.586774061469
53.594498072472
53.601675046702
53.615708101527
53.62771492088
53.639078956433
53.650214875826
53.661132461749
53.671464898776
53.681279571799
53.690267027134
53.698042342634
53.704766928524
53.707400665372
53.708221473771
53.707864550621
53.706914036399
53.705913635873
53.705334955463
53.704450018608
53.706226054027
53.710794056033
53.71516024682
53.724771569133
53.734298240429
53.74472018458
53.754902535255
53.764439834827
53.772470466268
53.779129767641
53.784851083502
53.788121954839
53.884436505416
65.895735245468
53.390172143077
36.644456642631
30.668875770343
28.200837730785
27.283498071786
26.949054931023
26.983104256263
27.201631677943
27.603603264861
28.096858837118
28.673689085324
29.328750332273
30.058936131307
30.853062125482
31.691805751923
32.553898096547
33.422617497556
34.280364837897
35.113089478008
35.911850938992
36.671556090724
37.389690404298
38.065064274932
38.699150970921
39.29371064987
39.85081844364
40.372816330288
40.862399098109
41.321875837807
41.753688943947
42.160039515344
42.543030406517
42.904497398809
43.246163813972
43.569586183671
43.876188357458
44.167261057732
44.443965292911
44.707388303768
44.958462533665
45.198085498548
45.427036429673
45.646069873865
45.855828747167
46.056938785506
46.24993519827
46.435345622789
46.613616357158
46.785182487091
46.950425976072
47.109721313676
47.263395032743
47.41176110948
47.555111079866
47.693711044577
47.827798440119
47.957618464617
48.083370073384
48.205221439527
48.323418728178
48.438257995717
48.867457722145
49.769609220582
50.535179280704
51.53565381384
52.811176041826
53.775620465728
53.763618029933
53.71670762902
53.675599876192
53.641051201002
53.614903979262
53.597494046017
53.584876179831
53.572313657645
53.562536156579
53.556345732124
53.551714862455
53.546884501783
53.541134158878
53.534549601908
53.52743561056
53.520195633304
53.51327077236
53.517488260957
53.512365727718
53.508127794041
53.504865873899
53.502607008447
53.501309984128
53.500917101242
53.500585023435
53.500519899744
53.500993219417
53.502096158662
53.503680986545
53.505243145851
53.506754754174
53.508718975357
53.510936955023
53.513514639325
53.516567696666
53.520119365901
53.524256420415
53.530477238644
53.536565054442
53.543291774197
53.551058412103
53.557581263169
53.571055865745
53.582936290664
53.593792269371
53.604726700902
53.61538615101
53.625150726886
53.634345120282
53.642397569795
53.649435338008
53.655494964459
53.657546178766
53.658070627904
53.657748428187
53.65698208325
53.656323717917
53.656043031121
53.65541023933
53.657368954811
53.661528696143
53.665635532913
53.674034424423
53.681625000926
53.690765563785
53.700158649745
53.70911868527
53.717183998174
53.724199343098
53.730476340495
53.732456333332
53.822865026084
65.479389561726
26.704683395457
24.530060169829
24.771952332288
25.312698972254
25.859643002553
26.365285467702
26.868352630073
27.397763485246
27.943846986609
28.511976368475
29.123577480251
29.786588705787
30.498874028425
31.257116878114
32.052277363262
32.869660712015
33.693811348162
34.510453813743
35.307685311448
36.07653093242
36.810995914839
37.507830854477
38.166165540116
38.785738114298
39.36810407939
39.915119575702
40.428833419296
40.91130951473
41.364836187303
41.791645623045
42.19377614772
42.573093170399
42.931433602891
43.270406410014
43.591489579636
43.896015908966
44.185286084749
44.460416085757
44.722424604967
44.972252695494
45.210748174553
45.438696585169
45.65680630328
45.865737029567
46.06608869916
46.258403591682
46.443183365487
46.620880721241
46.79192257197
46.95668717904
47.115539714396
47.268803788716
47.416795142917
47.559800622309
47.69808175495
47.831874267817
47.961425547653
48.086920081434
48.208535716749
48.326524558912
48.441103877161
48.847528055075
49.751508722485
50.508581280422
51.493355198373
52.748300507485
53.745748137812
53.734871237319
53.677091846573
53.627979903872
53.588550302808
53.560185055953
53.542465128745
53.531229482809
53.522634948101
53.518460963822
53.517693702514
53.517084354397
53.514597789641
53.509804016738
53.502894670199
53.494648475197
53.485919149
53.477486045846
53.479333587899
53.473220537148
53.468122777168
53.464268359012
53.461827017267
53.460635321207
53.460205394944
53.459967280026
53.460399364338
53.461465986912
53.463151438355
53.464987880374
53.466505755813
53.467874646078
53.469648009658
53.471657937773
53.474031204154
53.476908259453
53.480306486639
53.484094488066
53.490514441904
53.496137488292
53.50253762911
53.510048424132
53.515711117891
53.528185609081
53.539434074573
53.549443202857
53.559778114838
53.569806302897
53.578862171858
53.587024948237
53.594171015803
53.600590288244
53.606190793968
53.608028256135
53.608575894935
53.608520424868
53.608014880215
53.60759117261
53.607478777981
53.607088352711
53.609288142368
53.612840564832
53.618197073003
53.624447162594
53.633528649311
53.642894928987
53.653103305232
53.6629680562
53.672626059195
53.681763438092
53.690745093429
53.69373514825
53.765266177358
62.725588656077
26.025576524675
22.915713440241
24.12163837807
25.124792018057
25.948871889513
26.646965246176
27.243810652182
27.813810590072
28.372613980307
28.941311204316
29.535410575013
30.164349274613
30.83004576095
31.532684117706
32.269167160678
33.030949482981
33.805140843183
34.579630566927
35.342187719867
36.083671937571
36.797420963744
37.47903082812
38.126156789108
38.738292771728
39.315613758275
39.859117565669
40.370848415011
40.852472439589
41.305912408353
41.733040448574
42.135960196935
42.516405670232
42.87605272725
43.216406016392
43.538985770577
43.845072964228
44.135879669675
44.412523084853
44.676048743254
44.927367449538
45.167294160851
45.396617276674
45.616056288597
45.826267190876
46.027837443366
46.221316813491
46.407211513333
46.585982415829
46.75804765705
46.92379083525
47.083576357679
47.23774069123
47.386595068658
47.530420445257
47.669491968237
47.804052645863
47.934310606552
48.060495283472
48.182834622331
48.301457833517
48.416442550353
48.613084241071
49.546183534117
50.276757298848
51.178245721806
52.349748024198
53.582676060669
53.719475592942
53.645505210119
53.587189072059
53.5416049602
53.508070093688
53.486363044823
53.473025643369
53.464529102235
53.462922506817
53.467816175485
53.474924041377
53.479950680486
53.480541233916
53.476536403249
53.46902378457
53.459404000213
53.449181845433
53.446191697056
53.438881936854
53.432783464655
53.428221315205
53.425526644179
53.424252230878
53.423648082675
53.423628286971
53.424572024475
53.426178743547
53.428237195217
53.429982782327
53.431253320002
53.432338360056
53.433773662811
53.435475001229
53.437563448524
53.440172945295
53.443325968289
53.447014320159
53.434210647377
53.439486645123
53.445413922463
53.452437168142
53.457742149224
53.468878610612
53.479290137961
53.489162149652
53.498815875147
53.508895636511
53.51823251966
53.526826615422
53.534362148561
53.541007369066
53.545874517843
53.547181184309
53.547011976777
53.546674280328
53.545953084096
53.545606677112
53.5459569445
53.546784506999
53.550282518457
53.555428705956
53.563404551337
53.571780281164
53.585314826084
53.600286163638
53.619780960973
53.642648941881
53.670075951103
53.702176056563
53.738960594152
53.776910066844
53.740805052411
46.304753616301
34.359004305254
28.769316933437
28.481185972559
28.499456359476
28.671808441045
28.92967582526
29.261711834862
29.666343088586
30.082080564572
30.541067510995
31.038334311438
31.569581661676
32.134789877125
32.733177917485
33.362266971977
34.016720644462
34.687609071045
35.364690484687
36.038934718514
36.701191884421
37.344621638056
37.964538594606
38.557947723593
39.123319228372
39.660242806534
40.169095681705
40.650655637476
41.105836279373
41.536215276772
41.943366855594
42.3286871837
42.69354281978
43.0393375265
43.36747492592
43.679132838226
43.975449559807
44.257460707549
44.526214314506
44.782606110676
45.027467930291
45.261548250557
45.485552880308
45.700132234027
45.905893116593
46.103369099845
46.293072879903
46.475477427603
46.651006144104
46.820057048409
46.98299551612
47.14017092334
47.291899725154
47.438481059321
47.580184108122
47.717251912639
47.849935739433
47.978445034366
48.102951403994
48.223680085376
48.34086072754
48.454478695624
48.76912414898
49.681351304877
50.408723561569
51.339624791643
52.530187108242
53.598828296653
53.625490993695
53.548643658288
53.489277843292
53.441141376743
53.40438881951
53.378032568061
53.3590811799
53.348279747769
53.348205147688
53.357742491133
53.373850298992
53.39255398564
53.4085782578
53.416751413033
53.416183818403
53.408652335472
53.397123139845
53.392255929246
53.381784489107
53.37326725534
53.367340611072
53.364066282628
53.362479980009
53.361527683144
53.362060238402
53.363312325364
53.364903701497
53.36626365814
53.36657457993
53.367018787396
53.367329985347
53.368046285272
53.369158653909
53.370711477908
53.372766303203
53.375394610813
53.377948701011
53.368734302526
53.374430339934
53.380723731
53.387374688022
53.393179012545
53.40325981902
53.412852028504
53.423474508732
53.433960832881
53.444947607027
53.456009621146
53.466710334605
53.476819440992
53.486880349695
53.494323212248
53.500587978264
53.505762058747
53.512575145773
53.519941812046
53.528926848187
53.540358404573
53.55432578435
53.573566419379
53.598252789061
53.63482549303
53.683091741734
53.750556388612
53.836520565188
53.946962698966
54.082478447973
54.244760433059
54.432781266285
54.645339093651
54.872184406809
54.984394120453
43.020864198694
37.810774835702
32.613917290713
31.940615502215
31.636859872863
31.488851430163
31.443224035583
31.498174631605
31.642874488895
31.869766598206
32.168435464484
32.506732213591
32.895057245285
33.334175958094
33.816568719313
34.330797626689
34.874573137092
35.441137205401
36.022182086797
36.609347713585
37.195027887254
37.772342787159
38.335306951809
38.879893959765
39.403526947793
39.90480326999
40.383204279126
40.838701673147
41.271768314334
41.683241906815
42.074017073021
42.445166771537
42.797871534119
43.133155057862
43.452106764904
43.755724904482
44.044948725758
44.320752972077
44.583965756833
44.835427413086
45.075862795242
45.306035546656
45.526564227199
45.738026653605
45.940988524564
46.135958971427
46.323401531784
46.503751633732
46.677417267989
46.844759823254
47.006139091669
47.161885540403
47.312301464028
47.457673837821
47.598255295979
47.73429767403
47.866037668866
47.993650717706
48.117339002263
48.237334546021
48.353801235441
48.466692348619
48.7152442562
49.621983615443
50.329259961362
51.221493490474
52.371856159399
53.462412615369
53.575203294891
53.503327816585
53.440458083549
53.385570630364
53.339454381529
53.301441590048
53.270481525353
53.249547826743
53.241274760326
53.245221806126
53.259708073955
53.282674405433
53.310352815488
53.336153512637
53.352041107281
53.354497806187
53.347882329285
53.344219844461
53.331499551565
53.321119545616
53.31467911486
53.311810914694
53.31024565911
53.310085761124
53.311284661642
53.31188270148
53.312609072197
53.31222274403
53.311326179868
53.311220897638
53.311479546759
53.312482418067
53.314013265314
53.315912519387
53.318144695041
53.320840548019
53.322431518393
53.319897620673
53.326817115506
53.335158490351
53.344371229152
53.355746411535
53.371657547216
53.390847157814
53.41647248455
53.447419150986
53.484985619647
53.528705217785
53.577979500692
53.630466625118
53.684992212559
53.739142937759
53.79813150587
53.859040156023
53.925263638071
53.996688638475
54.075261232989
54.165610405199
54.269925435761
54.400121356025
54.557691719288
54.766140296393
55.028230869076
55.362368039754
55.770886761841
56.265810994509
56.844774819624
57.505861557504
58.231814958717
59.005250216662
59.802492120711
60.429551664889
47.124844600646
40.340215321741
35.201025033792
34.413653230042
34.021198379244
33.763759692573
33.605194271729
33.515627639869
33.515321893522
33.598078509093
33.739000891794
33.958481056992
34.224760242742
34.534468505982
34.897437360448
35.3068477017
35.749511190649
36.219665403717
36.71137392466
37.216234741131
37.72701564038
38.237398721283
38.742182975599
39.236211194077
39.7161768799
40.179817220197
40.62571334711
41.053213902533
41.462165816036
41.852742827165
42.225408435114
42.580838578845
42.919800906438
43.243054865096
43.551406744488
43.845742404699
44.126844742
44.395476136927
44.652333877841
44.89806403335
45.133426263604
45.359028247267
45.575469501262
45.78323696215
45.982842702285
46.174815010294
46.359560370586
46.53745610113
46.708874656985
46.874181519183
47.03370811832
47.187750387795
47.336601126907
47.480521894849
47.619765396671
47.754584828986
47.885184386917
48.011737170239
48.134468209989
48.253573190105
48.369168555637
48.481308728376
48.671784190895
49.55221350673
50.241827607955
51.092194714545
52.199684367121
53.308931953873
53.544446832616
53.493790311541
53.431866629076
53.372209729393
53.31589228276
53.2633299976
53.215707142502
53.178100635575
53.15408870373
53.144860615464
53.150429817849
53.169387598443
53.199382447276
53.234818707135
53.266923273596
53.284863112708
53.286512875163
53.288957955019
53.27797773578
53.268533954623
53.263811939747
53.26206743579
53.262249886441
53.264188899392
53.265705603274
53.265707331939
53.266682468159
53.266628757778
53.268315825296
53.269870138105
53.271520254249
53.274083529154
53.277892785126
53.283212844336
53.290093631132
53.298639254761
53.312129105219
53.384131652234
53.419253733065
53.462426155274
53.513902009981
53.579608084954
53.662903036821
53.766903088187
53.897637115437
54.057252105567
54.248542384516
54.467178048914
54.712195827432
54.971278600717
55.24446040473
55.525540915211
55.819433020507
56.121024494506
56.429206803011
56.748947876774
57.087249708232
57.460432145448
57.880038779093
58.374911784844
58.945739579758
59.634600397254
60.435152612254
61.370889971678
62.437540125079
63.650800012466
64.973172875728
66.370301694734
67.812045682637
69.263030676262
70.721508477993
71.768063164829
59.671039058558
42.59741502556
37.116174730428
36.280259623295
35.852474046555
35.562776643613
35.356028777405
35.211817768232
35.133009919995
35.122933933914
35.176868504725
35.281191514587
35.464764674145
35.691015333379
35.947795822586
36.2577590806
36.610750736781
36.996867632462
37.40732638437
37.836293292226
38.277989717349
38.725437035568
39.173166162296
39.617064499087
40.052952696916
40.478016935427
40.890386091155
41.288778801884
41.672394782215
42.040899764565
42.394300795601
42.732861563689
43.056989514644
43.367202900313
43.664090029379
43.948250481029
44.220280158297
44.480829950633
44.730543553065
44.969938645679
45.199591719266
45.420056507514
45.631825671929
45.835438449228
46.031287543414
46.219810314827
46.40144469269
46.576521222904
46.745376816823
46.908344708555
47.065724613517
47.217805026135
47.364840321556
47.507085533291
47.644786011359
47.778175880614
47.907436589705
48.032771503758
48.154389217278
48.272422661813
48.387011563673
48.498326774815
48.646529983055
49.471959971091
50.148156141908
50.951430489595
52.006565557453
53.129315074944
53.520150771068
53.516358660913
53.467696985441
53.41076928365
53.346875430972
53.277661934901
53.207906734539
53.145141534605
53.096220353608
53.065671183679
53.055821224633
53.065954787506
53.093362306054
53.132761999292
53.175308789603
53.20718926537
53.220190963083
53.228209778684
53.222059871607
53.215709697971
53.213640677757
53.215226611253
53.218945375155
53.222364239457
53.224995139964
53.227978675347
53.23205334659
53.235657280182
53.245147250231
53.261823064756
53.287516978743
53.321911089557
53.364973084375
53.416351307933
53.475943058074
53.544189022462
53.640864152519
54.117825887641
54.306517618419
54.52878671169
54.7866373341
55.096868152074
55.463542795298
55.897224978617
56.409210801639
56.993972163627
57.643883072097
58.344321860345
59.08187916772
59.844433814404
60.621964486765
61.410445649026
62.195702507172
62.972233925522
63.728277414487
64.483295141384
65.258021900239
66.078851886282
66.970562321178
67.965727295824
69.062016523794
70.279152921482
71.612332329198
73.064932527684
74.628196245416
76.281254145685
77.991272793536
79.714307723172
81.425826409034
83.070930693804
84.757894965455
85.189566124087
69.443998259445
44.970686358742
38.61134620605
37.765185261601
37.312245248524
37.012706393283
36.788708353382
36.624583499497
36.507200884955
36.444383648652
36.441260380131
36.486436599292
36.582269481863
36.738326749938
36.937441560431
37.169266627242
37.440602843087
37.751309871724
38.092042617283
38.455070040227
38.833504684631
39.222723617505
39.61768371451
40.013447858961
40.40649737178
40.793570552019
41.172278769191
41.540948145075
41.898498487574
42.244181754192
42.577552020124
42.898481343186
43.20705881866
43.50352624546
43.788212711053
44.061518043539
44.323897234833
44.57584249177
44.817834668623
45.050308191175
45.273720914791
45.488559272057
45.6952572049
45.894272498349
46.085952835808
46.270657786958
46.448791363679
46.62071118709
46.786709045178
46.947069556532
47.102044973383
47.251910637721
47.396927251359
47.537310213352
47.673287197494
47.805064206907
47.932820380837
48.056791309839
48.177119447981
48.293934498022
48.407444131433
48.517837135235
48.640525930037
49.380413948273
50.051583160978
50.801594745451
51.789120564222
52.905403332063
53.476924756189
53.561972916
53.548302371638
53.50754986704
53.44168161798
53.353686037792
53.253412045387
53.154551550726