/*--------------------------------*- C++ -*----------------------------------*\
| =========                 |                                                 |
| \\      /  F ield         | OpenFOAM: The Open Source CFD Toolbox           |
|  \\    /   O peration     | Version:  2312                                  |
|   \\  /    A nd           | Website:  www.openfoam.com                      |
|    \\/     M anipulation  |                                                 |
\*---------------------------------------------------------------------------*/
FoamFile
{
    version     2.0;
    format      ascii;
    arch        "LSB;label=32;scalar=64";
    class       volScalarField;
    location    "5e-05";
    object      dydt;
}
// * * * * * * * * * * * * * * * * * * * * * * * * * * * * * * * * * * * * * //

dimensions      [0 0 -1 0 0 0 0];

internalField   nonuniform List<scalar> 
109340
(
0
0
0
0
0
7.6574081312675e-05
0.0027294388455195
0.012371421895555
0.032136586036529
0.064598543156279
0.11274198891863
0.17943724381229
0.26762327161844
0.3805508204079
0.52200088609816
0.69651293983158
0.90978895433987
1.1691008873918
1.4838535493701
1.8662401847342
2.3322109286838
2.9023541843759
3.6033106165454
4.4698938895082
5.548314799562
6.9009104155322
8.6136585484719
10.808367269283
13.663569439168
17.451632959968
22.608737910947
29.875071036462
40.592605594934
57.357694247768
85.496926279382
136.66989688548
0
0
0
0
0
0.00027296503011376
0.0039997315136748
0.015130584081925
0.036910123531747
0.072237396550591
0.1239669976749
0.19495244021987
0.28819150858133
0.40704716798349
0.55547365167082
0.73832818987766
0.96161505775221
1.2330745779514
1.5627567604903
1.9637268252442
2.4530014079042
3.0525451910667
3.7908004725415
4.7050574103361
5.8449920527803
7.2779483925682
9.0973598371658
11.436669679713
14.493319168874
18.572157185934
24.168758654269
32.142138648985
44.098531706979
63.281670229028
96.992326390676
161.82887774643
0
0
0
0
0
0.00020626294498249
0.003577780961511
0.014198353754843
0.035429076010381
0.070255308157176
0.12155140834433
0.19220160879846
0.28523800548466
0.40404470343457
0.55256471899382
0.7355718987974
0.95903480969443
1.2306237897102
1.5603522621433
1.9612400911306
2.4503199593109
3.0495212829208
3.7872684489017
4.7007933186239
5.8397688841455
7.2715266896615
9.0894843845923
11.427038464827
14.481610662301
18.558327236888
24.153913311389
32.13493066119
44.153914490668
63.679736792881
99.088826863414
172.87169361266
0
0
0
0
0
0.000138238089954
0.0032317086737699
0.013553565631901
0.03456155847087
0.069276926513368
0.12054574736105
0.19120501763974
0.28424294980539
0.40299648550565
0.55138055058478
0.73415767727748
0.95727450041893
1.2283901470122
1.5575713254152
1.9578376030301
2.4464312443957
3.0453484102584
3.7831375607199
4.697237534685
5.8375369366561
7.2717803768318
9.0939416839593
11.438234256046
14.503392439236
18.5970621011
24.221059879495
32.254437449552
44.419270420969
64.49347783089
102.50567788369
192.65480179731
0
0
0
0
0
0.00011668967207507
0.0030836838326169
0.013172710823682
0.033842193943824
0.068156721340884
0.11898066565741
0.18916317809381
0.28171298581932
0.39999484028974
0.54796240736509
0.7304283177678
0.95338075250137
1.2245342840228
1.5547837263412
1.9570541107264
2.449763384139
3.0557599546369
3.8049983195836
4.7368139008312
5.9036837443517
7.3771155195288
9.2563201997672
11.683088314799
14.867421290038
19.13480524274
25.019732632552
33.444658578494
46.287993381712
67.813849567381
110.56304487487
231.94165299751
0
0
0
0
0
0.00037306278999294
0.0049486604502751
0.018291682270338
0.044105754381672
0.085703460652248
0.14622003143923
0.22887439386825
0.33722635421491
0.4754772466727
0.64881341323267
0.86380407740775
1.1288162208247
1.4539826609125
1.8511067850567
2.3450968264561
2.9595104573205
3.7264726587877
4.6880905083697
5.8995122667293
7.433892310516
9.3900054415231
11.903765654351
15.167766294702
19.465216107886
25.232561065814
33.189550710092
44.54168091526
61.815112822682
90.778289000041
149.2480295932
346.36731350329
231.71248273149
388.2807529012
601.78721726146
854.31386704499
1129.1748557245
1446.2111889016
1810.5982453212
2222.9459441263
2679.859812507
3171.6805109548
3704.7821636991
4190.4243046082
4617.6270195924
4991.5715027216
5269.8348866107
5466.4380731689
5582.4663816054
5628.6841224449
5619.5676522869
5564.93594254
5475.3937477956
5363.7702375852
5237.5393545252
5101.1434127984
4959.995485069
4817.8691092795
4676.7026223064
4538.3925109459
4401.2258534661
4270.5287070878
4146.7462787776
4022.2503172761
3909.1823442637
3795.8730983587
3690.8483815613
3589.4640809984
3492.268078241
3401.1464129653
3311.6930669312
3229.005526221
3147.395960032
3071.9793497327
2997.5803246936
2928.5812485924
2860.6038334864
2797.3613328741
2735.1224719172
2676.8956758471
2619.8920087884
2565.9392869027
2513.7916475887
2463.8128936026
2415.8848633789
2369.7311681694
2325.3205010102
2282.5750137681
2241.4029869134
2201.7064869539
2163.4169960461
2126.4603815852
2090.7076034531
2084.9108022784
1646.9513647279
1381.0640578249
1154.111786839
907.30991433185
657.79525189832
622.83604277463
630.2196488924
637.72088811068
644.2577904059
648.70599238398
648.92304402083
646.27667292237
645.71819441079
645.74986632332
643.49259898398
639.16653260688
634.23241218207
629.58134256516
625.44361038883
621.816612194
618.6090500158
615.66002446899
612.6682636837
609.77023398112
607.19700063508
604.91233857228
602.96256433475
601.52437246501
600.51076929258
599.83672629727
599.52266237382
599.78261826627
600.50465085838
601.64380136164
602.97952100288
604.6083169737
606.42181195739
608.30746579864
610.35991077913
612.5180518554
614.65523545723
616.59663096666
618.6115683683
618.78764540042
619.63828049998
618.65401912876
615.97102923019
611.69120762564
606.97184555334
602.70238941752
598.45646506721
594.1574313877
589.83189861746
585.54408226687
581.86367750421
578.53243499632
575.43144359924
575.59617352781
577.86069383478
581.48795853917
585.81479397161
590.50985990012
594.73474962669
599.51156675684
601.62730765892
602.47482460635
601.24483450343
597.86779029456
593.27121569931
587.14728556871
579.81869518633
572.45721741298
567.62301587043
563.02940955391
559.33910160359
556.10335979623
591.08924171562
91473.709501687
291.61072703299
497.95331845483
755.08800436354
1033.679921547
1350.6250087827
1701.1631650679
2094.4563053861
2525.8105084977
2988.3187664456
3470.3277270327
3954.858803548
4422.6228826863
4803.6820084903
5118.0592237221
5360.8716970889
5520.6220935798
5608.8025405374
5633.8554490419
5606.4252117467
5539.1566749987
5442.7569471621
5325.6071760346
5195.2859656077
5057.5925782777
4916.3401392739
4774.210153038
4633.6336050751
4495.918343911
4362.089138047
4232.5524426866
4108.0304968985
3988.6035815596
3874.0638058513
3764.7309241204
3660.0625882995
3560.3832987606
3465.067934523
3374.2222644555
3287.4533963331
3204.6298228757
3125.5695401559
3049.9939697342
2977.792667067
2908.7130230517
2842.6297526821
2779.3475013923
2718.722132678
2660.6274855399
2604.8879568409
2551.4191550858
2500.0546629243
2450.7048668125
2403.276361403
2357.6597572395
2313.761045658
2271.4756581571
2230.7282912552
2191.449356721
2153.559907151
2116.975095836
2080.5017564369
2055.939394528
1567.6269434445
1329.6771503563
1099.4796362807
845.10923259194
635.35272398104
626.84503388848
635.04429740197
642.90082248952
649.44743898922
653.11845740268
652.61557884154
650.35622734181
650.33301058488
649.78375810372
646.65098088697
641.88325581899
636.8934628564
632.32873129748
628.30014690152
624.76915681641
621.62561203601
618.70095995501
615.52162879025
612.91891139369
610.43947334611
608.20207789901
606.25399591759
604.76569361553
603.68191072806
602.93012614071
602.62236270705
602.85539803264
603.48524157669
604.50472971331
605.70686047581
607.19128309245
608.83241388332
610.56544269754
612.47331622641
614.45467830534
616.37828209817
618.15275556159
619.89292517479
620.1604424441
620.75340434677
619.68395424232
617.16452408676
612.96580600109
608.37295794156
604.08481368181
599.66801465445
595.24857077954
590.81890692052
586.45779944534
582.71993596955
579.30557311574
576.29790907136
576.57801922076
578.6685564051
582.09715472942
586.25330071548
590.80542165204
594.94629723767
599.61410193019
601.63417401676
602.402369673
601.2999236615
597.75050143968
593.11594497705
587.02607780144
579.99642405874
573.22942341583
568.1530815339
563.4729275293
559.5280620722
556.06270380071
590.58584910169
92234.62062241
343.78166086809
629.80606731504
935.41018043271
1270.0570950579
1647.6985852207
2048.2721981689
2458.7861158571
2890.6762595429
3332.7617656402
3794.4648186069
4193.7407669997
4579.2204026553
4914.9208665582
5188.9677076694
5397.103744329
5537.5797237698
5612.5037559735
5628.2161449118
5595.7523638554
5527.0305488953
5430.4984948806
5313.3860073833
5183.6641787924
5046.82386911
4906.0429720028
4764.62009191
4624.9082466221
4487.9153310876
4354.7022089383
4225.9506905027
4101.9304553875
3982.995289366
3868.9716718158
3759.983606456
3655.8488615884
3556.375176678
3461.4886115629
3370.8311306154
3284.3687955839
3201.7577089855
3122.9119835839
3047.5228193435
2975.5076689495
2906.5827314181
2840.662412306
2777.5014495554
2717.0294630696
2659.0277380466
2603.425658568
2550.0346857311
2498.7864616215
2449.5281044905
2402.1756762417
2356.6238697025
2312.7938821281
2270.5676138917
2229.8800539279
2190.6547629824
2152.8110144535
2116.2723655084
2080.0218785937
2058.369838524
1570.6761863708
1333.124154886
1104.1628942347
851.82872516363
639.28038261347
630.57249681533
639.83311127089
648.56945915675
655.75755118613
659.80402309792
659.62036787344
657.64439576791
657.61388353998
656.71163363779
653.1979806789
648.16641756727
643.01473299473
638.33716610218
634.22670708214
630.64759932412
627.47276006873
624.51505672704
620.34282429242
617.42852092383
614.67292918249
612.18233547671
610.02294372002
608.32785527715
607.12411702233
606.29283778429
605.97802147983
606.11204648618
606.65991177368
607.52010983164
608.63645357729
610.10955414842
611.66532171733
613.35599188794
615.18699420154
617.04873300484
618.82670536086
620.44791712568
622.05769736822
622.29970437521
622.72944342631
621.69053106927
619.0561303165
614.43418681663
609.90932383563
605.49937531346
600.9772477438
596.55468192311
592.09459735597
587.69148114107
583.89427425921
580.31495419908
577.62989891163
578.18212379129
580.19837108828
583.39320030613
587.24937911609
591.49216871547
595.44645032171
599.83019664452
601.74225772633
602.27641732298
600.82772499348
597.07434089999
592.22197499219
586.03954490679
579.0828520523
571.86770688371
566.36548906826
561.51497944817
557.16770305425
553.01974365608
584.26152480708
89597.475468914
465.58097046053
923.84595200224
1351.7539498597
1827.4743967693
2247.979781429
2664.6280206717
3068.0316726244
3456.5292884699
3832.8039474928
4218.2360443506
4492.3664688234
4787.0885595493
5057.5518714164
5280.8132692564
5454.3261584399
5566.3903747324
5621.040404435
5625.9364126522
5587.6048497754
5513.8638926136
5414.7901824818
5298.9196675075
5169.7591368532
5033.0482759984
4893.4056845595
4753.2451632201
4614.1331442233
4477.9716236926
4345.6673743716
4217.7048946057
4094.4226844237
3976.0415002638
3862.6734971555
3754.1633189094
3650.5392433802
3551.4978664509
3456.9510702547
3366.6873999529
3280.5002063013
3198.2064090363
3119.5767848222
3044.4649900592
2972.6344260745
2903.9313870127
2838.166910479
2775.2005538281
2714.8648829001
2657.0213815379
2601.5376360232
2548.2825125879
2497.1421586364
2447.9939614421
2400.736276048
2355.2750521488
2311.520454431
2269.3680521845
2228.7512270534
2189.5927763394
2151.8074037687
2115.3286116029
2079.3062747195
2061.7754515944
1575.5153275367
1338.0215483531
1110.7552153886
861.32827372203
645.35818628416
636.26282530278
647.27885760599
657.44397940944
665.63518611378
670.2281950282
670.39283619314
668.67665944457
668.42831922459
666.8452364155
662.63416745441
657.08078303244
651.55717830364
646.60648602425
642.31326783676
638.62411646241
635.37680408265
632.36375031906
627.81904449709
624.90410098056
622.10418407404
619.52494648638
617.23499734849
615.39620195082
614.04292485763
613.04685923634
612.54202455605
612.45268174833
612.79550805212
613.38035027847
614.28198833173
615.57421806289
616.89209002668
618.35565791113
619.93636265742
621.52595908089
623.05079410699
624.38157572751
625.57604072017
625.88247036571
625.8085204601
624.49260427566
622.18016595811
617.33730184209
612.76966676563
608.34297118434
603.71087219345
599.09321751083
594.39302410475
589.78986178722
585.84471807329
582.12622446789
579.5553202837
580.16063526894
582.05001995758
585.01275628111
588.5731509175
592.44378267203
596.00155764876
599.89871120491
601.60428795206
601.65406049128
599.84711164234
595.9331346923
590.51722795039
584.29027307696
577.16071299144
569.83823183951
563.63127351607
558.18888773811
552.76261732541
547.66545185201
577.3652472504
89145.11535642
886.98609641907
1726.5879884701
2411.0295929248
2964.8541049064
3340.0521283672
3664.3959309345
3924.4420630629
4176.4824012734
4378.4851315537
4589.8766430133
4807.8765060637
5024.0441691095
5222.6004712255
5388.6304326149
5514.4528726842
5597.4593631581
5632.9459111157
5623.4490476213
5576.6716192683
5499.7184841036
5399.026368119
5280.7657195691
5152.6894984837
5017.5915833125
4878.810806015
4739.4000725077
4601.7124269637
4466.5939559853
4335.2043371716
4208.107678544
4085.710546587
3968.0518216735
3855.3117364535
3747.4454181247
3644.3109398288
3545.778766219
3451.6678700113
3361.8168200198
3275.9769950397
3194.0092419522
3115.6869340893
3040.8464593676
2969.2635120556
2900.7931573172
2835.2423303882
2772.4752246617
2712.3138876711
2654.641874525
2599.3077971242
2546.2010398002
2495.1857213586
2446.1610560632
2399.0158774022
2353.6602185517
2309.9949244329
2267.9279741809
2227.3899908076
2188.3086104332
2150.5929338268
2114.1827817915
2078.3944788738
2065.7754440842
1581.7758824358
1344.2947088616
1119.0723142473
873.28315579412
653.8909707704
644.04402098774
657.51405973832
669.55980566407
679.00248887856
684.23466295511
684.78543120807
683.29813181886
682.52083334264
679.82462319181
674.49089562395
668.02722896303
661.78410169982
656.28911405645
651.62921929567
647.70469812879
644.30030588527
641.17953581658
636.33149480315
633.32348793336
630.42136086937
627.70898494624
625.23979160683
623.27488646088
621.74155201252
620.55160153943
619.82417669235
619.51534232237
619.58371657994
619.86645675639
620.53680688322
621.59129176904
622.63130984234
623.83045354825
625.13190908162
626.42993475656
627.66482851901
628.73221543206
629.52085190617
629.63997273016
629.24410112004
627.72492060884
625.4622009214
620.56268339187
615.89603614515
611.37825106816
606.54764017232
601.62225976141
596.608056392
591.82610516425
587.72064349966
583.86348803493
581.30006494528
581.79969980088
583.4736874034
586.11883730571
589.25898681812
592.57899322031
595.57044354141
598.79594135124
600.08479859174
599.49561111152
597.133955571
592.67617608307
586.69538306816
579.85404657876
572.08495695466
564.01941269378
556.52460202149
549.63141337174
542.55484184799
535.28579559015
562.73573456162
87124.88068817
4228.948202273
5024.3915415449
5063.1549972261
4938.2019999722
4837.6342343073
4806.0550638109
4818.0120627339
4844.3006646054
4907.9259947302
5012.9945361173
5136.1360024895
5262.8650967783
5387.5723096667
5497.3568333148
5579.9328370645
5628.6358790184
5641.5667486614
5618.8579555337
5563.8435065424
5482.0244859192
5379.3329295632
5261.5518830862
5132.8275930014
4998.7311460837
4861.5934528866
4723.6935712317
4586.9587111181
4453.2716560422
4323.1679633717
4197.1416728328
4075.5973517581
3958.9273705161
3846.9727178686
3739.7610536483
3637.2211181467
3539.2917251094
3445.682169616
3356.2538054159
3270.8505158479
3189.2486797514
3111.2701594516
3036.7186302536
2965.4339789629
2897.2213108236
2831.9148561162
2769.3567033076
2709.4053851348
2651.9209673953
2596.7635965802
2543.8102750053
2492.942621343
2444.0554152195
2397.0395447549
2351.8004776377
2308.2388105205
2266.2683020418
2225.8238242913
2186.8258100027
2149.1854518596
2112.8563597332
2077.2960083769
2069.4986384825
1589.2926610449
1351.8223197199
1128.8834117081
887.25918378835
665.11068842472
653.67926042223
669.82475333302
683.63693568322
694.18485727809
699.98405068261
700.97377371254
699.92500925728
698.74959019706
694.93342048291
688.25711915393
680.50918827351
673.14729756462
666.76965109213
661.47908402727
657.12433562409
653.43880434647
650.13757742333
645.15199066153
641.98485749784
638.88704860866
635.96676710512
633.29990132674
631.12447096926
629.35391845679
627.92095092113
626.93039396761
626.37423453401
626.07640463253
626.04080093684
626.44766794808
627.2165080045
627.93927641006
628.82076842946
629.8258610434
630.82308647507
631.75521851216
632.65237029274
633.00196703617
632.77780353567
632.18228156224
630.35187608993
628.05354638649
623.1428716248
618.38694671985
613.75442050091
608.60545710516
603.24072135424
597.85624913906
592.85667140253
588.48174381618
584.38201047418
581.7148718166
581.87736184905
583.08920105726
585.1422508656
587.60809187639
590.18993619762
592.4153695066
594.71856497212
595.35083908179
593.73849624631
590.08067780239
584.72150083977
577.82597593258
569.68077049522
560.4492602015
550.7595663543
540.9207404814
531.30192428476
521.36978882538
510.17247601604
529.88791698443
58716.299336937
18104.724514197
10864.204901134
8445.9524732232
7145.7513356624
6362.4614282984
5893.6575532445
5646.5273748811
5501.3057080095
5433.5875336205
5416.8254241539
5435.6824618114
5476.6346755656
5530.6427714865
5586.3987299364
5631.3071878668
5654.9686112141
5652.9685986095
5622.708561832
5565.4015281255
5484.3390568537
5383.9327308929
5268.6574702568
5143.2121670385
5010.7074108352
4875.1509288624
4739.343880201
4603.8968002766
4470.7426151957
4340.8810012633
4215.3324565617
4093.8621875555
3976.9345446483
3864.6745693044
3757.2234279186
3654.2767522918
3555.8254535317
3461.7509747086
3371.8791271682
3285.964629314
3203.8477177394
3125.3853034591
3050.3665913681
2978.6062040407
2909.9276319498
2844.1828857948
2781.2108909158
2720.8548952176
2662.973426789
2607.43880913
2554.1280387893
2502.9209740753
2453.7015690589
2406.3674343618
2360.8196671249
2316.9711567333
2274.7392861266
2234.0174856486
2194.7470147855
2156.8710433402
2120.2859432633
2084.9859835804
2063.497253032
1686.0954362052
1414.5353999439
1196.2461379453
964.4281978616
717.35718262456
660.26205818607
678.06609243616
693.78671319072
706.08739331969
713.76378979966
716.32834237874
716.10864415086
715.35087889985
711.80499217863
704.87288936509
696.17776227976
687.3808427542
679.51017462196
673.00895431025
667.76991743892
663.48027600818
659.81035338506
653.73465670005
650.29483565963
646.94427352738
643.80000202749
640.92714889172
638.47458978211
636.45085419529
634.71887225105
633.43672356399
632.54862072841
631.79140050349
631.42136734003
631.48774379712
631.8774416409
632.26193324724
632.80498223652
633.48946348071
634.20897824549
634.89828422074
635.42210447397
636.07782772194
635.25153423962
634.0914430556
631.95005348472
629.61841448585
624.64674952057
619.58034219886
614.29652676194
608.65835168998
602.36903257025
596.14746502611
590.37814399023
585.16491785348
580.42204831468
577.28227269083
576.43245448695
576.54584448587
577.17191809127
578.07972429456
579.00006658688
579.33310540863
579.682817636
577.69913034278
573.96843965437
567.59478108707
559.83137759323
549.28712576634
537.52895463706
523.85824326961
509.30463502424
493.62487395862
477.40096141926
460.50195395522
444.46927931741
397.13741372421
0
11229.069131888
12631.367013616
10575.82197088
9164.030417403
8164.3818122623
7446.5904517137
6920.1142413197
6516.698168207
6272.1436335168
6086.6670274927
5952.2741114315
5864.3425430432
5805.9175126016
5766.0993408302
5733.0765811101
5695.4254572691
5646.3631206784
5582.9552371551
5503.1195842534
5407.7697040171
5299.4408782232
5180.9818244638
5055.3471736712
4925.4454517979
4793.3533479491
4660.701073333
4529.3658712382
4400.9767283733
4275.6753879492
4153.9784800694
4036.3365454271
3923.176154367
3814.4853752651
3710.1027161479
3610.0850848111
3514.3524833669
3422.8270899947
3335.2269521665
3251.4417970059
3171.3170816617
3094.6909448244
3021.3496013488
2951.148504523
2883.9160755924
2819.5178518366
2757.7967247297
2698.6011495332
2641.8057241216
2587.2858874986
2534.9280472206
2484.6061083379
2436.2178638649
2389.6623180952
2344.8509995327
2301.6803025539
2260.0862520624
2219.9934768453
2181.2839309712
2143.9342182415
2107.8796812684
2072.8460008899
2065.0342098918
1619.9517888297
1380.8467327919
1164.986855177
935.49511589419
712.50127849837
684.46809217309
703.60263023628
720.21767505699
733.04949325194
740.57536870462
743.5468971628
744.55547237801
743.18987801253
737.9150718189
729.62451367229
719.91492316319
709.85266396707
700.28703230433
691.98730689295
685.15635422183
679.81279179884
675.4013677601
669.72795477776
665.5791830206
661.65832418669
658.05149700647
654.56294886648
651.48971630934
648.80810366995
646.25044764636
644.24407490236
642.30865882546
640.44683666972
639.45200046706
638.63027255965
638.15891090068
637.70480779471
637.33866724745
637.11397313347
636.98047474414
636.81072379971
635.77152766936
632.86882305424
630.66746032679
627.9344354593
624.69103787229
621.28820222
615.20500957121
608.91610507957
601.29110942483
593.29689692958
584.54972072274
575.45432430909
566.77220801041
558.424710357
550.35859084008
544.21713165172
539.29208013189
535.33866106815
531.43380106567
527.71408490449
523.91745897164
519.01248404973
513.7819470068
505.60324001627
495.32876667776
481.7665407636
465.90697777999
445.96908265611
423.13204001876
397.0702858234
369.08851366631
339.81248219658
310.94744205054
282.53456936812
257.5092802954
198.58586909131
0
8664.5876575872
11041.197468298
10313.751731806
9384.7521972886
8610.6082452801
7996.5101410809
7495.0700857678
7088.0057397746
6742.0603276522
6467.8485206361
6266.9190566228
6103.9927518577
5972.9815338032
5864.7718416946
5778.5346317535
5699.5976879331
5620.2997318907
5535.6249009439
5442.8819326565
5340.8836050625
5230.0465720954
5112.0648114548
4988.9343395723
4862.5334878428
4734.7092832643
4606.8317379627
4480.2140846915
4355.8078580087
4234.2306840703
4116.3484741883
4002.3103682075
3892.1442046489
3786.138863273
3684.213872632
3586.4718557089
3492.8369178204
3403.0647940342
3317.1038332056
3234.7714797196
3156.0090840524
3080.551395178
3008.2858181534
2939.044305845
2872.7001611353
2809.1024291444
2748.0909860464
2689.5516980689
2633.3504472824
2579.3848953664
2527.5277274441
2477.6653769047
2429.6989907087
2383.536489605
2339.0804654516
2296.2415191261
2254.9691514262
2215.1397150316
2176.6913218143
2139.6067616967
2103.7667727981
2069.0955008647
2055.9154836723
1649.381310289
1404.7372868636
1193.1876652631
969.77339273589
750.71419269818
703.30787976866
721.43653716697
740.26933365568
755.1767716836
764.49380767939
769.22692626249
771.01577259804
768.85891909904
762.45306765859
753.33181345875
743.03665042839
732.39917323578
721.9682362195
712.31622407771
703.58561088337
696.34211195242
690.41346471599
683.70198709485
678.65505602628
674.16321768672
670.04550156935
665.84950994298
661.98799787467
658.31514736639
654.61941390607
651.73760092673
648.36348880485
645.54482361372
643.24185241691
640.63981596221
638.2540834239
635.83703738178
633.53790973631
631.39180896521
629.34877855111
627.20710306384
623.80217914869
611.71978056666
606.39133464806
600.11093226249
593.51603095204
586.30063646538
576.24642025927
565.27683142334
551.76820180696
537.25919349802
521.12478625373
504.27485916269
486.90979599174
469.80373858871
454.95287470946
441.10181113916
428.25582403559
416.3443143683
404.89848526427
393.53229500717
382.24422222045
369.34246872522
355.87315758589
338.55550138358
319.77607856341
296.81917124527
272.12178477043
244.68090892234
216.27122634
187.763698429
160.3280893475
135.2115789565
112.51520035408
91.617475838568
73.46307853952
39.465749221615
0
7546.1125206092
9287.7456488235
9400.850373696
8911.2597096684
8377.8688725054
7910.0642586802
7504.2251066933
7151.6241614471
6842.2201031642
6576.0720415388
6346.7611143423
6170.8373436313
6018.1282262318
5886.2171180651
5768.2928689977
5664.2919404651
5565.3750210238
5466.4475300099
5364.9567269774
5259.1170360936
5148.0186610677
5031.9196065522
4912.173647721
4790.1276826214
4667.13765564
4544.3650325848
4422.7252840237
4303.0935252337
4186.172224591
4072.4051077121
3962.0855315921
3855.4557599003
3752.6766063122
3653.7643641763
3558.6553313021
3467.3110594931
3379.6343033667
3295.5917236315
3215.0766496751
3137.8393700971
3063.8007595848
2992.7931786966
2924.7446840696
2859.465525975
2796.806644172
2736.6675405648
2678.9076379187
2623.4355044151
2570.1246873892
2518.8605899681
2469.547353954
2422.0812262969
2376.3846212129
2332.3511629214
2289.9187921307
2249.0042536561
2209.4895305115
2171.3655590303
2134.5778402578
2098.9830938135
2064.5978006358
2044.699025339
1687.7360490362
1431.839918653
1224.6251912709
1006.9910066176
793.35714579267
724.07820643943
738.23530231271
759.67465803664
777.43873647471
789.29001350143
795.907994872
797.84747281719
794.41373113383
786.47189210366
776.00431740914
764.62474331675
753.11409924632
741.95892215789
731.60076729073
721.88652765714
713.07572887798
705.19537910529
696.72784651596
690.35947384215
685.12057784253
680.17735679094
675.00595257419
670.01617747218
665.02828778284
660.11060320651
655.35270436673
649.19136161579
644.18392099312
638.26162998474
632.24450799637
625.81153180757
619.24165678611
612.55024325434
605.74632527542
598.76619924153
591.48611815392
581.77435299042
548.16811421373
535.21834770259
520.72999562993
505.17574739344
487.39607397128
467.02647808556
444.7130562461
419.91391594233
394.09272085272
367.40614173117
341.93642354204
317.45479816335
295.29514331979
274.3027151125
254.9808706734
237.04554390301
220.45498757561
204.78368105368
189.56776721045
174.7016801868
159.33128011267
143.95512247136
127.19008982592
110.43187899151
93.292589250451
76.789301522109
60.679014992269
46.118493969836
33.940592967815
23.542322458341
15.188121748808
9.0126798440417
4.7091764310061
2.2318646417279
0
0
7085.0954809708
7951.84955012
8396.8505527425
8263.5558544035
7930.2184027811
7591.7230543475
7278.7587616559
6997.2811981299
6736.2451559414
6507.2223334688
6302.7482871299
6105.3485390183
5952.4944476678
5825.0316301935
5700.9953217495
5585.8780600986
5478.1058797943
5373.8772212822
5269.6058000406
5163.0462165822
5053.684405165
4941.2999946962
4826.1630375156
4709.3296208792
4591.8446120715
4474.6144048255
4358.4658231361
4244.0559456208
4132.0058697643
4022.7762467683
3916.6944318954
3813.952916
3714.6687938752
3618.911094675
3526.731653744
3438.0948291255
3352.8828079634
3271.0198851891
3192.4074269139
3116.9257331955
3044.5084800724
2975.0111805323
2908.2557170493
2844.1748528606
2782.6153228022
2723.4672060516
2666.6455201618
2612.0069708616
2559.4532536844
2508.8845409208
2460.2004189662
2413.3301905214
2368.1673726392
2324.6307551781
2282.6642684838
2242.1427911685
2203.0298517137
2165.2966539494
2128.8192051558
2093.5245049913
2059.4331862265
2031.7261634472
1738.410829356
1461.7681702461
1259.4233811206
1048.7720641968
841.79843094004
749.65753699796
755.50422238585
779.30499451984
800.89543066795
816.12346135324
824.71170747543
826.45257751516
821.41959166512
811.44495787731
798.93364966082
785.78758383952
772.89611982756
760.60479054671
749.39288218034
739.0046330725
729.29035433115
719.89865107263
709.22173542241
701.10874560255
695.02300906844
688.68682149159
682.3095045804
675.80832437683
668.5514931287
660.52993646216
651.68957620542
640.71598956997
630.25914649968
617.48095396094
603.26049039322
587.5604106081
571.06547505642
553.77266531243
535.92533597909
517.702976981
499.09601558514
476.37436083484
405.97584250339
382.82147406968
358.9572475587
334.43153817936
309.12834420887
283.68705935316
257.87852053872
232.40231432011
206.87577355527
181.35832710787
157.6285561515
135.19730919937
115.03245214097
97.163463763745
81.501447143489
69.319989273164
59.254794572267
50.68247727307
43.142720203433
36.338169596596
29.960577033941
23.984197363532
18.270772884675
13.295062873712
8.8740119856116
5.4398624373299
2.7794034324907
1.0253666415972
0.12006352548986
0
0
0
0
0
0
0
7014.4754848961
6977.7803940122
7483.6615696408
7589.6990295369
7426.9199810944
7193.2843754082
6958.9727381468
6738.638825464
6529.2232272208
6330.117937216
6151.756681814
5982.557717999
5842.046835828
5710.7011596145
5586.3730249781
5475.2885342374
5367.9601236073
5262.3660129875
5159.1453531933
5055.1209678242
4949.3807420962
4841.7274631233
4732.2718473098
4621.5016265882
4510.1080804567
4398.9129679956
4288.6027411038
4179.7957364198
4072.9816596678
3968.5776386998
3866.9331098043
3768.2832188305
3672.7797730099
3580.4860871748
3491.4268259088
3405.5922414595
3322.947475151
3243.4664687967
3167.0263720327
3093.5221667991
3022.8842242542
2954.9605144869
2889.669321833
2826.9370041773
2766.6271327506
2708.603045593
2652.7949642778
2599.0829361996
2547.3702995541
2497.5938966994
2449.645203499
2403.4258258424
2358.8699957672
2315.9000988148
2274.4369143058
2234.3909364855
2195.7402644497
2158.4127290096
2122.2821331936
2087.3668745881
2053.6270828914
2021.1125373814
1803.5172569742
1493.269844798
1296.5176605372
1095.03395484
896.98835488215
783.02502953716
774.67061663882
798.86914075913
825.00475209619
844.47462088197
855.370053201
857.02591185806
850.28375609236
837.73140548197
822.39257269016
806.69372281902
791.93716234137
778.18680745243
765.6730454425
754.35739464415
743.75770514305
733.70321922969
720.65743868993
710.245042111
703.61008279175
695.41228426038
687.21120973449
677.62602285208
666.1021233928
651.73969581417
635.60644868109
615.06396639097
590.50187479661
563.23198802996
531.2855694417
497.32483276239
462.11113040641
427.321271005
394.41663661701
363.25061609827
333.6208289012
301.62587971952
220.21153523746