/*--------------------------------*- C++ -*----------------------------------*\
| =========                 |                                                 |
| \\      /  F ield         | OpenFOAM: The Open Source CFD Toolbox           |
|  \\    /   O peration     | Version:  2312                                  |
|   \\  /    A nd           | Website:  www.openfoam.com                      |
|    \\/     M anipulation  |                                                 |
\*---------------------------------------------------------------------------*/
FoamFile
{
    version     2.0;
    format      ascii;
    arch        "LSB;label=32;scalar=64";
    class       volScalarField;
    location    "5e-05";
    object      k;
}
// * * * * * * * * * * * * * * * * * * * * * * * * * * * * * * * * * * * * * //

dimensions      [0 2 -2 0 0 0 0];

internalField   nonuniform List<scalar> 
109340
(
6.9854811819258
6.9844657749779
6.9892154237059
6.9956034107509
6.9996761569454
6.9995374353067
6.9950630813281
6.9866018245113
6.9750159119708
6.9600852171041
6.9419191183281
6.9207181000297
6.896687533321
6.870025001321
6.8409185311786
6.8095512390246
6.776102555958
6.7407487097899
6.7036639436946
6.6650192066636
6.6249799090958
6.5837038496903
6.5413394461346
6.498023945473
6.4538817036156
6.4090203290613
6.3635251293605
6.3174520966198
6.2708161196015
6.223569791143
6.1755647281832
6.1264826323673
6.075702894594
6.0219897706202
5.9625865746589
5.8906552940059
6.9815696284888
6.9832034545241
6.9878696142116
6.9915399838249
6.991834440162
6.9882839938967
6.9806681263119
6.9686845651072
6.9526036527678
6.932837469914
6.9096417563441
6.8832459949485
6.8538832238556
6.8217871183469
6.7871902706975
6.7503222156152
6.7114106479591
6.6706817411755
6.6283604975826
6.584668550523
6.5398207646118
6.4940194033968
6.4474508032714
6.4002836494764
6.3526647675237
6.3047137293257
6.2565203133317
6.2081353393162
6.1595574881607
6.1107099719148
6.0613933316224
6.0112047340896
5.9593694966241
5.9043326631147
5.8426064665646
5.7654849102898
6.9761681035853
6.9793410223497
6.9827623113032
6.9831749828139
6.9792988561693
6.9704954066112
6.9565446735058
6.9375532076355
6.9137759854541
6.8855964382826
6.8533994681663
6.8175510623929
6.7784165375043
6.736363101958
6.6917580510143
6.6449671272384
6.5963522894019
6.5462779760555
6.4951121752421
6.4432096465062
6.390902399259
6.3384766337183
6.2861922474737
6.2342630293772
6.1828525791663
6.132079980492
6.082030229681
6.0327223695177
5.9841269716473
5.9361339432744
5.8885058603144
5.840775012709
5.7920812146328
5.7406725431903
5.6825779139386
5.6072792140518
6.9650178433179
6.9736425737979
6.9752319146704
6.9691260978898
6.955107945732
6.9331867665249
6.9036487544351
6.8669455779888
6.8236975091341
6.7746684362325
6.7207054118073
6.6626865852761
6.6014947626873
6.5379966221583
6.473049509048
6.4074854356202
6.3421302081115
6.2779608290216
6.2157266409485
6.1560841080651
6.0995543216374
6.0464525579343
5.9969121354804
5.9509661709196
5.9085733140112
5.8696686672442
5.8340026568349
5.8014723247212
5.7719887298618
5.745385660576
5.7213541211948
5.6993295559385
5.6781258037678
5.6551577313199
5.6239153155371
5.5641256092299
6.9525304695924
6.9829368113616
6.9934702332736
6.9831701394181
6.9519666395872
6.9011237789003
6.8338641719879
6.7543070189565
6.6669346174578
6.5762115100902
6.4862670132155
6.401045446579
6.3239710839605
6.258128073598
6.2063554683006
6.1713415085152
6.1557250467096
6.1634803117195
6.1941740685659
6.245650349815
6.3142113533844
6.3966232197096
6.4903288786205
6.5933933383084
6.704339821015
6.822013785924
6.9454588165289
7.0738692215042
7.207447001296
7.3452477717265
7.4854528076049
7.6256772272518
7.7623475537196
7.8880678920515
7.9825428359941
7.9708624985165
8.42595790218
12.498568726471
15.972180724436
18.617681192212
20.444082491106
21.583145235823
22.199461640337
22.443436600719
22.433130328741
22.264144700172
21.992211550424
21.660451678437
21.298216305245
20.925108801247
20.554116792604
20.194382487174
19.851744514096
19.530032640685
19.233014782284
18.964186416825
18.71894945077
18.494508465345
18.289455771324
18.10300622184
17.934614084416
17.783880907692
17.650547772118
17.534524850563
17.43594397181
17.355275788941
17.293581599262
17.253046966393
17.236977400415
17.252161932996
17.30815743277
17.395232187222
5.7918620794917
5.6547901175752
5.4781940424466
5.2626157500892
5.0094130987644
4.7172854316891
4.390425191825
4.036504797156
3.6656292781005
3.2939838927041
2.9365524253715
2.6346735123633
2.3783890600592
2.1417265528179
1.9251694418351
1.7275321127229
1.5507677195806
1.3951722596517
1.2591948667373
1.1410757490984
1.0386713973065
0.94921505062275
0.87106932777627
0.80303995911756
0.74340415715546
0.69070351487895
0.64398425777074
0.60227444231655
0.56572695083862
0.53194875105322
0.50111979173852
0.47501712569964
0.44905175410707
0.4275379639604
0.40608740446712
0.38758333991062
0.36978180184167
0.35337854062008
0.33869030631851
0.32420203913323
0.31174965274873
0.29911854598156
0.28825550123385
0.27722230034328
0.26757541261617
0.25795536700127
0.24925195870077
0.24087259087826
0.23292165185308
0.22551054944173
0.21829428509327
0.21154198243394
0.20504035714381
0.19888811727416
0.19298875407077
0.18732478653914
0.18188594605011
0.17666944974873
0.17167270359504
0.16687432366949
0.17136032814135
473.98654183782
2351.6449790703
1592.4567944252
953.60543525134
413.75342983319
47.786496131682
16.878005569967
13.053013181035
11.202646896818
10.440790745052
10.370317399656
10.778458087707
11.355988059172
11.82765531316
12.160715061686
12.354112258923
12.422815383183
12.432026647018
12.445390760205
12.496859916318
12.602180442819
12.759272964664
12.951918589038
12.976680508752
13.309786403337
13.557502318876
13.658397729348
13.650492145518
13.574637954317
13.415153720597
13.182013734915
12.896324614403
12.566248520476
12.197559734962
11.792002212255
11.365137317741
10.927054848315
10.488937650081
10.062554669026
9.6460179150481
9.2373070191904
8.8378120483935
8.4548135209852
8.0037163418045
7.7032059789307
7.3991985305111
7.1790024032405
6.9865062635543
6.837131655923
6.7015032971589
6.5727603706884
6.454247576449
6.3424796473933
6.2347504655207
6.1261688472352
6.0191546507781
5.9150641203715
5.8010489308144
5.6682283467211
5.5187330445867
5.3589478431369
5.1957559932745
5.0322143642779
4.8757471594462
4.7243162828283
4.6049168987025
4.5073007255843
4.4422383497075
4.4047440306735
4.4047120140409
4.4161744687149
4.4398603596381
4.4557772467536
4.4479769706286
4.4297205329792
4.4040701385517
4.3756585330685
4.0241440880376
4.3222969049043
5.6546550060142
5.4957302863871
5.2836345069312
5.0250168829493
4.7226027926594
4.3834657243052
4.0166845400121
3.6344524121631
3.2482527708861
2.8700386073977
2.5104978708183
2.1807119049523
1.8948886244979
1.6497739341117
1.443629707433
1.2753783333092
1.1397658531914
1.031644270604
0.94229514196555
0.86712444282546
0.80298739291404
0.74754800957146
0.6990211153467
0.65607660723007
0.61753621716966
0.58265989483912
0.55088712929894
0.52166798926308
0.49471559615656
0.4699451231329
0.4470553491512
0.4259816149386
0.40653594331248
0.38845126224946
0.37172630765576
0.35605620314944
0.34153722203317
0.32789437176979
0.31519200078379
0.30325570796848
0.29209088378907
0.28157964540851
0.27169531825759
0.26233704239843
0.25352104239918
0.24515247257678
0.237256397688
0.22973011940906
0.22260925253875
0.2158043258877
0.20933863158299
0.20315750132764
0.19724959091986
0.19158137577195
0.18613379938983
0.18088845524791
0.17584277856258
0.17099001011927
0.16632487235594
0.16183324162296
0.40635975651886
1487.9205695399
2179.9558001287
1422.1582933922
815.49425493212
294.30859743286
27.316722474313
14.499185143381
11.378179589597
9.8366771993717
9.2216678120544
9.2037942725451
9.5570823690179
9.9844024952793
10.313618646197
10.543134703125
10.655784229901
10.669288263715
10.650776083024
10.650448973053
10.696467124189
10.798286808963
10.949596809367
11.136745195665
11.695280017648
11.83705235487
11.944517776768
11.993218341638
11.985572167983
11.925466015241
11.802637155667
11.623124123792
11.399075607722
11.137484559265
10.844449337745
10.524759431292
10.18935511111
9.8468992743931
9.4985460532801
9.148286198493
8.8040415125028
8.4697400351551
8.1445310069102
7.8294625212511
7.4564902813103
7.1838111264214
6.9283536785462
6.7260457061726
6.5557227362128
6.4176367040054
6.2877503440995
6.1727493415262
6.0673698480054
5.9710525106619
5.8797554177959
5.7881156265976
5.696583491051
5.6045371874962
5.5004460519443
5.3797732525348
5.2459659455491
5.1031073686909
4.9561368673836
4.8091195130573
4.6614530317155
4.5249318702336
4.4118968660073
4.3197738647682
4.2557076300374
4.2221761835431
4.2225938193579
4.231802235024
4.2483962136793
4.2510948994308
4.2438481850574
4.227980669799
4.2077433034365
4.1888454310509
3.917270898818
4.2185135630057
5.4909921925074
5.3126089540824
5.0740821201417
4.7874831752702
4.4638339562744
4.1149214116676
3.7545371904782
3.3896297865967
3.030185776737
2.6811771298879
2.3612149067676
2.066215917104
1.8036623093092
1.5751664701828
1.3799791498306
1.2159761091202
1.0803929557491
0.96943157421048
0.87561677610505
0.79573750010902
0.72801477272178
0.67062074644973
0.62159547310757
0.57950198940284
0.54323581594057
0.51160294170893
0.48366006849164
0.4588058969148
0.43646115739931
0.41621723335343
0.39784036059578
0.38104453864526
0.36566265940231
0.35135877715451
0.33799767073873
0.32547855074807
0.31363478147748
0.30247718400541
0.29189121963251
0.28192220049654
0.27246185610086
0.26353504193068
0.25502296222063
0.24696035537432
0.23926003478555
0.2319590380247
0.22497656933325
0.21833454042328
0.21196806274472
0.20589185484534
0.20006516095523
0.1944956937934
0.18914452364955
0.1839904210858
0.17900999717154
0.1741995779876
0.16955382852467
0.16507377008164
0.16075461637501
0.15658601859069
0.37433322531358
1438.7780981423
2185.0447223306
1427.3297364271
821.35464124723
301.62936041075
27.204578773233
13.493947013499
10.238507519046
8.6170191277508
7.9492054600405
7.8767250526191
8.149683535851
8.4814720389446
8.7341450501348
8.8987639650798
8.9484010025955
8.9050152579288
8.8387072937971
8.8005479836969
8.8158490953558
8.8948511357724
9.0316272985227
9.209273190601
9.8019913993881
9.9707990528866
10.121400527207
10.218545244304
10.249982388088
10.232189916731
10.162396067359
10.038209953276
9.8751373296275
9.6782206403791
9.449551374132
9.1986780801423
8.9339730411154
8.6623988431109
8.3846611343147
8.10334202743
7.8218263765311
7.5448814601328
7.2734346699413
7.0089663523614
6.696142478051
6.4512530920259
6.2469857551215
6.0613566975425
5.9101739892764
5.797199777898
5.6803542430815
5.5847101140733
5.4946376455515
5.4131808528075
5.3382324577928
5.2628045430174
5.1901833171735
5.1162276512983
5.0306010644419
4.9320089996427
4.8244050274005
4.7097157890757
4.5899057025961
4.4676159099542
4.341317060052
4.2271714173287
4.1212834403313
4.0464982626856
3.9867670553233
3.9647948637095
3.9676228350945
3.9798942252343
3.9983773736007
4.020485589539
4.020788619017
4.014927559847
4.0040551614983
3.9914050148394
3.7423791818488
4.0935612756799
5.4162697700253
5.1505286668404
4.8000196299359
4.4194038442736
4.0563820384585
3.7063691843471
3.3733394175504
3.0544373708182
2.7495704869874
2.4558962088789
2.1942763558192
1.9442858390764
1.7144762644167
1.5101525206551
1.3310003336966
1.1775196472271
1.0482461469157
0.94023554471977
0.8476670716028
0.76817453283554
0.69976518106491
0.64069611289022
0.58998290822391
0.54627656653843
0.50841254797844
0.47553657856194
0.44692274554892
0.42178651643119
0.39952472655292
0.37969349901866
0.36196197841321
0.34603453480032
0.33160563111111
0.31846406486426
0.30638048647973
0.29526844762906
0.28496916798049
0.27538633421354
0.26642754557493
0.25802128292017
0.25012351913858
0.24265679668513
0.23556950454253
0.22880812614638
0.22234490904293
0.21614706169737
0.21019712771185
0.2044876429177
0.19898940816863
0.1937071494552
0.18862102682948
0.18373534906836
0.17902112331225
0.17445805623688
0.17002811796266
0.16572874182068
0.16155662729636
0.15751926826884
0.15361292162006
0.14983132047016
0.33206878548141
1360.1944001673
2189.415324252
1434.0805707508
829.56983762524
312.32313317825
27.623136605764
12.540843922429
9.3189055250204
7.8179345218064
7.2621063801466
7.2570200967337
7.5382167022954
7.8118154444167
7.9516684396479
7.9633203502872
7.8265072667121
7.6029462899717
7.3892108816589
7.2452664356215
7.1917763783047
7.2256620718239
7.3392647488934
7.5124577909395
8.0478717970448
8.2294326766157
8.4167059147155
8.5634943625905
8.657380821622
8.6850417082347
8.6656360911189
8.600223607995
8.499652922547
8.3684621210626
8.2037680935683
8.0150467905327
7.8112007540209
7.5973843871488
7.37392912194
7.1445075873565
6.9120474756058
6.67858971406
6.4488875814787
6.2254180762711
5.9598542560891
5.7530125078611
5.5768216847305
5.4065798164148
5.2697239989477
5.1759727898334
5.0780382786566
4.9963541435392
4.9230022964501
4.8565424566599
4.7972889545362
4.7374822911576
4.6811454022208
4.6239806848149
4.5585334993435
4.4824565573314
4.3991500309825
4.3089670447912
4.2131787161751
4.113718402466
4.010013705059
3.9156180076106
3.821313565776
3.7655782324642
3.7131728353374
3.7023241181607
3.7074159267056
3.7212927477931
3.7419501698087
3.7673825714818
3.78754905133
3.7917191444355
3.7889134285485
3.78232025207
3.5146435838531
3.8840100068319
7.3984221715224
6.1619332554243
5.0360257402869
4.254733944027
3.6820750291021
3.2310151038692
2.9117436396989
2.6715347037226
2.4591084399144
2.2390364627632
2.0238219512055
1.8161825252941
1.6232832622978
1.4463984736235
1.2870023502698
1.1464468144991
1.0250905327239
0.92050946226618
0.82973142445677
0.75119332143277
0.68343263697743
0.62503490057273
0.57422007137142
0.5300705096012
0.49163389587562
0.45804121151584
0.42850601359754
0.4025306413567
0.3795686504827
0.35916679425788
0.34096779213851
0.32471359359014
0.31009445358277
0.29687515153003
0.28487729891907
0.2739398015118
0.26392285987121
0.25469068005973
0.24616528370792
0.23824723496164
0.23088236122738
0.22398626303395
0.21751503426745
0.21140040940147
0.20562080142452
0.20013164292745
0.19491730085885
0.18993072520033
0.18515526499862
0.18056813139014
0.17616963787205
0.17193635218143
0.16784643431165
0.16387312666515
0.16000245609281
0.15622351167063
0.15254033782745
0.14896103144266
0.14548569757957
0.14211145876357
0.28581532501957
1261.5194600241
2194.0554398039
1442.2642894122
839.86851356071
326.02729957934
29.196596596688
12.651857779399
10.060418241355
9.221125027655
9.215725620156
9.5629764999593
9.924516604251
9.9614861526022
9.5934208608313
8.9870787998489
8.2640342457352
7.5574739690433
6.9755049500193
6.5523422228669
6.281177110783
6.1701413882847
6.1953857090853
6.3216107218876
6.7284656784621
6.9318970148495
7.1397317092056
7.3247406954355
7.4603643617887
7.5441406245645
7.5622700926243
7.5445029750805
7.4983077764775
7.4225495693506
7.3131677698035
7.1754568251288
7.0156306109854
6.8405601691911
6.6536290987312
6.4577849790115
6.2555461692537
6.0495661889466
5.8449761934195
5.6475198979048
5.4129432362004
5.2322489342374
5.0663630673929
4.9162224693405
4.7854658434636
4.6995543927903
4.6118101047478
4.5360508823738
4.4756009797958
4.4221956544755
4.3725353847695
4.3220361216268
4.2739259933286
4.2244121474911
4.1681445760683
4.1024613802778
4.0310580199096
3.9538878982625
3.8721606217312
3.788065182501
3.7005278405388
3.621052302529
3.5384475677452
3.49732823675
3.4575649286262
3.4527687602447
3.4572656923079
3.4701092350657
3.4891412142522
3.5128414819994
3.5345838399448
3.553340408927
3.559180179621
3.5569355155148
3.3168125426355
3.6863311953855
11.608668168686
7.7759424717029
6.0038076308248
4.7517866572015
3.8951404308152
3.2811391486068
2.8184667444486
2.477240379898
2.211529233789
2.0195464534477
1.8684326906878
1.7086850678212
1.5436668409747
1.386852598787
1.2448493241595
1.1181325465767
1.0053398167296
0.90480815537815
0.8164974616028
0.73942126944111
0.67243757591498
0.61434269100274
0.56405924953562
0.52013085089803
0.48168083285013
0.44794238353312
0.41823427302609
0.391868014467
0.36845605379265
0.34760906887458
0.32898205929069
0.31224677871249
0.29720913533889
0.28363834912489
0.271351792118
0.26017198518235
0.2499900137695
0.24066140723171
0.23207419148999
0.2241609889846
0.21684679555321
0.21006214632649
0.20373167167163
0.19780695049678
0.19224828498674
0.18701826993715
0.18208084393191
0.17739713100007
0.17294471922465
0.16869847878112
0.16464903493733
0.16077473565171
0.15705633407935
0.15346530650214
0.14998431578296
0.14659734163548
0.14330612297765
0.14011243260985
0.13701491397188
0.13400846099251
0.24063721115282
1148.0657994318
2199.3730819549
1451.8785516774
852.05083908692
342.38150627839
32.886688244704
15.203376070373
14.809374210964
15.940812238774
17.339637121675
18.567921737559
19.248678729024
18.861228753674
17.294772013909
15.010959627194
12.512863998081
10.252390510991
8.4768346823238
7.2211459093992
6.4240682682406
5.9931604076137
5.8261341573587
5.8194241616225
6.0016592561039
6.1708049012135
6.3396265450784
6.5074519417858
6.6477826858406
6.7477533568802
6.7989802688827
6.8224419313567
6.817702644578
6.7883996826779
6.7258800347376
6.6330914958396
6.5096154746527
6.3616862447954
6.1988786626642
6.0254376002782
5.8428903035831
5.6540057690297
5.4641015632062
5.279245244647
5.0597971420305
4.8947885283997
4.7341092734456
4.5943362335198
4.4700751061505
4.3851447881354
4.3042653625437
4.2267992477906
4.1746362117966
4.1268927855309
4.0796465567085
4.0315802683017
3.98300572869
3.9317215844556
3.8750701763049
3.8094608229036
3.7398481428065
3.6664746529024
3.590260543659
3.5131845115689
3.4343991649496
3.3616316353407
3.287363047697
3.2558201298823
3.2252402379011
3.2185343403033
3.2229952453424
3.2351604290959
3.2555568635609
3.2827260579827
3.3129039797416
3.3367717978738
3.3622599267371
3.3644013536841
3.2223526018265
3.5931227036083
6.4431042552717
6.9418915184335
5.2561230991514
4.5428939674562
3.9110088204207
3.3860088543249
2.9635091282997
2.6274982307958
2.2956959701195
2.0245850833839
1.80983849288
1.6392649402502
1.5074106080096
1.3776662664886
1.2463632900942
1.1231773991144
1.0116922870596
0.91284560699108
0.82552122396345
0.74812187193744
0.67998227753961
0.62044904384057
0.56859677568739
0.52350507074302
0.48402195657341
0.44917751782109
0.41853082665783
0.39137881527117
0.36722052872923
0.34555163074682
0.32617421575989
0.30875442412039
0.29304407890878
0.27880327759534
0.26591944602982
0.25421621485737
0.24354486377485
0.2337749934275
0.22481516074836
0.21657374261846
0.20896630260146
0.20193701710215
0.19541876484498
0.18935450796098
0.18369048372597
0.17839203305085
0.17342589301668
0.16875295700564
0.16433721725868
0.16015198373198
0.15618427556618
0.15241752622279
0.14882955674408
0.14538899524224
0.1420722320332
0.13886657850062
0.13576816850519
0.13277121697125
0.12987684607915
0.12708159060418
0.12682369684495
241.90249278211
2362.5993601007
1635.5153144171
1003.9247414682
480.9747344043
76.62216621458
21.964457104704
24.60066246973
28.04492910986
30.85382789443
33.153689713121
34.829066759533
35.024748879928
33.129015950199
29.437447888585
24.504619385969
19.22515819199
14.598819388072
11.147333082721
8.8282626516471
7.3835071857738
6.5562382859282
6.1363016667437
5.899807228097
5.9457094765271
6.021351361636
6.0849772311636
6.1621718686188
6.2296157226697
6.2740271037004
6.3047921180855
6.3314569688209
6.334294691664
6.3097046928514
6.2537851488027
6.1631078918997
6.0423835469352
5.9011465646494
5.7446030147302
5.576314424934
5.4003191317408
5.2208292402142
5.0080387235528
4.7311554867486
4.5778810569785
4.4238288090346
4.2896149362254
4.1675143034257
4.07453144297
3.995642939691
3.9227043772694
3.8669950966492
3.8220667559836
3.7770038395322
3.7312663815754
3.6848591239434
3.6341441221171
3.5777904226619
3.5111217129119
3.4405041264688
3.3669353701148
3.2905135385196
3.2179650980457
3.1437020534939
3.0792053730529
3.0266679601573
2.9932235699417
2.9871797036592
2.9933756686912
3.0105044802792
3.0361460026056
3.0700997761956
3.1095658353662
3.1523635164252
3.1965058730869
3.2436494790981
3.2744095692996
3.804413665154
3.4619941454425
4.2097845764306
3.4716280126822
3.2327516043973
3.0013820475162
2.8830225785859
2.7371387046323
2.5680482559062
2.3965059122635
2.2226388594149
2.0449963379675
1.8458826061835
1.6073772376313
1.42543919908
1.2762610075378
1.1564302922714
1.0557283747161
0.95743186188018
0.86672486944763
0.78541799669353
0.7139275886458
0.65125360948456
0.59607684653743
0.5473240188705
0.50423378512277
0.46621632644803
0.43268400715965
0.4030063085648
0.37657106118207
0.35305941373711
0.33206004703632
0.3131814492984
0.2960840515737
0.28055943928236
0.26647133356184
0.25362861447717
0.24189202975552
0.23112854618934
0.22126775987383
0.21219256133836
0.20381141949797
0.19605191242733
0.18886822860197
0.1821960769027
0.17598625834378
0.17019249720398
0.16478472075431
0.1597321702193
0.15499457402672
0.1505381417353
0.14633781410518
0.14238196748549
0.13864980255996
0.13511726086191
0.13175651583564
0.12854464639198
0.12546704602
0.12251673905433
0.11969122899386
0.11698150453775
0.11438532028324
0.14332253469875
735.51414458637
2215.4129829156
1489.2666003326
898.28614354907
403.95540513758
69.348062303063
49.440149982442
56.593389995079
60.482857401359
63.554434786855
67.059989412673
70.217939343184
71.303509637371
69.549516798982
64.827739442039
57.1004418844
47.056279708882
36.157149412948
26.289828412481
18.874938366314
14.093542344356
11.231334953386
9.4992951957129
8.0242973129424
7.1872060972936
6.4924567169945
6.0350560883431
5.8082009462801
5.7083324202013
5.6553041878405
5.6205492462142
5.6171467394153
5.6334363452563
5.6482791330877
5.6294199241054
5.5804959740553
5.5040907329872
5.3979619646097
5.267206635317
5.119373260262
4.9603804118367
4.7949605267263
4.5956930589403
4.2857632204513
4.1486491206923
4.0086602460932
3.8929287034937
3.7885674050923
3.7000011501184
3.6291229430425
3.5782381508063
3.5348149444144
3.5036443598958
3.4773578409263
3.4506691111512
3.4265232000565
3.398193445657
3.3646246307466
3.3209104612319
3.271475968153
3.218757863022
3.1611665157944
3.1074559851992
3.0605226784567
3.0092800040414
2.9938162201898
2.9971815620892
3.0130079357267
3.0448807244378
3.0970783192382
3.1691814307262
3.2638576540132
3.3811063592268
3.5179207584223
3.6728870520797
3.8342541722701
4.0028128874135
5.4048999605392
4.8611924928314
3.7088105410416
2.0631799038319
2.1284785020927
2.0650349263154
2.0497960254997
2.0445155392214
2.0390068474037
2.0061429536469
1.9578933088496
1.884748890742
1.7889464147441
1.6661188974976
1.4924284108697
1.2956689873196
1.1467293372308
1.0264626954941
0.92768396858205
0.84777895802592
0.77223398993373
0.70344370195159
0.64199572015623
0.58768340020416
0.53994598521219
0.49800762470397
0.46092227169397
0.42790091640025
0.39838249744231
0.37199044082288
0.34843688959707
0.32731558603734
0.30831424244624
0.29119211784777
0.27567380883594
0.26158145789698
0.2487073475554
0.23689228012301
0.22605702358651
0.21608163802017
0.20688988273429
0.19837039972294
0.19048509926035
0.18315641227393
0.17632982879636
0.16994853202073
0.16397822060512
0.15839737910804
0.15316859082546
0.14826147593623
0.14363918474817
0.13928531147274
0.13518485276896
0.13131868154529
0.1276653730566
0.12420057201334
0.12090541477289
0.11776308199316
0.11476592622338
0.11190465688646
0.10917098296845
0.1065622509765
0.11434481401532
454.71460805891
2218.7304294566
1520.7707409465
935.59375267708
452.82996378937
116.1211342557
82.788269777662
87.569558635812
89.141255167813
91.375810696228
95.761447902286
100.71191621322
103.8475635852
104.14267881825
100.6599049599
92.756100857225
80.775251826115
65.92231465216
50.037632110089
35.559347116623
24.575205567427
17.597167941993
13.482212512495
10.854795105164
8.8960296859187
7.2748193074065
6.1963784221905
5.6032206649752
5.3235939541926
5.1811259772477
5.0988193432584
5.064541509962
5.0488899654467
5.0557757127213
5.0385960629762
4.9866868586438
4.9005209381846
4.787877779006
4.6551485164448
4.5079338576142
4.3518681465171
4.1947918421441
4.0175769462634
3.7700447961337
3.6688633004681
3.5746078107171
3.5001384640812
3.4430184541939
3.3845119657605
3.3461643722695
3.3409980059369
3.344680242182
3.3552437673829
3.3738704180473
3.3952123668307
3.4222137799111
3.4391870304673
3.4579837990176
3.4703524892704
3.4756503118774
3.4796500857121
3.4788845649538
3.483113322072
3.4964384961398
3.528242499368
3.5864499063694
3.6721984085822
3.7962235254168
3.9616639439304
4.183328908552
4.4672656311841
4.8236633368189
5.2568072803501
5.764298506952
6.345940956116
6.9848067998428
7.7012851998126
12.241961730828
11.512538607416
3.449406092881
1.5718756987555
1.500576631759
1.5108514781841
1.523234919177
1.551667834369
1.5813134647446
1.6089525921421
1.6202875465092
1.6229570348855
1.6035578477748
1.5461785389788
1.4764513675877
1.3576175556137
1.1920640684835
1.0415717383866
0.92740104479036
0.83496180510191
0.7576939063963
0.69422898758865
0.63596119805785
0.58318707885011
0.53592603951858
0.49404241825651
0.45708804841253
0.42439578061554
0.39531443755051
0.36928978364932
0.34589659047439
0.32481304728912
0.30576563145873
0.28852313337094
0.27287375563702
0.25864313313435
0.24569401037834
0.2338555315647
0.22298551314466
0.2129606073272
0.20368721153772
0.19513619283121
0.18721337269358
0.17985174599554
0.17296584767513
0.16652177259386
0.16048832170284
0.15482521876981
0.14950843345525
0.14449758469116
0.13977232499337
0.13531526724378
0.13110555835974
0.12712959531913
0.12336563078463
0.11979930869927
0.11641181570573
0.11318830444817
0.11011606003171
0.10718255382872
0.10438449838527
0.10171571970771
0.10181594830041
224.7618795632
2215.4292866723
1555.9382050785
976.68170996374
506.3374693909
171.6627465193
115.68064088556
114.63756677118
112.30980815169
112.70152539949
117.36633043328
123.98842605068
129.68925338805
132.72756948431
131.24354945598
124.03354497759
111.27395219688
94.142884021827
74.426366444381
54.478592164863
37.073191805209
24.39543349051
16.662277492236
12.399038896977
9.3724440792762
7.1929184043231
5.7456062214983
4.999277255022
4.6691827515719
4.5303649144429
4.4627318668842
4.443765505389
4.4543304632449
4.4831222910581
4.4625328064305
4.4078602661557
4.3242855741034
4.2187506463749
4.1057756105117
3.992723365357
3.8827501888949
3.7785478724619
3.6790394074271
3.5698653461353
3.5209962399976
3.49000532971
3.4841258075932
3.4934928505693
3.5209788035306
3.5728323086861
3.6533810896561
3.7642801922283
3.8976349033834
4.0532403168939
4.2154929574991
4.3850185818401
4.5497586703384
4.705976947572
4.8619697863308
4.9987499898452
5.1292740643399
5.2663639052235
5.4242931410844
5.6165096005405
5.8602448053794
6.1725308665737
6.5635886700464
7.0706074616988
7.711127559799
8.532103478831
9.5615841094607
10.840307985069
12.388234252027
14.19544990176
16.262493341772
18.52819300097
21.192842815902
33.49854436055
26.361885253726
3.5544293033057
1.3792007460836
1.1618336262999
1.1593953821654
1.1829344028188
1.2164500596836
1.255918046854
1.2968038235167
1.334355078453
1.3569635087317
1.3789792710297
1.3836353275883
1.3471811536151
1.3026015997414
1.2205995558691
1.0993815491044
0.95588336806343
0.8459634208655
0.75954435355273
0.68893753665267
0.6294356898399
0.5792353724902
0.53373906191059
0.4925959646141
0.45571217007905
0.42284566657311
0.39360909550228
0.36755426174328
0.34422839906225
0.32324901022206
0.30431224641467
0.2871264824752
0.27146826385147
0.2571769325406
0.24411219189018
0.23214167497361
0.22114380560038
0.21102015687498
0.20168183921745
0.19306476452854
0.18508392835298
0.1776606609399
0.17075769039915
0.16430298296394
0.15825608546194
0.15257649207762
0.14722213064299
0.14217589296231
0.13741059155326
0.13290219123877
0.12863524902059
0.12458928526066
0.12075762935539
0.11712458257264
0.11367401530957
0.11039154892908
0.10725764602277
0.10426776404021
0.10141649398823
0.098690964669825
0.09656402585099
89.287841635723
2182.7495283347
1594.1084364611
1020.6878598611
563.23213563938
231.46881847139
147.33335744983
138.02876606004
130.44071398907
127.48078884751
131.25647611344
139.19349051828
147.67731504523
153.65582720338
154.2412299364
147.92183932574
134.82043255445
116.23998787186
94.039493928715
70.479150725557
48.434626726689
30.739382846131
19.102669399325
12.982646835992
8.9135835049245
6.3378164751757
4.8305839943181
4.1108328217272
3.8654446307987
3.8003520792001
3.7975766768387
3.8438731649242
3.9170421384266
3.9379184807186
3.9217965569808
3.8930421302301
3.8558986517185
3.8296778249343
3.8101183174587
3.7870663228647
3.7613227105376
3.7474705350145
3.7516252935391
4.0585977864947
4.160989353854
4.2875824891231
4.4438809531717
4.6360254237003
4.8657041892764
5.1431383417313
5.474943377451
5.8640982347038
6.295167716359
6.7625218349247
7.2492206973093
7.7573964697479
8.2729281114774
8.8015690780772
9.3204211048724
9.8426082885168
10.382760402968
10.969188495567
11.637289408863
12.425730012958
13.390439768465
14.570433749
16.010406255215
17.773862435629
19.914898077015
22.526936402483
25.671176463194
29.371910172953
33.613313022675
38.316429502437
43.415316257825
48.722978603335
55.387148090349
81.031207167395
56.938073263706
4.233425875254
1.2493146482642
0.99506483534425
0.93333911852181
0.9520986898374
0.98434654478003
1.0234947375824
1.0646330654857
1.1060343598984
1.1444791338282
1.1794739512027
1.2052340004194
1.2090864430794
1.1829704142903
1.1557878923665
1.0957422491359
1.0011794074047
0.88299068672319
0.77736226352646
0.69663621917868
0.63158250210104
0.57758538371307
0.53151848648492
0.49143955582568
0.45545680003388
0.42288818074682
0.39357631995694
0.3672804030122
0.34370341987565
0.32252825983024
0.30347234117905
0.28629966574723
0.27067842039933
0.25638967659109
0.24330574076435
0.23131073032705
0.22026111428457
0.2100418389468
0.20058368251683
0.19184479533829
0.18376305419858
0.1762706417329
0.16930478573756