/*--------------------------------*- C++ -*----------------------------------*\
| =========                 |                                                 |
| \\      /  F ield         | OpenFOAM: The Open Source CFD Toolbox           |
|  \\    /   O peration     | Version:  2312                                  |
|   \\  /    A nd           | Website:  www.openfoam.com                      |
|    \\/     M anipulation  |                                                 |
\*---------------------------------------------------------------------------*/
FoamFile
{
    version     2.0;
    format      ascii;
    arch        "LSB;label=32;scalar=64";
    class       volScalarField;
    location    "5e-05";
    object      nut;
}
// * * * * * * * * * * * * * * * * * * * * * * * * * * * * * * * * * * * * * //

dimensions      [0 2 -1 0 0 0 0];

internalField   nonuniform List<scalar> 
109340
(
0.00072277328775397
0.00049654229704506
0.00026814779947632
0.00022418448789009
0.000217272239229
0.00022180989583758
0.00023026103708087
0.00024365105998091
0.00021246042907622
0.00018903392893764
0.0001704846711381
0.00015535075941873
0.0001427406493659
0.00013206099458611
0.00012289572329916
0.00011494233303386
0.00010797477557888
0.00010182038660253
9.6344843989411e-05
9.1442003060673e-05
8.7026826538576e-05
8.3030340345506e-05
7.9395967136467e-05
7.6076823920542e-05
7.3033704828771e-05
7.0233549955407e-05
6.7648267445425e-05
6.5253800546176e-05
6.3029351852592e-05
6.0956753576581e-05
5.9019988059739e-05
5.7204739669012e-05
5.5497695856159e-05
5.3885144508607e-05
5.234930536994e-05
5.0859423712366e-05
0.00071437072398276
0.00034707455563769
0.00025446026300129
0.00023286625569789
0.00023140812079082
0.00023617051854272
0.00021071907503952
0.00018333565842462
0.00016206430099
0.0001452242801474
0.00013159038069459
0.00012033387724063
0.00011088597650009
0.00010284529378357
9.5920831129527e-05
8.9896529855616e-05
8.4608630409216e-05
7.9930755577308e-05
7.5763820220615e-05
7.2029000566876e-05
6.8662713701773e-05
6.5613028062897e-05
6.2837087819861e-05
6.0299247267837e-05
5.7969639451258e-05
5.5823078980911e-05
5.3838220698425e-05
5.1996826867908e-05
5.0283155024295e-05
4.8683481649912e-05
4.7185746703242e-05
4.5779226303637e-05
4.4454020152501e-05
4.3200367328852e-05
4.200755801638e-05
4.0858134258878e-05
0.00041968166729543
0.00029625311104424
0.0002555106361296
0.00023932964498747
0.00019152196328232
0.00015968461301421
0.00013660766597869
0.00011921765465577
0.0001057040442854
9.494600024799e-05
8.6204784227476e-05
7.8975672022897e-05
7.2905298322002e-05
6.7740466792993e-05
6.3295722396161e-05
5.9432466235274e-05
5.6045203713774e-05
5.3052289715153e-05
5.0389401645823e-05
4.8004753934987e-05
4.5855972026002e-05
4.3908205312617e-05
4.2132943604528e-05
4.050677564109e-05
3.9010395608882e-05
3.7627827869567e-05
3.6345821138821e-05
3.5153128854877e-05
3.404020821777e-05
3.2998797729693e-05
3.2021709234653e-05
3.1102552435923e-05
3.0235627994832e-05
2.9416055010983e-05
2.8641589762864e-05
2.7912674826909e-05
0.0002413247498867
0.00024364134738459
0.00015296212429755
0.00011138085746609
8.7635463428194e-05
7.2303320289332e-05
6.161809370238e-05
5.3763234386585e-05
4.7758071704406e-05
4.3027098383514e-05
3.9210488688828e-05
3.607149397846e-05
3.3448000310643e-05
3.1225429332784e-05
2.9320733457492e-05
2.76723499598e-05
2.6233688078672e-05
2.4968454908545e-05
2.3844403408336e-05
2.2833602576071e-05
2.1914941122632e-05
2.1073310066345e-05
2.0297806925001e-05
1.9580430364788e-05
1.8915054904139e-05
1.829686222297e-05
1.7721441863747e-05
1.7185537184188e-05
1.6686403379725e-05
1.6221522169191e-05
1.5788460715024e-05
1.5384159810837e-05
1.500379053372e-05
1.4642877745943e-05
1.4302197536451e-05
1.3992876423322e-05
0.00014541485413894
4.7526691884281e-05
2.8908020446854e-05
2.0969607222795e-05
1.6596140914523e-05
1.3851189757181e-05
1.1984457423406e-05
1.0643593776771e-05
9.6412490441101e-06
8.8695473155366e-06
8.2624341869363e-06
7.7780370611363e-06
7.3886468849348e-06
7.0756227605401e-06
6.8262889338697e-06
6.6317847752563e-06
6.4845920038417e-06
6.3733709584676e-06
6.2757567811587e-06
6.1788868294241e-06
6.08028635659e-06
5.9832537301659e-06
5.8918572075587e-06
5.809012151903e-06
5.7364298338206e-06
5.6750127252199e-06
5.6251154883067e-06
5.5867007807478e-06
5.5603620674233e-06
5.5457461673508e-06
5.5418831633738e-06
5.5479104964894e-06
5.5627225168455e-06
5.5846275354154e-06
5.6093197381417e-06
5.6288841935331e-06
3.6560081849802e-07
5.455666761484e-07
7.019236735002e-07
8.2397310530322e-07
9.1126305259724e-07
9.6887145687356e-07
1.0035442005324e-06
1.0216033254002e-06
1.0280963955029e-06
1.0271853215312e-06
1.0212995285904e-06
1.0123481585153e-06
1.0016458004834e-06
9.900813250219e-07
9.7825145275292e-07
9.6658321292724e-07
9.5535428444116e-07
9.4475110979119e-07
9.3497019063828e-07
9.2623839931833e-07
9.1835052699848e-07
9.1118228358284e-07
9.0467132384282e-07
8.9878132182239e-07
8.9348126973505e-07
8.8874022974875e-07
8.8452447703192e-07
8.8079593927516e-07
8.7750831082862e-07
8.7460184187929e-07
8.7199466507501e-07
8.6955994982474e-07
8.6707176788387e-07
8.6397963696378e-07
8.5841155427244e-07
8.4077996586855e-07
4.6718484974393e-05
2.621283078637e-05
1.4830617699384e-05
9.7438511697908e-06
7.0830441932361e-06
5.3372348803467e-06
4.1063141171513e-06
3.2012168089058e-06
2.5838769214645e-06
2.2933177534776e-06
2.3343677261189e-06
2.9181441892893e-06
3.3966549734327e-06
3.948034243373e-06
4.4125134385437e-06
4.7670526903461e-06
5.0858350305296e-06
5.3491298573202e-06
5.5804278948735e-06
5.8184209777034e-06
6.0294748757091e-06
6.2053399067599e-06
6.279713178425e-06
6.0182985090466e-06
5.7791427583663e-06
5.5592814233393e-06
5.3571156919691e-06
5.1702958586326e-06
5.0016297605179e-06
4.8409084516127e-06
4.689650925604e-06
4.5584347756324e-06
4.4238823974624e-06
4.3098449379748e-06
4.1931775009708e-06
4.0903559403417e-06
3.9891640358889e-06
3.8937488867355e-06
3.8066985047351e-06
3.7188191690937e-06
3.6419888212027e-06
3.5622573813776e-06
3.4925459561227e-06
3.4202302414326e-06
3.3560478166101e-06
3.2908057109218e-06
3.2308417385008e-06
3.1720376207715e-06
3.1152916611728e-06
3.0615543715732e-06
3.0083713636907e-06
2.9578651765642e-06
2.9084478163177e-06
2.8609711233416e-06
2.8147699766661e-06
2.7697973046058e-06
2.7260515461449e-06
2.6835105887168e-06
2.642197615197e-06
2.6019492682554e-06
2.6833534047887e-06
0.00015886634081123
0.00040675914634627
0.0003654440259705
0.00029034903525613
0.0001687948693146
4.4051703438623e-05
2.8703220943618e-05
2.4778105775178e-05
2.2723730353918e-05
2.1845900796387e-05
2.1773158580509e-05
2.2261515751253e-05
2.2933203128696e-05
2.3471542285065e-05
2.3847938899855e-05
2.4068807980394e-05
2.4154889275992e-05
2.4179583903675e-05
2.4212534166403e-05
2.4290901132487e-05
2.4430895677047e-05
2.462914308428e-05
2.4866173957426e-05
2.4920147287316e-05
2.5307809992723e-05
2.5589734454639e-05
2.5707281645143e-05
2.5702381035439e-05
2.5626309796312e-05
2.5460236655077e-05
2.5213739397234e-05
2.4908047159618e-05
2.4549663524945e-05
2.4142378788087e-05
2.3686201979453e-05
2.3197006830524e-05
2.2684368388906e-05
2.2162982563698e-05
2.1644332203512e-05
2.1125114046251e-05
2.0602591339048e-05
2.0082390316759e-05
1.9573420198473e-05
1.8957427813567e-05
1.853690936403e-05
1.8100732091899e-05
1.7775935453562e-05
1.7488980644188e-05
1.7258128162753e-05
1.7044430919125e-05
1.6840524204171e-05
1.6651283717351e-05
1.6471989145317e-05
1.6299474188145e-05
1.6123567673483e-05
1.5950465218131e-05
1.5782406395029e-05
1.5598208878182e-05
1.5384787322944e-05
1.5144770440611e-05
1.4887093556956e-05
1.4621793888867e-05
1.4351334445778e-05
1.4093239594907e-05
1.3832365955634e-05
1.3638184182527e-05
1.3460526372519e-05
1.3349813688869e-05
1.3268229129653e-05
1.3262109140045e-05
1.3273643744034e-05
1.3307127517857e-05
1.3318166668276e-05
1.3300310174763e-05
1.3263317763778e-05
1.3212730924549e-05
1.3155883888732e-05
1.2548856662887e-05
1.3060886911588e-05
3.6247926514363e-05
2.055619181533e-05
1.2778827352685e-05
9.0725616408263e-06
6.7646416409977e-06
5.1345754699827e-06
3.9676720511349e-06
3.1236794130053e-06
2.5074666236774e-06
2.0900399154882e-06
1.8416977454808e-06
1.7818803656392e-06
1.8569323389023e-06
1.991401915101e-06
2.2028707061462e-06
2.4770415430863e-06
2.8044293336808e-06
3.1896286031723e-06
3.5933678807188e-06
4.0060382114419e-06
4.4259308406891e-06
4.8506708939472e-06
5.2701042173008e-06
5.6836319957535e-06
5.6198612809589e-06
5.4054064753757e-06
5.2100275888888e-06
5.0310899272683e-06
4.8661207191839e-06
4.7142584817166e-06
4.5733544242403e-06
4.4425230146267e-06
4.3205822429952e-06
4.2062105541491e-06
4.0994913428882e-06
3.9985363269358e-06
3.903903608188e-06
3.813940387134e-06
3.7291824154666e-06
3.6485532687646e-06
3.5721501373495e-06
3.4992277027219e-06
3.429743198942e-06
3.3631196476184e-06
3.2995903016123e-06
3.2385084245956e-06
3.1800933109076e-06
3.1236335618257e-06
3.0695042300695e-06
3.0171284176315e-06
2.9667514697579e-06
2.9179574959589e-06
2.870681516473e-06
2.8247362655966e-06
2.780063197309e-06
2.7365677933662e-06
2.6942621484066e-06
2.6530926904187e-06
2.6129959530486e-06
2.5738450836612e-06
5.2576970879854e-06
0.0002713274528143
0.00040222419159099
0.00034997280836661
0.00026591938437273
0.0001316093955994
3.5357859377385e-05
2.6334279466859e-05
2.2936908593052e-05
2.1136840287404e-05
2.0400714907951e-05
2.0397005610833e-05
2.0846564308029e-05
2.1370614052604e-05
2.176118077585e-05
2.2024902171018e-05
2.2149598537147e-05
2.2161279675956e-05
2.2141009296132e-05
2.2148331638983e-05
2.2216479754391e-05
2.2355389062345e-05
2.2555963584677e-05
2.2800039709438e-05
2.3463619925343e-05
2.3649625271045e-05
2.3795706724336e-05
2.3870426532098e-05
2.3870835200424e-05
2.3815638193583e-05
2.3688084098956e-05
2.3492776258922e-05
2.3241319519704e-05
2.2940586864223e-05
2.2596827660445e-05
2.2214798841595e-05
2.1806544037496e-05
2.138185653742e-05
2.0941713511079e-05
2.0490658436233e-05
2.0039673379896e-05
1.9592280064403e-05
1.9147373386793e-05
1.8707524420056e-05
1.8174466099835e-05
1.7777576189733e-05
1.739703205402e-05
1.7085308301661e-05
1.6821760301465e-05
1.6601387066948e-05
1.6389587616824e-05
1.6199106028515e-05
1.6022059675473e-05
1.5860723740205e-05
1.570827496011e-05
1.5553997147435e-05
1.5399771646732e-05
1.5245005292252e-05
1.5072134283503e-05
1.4873614159986e-05
1.4653945099614e-05
1.4418929388451e-05
1.4175782633981e-05
1.393035689797e-05
1.3678707564472e-05
1.3445521095587e-05
1.3257674401684e-05
1.3086288462988e-05
1.2977622781519e-05
1.2901556267301e-05
1.2895825427587e-05
1.2902889395758e-05
1.292146590906e-05
1.2910577733879e-05
1.2892495530236e-05
1.2857107337192e-05
1.2813171015827e-05
1.276910086673e-05
1.2288298228027e-05
1.2809014795807e-05
2.670424808842e-05
1.3976497504141e-05
9.0527810859211e-06
6.6448145461252e-06
4.9696269352521e-06
3.9044243552858e-06
3.1367729419717e-06
2.5787596681756e-06
2.1964199850135e-06
1.9450720901959e-06
1.8533134780586e-06
1.8275395812843e-06
1.8797186706187e-06
2.0010882745137e-06
2.1676000416894e-06
2.36638385773e-06
2.6011519183277e-06
2.8595822680606e-06
3.1146212325492e-06
3.371568124063e-06
3.6492295940313e-06
3.9362675745267e-06
4.2288480923166e-06
4.5418646780722e-06
4.8719957767839e-06
5.2086654401096e-06
5.1292851981435e-06
4.9498316798283e-06
4.7849034474904e-06
4.633131054233e-06
4.4936150815971e-06
4.3640832524297e-06
4.2441542743007e-06
4.1322571831952e-06
4.0278633749235e-06
3.9306103851126e-06
3.838768980476e-06
3.7521314837766e-06
3.6698617235778e-06
3.5921497589971e-06
3.5181019886427e-06
3.4478013356151e-06
3.380385019896e-06
3.3161552232568e-06
3.2544838954928e-06
3.195606092155e-06
3.1388506288466e-06
3.0843695469215e-06
3.0317097212994e-06
2.9810486126914e-06
2.9320770338318e-06
2.8848193888747e-06
2.8389496214856e-06
2.7943503503401e-06
2.75089538064e-06
2.7085985933738e-06
2.6674251349363e-06
2.6273518937604e-06
2.588297719484e-06
2.5501557021705e-06
5.030519818025e-06
0.00026582541463171
0.00040218240863861
0.00035042227297036
0.00026721949492155
0.00013416184723543
3.4942223508569e-05
2.536592788956e-05
2.1758189717443e-05
1.9828552838299e-05
1.9036636271258e-05
1.9016397629066e-05
1.9440746129952e-05
1.9909738330993e-05
2.0232338660021e-05
2.0406433765226e-05
2.0418178516794e-05
2.0313270083293e-05
2.0191405522666e-05
2.0120139110584e-05
2.0130479160017e-05
2.0234203648271e-05
2.0420309890756e-05
2.0663165398754e-05
2.1362588394355e-05
2.1593004636089e-05
2.179851565422e-05
2.1937235035694e-05
2.1984709925063e-05
2.196441791071e-05
2.1882558954826e-05
2.1729174971744e-05
2.1520863164582e-05
2.1265364573471e-05
2.0965529298938e-05
2.0632059165296e-05
2.0274894544092e-05
1.9903164058473e-05
1.9518178823334e-05
1.9122897015681e-05
1.8721335568536e-05
1.8320621712408e-05
1.792030203026e-05
1.7523995151692e-05
1.7046508801873e-05
1.6665981308176e-05
1.6338592054441e-05
1.6033596579943e-05
1.5785318186481e-05
1.559110500206e-05
1.5385434401819e-05
1.5211272784285e-05
1.5046718822793e-05
1.4900127542709e-05
1.476502655937e-05
1.4625382944924e-05
1.4491736268772e-05
1.4356078562328e-05
1.4202997134054e-05
1.4030569109744e-05
1.3844783132851e-05
1.3648481620416e-05
1.344393852018e-05
1.3234628240245e-05
1.3011851733392e-05
1.2822587846471e-05
1.2626970840872e-05
1.2493422795006e-05
1.2384281642158e-05
1.2322763673179e-05
1.2319540996388e-05
1.2329227730694e-05
1.2347174050261e-05
1.2372499446942e-05
1.234917492708e-05
1.232911597433e-05
1.22975032875e-05
1.2260827367483e-05
1.1812341288599e-05
1.2425361907363e-05
1.3815495832528e-05
8.0573227058866e-06
5.4726766756811e-06
4.03585370232e-06
3.2323817361838e-06
2.7157565196019e-06
2.3823001732348e-06
2.1756715578297e-06
2.0524428737903e-06
2.0325063554933e-06
2.0095269204858e-06
2.018889172571e-06
2.0654522284677e-06
2.1476523044862e-06
2.2708450029966e-06
2.4396583737358e-06
2.6314854810638e-06
2.8488940255271e-06
3.0712173446046e-06
3.2825117615403e-06
3.4758252507013e-06
3.6826063727797e-06
3.9061149560147e-06
4.1285452925864e-06
4.3589286861472e-06
4.6134846559961e-06
4.8803513360156e-06
4.8818720913559e-06
4.7182970238619e-06
4.5672143824501e-06
4.4278405528629e-06
4.2989254071003e-06
4.1789128627465e-06
4.0670853785548e-06
3.9625492875081e-06
3.8650016335024e-06
3.7733773915616e-06
3.6871833863602e-06
3.6059860647252e-06
3.529205313557e-06
3.4566019976288e-06
3.3877660326842e-06
3.322328747078e-06
3.2600219280517e-06
3.2007246696512e-06
3.1438785129297e-06
3.0891918308131e-06
3.036536364844e-06
2.9856784387707e-06
2.9366966231814e-06
2.8893939668644e-06
2.8437317238152e-06
2.7994099246551e-06
2.7562766766192e-06
2.7142346655923e-06
2.6732927346456e-06
2.6334137144541e-06
2.5946020570244e-06
2.5567500938556e-06
2.5197694237474e-06
4.7077395330975e-06
0.00025692260741211
0.00040193104923081
0.00035103203196466
0.00026905600436247
0.00013792841447338
3.4810484810956e-05
2.4650123598455e-05
2.1098420539959e-05
1.932280309042e-05
1.8694397663367e-05
1.8814602472511e-05
1.9322363007502e-05
1.9788775971402e-05
2.0032486286069e-05
2.0059336149858e-05
1.9814583235393e-05
1.9390514581819e-05
1.8960402504873e-05
1.8642290550532e-05
1.8485254462117e-05
1.8478167153471e-05
1.8605086370257e-05
1.8827419679416e-05
1.9459395628121e-05
1.970293036104e-05
1.9942626684806e-05
2.0122474554001e-05
2.0221133853075e-05
2.0219225965597e-05
2.0172225643471e-05
2.0054389920401e-05
1.9887152786317e-05
1.9678869888847e-05
1.9423568786685e-05
1.9131845473817e-05
1.8815186986473e-05
1.8481545869837e-05
1.8132794975071e-05
1.7774053850225e-05
1.740847900322e-05
1.7037658836679e-05
1.6669162916186e-05
1.6306164782983e-05
1.5868740315235e-05
1.5523947239567e-05
1.521810444768e-05
1.4918231669455e-05
1.4680705191739e-05
1.4500992247665e-05
1.4307303451925e-05
1.4142123805233e-05
1.3995532587588e-05
1.3863916107507e-05
1.3742341391348e-05
1.3614858422305e-05
1.3494924035238e-05
1.337473842823e-05
1.3243876027431e-05
1.3099066267228e-05
1.2945661002627e-05
1.2783922240691e-05
1.2614468869489e-05
1.2439258599807e-05
1.2251914463696e-05
1.2094210580536e-05
1.1902404955565e-05
1.1810697311203e-05
1.1697408884516e-05
1.1658701569434e-05
1.1653834118159e-05
1.1659543853267e-05
1.1674329881655e-05
1.1694739393372e-05
1.171249802192e-05
1.1699295875228e-05
1.1667557100551e-05
1.1639036231804e-05
1.1159221005656e-05
1.1813627991982e-05
5.6066153242618e-06
4.5039532423578e-06
3.7269185128667e-06
3.3725079499135e-06
3.0649041888238e-06
2.803801117717e-06
2.6074219039452e-06
2.5187023960958e-06
2.4683058710151e-06
2.3636649885249e-06
2.3485233204056e-06
2.354958417715e-06
2.3851263395726e-06
2.4439457644369e-06
2.5239547004776e-06
2.6293665987616e-06
2.7775203156543e-06
2.9455468873851e-06
3.1149632607494e-06
3.2917569904695e-06
3.477180278756e-06
3.6533584515404e-06
3.8242631047521e-06
4.0128396095545e-06
4.2048249631747e-06
4.3982408885646e-06
4.6040869856788e-06
4.8175770559016e-06
4.6576407001783e-06
4.5092205113855e-06
4.3714686437264e-06
4.2437285314791e-06
4.1245931850816e-06
4.0132274575885e-06
3.9091649016607e-06
3.8117693586046e-06
3.7203301664069e-06
3.6341761832724e-06
3.5531017783834e-06
3.4765857677256e-06
3.4043036256965e-06
3.3356547490972e-06
3.2704421557024e-06
3.2082847456167e-06
3.1491076848909e-06
3.0925723517817e-06
3.0385433293442e-06
2.9866086799011e-06
2.9366160314548e-06
2.8885363674157e-06
2.8424444116999e-06
2.7980499136197e-06
2.7551515577409e-06
2.713474545304e-06
2.6728920042261e-06
2.6332886090412e-06
2.5947339846074e-06
2.5572045063675e-06
2.5205865700441e-06
2.4848105673797e-06
4.3245991588189e-06
0.0002459505436583
0.00040154032181857
0.00035177352377913
0.00027135703852024
0.00014279294636194
3.5469241636534e-05
2.5177873817801e-05
2.2237237331467e-05
2.1158944262665e-05
2.1155653908453e-05
2.1674858637621e-05
2.2300014801231e-05
2.2608328481961e-05
2.2453259805722e-05
2.1951543905272e-05
2.1148888384123e-05
2.0168863964847e-05
1.9243139021829e-05
1.8506939769238e-05
1.7936742832349e-05
1.7612534842301e-05
1.7525224163136e-05
1.7614286368567e-05
1.8043210025104e-05
1.8292823275913e-05
1.8527848754053e-05
1.8719875831123e-05
1.8831338648272e-05
1.8865200381469e-05
1.8806792082504e-05
1.8708104307062e-05
1.8576031305587e-05
1.8405328706107e-05
1.8187465107704e-05
1.7930628924642e-05
1.7641133783457e-05
1.7329260930646e-05
1.7001061653563e-05
1.666151366985e-05
1.6313988172029e-05
1.5960978553641e-05
1.5609088630648e-05
1.5267852235558e-05
1.485783232634e-05
1.4539238508273e-05
1.423549031784e-05
1.3956879119599e-05
1.3718732644916e-05
1.3538486418006e-05
1.3345084485557e-05
1.3181961374927e-05
1.3051912625259e-05
1.2932105640284e-05
1.281295125659e-05
1.2688515574333e-05
1.2570878953919e-05
1.2453316925012e-05
1.2329594870413e-05
1.2196181809318e-05
1.2058552906799e-05
1.1915758603215e-05
1.176741901829e-05
1.161561398407e-05
1.1453296040775e-05
1.1317142833293e-05
1.1143732517409e-05
1.107664747485e-05
1.0976747483757e-05
1.0950744675907e-05
1.0938374150808e-05
1.0935457362498e-05
1.0941170249336e-05
1.095408335081e-05
1.0965657345313e-05
1.0985523427583e-05
1.0962925936734e-05
1.0940356802452e-05
1.0517440968252e-05
1.1177785415995e-05
2.4718858240413e-06
3.0022628322143e-06
3.7318627160778e-06
4.4301695938842e-06
5.2050050768484e-06
4.9637726291496e-06
4.3552004859004e-06
3.7172044744054e-06
3.3145724810924e-06
3.0810364863282e-06
2.9366840001448e-06
2.8545988325903e-06
2.8236972586482e-06
2.8321770195554e-06
2.8729769947461e-06
2.9383437754993e-06
3.0245169088997e-06
3.1271364673046e-06
3.2475737427737e-06
3.3798133674434e-06
3.522327105557e-06
3.6788877346381e-06
3.8433402992538e-06
4.0006303986196e-06
4.1741647983065e-06
4.3456581065585e-06
4.5200119589384e-06
4.6954954999433e-06
4.59847311549e-06
4.4540649904591e-06
4.3195823800834e-06
4.19391315089e-06
4.0765614011105e-06
3.9666845053067e-06
3.8637414476132e-06
3.7669844588939e-06
3.6760585893781e-06
3.5903117838827e-06
3.5093209549474e-06
3.4328939341244e-06
3.36061903015e-06
3.2920826367569e-06
3.2268692208672e-06
3.1648052043968e-06
3.1057285030281e-06
3.0493938360434e-06
2.9955149512851e-06
2.9437908715479e-06
2.8941228785753e-06
2.8463954933595e-06
2.8005821416028e-06
2.7564652537585e-06
2.7138370004477e-06
2.6724737024431e-06
2.6323189537465e-06
2.5932723263335e-06
2.5553787642233e-06
2.518579452819e-06
2.4827612801731e-06
2.4478598048605e-06
3.914621408581e-06
0.00023402101714191
0.00040105050216818
0.00035262666255923
0.00027405229207649
0.00014862798773186
3.7498545001156e-05
2.7861314631363e-05
2.7201376350328e-05
2.8410282629074e-05
3.0059295107812e-05
3.1481947852581e-05
3.2217756884547e-05
3.1810747736952e-05
3.0260069555093e-05
2.8134768819888e-05
2.5923761960207e-05
2.383392615555e-05
2.1935763768962e-05
2.0264750254697e-05
1.8934313463787e-05
1.807509436048e-05
1.7665189151733e-05
1.7503186861578e-05
1.7502853002536e-05
1.7639964055874e-05
1.7752340416116e-05
1.7854676978524e-05
1.7913735810563e-05
1.7906519955125e-05
1.7830632578297e-05
1.7725527940649e-05
1.7586024799388e-05
1.7435724686686e-05
1.7242712405158e-05
1.7017344107378e-05
1.6750014157826e-05
1.645116779153e-05
1.6132931427203e-05
1.5803843255918e-05
1.5467183802249e-05
1.5125546599693e-05
1.4784722919722e-05
1.4452699546314e-05
1.4058518965664e-05
1.3758854352075e-05
1.3456949368957e-05
1.3190350561566e-05
1.2956206120167e-05
1.2766225291713e-05
1.2580203223713e-05
1.2405356322648e-05
1.2284034325823e-05
1.216449869052e-05
1.2040963408065e-05
1.1914674185149e-05
1.1787659485633e-05
1.1659592249493e-05
1.152953063658e-05
1.1392735046241e-05
1.1255846272673e-05
1.1118076746603e-05
1.0978117328918e-05
1.08376359324e-05
1.0691232796566e-05
1.0562600710544e-05
1.0405434102891e-05
1.0358059917763e-05
1.0269322401561e-05
1.0235732308661e-05
1.0222417040739e-05
1.0219463694971e-05
1.0230910460377e-05
1.0254701745102e-05
1.0289850304199e-05
1.0317731063477e-05
1.034902059396e-05
1.0351225017949e-05
1.0110208328963e-05
1.0774203404709e-05
9.7965975139419e-07
1.926198654126e-06
2.2516340422694e-06
2.8466408612636e-06
3.4729833768944e-06
4.17704901502e-06
5.0195137807236e-06
5.8702625702975e-06
4.9644037215659e-06
4.3059542040566e-06
3.883942384667e-06
3.6200753682383e-06
3.4503873164028e-06
3.3531601417721e-06
3.3112907370336e-06
3.305998883659e-06
3.3237161186461e-06
3.3655781787248e-06
3.4304268056712e-06
3.511705914318e-06
3.6103918587621e-06
3.7258391068728e-06
3.8561611141299e-06
4.006081553872e-06
4.1408657008747e-06
4.3043616629823e-06
4.4688091171358e-06
4.6380921325768e-06
4.5772493663336e-06
4.4342990283095e-06
4.3011146407378e-06
4.1766237808814e-06
4.0600321647441e-06
3.9503374755937e-06
3.8474724455566e-06
3.7507643899686e-06
3.6595747655064e-06
3.5733533449176e-06
3.4918617408539e-06
3.4147712305371e-06
3.3416766821472e-06
3.2723309155653e-06
3.2063924204503e-06
3.1436377066209e-06
3.083828761235e-06
3.026802097709e-06
2.9723351124048e-06
2.9201437465924e-06
2.8700151527706e-06
2.8218456610052e-06
2.7756202127502e-06
2.7312085925686e-06
2.6883968702333e-06
2.6469266396653e-06
2.6066720803023e-06
2.5676272085547e-06
2.5297975784308e-06
2.4930784104601e-06
2.4574262325259e-06
2.4227544186417e-06
2.4287988623139e-06
0.00011503712629721
0.00040267651274632
0.00036806604033059
0.00029964224646643
0.00019065757497561
5.4678403205421e-05
3.4201205896384e-05
3.7053295494411e-05
4.1525326684474e-05
4.5189216035483e-05
4.7823616712538e-05
4.9359121949139e-05
4.9196219217981e-05
4.6929950001095e-05
4.2970592741997e-05
3.7965142101475e-05
3.2830289566238e-05
2.8530137789348e-05
2.5355688758663e-05
2.2932097487284e-05
2.1061270058429e-05
1.9693848358607e-05
1.8778333645005e-05
1.7926677003243e-05
1.7790628520214e-05
1.7716302697576e-05
1.7578477309035e-05
1.7472304686199e-05
1.7352953969649e-05
1.719266214768e-05
1.7013485025064e-05
1.6844214331841e-05
1.6669686079232e-05
1.6476577472008e-05
1.6259382169953e-05
1.6018624992457e-05
1.5735199545027e-05
1.5431496776886e-05
1.511601683156e-05
1.4791304823769e-05
1.4461174287941e-05
1.412868981983e-05
1.3705785442218e-05
1.3056484020666e-05
1.2771282060304e-05
1.2476230567342e-05
1.2218365412748e-05
1.1985056610506e-05
1.1780983027237e-05
1.1592869226017e-05
1.1421504102771e-05
1.1287032731688e-05
1.1167967060571e-05
1.1047849780948e-05
1.0926961563824e-05
1.0807471812787e-05
1.0686601245616e-05
1.0563733406292e-05
1.0430661630381e-05
1.0295961212455e-05
1.0160203533859e-05
1.001939317254e-05
9.8886655654821e-06
9.7534352303642e-06
9.6319578019723e-06
9.5355274977862e-06
9.4642111358597e-06
9.4445610765561e-06
9.4505659288695e-06
9.4749940932329e-06
9.5157284864372e-06
9.573763691148e-06
9.64444488008e-06
9.7233983075437e-06
9.8123733161384e-06
9.9060222899716e-06
9.9826380956503e-06
1.0940336616372e-05
1.0495293339533e-05
4.8952898491075e-07
1.2676744148532e-06
1.5193580003471e-06
1.8015225980726e-06
2.1869367789983e-06
2.6949740176241e-06
3.2717508795526e-06
3.9523203421685e-06
4.7362349409829e-06
5.4536938226004e-06
5.9877341715e-06
5.5101610067569e-06
4.9662683392344e-06
4.5873104461624e-06
4.3373940885614e-06
4.176613114091e-06
4.0689998459067e-06
4.0033607158926e-06
3.9768180688842e-06
3.9815517811586e-06
4.0106308300191e-06
4.061248749631e-06
4.1300505370699e-06
4.2163294765483e-06
4.3230726180143e-06
4.4509779642245e-06
4.5660520510379e-06
4.5817875241549e-06
4.4363917099127e-06
4.3010707546268e-06
4.1751197616424e-06
4.0577484259589e-06
3.9480093127785e-06
3.8450603700142e-06
3.7478872532203e-06
3.6560024349145e-06
3.5689167479418e-06
3.486584297854e-06
3.4084704288271e-06
3.3341759110323e-06
3.2633968058637e-06
3.1960051244319e-06
3.1316856099041e-06
3.0702688929727e-06
3.0115690829029e-06
2.9554697773367e-06
2.9017851956535e-06
2.8502441077175e-06
2.8006812610254e-06
2.753017337784e-06
2.7072533027087e-06
2.6632364937058e-06
2.6207706263639e-06
2.5796595666784e-06
2.5398031455522e-06
2.5011769831251e-06
2.4637626064847e-06
2.4275184678279e-06
2.3923219138713e-06
2.3581740967383e-06
2.8499999756243e-06
0.00019308972595235
0.00039860354417086
0.00035566278042597
0.00028383623913117
0.00017060229993168
5.8928207934131e-05
6.0691270162998e-05
7.1152052476706e-05
7.7236927855777e-05
8.1253825171642e-05
8.4533785919425e-05
8.6727428427718e-05
8.6709178003692e-05
8.399559599453e-05
7.8611031511853e-05
7.0671805639631e-05
6.0785534907027e-05
5.0235373358874e-05
4.0811891605866e-05
3.3944176907077e-05
2.964639340007e-05
2.6954517573557e-05
2.5042405007264e-05
2.281097508374e-05
2.1138035639327e-05
1.9383909881243e-05
1.8036977737063e-05
1.7280680403713e-05
1.6828035217979e-05
1.6435865943767e-05
1.6022632728842e-05
1.5634752550663e-05
1.529615495586e-05
1.5062112861076e-05
1.4821464231341e-05
1.4576797499889e-05
1.430862059118e-05
1.4033051471582e-05
1.3725883347359e-05
1.3403003982243e-05
1.3073017116292e-05
1.2740745886401e-05
1.2324518204443e-05
1.1588636240609e-05
1.1323266454973e-05
1.1046582970687e-05
1.0817486068922e-05
1.0608760888203e-05
1.0414886572589e-05
1.025001412545e-05
1.0130497038053e-05
1.0020039713677e-05
9.9340114027959e-06
9.8637905170024e-06
9.7973422040946e-06
9.7426368575959e-06
9.6854931890673e-06
9.6231515600298e-06
9.5479699793467e-06
9.4668447545943e-06
9.3847584740223e-06
9.2950533133698e-06
9.2178549116731e-06
9.1605314243136e-06
9.0826621898417e-06
9.0861126030549e-06
9.1186040737012e-06
9.162911026762e-06
9.244194883588e-06
9.3710865073924e-06
9.5452131553822e-06
9.7736585286215e-06
1.0058310897583e-05
1.0395121560852e-05
1.0774725821888e-05
1.1188891382372e-05
1.1638654687516e-05
1.4279848425477e-05
1.4133734121329e-05
5.6063805413157e-07
9.6686747954189e-07
1.1563352811731e-06
1.3259171947466e-06
1.5728905208172e-06
1.8921990974453e-06
2.300735531319e-06
2.7892027168637e-06
3.3681828106155e-06
4.0411723827814e-06
4.7262842406704e-06
5.2708952257698e-06
5.6367017437279e-06
5.7391604583939e-06
5.5779027930449e-06
5.1798193022949e-06
4.921717313941e-06
4.7407477367821e-06
4.6159340670995e-06
4.5342673489622e-06
4.492609300556e-06
4.4822460535526e-06
4.4969675914802e-06
4.5341680820599e-06
4.5911696776847e-06
4.6656863620056e-06
4.6092233275415e-06
4.472963318625e-06
4.3420318139011e-06
4.2165832800878e-06
4.096754611763e-06
3.9834615098664e-06
3.8763855924751e-06
3.7755021092424e-06
3.6804188216689e-06
3.5905322550162e-06
3.5062193560723e-06
3.4267660929506e-06
3.3515699302716e-06
3.2798031008917e-06
3.2113788746522e-06
3.1458979925062e-06
3.0831740366538e-06
3.0229813632157e-06
2.9652611476804e-06
2.9100012473623e-06
2.8569702050531e-06
2.8059998285206e-06
2.7568758794919e-06
2.7095910647854e-06
2.6641046758726e-06
2.6202881493202e-06
2.577978408332e-06
2.5370050590464e-06
2.4972912566452e-06
2.4587788420943e-06
2.421467054957e-06
2.3852751810688e-06
2.3501214691295e-06
2.3160212752998e-06
2.4696662418858e-06
0.00015681963125921
0.00039507089321471
0.00035785817000904
0.00029114817710521
0.00018778592478104
8.5382425980435e-05
9.2175052833616e-05
0.00010252907455732
0.0001071559233197
0.00011049222572426
0.00011421996585403
0.00011746107148433
0.00011866742106966
0.00011721254724372
0.00011254333770825
0.00010431851674873
9.2789749581561e-05
7.8773231670544e-05
6.3690896255747e-05
4.9788735214828e-05
3.9305576102709e-05
3.2910095491928e-05
2.917335328192e-05
2.6599723345469e-05
2.3971443297862e-05
2.1067033391817e-05
1.8548939374394e-05
1.6886522427527e-05
1.6019851263727e-05
1.5444142529819e-05
1.488446586712e-05
1.4342290585552e-05
1.3850260944608e-05
1.3544857418612e-05
1.324978837893e-05
1.294459013418e-05
1.2629510583052e-05
1.2311921626009e-05
1.1989405441859e-05
1.1661780847042e-05
1.1335056150845e-05
1.1015604741829e-05
1.0643202582865e-05
1.0074658536149e-05
9.8772813827843e-06
9.6960753225865e-06
9.5551205819948e-06
9.4445555445368e-06
9.3306630783404e-06
9.2469516165581e-06
9.2319860156962e-06
9.2369236044987e-06
9.257303452289e-06
9.2933440475786e-06
9.3478272582222e-06
9.4178163464824e-06
9.4752903163362e-06
9.5454273272938e-06
9.6129828114752e-06
9.6740671449987e-06
9.7400023119497e-06
9.8012986159866e-06
9.8791992760731e-06
9.9721607705346e-06
1.0118093728664e-05
1.030108085946e-05