/*--------------------------------*- C++ -*----------------------------------*\
| =========                 |                                                 |
| \\      /  F ield         | OpenFOAM: The Open Source CFD Toolbox           |
|  \\    /   O peration     | Version:  2312                                  |
|   \\  /    A nd           | Website:  www.openfoam.com                      |
|    \\/     M anipulation  |                                                 |
\*---------------------------------------------------------------------------*/
FoamFile
{
    version     2.0;
    format      ascii;
    arch        "LSB;label=32;scalar=64";
    class       volScalarField;
    location    "5e-05";
    object      omega;
}
// * * * * * * * * * * * * * * * * * * * * * * * * * * * * * * * * * * * * * //

dimensions      [0 0 -1 0 0 0 0];

internalField   nonuniform List<scalar> 
109340
(
9664.8303144037
9958.105889923
10770.947547158
12522.419415228
15441.17203342
19411.812192195
24030.292894292
28674.621095671
32829.717714015
36819.237986637
40718.728974201
44548.981452841
48316.212403112
52021.605795507
55664.414900152
59243.196647304
62756.347671291
66202.348416761
69579.89308106
72887.939716733
76125.720913874
79292.747955677
82388.812455565
85413.975118885
88368.537769607
91252.974299754
94067.821241605
96813.55022608
99490.410979748
102098.11753384
104635.14024998
107097.46548652
109476.66927184
111756.02896747
113900.01323843
115822.29730561
9773.0343561185
10884.432123168
13759.143997392
18096.599829817
23141.158338747
28245.336860947
33127.841535004
38010.524657277
42900.278533252
47738.831708289
52508.714693826
57201.231712865
61810.189531499
66330.571554426
70758.251265905
75089.908658954
79323.003049438
83455.757336407
87487.14727269
91416.908449388
95245.591268306
98974.542024971
102605.81810785
106142.01568798
109586.06656274
112940.98864525
116209.64125797
119394.50372784
122497.43448247
125519.16512171
128458.14160245
131308.56983514
134056.93064835
136673.20507183
139084.64910734
141109.8429938
10017.626758469
14051.775931646
21525.979455552
29178.061009448
36441.245361928
43651.641038143
50923.530708672
58192.330889811
65406.920162744
72521.184887179
79501.38185001
86324.698325027
92975.636798932
99443.706559382
105722.12145919
111807.02313333
117696.99907043
123392.93951691
128898.37868874
134220.24108763
139369.03127111
144357.45183821
149198.98088483
153906.6719261
158492.43471293
162966.6214523
167337.81323721
171612.67193093
175795.83924294
179889.40057452
183891.05394605
187790.85815359
191564.77304268
195154.39922338
198403.02025785
200886.48790642
11992.4616725
28622.57432352
45601.03977833
62570.232052771
79364.080175497
95890.295753788
112039.3108521
127725.6782695
142880.50722334
157451.20379366
171400.70518229
184707.80803408
197365.90233727
209380.51971935
220766.97086832
231548.29441404
241755.18856107
251435.69564143
260678.63953248
269606.34387657
278328.57444177
286924.67101269
295446.30893567
303924.17633585
312374.10327147
320801.92744061
329205.86833115
337578.75954317
345909.69656619
354182.89360587
362375.67578392
370467.39152591
378446.08607448
386205.35043985
393220.36359824
397639.87338272
46928.085837228
146926.63289849
241921.4503508
333013.87409045
418890.55265274
498233.28536253
570227.24772179
634588.95187236
691501.13091733
741437.10790863
785031.00496352
822964.12272994
855903.8187161
884463.21764055
909184.40875053
930570.23375382
949284.86527182
967067.56155952
987000.33869417
1010805.1049055
1038472.69406
1069087.7419187
1101576.0650638
1135028.3259691
1168730.3802598
1202114.2711464
1234722.8836398
1266197.9760723
1296219.0076654
1324483.2255342
1350705.6332541
1374513.3833859
1395422.3907831
1412460.8744323
1423085.7231609
1416064.3965058
4733247.5113267
5560434.8785252
6179066.4108409
6611500.3099264
6894237.4370779
7064846.6240392
7155466.1115152
7191027.3973711
7189535.9249794
7164930.3043718
7125152.1468278
7076318.3328421
7022610.3533063
6966857.5629184
6910975.3466677
6856354.6711898
6803923.1751894
6754324.7650807
6708209.6744908
6666198.7800715
6627645.2686551
6592167.0287996
6559590.2747239
6529833.5744125
6502849.010071
6478608.3752021
6457102.5791322
6438347.059728
6422391.0455477
6409337.5465557
6399385.8331611
6392920.5760491
6390516.1890215
6393333.3605158
6403042.9895126
6418552.8734542
117332.35514995
117673.96340279
117008.88996001
116436.52274709
116858.49877514
118687.85858681
122584.67412377
128806.83320339
136647.97597555
146851.65372247
159239.32163737
172009.86122445
181554.92128461
185691.16489741
185075.60961345
181609.92415942
176345.45941266
170148.40655563
163601.39553357
157032.95951923
150633.05954777
144497.86554206
138711.64224012
133433.05552399
128635.71436772
124243.30813317
120211.00435373
116487.42330885
113108.52220698
109886.14148983
106856.52294557
104206.19117748
101506.25938082
99200.312334508
96844.792373589
94755.406513165
92696.564622284
90755.349381649
88972.190967374
87178.75873815
85598.739604526
83968.819194611
82534.490556527
81053.695445709
79729.320688419
78386.689966276
77147.684372936
75936.233952885
74767.205509547
73658.841905803
72562.279952521
71518.466801677
70498.207323315
69517.694761581
68562.886371041
67631.225659599
66721.389148835
65835.19755486
64973.453388814
64134.349468459
63860.514174371
2983555.4807737
5781418.8081425
4357594.2723271
3284341.6697084
2451220.4163152
1084782.0266079
588017.82570395
526796.24905433
492993.30357907
477929.05599839
476289.0676293
484174.49234564
495176.70930854
503914.70528489
509927.29865471
513283.09524037
514298.17132428
514153.87032894
514006.12074198
514466.70702574
515829.65313296
518055.90316327
520864.95538933
520730.49003834
525916.16608326
529802.38395629
531304.62869956
531098.34947572
529714.89310062
526906.08898648
522810.73930514
517757.35495278
511870.49906843
505234.37818734
497842.6774577
489939.81856257
481699.76174689
473263.81365574
464904.83394972
456613.76757206
448356.56190893
440077.69538361
431953.81467593
422194.21434781
415560.42745067
408778.96501338
403860.7375682
399480.47320163
396168.78443857
393178.47154636
390294.286033
387612.61209691
385046.37123298
382512.367795
379951.19760687
377365.46040903
374788.48106678
371904.81138693
368430.72495827
364398.59331167
359972.73897919
355343.26586497
350644.3518051
345963.54703346
341540.72397889
337648.82751784
334853.22942395
332756.5802219
331976.7836108
332127.56489395
332702.50082612
333645.28548179
334563.85985674
334426.55939473
333982.83988014
333320.20183421
332600.87806159
320678.14591739
330934.41005674
142304.12132399
141239.59367184
138292.69159865
134436.62437562
130169.80185833
126064.90962426
122545.71140984
119777.51782204
117874.35512126
116923.19518554
116720.27364342
117248.99328697
117837.74263573
118230.02796701
118560.69718668
118969.07130828
119461.48574027
119878.16202814
119622.1985888
118819.66890384
117560.73728269
115947.24226545
114085.78636076
112026.47754062
109884.60146908
107792.05920839
105735.93323648
103688.86201689
101665.29453456
99685.904995557
97752.176560307
95887.317530169
94092.860741531
92351.834804436
90676.202622218
89046.634577482
87486.079655459
85972.600116119
84520.403045059
83116.700135548
81768.92699303
80469.083274997
79217.393984891
78004.076537747
76834.097334842
75699.192478523
74606.740901034
73545.796861905
72522.868793606
71526.39729439
70561.566655285
69623.187318182
68711.764014213
67822.74795183
66953.082063025
66100.483856606
65265.653034754
64449.316353244
63652.939133676
62876.061442191
77288.544721879
5483855.5925938
5419753.0772723
4063625.1142759
3066697.2881867
2236227.8627029
772578.51451792
550582.18553606
496064.21647613
465380.68441732
452026.6987536
451232.61953985
458448.79893888
467202.4149939
473945.72713823
478691.55655087
481082.49962319
481438.27521342
481042.93442867
480869.13030991
481465.43657867
483028.35521439
485441.32323414
488452.8859419
498443.12407295
500517.54390216
501961.04344119
502429.9974494
502101.08139703
500740.98028808
498252.07924634
494753.11030463
490465.93925346
485492.57371592
479910.25557662
473772.4390997
467261.34565798
460525.92566787
453570.62344755
446461.30952612
439330.58915697
432299.86542218
425360.22264692
418519.43343489
410272.86525782
404093.95801495
398249.17589579
393674.23680138
389716.80839144
386572.31941676
383642.98669999
381054.93788733
378688.50640305
376467.84651611
374309.42816617
372130.42870798
369913.50402652
367631.0424336
364941.41761759
361699.12669967
357990.00950859
353917.21751397
349619.98186281
345225.8652295
340781.68640893
336538.22994773
332780.60181105
330099.23913766
327926.59346654
327260.9982909
327438.81677593
327973.2240761
328785.9321519
329272.24381876
329171.97257153
328843.84946904
328392.03490213
328045.44930529
318780.58508407
329339.42463604
201305.64602612
197211.94207417
188774.40505452
178234.29723215
167458.56294284
157388.09454999
148727.54917764
141362.15536074
135508.9696124
130740.00140216
127042.6943723
123911.40310941
121448.65087234
119556.61157541
117962.17614265
116478.46184364
114891.4937198
113205.52057738
111130.62127528
108815.4885646
106463.62263119
104184.0098056
101996.26363827
99909.440613915
97938.749590138
96063.083373666
94293.853784284
92691.211861716
91216.293534246
89834.979516316
88534.588159337
87313.76479427
86156.778422612
85028.29363656
83914.87974568
82806.108685013
81701.916180062
80614.761319869
79537.389040353
78482.863859008
77445.695713324
76435.680678123
75441.986850503
74471.892522504
73517.043706041
72586.868135639
71674.824939318
70787.412825159
69917.004670839
69066.922950798
68233.255349969
67420.405777733
66624.825681326
65843.719655055
65073.356999093
64313.54517194
63564.606295398
62828.953545835
62108.240162981
61402.532581607
74412.43427216
5412492.6321874
5432969.4074066
4073170.7043857
3073707.7827662
2248249.905813
778558.89069455
531971.35433995
470558.79427496
434576.30004682
417574.05808307
414207.00209695
419206.31447859
425996.15815853
431692.31184299
436076.38980232
438256.57588581
438384.13123118
437746.01445526
437399.9570941
437935.38272381
439594.82124381
442286.4954959
445685.49943254
458839.12653479
461760.61279689
464316.04278741
465808.25831869
466232.32342053
465852.99725795
464406.20077102
461969.21725421
458863.44121548
455116.61024861
450718.47409121
445843.91729619
440642.14596464
435227.22405654
429582.14545564
423750.7539148
417802.79766348
411824.53186198
405876.79033866
399963.95180951
392816.06315279
387091.10329202
382345.41472768
378040.98832853
374409.55699822
371827.38344282
369203.37084599
367142.8547283
365171.81654435
363297.61858021
361545.7402889
359840.46112406
358147.78994823
356380.58325509
354192.92258957
351518.81303357
348463.74848249
345072.50843424
341410.79235869
337570.18549026
333643.29297658
329666.01343988
326387.3412134
323890.28443856
321921.54301077
321745.58961469
322059.30693829
322801.58272414
323829.35215172
324953.38607856
325591.68063933
325646.02102911
325599.03159922
325541.24572579
316819.42558338
329452.07601995
392043.09680097
369749.95566049
331463.83643124
289998.0858452
252853.26661195
222293.25728467
198389.79945094
179792.41642455
165387.05028661
153487.18025171
144754.25581601
137417.94084278
131358.72486757
126364.83582727
122218.58437889
118724.11478087
115821.29020097
113254.36852872
110408.55399405
107276.9089597
104055.4407276
100928.91888522
97994.884099307
95268.175886131
92752.255926114
90445.460151066
88332.738692826
86398.51854743
84675.62015117
83134.590852067
81746.841172764
80493.263323153
79352.128652229
78302.773416923
77319.03485607
76395.426348498
75520.982507015
74687.452550438
73884.796222925
73110.306710978
72361.098937673
71627.377553245
70904.935205377
70186.069663379
69467.052618169
68751.722055552
68042.756560225
67342.398821628
66647.970385773
65960.899034013
65280.480610324
64610.647878507
63949.592282132
63294.827299727
62643.116351751
61994.236423438
61348.745322324
60710.376700111
60081.320418928
59462.313915743
70536.779519517
5294179.4957948
5447241.0838674
4085326.8082817
3083260.8236747
2264385.7277031
793529.21270059
508753.79477669
441687.35320121
404596.29408956
388464.31486676
385712.11415901
390129.13168894
394759.91115903
396938.66882503
396988.22985942
394987.22601101
392096.15907255
389718.0389372
388646.79294546
389054.76757397
391037.81299362
394476.25250621
399016.85514307
413572.54617995
417675.57037548
422046.00465837
425568.65158951
428135.28086634
429543.72847963
429582.54801814
428844.93829684
427394.15812177
425251.15356372
422361.52293456
418937.46222766
415154.03273094
411079.48656764
406662.57640245
401962.75129806
397050.62540658
391989.87243964
386875.31065023
381783.09609431
375571.98225541
370589.54266465
366459.67990978
362414.25500079
358955.78108286
356939.21501592
354926.30010399
353295.88485787
351755.26659243
350300.91202226
349088.18067615
347964.12450359
346881.93797885
345724.9433047
344199.34843107
342196.64714163
339816.56325543
337061.42478526
333995.72822013
330704.46839411
327296.90669497
323759.70151472
321053.90297524
318827.7654777
317435.49977574
317558.87189592
318128.42787325
319162.80727829
320528.04809713
322143.35392689
323376.70787577
324098.06409496
324739.22312062
324968.5091395
314954.20532238
328773.684889
1319587.9766366
1073181.1960983
807633.20336196
599689.10662066
452878.28493938
353247.15113296
286404.64223237
239971.19791515
208248.31326997
184958.57875396
168163.67594164
155197.91048923
144949.23716487
136658.07384153
129846.98887466
124187.06025807
119443.85164183
115223.49344975
111264.02138337
107510.05814078
103918.11149363
100452.92328204
97099.255880956
93942.26317393
91014.628131964
88316.915536533
85833.549765346
83554.582871404
81493.759376539
79651.636763164
77998.45313493
76516.108695804
75181.827556802
73974.165348808
72874.208708375
71866.83551391
70940.709040914
70082.09487257
69281.799132679
68529.083094504
67820.731231087
67149.114606233
66509.365985326
65892.034580251
65294.94129752
64713.649403271
64148.270974606
63594.11143432
63050.553090828
62511.981302036
61978.217462025
61448.636546661
60920.944199991
60392.358184729
59861.175026838
59326.391772726
58788.430233063
58251.512959462
57718.984663567
57192.069540106
66090.593491589
5129159.0628753
5464097.4282907
4099979.6514469
3095068.0997282
2283217.1188131
823152.54709633
502499.05416769
452413.13439235
435802.69947237
435615.25727521
441201.33191368
445045.29224362
440611.35083695
427261.82941091
409405.31739503
390755.01726792
374709.94807718
362493.09128341
354047.84932397
350184.9343268
350326.71012611
353512.49441461
358891.10632201
372908.46080607
378940.7960868
385351.35967384
391281.47865478
396167.50041682
399897.19017111
402103.13696505
403274.58363768
403654.99245377
403282.64101513
402099.34295383
400178.75866404
397685.92524163
394740.44487921
391365.50612631
387586.93279454
383446.77606052
379022.26161231
374459.79914183
369896.1589864
364315.81117013
359870.90598041
355896.63259042
352243.68049708
348827.10869337
347125.5388298
345581.18457318
344110.46682337
342907.67248427
341954.80438237
341259.03526876
340625.82784463
339986.24988719
339219.83780936
338060.14065154
336372.59959044
334290.36229022
331820.07372957
329057.76667872
326118.37718574
323097.19641968
319961.70375057
317528.04208259
315738.87719105
314989.93064591
315299.90538828
316067.60242816
317326.39248962
318900.1847827
320687.85397179
322332.14376843
323456.63202585
324656.04530768
325120.61349935
315363.07668831
329790.83585829
4696280.0853424
2590027.2248875
1608796.4878662
1072597.0093247
748345.17417488
543962.87252675
411027.5694589
323570.5105215
265168.82258854
225152.34785318
197237.44879997
176879.43331194
161421.11495378
149281.31496935
139522.46895851
131541.70956803
124809.40346104
118884.79209997
113601.39205685
108852.58945931
104566.40105807
100676.39211312
97111.724962796
93777.410146441
90628.574021127
87683.106740886
84957.024223384
82434.761483526
80125.738378571
78043.106604683
76160.617009539
74452.371205214
72906.821729197
71505.144597569
70230.318409536
69066.381351291
68004.904625799
67030.782204505
66130.796946007
65297.965298708
64525.848841465
63808.284756007
63136.017522542
62502.093405929
61901.188336103
61329.654348553
60784.488441226
60261.458351079
59757.213663913
59267.406505769
58791.003660081
58326.414756176
57872.427140406
57424.440271142
56978.017640866
56529.867745417
56080.188574786
55631.531676725
55186.503457281
54745.153593528
61471.387916423
4905823.4745456
5484030.2407415
4117324.9383362
3109081.2363981
2303613.952549
877012.38124547
545680.49898329
544434.73816299
561093.05376853
576847.76238044
589795.83552155
597455.58320532
592920.00645946
571537.7482005
533537.692216
482679.3278417
430159.53158871
386439.00306394
356340.23704414
339281.81660915
331570.07582308
329808.76158845
332477.9771618
342896.05558786
349819.58476037
357114.97168695
364467.63778549
371099.73911308
376832.20267202
381308.97706671
384893.5814042
387677.30185479
389338.54512291
390070.88192956
389784.17865827
388633.43119093
386701.19504045
384237.58822973
381264.06992943
377760.44936723
373805.05436706
369577.54249946
365277.45060564
359909.68567801
355755.53044948
351796.61776587
348310.39645805
345014.20127862
343495.80145527
342145.93246239
340723.72754614
339842.44109615
339257.11946907
338813.96516628
338371.00416282
337896.23237288
337209.18367678
336099.5602033
334376.32029901
332258.28180384
329775.97982696
327037.90969711
324165.20849035
321235.09330493
318257.94872516
315927.52548243
314327.21530206
314065.53536686
314441.04273614
315287.00428655
316568.51334458
318207.93234085
320119.11604848
321958.42328141
323401.70308232
324886.77515043
325024.46308049
318722.67088654
333493.11950412
6576879.6218302
3603933.324096
2334359.4032065
1595878.8582272
1126123.6798427
810622.24602809
590397.64761289
447594.66877862
351812.86410384
286187.67197534
240720.91955953
208491.26856551
185001.37158979
167334.89689936
153621.23218984
142473.3811805
133149.1764258
125265.39335327
118503.37022733
112577.9014639
107331.85525541
102682.9650071
98547.42364919
94843.326241019
91472.84405546
88362.011581967
85460.817541615
82743.061366177
80227.337280374
77927.00233808
75834.810974474
73924.404092541
72177.77274118
70577.07836808
69115.360744669
67777.175110564
66550.044576328
65421.739991093
64382.606595812
63422.621311119
62533.369466249
61710.451147104
60946.615142491
60234.201785457
59565.721039716
58937.461813534
58346.682476311
57789.263697228
57260.052129003
56754.338461918
56270.045465416
55805.889977612
55359.965037888
54927.474401264
54503.300628717
54083.621655805
53667.601575223
53255.933072216
52850.760832669
52453.352112933
52216.632185066
2102821.0680188
5867239.0499942
4443537.6677189
3350411.2097247
2522715.0532352
1401324.1375524
642212.94334614
663926.43735132
675369.25893337
682769.70926433
693249.31889623
705625.73611869
711939.84896966
705924.80813266
685060.31707154
645450.4850916
585592.09943006
511698.17320415
439638.34659835
384974.05902545
350572.74159109
332907.92975273
326775.62252048
329107.68833676
334204.57685187
339876.29724005
346160.65568069
352682.25796716
358994.53969426
364924.70158538
370576.16994973
375883.18719338
379988.84091498
382949.96054678
384626.24738346
384746.37459844
384004.25298991
382409.21473595
380034.17690939
376999.49337622
373435.72687899
369519.70117475
365395.9668832
362360.60789874
358451.17470294
354580.55902034
351079.28035528
347725.87555177
345856.66014033
344663.84997458
343449.01879586
342605.11053474
342234.78053383
341876.8280182
341473.36931508
340954.77534197
340065.47438158
338686.17136162
336615.4360415
334160.55630696
331384.638004
328414.4540348
325419.54996218
322317.41732461
319686.34376932
317409.59908721
316267.62410239
316285.70978001
316740.36150015
317731.54164067
319066.06067344
320678.45783934
322420.4061541
324203.88599935
325762.76606085
327442.17448227
328010.44552806
347741.92043238
329861.58970919
5727754.0635362
2738580.1685397
2127708.9426315
1666025.2004206
1318292.6028188
1015645.6747755
784915.58509411
606354.16787816
469283.91161137
374974.54101529
308277.31380752
257555.58273982
221069.44733015
194010.81426313
173561.13063772
157641.94293501
144771.53071737
134091.44752089
125128.15508143
117518.11323418
110949.50442954
105216.30928454
100179.86146547
95732.797596541
91782.886526146
88255.215550035
85074.717637773
82188.678369918
79582.560969139
77204.04196539
75011.369057161
72967.572282092
71063.520132608
69302.249618737
67672.423779355
66162.983767591
64761.540409323
63462.615835797
62254.482111315
61127.974329006
60076.026327862
59095.095673712
58178.278281349
57319.493659524
56512.898266284
55755.847012182
55046.173113903
54379.403366556
53750.544137316
53155.427718074
52592.776354925
52060.642337862
51556.309240759
51075.156403404
50612.051023361
50163.20191114
49727.493522248
49306.001408493
48898.730500883
48505.884464363
50288.609096339
3809183.222767
5557935.9875585
4187299.5497279
3164804.2769265
2367819.2222458
1176822.8618216
814617.1574538
795386.61254511
783082.12250878
782171.6042611
793292.15748828
809639.35650077
822329.43823242
828013.8497203
824664.65832171
807966.36462873
774136.14572704
719754.76632067
644170.7889056
556058.21340092
475388.09035444
416677.27581234
379328.39090165
351773.53372598
340012.96146563
334940.51286717
334593.53203848
336109.50556276
339215.62120945
344083.12937021
350788.12211033
359273.14623071
368291.00917927
374999.12430507
379815.37021165
382834.15641177
384669.55622404
384660.59755721
383742.63440978
381957.15430992
379436.54228487
376348.4939955
372890.28120253
369824.63954069
366382.71625855
362886.89966215
359873.6969653
357116.86265878
355260.82058891
354060.28700308
353214.4708562
352774.5443553
352691.79970034
352537.6816278
352204.61215584
351703.88162266
350853.9399411
349638.5367889
347813.24914253
345571.94640435
342977.16578767
340091.27319877
337112.70300686
334098.81334324
331321.36163856
329493.62956202
328688.63894786
328826.49705171
329383.00877274
330492.98144831
332017.87944769
333944.31005086
336150.51211423
338420.35784083
340879.86207674
342684.01052771
343924.01827225
378498.4125529
343942.54562178
5292470.6908804
2133880.7514857
1840710.5073654
1557438.831397
1303203.2416564
1080497.0481075
886241.29963982
719253.19071203
581290.6896499
466386.66016142
378510.11992676
316097.89725128
264769.80310877
225759.32433194
197175.64155286
175572.85486023
158816.71699995
145364.84373727
134215.61530891
124836.58023746
116857.2051879
109992.2273897
104029.11395545
98808.574742908
94200.214812566
90098.679407212
86431.589257532
83164.205544441
80247.428975886
77625.784739754
75258.166930716
73100.27149165
71116.198907322
69283.886044356
67575.827536558
65976.925786437
64473.154879774
63057.014152407
61729.245409933
60482.41117554
59315.673016309
58220.709225228
57191.007286676
56218.848746043
55299.756897767
54432.065708431
53612.246482148
52837.307554077
52102.158757558
51404.550776287
50743.071018663
50116.12237355
49521.505938136
48955.587049567
48414.623024513
47894.946864293
47395.204485001
46914.778544048
46453.336307287
46010.91195188
46299.703205241
2899602.584241
5616031.1163464
4249646.5594402
3213462.5123859
2411415.8945479
1360012.1210225
898163.51857266
854094.88980472
831883.59920953
826988.59668426
838394.99676148
857406.75562165
875114.35446332
888494.28894076
894410.1624286
889162.38217464
870519.12727833
836861.87876447
785632.40669696
714204.66824859
625234.58511865
534704.25044222
462141.33775464
408079.24820063
371109.47285816
345317.69006605
334055.67278657
331816.13852248
332312.32091691
335475.14646696
342559.77935506
353119.43233556
364533.92363066
373261.64140895
380277.47454357
385233.27559646
388021.44437494
388881.43739411
388271.8404194
386556.2144188
383930.00339858
380804.49875036
377478.19934683
374210.67747421
371444.64739688
368665.43336253
366310.23481553
364550.60674459
362730.05866186
361866.7546911
361893.74640046
362098.93958125
362442.88465592
363041.59200114
363208.71931435
363376.56777405
362963.76318285
362266.00239572
361006.83391713
359274.98329121
357253.51742915
354941.18700551
352570.40826254
350619.94853422
348706.24783527
348162.48462663
348308.9871041
348890.06873055
349885.14831268
351525.35903028
353770.97128411
356601.78178443
359892.095672
363512.09588528
367441.24470641
371391.880586
375699.44344499
429380.23442646
391293.38992954
5275625.1435304
1826885.9148087
1570479.2362442
1395888.4733796
1222001.6404787
1056038.4120977
901833.49717783
762445.21839719
639131.04383206
532850.27533576
440397.63802998
363208.85898378
308627.25023951
263880.71639909
224726.26007559
195577.57002151
173763.93299252
156914.88098978
143504.15392242
132497.84970939
123234.58346504
115303.3283345
108447.22842263
102494.82256357
97288.253671323
92697.654536879
88619.510825202
84979.050320239
81719.206036378
78793.618648465
76156.426292773
73766.08072654
71592.694252912
69609.467104628
67787.852887083
66106.137198106
64543.802059598
63080.972562246
61707.769708368
60414.589179631
59190.72825682
58029.152304888
56923.867871821
55875.092994948
54881.224262859
53938.140285054
53043.809250927
52193.162378338
51383.397163631
50611.949809918
49876.101722816
49174.836717668
48505.830942307
47867.498304058
47256.773632855
46670.876395282
46107.719958016
45565.820368631
45045.276412607
44545.600287595
44237.113919292
2003752.591641
5676712.6347855
4323705.5546325
3271303.4871751
2458760.3261044
1509671.7843467
964941.25524134
893789.25026979
860901.43292048
850594.01219533
860895.71589283
881895.49954595
904464.03295357
924101.19998114
935908.75657876
936208.81451655
923453.42441554
897287.15631843
857172.92237839
801434.94871507
727199.2123743
635036.29035404
536893.41002123
456138.16196052
391223.87904542
347621.46510212
327795.56907963
323104.92982349
323513.94483005
327892.20282875
338194.8575209
352744.64634505
366224.45723312
377693.83859157
385192.3277584
389730.60351553
392387.24050781
392559.08750818
391665.77687276
389852.22509238
387355.93871263
384535.54096883
381563.67389151
380568.2452829
378885.81885801
377597.39843002
376149.35762965
375479.37282684
375513.73436251
375843.39585118
376542.78812333
377616.09630915
378614.45754025
379829.09577263
380441.42355763
380704.87499885
380467.7918926
379811.35612567
378747.39883469
377222.62005463
375487.66458371
373698.95454849
371994.546097
371224.49384658
371506.33281912
372349.94894475
373832.55774819
376182.58912635
379395.358782
383847.909176
389528.47578009
396616.49151437
405016.13290695
414492.86106802
424954.78349056
435687.85106646
447906.48386135
513913.07576805
439474.72308789
5934584.6077072
1672075.8409225
1380278.2066384
1244934.2251045
1124968.908959
1001313.6204419
880779.38932224
766895.69937943
661997.75207351
565692.19247153
481494.79609786
407369.62323514
341878.07170788
294174.80147209
256112.61400868
220890.69469935
192412.2528651
170787.978747
154084.68511171
140866.98141334
130100.68935007
121085.75912774
113378.28318162
106712.76355742
100909.97789504
95821.754249128
91324.295663619
87321.490934486
83741.298464468
80524.02155286
77619.217649952
74987.540736143
72596.274926319
70415.797452595
68420.521052322
66588.95202634
64901.233598728
63337.497424249
61884.289202212
60528.553810183
59257.025805826
58061.346229
56930.562011332
55855.122718344
54829.590364022
53847.73780212
52905.552859066
52004.403588062
51142.706324343
50318.014169334
49528.791832991
48772.648486043
48049.558631486
47357.780466048
46694.919752443
46058.528340416
45445.326420828
44854.861578842
44286.619712634
43739.53511654
43205.125461918
1171556.6226804
5716942.0952256
4409442.9492431
3338772.067771
2514437.8960777
1647635.4107723
1037460.8592126
926984.22334734
879688.33414491
860051.72242165
866708.90005341
889472.51044749
917491.76571164
943125.06807106
959744.442941
963673.16560959
954007.63583726
930621.62228999
893876.63862475
843555.90628418
777908.92548179
693296.44358708
590148.31906039
488000.90678668
396695.10252316
338202.51357065
313839.42382019
308331.59965131
310247.03402468
319821.22139388
336381.65984872
355697.47335506
369740.6951136
379536.47153988
385500.09166132
388921.45549889
390159.74140357
390967.14376394
391402.93860618
391473.90289759
391299.37362659
390867.55428792
390296.0253834
393338.42663313
393207.19789754
393255.68320905
393547.51745295
394033.55211822
394617.31065882
395439.4441931
396525.49034562
397945.21252427
399110.86374046
400152.75604199
400824.21639606
401269.97937115
401761.99613191
401769.87565822
401730.93776378
401719.89022517
401937.55532531
402639.54639903
404071.69033671
406422.2200442
410042.7348096
414861.44244176
421043.64132681
428690.34320987
437765.87970726
448541.13401206
460864.26514507
474406.15077982
488786.90051273
502921.99824476
517341.83990124
529087.83508209
544182.83995414
611785.24262277
504713.33079121
7523644.3612004
1558514.1628085
1266243.1068807
1123370.9801859
1031767.2957587
938006.10916854
844176.83302238
751735.4656677
662749.07740196
580214.82951372
504045.69541831
436708.14648218
373470.67470371
318226.94946171
278458.39219436
245414.77048578
214797.10932623
188055.06638911
167186.40324474
150966.69883984
138099.08460895
127634.03281764
118901.15508472
111451.6754574
105007.14861822
99381.347692851
94430.672398438
90041.068722986
86126.208954524
82617.296141094
79456.69567416
76595.78282617
73994.66016335
71621.510434936
69449.361354241
67454.890903394
65617.219606648
63919.050006927
62346.483097619
60887.523604744
59529.989844864
58263.711351046
57075.504921811
55953.486239157
54891.951207693
53883.961710178
52922.689906565
52004.236683396
51122.940586271
50273.553991053
49453.740665301
48663.769835004
47903.34082583
47172.751111226
46470.657551924
45794.103851054
45142.791861571
44515.133741572
43910.125437821
43326.649974271
42700.936357097
575929.9223098
5705860.5728562
4505035.3361954
3416608.6071907
2581310.2088374
1782084.6230737
1127395.751745
961464.0987091
896990.93218236
863046.29638595
861739.85933649
884841.61653112
917883.00072278