/*--------------------------------*- C++ -*----------------------------------*\
| =========                 |                                                 |
| \\      /  F ield         | OpenFOAM: The Open Source CFD Toolbox           |
|  \\    /   O peration     | Version:  2312                                  |
|   \\  /    A nd           | Website:  www.openfoam.com                      |
|    \\/     M anipulation  |                                                 |
\*---------------------------------------------------------------------------*/
FoamFile
{
    version     2.0;
    format      ascii;
    arch        "LSB;label=32;scalar=64";
    class       volScalarField;
    location    "5e-05";
    object      p;
}
// * * * * * * * * * * * * * * * * * * * * * * * * * * * * * * * * * * * * * //

dimensions      [1 -1 -2 0 0 0 0];

internalField   nonuniform List<scalar> 
109340
(
382961.7360734
381673.47771998
378976.55581681
375685.40423697
372059.58464154
368311.15847051
364522.54452771
360744.12363482
357067.49401881
353476.66063475
349919.11198689
346391.38848418
342897.01156491
339438.48741101
336017.5267369
332635.66794038
329292.2524555
325984.79598296
322708.37382029
319455.83138711
316216.86237171
312980.20360733
309733.1558414
306460.19398976
303141.0699077
299749.36765252
296250.08068967
292596.30824503
288723.770856
284542.57917597
279923.46437712
274674.69712656
268505.68234623
260985.14078471
251515.80092929
239322.90823523
383269.64943052
381533.29525654
378476.54959678
374951.53160556
371222.37740901
367471.06570366
363748.95285625
360066.26108914
356420.35036458
352813.41014873
349239.91145195
345700.77478591
342198.45416569
338734.47880409
335309.8096364
331924.09697616
328577.31612079
325266.37053091
321985.45878182
318726.41737732
315478.66738366
312230.67706685
308969.39541835
305678.47565603
302336.44940784
298915.1107876
295376.95818945
291671.30728601
287728.29918007
283449.3157875
278690.88349741
273235.33586481
266741.01809847
258677.98682952
248177.86874155
234292.49651196
384150.75237066
382092.02899111
378696.39208523
375080.45658046
371383.7755353
367686.48761113
363981.12789823
360280.5364589
356609.53851076
352975.3981372
349376.9925636
345814.86656796
342290.85913097
338806.4828171
335363.31613402
331962.45006711
328603.56094512
325283.6481757
321996.39225929
318733.27013449
315482.89958706
312233.59186695
308972.04085933
305681.88705942
302341.34799886
298922.02734124
295386.2776563
291683.34607078
287743.2088693
283466.63181403
278708.82834171
273245.89720482
266708.78214054
258481.1919352
247443.73795201
231838.17190136
385382.29311585
382835.29966575
379248.6711324
375517.30021765
371738.92709336
367954.92424372
364180.01507579
360428.40470146
356716.31188025
353049.15395181
349426.31507978
345847.18974058
342311.91196915
338820.78058128
335374.04589662
331971.68072182
328612.91380543
325294.32966308
322008.71334098
318747.68963282
315498.48576954
312249.97427362
308989.14917294
305699.77793177
302360.48835814
298942.8509666
295409.29955175
291709.11694899
287772.09933485
283498.11568905
278740.5064569
273270.42855371
266682.45972015
258250.59484164
246468.10549419
227942.5377195
387331.55128682
383921.53827807
379760.58718549
375751.53156022
371860.82807535
368035.84912933
364247.24300412
360497.06429762
356788.35274248
353121.47908481
349497.89868411
345917.98061847
342382.03520101
338890.50625136
335443.8919302
332042.65221473
328687.0808438
325374.87755281
322092.12066377
318837.03707147
315591.67472388
312346.47977033
309088.50743597
305801.94510489
302465.90947217
299051.87778925
295522.39042232
291826.63790172
287894.12033847
283623.52724825
278862.61237615
273389.90703054
266754.3717194
258122.82305004
245499.09365835
222551.06159721
390991.73920858
384497.94217626
379880.79206353
375781.19129352
371885.1520763
368068.91279008
364290.94141697
360543.51886414
356832.70056207
353159.82252976
349527.47122541
345936.42516227
342387.19610049
338880.28234581
335416.31113567
331995.98582841
328620.43463026
325296.55449401
322038.02591954
318777.03782681
315523.90485218
312271.50244426
309007.43518145
305715.58931421
302374.60273257
298956.07758608
295422.34540029
291722.65281996
287786.52059728
283512.29469821
278741.13757665
273267.47838623
266608.27164487
257880.5340425
244802.59310379
217062.33926744
224529.16870225
209641.40278872
197208.6248731
187150.91296085
178362.39376321
168856.66431475
158318.66065624
146723.68181667
134184.39149742
120946.38242746
106989.30733177
93778.595949443
81455.197870333
69960.336649941
59867.568699813
51043.14470747
43495.057075512
37116.637497578
31751.330202242
27276.802514681
23559.94286484
20448.106191593
17835.990587264
15645.75016585
13795.221511018
12220.286832898
10876.130293354
9721.6812685659
8745.6891508007
7880.5082569123
7117.7795395928
6488.6102325776
5891.2637328786
5404.6693652506
4944.0862412686
4553.2224137244
4195.349423353
3873.2235530606
3593.7181667074
3328.1021329072
3103.6750848072
2885.2690098281
2700.5368288074
2520.4822805127
2366.0812818622
2217.1138813583
2085.9183933411
1962.3981132754
1849.3573267612
1745.6692113885
1648.2594918196
1559.1455197381
1475.6563978189
1398.5272732397
1326.7014540069
1259.7558987333
1197.231483603
1138.7872753432
1084.0888301336
1032.8316189476
984.06921613993
1124.2875752978
4056.395767409
5020.5325939568
5310.0795355771
5519.7517988143
5603.7187281872
5505.1153318908
5359.6256686218
5205.9467557403
5074.624073316
4998.1478169539
5039.5884051782
5162.0093534575
5224.9227986223
5263.880481128
5365.0142012178
5526.2006294832
5705.8411021175
5876.9804968089
6032.0818045556
6170.6898017243
6295.0250048703
6409.416473945
6536.4615316172
6645.0779048706
6739.1811213928
6819.7014087992
6884.2955511045
6928.4346515792
6953.9361724455
6966.5681050243
6964.1961697809
6940.1553687484
6896.7384819516
6836.2099009769
6765.4459704066
6682.0969522904
6590.0797493937
6493.2499347656
6389.3293413762
6280.2663636016
6170.3021288762
6064.3035954964
5944.3041411127
5884.0813907524
5807.180413345
5784.4860320001
5812.1647878295
5888.6371823497
5976.5858536741
6055.0289818588
6134.115039912
6216.8573222976
6301.2323559286
6385.1837268579
6453.455085682
6510.1179483307
6551.0832213316
6498.2592460128
6379.78130745
6217.9898784058
6033.1073090262
5837.2015015372
5650.8743000281
5454.989310927
5326.1944990866
5251.4860072758
5227.8267912847
5273.9139813746
5363.6940140485
5496.1073335836
5664.7666940309
5833.4855707018
5933.5072945449
6024.8584789754
6088.2986354019
6162.5128558967
6274.2662376652
7378.8933625291
216933.4284723
201192.48203706
189462.36764163
180389.00527576
171064.97346684
161228.82500584
150390.71808717
138687.82467285
126297.22842241
113479.43835529
100560.5623122
87892.291936441
76441.146301135
65952.147592832
56532.286719128
48347.856487561
41307.016670763
35334.027581347
30316.341804309
26113.029935003
22595.317571023
19652.462133767
17181.318789141
15096.174634445
13331.127995465
11830.905744924
10547.430514837
9444.7451774115
8492.7314720013
7668.217037873
6947.9287857295
6317.4230440355
5763.4023868309
5273.3940690942
4840.2067746522
4453.0282249829
4108.6690930654
3798.8900806756
3521.3754745264
3270.4790443653
3043.9636397864
2838.2741575185
2651.5874303875
2481.0934872321
2325.7001644372
2183.0382543606
2052.5109467644
1932.038473025
1821.3901702556
1718.8857566738
1624.3408527165
1536.5619075291
1455.0675441319
1379.246739453
1308.6945091197
1242.8917433535
1181.4696353895
1124.0044726011
1070.1802642053
1019.77085823
972.50554920876
1495.8664467525
4458.7338362082
5070.2461625519
5335.3802179265
5534.5582057324
5571.7201645429
5457.3712746379
5307.7470570186
5156.3156984985
5035.2387032628
4988.4045870042
5055.4793578111
5171.4952290386
5218.8230801139
5273.0518199527
5398.1053210424
5570.5255427347
5749.8838412068
5916.5583177924
6066.7347114251
6201.0310290276
6322.2052503085
6434.9906017675
6524.7079559728
6624.4920272894
6716.0265141521
6794.8728012396
6858.7237607964
6902.7865975396
6929.3099515813
6942.6124078966
6938.3693452133
6912.9773829131
6870.1775611169
6811.1042810793
6742.3199054874
6660.8512409912
6571.361890105
6476.5619013075
6374.5090414339
6268.1399053932
6161.7742214099
6058.4460708848
5942.7737396375
5879.5849203904
5808.7604338953
5785.517595163
5802.0842736264
5876.9581882211
5962.1693020505
6041.2737438796
6124.7346547516
6209.4063874008
6295.2205233451
6379.753370609
6448.1503914816
6505.4609688419
6543.1322460443
6486.8959786899
6372.1458208802
6214.5035250359
6032.6310260117
5838.838714089
5653.3326829042
5458.8064358637
5330.1404233621
5257.0464785406
5228.6255908019
5273.0022256663
5363.3971258908
5493.3778281012
5652.7953569612
5805.0329670358
5910.4151791422
6003.1891776489
6072.540172087
6147.3265928572
6253.020873815
7371.6046126381
210420.54654639
191837.48666181
181196.34816693
171887.37019823
161897.58609773
151595.94336213
141045.67486425
129862.44060926
118302.26280305
106258.43103014
95022.469778905
83858.360470981
73317.871994824
63607.917390768
54845.63526883
47103.288388794
40397.291952526
34680.680597245
29844.275901933
25761.510064026
22329.07370533
19451.726758765
17027.299697427
14975.683878416
13237.87560299
11757.202350511
10488.191579599
9397.3115255186
8454.5435469625
7635.7780511991
6921.9895903361
6295.5521748391
5745.3200837111
5258.3036407862
4826.6176044199
4442.2740559318
4098.6097953856
3791.0921303626
3513.9848268898
3264.5588959772
3038.4124756029
2833.8327898154
2647.2924289349
2477.6882970125
2322.3390146082
2180.4139154128
2049.8326859168
1929.9409469773
1819.2434501969
1717.1506920079
1622.5961319659
1535.0409827431
1453.6941895199
1378.0616268343
1307.584370263
1241.8661360565
1180.5050508552
1123.1096538964
1069.3572364208
1019.0219703196
971.69827581608
1470.4353564501
4437.9203789273
5054.1668535852
5316.8975080935
5513.4063552658
5552.704292191
5438.9792545223
5288.7385370821
5136.9718436895
5016.8649324722
4973.0395930392
5039.3854798997
5151.363440393
5199.4855801572
5261.7195574802
5393.9722581714
5569.6201375058
5749.4502923712
5915.8242349968
6065.5792325188
6199.249799824
6319.9388050963
6432.6948883066
6532.1829630395
6637.7983367269
6734.2228247862
6817.4238142948
6884.4630081548
6930.419466523
6957.7597008031
6969.9599356466
6962.3254486761
6934.9944142267
6890.5292816977
6831.7414162312
6761.1601182497
6676.0474106198
6585.2830865941
6487.7688027909
6384.0430181883
6277.6467740766
6172.0810980593
6069.7486674847
5953.1585158572
5887.6209253377
5822.0000226409
5793.3980188814
5794.4118241021
5891.3070081987
5973.5942032795
6052.4889604393
6136.2913902407
6218.4686575822
6302.8516251162
6385.6639979887
6452.5343869872
6510.6585764911
6543.0770268982
6476.164273842
6358.7754600926
6202.6181046972
6024.7585114831
5835.6581967828
5654.198693011
5462.6486640466
5337.3092751332
5266.3267251158
5231.6323656351
5283.9808768246
5378.1447768925
5507.4606601583
5663.4222022784
5817.9076676288
5929.6991523371
6020.3895395863
6093.7036963685
6150.147344738
6219.142775211
7361.0678178354
198152.03819047
176530.19259968
166163.07105002
155360.51608569
146251.23376269
136711.24120772
127005.18562171
117195.41897601
107264.35559732
96949.792161172
87959.197084164
78481.692448402
69220.965996302
60535.872423419
52537.534933855
45416.547888072
39178.268416688
33781.644962414
29173.358600749
25273.006228804
21972.63010358
19171.778590199
16810.895233009
14812.297733871
13108.763114957
11652.650614751
10405.869593976
9331.171087544
8400.3518865392
7591.1101429655
6884.7470198158
6265.2156152784
5719.2419076101
5236.8107760603
4807.9458384415
4426.4996185527
4085.2788983245
3779.4036120284
3504.14662415
3255.8091359066
3031.130381097
2827.1854335986
2641.6949569208
2472.6022421666
2318.0068391195
2176.4223044089
2046.3453234659
1926.7821876683
1816.4261959788
1714.6004855657
1620.2708126321
1532.9224633211
1451.7852608769
1376.3441771776
1306.0294941629
1240.4583209883
1179.2023353547
1121.9093826171
1068.2481906211
1017.9989714259
970.60364642154
1437.0477174532
4403.8797294919
5031.0520657276
5290.9548117474
5484.1145745298
5526.4723685812
5413.3264593663
5261.9066987646
5109.1633597977
4990.0179736326
4949.8271252008
5015.8437636634
5122.3124091272
5172.475982889
5245.7514376777
5387.4499722759
5567.4253364743
5748.4624900643
5914.9927300808
6064.1873175429
6196.8768646852
6316.7408400076
6428.8738611386
6525.3625285002
6630.1597068264
6725.7775012815
6808.6160603193
6875.6389650297
6921.8351980826
6949.5471741773
6961.3990946263
6953.3622850075
6926.3361736264
6881.8097523568
6825.3716212399
6754.8894974289
6669.1318967092
6579.1102570299
6481.9387887629
6379.276836318
6274.8014358832
6170.8638063468
6071.519762181
5958.9541854356
5890.1981100034
5830.1592106864
5806.3177702115
5791.1415424076
5889.8677025243
5970.5612158595
6045.9893199479
6131.008066142
6214.9257122555
6301.6502410886
6385.1528844758
6451.1082802315
6507.0544560455
6532.6653006396
6458.7191913629
6340.071487084
6186.1467909922
6012.1524507915
5829.0541432922
5654.1571154975
5469.5639416866
5348.5062334145
5280.8621702975
5246.3074829821
5302.9212403266
5394.0348091171
5515.9077541039
5661.797434446
5809.1074303267
5924.86906704
6014.8270091931
6095.9884008942
6144.1528253108
6202.1665567535
7271.1127098316
171584.71965671
151397.26730108
140172.97967344
130639.97731085
123398.27798157
116132.50518705
109302.02130516
102117.13914667
95235.54228127
87869.270986623
80132.402895935
72210.519133755
64363.700399126
56842.895184862
49815.870651415
43388.9294014
37669.029108763
32674.072596864
28355.625877475
24653.386220833
21501.147897361
18826.922848291
16542.195224532
14597.873478569
12941.207369452
11522.609684841
10300.004899479
9245.1782474754
8330.6583651229
7534.1156399168
6837.0532434305
6225.5875481897
5686.1637283436
5208.5948946888
4784.3514047944
4406.2121439364
4068.017902871
3764.3944183382
3491.3650911342
3244.6808309219
3021.4859819354
2818.7135762585
2634.377571916
2466.0785600905
2312.3065279835
2171.2734700312
2041.8628434781
1922.6793659328
1812.8097452977
1711.2652003754
1617.3167688221
1530.210392214
1449.32337195
1374.0789943418
1303.9913380923
1238.6094199772
1177.5275850499
1120.3687617433
1066.8229582511
1016.6941576291
969.22122983652
1396.0567441086
4360.6227948701
5001.0791184069
5258.0977155349
5447.5087534198
5493.6297165726
5381.0149981974
5227.5149101268
5073.3724250686
4955.0991283811
4919.177136922
4984.1893944664
5083.2986420569
5137.9460088515
5225.1706506202
5377.9112949767
5563.0799982699
5746.2912247823
5913.5355423937
6062.0736968857
6193.5587270523
6312.2985941402
6423.2130682228
6520.91495442
6624.9698939461
6720.1855441502
6802.4761102375
6868.9347790716
6914.6548361722
6941.5571182539
6952.3782022557
6943.8500019367
6916.4086610028
6873.1913844404
6818.8900017714
6748.0625076066
6662.0727126204
6573.1594883217
6476.8381391852
6375.6161300135
6273.1080835685
6171.3084270319
6073.5078411502
5965.492316147
5896.1876257776
5839.687102052
5817.041682322
5793.6016967911
5887.8814070789
5967.4617054464
6040.7778742917
6127.2197160865
6214.3831835984
6303.4951176537
6385.6530635602
6449.1402896658
6500.7524098354
6518.7543794952
6438.4124204186
6317.3218284668
6165.3844762664
5996.3531661024
5821.8546582845
5655.4821894511
5480.4570375793
5365.7633776439
5301.6174514168
5273.8090024865
5329.3127078415
5411.9751874905
5528.8183858944
5665.1303213059
5802.0812221087
5918.5985077277
6011.3596881739
6096.9374737698
6139.3639159199
6179.4222032278
7141.332523281
103768.64198374
99941.921724224
98753.04210018
98433.944662997
97299.88810969
94904.461884411
91609.466201969
87819.624663186
83216.377120158
77771.255946381
71811.115639461
65564.638805374
59157.788850567
52811.463786587
46739.430169824
41092.608738717
35959.501728408
31391.530489598
27393.413156689
23930.816544729
20952.105238937
18398.536500158
16218.935892856
14346.515761984
12740.468554332
11361.557069676
10173.399321053
9141.9677001437
8245.5177988709
7464.0502174409
6779.8579891703
6177.0840847051
5645.3885696566
5174.4080079142
4755.6382952527
4381.4156400262
4046.8121653042
3746.3716347976
3475.6140891212
3231.0755711468
3009.5929314081
2808.4761358842
2625.2897364432
2458.099957956
2305.2259708704
2165.0589609019
2036.2880690213
1917.6676597755
1808.3137757694
1707.2309191816
1613.685373286
1526.8897562968
1446.2955481811
1371.3175681435
1301.4894929188
1236.3205356136
1175.4459384862
1118.4609530692
1065.0919676978
1015.1156617825
967.60431291123
1348.9183696904
4309.0037072926
4964.9312438788
5219.1953451792
5404.3496611497
5455.2720352057
5342.8602038785
5186.1227651243
5029.5877981362
4911.0812610111
4879.0520334389
4943.5992021957
5034.8550287625
5095.7889097929
5198.7306344629
5364.1095795819
5555.9426642852
5742.5168238884
5910.976060448
6058.8247441157
6189.0251618317
6306.2425112596
6415.1885412351
6511.9455453208
6615.3152813375
6710.0269384326
6791.4894799392
6857.249405284
6902.3773707368
6928.3331676613
6938.477024575
6929.8652353137
6901.9886493235
6861.8925561451
6809.1017570986
6737.9148377951
6652.4291684578
6565.067614144
6470.7456191973
6371.4718139975
6271.3309170506
6172.2008149311
6072.9655374835
5970.6410524758
5902.8722073036
5848.394159919
5828.8380568726
5800.4752040693
5888.4367773351
5964.7728581763
6034.7634953906
6121.7920932303
6213.44705285
6303.6276842701
6382.8430872911
6442.751732278
6488.9518688079
6497.930072702
6412.7738377165
6291.476573035
6144.6497674985
5982.7740639283
5816.9107583966
5659.0088344408
5496.2121129237
5387.2529626248
5327.6000427288
5324.3061275257
5356.7515353465
5438.6840337708
5540.6813229393
5665.7616128963
5789.9706312793
5906.8513788132
6004.0454182592
6092.7313009986
6131.9080652785
6146.5694327566
6896.9641727539
9881.3809192301
45792.531123544
59864.13473978
68435.532877196
73609.980983722
76000.391899816
75970.655691787
74591.306064897
72092.653190323
68742.283730426
64684.971682155
60090.034541269
55111.038903027
49936.334619059
44775.024327145
39815.868692455
35182.224812661
30962.821760354
27194.368550732
23878.073898023
20988.620725633
18488.596725041
16331.578978592
14477.348588615
12877.851760407
11491.436065503
10295.956142738
9258.6864287659
8355.7912424155
7563.9131736665
6871.1333497391
6261.617490909
5723.2317078578
5244.934521494
4820.1789007576
4441.0916299094
4101.4791373494
3796.2214556512
3521.5038391417
3273.4308061907
3048.5176560038
2844.2753262098
2658.3734120805
2488.786692328
2333.6042918685
2191.3065344891
2060.620707584
1940.3363120027
1829.402087648
1726.8514783952
1631.9412321487
1543.9519621275
1462.2581715465
1386.2503594765
1315.4485772112
1249.3980366603
1187.722477825
1130.055219814
1076.0539978961
1025.377259
977.4730766152
1032.5242089641
3753.8480061143
4835.9541068481
5119.3883230862
5316.4446488932
5421.1965293926
5334.8622051378
5178.9863247741
5015.47731672
4881.9537735992
4825.6209758228
4870.1784303994
4958.4721901709
5025.6000274262
5129.7680966176
5296.9991430103
5494.7726257327
5689.8014476552
5866.246028451
6019.1065014831
6151.9427275819
6270.2739066996
6378.2973582653
6502.2594460926
6605.4993714857
6699.3724251485
6779.0281534846
6843.4409796477
6887.2055954029
6911.7500944058
6921.7090571129
6912.2815266846
6884.7471073956
6848.3191719969
6795.4093601349
6724.6850175054
6641.1780547783
6555.3526545915
6463.2840030453
6366.3331251117
6267.9526674725
6170.1696513602
6073.2434332562
5977.6596788192
5918.5707379257
5871.0776099222
5849.9889622512
5816.2969112408
5889.5135160713
5958.287207756
6029.3068921179
6107.9794983563
6204.8866386197
6294.5360927471
6369.4664029644
6423.6946586451
6461.2146260483
6453.8388912948
6368.8542131588
6248.8123196181
6113.3069058112
5963.5474378149
5811.2264819934
5669.4037296861
5525.3555567079
5439.5768206578
5391.4457934759
5398.6155649168
5409.9235353938
5489.6742139426
5564.0616074414
5666.4562380218
5765.8076842523
5868.4819818115
5962.3854326673
6051.7208971383
6097.4829831904
6075.2288220871
6551.6690257242
7781.50823553
14530.747676572
24943.275625774
33517.927299393
40263.475525009
45217.254469134
48491.513581194
50444.240505958
50676.174661115
50016.244596702
48543.640895255
46330.810390909
43564.332732234
40386.274797322
36971.473156394
33501.865574036
30116.406579328
26911.665239279
23960.167972083
21293.686829887
18917.166213121
16819.563688603
14979.464407441
13369.67560817
11964.903868065
10741.174490539
9672.4292529594
8733.0916879523
7909.7659358382
7186.915984546
6549.7265066817
5985.0325072574
5483.2109801047
5037.3718268247
4639.257825256
4282.6243672095
3961.7021515884
3673.0333193894
3412.3093647732
3176.082596271
2961.4247689769
2766.2307206162
2588.189452567
2425.4508574517
2276.254126556
2139.2468748749
2013.2674786639
1897.1391468743
1789.8751279165
1690.5926872026
1598.6279452791
1513.2798090597
1433.948274982
1360.0741679841
1291.1967647156
1226.924137421
1166.83172913
1110.5986726142
1057.9402423177
1008.5505720054
961.41720941774
1188.5308776794
4093.2563011911
4823.9412434548
5072.977227093
5249.5946531766
5312.6151060598
5187.5493328613
5014.2446468291
4846.8524359601
4723.739338504
4695.8138726162
4752.3264379021
4827.1687672454
4922.5673011463
5081.8493068836
5289.2435612156
5507.0818125938
5711.0623664431
5888.8221437923
6036.8969758485
6163.7102906603
6273.5115705221
6374.8926019856
6474.5583854494
6578.658695818
6669.7571326295
6743.9530751933
6804.7477943296
6845.0695503873
6867.4721398319
6878.1042070909
6864.21786678
6841.0038673345
6810.6608416732
6752.1471768509
6687.4318405498
6609.3813519655
6528.013971771
6441.7464489968
6350.2327695887
6255.5977283577
6161.7911151619
6073.9778750848
5985.6654524986
5939.5478408644
5904.3547829261
5878.8803122163
5845.9165655657
5898.3117895292
5947.4987206901
6025.5363738743
6102.7245775679
6189.8718503415
6274.3985872346
6338.4789019044
6381.5464548454
6415.3334570377
6385.8565551468
6313.2292280922
6196.8682955478
6080.9349078103
5948.8850557431
5815.2291257235
5700.1212674727
5584.6413363159
5525.3204777179
5491.2992471966
5500.32234105
5497.5280390244
5558.1752631195
5617.6048898284
5712.3026740361
5808.8801752865
5908.6567124108
5988.8455273054
6077.062813042
6066.1728780618
6038.4855617448
6732.508443051
7556.1935868803
8305.5092768083
12857.827253915
18311.880947593
23345.578398421
27620.107648372
31098.946000868
33700.818623549
35519.175714182
36451.838694215
36461.444483088
35827.218947053
34603.914846032
32922.848480427
30842.634648574
28541.251423151
26145.063520739
23762.705245579
21473.244134857
19331.265840315
17367.029461589
15591.7536979
14002.639404123
12589.485344253
11337.37645417
10231.563170405
9255.3897311212
8393.1494821787
7631.6162322155
6955.6867371417
6354.9521430727
5821.5472020387
5345.8762363443
4921.0967926727
4540.0267849989
4196.9460334907
3888.4042466833
3609.6828783427
3357.509764203
3128.0536038298
2919.5520596503
2729.4566274695
2555.8219645541
2396.7216239205
2250.6695898077
2116.5277622771
1992.9639921174
1878.9749385698
1773.506181729
1675.8446055157
1585.3152735809
1501.2309534487
1423.0048862856
1350.0944651923
1282.109238918
1218.6139335744
1159.2308553912
1103.6543697852
1051.5646656626
1002.6458907819
955.91102461073
1087.1541299801
3875.7666034552
4705.4087911853
4953.2634142613
5123.3712733622
5179.6457438089
5040.4470311431
4855.521784458
4678.3992347467
4548.9738163709
4515.969747116
4561.1776736218
4640.0067821964
4772.1181557127
4972.4097064179
5209.490889912
5447.2951853877
5665.9886596635
5853.7609897479
6005.6307512953
6132.2233042637
6237.4317129546
6334.9769972945
6439.4798287371
6543.8818942304
6628.7526443779
6695.2633890511
6752.3399461683
6789.7602568476
6810.7985224266
6820.8592516103
6801.2688797333
6789.3344119985
6752.9181597305
6693.2022990573
6634.0023603204
6562.2756388752
6487.9293722892
6408.014217912
6323.1794300019
6235.5495366607
6150.8528840475
6071.8320850576
5994.2281078482
5960.5498194384
5938.8553672783
5911.3766523656
5883.5161697047
5911.2218926133
5938.7892037798
6012.6674465229
6083.0964367218
6164.6416403091
6238.1274421378
6300.6198740375
6340.0772604145
6328.9042390812
6276.198466172
6218.1116571098
6112.6217231964
6015.7679822447
5908.1958274953
5799.8519953033
5724.7485981775
5645.5921072215
5645.6920503846
5616.8539166322
5646.0759806558
5635.7788085179
5678.8046876205
5724.7210432203
5799.9839225158
5861.4535431271
5940.8766954794
5993.4693688099
6058.7050157466
6038.5753018933
5991.684808919
7347.5550117778
6895.816559095
6869.7799747012
8333.2361717591
11499.491584922
14962.618663455
18229.083424837
21133.312526584
23576.335720382
25528.148995247
26898.156356766
27696.956949381
27795.873069395
27444.801514931
26652.789908879
25508.08266406
24065.662524265
22448.187850337
20744.933125484
19028.891613034
17359.172588536
15778.815362119
14312.462437237
12969.679424826
11752.78835717
10657.404737143
9675.4604888239
8798.2157610564
8015.4812878573
7316.8484457806
6693.0536632618
6135.6800191853
5636.9528484936
5189.4100821649
4786.8878839447
4424.916943953
4098.512374959
3803.6032267639
3536.2526996578
3292.8827935935
3071.8768940786
2870.3682260212
2686.3743497618
2517.5898866377
2362.7333376231
2220.5825203256
2089.6691968799
1968.9964377595
1857.3784665168
1754.0554744797
1658.3539890239
1569.500040511
1486.9181743037
1409.9649305839
1338.2286753006
1271.2943512822
1208.7373833165
1150.2125565252
1095.3869286316
1043.9294110904
995.59453472865
949.81094004916
1005.4470520802
3582.6315707275
4568.2122961247
4816.0912778492
4972.3706512828
5011.5965529911
4860.8613114865
4663.8387212305
4474.9384959435
4336.1140438023
4292.4444234525
4329.3458289592
4426.526179374
4600.8530452764
4841.502362862
5108.6179870317
5367.0781821953
5600.8190367479
5799.9774056504
5956.6850462686
6082.9672625186
6185.0264399466
6282.1880685959
6396.6206278825
6500.8502594692
6575.1122329203
6634.6605950918
6688.6617157537
6723.0538697212
6744.2112261866
6748.5294591702
6728.6177738383
6726.510731854
6670.0242651833
6621.5374134554
6559.9691598856
6496.4086055783
6429.2443292997
6356.0063132156
6279.7870556782
6204.292204333
6133.5130391711
6069.1887073249
5994.1586326278
5970.9659861517
5955.4594090107
5937.6988302719
5933.0738874633
5953.9082748048
5978.7718715863
6036.9524984166
6095.2200220033
6172.8505254602
6207.1273419765
6260.4896754715
6225.2125127192
6238.3636536495
6180.0261458953
6146.7762087357
6064.744776537
5986.4055342881
5905.3464003109
5834.5197289252
5795.6148564761
5752.6875081896
5765.6741815701
5738.8916112307
5772.4857522868
5754.4810776003
5791.7892520658
5810.3094084338
5863.7978436978
5909.9999840172
5961.4555424549
5996.6305711939
6044.7132223407
6018.9076346002
5989.6872443693
7966.9869041891
6265.8064313534
6255.5816303229
6488.5917254393
8077.1237076727
10386.87710249
12781.130677791
15059.25789307
17118.261912974
18865.357198804
20244.280730111
21215.747387752
21892.873589346
21982.17874618
21653.852513546
21095.286429781
20250.272615967
19196.759189791
18007.748159095
16749.097952387
15476.58160386
14230.848599221
13041.74368203
11927.610051558
10896.851655711
9952.2798345925
9092.8297921893
8314.6063673464
7612.2185604022
6979.2981313225
6409.2819874493
5895.8670570925
5433.1440410296
5015.7860357252
4638.9561941299
4297.9892808259
3988.6636955904
3707.7906787733
3452.6890725856
3220.3778296404
3008.5226122368
2814.6919961115
2636.7987260626
2473.8773397561
2324.0953676247
2186.2237041483
2059.0636512984
1941.3847666548
1832.5549234103
1731.775935761
1638.2401012559
1551.3451957186
1470.373651252
1394.928578329
1324.5683761288
1258.8385858365
1197.3766698731
1139.7906312232
1085.7965072039
1035.0897169569
987.4846597219
942.6100898071
947.70725334939
3197.9359223215
4416.540005245
4668.5490699238
4805.4983081966
4820.4851746283
4660.2221593905
4447.7738901527
4244.2805974934
4093.1417022774
4037.2966594032
4074.7529107792
4200.94786144
4418.5160236507
4698.3419112274
4995.9464958288
5275.6091089587
5522.0011622727
5731.2158521474
5893.5918831746
6019.1134906573
6116.1122925461
6210.4793659675
6344.3704278685
6450.5789439384
6506.9015827681
6566.2068249813
6615.9352248033
6647.6435086124
6666.7879435875
6668.0875363826
6647.8493584421
6639.9030926496
6573.4568064667
6523.3243272524
6466.5277569004
6413.7073267713
6351.0202941408
6285.1462991129
6220.075237147
6160.6540826214
6109.8202597008
6060.0800828547
6043.5456447905
6005.9691960901
5982.3195840565
5970.9737738097
5988.4576256522
5994.3427171045
6006.9065292459
6048.3547476361
6087.4775120897
6151.1443056949
6147.8649159871
6183.2933697813
6147.181912515
6158.4801576818
6108.913684644
6073.3711673271
6023.4747926861
5971.5407099958
5925.0137861976
5885.2529371321
5858.9937685061
5840.2360330617
5852.5669239352
5835.178394693
5864.3537286981
5848.4945855979
5874.3121638804
5890.7445220622
5919.4967130969
5949.5447488031
5980.9675055289
6003.0279730604
6035.4273127017
6008.3796324355
6015.2275893752
7971.2518815134
5753.2494670939
5735.2054109816
5677.2825475683
6274.1393341692
7715.4285792168
9446.1927582547
11196.941150891
12861.122503566
14342.8499287
15614.263845052
16617.319516223
17353.484097132
17652.6061799
17690.063721858
17522.721429293
17055.986226582
16392.311368252
15589.325444603
14685.611817594
13733.858133156
12768.548293068
11819.052094867
10907.232684872
10045.826917788
9242.1202024829
8499.3063404786
7817.0391150908
7193.5310537831
6625.7739059888
6109.7496952382
5641.1770502816
5215.7718701389
4829.4139531601
4478.3704489292
4159.1305144763
3868.5563050762
3603.77861803
3361.9612875577
3140.6717577169
2938.1044031651
2752.4906450005
2582.1519851188
2425.5960841822
2281.1032170869
2147.6629805717
2024.4911497665
1910.4875965388
1804.8466770488
1706.8936897192
1615.7011958425
1530.7871753707
1451.7765434621
1378.0505048914
1309.2072051748
1244.8435661007
1184.5062103294
1128.0044672934
1074.9621394469
1025.1622691681
978.42579461941
934.37332304319
910.68726254306
2713.8728617423
4262.6314268354
4532.5638166264
4650.9076796479
4636.7278811936
4462.1583384512
4226.4045976277
4003.3358574234
3837.1293272899
3771.1719930993
3817.472882798
3976.8237279796