/*--------------------------------*- C++ -*----------------------------------*\
| =========                 |                                                 |
| \\      /  F ield         | OpenFOAM: The Open Source CFD Toolbox           |
|  \\    /   O peration     | Version:  2312                                  |
|   \\  /    A nd           | Website:  www.openfoam.com                      |
|    \\/     M anipulation  |                                                 |
\*---------------------------------------------------------------------------*/
FoamFile
{
    version     2.0;
    format      ascii;
    arch        "LSB;label=32;scalar=64";
    class       volScalarField;
    location    "5e-05";
    object      pTsat;
}
// * * * * * * * * * * * * * * * * * * * * * * * * * * * * * * * * * * * * * //

dimensions      [1 -1 -2 0 0 0 0];

internalField   nonuniform List<scalar> 
109340
(
382961.45621646
381673.77052379
378976.63735891
375685.42539577
372059.58633189
368311.15147755
364522.53223671
360744.1338702
357067.51212303
353476.67521484
349919.12344193
346391.39746513
342897.0183952
339438.49271733
336017.53080178
332635.67097643
329292.25459676
325984.79729342
322708.37449638
319455.83152936
316216.86206939
312980.20294655
309733.15489389
306460.19284486
303141.06857322
299749.36625587
296250.07930472
292596.30689345
288723.76956302
284542.57795233
279923.46320435
274674.69602485
268505.68131543
260985.13982529
251515.80012461
239322.90752485
383269.69681931
381533.42143842
378476.58259993
374951.54168422
371222.37820726
367471.06699344
363748.96487446
360066.27312881
356420.35960033
352813.41713981
349239.91659716
345700.77849486
342198.45732097
338734.48104908
335309.810989
331924.09768201
328577.31626888
325266.37024949
321985.45808374
318726.41633505
315478.66605941
312230.6755278
308969.39364952
305678.47375437
302336.4474372
298915.10879084
295376.95617435
291671.30533913
287728.29732463
283449.31403816
278690.88191747
273235.33439144
266741.01668945
258677.98558698
248177.86807198
234292.49614961
384150.7533023
382092.0832992
378696.41600423
375080.47299621
371383.79118445
367686.5000064
363981.13729743
360280.54349455
356609.54363405
352975.40216488
349376.99591601
345814.86949312
342290.86161896
338806.48505047
335363.31810839
331962.45175925
328603.56233849
325283.64925857
321996.3930531
318733.27066914
315482.89990971
312233.59201513
308972.04085692
305681.88694273
302341.34779701
298922.02707242
295386.27732904
291683.34569566
287743.20844976
283466.63135182
278708.82783675
273245.89665202
266708.78152726
258481.19123551
247443.73712412
231838.17098853
385382.22944324
382835.33057986
379248.70063691
375517.31460496
371738.93595541
367954.93068498
364180.02032088
360428.40922702
356716.3154283
353049.15650946
349426.316758
345847.19075176
342311.91253396
338820.78087167
335374.04602189
331971.68075177
328612.91376887
325294.32958386
322008.71322852
318747.68949143
315498.48560874
312249.97409554
308989.14898973
305699.77772479
302360.48812495
298942.85071414
295409.29929203
291709.11667334
287772.09904384
283498.115381
278740.50613881
273270.42819215
266682.45929576
258250.59432277
246468.10480017
227942.53685737
387331.49254226
383921.55738381
379760.59297655
375751.53253239
371860.82776381
368035.84883188
364247.24320031
360497.0645331
356788.3530037
353121.47920779
349497.8987642
345917.98067684
342382.03524546
338890.5062921
335443.89196537
332042.65225963
328687.0808957
325374.87762148
322092.12075091
318837.03716393
315591.67484414
312346.47991214
309088.50759237
305801.94528784
302465.90964973
299051.87774537
295522.39038349
291826.63789782
287894.12036686
283623.52727877
278862.6119073
273389.90709888
266754.37155611
258122.82272755
245499.09306767
222551.06073934
390991.68934314
384497.94627247
379880.79308963
375781.19165209
371885.15222674
368068.91284304
364290.93984397
360543.51925324
356832.70079292
353159.82254955
349527.47115285
345936.42503861
342387.19593549
338880.28214116
335416.31089488
331995.98554535
328620.43430607
325296.55419234
322038.02559679
318777.03746947
315523.90447702
312271.50205978
309007.43478045
305715.58889454
302374.60229351
298956.07712036
295422.3449147
291722.65230517
287786.52004564
283512.29408748
278741.12641778
273267.47871875
266608.27086921
257880.53294131
244802.59164663
217062.33762697
224529.16992014
209641.40246973
197208.62435771
187150.91413792
178362.39285416
168856.66410587
158318.66065127
146723.68160413
134184.39130114
120946.38211222
106989.30669758
93778.595320591
81455.197212741
69960.335961624
59867.568119661
51043.144169721
43495.05663485
37116.637099208
31751.329828087
27276.802148182
23559.942600028
20448.106452822
17835.991541888
15645.75112599
13795.221764785
12220.284225928
10876.127149288
9721.6817086484
8745.6894965194
7880.500972943
7117.780817788
6488.6133895371
5891.2634183973
5404.6671180268
4944.0796556064
4553.2156987796
4195.3445856681
3873.2436779962
3593.7147273822
3328.105865535
3103.6727781179
2885.272254148
2700.5353229098
2520.4863581973
2366.0799892283
2217.1256779334
2085.917752574
1962.4053381935
1849.3564141275
1745.6677756697
1648.2602525039
1559.1468700494
1475.6577722575
1398.5286566463
1326.7028254107
1259.7572962827
1197.232859596
1138.7886841968
1084.0902365866
1032.8330344672
984.07050905812
1124.2547543959
4056.375534219
5020.5305536686
5310.0783134408
5519.7504635322
5603.720751431
5505.115340137
5359.6256111989
5205.9467123991
5074.6240648755
4998.1475181336
5039.5883998894
5162.0098069647
5224.9231733461
5263.8804223876
5365.0139639047
5526.200435953
5705.8411429289
5876.9804617382
6032.0817435571
6170.6896964149
6295.0248437343
6409.4162520087
6536.4623630131
6645.0776967462
6739.180912534
6819.7011954672
6884.2953362751
6928.4344538967
6953.9360633517
6966.568108852
6964.1962239057
6940.1554281154
6896.738558554
6836.2100233555
6765.4461546343
6682.0972245445
6590.0800502199
6493.2502864673
6389.3297491304
6280.266842275
6170.3026786734
6064.3042166125
5944.3047710393
5884.0820892836
5807.1814590607
5784.4868486175
5812.1643362915
5888.6359255904
5976.5842525558
6055.0273492159
6134.1133118332
6216.855450688
6301.2303679618
6385.181828961
6453.4536069085
6510.1166918261
6551.0828158553
6498.2607088545
6379.7834339416
6217.9925305226
6033.1105399636
5837.2049345696
5650.8780708914
5454.9935004388
5326.1967504683
5251.4877764206
5227.8253780674
5273.9114344894
5363.6894996639
5496.1014851014
5664.7594095411
5833.4802152849
5933.5033949343
6024.8553593054
6088.2968722104
6162.5125996871
6274.2683272784
7378.8991466483
216933.42963421
201192.48149627
189462.370069
180389.02870654
171064.96599889
161228.81910238
150390.71793288
138687.82461365
126297.22825937
113479.43803211
100560.56191052
87892.29144483
76441.14579381
65952.146978822
56532.28611375
48347.855945269
41307.016215875
35334.027191765
30316.341487348
26113.029703354
22595.317418913
19652.462052557
17181.318722373
15096.174664798
13331.128155114
11830.906049005
10547.431058727
9444.74580641
8492.7311188531
7668.2190090804
6947.9297023953
6317.4234014461
5763.4042075316
5273.3943267394
4840.2081742018
4453.0284560084
4108.6705978067
3798.8904087238
3521.3770101584
3270.4798853637
3043.9651834309
2838.2751337707
2651.5889281955
2481.094380415
2325.7015708642
2183.0390592367
2052.5123030095
1932.039344608
1821.3915523436
1718.8868380338
1624.3422849758
1536.5632281431
1455.0689256648
1379.2481126431
1308.6958903482
1242.8931453015
1181.4710397347
1124.0058738616
1070.1816520902
1019.7722767944
972.50651885872
1495.7949147377
4458.7150759587
5070.2461021104
5335.3797474907
5534.5584202988
5571.720522788
5457.3712825493
5307.7470103042
5156.3156698793
5035.2386268851
4988.4043534731
5055.4793351604
5171.4956519306
5218.8232937522
5273.0517026582
5398.1051737201
5570.5254953065
5749.88387807
5916.5583426093
6066.7347038001
6201.0309758691
6322.2051471284
6434.9904486004
6524.7081469237
6624.4917986316
6716.0263031777
6794.8725965369
6858.7235634408
6902.7864286689
6929.3098657152
6942.6123926507
6938.3693885768
6912.9774225673
6870.1775799326
6811.1043552697
6742.3200076979
6660.8513808683
6571.3620177344
6476.5620394866
6374.5092232088
6268.140187881
6161.774613729
6058.4466197793
5942.7743213488
5879.5856761918
5808.7614667682
5785.5183184106
5802.083184187
5876.9568964728
5962.1679074331
6041.2721978713
6124.7328561459
6209.4043157742
6295.2183064633
6379.7512318305
6448.1485616032
6505.4593222419
6543.1315066707
6486.8971143937
6372.1477961458
6214.5061075453
6032.6341971608
5838.8421205036
5653.3363026749
5458.810450765
5330.1427337152
5257.0478486757
5228.6244762718
5272.9994234908
5363.3927764383
5493.3723275011
5652.7889942587
5805.0285110788
5910.4118768121
6003.1862634243
6072.5387596618
6147.3265270323
6253.0225384339
7371.6099799657
210420.54688434
191837.48592177
181196.34807611
171887.39431324
161897.60851779
151595.93760979
141045.67488204
129862.44053202
118302.26257386
106258.43080317
95022.469394722
83858.359989427
73317.871489101
63607.916874685
54845.634702093
47103.288050782
40397.291627839
34680.680372374
29844.2756263
25761.509869584
22329.073526441
19451.72667175
17027.299712602
14975.683983126
13237.875796965
11757.20264214
10488.191966511
9397.3119829451
8454.5439146307
7635.7787074724
6921.9903297348
6295.5527090191
5745.3211280579
5258.3041500254
4826.6188127649
4442.2747523738
4098.6109094962
3791.0930945903
3513.9858656656
3264.5600392153
3038.4135611453
2833.8339913131
2647.2936089629
2477.6895186066
2322.34028967
2180.4151460105
2049.834052345
1929.9421951894
1819.2448670206
1717.1519697351
1622.597529678
1535.042327563
1453.6955781503
1378.0629908278
1307.5857654121
1241.8675249466
1180.5064623304
1123.1110471975
1069.3586303294
1019.0233904075
971.6990323214
1470.3661090226
4437.9004277982
5054.1666989728
5316.8969688223
5513.4063031082
5552.7046524903
5438.9792238717
5288.7384406414
5136.9717843781
5016.8647812083
4973.0394389069
5039.3854817982
5151.3637993262
5199.4857309083
5261.7194201463
5393.9720986587
5569.6200149562
5749.450271049
5915.8241951207
6065.5791535238
6199.2496811855
6319.9386330668
6432.6946777879
6532.1834146509
6637.798116426
6734.2226195386
6817.4236141811
6884.4628114425
6930.4192930022
6957.7595946877
6969.9598819561
6962.3254654704
6934.9944629083
6890.5292995661
6831.7415686074
6761.160279803
6676.0475962432
6585.2832614565
6487.7690232402
6384.0432790719
6277.6471127743
6172.0815332952
6069.7492786834
5953.1591378252
5887.6217809374
5822.0009359783
5793.3987051577
5794.4101884018
5891.3055678441
5973.5929914469
6052.487339016
6136.2894683416
6218.4665537677
6302.8494819908
6385.662005532
6452.5325474187
6510.6567967884
6543.0763518031
6476.1652901942
6358.777244721
6202.6205169825
6024.7614595079
5835.6613584995
5654.2020553356
5462.6524125306
5337.3113964658
5266.3276492631
5231.6313989768
5283.9780475848
5378.1405783566
5507.4555287795
5663.4163767879
5817.903480969
5929.696058329
6020.3870100762
6093.7024007883
6150.1474816713
6219.1441202858
7361.0746798103
198152.03781139
176530.19299293
166163.07116144
155360.53425084
146251.22361793
136711.24594118
127005.18602428
117195.41923192
107264.35514861
96949.792014568
87959.196750139
78481.692030816
69220.965543822
60535.871926473
52537.534407613
45416.547449096
39178.268112234
33781.644674581
29173.358326319
25273.00591406
21972.629910068
19171.778492145
16810.895273995
14812.297872796
13108.763323138
11652.650889442
10405.869945949
9331.1715502741
8400.3523641112
7591.1106802401
6884.7477991057
6265.2161040867
5719.2427459864
5236.8116184571
4807.9466718269
4426.5006525907
4085.279752912
3779.4047552083
3504.1475648392
3255.8103464137
3031.1313998453
2827.1867038343
2641.6960449346
2472.6035410982
2318.0079825288
2176.4236295183
2046.3465343156
1926.7835372471
1816.4274862484
1714.6018485212
1620.2721577616
1532.9238423692
1451.786628019
1376.3455719359
1306.0308824481
1240.4597189633
1179.2037458401
1121.9107728084
1068.2495949645
1018.000397672
970.60440592479
1436.9802534588
4403.8586385703
5031.0518632421
5290.954267813
5484.11429915
5526.4728562519
5413.3264304087
5261.9066044081
5109.1633027413
4990.0177990499
4949.8270321952
5015.8438038953
5122.3127517561
5172.4760856351
5245.7513052892
5387.4498404515
5567.4253299672
5748.4624822233
5914.9926892362
6064.1872367097
6196.8767362904
6316.7406624613
6428.8736434175
6525.3629302206
6630.1594617433
6725.7772775092
6808.6158424692
6875.6387514909
6921.8350044412
6949.5470406952
6961.3989879035
6953.3622424132
6926.3361789752
6881.8097369421
6825.3717494294
6754.889634586
6669.132046338
6579.110378498
6481.9389603379
6379.2770499737
6274.8017153132
6170.8641913483
6071.5203116823
5958.9546588835
5890.1988606003
5830.159771977
5806.3178593352
5791.1401614856
5889.8662493866
5970.5595768451
6045.987636132
6131.0060064321
6214.9235129833
6301.6479574925
6385.150822381
6451.1063059914
6507.0524448606
6532.6644596624
6458.7198656871
6340.0729107803
6186.1488529234
6012.1550383706
5829.0569732219
5654.1602327838
5469.567333869
5348.508184814
5280.8626714587
5246.3063565276
5302.9183506387
5394.0311527734
5515.9033684005
5661.7923739439
5809.1034871409
5924.866208809
6014.8248277975
6095.9873177017
6144.1533235435
6202.1688826021
7271.1221069697
171584.71896751
151397.26723688
140172.97969552
130639.97522889
123398.28441101
116132.50553587
109302.02084297
102117.13911133
95235.542122797
87869.271053291
80132.402584533
72210.518796094
64363.700035943
56842.894773108
49815.870303065
43388.929002007
37669.028804916
32674.072333058
28355.625656338
24653.386023918
21501.147720776
18826.922825593
16542.195298354
14597.873635033
12941.207606144
11522.609982042
10300.00527652
9245.1786944917
8330.6588897194
7534.1161965096
6837.0538648312
6225.5882857087
5686.164407774
5208.5958300406
4784.3521892697
4406.2131282597
4068.0188455941
3764.3954359602
3491.3661593868
3244.6819062211
3021.4871279668
2818.714730679
2634.3787652104
2466.0797757473
2312.3077494379
2171.2747457064
2041.8641014317
1922.6807024139
1812.8110399944
1711.2665734223
1617.3181066359
1530.2117818945
1449.3247433606
1374.0803979178
1303.9927263948
1238.6108350038
1177.5289846373
1120.3701580226
1066.8243682476
1016.6955907602
969.22206504276
1395.9963845964
4360.6056996035
5001.0788199451
5258.0971693463
5447.5083170617
5493.6300743231
5381.0149911357
5227.5148614211
5073.3724250586
4955.0989955699
4919.1771163413
4984.1895341192
5083.299027929
5137.9461253011
5225.1705249077
5377.9111657439
5563.0800158518
5746.2912211174
5913.5355014146
6062.0736151151
6193.5585948443
6312.2984135747
6423.2128473718
6520.9153163849
6624.9696335203
6720.1853062475
6802.4758765695
6868.9345452049
6914.6546153255
6941.5569467054
6952.3780524582
6943.8499236357
6916.4086258268
6873.1913491677
6818.8901164379
6748.0626019308
6662.0728284098
6573.1595748488
6476.8382821003
6375.6163281314
6273.1083347431
6171.3087887084
6073.5082706698
5965.4926469238
5896.1880134199
5839.6874948996
5817.0414917295
5793.600330194
5887.8796610981
5967.4599370476
6040.7760343416
6127.2175590168
6214.3808476314
6303.4926685935
6385.6509115369
6449.1382428319
6500.750155873
6518.7534375471
6438.4138695046
6317.322921018
6165.3861866253
5996.3553580994
5821.8571575441
5655.4849735207
5480.4600477233
5365.7650109748
5301.6177622715
5273.8079752723
5329.3101702161
5411.9717990592
5528.8143199335
5665.1262593468
5802.0778306581
5918.5957670867
6011.357804593
6096.9367610402
6139.3646568668
6179.4251649655
7141.3447694354
103768.64203588
99941.921425596
98753.041981573
98433.944094955
97299.888648832
94904.462167208
91609.467037938
87819.624269996
83216.376891226
77771.255928701
71811.115397754
65564.638531005
59157.788568497
52811.463455454
46739.429818816
41092.608423261
35959.501432787
31391.530245286
27393.412962389
23930.816393259
20952.105147828
18398.536526852
16218.935994759
14346.516014104
12740.468802744
11361.557396048
10173.399707923
9141.9681531961
8245.518324475
7464.0507972179
6779.8585992224
6177.0848102389
5645.3893176224
5174.408820219
4755.6391844353
4381.4165264348
4046.8131651683
3746.3726084618
3475.615171003
3231.0766259706
3009.5940956919
2808.4772595357
2625.2909515495
2458.1011311089
2305.2272279582
2165.0601914095
2036.2893693698
1917.6689498574
1808.3151115271
1707.2322613482
1613.6867368478
1526.8911318949
1446.2969335594
1371.3189634675
1301.4908947915
1236.321951237
1175.4473349223
1118.4623563927
1065.0933787045
1015.1171028116
967.60531765262
1348.8640022787
4308.9872652553
4964.9307555754
5219.194799003
5404.3490419011
5455.2728340133
5342.8602494723
5186.1228603918
5029.5878983929
4911.0812198623
4879.0521415621
4943.5993980537
5034.855582237
5095.7891147656
5198.7305520282
5364.1095080518
5555.9426918654
5742.5168140494
5910.9760192792
6058.8246558199
6189.0250254594
6306.2423303235
6415.1883150617
6511.9458923967
6615.3150084913
6710.0266873035
6791.4892284297
6857.2491480243
6902.3771159776
6928.3329535324
6938.4768289637
6929.8651211197
6901.9885782385
6861.892505748
6809.1018547041
6737.9148948578
6652.4292564777
6565.0676689535
6470.7457305898
6371.4719943788
6271.3311403371
6172.2011070949
6072.9658343113
5970.6412290888
5902.8724359845
5848.3943724018
5828.8377964501
5800.4737549845
5888.4348526395
5964.7709140703
6034.7614839124
6121.7898217727
6213.4446196455
6303.6251216054
6382.840825677
6442.7495453776
6488.9493521668
6497.9291793247
6412.7740329655
6291.4767840479
6144.6513425083
5982.7759197932
5816.9129676765
5659.0113060666
5496.2146893177
5387.2541673777
5327.6000939576
5324.3047462852
5356.7494812337
5438.6813380615
5540.6779113214
5665.7580294886
5789.9679367969
5906.8490972389
6004.0439556594
6092.731637713
6131.910360624
6146.5739305395
6896.9807807664
9881.3815156225
45792.531021375
59864.134579187
68435.532834643
73609.980787355
76000.391863994
75970.655725171
74591.306039648
72092.65333638
68742.283822151
64684.971518405
60090.034363633
55111.038682499
49936.334384692
44775.024052286
39815.868428386
35182.224577548
30962.821549356
27194.36838851
23878.073787578
20988.620659646
18488.596726168
16331.579072389
14477.348725511
12877.852035572
11491.436387687
10295.95653818
9258.686867716
8355.7917437214
7563.9137347733
6871.133979682
6261.6181859175
5723.2324568429
5244.9353024174
4820.1797815011
4441.092520461
4101.4801153538
3796.2224448076
3521.5048878039
3273.4318813893
3048.5187846579
2844.2764654935
2658.374596223
2488.7878727236
2333.6055259268
2191.3077624019
2060.6219930177
1940.3375946585
1829.40342079
1726.8528088129
1631.9425947547
1543.9533304605
1462.2595614349
1386.2517500025
1315.4499780757
1249.3994431766
1187.7238903946
1130.0566479685
1076.0553948841
1025.378640876
977.47467723134
1032.4982768617
3753.8249555687
4835.9523604993
5119.3878851812
5316.4436333792
5421.2007578663
5334.8623977899
5178.9864782237
5015.477521841
4881.9540007872
4825.6211569593
4870.1804288695
4958.4729402605
5025.6003972048
5129.7680817813
5296.9990887173
5494.7727163906
5689.8014847029
5866.2460066877
6019.106410048
6151.9425964672
6270.27373466
6378.2971320598
6502.2597874553
6605.4990835164
6699.3721583111
6779.027881487
6843.440697852
6887.2053103718
6911.7498537725
6921.7088285793
6912.2813755368
6884.7470343859
6848.3190944335
6795.4094233689
6724.6850472473
6641.1781327138
6555.3526868455
6463.2840712188
6366.3332451891
6267.9528334156
6170.1698544762
6073.243611372
5977.6596455994
5918.5707093301
5871.0776283414
5849.988672828
5816.295792864
5889.5118423101
5958.2852763604
6029.3047655
6107.9770699544
6204.884012234
6294.5332917689
6369.4638209642
6423.6920372866
6461.2117923271
6453.8379184554
6368.85319056
6248.8127452742
6113.3078184774
5963.5488346388
5811.2283602561
5669.4057184352
5525.3573436476
5439.5775853605
5391.4457485404
5398.6145117536
5409.9215622701
5489.6720015379
5564.0590617435
5666.4539867446
5765.8058364423
5868.4802543522
5962.3841552288
6051.7207445379
6097.4824863122
6075.2312811766
6551.6736739873
7781.508306477
14530.747854051
24943.275554648
33517.927413715
40263.475732181
45217.254684834
48491.513821299
50444.240686713
50676.174889995
50016.244606937
48543.641058407
46330.810480812
43564.332722286
40386.274728861
36971.473037183
33501.865387071
30116.406481253
26911.665157177
23960.167900943
21293.686802939
18917.166227427
16819.563761446
14979.464560528
13369.675837636
11964.904151308
10741.174844302
9672.4296661603
8733.0921636916
7909.7664889356
7186.9166001559
6549.7271849961
5985.0332046865
5483.2117399069
5037.372647085
4639.2587023171
4282.625298138
3961.7031309344
3673.0343426584
3412.3104287693
3176.0836971962
2961.4259072042
2766.2318863375
2588.190639076
2425.4520632306
2276.2553497437
2139.2481277743
2013.2687477512
1897.1404486751
1789.8764432157
1690.5940327771
1598.6293029437
1513.2811842866
1433.9496574919
1360.0755666354
1291.198166056
1226.9255412624
1166.8331353138
1110.6000833265
1057.9416741023
1008.5519797732
961.41947494052
1188.484384076
4093.2375621473
4823.9400526767
5072.9767094085
5249.5940365854
5312.6171889478
5187.5498869369
5014.2450175357
4846.8526559205
4723.739425287
4695.8142204764
4752.3272766697
4827.1695051597
4922.5674015766
5081.8491705369
5289.2436122092
5507.0819903354
5711.0624871325
5888.8221505339
6036.8968680216
6163.7101323258
6273.5113597374
6374.8923645604
6474.5587978744
6578.6583864099
6669.7568195376
6743.9527445839
6804.747430541
6845.0691881642
6867.4718677922
6878.1039720136
6864.2177243137
6841.00384078
6810.6607845755
6752.1472530465
6687.4319511565
6609.381432309
6528.0140163552
6441.7465431759
6350.2328718837
6255.5978318946
6161.7912210193
6073.9779229852
5985.6652953406
5939.5475407024
5904.3544097783
5878.879784425
5845.9155212402
5898.3099627436
5947.4966187863
6025.5341094847
6102.7220245138
6189.8691065218
6274.3957506848
6338.4774653547
6381.543300916
6415.3302474363
6385.8557699241
6313.2284461651
6196.868036557
6080.9354814152
5948.8860781071
5815.2305995466
5700.1226251331
5584.642130523
5525.3208497731
5491.2985047405
5500.3216402543
5497.5269457059
5558.1735782199
5617.6019125139
5712.299816695
5808.8781515872
5908.6552154815
5988.8451298994
6077.0638196496
6066.1744421553
6038.4877555192
6732.5118391832
7556.1935835483
8305.5093644646
12857.827511517
18311.880994769
23345.578670717
27620.107852326
31098.946217904
33700.818869864
35519.175862409
36451.8386618
36461.446209589
35827.218577162
34603.918092473
32922.845660802
30842.636143747
28541.251492612
26145.063596266
23762.705193493
21473.244153165
19331.265912147
17367.029557256
15591.753834041
14002.639588368
12589.485599797
11337.376772225
10231.563540041
9255.3901501251
8393.1499666897
7631.6167942307
6955.6873712336
6354.9528335653
5821.5479422565
5345.8770229968
4921.0976314845
4540.027654069
4196.9469616157
3888.4052309988
3609.6838995111
3357.5108276574
3128.0547075013
2919.5531983938
2729.4577995669
2555.8231710529
2396.7228390708
2250.6708307877
2116.529018831
1992.9652702445
1878.9762343815
1773.507504251
1675.8459470016
1585.3166310351
1501.2323240371
1423.0062728358
1350.0958585425
1282.110638279
1218.6153363376
1159.2322586223
1103.6557910335
1051.5660763931
1002.6472778998
955.9129000522
1087.1185841919
3875.7426548658
4705.407197646
4953.2628777965
5123.3709590223
5179.6487107598
5040.4479109403
4855.5221990634
4678.399376104
4548.9738518386
4515.9701541247
4561.1785194081
4640.0072409121
4772.1180198523
4972.4094349391
5209.4910319964
5447.2953581757
5665.9888033619
5853.7610461401
6005.6306747613
6132.2231666541
6237.4314744763
6334.9767307111
6439.4802847531
6543.8815447087
6628.7522490576
6695.2629636116
6752.3394876681
6789.7598264511
6810.7982370586
6820.8590533087
6801.2688267807
6789.3344313529
6752.9182553779
6693.202596
6634.0026304742
6562.2758452262
6487.929592212
6408.0144491666
6323.1796309805
6235.5496658816
6150.8530279118
6071.832096415
5994.2278802516
5960.5494569116
5938.8548991915
5911.3762021457
5883.5154560857
5911.2202749796
5938.787077931
6012.6652630315
6083.0940325919
6164.6384882542
6238.1245156622
6300.6149809224
6340.0743775431
6328.9015981897
6276.1980441812
6218.109912936
6112.6218452376
6015.7683721503
5908.1966464112
5799.8531489826
5724.7490713248
5645.5922275396
5645.6916911017
5616.8541520879
5646.0758570741
5635.7784382243
5678.8035986132
5724.7197170792
5799.9836981319
5861.4526292825
5940.8756698054
5993.4692234439
6058.7059532289
6038.5762875475
5991.6861383802
7347.5440920619
6895.8166050943
6869.7801925569
8333.2361886288
11499.491802411
14962.61883816
18229.083645413
21133.312750239
23576.336030102
25528.148955601
26898.156481273
27696.954687263
27795.875584874
27444.799473088
26652.7905553
25508.081523628
24065.662547008
22448.187912833
20744.933099696
19028.891709719
17359.172757805
15778.815547249
14312.462650705
12969.679679698
11752.788661528
10657.405098218
9675.4609080357
8798.2162274779
8015.4818044539
7316.8490155628
6693.0542971251
6135.6807176959
5636.9535983553
5189.4108708417
4786.8887252399
4424.917839227
4098.5133196557
3803.604224992
3536.2537325919
3292.8838659368
3071.8779966776
2870.3693606946
2686.3755141102
2517.59107758
2362.7345593292
2220.5837682309
2089.6704653085
1968.9977242325
1857.3797729376
1754.0568027112
1658.3553328597
1569.5013995005
1486.9195479348
1409.9663154731
1338.2300664243
1271.2957483349
1208.7387810493
1150.21396827
1095.3883435878
1043.9308009341
995.59592094117
949.81261540353
1005.4224862304
3582.6045736813
4568.2098020197
4816.0907017191
4972.3706287428
5011.5997279399
4860.8624371506
4663.8393707486
4474.9385718965
4336.1140270778
4292.4448061101
4329.3464033476
4426.5261995701
4600.8526211189
4841.5018985094
5108.617987342
5367.0781917277
5600.8190478531
5799.9773837985
5956.6849010598
6082.9671021421
6185.0261895306
6282.1878078067
6396.6210964349
6500.8498307762
6575.1117367778
6634.660090386
6688.6612330232
6723.0534406399
6744.2109337175
6748.5293288994
6728.6177811655
6726.5110398795
6670.0247165917
6621.5380451817
6559.9696992123
6496.4090782499
6429.2448653104
6356.0067957082
6279.7875173898
6204.2926475524
6133.5133865188
6069.1888751696
5994.1585909737
5970.9655437063
5955.4589614573
5937.698351597
5933.0730126526
5953.9071098999
5978.7702130511
6036.9506156754
6095.2178489483
6172.8470753179
6207.1248092428
6260.4870688185
6225.21000235
6238.3608799375
6180.0203631405
6146.7764480906
6064.7438397685
5986.4054189806
5905.3467303853
5834.5201529272
5795.6151188652
5752.6878290229
5765.6745204766
5738.8919188146
5772.4861655837
5754.4815254518
5791.7895292437
5810.3087808545
5863.7980602963
5909.9996959211
5961.4551096696
5996.6305304962
6044.7138600977
6018.9083259076
5989.6912410691
7966.2656113737
6265.806566168
6255.5817817009
6488.591908654
8077.1239336025
10386.877218263
12781.130881199
15059.258182431
17118.262175308
18865.357364581
20244.281862735
21215.746934037
21892.8849518
21982.178426903
21653.852280847
21095.285157087
20250.27300983
19196.759528133
18007.748056368
16749.098150219
15476.581758982
14230.848831683
13041.743948595
11927.610333817
10896.852020762
9952.2802518839
9092.8302464079
8314.6068701776
7612.2191190796
6979.2987351646
6409.2826343991
5895.8677554635
5433.1447950273
5015.7868437021
4638.9570520583
4297.9901905263
3988.6646487746
3707.7916732891
3452.6901065564
3220.3789067881
3008.5237224923
2814.6931332854
2636.7998933419
2473.8785337576
2324.0965880189
2186.2249553987
2059.0649212556
1941.3860600152
1832.5562347272
1731.77726625
1638.2414500606
1551.3465586462
1470.3750263453
1394.9299635202
1324.5697664889
1258.8399825234
1197.3780769036
1139.792049654
1085.797904662
1035.0911129815
987.48608764342
942.61153091979
947.69558924981
3197.9104026831
4416.5362696068
4668.5484398244
4805.498492981
4820.488388067
4660.2236636091
4447.7748054546
4244.2807152658
4093.1416645216
4037.2969274107
4074.7531126043
4200.9475176338
4418.5153401732
4698.3416122415
4995.9462884777
5275.6088580959
5522.0008739233
5731.2156039932
5893.5915477648
6019.1131954596
6116.1119431282
6210.4790827418
6344.3708783859
6450.5784161371
6506.9010291984
6566.2062970806
6615.9347433941
6647.6431195697
6666.7877190408
6668.0875088116
6647.8494544202
6639.9037606869
6573.4574316478
6523.324893092
6466.5286270022
6413.7082222369
6351.0211780896
6285.147104363
6220.0760076152
6160.6547199592
6109.8208696933
6060.0804275844
6043.545697355
6005.9690777019
5982.3194862999
5970.9736016122
5988.4570800827
5994.3419588101
6006.9053559127
6048.353190552
6087.475540833
6151.1418874025
6147.8625659275
6183.2905943765
6147.1791973154
6158.478094945
6108.9128941916
6073.3696771157
6023.4733890164
5971.539730536
5925.0132456362
5885.2529717374
5858.9939226801
5840.2362949687
5852.5672076775
5835.1790091554
5864.3542469791
5848.495142168
5874.3128490691
5890.7443420932
5919.4968420469
5949.5447013566
5980.9673408125
6003.0278593699
6035.4276331473
6008.3797304528
6015.2255705707
7971.2474351149
5753.2501345737
5735.2055332627
5677.2827838076
6274.1395022999
7715.4287227504
9446.1929812064
11196.94144174
12861.122749789
14342.850212951
15614.263894894
16617.314951371
17353.486835058
17652.59795821
17690.063687974
17522.721052045
17055.98532517
16392.312543207
15589.325799217
14685.612722525
13733.858240904
12768.548534157
11819.052391538
10907.233020834
10045.827319411
9242.1206529595
8499.3068351436
7817.039653048
7193.5316451529
6625.7745457689
6109.7503672282
5641.1777529236
5215.7726217103
4829.4147606434
4478.3713142672
4159.1314312899
3868.5572692594
3603.7796237604
3361.9623243205
3140.6728351004
2938.1055102564
2752.4917738994
2582.1531594122
2425.5972717742
2281.1044211978
2147.6642107321
2024.4924214403
1910.4888906861
1804.8479795194
1706.8950107307
1615.7025358868
1530.7885429723
1451.7779205353
1378.0518877349
1309.2086007541
1244.8449626438
1184.5076193829
1128.0058606274
1074.9635253934
1025.1636946242
978.42724228473
934.37486367384
910.67719320048
2713.8312963387
4262.6255459219
4532.563136923
4650.9080574738
4636.7311157022
4462.1604696795
4226.4060051657
4003.3365280116
3837.129308957
3771.1720764024
3817.4727904252
3976.8231242998
4236.064040457