/*--------------------------------*- C++ -*----------------------------------*\
| =========                 |                                                 |
| \\      /  F ield         | OpenFOAM: The Open Source CFD Toolbox           |
|  \\    /   O peration     | Version:  2312                                  |
|   \\  /    A nd           | Website:  www.openfoam.com                      |
|    \\/     M anipulation  |                                                 |
\*---------------------------------------------------------------------------*/
FoamFile
{
    version     2.0;
    format      ascii;
    arch        "LSB;label=32;scalar=64";
    class       volScalarField;
    location    "5e-05";
    object      rho;
}
// * * * * * * * * * * * * * * * * * * * * * * * * * * * * * * * * * * * * * //

dimensions      [1 -3 0 0 0 0 0];

internalField   nonuniform List<scalar> 
109340
(
662.46174132256
662.4575015603
662.44857599283
662.43760009063
662.4253972675
662.41264983577
662.39955896537
662.38609566072
662.37225973124
662.35753981939
662.34116824182
662.32241483747
662.30043729466
662.27423974609
662.2426516441
662.20429869591
662.15754854308
662.10044781923
662.0306312257
661.94520328045
661.84057450415
661.71226779644
661.55465104236
661.36057423827
661.12085928143
660.82358189431
660.45301241344
659.9880059562
659.3994434863
658.64598652988
657.66663988545
656.36690306416
654.59122269292
652.0651830828
648.26770731816
642.12832266618
662.46275460205
662.4570393085
662.44691523325
662.43514036581
662.42256305946
662.40977160218
662.39685085689
662.38361185195
662.36968548781
662.35458960692
662.33768542593
662.31822464624
662.29532490154
662.26794590217
662.23486681901
662.19464779028
662.14558778528
662.08564131838
662.0123232624
661.92258163422
661.81262783756
661.67772527617
661.51190310781
661.30756185574
661.05491944321
660.74122307966
660.34957992547
659.8571584874
659.23230384278
658.42968169392
657.38163406212
655.98167905951
654.05048113525
651.26105382707
646.95376496889
639.69982631065
662.46564613871
662.45888211324
662.4476468681
662.43557368489
662.42311092297
662.41051407382
662.39767812513
662.38442381553
662.3704743063
662.35536232081
662.33846218452
662.31902211387
662.29615541005
662.26881977205
662.23579517789
662.19564720463
662.14667430982
662.08683337597
662.01363952634
661.92404177498
661.81424815432
661.67951876528
661.51387682468
661.30971498734
661.0572388573
660.74367828298
660.35211776695
659.85969901248
659.23473285368
658.43183574272
657.38326092063
655.98218306868
654.04715122823
651.24020024226
646.84690815677
639.14202674967
662.46967717827
662.46132977353
662.4494823905
662.43703987712
662.42431535285
662.41143837777
662.39839340272
662.38501401566
662.37099416225
662.35585781028
662.33897874331
662.31959922761
662.29682465083
662.26960626584
662.23671619497
662.19671132019
662.14788189759
662.0881749258
662.01508869094
661.92555415605
661.81574217369
661.68086735364
661.51488832944
661.31010580325
661.0566013922
660.74142866864
660.34742776416
659.85139903798
659.22117250125
658.41065770844
657.35101683424
655.93360518759
653.97186212811
651.10948841842
646.54517537462
637.99449049904
662.47603280362
662.46489951197
662.45118341961
662.43782839503
662.42473228462
662.4117221158
662.39865012198
662.38532236704
662.37139277019
662.35636556975
662.33961366782
662.32036871258
662.29771600299
662.27057815209
662.23768508769
662.19753502235
662.14833894695
662.08793559174
662.0136294665
661.92217921634
661.80943826862
661.67022567721
661.49795399097
661.28417732266
661.01796730236
660.68498637279
660.26616900906
659.73567672094
659.05763570309
658.18062770065
657.02777348799
655.47847729339
653.32337148871
650.15531225474
644.99922037071
634.42345388068
662.48787693256
662.4667499239
662.45150851809
662.43782037058
662.42467432395
662.41166108403
662.3985542196
662.38503707013
662.37063866568
662.35467983928
662.33629312211
662.3144019572
662.28770531217
662.25464471998
662.21335472121
662.16159333338
662.0966513574
662.0152695083
661.91355062729
661.78594593524
661.62582328191
661.42470354947
661.17171385984
660.85284001224
660.44988344196
659.9389849934
659.2884889598
658.45566898306
657.3814625692
655.98159317295
654.1303233215
651.63304384524
648.14974938357
643.01862793405
634.60945583837
616.04639921598
631.6222411149
614.05901975636
587.16797443005
550.65546206647
506.38774606952
455.87823328893
401.16732619862
344.82838713468
289.48899694168
237.53232626243
190.32091383035
150.28633181856
117.72432029929
91.531277916434
71.282638652831
55.697882914188
43.821494915479
34.786335267072
27.879904547326
22.58667444341
18.50673558977
15.318130959991
12.801891081075
10.80364467568
9.197216709096
7.8908151652338
6.8209504788199
5.9365227030381
5.2113169306179
4.5892630816099
4.0600806247531
3.629513349848
3.2361464260677
2.9196096420002
2.6281209626281
2.3859490363268
2.1670299422396
1.9754522349297
1.8097230561574
1.6568563790544
1.5278169993358
1.4057395501373
1.3024381265028
1.2044016340177
1.1201860978068
1.0409674351534
0.97103758937521
0.90665822628989
0.84774461354968
0.79458987688657
0.74496538177302
0.7000306025708
0.65831264474728
0.62006821368326
0.58473856590428
0.55206426689658
0.5217741557585
0.49366547723069
0.46753845920324
0.44321907601976
0.42026557862337
0.47285211036507
1.6463612716545
1.9825741278163
2.0192888205872
1.999844011506
1.9431558066082
1.9041859917497
1.8555905028059
1.8038826624154
1.7596954914684
1.7341702190578
1.749202915322
1.7923914914058
1.8153913468626
1.8296639260898
1.8651137107673
1.9213884366525
1.9841681281257
2.0440620839246
2.0984149074746
2.1470519159951
2.1907372104364
2.2309639796343
2.2759225017325
2.3141326423513
2.3472235387168
2.3755377580923
2.3982632547555
2.4138266214904
2.422874507055
2.4273612629621
2.4265909025311
2.4182584850465
2.403149739743
2.3820414685509
2.3573189151135
2.3281847798763
2.2959894480833
2.2620848690563
2.2256850145687
2.1874678481618
2.1489053497702
2.1116893366287
2.0694410230322
2.0480205121661
2.0208372244227
2.01234464744
2.0211540523997
2.0468412332616
2.0765721688729
2.1030237761818
2.1297144410002
2.1576643082422
2.1861713164202
2.214580558158
2.2375967902917
2.2566165758131
2.2703517492314
2.2518458459532
2.2106567243351
2.1545489073774
2.090475081135
2.0225734654752
1.9579770864121
1.8900612255015
1.8451355130747
1.8188455885246
1.8100338200013
1.8252623682493
1.8554964181495
1.9003962254113
1.957770497951
2.0153743130426
2.0493695515322
2.0803434349181
2.1018008973517
2.1268483575963
2.1564018131912
1.6784125375111
626.52021972316
604.05140452537
570.80985389312
528.35479524046
478.83171228071
424.83978932129
368.76105940486
313.33360029704
260.8349170834
212.99487015711
170.91430508082
135.1332737147
106.37264905944
83.417457453559
65.35740603873
51.418857489025
40.697544344282
32.476752968976
26.169234711182
21.300830635331
17.515422370655
14.549848326227
12.203034579972
10.326450624617
8.8129787388771
7.5815535215206
6.569418332552
5.7309752749778
5.0309577816487
4.4428265487966
3.943544013385
3.5179515621763
3.1528000054283
2.8372974811244
2.5640381308496
2.3248035252002
2.11582085681
1.9311689429783
1.7684277741358
1.6235665884095
1.4947289579862
1.3793242158337
1.2759902450991
1.1827798183789
1.098852505546
1.0226712549915
0.95372875447726
0.89076781201076
0.83351008356195
0.78098440092008
0.73297467261207
0.68879724424418
0.64813748443305
0.61061949386292
0.57598315770145
0.54392652105737
0.51422236790637
0.48663019339265
0.46096524162212
0.43708795895827
0.4148117277738
0.62063237980299
1.7991524970496
1.9861141066249
2.0074604304656
1.9800568503469
1.9280970430474
1.8890066578691
1.8391202612197
1.7883268272874
1.7477904562428
1.7325676595939
1.7565944472758
1.7978966166479
1.8155213209769
1.8350364888579
1.8788573235057
1.9391617117703
2.0019720314169
2.0604343144942
2.1131900081857
2.1604363071827
2.2031275794706
2.2428986518989
2.2738949112517
2.3090380356391
2.3412612496301
2.3690290287243
2.3915240835176
2.4070783851188
2.4164753961344
2.4211760930077
2.4197485989657
2.4109187178807
2.3959752859826
2.3753195718714
2.3512231580815
2.3226766254445
2.2912934580659
2.2580281738599
2.2222143800355
2.1848752252152
2.147508972033
2.11117076003
2.0703660799014
2.0478881845183
2.0227581265201
2.0140517802471
2.0190125245495
2.0441818889919
2.0729862423487
2.0996663403569
2.1278686104845
2.1564898611329
2.1855112215392
2.2141379142646
2.2371976539776
2.2564572773764
2.2690596683132
2.2493511607844
2.2094169646715
2.1546978727155
2.0916091809162
2.0243830996812
1.9600128334996
1.892512086885
1.847620367452
1.8218438944875
1.8114136079212
1.8260784639647
1.8565810803971
1.9007128101066
1.9550119698345
2.0070214615805
2.0428853519158
2.0743758860593
2.0979122426252
2.1232179664505
2.1508431527955
1.6758127876557
623.72588566572
595.39055457469
554.88368296353
505.15617483386
449.69309774191
392.43796661732
336.64969877254
283.96079576968
235.8172541184
192.6202529969
156.12448861878
125.06077835847
99.453082552181
78.775132653132
62.33252740964
49.418366221943
39.374987010107
31.605990020295
25.588620123246
20.901810208189
17.23494199779
14.35136306847
12.059488505701
10.220220368839
8.7343546773383
7.522048532682
6.523587379615
5.6956258619104
5.0033959561171
4.4203322291241
3.9260681356235
3.5035834984446
3.1413197874977
2.8278752476824
2.5558869804799
2.3184058009507
2.1100431605906
1.9267437483672
1.7643308269516
1.620352381324
1.4917557332747
1.3769970884379
1.2737668645412
1.181050908984
1.0971669189641
1.0213739257028
0.95242460885652
0.8897544993479
0.83249027406346
0.7801636438713
0.73216169236424
0.68809576933417
0.64750947778208
0.61008107965247
0.57548373535793
0.5434676864952
0.51379441949167
0.4862354454794
0.46060500364035
0.43676180941697
0.41446312432071
0.61044032681718
1.7913106155883
1.9808111608578
2.0020917741524
1.9747815506294
1.9224968294903
1.8838164601899
1.8340115224172
1.783322917552
1.743286789901
1.7292583410244
1.753213498791
1.7932940376903
1.8112968766979
1.8336886786939
1.8801465905056
1.9417237084109
2.0048511662206
2.0633611590187
2.1161160118416
2.1632861696386
2.2059474988939
2.2458465497505
2.2800994709042
2.3174163519551
2.3514706846581
2.3808580833322
2.4045347234695
2.4207952359363
2.4304782697757
2.4347924993047
2.4321792361529
2.4226406645387
2.407041217756
2.3864070546356
2.3615838229718
2.331664038701
2.2997272494526
2.2654093797571
2.2289001843537
2.1914333754593
2.1542290671602
2.1181303191657
2.0768904768596
2.0535244189731
2.0300846691338
2.0195146527074
2.019079168543
2.0519140624178
2.0797189366152
2.1063383085406
2.1346826029508
2.1624716232111
2.1910487509948
2.2191187014805
2.2416649646194
2.2612355535216
2.2720174376148
2.2485729199481
2.2076614177535
2.1533710883425
2.0915653720135
2.025850033289
1.962766613112
1.8961973545448
1.8523850290896
1.8272933173455
1.8147827260496
1.8322123688566
1.8641065238638
1.9081292849594
1.9613876444073
2.0143125794751
2.0525107296415
2.0834228411072
2.1084284824356
2.1276717661553
2.1435954913046
1.6894350872638
617.44997663398
575.74225982033
520.27761808243
457.69880461867
396.88092096642
339.82926339304
288.29273218618
242.56356193203
202.33603094788
166.82621920783
137.81392282087
112.34097410289
90.756201533166
72.929464493155
58.407275447288
46.819720754265
37.656861905838
30.44655186322
24.79267747192
20.359668681147
16.862100280854
14.078525944346
11.860296913773
10.076286408534
8.6259478924335
7.4382713830773
6.4598405475782
5.6461306783834
4.964194036899
4.3889829379637
3.9007080268028
3.4833776292674
3.1244335371669
2.81425343129
2.5443136419264
2.3088513076293
2.1020808607946
1.9199319971916
1.7586651171041
1.6154238737773
1.4876906212021
1.3733703848658
1.2707368682187
1.1783548364246
1.0948848158687
1.0193167543969
0.95063805124456
0.88816785132998
0.83108343813929
0.77891317165721
0.73103017328253
0.68707934669426
0.64660090933268
0.60927278181799
0.57475730260424
0.5428157235131
0.51319606230176
0.48568870621904
0.46010439148398
0.43630343432132
0.41398075806617
0.597060872252
1.7783430742754
1.9731291659015
1.9945377906047
1.9675089500327
1.9147411854806
1.8763758835073
1.826484565231
1.7756729653284
1.7361059115653
1.7234455552457
1.7474251948947
1.7857293398089
1.8044790880949
1.8307644573029
1.8806293224409
1.9438717193734
2.0075957954725
2.066339055731
2.1190716946142
2.1660681938767
2.2086030680351
2.2484390132603
2.2817820876545
2.3189504743645
2.3528473582596
2.3822046653311
2.4059397731703
2.4223125493095
2.4321200917966
2.43631843047
2.4335466997302
2.4240657040673
2.4083754478174
2.3884758317593
2.363603062476
2.3333684223318
2.3015995876539
2.2673116503769
2.2310783266341
2.1941834551462
2.1574520401959
2.1222993696436
2.0823532932328
2.0577959176691
2.0362365467842
2.0272514646904
2.0213009582772
2.0547712855467
2.0820632059858
2.1075345952872
2.1363440625237
2.1647821219753
2.1942370763616
2.2226077094084
2.2448960497434
2.2637689082135
2.2722244601671
2.2463059073023
2.2048899493637
2.1512695767998
2.0906831224571
2.0269182170261
1.9659878851965
1.901707112382
1.8593031771056
1.8353348679419
1.8229171900944
1.8418812201851
1.8729119407143
1.9145597084789
1.964561913868
2.0151744793036
2.0548967534032
2.0857119082178
2.1135500307192
2.1301203516079
2.1426984491049
1.6788839844687
596.40840085933
519.73929008865
438.4984302359
368.36639281089
312.82899735022
266.64696152957
228.26850561164
194.94611958822
166.44821335581
141.04029703891
118.38539474939
98.376591081793
81.00302904482
66.235805057552
53.912946141885
43.78292382335
35.5958328402
29.05101087051
23.836624854897
19.686988277475
16.383068781891
13.744623279205
11.614580848911
9.8907016586054
8.4870740257191
7.3343184187173
6.3786144639957
5.5824179353561
4.9141153425486
4.3491730131538
3.868334207466
3.4571561561263
3.1030090618223
2.7964179620316
2.5296595453899
2.2965074642334
2.0917620309326
1.9111147545783
1.751273116268
1.609077918451
1.4822791207288
1.3686763879563
1.2667382629712
1.1748345351768
1.0918496699843
1.0166099569245
0.94830705389513
0.88606261579826
0.82924583947336
0.77724157005329
0.729562176684
0.68574782930121
0.64540420010512
0.60818353640292
0.57378506988339
0.54194158397224
0.51240953681298
0.48497196353372
0.45944711969449
0.43570625283237
0.4133630060375
0.58060842270902
1.7618816349233
1.9630910744927
1.9849124588697
1.9583722717083
1.9050115966406
1.8668143978015
1.816617275229
1.765605669097
1.7264982572787
1.7154057634256
1.7391051918548
1.7748670314689
1.7950487110756
1.8260968808702
1.8798097825835
1.9449244587531
2.0095119533973
2.0686504816175
2.1213225586825
2.1680763810757
2.2103894088397
2.2499580700527
2.2839543509761
2.320993121891
2.3548637025372
2.3841174767039
2.4077121916642
2.423929638245
2.4334544997602
2.4373018723823
2.4343290189672
2.4246424249261
2.4093446395244
2.390126119981
2.3650732556521
2.3347047983126
2.3032708634507
2.2692273598084
2.2334397420832
2.1971709891647
2.1611263762944
2.1264496050956
2.0880228085261
2.063221418251
2.0428789197348
2.0342975017131
2.0255000528962
2.057497071192
2.0844560393186
2.1092753409992
2.1386516197666
2.1682954155666
2.1986764833367
2.2266844396269
2.2482257002501
2.2656689745545
2.2715429476555
2.2433764930343
2.2010513396183
2.148020929129
2.0890410208334
2.0281404246006
1.9700555415
1.9089765420205
1.8687086620861
1.8459522370146
1.8358932412325
1.8546070041748
1.8828729070136
1.9229494319926
1.9697943053428
2.0169202656854
2.0569659710246
2.0888034362361
2.1181941210766
2.1328994289904
2.139743991809
1.6700660432726
448.26159885125
324.63095079583
272.5917602918
240.38215059381
214.55416234159
191.47692550817
170.35373341813
151.18822893434
133.01010607293
115.62646889265
99.39685695667
84.541805637776
71.121595021747
59.27249222422
49.065823105024
40.458253585757
33.316123269523
27.47232400512
22.736096938324
18.913566116078
15.830731138516
13.33923907016
11.322392846658
9.6739133109446
8.3218275387619
7.2071647431569
6.281861910469
5.5062869258097
4.8533584374845
4.3005979552108
3.8296229038071
3.4252172448043
3.0767787265463
2.774856536966
2.5118925453454
2.281465700506
2.0791255715179
1.9005261226297
1.7421779504635
1.601329450588
1.475604435601
1.3629930233982
1.2617667238038
1.1705186131214
1.0880696134165
1.0133226064784
0.94539659885563
0.88347262084204
0.82694981981223
0.77519912832144
0.7277434059896
0.68410111195849
0.64391831309443
0.60684023559633
0.57257881753796
0.54084714787315
0.51142174683421
0.48407434040198
0.45863816466189
0.43497371028172
0.41263246383779
0.56165828868223
1.7421798750774
1.9509179863305
1.9734432048255
1.9474650297585
1.8937732525152
1.8555421523231
1.8048835566119
1.7534694411891
1.7144959062619
1.7048668207621
1.7284836179763
1.7614758010515
1.7835711735633
1.8197887662721
1.8776619772044
1.9449379685247
2.0106258372974
2.0701896524703
2.1227082097817
2.1691608930812
2.2111110449818
2.2501597563108
2.2840715274135
2.3210076054008
2.3548237225692
2.3838789750985
2.407278691337
2.4232996691964
2.4325062614902
2.4361133843979
2.4330629327479
2.4231553847365
2.4088863025579
2.3901478516838
2.3649325693268
2.3347139683501
2.3037968948108
2.2704256368475
2.2352893158081
2.1998132600305
2.1646638111929
2.1294511967885
2.0929512344179
2.0686850123176
2.0490471749944
2.0415651926812
2.0310935131863
2.0609946152845
2.0869037533259
2.1106626115269
2.1403467414703
2.1716673488039
2.2025311436556
2.2296407149353
2.2500414017093
2.2656654859559
2.2684451189332
2.2385349221877
2.1960556461906
2.1446969111681
2.0880943850731
2.0300901028428
1.974850659159
1.9179170966266
1.8795635397006
1.8583902824472
1.8567892440063
1.867665213618
1.8956346151868
1.9305689788418
1.9735232468561
2.016200647893
2.0563094698922
2.0895855911717
2.1199192517994
2.133392343477
2.1329680900506
1.7578919823164
14.920736477251
103.14452622955
127.08037230899
136.18807104822
137.70303962066
133.82397401689
126.14203156556
116.79773863228
106.47693423017
95.738577025676
84.885020151
74.243625247666
64.086071011245
54.656825981767
46.157812153181
38.712125961386
32.33181924256
26.967753663128
22.519354945532
18.862965719279
15.870997869434
13.426916790486
11.426761239933
9.7877165430484
8.4354719990999
7.3111820896814
6.3767122506202
5.5933824509431
4.9328867304041
4.3708362864815
3.8921982624704
3.4816427698519
3.1274993451382
2.8198947830761
2.5522766462911
2.3180404211268
2.1120319250104
1.9300540531208
1.7689139508396
1.6256221380347
1.4976123004451
1.382967484503
1.2799832312089
1.1872022837165
1.1033186415515
1.0272740726367
0.95819403039564
0.89527046340678
0.83781886623787
0.78521852952214
0.73698545100901
0.69266357749101
0.65186251365255
0.61421299492488
0.57941967495555
0.54720881118398
0.51735255614673
0.48963479869528
0.46385565241247
0.43982768579394
0.41728788504417
0.43590603072529
1.5270519705238
1.9175184719375
1.9595437979605
1.9450296322089
1.8933424298845
1.8538152830625
1.8045405074073
1.7512402219799
1.7073421827922
1.6894984282627
1.7063717262773
1.7384297663126
1.7627573502715
1.7993381259906
1.8575868685049
1.9265089437902
1.9947015575986
2.0567314356039
2.1108396662726
2.1582065107968
2.2006551166137
2.2395571651711
2.2835071049765
2.3205452502889
2.3541930632053
2.3827095797571
2.4056880351775
2.4212556457597
2.4299936292014
2.4335207455876
2.4301307870878
2.4202860942552
2.4072572760477
2.388455630244
2.3633960926535
2.3338626603361
2.3034743174465
2.2708766376969
2.2365338212947
2.2016518817147
2.1669449441647
2.1325066045643
2.0998299513778
2.0785970122139
2.0614116330441
2.0534255645429
2.041098518362
2.0659652715235
2.0893304395045
2.1135129995192
2.1403802677816
2.1736138771098
2.2043397656368
2.2299606381986
2.2483714793732
2.2609746247119
2.2580876700922
2.2281961731186
2.1861261074572
2.1386429168465
2.0861779738471
2.0327905897877
1.9830197383189
1.9324260513312
1.9020410561983
1.8847584619033
1.8866579642577
1.8899854514593
1.9169418564199
1.9418791954361
1.9762965245708
2.0093451286957
2.0431518258751
2.0734799920927
2.1018073628169
2.114765495208
2.1099851726952
3.0693662848413
6.6569144346409
18.040051320213
32.301904474466
44.171747912617
53.190771343575
59.25601866784
62.435860900043
63.275097963463
61.653871642522
58.753064320889
54.85918724068
50.231864035658
45.218969495496
40.071117395708
35.032504471859
30.310080675717
26.029748731751
22.247657103605
18.978202803723
16.194183949689
13.84599260546
11.876632797548
10.228902579495
8.8494016347837
7.693326725235
6.7229001266031
5.9042149487906
5.2080550095857
4.6157765297933
4.1098643726821
3.6752576015692
3.2994131895595
2.9729737403554
2.68895222293
2.4403420616353
2.2217838946589
2.0286154987625
1.8577059154092
1.7057612126085
1.5701483030206
1.4486726349678
1.3396832994705
1.2415409606629
1.1529241413737
1.0726329910679
0.99972412020151
0.93339311069541
0.87287406418821
0.8175227701025
0.76677593085544
0.72019180537888
0.67733498747011
0.63783209992754
0.60134486974907
0.56759044296263
0.53632781819024
0.50731121645171
0.48034912460064
0.45527109939776
0.43190141474045
0.40977558898619
0.49716751829652
1.6588432353378
1.9028894500831
1.929567603679
1.9073545705718
1.8542719480789
1.8088956973345
1.7533878416875
1.698475151692
1.658107415584
1.6503393828436
1.6718550094941
1.6996482079877
1.7339793949455
1.7900170793482
1.8624388581257
1.9381463513678
2.0087630252146
2.0702722500702
2.1218842992672
2.1666768268113
2.2060195826064
2.2427690167124
2.2783818816979
2.3160568596752
2.3489911340398
2.3757569567943
2.3975580160288
2.4119754485453
2.4200178701892
2.4237433226551
2.4187462612044
2.4104132632386
2.399564719955
2.3788642304069
2.3559499127332
2.3283351358996
2.2995110375062
2.2689338859474
2.2364682707507
2.2028629780987
2.1695108809639
2.1382915960964
2.1078203058952
2.091069621543
2.0781432627578
2.0686298355119
2.0565081020766
2.0741590264597
2.0907366869448
2.117396501538
2.1437406672959
2.1735445693357
2.2024013831562
2.2240934881987
2.2383676518679
2.2494096157323
2.2385251090135
2.2125075071422
2.1712196108576
2.1299779282139
2.0830366158455
2.0354402846193
1.9941747560695
1.9526083097428
1.9303959772372
1.9166505538521
1.917183934801
1.9127350013599
1.929001140169
1.9433895170669
1.9681356040281
1.9914976569299
2.0137027705301
2.02705161693
2.0410424058455
2.02054115873
2.0030891562976
3.656349969189
5.3270065408694
7.9007097338703
12.847697076615
18.820351556192
24.429278524956
29.200801781875
32.956140956582
35.530017296962
37.000470699757
37.286115453711
36.476995600952
34.913826849084
32.726472474288
30.132017774599
27.266964006648
24.34114100093
21.496063912168
18.835242181356
16.41840529142
14.272341551828
12.39806370753
10.77995009704
9.3924006648668
8.2070282404969
7.1954206651545
6.3325380959359
5.5951762683006
4.9633651444762
4.4208286495785
3.9520532320805
3.545744641754
3.1931651288932
2.8855487941177
2.6163854468399
2.3795798986994
2.1703060584702
1.9852753083568
1.8208410937211
1.6743393485884
1.5430253368812
1.4253380688074
1.3194552046176
1.2239537926015
1.1375033838755
1.0590593879168
0.98779564741387
0.92284341373755
0.86352708805698
0.8091830217207
0.75933057478881
0.71353025425843
0.67135692663965
0.63244802314347
0.59647513355573
0.56318984953704
0.53233390395138
0.5036847462538
0.47705847057604
0.45226887541968
0.42914099949769
0.40722383836631
0.45641870683443
1.5733649303874
1.861876886347
1.8926549261083
1.8727004692754
1.8170405295066
1.7608337042208
1.7006904545591
1.6423633220211
1.5999911284209
1.5909211813563
1.6091772862722
1.6390336880578
1.6870006273905
1.7583318877336
1.842004187115
1.9252681888192
2.0011071967093
2.0655214355725
2.1172724656601
2.1607967488461
2.1977797255522
2.2328476259194
2.2701241701847
2.3081419951557
2.339072939021
2.3632113428323
2.3836992254912
2.3971209506311
2.4046331619519
2.4081109432077
2.4011463365487
2.3968725953157
2.384013315287
2.3629626334395
2.3420007392737
2.3165632639246
2.2901463116008
2.2617152076747
2.2315146866486
2.2002994548034
2.1700983604583
2.1419960629233
2.1147211816927
2.1022411572405
2.0939038212369
2.0834668130246
2.0727132181369
2.0811996172801
2.089392652248
2.1134270232448
2.1357597354614
2.1613861625083
2.1836622806862
2.2014886172319
2.2110318669567
2.202649743418
2.17990174393
2.1549512948203
2.1135092808254
2.0748428013279
2.0322472047819
1.9890840301944
1.9566556025531
1.9220718959785
1.9128648519434
1.8920840014863
1.8874494688716
1.8660266700392
1.8575885661414
1.8452407755489
1.8367552965411
1.8185435018663
1.8010047097578
1.7718803788143
1.744481192085
1.6925062870983
1.6445781687656
3.3234266122656
4.2640885273142
5.5902200213373
7.1110166184048
10.085458584697
13.390041567057
16.546368419015
19.368101323747
21.683980450283
23.425808682242
24.518187524406
24.936244650491
24.626587567051
23.85160934802
22.641615860899
21.120266348157
19.383867374147
17.565868597891
15.757718067262
14.027934511743
12.422739082451
10.968338792481
9.6726539180022
8.5312690463694
7.5338829355401
6.6663527064137
5.9134025921761
5.2607618692311
4.6947342488714
4.2028789962629
3.7746260172238
3.4008982913373
3.0738340616544
2.7864694252375
2.5331305563297
2.3094989635961
2.1113649578663
1.9353077073313
1.7782331271421
1.6374453086454
1.5113823025511
1.3979986516587
1.2957987365432
1.2032286688724
1.1193030758057
1.0431206245215
0.9737209815709
0.91040942709055
0.85243975654665
0.79929324443819
0.75051579904536
0.70563018795887
0.66426730841746
0.62604399034312
0.59069408246606
0.55796081582371
0.52759384540994
0.49938735547447
0.4731452470864
0.44868011120254
0.42585037348856
0.40438806375101
0.42347049537456
1.4571101136727
1.8137243913556
1.8494893076523
1.8294630763377
1.7681491146847
1.6999655595937
1.6340480365882
1.5713502534326
1.5257823011232
1.5134144549886
1.529441996213
1.5666021817719
1.6305666593012
1.7174527040835
1.8130178332357
1.9046235703847
1.9864675501392
2.0550493475147
2.1079792351717
2.1502661242747
2.184982688429
2.2193363665125
2.2596826460956
2.2975323719861
2.3246682288431
2.3462430580716
2.3655815841657
2.3777976169953
2.3851673990229
2.3865954069716
2.3795581195106
2.3787659533036
2.3587418335345
2.3414056540639
2.3194200032062
2.2967215828866
2.2726807347954
2.2463796701564
2.2189038319232
2.1915690831257
2.1657877240746
2.1419071978888
2.109611165566
2.0986166235823
2.0897620648394
2.0794899516663
2.0727273597412
2.0735379791475
2.07411533928
2.0841635242257
2.0918749947236
2.1035681925297
2.0983382966932
2.0974536257708
2.0659432119222
2.0498345939642
2.0100515104341
1.978203820592
1.9307787252324
1.8849762980525
1.8384479395174
1.7948191718928
1.7596628712238
1.7212933195222
1.6959860504791
1.6554692052036
1.6268422657115
1.5789659066777
1.541018603864
1.4934433393661
1.4501989879613
1.402635182768
1.3558087285749
1.3063462784889
1.2621549295653
1.2053660593096
1.164695821547
2.2463840022991
3.4706526243552
4.5716271531708
4.9658744098916
6.3430047778237
8.3146677048133
10.3833783594
12.371428737978
14.164254621411
15.65396820172
16.775255895938
17.49591337415
17.879725491964
17.718703978494
17.192057317885
16.444382437834
15.459756836977
14.326572808629
13.121951949849
11.907802330693
10.731636730664
9.625143593161
8.6072901756451
7.6859959733515
6.8613688735258
6.1290182105835
5.4821041544401
4.9125013820184
4.4118303110665
3.9718326712014
3.5848477757502
3.2440167033339
2.9432847789977
2.677417606468
2.4418695841078
2.23254973811
2.0459074379466
1.8791709090627
1.7300257976233
1.5961811445453
1.4758056403797
1.367139793766
1.2686964968388
1.1796058136123
1.0986503617568
1.0249557099407
0.95770674092061
0.8961196838754
0.83971926049761
0.78797946862843
0.7403943579753
0.69657178878406
0.65608586356495
0.61866899929408
0.58404522135792
0.55194414965108
0.52214623147122
0.49442604479742
0.46861133701675
0.44453126320584
0.42206938286092
0.40103509663379
0.40009031453929
1.3029676225178
1.7598856080895
1.8026822224415
1.7811891934735
1.712168961154
1.6312009803446
1.5569471748977
1.4882639402493
1.4381036470464
1.4216797684923
1.4385257284676
1.4869137147949
1.5675995516314
1.6700635935321
1.7781400122525
1.8786984013072
1.966049780132
2.0387336275878
2.0936059348273
2.1349706544948
2.1668820745832
2.1994448790264
2.2463141697274
2.2845020511485
2.3050586901377
2.3263653166121
2.3439250056379
2.354893763744
2.3614293751974
2.3616926094813
2.3542565346657
2.3511430688673
2.3272093359358
2.3085882893698
2.2869909694421
2.2660693117527
2.240938194893
2.2140141884426
2.1867736071001
2.1609818309486
2.137616647318
2.1124791891596
2.0695890258306
2.0423589956825
2.0176887709182
1.9948715069856
1.9781605659561
1.9539255768453
1.9276429696153
1.9057841105912
1.8788534204573
1.8558527778468
1.8104747670638
1.7756235193766
1.7204178745442
1.6795636268897
1.6234043764212
1.5733848923253
1.522101953097
1.4732963676309
1.4276986291126
1.3845650651281
1.3442716167033
1.3044401437844
1.2691262269813
1.2254197768811
1.1891981155885
1.1421484488246
1.1019652255478
1.0591531388499
1.0186374703192
0.97934857209664
0.94236789203058
0.90645138596452
0.87556980368029
0.83724363164619
0.82969947984061
1.6561530450597
2.8566330284846
3.8689225592514
4.0042479068692
4.5368715604692
5.679348620936
7.0526903175141
8.4525364965417
9.7908865270728
10.975994001038
11.968741420581
12.719219909069
13.224898237823
13.339688788613
13.222684164088
12.929044677504
12.392709407731
11.703127446442
10.918716892677
10.079772431218
9.2319382683099
8.4031489491551
7.6150064523435
6.8816817134872
6.2092889560553
5.5995674085744
5.0511210572014
4.5602533887215
4.1225391529845
3.7331360323206
3.386977735455
3.0792171553298
2.8053680279984
2.5613668036537
2.3436591114515
2.1490668932533
1.9748304788801
1.8185185716301
1.6778828673974
1.5510244164338
1.4364653064599
1.332838144466
1.2389038536385
1.1535776205503
1.0757346291511
1.0046359837001
0.93968389985975
0.88016723084392
0.82554541323059
0.77536301456456
0.72907064143651
0.68633962880226
0.6469028684153
0.61039945768303
0.57657629848711
0.54518922774424
0.51598255995869
0.48881993529083
0.46349440634553
0.43987405295316
0.4178425434979
0.39720436458971
0.3848387334626
1.1078886680326