/*--------------------------------*- C++ -*----------------------------------*\
| =========                 |                                                 |
| \\      /  F ield         | OpenFOAM: The Open Source CFD Toolbox           |
|  \\    /   O peration     | Version:  2312                                  |
|   \\  /    A nd           | Website:  www.openfoam.com                      |
|    \\/     M anipulation  |                                                 |
\*---------------------------------------------------------------------------*/
FoamFile
{
    version     2.0;
    format      ascii;
    arch        "LSB;label=32;scalar=64";
    class       volScalarField;
    location    "5e-05";
    object      rhoHat;
}
// * * * * * * * * * * * * * * * * * * * * * * * * * * * * * * * * * * * * * //

dimensions      [1 -3 0 0 0 0 0];

internalField   nonuniform List<scalar> 
109340
(
661.20246401739
661.19834888922
661.18963879072
661.17884133239
661.16672463614
661.15393487346
661.14059469951
661.12647403499
661.11126003156
661.09398132661
661.07327733833
661.04769571705
661.01553570506
660.97479251821
660.9231144443
660.85774271554
660.77540990888
660.67221308914
660.54343452125
660.3833052626
660.18468204338
659.93865490541
659.63401795031
659.25655480168
658.78803544967
658.204803233
657.47569591463
656.55889217654
655.39691220755
653.90834432333
651.97339592746
649.40708666342
645.90617010891
640.93851636178
633.5014877954
621.5615528486
661.20344558557
661.19789940555
661.18801118085
661.17640851846
661.16389340333
661.1510256024
661.13780018782
661.12380319114
661.10830314212
661.09032542212
661.06860779595
661.04164664821
661.00766461612
660.9645712991
660.9099168983
660.84081788111
660.75386736219
660.64498037186
660.50920277816
660.34045661497
660.13120232145
659.87201365382
659.55101154982
659.15308874356
658.65882033192
658.04291382334
657.27191500238
656.30068738705
655.0667794301
653.48096860596
651.41048195488
648.64709154331
644.84162355818
639.36102821726
630.93896129673
616.87166803645
661.20624189427
661.19969060262
661.18872850513
661.17683746532
661.16444140071
661.15177970201
661.13866718585
661.12470044013
661.10923943683
661.09132211842
661.06969750129
661.04285624922
661.00901440059
660.96607756465
660.91159544741
660.84269049437
660.75595579479
660.64731077413
660.51180353514
660.34335929104
660.1344344064
659.87559647839
659.55495531774
659.15738782695
658.66344537972
658.04780125843
657.27695631994
656.30572071555
655.07157523459
653.48520180234
651.41365670579
648.64805558904
644.83514772323
639.32064129075
630.73250583574
615.80199455132
661.21012913862
661.20206556007
661.19052626925
661.17828773826
661.16564498979
661.15271694492
661.13942222768
661.12537852314
661.10991653506
661.09206293842
661.07056392129
661.04390211957
661.01028349716
660.96760485891
660.91340467085
660.84479173658
660.75834420682
660.64996308375
660.51466575522
660.34634074218
660.13737467229
659.87824216251
659.5569228312
659.15810944208
658.66210462222
658.04323069223
657.26750261212
656.28905398273
655.04441682646
653.44288640578
651.34939159111
648.55152817774
644.6862242569
639.06390279858
630.14569088808
613.60009710523
661.21623193757
661.20552074166
661.1921898847
661.17906696287
661.16606137187
661.15300556379
661.13970321035
661.12575822832
661.1104659702
661.0928307165
661.07158981198
661.04520125096
661.01183008531
660.96931516889
660.91510949781
660.84620258481
660.75901007662
660.64921224969
660.51146125508
660.33927828837
660.12443258788
659.85660279641
659.52267789854
659.10586024068
658.58443957785
657.92997355553
657.10469831398
656.05753164142
654.71771400919
652.98410638979
650.70599590251
647.64789219883
643.40314162845
637.18571153443
627.12861599104
606.7483061146
661.22752006383
661.20730892552
661.19250889703
661.17905996719
661.16600348097
661.15294002199
661.13955681141
661.12524484246
661.1090387521
661.08957181459
661.06509563475
661.03344901916
660.9920220679
660.93768950878
660.8667112646
660.77459386947
660.65590842247
660.50410769641
660.31134890816
660.06676724741
659.75707579004
659.36537127964
658.87001287097
658.243145061
657.44865643365
656.43930122404
655.15255292385
653.50427900528
651.37861855261
648.61100767233
644.95729568653
640.04213371945
633.2151676115
623.22314202018
607.01905670009
572.01676759833
601.3765784094
568.3506159519
519.56518458128
456.81455426901
386.14903428269
312.78005991513
242.03781446545
178.6742193112
125.79745789867
84.592151109943
54.232820924128
33.764285518394
20.68384594154
12.481870370794
7.5566360924119
4.6052640915198
2.8456156221295
1.7900438428634
1.1478895287603
0.75218435188468
0.5042136673396
0.34493126463006
0.240583709854
0.17111821239664
0.12386344632606
0.091075586555368
0.067978790488771
0.051432806322359
0.039587211623889
0.030689314054178
0.023987335273801
0.01915591600428
0.015218062948547
0.012372345185652
0.010024268667713
0.008247724276377
0.0068053619015056
0.0056468017573048
0.0047393610807713
0.003968468018585
0.0033736895719829
0.0028534963125038
0.0024490563486019
0.0020922335684934
0.0018097679499942
0.0015611599582019
0.0013586149401333
0.001183146024516
0.0010345606420133
0.00090816911058023
0.00079815481361767
0.00070443791816865
0.00062273391766587
0.00055226811466402
0.00049094620866352
0.00043745236587112
0.00039062904388831
0.00034955338314308
0.00031342752731345
0.0002815761658756
0.00025308653737854
0.00032312428890158
0.0038967277136643
0.0056132333093211
0.0058058537805494
0.0056727031596147
0.0053332260993779
0.0051189240660741
0.0048612502954308
0.0045944459947587
0.0043725604093456
0.0042477123927933
0.004322864206376
0.0045388052896778
0.0046540483828967
0.0047278810824745
0.004914676665194
0.0052169934865893
0.0055639416525086
0.0059050205595721
0.0062232751290274
0.0065151588049188
0.0067830063862666
0.0070343368410533
0.0073206167791837
0.0075684365923911
0.0077864192440513
0.0079753540765948
0.0081286379603087
0.0082344020027261
0.0082960101179115
0.0083265313947885
0.0083211550183289
0.008264086076581
0.0081610853395779
0.0080182372220015
0.0078525337160871
0.0076594662485339
0.0074489681413814
0.007230445453422
0.0069994606450701
0.006760985632662
0.0065245390435988
0.0063003189604971
0.00605053853277
0.0059257638312795
0.0057692015158883
0.0057207318106176
0.0057713795984502
0.0059192080715404
0.0060923832528434
0.006248408693601
0.0064078604696478
0.0065770493994419
0.0067518478775512
0.0069282395153913
0.0070726193527673
0.0071930759379053
0.0072803365400809
0.0071611579640374
0.0069011555837046
0.0065549212702098
0.0061705486269124
0.0057760026526474
0.0054127290898103
0.0050434830366499
0.0048070221480943
0.0046710441985467
0.0046265466808892
0.004704990862525
0.0048624673937074
0.0051009074405286
0.0054137961176037
0.005736326879564
0.0059307897408667
0.0061109976285003
0.0062371632915386
0.0063860228501871
0.0065631845250929
0.0039128107710196
591.6985626648
549.95420017245
490.96670881602
420.48518272438
345.1732913945
271.54198597289
204.42376272723
147.44958402833
102.06638632138
67.974319838143
43.707195392452
27.280475850776
16.876055683445
10.360440710941
6.348770182897
3.9226195228237
2.4530598241528
1.5594678312573
1.0108771868268
0.66868930038202
0.4514604011463
0.31108227599537
0.2185276419748
0.15628462043891
0.11369272736613
0.084043619689329
0.06303345814021
0.047921517496605
0.036892891215662
0.028744503833472
0.022627674500079
0.017991213007621
0.014439269988743
0.011684580705385
0.0095354579571683
0.0078334861445857
0.0064840292524018
0.0053982872438543
0.004523819402265
0.0038108961538665
0.0032280753895229
0.002747438525152
0.002349852392673
0.0020181113041426
0.0017409450334147
0.0015072330778578
0.0013102195556992
0.0011424399321516
0.00099983367698808
0.00087742233909582
0.00077253332384686
0.00068194790464515
0.00060357389229282
0.00053551644022254
0.00047631028042683
0.00042461309185626
0.00037936934467364
0.00033963337354515
0.00030465220302867
0.00027381805139864
0.00024657134372247
0.00056094229606418
0.0046407591889572
0.0056293792828199
0.0057333148015024
0.0055552545066995
0.0052492671627782
0.0050378666947268
0.0047756532818717
0.0045159159070858
0.0043140013806491
0.0042404649650196
0.004360059569176
0.0045664822565281
0.0046550386860988
0.0047566154338436
0.0049882419041041
0.0053146226063068
0.0056648270451904
0.0060005739619724
0.0063118105630746
0.0065972641105194
0.0068606093928358
0.0071104973243448
0.0073081248409994
0.0075356970221376
0.0077474524525627
0.0079322256383363
0.0080835195167737
0.0081889154686601
0.008252749241862
0.0082847334191025
0.0082748779128239
0.008214580772206
0.0081130374009599
0.0079736310454304
0.0078125574532733
0.0076238692082895
0.00741913847724
0.0072051434839353
0.0069782261529689
0.0067454903043918
0.0065165225882287
0.006297621890659
0.0060563147533546
0.0059252883191259
0.0057804994705437
0.0057308270963228
0.0057596437340095
0.0059041613336306
0.0060716235298623
0.0062287502621787
0.006397114179038
0.0065703025342243
0.0067482047404908
0.0069259209978521
0.0070705997625535
0.0071925869060543
0.0072725637513438
0.0071457948527334
0.0068938342310307
0.0065561683857198
0.0061775558526067
0.0057866210929984
0.0054242807665568
0.0050568614965361
0.0048201711817071
0.0046867608080625
0.0046337719719631
0.0047094388125122
0.0048683260116349
0.0051027293277384
0.005398547465659
0.0056888327086067
0.0058934138661955
0.006076207626037
0.0062143045629006
0.0063644829963674
0.0065298708824044
0.0039006507987998
586.44155655732
534.28976790122
463.90930503654
384.30297622369
304.36331468431
231.62178187916
170.29775014051
121.04063553364
83.381713104442
55.561503134633
36.450683208886
23.353489980114
14.745204332995
9.2356528633379
5.7726751690869
3.6222344207412
2.295625300881
1.4766425663325
0.96634208392297
0.64377239229835
0.43706106016702
0.30261967410506
0.2133968313572
0.15307358559506
0.11166565310968
0.082724761338499
0.062153777219092
0.047329662070197
0.036488787229879
0.028453368063475
0.022426357926512
0.017844648304278
0.014333477705035
0.011607135158346
0.009474517082265
0.0077903939820785
0.00644855594205
0.0053734375714871
0.004502905026412
0.0037956952633231
0.0032152833199164
0.0027380878802972
0.0023416894102746
0.0020121595230036
0.0017356091022742
0.0015033795425454
0.001306630194551
0.0011398290539368
0.0009973799558074
0.00087557705867936
0.00077081861668971
0.00068055566721659
0.00060240264941092
0.00053457148987635
0.00047548289474986
0.00042389665894005
0.00037873707503877
0.00033908221934476
0.00030417537407745
0.00027340915509649
0.0002461560303007
0.00054245847553125
0.0046007481660528
0.0055995166501117
0.0057029656239451
0.0055261789302432
0.0052190779760952
0.0050104732836083
0.0047494524781957
0.0044910139362655
0.0042921976829708
0.0042247132391486
0.0043437363914556
0.0045436323593877
0.0046340332829811
0.0047503003783216
0.0049957341539875
0.0053293464056814
0.0056818511275554
0.0060183751060952
0.0063300764429703
0.0066155036334727
0.0068790699655703
0.0071301621754256
0.0073490361286286
0.007591540058896
0.0078162702030569
0.0080127799313017
0.0081728972005126
0.008283721884589
0.0083499253723756
0.0083794826721646
0.0083613632973729
0.0082958166851861
0.008189300683155
0.0080492584032146
0.0078825578870845
0.0076839422259902
0.0074747603524252
0.0072531701513325
0.0070210762730207
0.0067868090810626
0.0065581048636698
0.006339896419568
0.0060951835982985
0.0059585542591454
0.0058231037799046
0.0057625202263756
0.0057609311781701
0.0059494065951538
0.0061116400013783
0.0062690134718251
0.0064388449605906
0.0066074780205043
0.006783072332039
0.0069577339132358
0.0070995637657347
0.0072238622603047
0.0072922104807653
0.0071415866236855
0.0068836273822006
0.0065488000966627
0.0061779680053
0.0057956399569661
0.0054401134608533
0.0050771257019577
0.0048455484084848
0.0047153812959799
0.0046513892649547
0.0047415526252483
0.0049082543099059
0.0051429811944879
0.0054341162080342
0.0057307222928826
0.0059495839081896
0.006129809581247
0.0062773262111966
0.0063918918048604
0.0064866468362181
0.0039669170246828
574.71321276221
499.57628141028
407.76079061925
315.3613600992
236.94277024272
173.56821011884
124.79366514586
88.250353691574
61.335124981255
41.643551460613
28.38040806059
18.831442048297
12.271510366888
7.9115357136029
5.0661637608618
3.2500185591512
2.0989495171931
1.3699006644288
0.90694033939048
0.61068509980857
0.41828246241602
0.29117900206148
0.20637871890099
0.14877564016297
0.10890036391916
0.080885514677243
0.060940499696242
0.046507489070905
0.035917015256448
0.028049918952519
0.022136449076528
0.01763866448948
0.014179333429911
0.011495020286586
0.0093887688983947
0.0077259723996974
0.0063999005756821
0.0053353298767507
0.004473963635818
0.0037725473501566
0.0031977421659253
0.0027236243523194
0.0023305427020486
0.0020029422964558
0.0017283909309025
0.0014972994994376
0.0013017337356817
0.0011357453564402
0.00099401307791946
0.00087275756627836
0.00076843598627163
0.00067853953173902
0.00060071059238787
0.00053315095691608
0.00047428090856072
0.00042287756050385
0.00037785369609067
0.00033831861358075
0.00030351280845209
0.00027283424025643
0.00024558040514533
0.00051866417731439
0.0045347798974209
0.005556405830377
0.0056604026903613
0.0054862180805402
0.005177417323583
0.0049712910728912
0.0047109138909152
0.0044529734581462
0.0042573867656048
0.0041968892624376
0.0043156188213622
0.0045058934932041
0.0045999181426803
0.0047359383909473
0.0049990417171855
0.0053418914113705
0.0056981914607594
0.0060365625291992
0.0063486242492377
0.0066334337155385
0.0068966112423112
0.0071476824378802
0.0073610013823942
0.0076027672089292
0.0078266399412752
0.0080231018908781
0.0081837399733469
0.0082954216912023
0.008362549295164
0.008391359800759
0.0083721196676096
0.0083068834131419
0.0081996214102813
0.0080644124146967
0.0078971992282053
0.0076963039952131
0.0074880260330339
0.0072663913874731
0.0070357982369469
0.0068048074015996
0.0065786507126093
0.0063657576235689
0.0061281755003981
0.005984211610071
0.0058593404647707
0.0058078380462425
0.0057741425050732
0.0059668200774423
0.0061262369751782
0.0062769531615006
0.0064497213816046
0.0066224528408618
0.0068037192286945
0.0069805081380179
0.0071209721355467
0.0072410482656426
0.0072945181373969
0.0071282332442242
0.0068673619542388
0.0065369797797405
0.0061736479869317
0.0058025702547013
0.0054587324509823
0.0051073872015563
0.004882432998228
0.0047576328853174
0.0046937505511302
0.0047922950398696
0.004955188769429
0.005178109175239
0.0054521717490945
0.0057362149760602
0.0059641058118647
0.0061439651766664
0.0063085868926294
0.0064072889669058
0.0064818175232944
0.0039189127921206
536.21410063891
406.9932226109
289.47024832537
204.09912719409
147.05693480134
106.73994387613
78.147128978125
56.936296546685
41.460626441843
29.733670310381
20.922314127261
14.428227633778
9.7681723138484
6.5215145562786
4.3139962034313
2.8406869203816
1.8746948684082
1.246755074427
0.83808904922812
0.57085023021465
0.39476738616442
0.27747835357339
0.19788377671452
0.14332561416415
0.10540910560144
0.078632011507054
0.059411935744058
0.045460003752557
0.03519330321613
0.027541519665682
0.021769345373492
0.017372989250448
0.013984944691673
0.011349224162023
0.0092805785885481
0.0076433098242297
0.0063369792690131
0.0052863029593579
0.0044362726814142
0.0037428943628566
0.0031744174513597
0.002704995960483
0.0023158336854534
0.0019909653400383
0.0017187810257726
0.0014893383370427
0.0012953330972808
0.00113035232318
0.00098960858306063
0.00086900369509801
0.0007653441872798
0.00067590403795803
0.00059848258449691
0.00053124070468502
0.00047267334444057
0.00042151229235199
0.00037669390115624
0.00033731800764297
0.00030264391817808
0.00027208576993765
0.00024484087618964
0.00049016131184876
0.0044515070775784
0.0055003304989916
0.0056063953519661
0.0054362338552782
0.0051254228643804
0.0049211296073581
0.0046605874129861
0.0044031176800909
0.0042109819501246
0.0041584490978626
0.0042752059916711
0.0044517913121411
0.0045527460021342
0.0047126714922647
0.0049954641924834
0.0053484087307909
0.0057097935331623
0.0060508188534052
0.0063629138631258
0.0066465742331965
0.0069086686810698
0.007158327336946
0.0073760900582913
0.0076172843158555
0.0078412226711739
0.0080371987328602
0.0081970382165988
0.008307761796214
0.0083730149363821
0.008399430078653
0.008378767326001
0.0083120785798818
0.0082073901363127
0.0080766940384294
0.0079081532196006
0.0077062033981061
0.0074999443991612
0.007279666686558
0.007051651212115
0.0068242729296624
0.0066019638584267
0.00639157268039
0.0061624700621938
0.0060167603883885
0.0058985012148538
0.0058491198010682
0.0057989212458018
0.0059835205619345
0.0061411948154197
0.0062881888690098
0.0064645278066422
0.0066448542235262
0.0068322333389603
0.0070070753985818
0.0071430823257073
0.0072542623811893
0.0072911602827985
0.0071107311737317
0.0068445231866154
0.0065182615824169
0.0061649085105837
0.005810443679795
0.0054821526454627
0.0051472833955164
0.004932668076348
0.0048134882983937
0.0047613977082337
0.0048592322158545
0.0050085904952206
0.005224106145711
0.0054816435063134
0.0057466719233652
0.0059767387640255
0.0061627299136351
0.0063368413508602
0.00642448514987
0.0064644126781594
0.0038810612405329
302.75223666917
158.53816140516
111.66416366774
86.755043353888
69.05306310146
54.9487387907
43.454520409103
34.194702735774
26.439857486779
19.958993034508
14.732313749975
10.644734211266
7.5236067342104
5.2183152728213
3.5707447051432
2.4242438813249
1.6414464292279
1.1144666657092
0.76221448367675
0.52671755624307
0.36850116504101
0.26129284724167
0.18801604300637
0.13708809899496
0.10132936797551
0.075919293819339
0.057616665796822
0.044224038335947
0.034325357673173
0.026927544313137
0.02133428710224
0.017052362957215
0.013748655357353
0.011174340619519
0.0091501761263326
0.0075432064553169
0.0062603673898454
0.0052276993504377
0.0043901543708877
0.0037068163208001
0.0031457931955257
0.0026825075090424
0.0022976274381634
0.0019763214934878
0.0017068565946907
0.0014796954765932
0.0012873638419053
0.001123737167484
0.00098411514069985
0.00086443076018605
0.00076151924595569
0.00067265289586416
0.00059572095298532
0.00052889021195279
0.00047068153329566
0.00041980670678543
0.0003752390222479
0.00033606671418318
0.00030157611361942
0.00027116886250506
0.00024396487042272
0.00045835918219783
0.004353007848358
0.00543271414493
0.0055423733484183
0.0053768367082334
0.0050657484320988
0.0048623246858772
0.0046011201934875
0.0043434063367067
0.0041533456255127
0.0041082862471433
0.0042238569300246
0.0043855353863216
0.0044956444358197
0.0046811660875785
0.0049849353872133
0.0053492341531007
0.0057168025959347
0.0060605066417274
0.0063719304517753
0.0066539493535482
0.0069139696849509
0.007160483250348
0.007377793337874
0.0076183736012942
0.0078420068947405
0.0080366957476543
0.0081952171131685
0.0083045995755149
0.0083676647173592
0.0083923991831227
0.0083711782126006
0.008302974307409
0.00820529612926
0.0080778515058193
0.0079082184201429
0.0077072155871907
0.0075042968899379
0.0072882524080033
0.0070641953448036
0.0068415344179917
0.0066244209276318
0.0064104705615384
0.0061924044318169
0.0060494762584602
0.005934966216067
0.0058917213961474
0.0058317012264317
0.0060046390398787
0.0061564277090937
0.0062972954057523
0.0064756077567716
0.0066663912751741
0.0068571044129162
0.0070266268359531
0.0071555850879901
0.0072552568384969
0.0072721943271206
0.0070810919223927
0.0068144729694981
0.0064990265933367
0.0061601846564798
0.0058224127484579
0.0055096195378315
0.0051963356357085
0.0049908323360586
0.0048791774902694
0.004871028484311
0.0049282776075934
0.0050769868607976
0.0052658653604072
0.0055025880370911
0.0057427537412864
0.0059730884935529
0.0061673876258177
0.0063469290935472
0.0064273048128856
0.0064231711707312
0.0043238201100269
0.33188060152302
15.942039373698
24.194954302126
27.775738503781
28.382967562419
26.790323100948
23.786612526438
20.377583833827
16.921324851003
13.667975631169
10.734022252275
8.2025780625606
6.1045574272366
4.43482552856
3.1587124763839
2.2188282792799
1.5455644419774
1.0737653222767
0.7477022867446
0.52389507852061
0.37038715125738
0.26475354106658
0.19151286628946
0.14034579304954
0.10412657805415
0.078135293903046
0.059376698082107
0.045639678861634
0.035463881059746
0.027817767392013
0.022039890058556
0.017621002891338
0.014207411367916
0.011541421272061
0.0094478749457454
0.0077878988113
0.0064608411122049
0.0053919975062948
0.0045264331668913
0.00382053688462
0.0032406722279723
0.0027619838829911
0.0023646882862984
0.0020332562922956
0.0017552032080914
0.0015208617854863
0.0013225737963253
0.0011540528017551
0.0010102420839841
0.00088699643780421
0.00078104867657558
0.00068965288584344
0.00061055879667626
0.00054186193747818
0.00048203229522226
0.00042977314805115
0.00038401973779834
0.00034385512060459
0.00030849885257561
0.00027727623547485
0.00024949468549135
0.00027379306514097
0.0033583017786603
0.0052526140836433
0.0054695615100158
0.0053699468463437
0.0050669130048377
0.0048536224367748
0.0045997904552044
0.0043328141338252
0.004119204274643
0.0040349919133766
0.0041170448417363
0.0042725610746315
0.0043922780135299
0.0045773554089061
0.0048797097882822
0.0052491326341921
0.0056273554094013
0.0059826467769297
0.0063014972288382
0.0065874988525505
0.0068493611118186
0.0070938730444583
0.0073749673655406
0.0076162136652438
0.0078387476782269
0.0080298015948599
0.0081853966159677
0.0082916162454709
0.0083514015596733
0.0083755464477853
0.0083519966401209
0.0082842471609252
0.0081951108982041
0.0080673384340115
0.0078988214020717
0.007702433495087
0.0075030187018794
0.0072919637924058
0.0070728651768257
0.006853752005648
0.0066391638692695
0.0064296132615214
0.0062342955594867
0.0061086814094913
0.0060078895728122
0.0059613483309788
0.0058901509352114
0.0060345879223536
0.0061717598588227
0.0063153482854701
0.0064768649838607
0.006679421316595
0.0068694376311957
0.0070297568815896
0.007146113298381
0.0072263029800967
0.0072069363940535
0.0070169091608743
0.0067539800615877
0.0064633379580754
0.0061497736595615
0.0058387056725531
0.0055560726713864
0.0052760434678929
0.0051115198087093
0.0050190773956045
0.0050292304351451
0.0050469425559283
0.0051916659997007
0.0053273471937512
0.0055172496188653
0.005702625783186
0.0058953103827122
0.0060706085774815
0.0062362723921523
0.0063122208432356
0.0062818722336493
0.013287193226119
0.065368393543795
0.48377447404781
1.5525332087525
2.9045597003974
4.2126120522537
5.2280905057009
5.803114150814
5.9579671102796
5.6537334537335
5.1310650795326
4.4702168814569
3.7447787725331
3.0318405858758
2.3784100168746
1.8159002354904
1.3577580017147
1.0001533995158
0.72973019826155
0.53035565047411
0.38569286716889
0.28160907792859
0.20695334684303
0.15333673488115
0.11463972742501
0.086551180137799
0.066025774720762
0.05087425923669
0.039547234645897
0.03103579561119
0.024584032317832
0.01964328738288
0.015818601450444
0.012833529855372
0.010490897652836
0.0086346145287672
0.0071524042738478
0.0059588980851046
0.0049940057617976
0.0042079449218912
0.0035633849233672
0.0030316462278246
0.0025912385797113
0.0022243254395049
0.0019171599560126
0.001658619620631
0.0014401198744588
0.0012547812381646
0.0010968515935715
0.00096173765698215
0.00084568908812177
0.00074574933456206
0.00065937261670013
0.0005844792270433
0.00051932588342629
0.00046249198558856
0.00041280037164393
0.00036921360126052
0.00033089902989719
0.00029715096820443
0.00026734239477244
0.00024057881570233
0.00035810972735834
0.00394994285455
0.0051699136864252
0.0053007202634912
0.0051608316046827
0.0048591516349439
0.0046223253977664
0.0043437815924128
0.0040767117654628
0.0038863035919652
0.0038514302375445
0.0039530956678551
0.0040849955189117
0.0042521096444978
0.0045325861962078
0.0049075857403114
0.0053147565265981
0.0057087059163852
0.0060631888634273
0.0063688763916501
0.0066404337731432
0.0068839588973164
0.0071154003924838
0.0073431584836645
0.007588223872637
0.0078057709207231
0.0079847091998979
0.0081318945064148
0.0082298835448658
0.0082846022484677
0.0083099602359469
0.0082754304334882
0.0082182400894451
0.0081442750976737
0.0080041324961231
0.0078505154212505
0.0076673961175433
0.0074785913897637
0.0072808216110487
0.0070737612983462
0.0068625921033605
0.0066561780289032
0.0064657971792097
0.0062828874646548
0.0061832980533985
0.0061069189004201
0.0060509372030921
0.0059802452736628
0.0060834048576512
0.0061809024632256
0.0063393528737521
0.0064979252797945
0.0066796108803997
0.0068578499694754
0.0069931319554684
0.0070830452578576
0.0071527055106198
0.0070825872897378
0.0069182596835637
0.0066618279418762
0.0064104677987364
0.0061304608649584
0.0058529242317298
0.0056175884427287
0.0053855287511502
0.0052632693806562
0.0051882346768939
0.0051902818012626
0.0051652346318776
0.0052521919306658
0.0053293186702308
0.0054635833483927
0.0055909588083563
0.0057126212229353
0.005784199641504
0.0058593281521109
0.0057371492850482
0.0056330084097274
0.018710435925827
0.041633326720391
0.092299768869837
0.24435870546311
0.5247534092329
0.88456603723292
1.2642582380804
1.6105608380952
1.871886451637
2.0296447813202
2.060392722349
1.970965692961
1.8047107964146
1.5845363223751
1.3421866840218
1.0981145603937
0.87426532118397
0.68114350753569
0.522402951641
0.39651036779371
0.2993007281227
0.22560596886686
0.17037560088256
0.12920146431307
0.098545733648702
0.075673456575983
0.058555341746508
0.045670206260803
0.035906008517281
0.028460713463152
0.022725954867763
0.018278636666709
0.014812807862717
0.012087319511342
0.009930411161418
0.0082085603786139
0.0068237234520483
0.00570616563739
0.004797121799162
0.0040538388365072
0.0034409425606765
0.0029344542931093
0.0025133270345556
0.002161550661453
0.0018660542888669
0.0016167737182728
0.0014058510148555
0.001226488368083
0.0010734148184215
0.00094215537575548
0.00082929619186256
0.00073197573341366
0.00064775044391074
0.00057462391367968
0.00051092446855538
0.00045532748565735
0.00040665756081015
0.00036393882627606
0.00032636749978271
0.00029323459049363
0.00026392702691164
0.00023758152288295
0.00030094245530149
0.0035579162291259
0.004950523803589
0.0051013523246677
0.0049771287609477
0.0046679000495442
0.0043804146019282
0.0040869146157014
0.0038121364612829
0.0036191210224148
0.0035795658935365
0.0036626700815299
0.0037999069643602
0.0040265678446945
0.0043754877204241
0.0048024819322037
0.0052463966581147
0.0056673074203557
0.0060373382323236
0.006342905073323
0.0066057942088316
0.0068338162188484
0.0070535646645449
0.0072910456997288
0.0075376720709959
0.0077413993960533
0.0079020219539387
0.0080395649098355
0.0081301727917249
0.0081808395588325
0.008204251941172
0.0081565293782369
0.0081272490303705
0.0080400945822383
0.0078984281276173
0.0077587464949813
0.0075909839368218
0.007418626553493
0.0072353518425929
0.0070432038846788
0.0068473510425857
0.0066604470693941
0.0064888840054524
0.0063244122657924
0.0062497827650576
0.0062000203430363
0.0061380018397195
0.0060745103397934
0.0061242242542385
0.0061721853111512
0.0063143256764713
0.0064477446269309
0.006602663030268
0.0067381965573228
0.0068476094988532
0.0069052487428278
0.0068513204330722
0.0067085842175745
0.0065540873333858
0.0063026279833562
0.0060722429018703
0.0058237026636698
0.0055771040909089
0.0053950613736178
0.0052041008235786
0.0051520494628305
0.0050376735860898
0.0050093501848594
0.0048917578313108
0.0048420358708698
0.0047709488836729
0.0047187710350212
0.0046161449936335
0.0045167931833692
0.004360158764134
0.0042139370989411
0.0039542723420758
0.0037199871521894
0.015017852555861
0.026560287694393
0.046029884734204
0.074577161252977
0.15012813171009
0.26478147886865
0.4044940620132
0.55438481395342
0.69498842391303
0.81113242148419
0.8884310749485
0.91877572552692
0.89566030413212
0.83984485024245
0.75634246589114
0.65764389282378
0.55352519243916
0.45418215985438
0.36516443050287
0.28912203824978
0.22652182088699
0.17641439423392
0.13706282617359
0.10652099323206
0.082991176998389
0.064918086949798
0.051035160453089
0.040356077633045
0.032111661376135
0.025714363785106
0.020724459999971
0.016810785346867
0.013722680873994
0.011268748304676
0.0093064067615307
0.0077305915829591
0.0064568995789465
0.0054215995923494
0.0045745071368932
0.0038765792363107
0.0033008091185744
0.0028226035906516
0.0024237262164848
0.0020887385606534
0.0018066297025647
0.0015683227607146
0.0013659482303933
0.0011935579721037
0.0010459422209719
0.00091919609211566
0.00081009588618697
0.00071580837788476
0.00063410125962615
0.00056301177092211
0.00050104001234452
0.00044688736262999
0.00039942725699083
0.00035773696272801
0.0003210203940171
0.00028858729398784
0.00025988392368537
0.00023426487782019
0.00025832025446493
0.003056674914355
0.0046989968071467
0.0048727941971565
0.0047519558306579
0.0044220337132297
0.004082939433196
0.0037727067055049
0.0034894344348235
0.0032911214656162
0.0032392611700536
0.003308923515893
0.0034724401482482
0.0037631291937885
0.0041760600221055
0.0046543315955649
0.0051364409522485
0.0055867302818735
0.0059783728514611
0.006289403669415
0.0065433258058651
0.0067559394818413
0.006969621869704
0.0072252807795827
0.0074698450884769
0.0076476692890237
0.0077901246948247
0.0079189124528853
0.0080006419087484
0.0080499271140697
0.0080591864912862
0.0080113624746803
0.008005536365232
0.0078709839644699
0.0077553094091933
0.0076100841785913
0.0074615974210896
0.0073058555901375
0.0071374013895644
0.006963514639116
0.0067926219301464
0.0066333264959848
0.0064873251493256
0.0062910694647078
0.0062249178653726
0.0061713618620436
0.0061095577626209
0.0060684753348155
0.0060713966736001
0.0060726320351674
0.0061288205011323
0.0061708742106337
0.0062363189071344
0.0062003276434393
0.006189963454637
0.0059998753593429
0.0059011435150071
0.0056686644100492
0.0054845480828345
0.0052189952591175
0.0049687363098792
0.0047209535370927
0.0044940299631786
0.0043139042400813
0.0041215017203864
0.0039939086752272
0.0037972037073162
0.0036574771829629
0.0034347365815448