/*--------------------------------*- C++ -*----------------------------------*\
| =========                 |                                                 |
| \\      /  F ield         | OpenFOAM: The Open Source CFD Toolbox           |
|  \\    /   O peration     | Version:  2312                                  |
|   \\  /    A nd           | Website:  www.openfoam.com                      |
|    \\/     M anipulation  |                                                 |
\*---------------------------------------------------------------------------*/
FoamFile
{
    version     2.0;
    format      ascii;
    arch        "LSB;label=32;scalar=64";
    class       volScalarField;
    location    "5e-05";
    object      T;
}
// * * * * * * * * * * * * * * * * * * * * * * * * * * * * * * * * * * * * * //

dimensions      [0 0 0 1 0 0 0];

internalField   nonuniform List<scalar> 
109340
(
372.99995074267
372.99899531459
372.99713643164
372.99469950002
372.99207242488
372.98944811146
372.98689815056
372.98445403264
372.98207790142
372.97969703959
372.97731456489
372.97493153388
372.97254385196
372.97014320513
372.96771870341
372.96525646494
372.96273862461
372.96014317913
372.95744210783
372.95460017413
372.95157365828
372.94830929588
372.94474117009
372.94078641163
372.93633958262
372.93126468472
372.9253840691
372.91846184907
372.91017805058
372.90008674866
372.88754458542
372.87158293156
372.8506679135
372.82223317939
372.78168385346
372.72035305372
372.99982910355
372.99847913153
372.99629052275
372.99379317661
372.99122842255
372.98869164473
372.9862013051
372.98374833531
372.98132660482
372.97892271173
372.97652776766
372.97413604278
372.97174031442
372.96933116599
372.96689663409
372.96442195596
372.96188880351
372.95927377973
372.95654709233
372.95367167029
372.95060173043
372.94728133587
372.94364107991
372.93959332384
372.93502606028
372.92979429131
372.92370785824
372.91651298339
372.90786340903
372.89727279783
372.8840322261
372.86705853543
372.84460008367
372.8136386037
372.76848519211
372.69780953574
372.99987429104
372.99823323731
372.99594038012
372.99348321159
372.99096858962
372.98844941258
372.98593621084
372.98344357709
372.9809829255
372.97854982675
372.97613462344
372.97372920039
372.9713249305
372.96891181041
372.96647791206
372.96400879597
372.96148606802
372.95888666497
372.95618103948
372.95333249245
372.95029530678
372.94701413284
372.94342020353
372.93942589087
372.93491908828
372.92975463234
372.9237422207
372.9166278827
372.90806510356
372.89756711886
372.88442407244
372.86754789096
372.84515908734
372.81412395201
372.76828085721
372.6941095376
372.99984097785
372.9978875673
372.99545646819
372.99290523967
372.99032658883
372.98774509801
372.9851760039
372.98263180017
372.98012210715
372.97764954427
372.97520922178
372.97279396245
372.97039479591
372.96800216493
372.96560617783
372.96319271813
372.96074480891
372.9582401501
372.95564931793
372.952937954
372.95006082063
372.94696270026
372.94357378719
372.93980518786
372.93554245851
372.93063777383
372.92489751369
372.91806367181
372.90978456863
372.899566099
372.8866870238
372.87003977477
372.84778347154
372.81659248978
372.76953405718
372.68895184792
372.99962935708
372.99691787347
372.99386372464
372.99089411692
372.98801331986
372.98521876235
372.98252173463
372.97994899567
372.97751719854
372.97521974007
372.97306054423
372.97103601879
372.96914010115
372.96736392419
372.9656981247
372.96413020178
372.96264480007
372.96122158499
372.95983018037
372.95843778024
372.95696323756
372.95532585232
372.95343640864
372.95118885859
372.94845148749
372.94505662509
372.94078569872
372.9353484542
372.92835121357
372.91924027266
372.90720526264
372.89101416607
372.86858652355
372.83610188308
372.78507210039
372.68932338383
373.00353704221
373.01828157088
373.03414251221
373.04989884793
373.06511676364
373.07955928399
373.09309365504
373.10566359202
373.11725355429
373.12787119907
373.13753825927
373.1462792457
373.15411949002
373.1610821808
373.16718425385
373.17243794086
373.17684836427
373.18041828203
373.18320028981
373.18531136907
373.18673533095
373.1874158394
373.18726540357
373.18616806985
373.18396917897
373.18048254749
373.17539361531
373.16828752043
373.15859960065
373.14553133909
373.12790684391
373.10394189335
373.07056651924
373.02204769059
372.94509117602
372.79044916043
372.62288910567
372.46922413983
372.23414549519
371.89804176538
371.45132568697
370.88343064315
370.17983443929
369.32822352373
368.3184853757
367.1449202816
365.80646045009
364.31397453024
362.71453222022
361.0310604982
359.30374818394
357.56576953743
355.84563798384
354.16600088427
352.54165868504
350.98242795608
349.49409557315
348.07765747771
346.7322585602
345.45620106311
344.24576686542
343.09719439227
342.00664173212
340.97005835241
339.98573433811
339.04758128355
338.15013330458
337.29960625394
336.47993570096
335.70104860332
334.95131397255
334.23280781197
333.544005398
332.87819314441
332.24242582339
331.62392351248
331.03379198253
330.45769234616
329.90725486949
329.36904498457
328.85360790375
328.34956960485
327.86482621971
327.39181451767
326.93425805147
326.48905232565
326.05602943232
325.63493935599
325.22499932931
324.82609619073
324.43741406051
324.0585676983
323.68909238606
323.32844339827
322.97634811317
322.63237091748
322.29456058973
322.52824532032
322.62136634718
321.0534383294
318.91091702653
315.97710654413
312.10997740332
311.39208178804
311.4036997855
311.40747559392
311.41119550175
311.42535185243
311.4691763739
311.5324455686
311.57840108285
311.61519565587
311.66600429081
311.73015138597
311.79646380673
311.85817985861
311.91380929635
311.96354342422
312.00799614925
312.04805563709
312.097233387
312.13190574051
312.16021972523
312.18247758037
312.19792232859
312.20640672861
312.20786183104
312.20533013573
312.19772042218
312.18374410501
312.16297098315
312.1361977756
312.10464847794
312.06812786474
312.02763583303
311.98403651605
311.93714982431
311.88731118838
311.83556509665
311.78271051897
311.71846629552
311.67018509674
311.61981415544
311.58143548279
311.55463909065
311.53898200866
311.52403952799
311.50863360861
311.49358265168
311.47991828499
311.46635046365
311.45245909079
311.43664418908
311.41772495681
311.39019731965
311.3493318416
311.29552071201
311.23135905169
311.15967829081
311.08344904312
311.00386413852
310.92377254493
310.85045595552
310.79943059298
310.75475560518
310.73070634231
310.72148355809
310.71914513185
310.72290813585
310.72272406505
310.71156555289
310.69702289785
310.67613576605
310.67244576617
311.42400715201
385.34075990706
372.57996253737
372.38836516772
372.09663402082
371.69227489284
371.17025090049
370.52124644642
369.73593483619
368.8084719366
367.73436226737
366.51294011653
365.14829359284
363.65524956129
362.06326159184
360.40406518488
358.70575720432
356.99883293919
355.31016016873
353.66071447882
352.06566637464
350.5343163538
349.0715744757
347.67923230119
346.35651467906
345.10113967275
343.91035799844
342.78017203214
341.70669213666
340.68621285238
339.71511287717
338.79016292954
337.907686973
337.06489305432
336.2591138824
335.48746110508
334.74807307321
334.03808295479
333.35633074024
332.70028226879
332.06886997843
331.46015030228
330.87297888409
330.30594334732
329.7579744672
329.22781076692
328.71465335911
328.21731198989
327.73523200055
327.26725238795
326.81300237419
326.37145043752
325.94227902016
325.52464355948
325.11807880611
324.72208456949
324.33628542915
323.96004514278
323.59305881655
323.23487909751
322.88510958641
322.54337901088
322.20274144408
322.93819708031
322.29443801658
320.58733589008
318.29603732817
315.095444318
311.67785867861
311.42668498682
311.44882366577
311.46018769708
311.47253410233
311.49929230454
311.55340894173
311.61752943294
311.65984911878
311.70020365496
311.75626170721
311.8219200002
311.88672720409
311.9460840845
311.99952486212
312.04746433716
312.09056452718
312.12986190321
312.14377333686
312.17692732922
312.20512869615
312.22714294127
312.24222371321
312.24986570654
312.25090820972
312.24754139891
312.23859978116
312.22300650969
312.20090150843
312.17288533012
312.14024997335
312.10237254405
312.06052891659
312.0155576737
311.96731531359
311.9162144374
311.86331796115
311.80945405295
311.74367450345
311.69448708442
311.64448687946
311.60415999453
311.57116174615
311.55566734726
311.5408970531
311.52585023242
311.51143875941
311.49727136421
311.48306374066
311.46838140822
311.45167978979
311.43179765063
311.4034447916
311.3619818729
311.30771283406
311.24299315282
311.17045173202
311.09321474094
311.01273304879
310.93177507538
310.85673223195
310.80574896659
310.75916401561
310.73047104238
310.72104947942
310.71725565733
310.71885454613
310.71638198368
310.70540414204
310.6906506374
310.66982169006
310.66223331587
311.40080280991
385.48959927733
372.56065287713
372.32767362091
371.9716321187
371.48787208144
370.87909640973
370.14540443831
369.28928480182
368.3097164898
367.20486627578
365.97443333442
364.62612494482
363.17241326107
361.62829589208
360.01836526336
358.37038819727
356.71072332091
355.06463589293
353.45282788193
351.88990761056
350.38523122889
348.94429384537
347.56998481237
346.26203668808
345.01867390347
343.83758213859
342.71551466459
341.64915949659
340.63479227534
339.66890384245
338.74821371456
337.86974613989
337.03027757943
336.22743746979
335.4584437718
334.72109248552
334.01342564962
333.33321912914
332.67909084842
332.04894254712
331.44171629085
330.85562005145
330.28982657824
329.74270196781
329.21362843319
328.70114446973
328.20478883186
327.72323174979
327.25612698474
326.80232459304
326.36152379823
325.93277578982
325.51574546686
325.10966130413
324.71416255421
324.32871668052
323.95283117956
323.58615647507
323.22830633253
322.87881751229
322.53740809802
322.19801633021
322.9162799085
322.30345385173
320.60872458211
318.33617176899
315.17637520508
311.73391910762
311.48088531939
311.52141762791
311.54776386972
311.5719033949
311.60780414628
311.66724787543
311.73341686374
311.77662082354
311.81805770383
311.87417692852
311.93860196713
312.00158615107
312.05925861053
312.11141445004
312.15847059446
312.2010840811
312.24022318284
312.24406747064
312.27659265835
312.30393607864
312.32498894452
312.33887390458
312.34432903135
312.34386635849
312.33824370176
312.32653118477
312.30756193012
312.28259108938
312.25175082151
312.21604395032
312.17497106153
312.13042759921
312.08237915334
312.03124983148
311.97781255507
311.92280031868
311.86685866729
311.79785607763
311.74620394496
311.69754977573
311.65328993006
311.60559094104
311.60053899808
311.58464072748
311.56731084718
311.55135645703
311.53513260952
311.51925735184
311.50246954243
311.48352893766
311.46131390165
311.43484566055
311.38996989233
311.33200875629
311.26381604248
311.18866515015
311.10931049205
311.02860414698
310.94483265526
310.87062109088
310.81719854813
310.75854762414
310.73304878223
310.72271361482
310.71642578979
310.7162729125
310.70707110623
310.69308483509
310.67307854877
310.6475284144
310.6112102084
311.26203741312
384.98905619866
372.52174657238
372.19382133957
371.69921738378
371.0632664443
370.31477362586
369.46719760756
368.53052450135
367.50610590988
366.39110591595
365.18146520856
363.88586073396
362.50035639258
361.0326894247
359.49988224466
357.92409625824
356.33014538657
354.74119623958
353.17807536468
351.6561579192
350.18620894202
348.77457661298
347.42369960683
346.13527292182
344.90847524399
343.74094901232
342.63000312559
341.57288975041
340.56653016758
339.60754126693
338.69278207492
337.81935706564
336.9845219197
336.1854619281
335.4200100194
334.68567695338
333.98070960992
333.30303929258
332.65096488055
332.02291279203
331.41732999978
330.83300317866
330.26850005116
329.72284995597
329.19485202933
328.6836082948
328.18813145773
327.70760530913
327.24128014073
326.78833691989
326.34822902242
325.92018996596
325.50377090834
325.09832959491
324.70339881217
324.31847153158
323.94306455545
323.57682527851
323.21939688036
322.87027095349
322.52925671112
322.19104319311
322.88826738563
322.31638537953
320.63870492196
318.39237447796
315.29017480162
311.82225719916
311.56426316806
311.63436157553
311.68394487948
311.72537210636
311.77340147619
311.83876574966
311.90513522057
311.94661546245
311.98625212793
312.03916163622
312.09911494742
312.15751445393
312.21133499373
312.26054140375
312.30550958096
312.34678024123
312.38501973407
312.38065234953
312.41305914615
312.43947757896
312.45909528097
312.47097594363
312.47428229467
312.47156272368
312.46283459586
312.44739947203
312.42455257784
312.39567484061
312.36151277623
312.32182350977
312.27676935907
312.22831430168
312.17622545682
312.12122282553
312.06423287324
312.00580730903
311.94694867136
311.87372568926
311.82052079268
311.7675099996
311.72245970373
311.66684296387
311.65981385998
311.64204473401
311.62183904049
311.60517072697
311.5870169346
311.56888761935
311.54913387817
311.52691176838
311.50054987216
311.47090326059
311.42136392685
311.35978615409
311.28873306338
311.21087876967
311.1292602541
311.04649864748
310.95955893645
310.88519563232
310.82574919381
310.76052269336
310.73566361002
310.71181388996
310.69803613969
310.68582308639
310.66834755366
310.64385039283
310.61133206374
310.57061432357
310.50794982565
311.12592691072
384.8893152825
372.41730555933
371.81385101157
371.01569980127
370.14137118225
369.24620227369
368.32220507485
367.36612047685
366.36206386131
365.29799532855
364.16441825933
362.95285987471
361.66075908034
360.29026474308
358.85332790992
357.36825977313
355.85620189701
354.33879505204
352.83657543677
351.36585856977
349.93832488976
348.56196006394
347.24133152907
345.97742989675
344.77072461743
343.62031909554
342.52399594729
341.47888625567
340.4824645292
339.53217507629
338.62488747318
337.75779231669
336.92846814317
336.13430073818
335.37298505076
334.64249417015
333.94078551798
333.26611124151
332.61665668214
331.9910192608
331.38760115583
330.80520667304
330.2424908752
329.69847401005
329.17193383951
328.6620549398
328.16777843116
327.68844625458
327.22310265851
326.77118413874
326.33190029641
325.90475135104
325.48906009065
325.08434620936
324.69006198072
324.30577405874
323.93094651966
323.56528183505
323.20834791201
322.85967782887
322.5191420406
322.18207889073
322.85170965927
322.33325953082
320.67651005182
318.4625836254
315.43177712604
311.94779089835
311.67864990124
311.78883258592
311.86805324423
311.93000093748
311.99162838959
312.0625389664
312.12661710981
312.16306818331
312.19620571527
312.24025928506
312.29002693242
312.33885004152
312.38478339675
312.42794561742
312.46859919797
312.50692094339
312.54296193244
312.53537924747
312.56611715337
312.59094075492
312.60823928766
312.61688184401
312.61784246213
312.61148499148
312.59866818837
312.57890834963
312.55176649112
312.51887131054
312.48085722424
312.43665716204
312.38702383914
312.33434756149
312.27807525849
312.21910670304
312.15838543421
312.09642795598
312.03409728951
311.95738578625
311.9004899053
311.84472536732
311.79715431931
311.73572113714
311.72438128
311.70421759174
311.68096600658
311.66217086859
311.64133757248
311.61969477293
311.59579077041
311.56887932122
311.53669115361
311.50120655014
311.44450228796
311.37668563703
311.30098000653
311.21902258956
311.13401580482
311.04775554283
310.95652487385
310.87997128524
310.81165359646
310.74185835062
310.70541624226
310.66307498367
310.63248540688
310.5986393811
310.55683965051
310.50650453607
310.44607156066
310.37419028703
310.26069566625
310.83198337962
384.47326461789
371.813453456
370.27063900505
369.21720069508
368.33974848976
367.50682963818
366.67470633621
365.8198124665
364.93173668816
363.98482044543
362.96538714567
361.86680421037
360.68805298222
359.43018338452
358.10187133405
356.71811779346
355.29847924291
353.86305433951
352.43124757339
351.02032560653
349.64308543116
348.30847159975
347.02231020229
345.78811236183
344.60597127196
343.4757465549
342.39652090238
341.36622871816
340.38218569309
339.4422629927
338.54400394702
337.68482830798
336.86209401178
336.07375824803
335.31762512562
334.59167852354
333.89389372936
333.22273448733
332.57650579374
331.95360666042
331.35275289809
330.77261246585
330.21205027031
329.66985440352
329.14507418491
328.63673665471
328.1439626623
327.66590523327
327.20179133932
326.75098260865
326.31276424756
325.88656858452
325.47175646787
325.06786187867
324.67436302939
324.29079026161
323.91662640319
323.55162703443
323.19526630672
322.84716745542
322.50721615382
322.17112558787
322.8026044589
322.35344745181
320.72131384378
318.54445340456
315.59451252737
312.11428191506
311.8198139256
311.97189826051
312.07686937748
312.15504204878
312.22829473734
312.30584617697
312.37044797322
312.40567173117
312.43396608636
312.4670319758
312.50166097182
312.53521518219
312.5679575948
312.60057920736
312.63358380791
312.66659722189
312.69867247733
312.68920451229
312.71725788894
312.7388672035
312.75240653376
312.75745619618
312.75455165778
312.74352931084
312.72606339398
312.70161370254
312.6697078262
312.6326586774
312.59012744092
312.54092537199
312.48653021339
312.42939615468
312.36902033124
312.30629729849
312.24211183747
312.17694012851
312.11045444919
312.0306381244
311.96904929749
311.91156184057
311.86116428879
311.79524093717
311.77880289808
311.75467811936
311.7269606599
311.70315455128
311.67824702704
311.65089395521
311.62081587324
311.58616386341
311.5451796143
311.50042629502
311.433364344
311.3563818597
311.27339518976
311.18442966705
311.09264700769
310.99917284783
310.90130097689
310.81745844831
310.73364882301
310.66034754226
310.58531029955
310.52292956644
310.45202708348
310.37705143133
310.28895361827
310.18818809047
310.07169804753
309.93803883019
309.73267966548
310.14898600911
377.54854114803
363.03270265698
366.61030403471
366.35058712821
365.93248461689
365.44577264695
364.87740403136
364.22877196603
363.50833503209
362.72045339943
361.86062346732
360.9175094503
359.88716647701
358.77202758
357.57815731565
356.31693527133
355.00520510534
353.66243596126
352.30777094448
350.95891395394
349.63070584268
348.33409065189
347.07682929186
345.86395137556
344.69802376957
343.57994287964
342.50853105536
341.48370290035
340.50342324252
339.56582930916
338.66817884565
337.80885647121
336.98554461701
336.19607017715
335.43819534333
334.71034899921
334.01063317669
333.33727770173
332.68868173849
332.063498937
331.46034028248
330.87783371927
330.31491389255
329.77046472189
329.2434981029
328.73296983019
328.23804983545
327.75792227583
327.29184884657
326.83908620846
326.39897403653
325.97092588882
325.5543708211
325.14877470812
324.75359045999
324.36839064535
323.99276483284
323.62618792705
323.26836782611
322.91904523886
322.57752097535
322.2429894504
322.21455975097
322.67601107615
321.22199974845
319.22439675581
316.58113397088
312.98226601734
311.9301230284
312.11148461553
312.24132004737
312.33376560015
312.41524195594
312.50107056289
312.57771973107
312.62561983717
312.66031736591
312.69237426217
312.71801243961
312.73605932708
312.751430755
312.76865764578
312.78971889957
312.81431925042
312.84036837438
312.83571354984
312.85964174147
312.87685943526
312.88566023526
312.88652317296
312.8780699273
312.86181793825
312.83914765659
312.80900760841
312.77151382928
312.72923327276
312.68075775991
312.62590795949
312.5663557226
312.5044718375
312.43991559605
312.37338894161
312.30571795716
312.23737179045
312.1661633565
312.10067997662
312.03578337107
311.9742951453
311.91719332034
311.84630974505
311.81674576794
311.78097124777
311.74238775002
311.70284523334
311.66519478403
311.62163531959
311.5733384644
311.51787056651
311.45712796888
311.38972749413
311.30319031916
311.20589230954
311.10471206905
310.99590844966
310.88369769671
310.76770792889
310.64871036124
310.53426539988
310.41807158713
310.29787072734
310.15225367012
310.00832461961
309.83080430453
309.63223913003
309.40495048079
309.1473018913
308.85948112275
308.5404464334
308.19193772526
306.97537943366
225.14453397588
353.86988484719
359.07007793477
359.89675301715
360.29035757388
360.45322334855
360.43327391038
360.23123680071
359.87583535068
359.39185871101
358.79634720145
358.09702248417
357.30141717917
356.41390131221
355.43824828623
354.38421771864
353.26652985475
352.10263007824
350.91082359865
349.70806152261
348.50928069326
347.32684445582
346.16982235631
345.04449770011
343.95490079123
342.90328355605
341.89072331256
340.91737198752
339.98192591526
339.08375072011
338.22162937005
337.39375092709
336.59837290668
335.83364853751
335.0984128261
334.39083448645
333.70941735495
333.05252575726
332.41908750486
331.80767782078
331.21703827904
330.64600639481
330.0936791925
329.55900991135
329.04104230501
328.53886211421
328.05168599219
327.57881676604
327.11948677083
326.67303568775
326.23881951734
325.81632823684
325.40499149899
325.00430159614
324.61376346516
324.23287965326
323.86138902764
323.49885385406
323.14466540286
322.79879210894
322.46091159111
322.12786195656
322.50987900464
322.4274426455
320.88859346309
318.83568631626
316.13226509414
312.80781325533
312.23052956659
312.40910676256
312.5410020365
312.64461391096
312.74570799983
312.84805342864
312.93337460798
312.99866997996
313.05641041222
313.1036708289
313.13170479829
313.13752746195
313.12635531464
313.10999663675
313.10007293643
313.10101681718
313.11044403729
313.09529805819
313.10948268314
313.11623474053
313.11400820437
313.10243416816
313.0813767779
313.05271466647
313.01666091052
312.97074203902
312.91860636712
312.86211392601
312.79861050271
312.73301794105
312.66273766795
312.5897030859
312.51379638126
312.43563722416
312.3559770655
312.27573367445
312.1844999558
312.06111005161
311.98235071359
311.90278692923
311.82180047047
311.73152293881
311.66331090104
311.58757892475
311.50992845823
311.42301329286
311.32810088438
311.22203745795
311.10467745578
310.97463631165
310.84036824651
310.69064666796
310.52873483803
310.34875363479
310.16822885419
309.97602261327
309.778609307
309.57171031509
309.35503211844
309.12147626181
308.86045925797
308.55725724348
308.18011844098
307.74816089824
307.22029527662
306.6080406576
305.90010458626
305.10055705123
304.22718094667
303.29958836615
302.31956717314
299.73264485973
173.46195227668
349.47859195753
354.0527751893
355.0857651339
355.73459766782
356.15997353041
356.42172333846
356.52678090305
356.4798028381
356.28238186677
355.95142677737
355.50146506308
354.94138697685
354.27240711931
353.50846521272
352.65952800293
351.73637815563
350.75240285606
349.72433770368
348.6681027416
347.5982405246
346.52754636834
345.46730567386
344.42563541209
343.40813907382
342.41865606188
341.45973863167
340.53267797551
339.63769382593
338.7747370927
337.94296730507
337.14120456679
336.36887048039
335.62474366065
334.90753788431
334.21592285076
333.54843447362
332.90429407114
332.28215662227
331.68093937889
331.09927345979
330.53644885924
329.9914726066
329.46344049768
328.95143282512
328.45464765425
327.97247711371
327.50413871109
327.0489873111
326.60632255004
326.17562772056
325.75639175418
325.34806167304
324.95015634765
324.56214561751
324.18367821884
323.81450004464
323.45393597669
323.10171778118
322.75782517923
322.42149696706
322.09088329097
322.26575531649
322.48230292044
321.01937275071
319.05059786022
316.48425043336
313.32221832309
312.42304070624
312.56594335579
312.71778091476
312.84333264504
312.96568460076
313.08592132726
313.18960167258
313.27929495214
313.36049217529
313.42560253156
313.46598582067
313.4785035043
313.46373314382
313.42902387174
313.38785825402
313.35420323939
313.33610023804
313.30909435814
313.3101071196
313.30377960176
313.28795068859
313.26234583407
313.22637857868
313.18021327769
313.12462335785
313.05963334193
312.99191022064
312.91451971931
312.82745366932
312.73512674978
312.63614726159
312.53386191338
312.42855346698
312.32133870786
312.21302254483
312.10461812714
311.97772675019
311.69343699739
311.56574201067
311.42919477898
311.28046094476
311.11792778055
310.94568492926
310.75180972839
310.54180864008
310.30192987542
310.02959090723
309.72490411572
309.38848997727
309.02587723731
308.66076714916
308.27368762624
307.8964170989
307.49150294426
307.0964166316
306.68401047559
306.26232351452
305.8141169965
305.33041705936
304.78574129914
304.13722282307
303.36223666992
302.42193803568
301.34012555071
300.09868264331
298.72617604846
297.20311224989
295.61511005038
293.91810131687
292.10271249052
290.12629566304
285.25565805748
153.01257802322
346.78498653573
350.43880030685
351.46212562978
352.15540504876
352.66883650167
353.04941528993
353.30205403287
353.42272206527
353.41599518158
353.2799669896
353.01821802316
352.64101481626
352.16584040657
351.58706100055
350.91420927672
350.16097746351
349.34037079899
348.46451201096
347.548128138
346.60513433549
345.6480741251
344.68757238336
343.7329420497
342.79155080682
341.8686441209
340.96760628351
340.09086614662
339.23994002765
338.41546605607
337.61755348994
336.84594211405
336.10021253245
335.37944604036
334.68263264615
334.00929864236
333.35836931612
332.7288840647
332.11992056579
331.53020983168
330.95932132973
330.40622141852
329.87005845944
329.34987426992
328.8449896278
328.35482595463
327.87860917194
327.41574792047
326.96551866493
326.52740822888
326.10097343558
325.68562538062
325.28089814462
324.88627918533
324.50134320544
324.12584005723
323.75931660052
323.40114653616
323.05135405283
322.70962836834
322.37513300987
322.04712781902
322.03133939224
322.53145182263
321.16030201398
319.27886049202
316.83942529528
313.84868361518
312.6065542489
312.66337878536
312.83702689007
312.99155666221
313.13987571814
313.28191620035
313.4084806374
313.52304983292
313.62400982505
313.70178913956
313.74924100741
313.76578310013
313.75266872224
313.71273548488
313.65608495468
313.59469596403
313.54521708126
313.4984599173
313.47872786908
313.45263706356
313.41825855662
313.37467439833
313.31785291615
313.24985793462
313.16941926701
313.07242189858
312.96443151805
312.83293884556
312.69057300564
312.5350612854
312.36923694616
312.19638994717
312.01462383891
311.82637310985
311.63335400973
311.43639427324
311.19546584137
310.45831015283
310.16813107665
309.84478451995
309.48740974818
309.08026450352
308.61985547045
308.09490670757
307.50889770817
306.859261224
306.15910017887
305.40479482977
304.6470835821
303.83233272471
303.05428846484
302.22075288493
301.41672138053
300.57286062104
299.72525376882
298.84500524263
297.93626132825
296.96649483914
295.90914463306
294.71570008761
293.33337353025
291.80085285857
290.01856846992
288.02758424361
285.79910662344
283.51104244646
281.00047969846
278.33731012925
275.59817299773
272.87833808238
270.3638848974
263.62191249598
162.00876658572
345.22783924217
347.56899873285
348.60381036508
349.26516235329
349.79639794803
350.21719089479
350.53526126405
350.75586444425
350.84977663582
350.84186054791
350.72073449401
350.4913832855
350.15244283863
349.72011809277
349.20431611307
348.59639031171
347.91633160298
347.17677965252
346.3886359396
345.56386884758
344.71499525862
343.85266488301
342.98551617001
342.12141515378
341.26656557109
340.42554697034
339.6016989291
338.79724914131
338.01379587679
337.25219378829
336.51281544112
335.79557790573
335.10024189217
334.42645441107
333.77363794554
333.14090365603
332.52754632118
331.93321733059
331.35700340827
330.79821808123
330.25608417059
329.72957507676
329.21844574389
328.7219405512
328.23934684469
327.77004809207
327.31335641019
326.86889050088
326.43618463219
326.01464389491
325.60383657807
325.20323341544
324.81247348368
324.43120415516
324.05911932607
323.69557984559
323.34036006248
322.99343644347
322.65403084124
322.32187266466
321.99683155513
321.82269750091
322.57452047025
321.30936532728
319.52532557601
317.22224985094
314.41136375705
312.83576528766
312.73305283174
312.91781020492
313.10930567636
313.29178826026
313.46417800939
313.6202569852
313.75976318428
313.87590366029
313.9593926588
314.0062942399
314.01856992509
314.00085248137
313.95527206996
313.88895208761
313.80979682442
313.73452340205
313.66938070816
313.62380839855
313.57033458776
313.51343867401
313.44692756728
313.36296859192
313.25555520318
313.12008605205
312.95202982876
312.75422664497
312.51632013943
312.24532692372
311.9365101539
311.59549043851
311.22203474444
310.8197766636
310.39518174213
309.95447547424
309.49864795355
308.93160915948
307.11711171931
306.42873720401
305.69249879116
304.90065569244
304.05311842452
303.12097190213
302.09987626872
301.02284030177
299.82932271121
298.52757683162
297.09597595244
295.61171721582
294.01134985594
292.44182446309
290.78659037174
289.30646759338
287.88880976791
286.51440856415
285.15149172676
283.76400149697
282.29831265437
280.7147592726
278.97025541589
277.0537324761
274.99049538737
272.77547936187
270.46747746113
268.08514850757
265.70669792892
263.39246119054
261.20238697569
259.15157772272
257.35878687991
256.47275645106
247.84309746017
155.42208490712
344.48168491432
345.16031470241
346.25187805657
346.86832651014
347.38066226946
347.80657599501
348.15119697867
348.41832128997
348.58124589364
348.64397358291
348.6224477503
348.49857615425
348.26481488881
347.94326415517
347.55339679375
347.07330791788
346.51432957961
345.89065375841
345.21575340736
344.49950646663
343.75108712541
342.98085187004
342.19810546689
341.4101703521
340.62339671276
339.84323382445
339.07342313072
338.31704235106
337.57629300384
336.85261835655
336.14702399223
335.4600105484
334.79174314908
334.14215025907
333.51098008873
332.89792358655
332.30258228935
331.72441744404
331.16260345329
330.61677203002
330.08657728144
329.57122006484
329.07026082198
328.58287515184
328.10853969469
327.64687336315
327.19736216624
326.75946142662
326.33279461317
325.91673911692
325.51091450321
325.11509074498
324.72877481554
324.35165002074
323.98333446248
323.6232025459
323.27144441997
322.92754866935
322.59085734065
322.26174936022
321.93980351472
321.67009645226
322.59242097099
321.46436236795
319.79559489509
317.65162416413
315.04310759271
313.17492292982
312.81462657769
312.97019362001
313.20131685672
313.42855056954
313.64316326189
313.83714473387