/*--------------------------------*- C++ -*----------------------------------*\
| =========                 |                                                 |
| \\      /  F ield         | OpenFOAM: The Open Source CFD Toolbox           |
|  \\    /   O peration     | Version:  2312                                  |
|   \\  /    A nd           | Website:  www.openfoam.com                      |
|    \\/     M anipulation  |                                                 |
\*---------------------------------------------------------------------------*/
FoamFile
{
    version     2.0;
    format      ascii;
    arch        "LSB;label=32;scalar=64";
    class       volScalarField;
    location    "5e-05";
    object      TpSat;
}
// * * * * * * * * * * * * * * * * * * * * * * * * * * * * * * * * * * * * * //

dimensions      [0 0 0 1 0 0 0];

internalField   nonuniform List<scalar> 
109340
(
372.99995000332
372.99899511672
372.99713622212
372.99469926497
372.99207217589
372.98944785121
372.98689787924
372.98445378387
372.98207768083
372.97969683349
372.97731437148
372.97493135166
372.97254367959
372.97014304118
372.96771854679
372.96525631469
372.96273847994
372.96014303926
372.95744197213
372.95460004206
372.95157352938
372.94830916974
372.94474104619
372.94078628962
372.93633946215
372.93126456543
372.92538395057
372.91846173079
372.91017793196
372.900086629
372.88754446388
372.87158280724
372.85066778532
372.82223304604
372.78168371383
372.72035290602
372.99982877862
372.99847896047
372.99629032264
372.99379296264
372.99122820114
372.9886914281
372.98620112304
372.98374817242
372.9813264546
372.97892257234
372.97652763763
372.97413592076
372.97174019892
372.96933105642
372.96689652974
372.96442185601
372.96188870731
372.95927368673
372.95654700204
372.9536715823
372.95060164437
372.94728125147
372.94364099672
372.93959324162
372.93502597876
372.92979421021
372.92370777724
372.91651290208
372.9078633269
372.89727271424
372.88403214028
372.86705844639
372.84459999024
372.8136385044
372.76848508519
372.69780941895
372.99987397121
372.9982330352
372.99594017943
372.9934830248
372.99096843077
372.988449276
372.98593608829
372.98344346552
372.98098282336
372.97854973234
372.9761345355
372.97372911788
372.97132485264
372.96891173644
372.96647784138
372.96400872811
372.96148600253
372.9588866015
372.95618097767
372.95333243202
372.95029524746
372.94701407441
372.94342014572
372.93942583342
372.93491903101
372.92975457505
372.92374216313
372.91662782455
372.90806504441
372.89756705817
372.88442400947
372.86754782471
372.84515901658
372.81412387484
372.7682807722
372.69410943902
372.99984066876
372.99788741498
372.99545637054
372.99290515662
372.9903265161
372.98774503308
372.98517594507
372.9826317468
372.98012205849
372.97764949977
372.97520918083
372.97279392444
372.97039476028
372.96800213119
372.96560614557
372.96319268699
372.96074477859
372.95824012035
372.95564928855
372.95293792483
372.95006079155
372.94696267117
372.94357375802
372.93980515841
372.93554242858
372.93063774332
372.92489748243
372.91806363957
372.90978453508
372.89956606368
372.88668698608
372.87003973352
372.84778342545
372.81659243633
372.76953399273
372.68895176555
372.99962917506
372.99691786455
372.99386371048
372.99089410394
372.9880133082
372.98521875166
372.98252171955
372.97994898873
372.9775171915
372.97521973334
372.9730605379
372.97103601278
372.96914009534
372.96736391844
372.96569811885
372.96413019568
372.96264479358
372.96122157812
372.95983017291
372.95843777219
372.95696322892
372.95532584307
372.95343639875
372.95118884812
372.94845147617
372.9450566107
372.94078568151
372.93534843459
372.92835119198
372.91924024923
372.90720523756
372.89101413765
372.86858649072
372.83610184305
372.78507204716
372.68932330416
373.00353698166
373.018281579
373.03414251221
373.04989884793
373.06511676364
373.07955928399
373.09309365504
373.10566359202
373.11725355429
373.12787119907
373.13753825927
373.1462792457
373.15411949002
373.1610821808
373.16718425385
373.17243794086
373.17684836427
373.18041828203
373.18320028981
373.18531136907
373.18673533095
373.1874158394
373.18726540357
373.18616806985
373.18396917897
373.18048254749
373.17539361531
373.16828751488
373.1585995942
373.14553133155
373.12790680521
373.10394186925
373.07056649757
373.02204766535
372.94509114128
372.79044909527
372.62288895727
372.46922403507
372.2341454133
371.89804174232
371.45132565931
370.88343048369
370.17983424366
369.3282230529
368.31848451753
367.14491926
365.80645801444
364.31397198045
362.71452893313
361.03105673684
359.30374440386
357.56576549009
355.84563419123
354.16599703758
352.54165447951
350.98242299906
349.49409000625
348.07765604112
346.73226638782
345.45620229641
344.24575135342
343.09712023139
342.00655881569
340.97009386382
339.9859532619
339.04722914215
338.15029441474
337.29953343744
336.47982671092
335.70129960419
334.95082257503
334.23368687523
333.54358912047
332.87891152203
332.24216777533
331.62436781905
331.03362283321
330.45813809899
329.90710002124
329.36964443389
328.85343453529
328.35040342487
327.86467288087
327.39284756854
326.93417561485
326.48966196098
326.05615806637
325.63522663004
325.22530412385
324.82641978378
324.43775084951
324.05892927013
323.68946684304
323.32884592357
322.97676937005
322.63281743324
322.29500639566
322.51635899075
322.62038430676
321.05343205639
318.91094833686
315.97713246722
312.10991139682
311.39208408291
311.40369950033
311.40747599678
311.41119735361
311.42535119186
311.46917281341
311.53245075139
311.5784077037
311.61519662274
311.66600212153
311.73014924657
311.79646240111
311.85817722942
311.91380471762
311.96353651581
312.007986738
312.04804397262
312.09722344217
312.131895789
312.16020901922
312.18246662751
312.19791120036
312.20639617387
312.20785521707
312.20532867048
312.197721522
312.18374573382
312.16297371665
312.13620292158
312.10465628537
312.06813989221
312.02764978832
311.98405359378
311.93717011929
311.88733471585
311.83559202111
311.78274215232
311.71849962241
311.67022233539
311.61986955892
311.58148287481
311.5546139365
311.53891359157
311.52395413142
311.50854741373
311.49349526984
311.47982398547
311.4662524422
311.45236635877
311.43657310824
311.41766605031
311.39017857207
311.34940212214
311.29562303532
311.23149627678
311.15984420574
311.08363238996
311.00407015567
310.92401376233
310.85058825555
310.7995291514
310.75468755431
310.73054240399
310.72122550813
310.71881253567
310.72251134764
310.72243365808
310.71136147845
310.69686250671
310.67604480536
310.67243795625
311.42409655199
385.34112307448
372.57996242456
372.38836509143
372.09663381583
371.69227375806
371.17025167459
370.52124717327
369.73593430353
368.80847135009
367.7343615208
366.51293870496
365.14829176276
363.65524712954
362.06325886406
360.40406168538
358.70575314124
356.99882878101
355.31015624354
353.66071053804
352.06566261165
350.53431325745
349.07157235417
347.67923165533
346.35651593244
345.101143803
343.91036581402
342.7801839506
341.70670589577
340.68622392878
339.71514315783
338.79020212139
337.90769910871
337.06495702605
336.25913221786
335.48752840776
334.74812253605
334.03815638108
333.35641785174
332.70035248341
332.06899393734
331.46023472196
330.87313114654
330.30604909537
329.75814768318
329.22794104279
328.71484427479
328.21747321353
327.73544465511
327.26745439098
326.81324536201
326.3716983464
325.94256056863
325.5249262616
325.1183885553
324.7224098322
324.33662977789
323.96041264781
323.59344555628
323.23528370429
322.88553083155
322.54383118211
322.20293977984
322.92292497634
322.29394606173
320.58733496133
318.29606266398
315.09543974013
311.67784032126
311.42668711301
311.44882383462
311.46018868492
311.47253600523
311.49929093382
311.55340619619
311.61753591828
311.6598544541
311.70020306533
311.75625927749
311.82191824045
311.88672559402
311.9460809913
311.99951989014
312.04745721945
312.09055513648
312.1298506278
312.1437636638
312.1769177107
312.20511863766
312.22713334224
312.2422145869
312.24985783044
312.25090450773
312.24754126267
312.23860202738
312.22300887638
312.2009033205
312.17288955112
312.14025575374
312.10238012831
312.06053595278
312.01556542955
311.9673256171
311.91622944961
311.86333885736
311.80948263277
311.7437052216
311.6945287357
311.64454138034
311.60419857986
311.57111290313
311.55559664417
311.54081660541
311.52576844596
311.51134716324
311.4971678127
311.48295489197
311.46827685656
311.45159237161
311.43172086016
311.40341011288
311.36203672738
311.30780543345
311.24312674549
311.17061485277
311.09339678222
311.01293243509
310.93200463697
310.85686840499
310.80582775282
310.75910150229
310.7302993189
310.72080070056
310.71694255053
310.71850037505
310.71614340933
310.70523119173
310.69050168258
310.6697475017
310.66223782567
311.40087518402
385.48994568313
372.56065277692
372.32767355708
371.97163195987
371.48787115922
370.87909249566
370.14540001379
369.28928387441
368.30971609486
367.20486602321
365.9744318094
364.62612289128
363.17241090213
361.62829316429
360.01836206127
358.37038417857
356.71072034436
355.06463276903
353.45282518884
351.88990419005
350.38522843744
348.94429116486
347.56998346338
346.26203721914
345.01867662468
343.83758777495
342.715524151
341.64917274914
340.63480814715
339.6689214908
338.74824624172
337.86977910175
337.03030746172
336.22749323598
335.45848092779
334.72117389127
334.01348137773
333.33331099186
332.67917474778
332.04904479619
331.4418299438
330.85574296966
330.28996429653
329.74285273418
329.21378860532
328.7013264791
328.20497290415
327.72344923393
327.25633866931
326.80257791995
326.36176762786
325.93305807904
325.516032869
325.10997329997
324.71448641688
324.32906435758
323.95319601749
323.58654528937
323.22870928589
322.87924107629
322.5378604883
322.19819439121
322.90097981662
322.30292791915
320.60872119907
318.33619560505
315.17637408545
311.73389875047
311.48088797358
311.52141811653
311.54776519199
311.57190562833
311.60780328469
311.66724571168
311.73342336514
311.7766257063
311.81805688443
311.87417456613
311.93860067315
312.0015843369
312.05925520168
312.11140925495
312.15846331312
312.2010746011
312.24021183877
312.24405744411
312.27658250423
312.30392546179
312.32497876349
312.33886391218
312.34432002824
312.34386067008
312.33824003635
312.32653054715
312.30756309155
312.28259016647
312.25175636935
312.21605043531
312.17497871422
312.1304351765
312.08238836861
312.03126176589
311.97782876659
311.92282154768
311.86688931029
311.79788975553
311.74624913484
311.69760123912
311.65333433294
311.6054923857
311.60047428698
311.5845663039
311.56722908666
311.55125831165
311.53502589905
311.51915236769
311.50237109731
311.48344019651
311.46122834602
311.4348143567
311.39002030306
311.33209228398
311.26394103528
311.18881683647
311.10947951167
311.02879084869
310.94504573336
310.87074611474
310.81725042697
310.75849457667
310.73287556411
310.72247573205
310.71613117115
310.71595615229
310.70684282718
310.69292327865
310.672948838
310.64746489203
310.61121262867
311.26211975971
384.98946214994
372.52174648918
372.19382125616
371.69921726128
371.06327340326
370.31477680104
369.46719502618
368.53052456847
367.50610515201
366.39110540999
365.18146402242
363.88585916242
362.50035433641
361.03268696417
359.49987924292
357.92409287113
356.33014168948
354.74119311204
353.17807215116
351.65615453375
350.18620479522
348.77457374413
347.42369813884
346.13527388196
344.90847848913
343.74095456029
342.63001153481
341.57290176092
340.56654714294
339.60756081875
338.69280733891
337.81939441735
336.98454999693
336.18551187607
335.42006338432
334.68573797297
333.98078574083
333.3031127013
332.65106375556
332.02300504976
331.41745225721
330.83311753396
330.26864758892
329.72298935117
329.19502437826
328.6837745413
328.18833084928
327.70780358733
327.24150927389
326.78857259853
326.34848892933
325.92046301024
325.5040652113
325.09863811931
324.70372948237
324.31881847691
323.94343191336
323.57721419423
323.2197996301
322.87069801468
322.52971119225
322.19123269477
322.87294594167
322.31583901128
320.63869773557
318.39239627887
315.29017820648
311.8222337917
311.56426670429
311.63436259935
311.68394657829
311.72537460529
311.77340103082
311.83876436513
311.90514174953
311.94661974696
311.98625112562
312.03915937727
312.09911361015
312.15751223726
312.21133111441
312.26053577161
312.3055019405
312.34677047008
312.38500811399
312.38064183614
312.41304849342
312.43946657207
312.4590847717
312.47096558433
312.47427278354
312.47155611566
312.46282903371
312.44739701993
312.42455228211
312.39567350965
312.36151808099
312.32182956136
312.27677600086
312.22831996192
312.17623344324
312.1212332004
312.06424690468
312.00582660677
311.94697646356
311.87375147533
311.82055883204
311.76754490045
311.72246061089
311.66677250028
311.659733819
311.64196328068
311.62175155084
311.6050656908
311.58690594453
311.56877563477
311.54903239584
311.52681704817
311.50045331798
311.4708641737
311.42139789366
311.35985277621
311.28884000445
311.21101232275
311.12941231216
311.0466698281
310.95975197994
310.88531061058
310.82577801999
310.760461585
310.73549011056
310.71160718418
310.69778371058
310.68553940851
310.66814148699
310.64370092826
310.61121830267
310.57055974167
310.5079713709
311.12604803783
384.88986485853
372.41730548987
371.81385093512
371.01569964737
370.14137064855
369.24620410115
368.3222057512
367.36611792039
366.3620655952
365.29799454988
364.16441760977
362.95285854696
361.66075726981
360.29026253069
358.85332533386
357.36825722322
355.85619887096
354.33879197794
352.83657252597
351.36585586572
349.93832230453
348.56195793291
347.24133125971
345.97743151685
344.7707283451
343.62032530917
342.5240048093
341.47889898534
340.48248115519
339.53219684894
338.62491284736
337.75782392526
336.92850781181
336.13434261156
335.37304458255
334.64255047798
333.94086039764
333.26618932216
332.61674802361
331.99112120596
331.38771276749
330.80533240303
330.24262806083
329.6986238756
329.17209767123
328.6622294501
328.16797271973
327.68864957994
327.22333118125
326.77141965468
326.33216332576
325.90502322138
325.48935720075
325.08465596568
324.69039534153
324.30612174508
323.93131849407
323.56566864303
323.20875290581
322.86010700242
322.51959896551
322.1822661108
322.83636908531
322.3326847965
320.67649755178
318.46260281591
315.43178477112
311.94776427432
311.67865477323
311.78883441192
311.8680554017
311.93000359212
311.99162845693
312.06253856817
312.12662353571
312.16307177405
312.1962045231
312.24025702909
312.29002535071
312.33884724748
312.38477888538
312.42793934343
312.4685910017
312.50691071723
312.54294979141
312.53536808022
312.56610586895
312.59092914205
312.60822811509
312.61687072991
312.61783191678
312.61147680121
312.59866057894
312.57890418794
312.55176422665
312.51886909891
312.48086186738
312.43666114631
312.38702859296
312.33435127715
312.27808177708
312.21911613666
312.15839790479
312.0964461133
312.03412030313
311.95740417338
311.90050976893
311.84474716112
311.79714494887
311.73564663947
311.72428886974
311.70412464371
311.68087026574
311.66206018548
311.64122142456
311.61957292785
311.59568561444
311.56878028151
311.53658294966
311.50116196914
311.44452163243
311.37673572867
311.30106821908
311.219136057
311.1341502654
311.0479100916
310.95669598691
310.88006856004
310.8116738291
310.74179733333
310.70526844672
310.66287997044
310.63225844182
310.5984068912
310.55665823245
310.50636248159
310.44597571107
310.37415442562
310.26073447144
310.83213218687
384.47399512154
371.81345335744
370.27063918666
369.21720107944
368.33974839688
367.50682855171
366.67470704056
365.81981321155
364.93173732367
363.98481981189
362.96538689614
361.86680314841
360.68805140168
359.43018164667
358.10186912734
356.71811524293
355.29847664486
353.86305140939
352.431244803
351.02032318396
349.64308337505
348.30847023693
347.02231076499
345.78811455937
344.60597708712
343.47575348161
342.39653092002
341.36624192668
340.38220291392
339.44228481979
338.54403071895
337.68485940028
336.86213389011
336.07380319154
335.31767873953
334.59174121643
333.89396279166
333.22281720648
332.57659369606
331.95371050855
331.35286259559
330.77274112258
330.21218413587
329.67000764758
329.14523315545
328.63691666772
328.14415126186
327.66611533318
327.20201357283
326.7512250585
326.31302279817
325.88684551829
325.47205169597
325.068175034
324.67469544154
324.29114167852
323.91699935017
323.55201375825
323.19567415276
322.84759770127
322.50767561422
322.1714287947
322.787259575
322.35282021161
320.72129440332
318.54446948594
315.59452322537
312.11424964525
311.81982064849
311.97190115297
312.07687208266
312.15504486432
312.22829545504
312.30584731716
312.37045426605
312.40567454263
312.43396461062
312.46702947644
312.50165886852
312.53521153898
312.56795217027
312.60057200144
312.63357488376
312.66658637786
312.69865955272
312.68919262479
312.71724596436
312.73885484044
312.75239435407
312.75744393504
312.75453954292
312.74351911134
312.72605371379
312.70160782042
312.66970401913
312.63265563979
312.59013126078
312.54092716818
312.48653378196
312.42939854326
312.36902545553
312.3063058845
312.24212291906
312.17695577742
312.11047052287
312.03064924669
311.96905988687
311.91157422036
311.86115130862
311.79516502883
311.7787055476
311.7545783432
311.72685679637
311.70303908757
311.67812555365
311.65076531134
311.62070415775
311.58605773376
311.54505849434
311.50038238152
311.43336652262
311.35641448648
311.27346600148
311.18452539776
311.09276521506
310.99930934471
310.90144860631
310.81752852395
310.73365588262
310.66026284051
310.58518980418
310.52277659422
310.45183002919
310.37686268288
310.28879785337
310.18806358504
310.07162439719
309.93805053936
309.73272505846
310.14920003105
377.54925629031
363.03270410837
366.61030481782
366.35058788307
365.93248693283
365.44577296462
364.87740403786
364.22877285208
363.50833586765
362.72045411379
361.8606235522
360.91750882767
359.88716540896
358.77202621755
357.57815574955
356.31693320548
355.00520284849
353.66243363671
352.30776859008
350.95891189404
349.63070427204
348.33408956109
347.07682936034
345.86395343252
344.69802705162
343.57995019053
342.50854067215
341.48371604892
340.50343969514
339.56585039296
338.66820433321
337.8088879071
336.98558262432
336.1961145011
335.43824619433
334.71041055107
334.01070112382
333.33735786773
332.68876943332
332.06359879032
331.46045024856
330.87795724711
330.31504739482
329.77061290641
329.24365574085
328.73314483609
328.23823539013
327.75812789265
327.29206706571
326.83932564472
326.39922750697
325.97119956035
325.55466135651
325.14908552556
324.75391833932
324.36873798684
323.99313164859
323.62657505113
323.26877834695
322.91946659915
322.57795835252
322.24356876723
322.20541873899
322.67428828377
321.22193699094
319.22440370875
316.58115352371
312.98217430866
311.93013225716
312.11149039064
312.24132323309
312.33376842197
312.41524354381
312.50107222525
312.57772603259
312.62562355733
312.66031662261
312.69237172017
312.71800974627
312.73605487975
312.75142449601
312.76864968015
312.78970946051
312.81430802114
312.840354944
312.83570094942
312.85962916326
312.8768461615
312.88564690268
312.8865097211
312.87805635437
312.86180644784
312.8391366628
312.80900036476
312.77150971154
312.72922929265
312.6807595353
312.62590873191
312.56635879283
312.50447312694
312.43991862241
312.37339457983
312.30572621408
312.23738253307
312.16617419977
312.10067806723
312.03578203267
311.97429456557
311.91717862203
311.84624949977
311.8166549584
311.78086979133
311.74227855423
311.70272010635
311.66506285543
311.62149724897
311.57321201024
311.51774334291
311.45699242774
311.3896764863
311.30316687068
311.20590755354
311.1047616917
310.9959817019
310.88379839898
310.76781685757
310.64881188285
310.53431036696
310.41806875824
310.29780877482
310.15214104182
310.00820359923
309.83065719048
309.63212321393
309.40485523354
309.14721913102
308.85942282625
308.54045025523
308.19195864634
306.9755236458
225.14469858396
353.86988756604
359.07008237397
359.89675144482
360.29035886433
360.45322548636
360.43327593877
360.23123908511
359.87583682225
359.39186053188
358.79634789595
358.09702215123
357.301417224
356.41390092957
355.43824806687
354.38421681409
353.26652801001
352.10262842208
350.91082238955
349.70806069788
348.50928031813
347.32684484008
346.16982393809
345.04450127637
343.95490689258
342.90329212301
341.89073484708
340.91738691107
339.98194506157
339.08377484822
338.22165887426
337.39378644805
336.59841272481
335.83369574162
335.09846816073
334.39089853411
333.70949074764
333.05260901939
332.41918104523
331.80778220662
331.21715432697
330.6461344273
330.09381956825
329.55916230197
329.04120720695
328.53903997907
328.05187956392
327.57902480792
327.11971275905
326.67327745016
326.23908082059
325.81660677963
325.40528900086
325.00461693742
324.61409922165
324.23323362688
323.86176164239
323.49924580372
323.14507830927
322.79923106065
322.46136338522
322.12829453335
322.49489840294
322.42651115705
320.88854589819
318.83569080486
316.13227811623
312.80777271137
312.23054471117
312.40911468983
312.54100682535
312.64461715841
312.7457106358
312.84805823086
312.93337990012
312.99867110009
313.05640849528
313.10366771458
313.13169907859
313.13751890974
313.12634463376
313.10998481415
313.10006071154
313.10100263165
313.11042817566
313.09528469276
313.10946871615
313.11621855287
313.11399134243
313.10241684119
313.0813597702
313.05270184974
313.01664934516
312.9707359687
312.91860494305
312.86211133595
312.7986138361
312.7330224301
312.66274165369
312.58970499414
312.51380055727
312.43564217063
312.35598211068
312.27573844401
312.18450300379
312.06110244623
311.98233538814
311.90276510746
311.82177565479
311.73146537799
311.66321420305
311.58746991426
311.50981169587
311.42288144167
311.32796467086
311.22189706334
311.10454974539
310.97448218583
310.84021442775
310.69057677857
310.52869111909
310.34874351186
310.16825963892
309.97607487309
309.77868925912
309.57178652341
309.3550746034
309.12149796153
308.86041480047
308.55721525386
308.18005446072
307.74806854064
307.22013867298
306.60789267294
305.90000552568
305.10049370315
304.22718411007
303.29966845629
302.31968375194
299.73276938084
180
349.47859480434
354.05277914347
355.0857734891
355.73459840818
356.15997804244
356.42172618747
356.52678371999
356.47980572026
356.28238344082
355.95142719946
355.50148397801
354.94137397904
354.27240445334
353.50846886429
352.65953001306
351.73637833221
350.75240386213
349.72433710104
348.66810335362
347.59824191468
346.52754833662
345.4673089131
344.42564014161
343.40814626381
342.41866590196
341.45975117969
340.53269373899
339.63771379616
338.77476246496
337.94299860155
337.14124152641
336.36891379523
335.62479380725
334.90759579381
334.2159877731
333.54850906203
332.90437918947
332.28225150782
331.68104561839
331.09939149221
330.53657889822
329.99161555952
329.4635972145
328.95160097467
328.45483019754
327.97267329236
327.50435032455
327.04921447752
326.6065677256
326.17589057367
325.75667247419
325.3483605746
324.95047487024
324.56248261787
324.18403399309
323.81487478992
323.45432999265
323.10213596257
322.75826036364
322.42194564065
322.09134466725
322.25311693989
322.48087928743
321.01930054406
319.05059299379
316.4842601124
313.32218749588
312.42306765883
312.56595971672
312.71778954325
312.8433374217
312.96568871632
313.08592654852
313.18960449586
313.27929360207
313.36048761543
313.42559561028
313.46597486873
313.47848927855
313.46371690035
313.42900705145
313.38784251461
313.35418607466
313.33608340529
313.30908096038
313.31009148369
313.30375923125
313.28792953061
313.26232393539
313.2263582123
313.18019986017
313.12461372533
313.05963055989
312.99191167879
312.91452377936
312.82746710657
312.73513998906
312.63615705397
312.53387276766
312.42856471899
312.32134877284
312.21302935928
312.10462548134
311.97772704494
311.69342728791
311.56572336221
311.42917126807
311.28043858375
311.11789045493
310.94560092894
310.75169849006
310.54169774378
310.30180687582
310.02943348758
309.72475888501
309.38831052557
309.0257406072
308.66064782013
308.27362062531
307.89637692194
307.49148812727
307.096442527
306.6840505145
306.26238698653
305.81414256938
305.33041791522
304.78571123134
304.13722460274
303.36222358954
302.42190643924
301.34006219146
300.09863087995
298.72615715742
297.20308509538
295.61509293055
293.91812985357
292.10279729394
290.12638686595
285.25570178659
180
346.78498961698
350.43881170226
351.46212758821
352.15541152673
352.66884082358
353.04941976546
353.30205799601
353.42272695099
353.41599485035
353.27996976797
353.01819635053
352.64105553816
352.16582517114
351.58704484818
350.91421648573
350.16097916951
349.3403721204
348.46451182925
347.54812997353
346.60513788146
345.64807832124
344.68757771446
343.73294913213
342.79155984763
341.86865600138
340.96762138755
340.09088455541
339.23996224719
338.41549282585
337.61758590731
336.84598102988
336.10025782105
335.37949780628
334.68269226475
334.00936684958
333.35844736627
332.72897227372
332.12001849069
331.53031888325
330.95944143605
330.40635307687
329.87020270095
329.35003151025
328.84516104373
328.35501170694
327.87880973659
327.41596336996
326.9657503629
326.52765716135
326.10123945827
325.68590922568
325.28120047233
324.88660023985
324.50168250768
324.12619822893
323.75969326818
323.40154587498
323.05177363151
322.71005965788
322.37558540656
322.04772605309
322.0222057865
322.52927708013
321.16019149905
319.27884610917
316.8394338082
313.84867352722
312.60660088902
312.66340952091
312.83704283869
312.99156454581
313.13988121159
313.28191971472
313.4084794105
313.52304396803
313.62399926822
313.70177438999
313.74922086589
313.76576000242
313.75264468983
313.71271176503
313.65606417805
313.59467484511
313.545200003
313.4984462697
313.47870853547
313.45261147618
313.41823494528
313.37465120011
313.31783281772
313.24984408504
313.16941259223
313.07242247075
312.9644452388
312.83296149447
312.69060210021
312.53508845404
312.36926101298
312.19641740783
312.01464986977
311.82639756235
311.63337515402
311.43641329744
311.19547966135
310.45831429774
310.16811042433
309.84476550343
309.48738732661
309.08021938749
308.61979848005
308.09482012633
307.50879946173
306.8591502066
306.15893249283
305.40467384592
304.64695781366
303.83222381931
303.05418358624
302.22065220732
301.41667472881
300.57284082045
299.72526083553
298.845025862
297.93628254926
296.96649787429
295.90914091769
294.71569481022
293.33336550937
291.80085002542
290.01855484266
288.02757486289
285.79906518411
283.51102804023
281.00047475445
278.33730726312
275.59819967741
272.87839425272
270.36395126754
263.62208262333
180
345.22784185812
347.56900785032
348.60381841844
349.26517253173
349.79640192021
350.21719674739
350.53526820869
350.75586901431
350.84978095328
350.84187949751
350.72079733125
350.49156251973
350.15241402043
349.7201154409
349.20429041178
348.59638735267
347.91633751921
347.1767831313
346.38863981334
345.56387237576
344.71500103572
343.85267206955
342.98552448353
342.12142690897
341.26658019433
340.42556436482
339.60171984874
338.79727444426
338.01382559309
337.25222836421
336.51285588896
335.79562513578
335.10029656347
334.42651708482
333.7737093485
333.14098420939
332.52763643309
331.93331791551
331.35711535392
330.79834096254
330.25621868764
329.72972206748
329.21860590586
328.72211457424
328.23953607434
327.77025167323
327.31357597578
326.86912613067
326.4364371612
326.0149140516
325.60412445263
325.20353940858
324.81279801339
324.43154668305
324.05948089779
323.69596237013
323.34076448502
322.99385335494
322.65446883626
322.3223409546
321.9973803461
321.81713370228
322.57107431614
321.30920495423
319.52530367115
317.22226443012
314.41138266652
312.83584338923
312.73310729315
312.91783939879
313.10931885517
313.29179444467
313.46417845993
313.62025055266
313.75974972979
313.87588322359
313.95936386555
314.00625890148
314.01853316328
314.00081764364
313.9552392817
313.88892441032
313.80976960574
313.73450669799
313.66936621451
313.62378344924
313.57030484326
313.51341363601
313.44690470865
313.36295014887
313.25554441275
313.12008425972
312.95203505198
312.75425685699
312.51634904972
312.24535943861
311.93654944261
311.59554017802
311.22208498282
310.81982179883
310.39521695498
309.95451415195
309.49868805285
308.93163216724
307.11712337071
306.4287414011
305.69250260838
304.90065074862
304.05308505876
303.12092940092
302.09980176681
301.02274783554
299.82920953972
298.52745318214
297.09585642821
295.61159190369
294.01123183928
292.44172594708
290.78649979009
289.30642619393
287.88877613197
286.51439629601
285.15149192673
283.76400994384
282.29831511776
280.71475498079
278.97025265739
277.05372377877
274.99049960439
272.77547243164
270.46748702397
268.08513528623
265.70670879851
263.39248458411
261.20242124012
259.15162155232
257.35885108031
256.47280672196
247.84305492834
180
344.48168498857
345.16032158133
346.25189295396
346.8683359556
347.38066906021
347.80658433626
348.15120624731
348.41832849981
348.58125155931
348.64397410962
348.62231293126
348.49862894681
348.26470559522
347.9432550176
347.55341654942
347.07329713263
346.51433092569
345.89065701956
345.21575867639
344.49950998315
343.75109378357
342.98086064836
342.19811620392
341.41018428443
340.62341364085
339.84325395883
339.07344688525
338.31707061164
337.57632610078
336.85265593785
336.14706643187
335.46005953229
334.79179983904
334.1422156165
333.51105448573
332.89800737254
332.30267587044
331.72452065068
331.16271816931
330.61689793619
330.08671437338
329.57137102724
329.07042345985
328.58305022503
328.10872877961
327.6470803856
327.19758557361
326.75969889951
326.33304898702
325.91701161112
325.51120711852
325.11540053035
324.72910267656
324.35199754032
323.98370002981
323.62358911729
323.27184605206
322.92796727787
322.59130875032
322.2622270642
321.94027138263
321.66696772876
322.586812792
321.46412032146
319.79557103969
317.6516533492
315.04316706711
313.17504734745
312.81472037964
312.9702484662
313.20133972862
313.42855759125
313.64316037329
313.83713136299
314.00305397482
314.13019196181
314.21235998125