/*--------------------------------*- C++ -*----------------------------------*\
| =========                 |                                                 |
| \\      /  F ield         | OpenFOAM: The Open Source CFD Toolbox           |
|  \\    /   O peration     | Version:  2312                                  |
|   \\  /    A nd           | Website:  www.openfoam.com                      |
|    \\/     M anipulation  |                                                 |
\*---------------------------------------------------------------------------*/
FoamFile
{
    version     2.0;
    format      ascii;
    arch        "LSB;label=32;scalar=64";
    class       volScalarField;
    location    "5e-05";
    object      Y.Liq;
}
// * * * * * * * * * * * * * * * * * * * * * * * * * * * * * * * * * * * * * //

dimensions      [0 0 0 0 0 0 0];

internalField   nonuniform List<scalar> 
109340
(
0.99999
0.99999
0.99998999999999
0.99998999999977
0.99998999999499
0.99998999988828
0.99998999863418
0.99998999321425
0.99998997882821
0.99998994871085
0.99998989453222
0.99998980632128
0.99998967249363
0.99998947975033
0.99998921285699
0.99998885429885
0.99998838375048
0.99998777733905
0.9999870066347
0.99998603730393
0.99998482733508
0.99998332481375
0.99998146506932
0.99997916692312
0.99997632751085
0.99997281507705
0.99996845857453
0.99996303216811
0.99995623118994
0.99994763319188
0.99993663159496
0.9999223158442
0.99990324018548
0.99987695076425
0.99983896264903
0.99978040437073
0.99999
0.99999
0.99998999999998
0.9999899999996
0.99998999999119
0.99998999980541
0.99998999808946
0.99998999141573
0.99998997440252
0.99998993991268
0.99998987916247
0.99998978176525
0.9999896357063
0.99998942721421
0.99998914051365
0.99998875742942
0.99998825683194
0.99998761383368
0.99998679868943
0.9999857753489
0.99998449958126
0.99998291659677
0.99998095801001
0.99997853779614
0.99997554668484
0.99997184429118
0.99996724768635
0.99996151420053
0.99995431448101
0.99994518829285
0.99993346809816
0.99991813811805
0.99989755349141
0.99986884137337
0.99982649584766
0.99975898773227
0.99999
0.99999
0.99998999999999
0.99998999999975
0.99998999999494
0.99998999987381
0.9999899984574
0.99998999237839
0.99998997623039
0.99998994283095
0.99998988335092
0.99998978736409
0.99998964282102
0.99998943592134
0.9999891508687
0.99998876948357
0.99998827064025
0.99998762946977
0.99998681624831
0.99998579494533
0.99998452131921
0.99998294052883
0.99998098410825
0.99997856590545
0.99997557648871
0.99997187523833
0.99996727892082
0.9999615445008
0.99995434218084
0.99994521120086
0.99993348329764
0.99991814086859
0.99989752755146
0.99986870587159
0.99982583342547
0.99975560050261
0.99999
0.99999
0.99998999999999
0.99998999999991
0.99998999999852
0.99998999994416
0.9999899988683
0.99998999349485
0.9999899783952
0.99998994632874
0.99998988840991
0.9999897941657
0.99998965150448
0.99998944658248
0.99998916354939
0.99998878415295
0.99998828716841
0.99998764760566
0.99998683555886
0.99998581474353
0.99998454051918
0.99998295742707
0.99998099616486
0.99997856942473
0.99997556621442
0.99997184377369
0.99996721593536
0.99996143564082
0.99995416757014
0.99994494316474
0.99993308269556
0.99991755101116
0.99989665278577
0.99986732641214
0.9998231872944
0.99974769336464
0.99999
0.99999
0.99999
0.99998999999999
0.99998999999989
0.99998999998175
0.99998999917503
0.99998999448292
0.99998998053719
0.99998995005105
0.99998989400333
0.99998980169989
0.99998966073798
0.99998945685103
0.99998917358003
0.99998879183641
0.99998828926048
0.99998763934746
0.99998681003256
0.99998576243945
0.99998444820309
0.99998280681736
0.99998076222887
0.99997821798672
0.99997505089603
0.99997110167616
0.99996616185345
0.99995995401992
0.99995210108959
0.99994207589154
0.99992911350173
0.99991205309336
0.99988898592886
0.99985642045605
0.9998067381721
0.99971674969706
0.99999
0.99999
0.99999
0.99999
0.99999
0.99998999994317
0.99998999845824
0.99998999108606
0.99998997045092
0.99998992655997
0.99998984693385
0.9999897165957
0.99998951790329
0.99998923020114
0.99998882925931
0.99998828647043
0.99998756776918
0.99998663238948
0.99998543176909
0.99998390225695
0.99998196338874
0.99997951452193
0.99997642815551
0.99997254179627
0.9999676470269
0.99996147428315
0.99995367121546
0.99994377008938
0.99993113636965
0.99991488415246
0.99989372721776
0.99986572357792
0.99982765320706
0.99977358446961
0.99969018270783
0.99953150377394
0.99968451901005
0.99952655849708
0.99927711052549
0.99891458366763
0.99842944965438
0.99781215480623
0.99704769507208
0.99612360815687
0.99503023132362
0.99376311944899
0.99232464205404
0.99072365753976
0.98901589154677
0.98722784221719
0.98540241792949
0.98357645189049
0.98178039888588
0.98003738423814
0.97836239256469
0.9767643087812
0.97524758915836
0.97381266733229
0.97245746660307
0.97117877207739
0.96997216917651
0.96883313781413
0.96775698235356
0.96673925918061
0.96577566247377
0.96486228828911
0.96399490470914
0.96317052894173
0.9623854525348
0.96163713001602
0.96092282579963
0.96023973037843
0.9595863814558
0.95895990843779
0.95835928168604
0.95778211270898
0.95722754512081
0.95669357588065
0.95617945918841
0.95568347916645
0.95520501782346
0.95474258627525
0.95429575911408
0.95386326332754
0.95344466661784
0.95303888490951
0.95264555865094
0.95226388538548
0.95189336583905
0.95153343343341
0.95118365498625
0.95084353113596
0.95051258888726
0.95019037813179
0.94987644663189
0.94957040149606
0.94927215028223
0.94876467114904
0.94692424610442
0.94507898022181
0.94257807980941
0.93916158161057
0.93562660163609
0.93530761406555
0.93536558746617
0.93541601352747
0.93546273065811
0.93550704051946
0.93554906813493
0.93558868163651
0.93562619207157
0.93566228201344
0.93569698559792
0.93573008933138
0.93576148021439
0.93579121461988
0.9358193695464
0.93584593129433
0.93587075805724
0.93589361929476
0.93592705174579
0.93594757677374
0.93596449894937
0.93597824034419
0.93598897840199
0.9359965276049
0.93600089320464
0.93600209981269
0.93600160897049
0.93599915701526
0.93599398303836
0.9359859299378
0.93597526121198
0.93596229915284
0.9359472633835
0.93593032901414
0.93591159999688
0.93589116360575
0.93586911218129
0.93584556485844
0.93581412325368
0.93578795375877
0.93576105969742
0.93573383967267
0.93570652229353
0.93567921408283
0.93565358130966
0.9356282092342
0.93560407827868
0.93558089194876
0.93555792812074
0.93553646384475
0.93551521134829
0.9354945304605
0.93547501757628
0.93545537634718
0.93543523383342
0.93541428052654
0.93539232164153
0.93536925513978
0.93534512254536
0.93531991415494
0.93529393734731
0.93526745831747
0.9352407895951
0.93521411714933
0.93518873609428
0.93516403669154
0.9351411318638
0.93512020546954
0.93510016258492
0.93508039359405
0.93506194302329
0.93504314528439
0.93492809898818
0.92047114524648
0.99964257789379
0.99944336058672
0.99913096867091
0.9986923144854
0.99812528183707
0.99742007488806
0.99656776068873
0.99556287942012
0.99440226108502
0.99308694153331
0.99162307244816
0.99002866997215
0.9883350390327
0.98657894289813
0.98479147439871
0.98300464753595
0.98124764988896
0.9795416482926
0.97790152378941
0.97633602768826
0.97484913335459
0.97344143281327
0.97211123494478
0.97085534502565
0.96966993911296
0.96855023076437
0.96749172588369
0.96649002339029
0.96554093402888
0.96464057755144
0.963785297285
0.96297167973845
0.96219669788134
0.96145746853736
0.96075145057884
0.96007628718125
0.959429852988
0.95881018689291
0.95821549488676
0.9576441747038
0.95709471803687
0.95656578847719
0.95605609401512
0.95556450266285
0.95508991256622
0.95463137410562
0.95418797304351
0.95375890409664
0.95334336711417
0.95294066188347
0.95255014460213
0.95217121009591
0.95180326000982
0.95144578067602
0.95109831546742
0.95076039633689
0.95043153080654
0.95011127928786
0.9497993205479
0.9494952710791
0.9491973814996
0.9483510345814
0.94650975111329
0.94454987998689
0.94184978936808
0.93821361938767
0.93540122842759
0.9353588309804
0.93542590493575
0.93548505851541
0.93553944444459
0.93559008928344
0.93563728588149
0.93568107465967
0.9357217388604
0.93575984841954
0.93579572064673
0.93582953178167
0.93586144682206
0.93589169916624
0.93592050345473
0.93594790510192
0.93597374128046
0.93599778227799
0.93599469717784
0.93601395958998
0.93603064705171
0.93604445908174
0.93605523251979
0.93606264714523
0.93606661041055
0.93606735381656
0.9360664560854
0.93606318297731
0.93605694469697
0.9360476821619
0.9360357684457
0.93602156561037
0.93600527417196
0.93598706017384
0.93596704350358
0.93594536298021
0.93592214302755
0.93589749535562
0.93586480391967
0.93583774298053
0.93580999809452
0.93578221230965
0.93575426867696
0.93572661777355
0.93570068985047
0.93567482614403
0.93565050550934
0.93562697867557
0.935603862944
0.93558220053239
0.93556054562887
0.93553983718739
0.93551999081644
0.93549989009761
0.93547918250426
0.93545757608848
0.93543495074846
0.93541122446485
0.93538651772114
0.93536081693867
0.93533451986551
0.93530786837139
0.93528106498181
0.93525455064946
0.93522991809369
0.93520598865539
0.93518425408365
0.93516408174151
0.93514463962434
0.93512552392671
0.93510774272779
0.93508958552954
0.93497620330503
0.92045701813109
0.99962507253392
0.99938227801547
0.99899691726497
0.99847134532627
0.99781039742919
0.99701412692361
0.99608515810618
0.99502455936604
0.99383180186444
0.9925083426628
0.99106255162909
0.98951104889678
0.98787084225157
0.98616942393354
0.98443703621287
0.98270210601989
0.98099167783439
0.97932641576881
0.97772088840413
0.97618421382336
0.97472101418255
0.97333277133305
0.97201858457271
0.97077583925247
0.96960102953258
0.9684902343784
0.96743952443747
0.96644445864767
0.96550105529571
0.96460556962988
0.9637544931039
0.96294457497009
0.9621727554894
0.9614363137084
0.96073272019805
0.96005972093209
0.95941517492519
0.95879717910261
0.95820396910134
0.95763393666099
0.95708562565154
0.9565576808378
0.95604886445804
0.95555802554541
0.95508411680564
0.95462617198194
0.95418329992607
0.95375468607813
0.95333956628506
0.95293724233744
0.95254705788256
0.95216841558288
0.95180073425248
0.95144347839141
0.95109618263089
0.9507583920977
0.95042963619281
0.95010950257461
0.94979766421706
0.94949371785927
0.94919602557947
0.94836663069855
0.94652881411669
0.94458090620017
0.94190250953983
0.93830059161839
0.93544535994095
0.93540982828793
0.93549222763224
0.93556409766968
0.93562881581101
0.93568765811513
0.93574136842035
0.93579029862532
0.93583474526847
0.93587550330266
0.93591336479767
0.93594880546857
0.93598217697577
0.93601386011642
0.93604421983678
0.93607338806072
0.936101200913
0.93612737066071
0.93611693049672
0.93613861618475
0.93615717984537
0.93617232064484
0.93618377877091
0.93619130233597
0.93619470884391
0.93619489198835
0.93619318310869
0.93618848214326
0.93618037551733
0.93616899870656
0.93615489108803
0.93613847464603
0.93611994898292
0.93609949082869
0.93607723768093
0.93605335454298
0.93602799120684
0.93600127471116
0.93596618915537
0.93593740439146
0.93590774157975
0.93587913171161
0.93585023169483
0.93582186213301
0.93579513904681
0.93576865562712
0.93574401662933
0.93571983413515
0.9356965413146
0.93567443920586
0.93565226221668
0.93563154568814
0.93561110347336
0.93559025776109
0.93556865591002
0.93554595325317
0.93552214524042
0.93549718402121
0.93547136742365
0.93544471167888
0.93541779859711
0.93539068502138
0.93536392669865
0.93533806164834
0.93531465559038
0.93529212834622
0.93527228631722
0.93525384670868
0.93523607867758
0.93521868318218
0.93520234730748
0.93518563326812
0.93508018178963
0.92110819832357
0.999586300972
0.99924093979009
0.99870392444154
0.99801448431538
0.99720018818795
0.99627994755403
0.99526523291177
0.99415837063283
0.99295721043267
0.99165880273602
0.99027106522362
0.98879447597305
0.98723791398684
0.98562052467998
0.98396712327778
0.98230319807299
0.98065407933131
0.97904132278867
0.97747995605468
0.97598012916659
0.97454771749354
0.97318485674112
0.97189151504159
0.97066607369038
0.96950569702628
0.96840689264243
0.96736594914605
0.96637932516785
0.96544320394554
0.96455397085374
0.96370830080243
0.96290309071506
0.96213539521802
0.96140257546297
0.96070220964445
0.96003206059579
0.95939007959873
0.95877437142073
0.95818322373988
0.95761504837746
0.95706841298947
0.95654197664209
0.95603452488351
0.95554491468394
0.95507212460843
0.95461519210892
0.9541732451067
0.95374546148115
0.95333110649799
0.95292947687853
0.95253992517212
0.9521618507192
0.95179469056255
0.9514379032969
0.95109101457922
0.95075357505715
0.95042513517912
0.95010530447803
0.94979375752099
0.94949007521206
0.9491927693152
0.94838842361313
0.94655484310356
0.94462407588253
0.94197638335851
0.93842289692276
0.9355077785204
0.93547594997527
0.93557727604044
0.93566377940863
0.93573929335677
0.93580557830615
0.93586413251411
0.93591593222933
0.93596178203688
0.93600317139589
0.93604157184457
0.93607798315002
0.93611277511155
0.93614621665415
0.93617858878942
0.93620996593932
0.9362401132219
0.93626861779313
0.93625876856739
0.93628235743991
0.93630237280522
0.93631834399456
0.93632993963453
0.9363370108301
0.9363394404964
0.9363390515535
0.93633621811015
0.93632983309372
0.93631974343014
0.93630640197103
0.9362904552013
0.93627230044458
0.93625208489303
0.93622996200223
0.93620606141471
0.93618055041925
0.93615359548188
0.93612535180618
0.93608852322164
0.93605843423067
0.93602755236846
0.93599822823781
0.93596858701949
0.93593967865808
0.9359122779159
0.93588557773561
0.93586075526817
0.93583607405936
0.93581297699607
0.93579057960931
0.93576854274707
0.9357479289326
0.93572723374549
0.93570595264278
0.93568370442325
0.93566008468123
0.93563520292831
0.9356090718278
0.93558219612241
0.93555456347932
0.93552714644549
0.93549947185898
0.93547318037483
0.93544839853628
0.93542622056581
0.93540592485878
0.93538805762655
0.93537074033089
0.93535359038683
0.93533643850633
0.93531928254183
0.93530137535735
0.93520068040291
0.9215559502123
0.99945746766926
0.9988144351903
0.99795585341172
0.99701647543271
0.99604652097936
0.99504726827923
0.99401276107347
0.99292977014916
0.99178446353503
0.99056897656554
0.98927509876728
0.98790169714081
0.98645187767662
0.98493894936472
0.98338334165449
0.98180829403297
0.98023586965917
0.9786878441607
0.9771808265281
0.97572626085588
0.97433129765043
0.97299967867626
0.9717322942708
0.9705283042457
0.96938577258167
0.96830195630252
0.96727364870835
0.96629748929445
0.96537037974885
0.96448887087256
0.96364983801222
0.96285033988807
0.96208763318223
0.96135917920275
0.9606626668885
0.95999592670873
0.95935697783964
0.95874398491948
0.95815526891582
0.95758929868689
0.9570446570139
0.95652004207746
0.9560142452803
0.95552615588024
0.95505475292472
0.9545990956181
0.95415831325972
0.95373160079673
0.95331822784212
0.95291750452323
0.9525287877568
0.95215148077041
0.95178502826073
0.95142889472585
0.9510826022378
0.95074570327072
0.95041775938855
0.95009839663268
0.94978729271308
0.9494840119465
0.94918725347919
0.94841539737183
0.94658768227453
0.94467825009199
0.94206879150846
0.93857519930732
0.93558895958643
0.9355551070982
0.93568115169067
0.93578663330478
0.93587494611512
0.93594815250388
0.93600863513842
0.93605834302384
0.93609941436718
0.93613518004477
0.93616872385338
0.93620174495083
0.93623491739929
0.93626868161635
0.93630268225282
0.93633634759071
0.93636902122512
0.93639997067202
0.93639453024066
0.93641964718985
0.93644087848332
0.93645742108508
0.93646879815979
0.93647499652658
0.93647635055152
0.93647522577177
0.93647082289725
0.9364624298476
0.93645035728018
0.93643538383954
0.9364181529025
0.93639896933957
0.93637789051163
0.93635499363184
0.93633036592354
0.93630415069281
0.93627652288419
0.93624765844311
0.93621019445669
0.93617954607467
0.93614839723826
0.93611856967268
0.93608882356122
0.93606012714808
0.93603250502401
0.93600630262525
0.93598165247338
0.93595728203271
0.93593501304816
0.93591320106841
0.93589232363205
0.93587204014003
0.93585128834007
0.93582955338745
0.93580660378702
0.93578209403139
0.93575626499606
0.93572918539508
0.93570144003491
0.93567295043079
0.93564507529647
0.93561680189128
0.93559065162457
0.93556635331492
0.9355445043211
0.93552352071271
0.93550248349711
0.93548087243487
0.93545833786882
0.93543471686757
0.93541002940972
0.93538430711483
0.93528703476983
0.92245867937878
0.9985889573767
0.99702898858173
0.99595416155249
0.99503740470324
0.99415481057336
0.99326769285529
0.99235098991596
0.99139623330838
0.99037988737697
0.98928982031842
0.98812055615388
0.98687128378126
0.98554424879727
0.98414926649335
0.98270299652609
0.98122690741501
0.97974229976186
0.97826965877168
0.97682612731709
0.97542444939309
0.97407346287948
0.97277833285543
0.97154138740251
0.97036288142949
0.96924163644776
0.96817569840846
0.96716250655334
0.9661991839146
0.96528290879698
0.96441067597251
0.96357961826039
0.96278699114585
0.96203024894758
0.96130701098294
0.96061507310326
0.95995237656224
0.95931699838022
0.95870717565484
0.95812128561421
0.95755785488085
0.95701551321796
0.95649298798246
0.95598909361904
0.95550274516839
0.95503293469872
0.95457873834683
0.95413929445211
0.95371381642083
0.95330157839761
0.95290190559031
0.95251416132737
0.95213775616645
0.95177213615201
0.95141677708175
0.95107120482829
0.9507349744932
0.95040765268107
0.95008887840959
0.94977832463758
0.94947554320979
0.94917944665707
0.94844677357482
0.94662687102459
0.94474228614025
0.94217685620317
0.93875113577621
0.93569281405483
0.93565112678701
0.93581158217752
0.935941257269
0.93604442804945
0.93612543015065
0.93618785526664
0.93623375598677
0.93626539226397
0.93628768561557
0.93630675132665
0.93632743210733
0.93635205027411
0.93638087154991
0.93641341704866
0.93644811120698
0.9364831299466
0.93651671579439
0.93651651132854
0.93654337509097
0.93656595024017
0.9365830736215
0.93659410140459
0.93659922151966
0.93659965937258
0.93659732914088
0.93659079068773
0.93657999965898
0.93656590801383
0.93654953341379
0.93653139369187
0.93651164193745
0.93649024006574
0.93646716329201
0.9364424162104
0.93641610059016
0.93638838962804
0.93635945896314
0.93632129241804
0.9362909345994
0.93626038348858
0.93623082505852
0.93620195052674
0.93617424411485
0.93614715681375
0.93612189544835
0.93609772782012
0.9360743566447
0.93605271793759
0.93603196153783
0.93601147491875
0.93599055568962
0.93596845572693
0.93594482271733
0.93591994162949
0.9358936391895
0.93586621696489
0.93583774823743
0.93580867184403
0.93577902891187
0.93574945516106
0.93571975244028
0.93569144911745
0.9356628931421
0.93563326588419
0.9356024462936
0.93557020055717
0.9355359824026
0.93549913745848
0.93545899275904
0.93541506848294
0.93536748928525
0.93528200934048
0.92755831603503
0.98753970998069
0.99284796902224
0.9927278488129
0.99236385349312
0.99188820927175
0.99130416168175
0.99062751298462
0.98986865969604
0.98903276529859
0.98811785264931
0.98711599189297
0.98602556222636
0.98485090514005
0.98359951100612
0.982283605938
0.98092131059543
0.97953368270861
0.97814065878104
0.97676128499231
0.97541005925253
0.97409765788512
0.97283158702237
0.97161616072369
0.97045331688849
0.96934330986099
0.96828514012095
0.96727711919167
0.96631703295599
0.96540248369067
0.96453079133405
0.96369939285811
0.96290578453903
0.96214756919789
0.96142250184099
0.96072847219714
0.96006351980182
0.95942578418493
0.95881353840562
0.95822518800222
0.95765928320815
0.95711449777369
0.95658958173169
0.95608335371357
0.95559473139052
0.95512271294923
0.95466637723993
0.95422486511048
0.95379738525683
0.95338320816424
0.95298166155031
0.95259211041313
0.95221395662675
0.95184664347244
0.9514896560874
0.95114250035872
0.9508047369555
0.95047597227914
0.95015579240669
0.94984378150615
0.94953965064021
0.94924317980907
0.94882843230282
0.94708729946918
0.94532869732491
0.94300206275994
0.93986119077278
0.93625985894324
0.93571044592377
0.93591574831476
0.93607199136066
0.93619171362763
0.93628508742565
0.93635735225121
0.93641045109849
0.93644476081984
0.9364622560425
0.93646767325205
0.93646842829844
0.93647244006991
0.93648533325384
0.93650809118188
0.93653873789395
0.9365742112317
0.93661075476966
0.93662480925951
0.93665365574165
0.93667765233709
0.93669537341867
0.93670606316517
0.93671016869301
0.9367098777405
0.93670596795685
0.9366970157639
0.93668384127284
0.93666805093728
0.93665070243928
0.93663206078224
0.93661209102474
0.93659065649228
0.93656763890031
0.93654297626387
0.93651673386685
0.93648908064943
0.93645960602562
0.93647084165794
0.93644124165161
0.93641150059214
0.93638169400032
0.93635237651208
0.93632430431758
0.93629640731744
0.93626936111655
0.93624311770894
0.936217387851
0.93619175844111
0.93616599431023
0.93613997379321
0.93611393504079
0.93608793353245
0.93606160779249
0.93603437269297
0.93600574305382
0.9359755408012
0.93594355094831
0.93590975100858
0.93587401421331
0.93583647159005
0.93579696665029
0.93575330310515
0.93570363123004
0.93564616825645
0.93557784041358
0.93549588110734
0.93539943187267
0.93528561055031
0.93515330993147
0.93500244132358
0.93483932522707
0.93466792691422
0.93404730151032
0.97715044927292
0.98474963570251
0.98573194507413
0.98625483510722
0.98649168788071
0.98651532822596
0.98633873703587
0.98598206450593
0.98548855719711
0.98487304662882
0.98414467888727
0.9833115383923
0.98238336410655
0.98136743400187
0.98027512824012
0.9791221904211
0.97792719742171
0.97670912084241
0.97548508768113
0.97427118649083
0.97307963671356
0.97191919517626
0.97079582790873
0.9697130427569
0.96867266777363
0.96767521146894
0.96672019412556
0.96580662993383
0.96493301495055
0.96409743253193
0.9632980364809
0.96253294105646
0.96180021258307
0.96109798724163
0.96042449420339
0.9597780600107
0.95915709008485
0.95856006727964
0.95798556586524
0.95743226808382
0.95689898274343
0.956384618097
0.95588809854855
0.95540841983919
0.95494468415137
0.95449603596541
0.95406168431027
0.95364089231395
0.95323297062783
0.95283727719799
0.95245321093019
0.95208020452716
0.9517177216117
0.951365273525
0.95102241497035
0.95068870939642
0.95036376479334
0.95004723590328
0.94973874659037
0.94943785495677
0.94914412975955
0.94855581265239
0.94677690825643
0.94498177345979
0.94256703476187
0.93935323366303
0.93617874585387
0.93598878552592
0.93619863188527
0.93635703604378
0.93648538295263
0.93659189308392
0.93667908569404
0.93674626512056
0.93679123730099
0.93681316007026
0.93681311493265
0.93679419482014
0.93676371741428
0.93673451856758
0.93672110046944
0.93672847822039
0.93675358134312
0.93678939259895
0.93680424889797
0.93683866397071
0.93686609294619
0.93688446506762
0.93689378386475
0.93689587199654
0.93689378052795
0.93688591337661
0.93687278467993
0.93685699692843
0.93684042366889
0.93682314299359
0.93680472190165
0.93678481655986
0.93676316804766
0.93673967183777
0.93671432359228
0.93668726165929
0.93665875052054
0.93662855121951
0.93661990144059
0.93658734459588
0.93655387176413
0.936519852623
0.93648547084768
0.93645075529123
0.93641545128094
0.93637909981387
0.93634110285937
0.93630087583588
0.93625798635096
0.93621231017057
0.93616407256779
0.93611444499443
0.93606385412191
0.93601078270024
0.93595376096009
0.93589263570524
0.93582665357778
0.93575549729491
0.93567754943975
0.93559129702727
0.93549221737431
0.9353756389973
0.93522386775492
0.9350269283375
0.93477500687412
0.93445633790772
0.93406018779285
0.93357930722334
0.9330089576958
0.93235236456778
0.93161688097109
0.93082009170244
0.92993352161895
0.9262249644141
0.97186758674621
0.97950053896074
0.98068542606528
0.98142582870552
0.98193472742263
0.98226399225005
0.98241395328385
0.98239178080788
0.98221024776808
0.98187392190602
0.98141915249182
0.98084797261352
0.98015986645822
0.97937039688761
0.97849606493069
0.97754879684171
0.97654384022293
0.97549842435956
0.97442894666726
0.97335014968951
0.97227508774428
0.97121510015115
0.9701781299424
0.96916965564749
0.96819311153586
0.9672505070989
0.96634282145359
0.96547009160865
0.96463174960373
0.9638267990141
0.96305403734104
0.96231214346087
0.96159975689554
0.96091542793105
0.96025772112406
0.9596252690391
0.95901675689964
0.95843090279882
0.95786643884737
0.95732216790141
0.95679696187146
0.95628982457391
0.95579983415756
0.95532604351245
0.95486761495694
0.95442381009153
0.95399387603652
0.95357712244657
0.95317291298364
0.95278063676121
0.95239972238699
0.95202962799682
0.9516698408886
0.95131989691541
0.95097935457027
0.95064780178101
0.95032488007114
0.95001023092063
0.94970346097064
0.94940419398749
0.94911227236382
0.94862440635771
0.94690020235881
0.94517106455939
0.94286361713398
0.93977952192603
0.93660089732214
0.93613949969668
0.93632905731113
0.93649900838169
0.93664727627856
0.93677985512479
0.93689747902671
0.93699698126791
0.93707312176254
0.93712174910857
0.93714044082431
0.93712918803152
0.93709098495808
0.93703412307208
0.93697540491457
0.93693733462478
0.93693137110504
0.93694964486073
0.93695954053613
0.93699662347464
0.93702542000886
0.93704176993664
0.93704705990784
0.93704592219717
0.93703835146273
0.93702495300374
0.93700920848864
0.93699308681336
0.93697610781037
0.93695690760608
0.93693478290303
0.93690964011005
0.93688187316642
0.93685186431443
0.93682025840406
0.93678743589798
0.93675365225395
0.93671909435649
0.93666247617421
0.93661781148786
0.93656866389482
0.93651452849912
0.93645231069209
0.93638069501864
0.93629667113989
0.93619669478178
0.93607736631155
0.93593584969525
0.93577193190515
0.9355868485015
0.93538650254647
0.93517683200928
0.934960140528
0.93473269156114
0.93449088769224
0.93423789802704
0.93396683973796
0.93367512475242
0.93334954426736
0.93297989587399
0.93253567337878
0.93199539060596
0.93129852009461
0.93041918440147
0.92931666516368
0.92796989572287
0.92634652881382
0.92443306232881
0.9222450271249
0.91980155823421
0.91713777063402
0.91429002812728
0.91097559147632
0.89952669967125
0.96762569074469
0.97570435789642
0.97695179496752
0.97771823549995
0.97830309669522
0.97873374976569
0.97904274015958
0.97919785554687
0.97920567348965
0.9790927168097
0.97883087942365
0.97845342260998
0.97797917334928
0.97739241641977
0.97670560887338
0.97593871346754
0.97510584361724
0.97421966711719
0.9732962641219
0.97234989734217
0.9713931559805
0.97043636141974
0.96948938386101
0.96855909692883
0.96765045162775
0.96676684484477
0.96591038219827
0.96508218649398
0.96428270018999
0.96351182282363
0.96276901263938
0.96205349183773
0.96136436150534
0.96070060905657
0.96006114782062
0.95944488676664
0.95885075880953
0.9582777549597
0.95772487187722
0.95719105322303
0.95667531791162
0.95617672479694
0.95569446790415
0.95522775071975
0.95477572321383
0.95433769651398
0.95391306310356
0.95350116736027
0.95310139750326
0.95271320207061
0.95233605296532
0.95196943941598
0.95161288551423
0.95126594481891
0.95092818154166
0.95059921642858
0.95027870102612
0.94996626896234
0.94966155356132
0.94936426732648
0.94907423891838
0.94867374540182
0.94704000200451
0.94537791299169
0.94318545006206
0.9402346707107
0.93706155158525
0.93623927343129
0.93635957173044
0.93653084916913
0.93669566143429
0.93685697072466
0.93701289577153
0.93715754443999
0.93728071406068
0.93737301295185
0.93742728259085
0.93743990260092
0.93741308678278
0.93735199695649
0.93726990845872
0.93719037734182
0.93714193327681
0.93713423848256
0.9371262908391
0.93715501576762
0.93717691817344
0.93718501177897
0.93718383567959
0.93717418337269
0.93715727190684
0.93713779106746
0.93711703991854
0.93709287856366
0.93706297012673
0.93702720885512
0.9369882496274
0.93694681456174
0.93690150894045
0.93685098769947
0.93679529476696
0.93673488137336
0.93666990802475
0.93658446192829
0.93625609914903
0.93611043733203
0.93593866773163
0.93573917935845
0.93549509262199
0.93519787931488
0.93483558302504
0.93439520499461
0.93386757277997
0.93324835012584
0.93254170446074
0.93176362417545
0.9309246184748
0.93005370548078
0.92913691025287
0.92818689197708
0.92719485378583
0.92617497342935
0.92510584207557
0.92396930949677
0.92271237337251
0.92129023102319
0.91960797039721
0.91763163866892
0.91524472062092
0.91240615330503
0.90903732237914
0.90509967416191
0.90056601603562
0.89545003646005
0.88984504857411
0.88384621896037
0.87759713136218
0.87117870601289
0.86392703977213
0.84734848900258
0.9636524082755
0.97268215048476
0.97400710276038
0.97476814833615
0.97535731250634
0.97582243156051
0.97618364092277
0.97643264762094
0.97655810350145
0.97656501939103
0.97646885882452
0.9762349897928
0.97589550275983
0.97547759157074
0.97495891556803
0.974347656379
0.97366210659715
0.97291860179465
0.97212901618908
0.97130508601845
0.97046011281884
0.96960488585406
0.96874771508555
0.96789680533338
0.96705805010479
0.96623566914721
0.96543277785771
0.96465158067426
0.96389340945474
0.96315891888321
0.96244824978767
0.96176121332767
0.96109738027296
0.96045614606099
0.95983680227648
0.95923857022292
0.95866058920507
0.95810202487829
0.95756213446083
0.95704008045313
0.9565350011617
0.95604609388541
0.95557259641313
0.9551138725188
0.95466920832593
0.9542378714407
0.95381930050344
0.95341297692772
0.9530183448358
0.95263487501866
0.95226207759189
0.95189949273837
0.9515466879113
0.95120323418682
0.95086871830064
0.95054277818607
0.9502250562246
0.9499152117677
0.94961293420325
0.94931797614545
0.94903002799023
0.94869022792904
0.94719533751602
0.94559833077124
0.94353421242754
0.94073966595452
0.93758709038128
0.93633140979532
0.93630611012546
0.93644710787935
0.93661221422477
0.93679775474978
0.93699939918447
0.93720423398544
0.93739457244725
0.93755113314795
0.93765873050316
0.93770897638565
0.9377030483992
0.93764799774202
0.93755604227529
0.93745007462811
0.93736489352541
0.93732500380793
0.93730143344441
0.93731362741404
0.93732156168583
0.93731884485902
0.93730492365491
0.93728129899299
0.93725287743793
0.93721954979816
0.93717744534424
0.93712749747061
0.93706681438992
0.93698636860495
0.93688055325916
0.93674667755176
0.93658440849702
0.93639480072322
0.9361800757954
0.93594187116612
0.93567931114103
0.93532360104605
0.93377068459656
0.93315281897527
0.93243718540033
0.93161483507773
0.93064172399834
0.92949405394148
0.92813921209161
0.92654975371855
0.92471408682911