/*--------------------------------*- C++ -*----------------------------------*\
| =========                 |                                                 |
| \\      /  F ield         | OpenFOAM: The Open Source CFD Toolbox           |
|  \\    /   O peration     | Version:  2312                                  |
|   \\  /    A nd           | Website:  www.openfoam.com                      |
|    \\/     M anipulation  |                                                 |
\*---------------------------------------------------------------------------*/
FoamFile
{
    version     2.0;
    format      ascii;
    arch        "LSB;label=32;scalar=64";
    class       volScalarField;
    location    "5e-05";
    object      Ybar.Liq;
}
// * * * * * * * * * * * * * * * * * * * * * * * * * * * * * * * * * * * * * //

dimensions      [0 0 0 0 0 0 0];

internalField   nonuniform List<scalar> 
109340
(
0.99907635980832
0.99907325194825
0.99906667361405
0.99905851888904
0.99904936760836
0.99903970766968
0.99902963112219
0.99901896257375
0.99900746327917
0.9989943959923
0.99897872846906
0.99895935822964
0.99893499417787
0.99890411444816
0.99886493375864
0.99881535762867
0.9987529050762
0.99867461198791
0.99857689452315
0.99845536885384
0.99830460463912
0.99811782512942
0.99788650219581
0.99759980875908
0.99724384885892
0.99680057100413
0.9962461662904
0.99554863316622
0.99466390771157
0.99352944258604
0.99205295844263
0.99009149619408
0.98740973198228
0.98359242931281
0.97785077002922
0.96856360796414
0.99907710152527
0.99907291296879
0.99906544493651
0.99905668192922
0.99904722954264
0.99903751048079
0.99902752031527
0.99901694456496
0.99900522786577
0.99899163024254
0.99897519352816
0.99895477628479
0.99892902928562
0.99889636567808
0.99885492570011
0.99880252011684
0.99873656193094
0.99865394861411
0.99855091648759
0.99842284650184
0.99826400642892
0.99806722588866
0.99782346298089
0.99752120987346
0.9971456562637
0.99667749686332
0.99609116273057
0.99535210110287
0.9944124126196
0.99320350744314
0.99162303208663
0.98950991727329
0.98659290112446
0.98237729308038
0.9758649839696
0.96489231557087
0.99907921407842
0.99907426651003
0.99906598729179
0.99905700636892
0.99904764387352
0.99903808054345
0.99902817585895
0.99901762331518
0.99900593660293
0.99899238520547
0.998976019437
0.99895569352296
0.99893005323834
0.99889750870633
0.9988561997861
0.99880394176584
0.9987381476424
0.99865571823344
0.99855289158101
0.99842505107754
0.99826646144872
0.9980699476822
0.99782645948623
0.99752447706721
0.99714917218003
0.99668121360135
0.99609499828116
0.99535593283922
0.99441606624282
0.99320673541648
0.99162545557813
0.98951065338918
0.98658793372619
0.98234619823864
0.975704986949
0.96405374793677
0.9990821509163
0.9990760611976
0.99906734608348
0.9990581027492
0.99904855396628
0.99903878951951
0.9990287474184
0.99901813714793
0.99900645027888
0.99899294774632
0.99897667769649
0.99895648826853
0.99893101760974
0.99889866917518
0.9988575743101
0.99880553796794
0.99873996181756
0.99865773270489
0.99855506537754
0.99842731536716
0.99826869446498
0.99807195698841
0.99782795362453
0.99752502439928
0.99714815144082
0.99667773558273
0.9960878020433
0.9953432384818
0.99439536360499
0.99317444268712
0.99157633877579
0.989436729774
0.98647356727487
0.98214825269526
0.97524970575232
0.96232484139267
0.99908676178954
0.99907867272233
0.99906860482587
0.99905869382625
0.99904887126968
0.99903901056573
0.99902896298214
0.99901842767694
0.99900686953597
0.99899353256435
0.99897745815152
0.99895747570726
0.99893219231123
0.99889996742047
0.9988588674881
0.9988066068864
0.99874046386348
0.99865715758817
0.99855262546494
0.99842194365608
0.99825885463704
0.99805550700678
0.99780192082961
0.99748529978687
0.99708908912195
0.9965915750963
0.99596388603806
0.99516689941978
0.99414630682539
0.99282428287002
0.99108449277076
0.98874444878559
0.98548761467039
0.98069856634062
0.97290418414634
0.9569220278154
0.99909528524848
0.9990799985951
0.99906879852919
0.99905861923596
0.99904873697276
0.99903885022792
0.99902872215645
0.9990178904584
0.99900562206235
0.99899087926718
0.99897233465786
0.99894834752851
0.99891693656212
0.99887572911517
0.99882188553573
0.99875199361207
0.99866192980003
0.99854671935511
0.99840040022856
0.99821471170388
0.99797954287241
0.99768202114917
0.99730564984618
0.99682916857433
0.99622497310378
0.9954568783559
0.99447688132135
0.99322020084958
0.99159730319489
0.98948045997439
0.98667916845761
0.98289854458787
0.97762390680782
0.9698536978806
0.95712250276588
0.92904414978257
0.9526613666838
0.92606022357678
0.88531333369653
0.82998134272012
0.76290521649653
0.68640214785082
0.6035797376447
0.51834997188194
0.43470047424866
0.35624036915751
0.28503313775828
0.22472076919352
0.17573420699053
0.13639186523872
0.10602589548066
0.082693843095707
0.064943860582987
0.051463214189516
0.041176042012816
0.033304476344217
0.027246528910819
0.022519111475274
0.018793880846009
0.015839684156868
0.013467926862819
0.011541857410435
0.0099659971210286
0.0086641568155146
0.0075974474324192
0.006686193701801
0.0059085596632191
0.005277847508006
0.0047022802532732
0.0042382484538133
0.0038135185560475
0.0034579015048491
0.0031399577593761
0.002859289156152
0.0026186717627559
0.0023955331872537
0.0022080958601255
0.0020301738587188
0.001880301953012
0.0017374846539576
0.0016155445459492
0.0015001212886438
0.001399102507689
0.0013053362355956
0.0012203550003934
0.0011431400267131
0.0010714460039334
0.0010063784966152
0.00094603458690314
0.00089073575073907
0.00083967510875205
0.00079246903851733
0.000748727600205
0.00070814950310462
0.0006704482367938
0.00063536734431345
0.00060227312262974
0.0006803423183342
0.0023603207039101
0.0028301212468141
0.0028744691018899
0.0028361760615001
0.0027448401856773
0.0026886723956801
0.0026202093167182
0.0025473597020035
0.0024851490986184
0.0024494713680005
0.0024711000826055
0.0025321210450059
0.0025641168094095
0.0025844252770063
0.0026350338581461
0.0027149166877828
0.0028037861059521
0.0028884919236575
0.0029653533001363
0.0030341397002045
0.0030959212927393
0.0031527944232474
0.0032163672456179
0.003270390551708
0.0033171822151845
0.0033572106708584
0.0033893387640592
0.0034113310409993
0.0034240766783201
0.0034303717631756
0.0034292632468289
0.0034174791681904
0.0033961059786561
0.0033662384505251
0.0033312550037879
0.0032900253680072
0.0032444762006607
0.0031965033531022
0.0031449997417209
0.0030909261399385
0.0030363613831003
0.0029836947179141
0.0029239024826041
0.0028935567256998
0.0028550352972039
0.0028429756046504
0.0028554912850589
0.002891788300675
0.0029337450042467
0.0029710337964005
0.0030086648468529
0.0030480877741936
0.0030882889073471
0.0031283336907773
0.0031607259814662
0.003187493001742
0.0032067354717959
0.0031803469871953
0.0031220449514041
0.0030426862047368
0.0029520945980923
0.002856122125815
0.0027648124921937
0.0026688061287017
0.0026054565111963
0.0025683052832857
0.0025560066062741
0.0025775477210519
0.0026202925796371
0.0026837337264391
0.0027647847749104
0.0028459185570119
0.0028937242224826
0.0029373273787851
0.0029674648511928
0.003002637456104
0.0030438111249728
0.0023317234202105
0.94494486074681
0.91091172175959
0.86054050601805
0.79620608957152
0.72118333323738
0.63942916983509
0.55456749395808
0.47075171482816
0.39143420288815
0.31922953460789
0.25579231921063
0.20192420119795
0.15868173752385
0.12422108416665
0.097153434072588
0.076297101258128
0.060281838677275
0.048022382399683
0.03863151212644
0.031394796690312
0.02577657529654
0.021381592194781
0.017908509679079
0.015135069005701
0.012901138648909
0.01108571895502
0.0095953376839392
0.0083621057987145
0.0073334608238065
0.006470130316907
0.0057380392408702
0.0051143554707505
0.0045799315224224
0.0041183810419112
0.0037190472077603
0.0033696613099886
0.0030646816751964
0.0027954453731502
0.0025582402378144
0.0023473245298314
0.0021597683318232
0.0019919556161246
0.0018417071717012
0.0017063240399883
0.0015844332350592
0.0014738988240155
0.0013738804336198
0.0012826147527289
0.0011996349159633
0.0011235647608975
0.0010540559353065
0.00099013525797672
0.00093132335286144
0.00087708234450239
0.0008270273778484
0.00078071889254109
0.00073782648571667
0.00069799990852311
0.0006609692815835
0.00062652854341608
0.0005944471102492
0.00089620385219855
0.0025752574583413
0.0028333972532229
0.0028553547773008
0.002805249376383
0.0027228229778165
0.0026673729685974
0.0025971220475187
0.0025255886120749
0.00246855292193
0.0024474891617318
0.0024818250473185
0.0025399546040035
0.0025645201786927
0.0025924017612612
0.0026548214861015
0.0027403471519908
0.0028292417204845
0.0029119244216768
0.002986533043673
0.0030533641638898
0.0031137517043214
0.003169992019997
0.0032137377423169
0.0032634248294574
0.0033089881320335
0.0033482391306183
0.0033800386918556
0.0034020158655969
0.0034152569511049
0.0034218699775794
0.0034198324576812
0.0034073440406944
0.0033862076965506
0.0033569725747485
0.0033228718854342
0.0032824750706722
0.0032380735379998
0.0031910021226955
0.0031403184269333
0.0030874713482057
0.0030345813099976
0.0029831386427486
0.0029253769063903
0.00289351748109
0.002857904078773
0.0028455564146998
0.0028526592444776
0.0028881835489126
0.0029288160329315
0.002966430266624
0.0030062154453378
0.0030465989250096
0.0030875313184927
0.0031278865741256
0.0031603511668003
0.0031874617538491
0.0032051001615192
0.0031770092130143
0.0031204616780774
0.0030430459974911
0.0029538375623003
0.0028588103145181
0.0027678224114643
0.0026724018486588
0.0026090741093114
0.0025726779781739
0.0025580567484653
0.0025788215456328
0.0026219283838389
0.0026842731727544
0.0027609520183439
0.0028341791338881
0.0028846603077407
0.0029290250317642
0.0029620946647314
0.0029976437682768
0.0030361545802408
0.0023280791664961
0.94072955035962
0.89781781163614
0.83643609349863
0.76109536073966
0.67710321660254
0.59043955830338
0.50604393740996
0.42640132537798
0.35369464146503
0.2885302521284
0.23352929402495
0.18677768853169
0.14829110225269
0.11726004533454
0.092624084935349
0.07330634064127
0.058307766625882
0.046724598988861
0.037767474343552
0.03080193362674
0.025360509579393
0.021087583313654
0.017696182906607
0.014978167314331
0.012785158516889
0.01099805377411
0.0095278909543613
0.0083101119171835
0.007293036797391
0.0064371644760316
0.0057123657990641
0.005093409493671
0.0045630662087122
0.004104665025971
0.0037071079992857
0.0033603513711918
0.0030562636586258
0.0027889850516356
0.0025523045255202
0.0023426258936376
0.0021554745856784
0.0019885546323663
0.0018384985930293
0.0017038003125146
0.0015819984898314
0.001472009480507
0.0013719939279852
0.0012811454896659
0.0011981596132369
0.0011223806748366
0.0010528838090051
0.00098912259352874
0.00093041806922109
0.00087630712160403
0.00082630784544948
0.00078005916296561
0.00073721065934039
0.00069743267943447
0.00066045124886717
0.00062606006056283
0.00059394584978632
0.00088132187144069
0.0025641577208142
0.0028259182968739
0.0028478668872135
0.0027980278720468
0.0027150458299592
0.002660183433099
0.0025900794141468
0.0025187216244851
0.0024624239720165
0.0024430661153277
0.002477312270892
0.0025337392618623
0.0025588815644145
0.002590839884423
0.0026569809542416
0.0027443148283255
0.0028336719989231
0.0029164302080217
0.0029910484235607
0.0030577864726883
0.0031181498541119
0.0031745916209922
0.0032229304103533
0.0032757118191784
0.003323875986019
0.0033654266846363
0.0033989062993498
0.0034218870475045
0.003435539945877
0.0034416155536713
0.0034378894810503
0.0034243792842529
0.0034023096285482
0.0033730730291701
0.003337937090023
0.003295587374056
0.0032503876321142
0.0032018113689802
0.0031501303883884
0.0030970912377204
0.0030444196610929
0.002993300124443
0.0029349079797628
0.0029017827977708
0.0028685661618704
0.0028535614654306
0.0028531241712108
0.0028993762410758
0.0029385997925597
0.0029761514655598
0.0030161553498384
0.0030553571683763
0.0030956507141825
0.0031352163813349
0.0031669726359118
0.0031945406244504
0.0032095826215088
0.0031762268370914
0.0031182997667772
0.0030414790752603
0.0029540736755485
0.0028611686541326
0.0027719845471783
0.0026778710370346
0.0026160496094702
0.0025806354595636
0.0025630284476476
0.0025877146527802
0.0026327777522694
0.0026949636625561
0.0027701628433242
0.0028447312664215
0.0028985162949983
0.0029420626517679
0.0029772273493359
0.0030042460871576
0.0030262580534405
0.0023486027946015
0.93125711915871
0.86810058770484
0.78407101364734
0.68929841343639
0.5972386574128
0.51092979678072
0.43301368221522
0.36393387703066
0.30321937795973
0.24968515162294
0.20597985868466
0.16766173049093
0.13523834844267
0.10849907636906
0.086750413058744
0.069423776215337
0.055744540858977
0.044997601199655
0.036583771297688
0.029996817527617
0.024807513430521
0.020683562490153
0.017401623078716
0.014765561790845
0.012625241208388
0.01087463824608
0.0094340799322543
0.0082373406044096
0.0072354548220408
0.0063911938281468
0.0056751877976646
0.0050638183740522
0.004538376114327
0.0040847217257857
0.0036902360555291
0.0033463805016052
0.0030446721478064
0.0027790449636462
0.0025440616852789
0.0023354488115139
0.0021495676328003
0.0019832793442428
0.0018341039420013
0.0016998818666545
0.0015786955305708
0.0014690214664623
0.0013694136311832
0.0012788422770213
0.0011961302949651
0.0011205675558631
0.0010512513815659
0.00098765299022196
0.00092910751572012
0.00087513947900847
0.00082526053247619
0.00077911895894006
0.00073634867724311
0.00069664540585971
0.00065973019957398
0.00062540029436493
0.00059324997400129
0.00086178599915873
0.0025457430867472
0.0028150830611251
0.0028373307468587
0.0027880741507897
0.0027042776738571
0.0026498548971083
0.002579666404404
0.0025081647403383
0.0024525623219631
0.0024351605564004
0.0024694425309213
0.0025233634933231
0.0025496173957068
0.0025870960766756
0.0026580416736884
0.0027477317745849
0.0028379409523815
0.0029210393402003
0.0029956415042157
0.0030621500587707
0.0031223537654525
0.0031787285487789
0.0032257966484428
0.0032783840677546
0.003326337288097
0.0033678555062876
0.0034014249108215
0.0034245684284717
0.0034384010078316
0.0034443182090939
0.0034403621733541
0.0034269206126397
0.0034047056202785
0.0033764938480597
0.0033412769579444
0.0032984724235114
0.0032534996948616
0.0032049510265745
0.003153647798824
0.0031014054396277
0.0030493890047068
0.0029995973186516
0.0029430322071367
0.0029082112347353
0.0028776615784588
0.0028649419719686
0.0028565741000167
0.0029037987544811
0.0029422908092962
0.0029782212831695
0.0030188897212277
0.0030590071722231
0.003100551172742
0.0031405379669399
0.0031719408134055
0.0031985370726192
0.0032102894462035
0.0031734520120737
0.00311480480168
0.0030389181835242
0.002953218980173
0.0028630499061309
0.0027768885006826
0.0026859973501729
0.0026261409086963
0.0025923221016812
0.0025748233962165
0.0026016776350864
0.0026454933908954
0.0027043162584904
0.0027749330085421
0.0028462722664336
0.0029022340839762
0.0029456434886359
0.0029848183221557
0.0030080489657325
0.0030253269235179
0.0023349167054111
0.8994669171042
0.78337593128205
0.66037750794215
0.55425144602798
0.47023843690738
0.40042518285313
0.34244358675046
0.29213994760406
0.24915190880551
0.21086517754235
0.17676744842856
0.14669082566983
0.12061045331198
0.098473646758968
0.08002823836373
0.064888514663033
0.052671325106786
0.042919749341218
0.035162350766792
0.028998214801075
0.024097441617452
0.020189178843188
0.017038325593503
0.014491562928363
0.012420448927654
0.010721502908856
0.0093145683686447
0.0081437038748355
0.0071619188932842
0.006332796304117
0.0056277631136744
0.0050254005710011
0.0045070482372604
0.0040586436240204
0.0036688371835866
0.0033283679337049
0.0030296160666901
0.0027662033291033
0.0025332859475615
0.0023262209803513
0.0021416871911624
0.0019764627438635
0.0018282875630054
0.001694775293164
0.001574286349921
0.0014650985505679
0.0013660321230999
0.0012757931677802
0.0011934692823212
0.0011181480919133
0.0010491282887367
0.00098572772296464
0.00092737821946419
0.00087356616489888
0.00082385711739752
0.0007778570366039
0.00073521488431488
0.00069561193239256
0.00065878296060171
0.0006245398859902
0.00059235434563174
0.00083778392497468
0.0025223045463788
0.0028009222542291
0.0028239006409868
0.0027755687552829
0.0026907806653393
0.0026365632146282
0.0025659919463184
0.0024942473912555
0.002439335390998
0.0024241665921917
0.0024580418327291
0.0025083586380875
0.0025366961151655
0.0025809143294861
0.0026572699664611
0.0027495883011996
0.0028410131077077
0.0029246769916143
0.0029992088506227
0.0030653875888485
0.0031252962952963
0.0031813169706596
0.003229334366919
0.0032817522692756
0.0033296800952852
0.0033710624139901
0.0034044389579248
0.003427366331312
0.0034408026165678
0.0034462238597469
0.0034419743850947
0.0034282340371465
0.0034065550055673
0.0033792960294254
0.0033438208118458
0.0033008157304719
0.003256306068637
0.0032080909728736
0.0031574077524609
0.0031060426707253
0.0030549874666477
0.0030058692002459
0.002951447010644
0.0029162977999411
0.0028874479497444
0.0028752903172657
0.0028628803230909
0.0029080464121512
0.0029460694719034
0.0029810775473765
0.0030225478420498
0.0030643747130931
0.0031072438380051
0.0031467145080616
0.0031770712211255
0.0032016663386549
0.0032097630546428
0.0031697629109671
0.0031098251636006
0.0030347619798192
0.0029513188138842
0.002865175538525
0.002783016449234
0.0026966383511169
0.0026397828310014
0.0026076584211706
0.0025934743281232
0.0026199496084535
0.0026598787125474
0.0027164719162656
0.0027825934544542
0.0028490336684049
0.0029054695120935
0.0029502941255001
0.0029916410675293
0.003012217632861
0.0030214034076269
0.0023247520926268
0.67557145374957
0.48849016922268
0.40974358048183
0.36099659152365
0.32192518414975
0.28704430020609
0.25514525455824
0.22622514867963
0.19882399744625
0.1726513473429
0.148244957329
0.12593249021963
0.10580152337077
0.088051587531767
0.072783486773857
0.059926096721121
0.049273477019366
0.040570239612449
0.033526852333515
0.027850440105736
0.023278897815554
0.019589285079226
0.016606446834264
0.014171515033842
0.01217681459593
0.010534254736669
0.0091722326350899
0.0080318281491912
0.0070727335546063
0.0062615577188847
0.0055710417502593
0.0049786482947466
0.0044686776542861
0.0040271428580554
0.0036428804022456
0.0033064257394969
0.003011184323048
0.0027507749784948
0.0025200393123419
0.002314944634653
0.0021319769901677
0.001968202019368
0.0018210628374237
0.0016885105115258
0.0015687980021466
0.0014603323710456
0.0013618100065177
0.0012720427118846
0.0011901417669369
0.0011151931159
0.0010464953986262
0.00098334709732427
0.00092522986083941
0.0008716259313021
0.00082211454099865
0.00077627733844323
0.00073378983995396
0.00069431707104871
0.00065761666514872
0.00062348390418245
0.00059129129494939
0.00081016353765839
0.0024942942731464
0.0027837470929626
0.0028078912980297
0.0027606219235129
0.0026752183715849
0.0026208969604896
0.0025497457868694
0.0024774810157977
0.0024228025367947
0.0024097282444767
0.0024434684921383
0.002489854980301
0.0025209604500708
0.0025724813187304
0.0026546628300637
0.0027499840670816
0.0028429332053116
0.0029271918260267
0.0030015097256346
0.0030672700080517
0.0031266847415264
0.0031819935107099
0.0032299167258623
0.0032822028939137
0.0033300681331809
0.0033711822623632
0.0034042876915588
0.0034269404704812
0.0034399288234435
0.0034450050295996
0.0034406348942246
0.0034265704400592
0.0034063298980191
0.0033797435179918
0.0033440361904196
0.0033012305424821
0.0032574456906586
0.0032101740175982
0.0031604034726426
0.0031101539213589
0.00306036133525
0.0030104889720314
0.0029587818706246
0.0029243892940183
0.002896532320857
0.0028859150004984
0.0028711337112568
0.0029133510829923
0.0029499013850928
0.0029834193320333
0.0030253243638939
0.0030695285314873
0.0031130898527503
0.0031513012843062
0.0031800527886041
0.0032020884683879
0.0032057863423015
0.0031633447038668
0.0031031789668897
0.0030304617140016
0.0029503613666942
0.0028682916163648
0.0027901396177224
0.0027096108429187
0.0026554492958364
0.0026255361381166
0.0026233033401117
0.0026386342020385
0.0026781062034623
0.0027274233261289
0.0027880062696464
0.0028481474272671
0.0029046470353462
0.0029514489866791
0.0029940316322883
0.0030128542045896
0.0030117454472151
0.0024605701332092
0.02224370211665
0.15457891581766
0.19042088771125
0.20398844960333
0.20615687585604
0.20023053286443
0.18860782260373
0.17450333343303
0.15895036950039
0.14278939611869
0.12647518945085
0.11049937859795
0.095269418034773
0.08115013729938
0.068440951167126
0.057322115328995
0.047807637566988
0.039819898876631
0.033205051498329
0.027775515525336
0.023338681445332
0.019719121807131
0.016760806417792
0.014339575199887
0.012344387313556
0.010687492874596
0.00931182233096
0.0081598637767252
0.0071895169867294
0.0063646146756784
0.0056627706214447
0.005061289610231
0.0045428960125369
0.0040929999574603
0.0037018840502455
0.003359819848745
0.0030591904194667
0.0027938212925913
0.0025589921423451
0.0023503103015434
0.0021640005789867
0.0019972463259028
0.0018475381764044
0.0017127417071053
0.001590935457437
0.0014805745709745
0.0013803691267028
0.0012891430989119
0.0012058880806683
0.0011297023389807
0.0010598725509868
0.00099573536810782
0.00093671805912329
0.0008822837485673
0.00083199945751259
0.00078546663572879
0.00074235224823144
0.00070234110206658
0.00066514454355098
0.00063048720008306
0.00059797498726147
0.00062628024435903
0.0021913825353418
0.0027380633662855
0.0027906044841205
0.0027604788332153
0.0026763325511645
0.0026186330802357
0.0025495186028877
0.0024746304022612
0.0024130131182515
0.0023883388871965
0.002412593264719
0.0024578066222921
0.0024920479947378
0.0025440335853084
0.0026267198311135
0.0027243361029134
0.0028207851071187
0.0029084894254566
0.0029850248244283
0.00305206261574
0.003112192141364
0.0031673169830662
0.0032294839965987
0.0032819300110982
0.0033295738258284
0.0033699372594066
0.003402449980533
0.0034244627013546
0.0034367858447793
0.0034417432835692
0.0034368849942033
0.0034228931423872
0.0034044001820013
0.0033777253956122
0.0033422279447413
0.0033003827691184
0.0032573424752063
0.0032111631401626
0.0031625116812298
0.0031130966644814
0.0030639293373344
0.0030151414696441
0.0029690096922453
0.0029389002305112
0.0029145078148245
0.0029031510495552
0.0028857177301813
0.0029208412738462
0.0029538076665744
0.0029879278920249
0.0030258529843399
0.0030727616953469
0.0031161197643624
0.0031522290032711
0.0031781658848319
0.0031959038172321
0.0031915744495436
0.0031491729957031
0.0030895642555897
0.0030223114039473
0.002948040301982
0.0028724653766199
0.0028020295632856
0.0027304531718857
0.0026874905605425
0.0026630222109926
0.0026656527036769
0.0026702723590818
0.0027082049182279
0.0027432660187672
0.0027916107579212
0.0028379762906888
0.0028853495288082
0.002927727851826
0.0029671693173607
0.0029849238658289
0.0029774728675999
0.0043297199171601
0.0098199334301206
0.026817939150603
0.048066270065174
0.065762008376559
0.079206842466148
0.088239640683904
0.092957401635267
0.094172505920017
0.091713716485197
0.087344396899953
0.08149581758316
0.07455909744698
0.067055772088872
0.059361137899268
0.051839835240122
0.044799575067476
0.038426559098376
0.032802685022702
0.027947323784966
0.023818134363859
0.020339731676746
0.017426079557972
0.014991190096239
0.012955044175394
0.011250591619904
0.009821380016522
0.0086168988027373
0.0075937321223784
0.0067240773303473
0.0059819149117309
0.0053449192359346
0.0047945302700364
0.0043168822204143
0.0039016232080422
0.0035384145042314
0.0032193447428551
0.0029375435850394
0.0026883825135171
0.0024670149195714
0.0022695672239029
0.002092812540453
0.0019343202285837
0.0017916840297672
0.0016629637299829
0.0015464002366257
0.0014406089485861
0.0013444116581048
0.00125668579733
0.0011764906337654
0.0011030003706802
0.0010355700223721
0.00097356220277524
0.00091643226462339
0.00086368553730481
0.0008149102021015
0.00076975360574145
0.00072785781648618
0.00068894310336531
0.0006527605493826
0.00061905703834141
0.0005871627273686
0.00071614827024644
0.0023761985940378
0.0027159259136713
0.0027465628948876
0.0027054667436018
0.002620775930551
0.0025558553866604
0.0024779272876391
0.0024007459971967
0.0023441708392042
0.0023337618553062
0.0023644727967748
0.002403681734015
0.002452413937822
0.0025320345302427
0.0026346958739573
0.0027417877038971
0.0028415408508572
0.0029283896027641
0.0030012807273763
0.0030646095578087
0.0031203397215629
0.0031724202356611
0.0032228192206444
0.0032762160140238
0.0033228957382919
0.003360799668677
0.0033916506321685
0.0034120279978944
0.0034233484645139
0.0034285694639178
0.0034214150899424
0.0034095437008526
0.0033941362016377
0.0033647765115941
0.0033322989204004
0.0032931707872125
0.0032523347649702
0.0032090031444623
0.0031630009948899
0.0031153870175764
0.0030681304866554
0.0030238863557128
0.0029807952932731
0.0029570257832092
0.0029386535901834
0.0029251006361321
0.0029079108071504
0.0029328303605827
0.0029561835592746
0.0029937776563199
0.0030309284742161
0.0030729440516397
0.0031136026769793
0.0031440870068396
0.0031641539781186
0.0031795917436264
0.0031638838418613
0.0031268770138677
0.0030682869977958
0.0030097476681173
0.0029431786171405
0.0028756772584716
0.0028171548248534
0.0027582274319997
0.0027265965103001
0.002706923695209
0.0027072394270378
0.0027004166340491
0.0027226878409738
0.0027421408619161
0.0027758825548151
0.0028073344913089
0.002836851723132
0.0028535688759584
0.0028709126824112
0.0028396126861459
0.0028123951347564
0.0051174431948626
0.0078157480109694
0.011682787095829
0.019020503126445
0.027883625633012
0.036211712930022
0.043298663406572
0.048874041338342
0.052689558591979
0.05485987437847
0.055264419416211
0.054039310001785
0.05169493232233
0.048422058600218
0.044547575657097
0.04027615239634
0.035919971727496
0.031689171675071
0.027737185867799
0.024151787404966
0.020971813112182
0.018197764716839
0.015805571957593
0.013756529477961
0.012007949528229
0.01051727946851
0.0092470660531451
0.008162700880755
0.0072344465159904
0.0064380824393209
0.0057506104730207
0.0051552663757174
0.004639071263572
0.0041890641203664
0.0037956091610791
0.0034497143024734
0.0031442545554155
0.0028743645588173
0.0026346791882012
0.0024212691557991
0.0022301059547454
0.0020588829725504
0.001904924279209
0.0017661393967874
0.0016405787242142
0.0015267068648062
0.0014233118196424
0.0013291212269839
0.0012431458671553
0.0011644150002109
0.0010922253804578
0.001025933519909
0.00096491845607015
0.00090865033286327
0.00085665053678716
0.00080855540351563
0.00076398847234831
0.00072262510458727
0.00068419616141625
0.0006484326645469
0.00061507915573067
0.00058348387094199
0.00065652684276459
0.0022553472896941
0.0026579404822028
0.0026948396625508
0.0026574803692164
0.0025692594521554
0.0024882754284521
0.0024037122989743
0.0023217113397919
0.0022623502479586
0.0022501118902443
0.0022762240668239
0.0023185986452465
0.0023868448299594
0.002488176131529
0.0026067839529861
0.002724583321455
0.0028317118395982
0.0029226059122844
0.0029955600377505
0.0030569451682971
0.003109248394937
0.0031588743075668
0.0032116280520804
0.0032655590808662
0.0033094463184955
0.0033436323632013
0.0033726161984806
0.0033915662032428
0.0034021043302943
0.0034069449763482
0.003396993580433
0.0033908620391556
0.0033726015621947
0.0033427231318643
0.0033129950877198
0.0032769385067734
0.0032394751222566
0.0031991591298185
0.0031563408628965
0.0031120927738145
0.0030692705831026
0.0030294275692889
0.0029906992128782
0.0029729311385256
0.002960994844845
0.0029460638720453
0.0029306906684269
0.0029425469817609
0.0029539150257178
0.0029875760917364
0.0030187830151019
0.0030546040319283
0.0030855272276989
0.0031101714798189
0.0031229013845003
0.0031103362251857
0.0030774117266972
0.0030414013098543
0.0029821025672327
0.00292669732161
0.0028657621221822
0.0028039960742648
0.0027573749553388
0.0027076020476334
0.0026933884607526
0.0026625553664775
0.0026540707930424
0.0026215001150975
0.0026066023699095
0.0025855278665914
0.0025691069090102
0.0025383976674834
0.0025079666238376
0.0024608384215241
0.0024157261104512
0.0023364867190254
0.0022621234888746
0.0045187527965705
0.0062289967495475
0.0082342671201095
0.010487809414426
0.014886163844942
0.019775392825087
0.024447403676368
0.028625345067624
0.032052963271099
0.034627968868413
0.036238318288207
0.036847072684466
0.036373606229702
0.035213502652013
0.033407113171605
0.031140303952023
0.028557883329295
0.025857553864384
0.023174998475633
0.020611552189815
0.018235363976746
0.016084709585781
0.014170743592967
0.012486449736566
0.011016139645144
0.0097385225988287
0.0086307221071785
0.007671405611003
0.0068401577214024
0.0061184746942089
0.0054906494935926
0.0049432106766047
0.0044645082204499
0.0040442392324428
0.0036740112237344
0.0033474312835744
0.0030582874750352
0.0028015340488345
0.0025726157648174
0.0023675663826149
0.0021840739516135
0.0020191352356274
0.0018705503034011
0.0017360428726019
0.0016141624404604
0.0015035848052607
0.0014029041350922
0.0013111014549737
0.0012270857220122
0.0011500967350278
0.0010794693666406
0.0010145064129342
0.00095466802731264
0.00089939553322338
0.00084829961664845
0.00080100502570625
0.00075714693417229
0.00071642419054157
0.00067855253656341
0.00064325969158412
0.00061033697914716
0.00057938526187863
0.00060827706475499
0.0020906061175539
0.002589820534624
0.0026342273466947
0.0025972976043019
0.0025012932301692
0.0024024276608143
0.0023095014066391
0.0022213082051427
0.0021574530504253
0.0021405711355643
0.0021636453795838
0.0022166316447946
0.0023076990087029
0.0024311361149198
0.0025666525670184
0.0026963263948369
0.0028119911012254
0.0029087905186592
0.0029833670829014
0.0030428661270732
0.0030918275873603
0.003140329750951
0.0031973943410554
0.0032511073168729
0.0032896155906098
0.0033201270764769
0.0033474571901863
0.0033646700457726
0.0033749875124993
0.0033768933380484
0.0033668222871683
0.0033655550557285
0.0033370995367117
0.0033124248017967
0.0032811967894061
0.0032489570658469
0.0032147946201582