/*--------------------------------*- C++ -*----------------------------------*\
| =========                 |                                                 |
| \\      /  F ield         | OpenFOAM: The Open Source CFD Toolbox           |
|  \\    /   O peration     | Version:  2312                                  |
|   \\  /    A nd           | Website:  www.openfoam.com                      |
|    \\/     M anipulation  |                                                 |
\*---------------------------------------------------------------------------*/
FoamFile
{
    version     2.0;
    format      ascii;
    arch        "LSB;label=32;scalar=64";
    class       volScalarField;
    location    "5e-05";
    object      yPlus;
}
// * * * * * * * * * * * * * * * * * * * * * * * * * * * * * * * * * * * * * //

dimensions      [0 0 0 0 0 0 0];

internalField   uniform 0;

boundaryField
{
    inlet
    {
        type            calculated;
        value           uniform 0;
    }
    outlet
    {
        type            calculated;
        value           uniform 0;
    }
    nozzleWalls
    {
        type            calculated;
        value           nonuniform List<scalar> 
144
(
35.247679494588
34.832444010537
34.400539893604
33.974462272519
33.560608807984
33.161116971403
32.776748584708
32.407448908087
32.053246084435
31.714142981649
31.39025448758
31.081799559867
30.789097927313
30.51257857085
30.252779599626
30.010321499077
29.785849338683
29.579319249836
29.387696360892
29.208900150888
29.042703729242
28.889150649712
28.74833932089
28.620414037589
28.505669072205
28.404584994813
28.317935427046
28.246930828158
28.193486830307
28.160740106692
28.154336286869
28.183085887902
28.266252587683
28.450828070703
28.903020810304
31.053157424964
35.487402936676
35.14868895653
34.724656090925
34.293092006689
33.869735985306
33.459341285438
33.063592370856
32.683016753064
32.317483571557
31.967052196098
31.631737629468
31.311683152324
31.007132503452
30.718431667863
30.446038303341
30.190513624205
29.95249386427
29.732591913579
29.530148605857
29.341814296688
29.166169573706
29.003126801029
28.852749389802
28.715140369196
28.590477511732
28.479092899865
28.381531389591
28.298657582213
28.231827420366
28.1831984877
28.15636692017
28.1577231859
28.197660494287
28.299830463667
28.525786945759
29.124656094498
35.339708101855
34.939523309838
34.508413137206
34.079968446618
33.662778728062
33.259579384112
32.871410171441
32.498361660477
32.140382983827
31.797498780817
31.469789964384
31.157450713815
30.860775017459
30.580163235897
30.31612908171
30.069274053298
29.840251087597
29.62940496797
29.434372330094
29.252417615482
29.083070618848
28.926348589039
28.782342675935
28.651173492559
28.533097830223
28.428538945066
28.338188037921
28.263126167288
28.205058020312
28.166743173799
28.15313157521
28.171808000349
28.238607163077
28.390152035321
28.741614852067
30.005763543602
35.422376081455
35.045297463738
34.616559060964
34.186202353788
33.76583046568
33.358993595161
32.96701755153
32.590219414527
32.228462134787
31.881802530748
31.550285531214
31.234080277525
30.933455467452
30.648783980668
30.380551959768
30.129341663924
29.895801353522
29.680454611415
29.481849996977
29.29672205135
29.124226221078
28.964341198493
28.817146326273
28.682750349297
28.561369808999
28.453379050965
28.359393129215
28.280378629542
28.217855017198
28.174259012435
28.153781682457
28.163459741005
28.215980957904
28.340572476976
28.619913615498
29.458578599672
)
;
    }
    tipWalls
    {
        type            calculated;
        value           nonuniform List<scalar> 
304
(
9.176292449741
2.9268686093453
4.4758054965114
4.8046279941919
4.6959753809302
4.4092508214266
4.0114171254097
3.4204958974127
2.5224393377668
1.4600769447411
0.5346314209364
0.56834785653944
0.59893485576156
0.53993362749794
0.47238182436985
0.4192741677949
0.37835619692929
0.34717033815889
0.32169162338631
0.30011427860924
0.28173510834238
0.26605276238938
0.25300494669019
0.24239822909062
0.23397639551279
0.2274735642727
0.22258068900008
0.21899302682578
0.21640477845092
0.2145291852658
0.21311834516487
0.21197922295557
0.21098441134762
0.21006257168255
0.20916331081234
0.20824136583633
0.20725673752221
0.20616680167953
0.20492502407452
0.20350044266571
0.20189969099691
0.20010007791756
0.19810959071463
0.19595664061698
0.19366104139556
0.19126617842961
0.18886745997473
0.18644508164121
0.18401591828351
0.18159006907931
0.17913124958237
0.1765583672718
0.17393908528425
0.17123899412042
0.16843177317949
0.16558201567955
0.16274927980501
0.15996007444596
0.15713981605469
0.15446512768694
0.15181493532608
0.1491158718692
0.14639373633451
0.14396477676169
0.14544734163769
0.26088061306984
0.26148540425536
0.25849087921942
0.25398179649297
0.24884836273834
0.24346493088089
0.23792906919291
0.23227893288868
0.22664063743486
0.22154385473895
0.21790782295702
0.2173768319292
0.31763873307451
0.31592049293237
0.3095246139444
0.30204320190987
0.29318180591184
0.283064437795
0.27208773924578
0.26071202450113
0.24935327399348
0.23810913182974
0.22702703220527
0.21615579634154
0.2056904849495
0.19562319081834
0.18646652459141
0.17852058261221
0.17293251433115
0.17025776143695
0.17253844792609
0.24932729442978
1.6635072734768
3.9517644048172
4.7256193140984
4.7808502730122
4.5661830534756
4.2258110750235
3.7493758892627
3.0103566427874
1.9822799948058
1.0079639209402
0.40351993224708
0.61017297786144
0.57253941575665
0.50469387620662
0.44429046017918
0.3970721525462
0.36192751720606
0.33388115183969
0.3104521634521
0.29055820642185
0.27356288219562
0.2592111192464
0.24741334722251
0.23792985920277
0.23050427191649
0.2248448255949
0.22064283422105
0.21759255049943
0.21539440797543
0.21377922696259
0.21252433265502
0.21146929968971
0.21051748104511
0.20961294869519
0.20870803306868
0.20775933564479
0.20672769522797
0.20556803735382
0.20423470646646
0.20272347924431
0.20102523234897
0.19912696465989
0.19705176374489
0.1948260388638
0.19246726215168
0.19006869672549
0.18765890424055
0.18522992351436
0.18280355963713
0.18036939655698
0.17786208591116
0.1752484027775
0.17260528413834
0.16984493839536
0.16700803537985
0.16416066896639
0.1613502603684
0.15856407294473
0.15577954368952
0.15314632712759
0.15047138383242
0.14775263889635
0.14507963842245
0.14349870164067
0.14876762105953
0.2621701649429
0.2602468406802
0.25635819060328
0.25145909974372
0.24617863599003
0.24071360295442
0.2351163036942
0.22943588976882
0.22399840637663
0.21945859928962
0.2174148196861
0.21917938165633
22.630620965759
2.0535309179406
4.2536400265353
4.7807470399703
4.7450460219425
4.4906838261162
4.1234062415083
3.5947387797374
2.7740494004951
1.7140097436766
0.77775964616385
0.50567502086244
0.60790828515345
0.55827010156318
0.48795721671491
0.4315123516748
0.38737928209585
0.35436468397247
0.3276659297118
0.30517704902284
0.28606474922528
0.26972255420975
0.2560297010708
0.24483548197909
0.23589071453208
0.22893622662022
0.22366951260228
0.21978426477795
0.21697438722101
0.21494552392398
0.21343912861883
0.21224661635208
0.2112242111012
0.21028897131081
0.20938847704706
0.20847647511519
0.20751087460987
0.20645153130517
0.20525238525447
0.20387279417015
0.20231773381906
0.20056885560203
0.19862356622484
0.19650871616097
0.194247756932
0.19186619366716
0.18946892686907
0.18705238103453
0.18462268896195
0.182197265907
0.17975333336176
0.17721359247138
0.17459541999329
0.171926064521
0.16914017324698
0.16629484282343
0.16345349200384
0.16065468447429
0.15785425593022
0.15512092579387
0.15248214162931
0.14979500312127
0.14707132670974
0.14447864145763
0.14393226746134
3.2949585042642
3.5349618924486
4.6270354638608
4.8015750226812
4.6351333226945
4.3212535685935
3.8875054772635
3.2268788744724
2.2561871095218
1.2299281912555
0.30483339654813
0.60006079972387
0.58589903719183
0.5214703475569
0.45825980543315
0.40760021917393
0.36987931353224
0.34036274523293
0.31595361131055
0.29524220603527
0.27756796946837
0.2625506757395
0.25013491974396
0.24009776782545
0.23218262665004
0.22611136548385
0.2215734193608
0.21826393390636
0.21587966962761
0.21414153515478
0.21281421135836
0.21172060551102
0.21074905083252
0.20983742358737
0.2089367409182
0.20800246468135
0.2069959505822
0.20587259266387
0.2045856972733
0.2031175004183
0.20146890097296
0.19961929646581
0.19758551141374
0.19539570827934
0.19306668895037
0.19066736722983
0.18826406414062
0.18583748147933
0.18340961708508
0.18098114486527
0.1785013008911
0.1759018257243
0.17327618286946
0.17054493266329
0.16772068734816
0.164870379455
0.16204823901792
0.15926423336944
0.15644853208652
0.15380733226492
0.15114471116276
0.14843471032222
0.14572583319691
0.14360117270906
0.14916623024976
)
;
    }
    wedge1
    {
        type            wedge;
    }
    wedge2
    {
        type            wedge;
    }
    defaultFaces
    {
        type            empty;
    }
}


// ************************************************************************* //
