/*--------------------------------*- C++ -*----------------------------------*\
| =========                 |                                                 |
| \\      /  F ield         | OpenFOAM: The Open Source CFD Toolbox           |
|  \\    /   O peration     | Version:  2312                                  |
|   \\  /    A nd           | Website:  www.openfoam.com                      |
|    \\/     M anipulation  |                                                 |
\*---------------------------------------------------------------------------*/
FoamFile
{
    version     2.0;
    format      ascii;
    arch        "LSB;label=32;scalar=64";
    class       volScalarField;
    location    "0.00013";
    object      alphat;
}
// * * * * * * * * * * * * * * * * * * * * * * * * * * * * * * * * * * * * * //

dimensions      [1 -1 -1 0 0 0 0];

internalField   nonuniform List<scalar> 
109340
(
0.47625284612165
0.32660719340857
0.17625368214527
0.1472922349382
0.14267888682785
0.14559474063677
0.15101757657706
0.16050319046879
0.13988675504276
0.12442231568928
0.11218310580514
0.1021993413999
0.093881029352097
0.086835981553087
0.080789359915719
0.07554141277849
0.070942892058091
0.066879788258783
0.063263384199251
0.060023534043832
0.057103984432663
0.054459034800846
0.05205110532842
0.049848937117897
0.047826237611898
0.045960639237837
0.044232872044342
0.042626079578164
0.041125211533779
0.039716419080042
0.038386348592512
0.037121137177089
0.035904669266458
0.034715046570706
0.033516437808366
0.032240149454693
0.47071950744513
0.22826081599396
0.1672160355067
0.15296427045068
0.15193485099153
0.15495840643471
0.13874297838277
0.12068940947686
0.10666204946789
0.095556763689296
0.086565752184089
0.079142295661422
0.072911107233052
0.067607364029448
0.063039079913807
0.059063705815552
0.055573185070577
0.052484105634277
0.049731036181084
0.047261878254174
0.045034546027016
0.043014598322956
0.041173535681834
0.039487553810252
0.037936588524584
0.03650355804654
0.035173749098024
0.033934288086394
0.032773648076447
0.031681149056992
0.030646350277281
0.029658153570425
0.028703224616452
0.027762817896856
0.026805259761361
0.025766509557169
0.27646255979579
0.19481555569206
0.16791677232294
0.15761294863111
0.12608623963913
0.10511594973325
0.089909519823211
0.078449609208246
0.069543079744447
0.062451778253967
0.056689115630496
0.051922586787318
0.047919343730431
0.044512510702446
0.041579836273174
0.039029937679202
0.036793239394608
0.034815865598835
0.033055317001602
0.031477309018608
0.030053753349403
0.028761549693244
0.02758173283884
0.026498724767723
0.025499590006931
0.024573502962489
0.023711316445499
0.022905056152879
0.022147663525279
0.021432593047245
0.02075338648486
0.02010313683707
0.019473339079899
0.01885207329275
0.018219696484952
0.017532674883731
0.15887860947377
0.1604882299514
0.10071923017862
0.073321426980385
0.057677513465275
0.047575716587439
0.040535225703891
0.035359179373503
0.031401513294323
0.028283060773382
0.025766757457428
0.023696626928072
0.021965857940486
0.02049894806715
0.019241159944585
0.018151913945865
0.017200420973706
0.01636254722139
0.015616703553676
0.014944393205242
0.014331849253736
0.013769307595517
0.013249686949701
0.012767712236593
0.012319275055672
0.011901002456217
0.011509739042886
0.011143065070709
0.010798668529609
0.010474276840801
0.010167299651906
0.0098738434796224
0.0095875888701581
0.0093007100175396
0.0090038856362792
0.0086760760529111
0.095681369672763
0.031278019051599
0.019018948390843
0.013792297158079
0.010912146703691
0.0091041265734405
0.0078742336735643
0.0069904670587245
0.0063294669746086
0.0058201916872929
0.0054191304736954
0.0050986884199332
0.0048405884350314
0.0046325176487643
0.0044661005669128
0.0043354710616314
0.0042354402821664
0.0041573319834874
0.004086932186717
0.004016611245681
0.0039456903195706
0.0038764250011884
0.0038112088197873
0.0037516683458445
0.0036986773852221
0.0036526276890545
0.0036135399990238
0.0035811950749091
0.0035556451956518
0.0035364447755623
0.003522533198483
0.0035127275199897
0.0035053214002941
0.0034970764128931
0.0034797194948378
0.0034292511914217
0.00024095519140478
0.00035963651121606
0.00046271573776283
0.00054313733162389
0.00060061573344611
0.00063851360858653
0.00066128988249252
0.00067311975511102
0.00067732557712061
0.00067666370567103
0.00067272881924892
0.00066677739456521
0.00065967318499238
0.00065199884640431
0.00064414504968174
0.00063638936984617
0.00062891177655707
0.00062183196954095
0.00061527202422955
0.00060938203135266
0.00060402390196892
0.00059910514339183
0.0005945737807711
0.00059039396750022
0.00058653078618092
0.00058294404676413
0.00057958498453002
0.00057639263519052
0.00057328695707697
0.00057015750612027
0.00056684452081676
0.00056309236859984
0.00055846790519897
0.00055207590369652
0.00054128858486251
0.00051443636850978
0.028487985564825
0.015323819504909
0.0082696251056983
0.0050859070254318
0.0033898939209305
0.0022945189283657
0.0015500341083802
0.0010342840642029
0.00069843452989497
0.00051082913715582
0.00042065751971718
0.00041264064692664
0.00037993516592694
0.00034085377880197
0.00029424853048717
0.00024779618948394
0.00020729677766157
0.00017252409927634
0.00014405619898919
0.00012168470673558
0.00010323366884793
8.7929503615088e-05
7.3705089023032e-05
5.9613341219624e-05
4.8740338462085e-05
4.0175463465889e-05
3.3508803703982e-05
2.8270541864275e-05
2.3832152596389e-05
2.0476466378309e-05
1.7542125491922e-05
1.5238421539702e-05
1.3253816904692e-05
1.1615907964988e-05
1.0230927938078e-05
9.0478060517209e-06
8.0469472540292e-06
7.1816731223914e-06
6.4346407448095e-06
5.7950969446194e-06
5.2222307874686e-06
4.7416606488048e-06
4.294899471087e-06
3.9268631646073e-06
3.5758109206625e-06
3.2872686140576e-06
3.0113672589455e-06
2.7791989168508e-06
2.5632802376537e-06
2.3715985687533e-06
2.198496536286e-06
2.0408004016055e-06
1.8987654787938e-06
1.7695617817799e-06
1.6519632109203e-06
1.5445492467053e-06
1.4463087778213e-06
1.3562740595697e-06
1.2736679667911e-06
1.197731019812e-06
1.1277898566653e-06
1.0632403864477e-06
1.0035641607183e-06
9.4830108671199e-07
8.9704983310193e-07
8.4945200695028e-07
8.0519139770602e-07
7.6292814964806e-07
1.4883783745987e-05
0.00056698583789599
0.0010361328131964
0.00094434505794676
0.0008499348286278
0.00077798639925938
0.00072046811618785
0.00067288090073233
0.00063292491076786
0.00059917381329011
0.00057039570048281
0.00054529012872349
0.0005224993369459
0.00050084461549479
0.00047967638967269
0.00045915434498141
0.00043803029249771
0.00042288364144911
0.00041226287002687
0.00040598180827293
0.00040183497992259
0.00039600817039094
0.00038446023236698
0.00036543564367731
0.00034135579057978
0.00031729859393945
0.0002967922869972
0.0002803839633203
0.00026711337908124
0.00025590812869676
0.00024600681702561
0.00023693433452766
0.0002284077517796
0.00022023701443517
0.00021230333325004
0.00020458218039099
0.00019538897178644
0.0001882703605643
0.00018151662615139
0.00017526130567404
0.00016957962310947
0.00016458195562889
0.00016037772441605
0.00015691568398707
0.00015420465967725
0.00015221210463231
0.00015082912778204
0.00014996841675769
0.00014981733872477
0.00015027489807892
0.00015124335082617
0.00015256410358252
0.00015409905405946
0.00015575604257087
0.00015746042718579
0.00015912868152269
0.0001607019293046
0.00016216795705414
0.00016349686731625
0.00016463897940372
0.00016559361577408
0.0001663936059469
0.00016706217650145
0.00016763315676268
0.00016812027714878
0.00016851323892807
0.00016879940906883
0.00016896424406073
0.00016899358055017
0.00016898703367616
0.00016969018421082
0.00017080141333493
0.021834445992374
0.011832604751604
0.0069357116136423
0.0045424182377247
0.0030645755694266
0.0020565443814141
0.0013750588137739
0.00091500894474231
0.00060882686401256
0.00041275979546808
0.00029146675221525
0.00022354924625754
0.00018308165179442
0.00015424132807208
0.00013398367164561
0.000118580215473
0.00010635896321616
9.6447279623404e-05
8.7418147116077e-05
7.9244347373009e-05
7.1967407086207e-05
6.5478729292576e-05
5.9644320970762e-05
5.4450431718289e-05
4.5486389405522e-05
3.7646560905685e-05
3.1448113307421e-05
2.6511318946374e-05
2.2530546193259e-05
1.9285095265394e-05
1.6630765886829e-05
1.4427546434245e-05
1.2598107625302e-05
1.1053815764958e-05
9.7543159527123e-06
8.6435147516916e-06
7.697291663206e-06
6.8797134298278e-06
6.1763478960276e-06
5.5624932080813e-06
5.0297023373732e-06
4.5607013518781e-06
4.1500510550578e-06
3.7859245539327e-06
3.464342233474e-06
3.1776694357047e-06
2.9221441384867e-06
2.6935441587982e-06
2.4881917137081e-06
2.303692547304e-06
2.1369057149527e-06
1.9860295400354e-06
1.8489307451088e-06
1.7243686711757e-06
1.6107909259181e-06
1.5070371565991e-06
1.4120656728627e-06
1.3249896071571e-06
1.2450091684983e-06
1.171419224925e-06
1.1035863104088e-06
1.0409451011031e-06
9.8299094467544e-07
9.2928100031122e-07
8.7942970108097e-07
8.3310548164229e-07
7.9001634602877e-07
7.5592563153408e-07
4.7816858785074e-05
0.00082359896869179
0.0010215052304767
0.00091742511302194
0.00082949620896793
0.00076180365386837
0.00070716704979723
0.00066173388222687
0.00062352137480708
0.0005911862589254
0.00056349131235056
0.00053911521313053
0.00051672160738863
0.00049523479667066
0.00047418355756171
0.00045394082077795
0.00043765487706882
0.00042244467416363
0.00041179804208866
0.00040553508996669
0.00040145155269734
0.00039573437510872
0.00038433642791975
0.00036548356717919
0.0003415560848524
0.00031760074721116
0.0002971558762448
0.00028078806062131
0.00026754786187138
0.0002563650941854
0.00024647509293809
0.00023740119462534
0.00022885908206683
0.00022066476195703
0.0002126997904617
0.00020493682463775
0.00019568641875676
0.00018852888746618
0.00018172628466894
0.00017542250111429
0.00016969415317337
0.0001646528492518
0.00016040921281231
0.00015691098179383
0.00015415620706911
0.0001521196139428
0.00015070905934962
0.00014981618402173
0.00014963120964466
0.00015005109109429
0.00015096925777826
0.00015223645927739
0.00015372225698603
0.00015533446306942
0.00015698883330424
0.0001586064368351
0.00016013415893725
0.00016155286284302
0.00016283246338388
0.0001639316498421
0.00016485032219593
0.00016561656818159
0.00016625223318248
0.00016679215916814
0.00016724712911236
0.00016760855964107
0.00016786549677283
0.00016800325361265
0.0001680062337326
0.00016795742283638
0.00016846388539823
0.00016937321188195
0.015909085405163
0.0079187255083648
0.0047742660860969
0.0031745209509637
0.0021152795853686
0.001450530456765
0.00099202038843543
0.00068606697170272
0.00048315849500769
0.0003495280772089
0.00026863392142223
0.00021206243004363
0.00017384415815934
0.00014661554258742
0.00012547113995393
0.00010861114061882
9.5218261544777e-05
8.3958864444554e-05
7.3856050255935e-05
6.5270103596492e-05
5.8229037923449e-05
5.2259961642763e-05
4.7182544429856e-05
4.298650145691e-05
3.9439090352635e-05
3.6348252758605e-05
3.0775905456409e-05
2.5941987686545e-05
2.2051443442465e-05
1.8880421763701e-05
1.6280743264084e-05
1.4130887941358e-05
1.2337902471382e-05
1.0834732832111e-05
9.5618939084586e-06
8.4816620145661e-06
7.5549139539038e-06
6.7588910993754e-06
6.0690945978106e-06
5.4707531570768e-06
4.9479682907433e-06
4.4899716048277e-06
4.0868589075144e-06
3.7305083929501e-06
3.414947330912e-06
3.1336049529759e-06
2.8831336251504e-06
2.6583197766085e-06
2.4570192423914e-06
2.2753197309212e-06
2.1115699188107e-06
1.9631301630236e-06
1.8283521479653e-06
1.7056620394618e-06
1.5937573109968e-06
1.4915381903028e-06
1.3979487082618e-06
1.3121155302298e-06
1.2332414537883e-06
1.1606464564297e-06
1.093711554952e-06
1.0318816252142e-06
9.746592695723e-07
9.2161199908008e-07
8.7236421366104e-07
8.2659202724913e-07
7.8400099476497e-07
7.5163094772184e-07
4.9834444900872e-05
0.00083265476205847
0.0010201231094065
0.00091594386379378
0.00082831210657642
0.00076087108477244
0.00070646280776521
0.0006612414462692
0.00062318952789274
0.00059096760743892
0.00056334846046774
0.00053902762414689
0.00051668441286472
0.00049525110890378
0.00047425178017345
0.0004540412491764
0.00043771997196121
0.00042253391607528
0.00041187788483773
0.00040567999421798
0.00040171733094988
0.000396180799173
0.00038500606346648
0.00036638710396719
0.00034264467655849
0.00031876649891332
0.00029833077248384
0.00028194943859562
0.00026869444301439
0.00025749613929003
0.00024758481879755
0.00023847603463744
0.00022987978637862
0.00022161884694907
0.0002135736505799
0.00020571636167637
0.00019633929189244
0.00018909094935605
0.00018218141042779
0.00017577170591044
0.0001699397932482
0.00016480314519751
0.00016047224654815
0.00015689704729022
0.00015404851520137
0.00015191485811975
0.00015043776117541
0.00014947261990444
0.00014919925238977
0.00014952522560512
0.00015033486619842
0.00015149540939953
0.00015288013401446
0.00015439427295693
0.0001559501708436
0.00015747210845167
0.00015891050210286
0.00016023611002292
0.00016142150477136
0.0001624368756811
0.00016328309856927
0.00016398084008438
0.00016455076354186
0.00016502852524985
0.00016542050382074
0.00016572203690985
0.00016592477214336
0.00016601442005758
0.00016597058053885
0.00016586519595942
0.00016612515338214
0.00016677353579848
0.008278603658269
0.0044178497633991
0.002701608222742
0.0017549863409099
0.0012075098846553
0.00086922384151238
0.00064749858647309
0.00049711148828581
0.0003913653402373
0.00031727019650424
0.0002588168080284
0.00021177391997422
0.00017468903768955
0.00014575317035344
0.00012332983587609
0.00010611491801601
9.210357496443e-05
8.0513004172788e-05
7.0554476393217e-05
6.1789327320431e-05
5.4154922633267e-05
4.7918937611084e-05
4.2806848978125e-05
3.8444370727768e-05
3.4788987695455e-05
3.1804582255221e-05
2.9247967570682e-05
2.5379707553171e-05
2.1581381553086e-05
1.8490848737859e-05
1.5948076643984e-05
1.3844583758135e-05
1.2088693948604e-05
1.0615850937945e-05
9.3689761394783e-06
8.3095798063355e-06
7.4021732697965e-06
6.6225363089468e-06
5.9479667861816e-06
5.3626926058029e-06
4.8513610975257e-06
4.4042357236906e-06
4.0102213013845e-06
3.662857157877e-06
3.354266225805e-06
3.0798285326766e-06
2.8346201240109e-06
2.615023303809e-06
2.4178249803737e-06
2.2400348249913e-06
2.0796214452228e-06
1.9341736522122e-06
1.8021563123396e-06
1.6818159272168e-06
1.5720428544475e-06
1.4716964428266e-06
1.3798028550837e-06
1.2954975108883e-06
1.2180098220654e-06
1.1466685337588e-06
1.0808602504824e-06
1.0200444543009e-06
9.6374148928917e-07
9.1153330621612e-07
8.6305124320731e-07
8.1797677980589e-07
7.760245260744e-07
7.4624986911038e-07
5.2774680536013e-05
0.00084450509836457
0.0010176701157581
0.00091367120696033
0.0008265732635178
0.00075952332664508
0.00070545620434527
0.00066053456265904
0.00062271180908628
0.00059065082021575
0.00056314033678655
0.00053889944145907
0.00051662992445846
0.0004952755987454
0.00047435530181495
0.00045420550423509
0.00043790185200524
0.00042274279170808
0.00041211856829086
0.00040601920993353
0.00040224058173424
0.00039697297592525
0.00038613538589388
0.00036786518199072
0.00034438184752934
0.00032060561640226
0.00030016498991419
0.00028374627391219
0.00027045600431036
0.0002592251439273
0.00024927382958361
0.00024010746276333
0.00023142965107907
0.00022306380567443
0.0002148941254238
0.00020689897053194
0.00019733181919521
0.00018993228174614
0.00018286070716158
0.0001762906678183
0.00017030349225667
0.00016501934350196
0.00016054528607836
0.0001568426364488
0.00015385782916845
0.00015158973683933
0.00014999866118091
0.00014892316193583
0.00014850602778431
0.0001486867714617
0.00014933827479299
0.0001503417565819
0.00015157600685071
0.00015294233597179
0.00015435132866032
0.00015573316141046
0.0001570373658489
0.00015822797233513
0.00015927971509371
0.00016017169370564
0.00016090764316398
0.00016150337903755
0.00016197620816022
0.00016236161007048
0.00016266085101154
0.00016287312679399
0.00016299317795491
0.00016300772024874
0.00016288570041002
0.00016269084494512
0.00016279379458719
0.00016316424539196
0.003205779521194
0.0022647408406135
0.0015956755780686
0.0012086859393528
0.00093280454061864
0.00071741721052724
0.0005696570278542
0.00046571088660326
0.00038698163812226
0.00031498356849488
0.00026135736299124
0.00021712132250635
0.00018061729718542
0.00015105452337803
0.00012662455389236
0.00010700455311536
9.1833879292272e-05
7.9309055418337e-05
6.8719747470128e-05
5.9931667909495e-05
5.2641087940303e-05
4.6339769450743e-05
4.1018415371023e-05
3.6672082309166e-05
3.3000257194619e-05
2.9848175958643e-05
2.7226242433328e-05
2.4776134387248e-05
2.1100408748257e-05
1.8096149801622e-05
1.5621433137165e-05
1.3568463155874e-05
1.1853696909126e-05
1.0411096316181e-05
9.1916919267289e-06
8.1528427584602e-06
7.2639874909536e-06
6.4989697370286e-06
5.8379735372478e-06
5.2633011068602e-06
4.7621022451474e-06
4.3229313400087e-06
3.9364845733817e-06
3.5951557847221e-06
3.2923062452651e-06
3.0231230733308e-06
2.7826857720886e-06
2.5676195073964e-06
2.3742933903023e-06
2.2004144080486e-06
2.0433407214732e-06
1.9011182462301e-06
1.7720064691429e-06
1.6543770023507e-06
1.546988842887e-06
1.4487263534474e-06
1.3587169936548e-06
1.2761166631701e-06
1.2001907240403e-06
1.1302587862607e-06
1.0657240554516e-06
1.0060643324524e-06
9.5081618674361e-07
8.9956949068591e-07
8.5196576289495e-07
8.0769537388459e-07
7.6648265106108e-07
7.4075428462492e-07
5.6966910751978e-05
0.00085842051371894
0.0010139331949861
0.00091050350087836
0.00082424634844388
0.00075775869386005
0.00070415116006502
0.00065961575663213
0.00062208745863445
0.00059023307535706
0.00056286348318662
0.00053872714908246
0.0005165540699203
0.00049530374587389
0.00047448932452688
0.0004544265560614
0.00043816183569237
0.00042303818697192
0.00041247116918177
0.00040650494118705
0.00040296652420523
0.00039805083551656
0.00038765810649292
0.00036984897523499
0.00034670918791709
0.00032307087982882
0.0003026220245372
0.00028614943242309
0.00027280839555616
0.00026153228613241
0.00025152770703924
0.00024228653037592
0.0002335029772468
0.00022499864037924
0.0002166620787055
0.00020848494079647
0.00019866234995674
0.00019105279383251
0.00018376260356857
0.00017697313631401
0.00017077235158451
0.00016528299055164
0.00016060585560647
0.00015672404921593
0.00015355591268739
0.00015110580573638
0.00014934154833117
0.0001481237916821
0.00014751288364697
0.00014749530941794
0.00014793845006016
0.00014873247317762
0.00014976312656995
0.00015092903555392
0.00015214020160745
0.00015333098864698
0.00015445160088914
0.00015546225567481
0.00015633853736221
0.00015706748251274
0.00015765425593894
0.00015811146336598
0.00015845303744796
0.00015871313410938
0.00015888780357329
0.00015898002880777
0.00015899204770532
0.00015889814585036
0.00015867061121674
0.00015832159205883
0.00015825290825038
0.00015834498305108
0.0010984662629098
0.0009583979578786
0.000989395072298
0.0010325325293173
0.0010765719663946
0.00093651418912753
0.00071259259883849
0.0005416855657291
0.00041972207633252
0.00033791144132583
0.00027560794823437
0.00022722801106219
0.00018856721947815
0.00015716335273732
0.00013158956885826
0.00011065077797907
9.3537927527572e-05
7.9594894732209e-05
6.8286968809739e-05
5.90538853559e-05
5.1489308881955e-05
4.5325303009207e-05
4.0145443748018e-05
3.5745123046572e-05
3.2098459770619e-05
2.8981600176547e-05
2.6288359896916e-05
2.3992189726608e-05
2.0584994782266e-05
1.7683506764235e-05
1.5287532123062e-05
1.3290963122388e-05
1.1621629935916e-05
1.0214996197758e-05
9.0224117558206e-06
8.0059256672869e-06
7.1357022789813e-06
6.3858652801804e-06
5.7370015691821e-06
5.1729287441968e-06
4.6808539865902e-06
4.2491485133781e-06
3.8694462148682e-06
3.5338557382293e-06
3.2363986938928e-06
2.9715996892904e-06
2.7353061448659e-06
2.5238651039258e-06
2.3339762272299e-06
2.1630489933397e-06
2.0085828765451e-06
1.8687981232455e-06
1.7418458303313e-06
1.6263315832346e-06
1.5209154419467e-06
1.424523705547e-06
1.3362333167824e-06
1.2552305396924e-06
1.1808064070282e-06
1.1122758519632e-06
1.0490669164451e-06
9.9064323856517e-07
9.3652382126204e-07
8.8629617389655e-07
8.3962398160435e-07
7.9621212028291e-07
7.5579596273061e-07
7.3742966823245e-07
6.4147414645243e-05
0.00087423246177196
0.0010089566506976
0.00090639604954896
0.00082130093985994
0.00075556951334232
0.00070254739988967
0.0006584845274944
0.00062131360778708
0.00058970985622359
0.00056251214272972
0.0005385042648325
0.0005164504634351
0.00049532909444842
0.00047464721655091
0.00045469582730211
0.00043848630216514
0.00042340587373657
0.00041291014915691
0.00040710258795899
0.00040385548482651
0.00039937199628415
0.00038952943605551
0.00037229490177481
0.00034958935779353
0.00032613237426796
0.00030567842702692
0.00028913955463323
0.0002757352800544
0.00026440398218494
0.00025433596287943
0.00024500621122268
0.00023609669312701
0.00022742289967843
0.00021887750159074
0.00021047528579771
0.0002003436288226
0.00019245795692201
0.00018488384494726
0.0001778110558215
0.00017133503883797
0.00016557867356711
0.00016063359435998
0.00015651272891209
0.00015310825188011
0.00015042868661672
0.000148435542665
0.00014703143515199
0.00014618123668181
0.00014591055427902
0.00014609514263113
0.0001466283548583
0.00014740155035468
0.00014831271550356
0.00014927128062547
0.00015022034312083
0.00015110754078642
0.00015189206625187
0.00015254959058904
0.00015307325351744
0.00015347033802251
0.00015375198121455
0.00015392737520595
0.00015402846171163
0.00015404808430195
0.00015399581018
0.00015386972641487
0.00015363520566134
0.00015327950656263
0.00015274976284786
0.00015247485445681
0.00015223640402489
1.5046735011569e-05
0.00019809897173944
0.00028271680188482
0.0003793435490301
0.00046468908443598
0.00054027120230646
0.00061163746791228
0.00066209500759326
0.00050980066853125
0.00039549324838291
0.0003135857101053
0.00025427833072961
0.00020842398606422
0.00017212771090323
0.00014299130566901
0.00011923981899717
9.9837963184294e-05
8.4156787409972e-05
7.1468486655669e-05
6.11804721412e-05
5.2893119104437e-05
4.6161766299925e-05
4.0674771862862e-05
3.6187211881795e-05
3.2273875767432e-05
2.9112764445282e-05
2.6391380110714e-05
2.4049960017327e-05
2.0828399037735e-05
1.7894618325831e-05
1.5472577932472e-05
1.3456685463301e-05
1.1764936904998e-05
1.0337654442185e-05
9.1283615682227e-06
8.0975512277903e-06
7.213185076178e-06
6.4519748599768e-06
5.7933624083513e-06
5.2207260740386e-06
4.7206867936552e-06
4.2826670375127e-06
3.8975051520132e-06
3.5571696119927e-06
3.2555331772841e-06
2.9872917315774e-06
2.7481235152577e-06
2.5340948002081e-06
2.3420312365589e-06
2.1692419161141e-06
2.0133058571131e-06
1.8722538535595e-06
1.7442138394638e-06
1.6277982644207e-06
1.5216940732161e-06
1.424784402498e-06
1.3360517163944e-06
1.2546484027123e-06
1.1798817457752e-06
1.1110901829014e-06
1.0476772315136e-06
9.890948479024e-07
9.348771751098e-07
8.8462006967342e-07
8.3795871593912e-07
7.9457935867494e-07
7.5419819924473e-07
7.1700675136226e-07
2.5914460604764e-05
0.00068965665587794
0.0010218357765159
0.00092611101782745
0.00083654752588155
0.00076777787879035
0.00071278666378682
0.00066731910661185
0.00062901920015636
0.00059645479082148
0.00056848732427526
0.00054396046557848
0.00052166882813413
0.00050053619930872
0.00047991053900849
0.00045984413765033
0.00043886409352753
0.00042383404756311
0.00041341477793528
0.00040778849782179
0.00040487729329235
0.000400899119959
0.00039170593331224
0.00037515707132537
0.00035298047201533
0.00032975693613886
0.00030930887256995
0.0002926960736169
0.00027921921519915
0.0002678262363883
0.0002576889464115
0.00024826177878952
0.00023921103852274
0.00023034256759968
0.00022154935158313
0.00021284404546965
0.00020347646856975
0.00019506197274315
0.00018694738234232
0.00017933790874371
0.00017233927970592
0.00016607081149391
0.0001606125907527
0.00015601634289514
0.00015216323564929
0.00014904606884928
0.00014661645933747
0.00014483375676071
0.00014355330938381
0.00014280992836847
0.00014251661898528
0.00014256730252272
0.00014285717699398
0.00014329194203674
0.00014378404068805
0.0001442768541162
0.00014472548604975
0.0001450916132512
0.00014534905478651
0.0001454989232481
0.00014555099452159
0.00014551436198752
0.00014538478533558
0.00014519082234589
0.00014494056467853
0.00014461302009615
0.00014421130617558
0.0001437174160575
0.00014312237470791
0.00014230617365646
0.00014163774915628
0.00014074747550183
3.3508215725933e-06
2.2990418180255e-05
4.8965394875204e-05
7.8887353769912e-05
0.00011444403452526
0.00015586573429001
0.00019842815527213
0.00024203678280774
0.00028251961241694
0.0003094478120441
0.00031612321995754
0.00026270461871434
0.0002118643474987
0.00017266922254274
0.00014216110666359
0.00011802649211522
9.8389945206378e-05
8.2582528042187e-05
6.9854658734017e-05
5.9570872086264e-05
5.1246011086982e-05
4.4489859142243e-05
3.8963993207801e-05
3.4424136302979e-05
3.0723700040784e-05
2.7664112609557e-05
2.4949006865437e-05
2.201474067558e-05
1.8905571744549e-05
1.633329230864e-05
1.4193600133849e-05
1.2397698049631e-05
1.0886408226146e-05
9.6051991943623e-06
8.5124179704442e-06
7.5736160566444e-06
6.7657496161628e-06
6.0669802336385e-06
5.459908108889e-06
4.9295978015962e-06
4.465193341043e-06
4.0571430225055e-06
3.6971706950938e-06
3.378315444533e-06
3.0949547589708e-06
2.8425890660645e-06
2.6170215052969e-06
2.4148401613167e-06
2.2330654829305e-06
2.0693547036443e-06
1.9214619701552e-06
1.787486249634e-06
1.6658210707853e-06
1.5551029377105e-06
1.4541820519792e-06
1.3619696403442e-06
1.2775388459865e-06
1.2000595463433e-06
1.1288465751608e-06
1.0633011422726e-06
1.0028637624804e-06
9.470352659814e-07
8.9536619160876e-07
8.4747085799955e-07
8.0300446421719e-07
7.6167300555124e-07
7.2320676220563e-07
8.1515786776356e-07
0.00010194083764173
0.000929014539013
0.00098910916147842
0.00088912829475577
0.00080879566363104
0.00074643069443705
0.00069592436430824
0.00065378796847705
0.0006180482269953
0.0005874476127257
0.00056094392188977
0.000537461337277
0.00051589865662546
0.00049530965942335
0.00047517910610941
0.00045569742033272
0.00043974004693461
0.00042482389503037
0.00041455640553826
0.00040932557378131
0.00040718873795842
0.00040441050132537
0.00039678864745591
0.00038193364892257
0.00036111567717105
0.0003385538625282
0.00031818615606135
0.00030142376556582
0.00028778638429632
0.00027626352141741
0.00026598812914499
0.00025636371940052
0.00024701431523844
0.00023772066661554
0.00022837292660435
0.00021898767966028
0.00020910055101071
0.00019975617366046
0.00019065911350882
0.00018204321584892
0.00017404141331217
0.00016678208581233
0.00016035276649591
0.00015479493355068
0.00015010250790157
0.00014616371188964
0.00014293432877345
0.00014036364485912
0.00013837501691538
0.00013682263409724
0.00013569482758944
0.00013490849811046
0.00013435669507999
0.00013396165233005
0.00013363950219847
0.00013334023802249
0.00013302699036154
0.0001326646631436
0.00013222461994682
0.00013171554400985
0.00013114382153217
0.00013051514101694
0.00012982362771852
0.00012906965288034
0.00012827714082431
0.00012743776360215
0.0001265807098201
0.00012568354813334
0.00012475444785993
0.00012365415378441
0.00012246029159644
0.00012050912292696
3.0571767601234e-06
7.7311804021995e-06
1.4887935516281e-05
2.4869848007445e-05
3.8094511520547e-05
5.4465045905944e-05
7.422469870715e-05
9.6463380105881e-05
0.00012098342905239
0.00014594603600124
0.00016630642347521
0.00017720671420758
0.00017644207848163
0.00016440453443028
0.00014243685646142
0.00011772832132305
9.8392152362636e-05
8.2833791677001e-05
7.016507860403e-05
5.9812347570386e-05
5.1444792813104e-05
4.4609582992639e-05
3.8996575111684e-05
3.4362548740666e-05
3.0521834009552e-05
2.7322947753967e-05
2.38227314326e-05
2.0512949882955e-05
1.7743247739287e-05
1.5412550149599e-05
1.3447174795155e-05
1.1788214657636e-05
1.0380408839489e-05
9.1822515493147e-06
8.1542467032106e-06
7.2706822760024e-06
6.5091537326294e-06
5.8491107758853e-06
5.2732168401088e-06
4.7687240702862e-06
4.3259578890467e-06
3.9355936954487e-06
3.5902604011184e-06
3.2834239738826e-06
3.010559187026e-06
2.766921184584e-06
2.548848644063e-06
2.3529289223923e-06
2.1766223930537e-06
2.0176259177069e-06
1.8738181372673e-06
1.7434147280749e-06
1.6248536485454e-06
1.5169560721667e-06
1.4185264483219e-06
1.3285552162268e-06
1.2461346947497e-06
1.1704849400105e-06
1.1009668075352e-06
1.036950376437e-06
9.779046061855e-07
9.2335176020193e-07
8.7286692289116e-07
8.2608953889459e-07
7.826799074618e-07
7.4232739716789e-07
7.0477033962887e-07
1.1185348212251e-06
0.00013934887758305
0.0009616252552442
0.0009725409691031
0.00087455442219718
0.00079787318894069
0.00073835174224705
0.00069002264984026
0.00064954156237206
0.00061502220097732
0.00058528547306269
0.0005593858684722
0.0005363679565427
0.00051524215787265
0.00049512491222433
0.00047548501774599
0.00045642524971092
0.00044070796733483
0.00042591272455048
0.00041576766992679
0.00041091855768504
0.00040962643054173
0.00040823712827215
0.0004024948819979
0.00038973320274834
0.00037069236577135
0.00034912155850698
0.00032899860580632
0.0003121319000045
0.00029834164817245
0.00028670561032148
0.00027632770367623
0.00026655112147927
0.00025694539779931
0.00024725145465934
0.0002373401476683
0.00022721154216592
0.00021672942524315
0.0002062467519422
0.00019589788485093
0.0001859468732292
0.00017656030553378
0.00016790803322615
0.00016010851383537
0.00015320960005358
0.00014727343707867
0.00014220061650124
0.00013788769725044
0.00013426796844467
0.00013124829987444
0.00012870974874409
0.00012657464456842
0.0001247350133116
0.00012312522918131
0.00012168907042903
0.00012034414373297
0.00011904590514795
0.00011774583784095
0.000116417938617
0.00011504997593981
0.00011366770186637
0.00011226732393875
0.00011082736512068
0.00010940643894965
0.00010801291747603
0.00010667515880052
0.00010536794927063
0.00010413646475532
0.00010290335295812
0.00010171001305864
0.00010046538025277
9.9255960260662e-05
9.6941146207265e-05
2.7350685972335e-06
4.8841912216173e-06
6.8353231836919e-06
1.0920270797386e-05
1.6625019491849e-05
2.4089643964371e-05