/*--------------------------------*- C++ -*----------------------------------*\
| =========                 |                                                 |
| \\      /  F ield         | OpenFOAM: The Open Source CFD Toolbox           |
|  \\    /   O peration     | Version:  2312                                  |
|   \\  /    A nd           | Website:  www.openfoam.com                      |
|    \\/     M anipulation  |                                                 |
\*---------------------------------------------------------------------------*/
FoamFile
{
    version     2.0;
    format      ascii;
    arch        "LSB;label=32;scalar=64";
    class       volScalarField;
    location    "0.00013";
    object      cSound;
}
// * * * * * * * * * * * * * * * * * * * * * * * * * * * * * * * * * * * * * //

dimensions      [0 1 -1 0 0 0 0];

internalField   nonuniform List<scalar> 
109340
(
555.96843437836
554.90558909408
552.87725360596
550.41186221777
547.67500165237
544.80744111185
541.86415909478
538.87350480275
535.86873431537
532.78118929319
529.47762208681
525.83599592122
521.71640734731
516.95826927987
511.38507770824
504.81077373703
497.04543727516
487.90440024637
477.21805536752
464.84391360427
450.67760078526
434.66816863072
416.82969538664
397.24917905673
376.08631932172
353.56744419896
329.9701409504
305.60134546497
280.77060226639
255.76177173348
230.80621608063
206.05872616234
181.58028495024
157.34391288385
133.29315197016
109.48294142277
556.12713303016
554.76298031586
552.48591024861
549.85198712898
547.03291569306
544.15203650213
541.2457550874
538.31232168547
535.30984458149
532.16984771494
528.78836336168
525.04049325782
520.77984534957
515.84039480614
510.04161515
503.19389620147
495.10806714919
485.60180753281
474.51039507053
461.69891622638
447.07469279365
430.60166827986
412.31143684299
392.30956723223
370.77374899365
347.94531729499
324.11221711643
299.58543356283
274.6713827211
249.6435642284
224.71556970764
200.01576913336
175.56357961875
151.27065132886
126.94483269112
102.63868392632
556.71870470045
555.14164138689
552.63663389664
549.94090392106
547.14586395029
544.30624240826
541.41565304869
538.47399750956
535.46152840095
532.31291156458
528.92724393935
525.17876231179
520.91989470792
515.98385411606
510.18981327271
503.34882182265
495.27095301945
485.77362358352
474.69136689804
461.88859563418
447.27134043678
430.80255349956
412.51304487899
392.50767804397
370.96391998533
348.12316398497
324.2739259149
299.72822457719
274.79382804092
249.74518801228
224.79584897827
200.07003141938
175.56405289711
151.12067298312
126.38295770692
100.95708514607
557.5408998624
555.64315952111
553.01429646904
550.24458148355
547.39705585792
544.49933304364
541.56103256313
538.58617216804
535.55123579485
532.38987042797
529.00137171779
525.25871015846
521.01244967271
516.09411367719
510.32082604417
503.50141906627
495.44403033875
485.96401535549
474.89314346849
462.09398791757
447.46887846312
430.97885276845
412.65337238144
392.59668364243
370.98764508534
348.06987148408
324.13562597945
299.50168432203
274.48108395696
249.35310172407
224.33473755553
199.55056995391
174.9706565738
150.35373439213
125.08303188166
97.909821430214
558.8346028592
556.37349814773
553.36414884046
550.40685871492
547.48254599531
544.55673787649
541.60954627296
538.63827885765
535.61301757377
532.46469271606
529.09384278495
525.37250965856
521.14822023697
516.24802549578
510.48288452723
503.65365589317
495.55925160276
486.00497550751
474.80352005388
461.81336547298
446.92253285773
430.08737303522
411.33833648069
390.78671182302
368.62869486207
345.13148056362
320.61742572857
295.43675105833
269.93606393255
244.4251300434
219.14313529863
194.24398511996
169.68140892375
145.15631727187
119.77678667784
90.867731971023
561.23860709075
556.76160090358
553.44803144962
550.42927829713
547.50133492359
544.58153797817
541.64150537527
538.66556370621
535.60624127822
532.36627667527
528.80833735051
524.75657995795
520.00212014867
514.30924245371
507.42415596188
499.08741471202
489.0506388323
477.10335498376
463.10765367977
446.89421536966
428.44624977082
407.85152388081
385.3145624092
361.15277045405
335.77575815261
309.64966964631
283.25508839712
257.04364305867
231.40045298177
206.61589635344
182.86058508323
160.22596759939
138.56373115748
117.52599559353
96.189829572873
70.958474004061
86.943450653793
68.052007304487
54.113214454156
44.658978130445
38.472018752702
34.292674324446
31.487997504785
29.669415955087
28.593720189688
28.098357783327
28.022297513086
28.396026765377
29.013892123505
29.808152062205
30.724121003378
31.692108433451
32.672904179605
33.635938850744
34.562249786604
35.44314213992
36.273044076837
37.049385961983
37.773707809744
38.4488686684
39.077588711672
39.662629826562
40.209004417638
40.719677754549
41.195159179667
41.643244474283
42.061595734442
42.456377822579
42.827309720829
43.177645332482
43.50868533597
43.821975041777
44.119199511154
44.401347387126
44.669722842661
44.925454935549
45.16908910849
45.402183994573
45.624517796721
45.838029172048
46.041988816388
46.238375440946
46.426443973262
46.607768892077
46.782013125037
46.94999849943
47.111956245236
47.268205348936
47.41916377227
47.565078246802
47.706231930632
47.842870807421
47.975232813022
48.103535769444
48.227986533948
48.348774465573
48.466075914153
48.580055242914
48.690867876581
48.798659427416
48.903566312856
49.005717063758
49.105232797485
49.202229957059
49.314101387042
50.299525990176
50.872918685229
51.24129509302
51.578264424256
51.898460111532
52.207121218209
52.507704839561
52.801652890437
53.089356348569
53.372106813346
53.654104293411
53.944429345307
54.257935061355
54.614095348876
55.031944372801
55.582380305532
56.117327946008
56.638677897196
57.076199769176
57.392081237758
57.589960193807
57.69870493258
57.751176850608
57.772793183651
57.779856602768
57.78138886652
57.781493154764
57.781653054166
57.782222710183
57.783178758096
57.784379002858
57.785645386188
57.78680191915
57.78766730783
57.788106954131
57.787891629015
57.786890733927
57.785274495078
57.783196672622
57.780561452187
57.777402361201
57.773839570474
57.76998504711
57.765949716977
57.761795449387
57.75758637208
57.753419152999
57.749366409712
57.745508233718
57.741869908795
57.73838465711
57.735017960845
57.731788315432
57.728740340469
57.725867912385
57.723168930427
57.720683605495
57.718422520815
57.716372004212
57.714532338156
57.712911286972
57.71150299883
57.710306449436
57.70930973126
57.708559685865
57.708445264776
57.710768613548
57.719417997356
57.746372915175
57.816033603739
57.9464809715
79.514829313749
61.201949779041
48.763665046224
40.877448695947
35.725585140477
32.380707850132
30.206148664722
28.876246936334
28.178440664828
27.962522379538
28.1240893908
28.572093459324
29.270584346251
30.10613125229
31.026303561522
31.989114462299
32.955444989802
33.900987127066
34.809754686938
35.672161010307
36.483769928096
37.2437047683
37.952954549001
38.613873249604
39.229582749021
39.80363821093
40.339247708633
40.839867008087
41.308360068193
41.747492863405
42.159970796723
42.547943230835
42.913676238124
43.258834688057
43.585334424882
43.894504662661
44.187895503541
44.466580014856
44.731825180181
44.984499811077
45.225655864128
45.456004003538
45.676402920394
45.887447846372
46.089838206838
46.284083041625
46.470737892561
46.650264344525
46.823097739725
46.989648216232
47.150269686855
47.305314191919
47.455082613156
47.59988480252
47.739978360331
47.875615312045
48.00702437149
48.134421889679
48.258007391914
48.377968874082
48.494480553099
48.607705446976
48.717795347193
48.824892815051
48.929131860401
49.030638407668
49.129532163447
49.225896450847
49.427500111807
50.500795466877
50.972715921215
51.329472462219
51.661527657425
51.978228123454
52.284390272082
52.582936868578
52.874925995278
53.160800097031
53.442410197496
53.724995888757
54.019016438699
54.340635097653
54.709843996177
55.144116978379
55.5796549879
56.114312881855
56.635718173182
57.073671060155
57.390170360503
57.588647331266
57.697850871356
57.750617543349
57.772391148505
57.779510103966
57.781038452743
57.781112734204
57.781237419624
57.78177754003
57.782713780292
57.783905710407
57.785178174042
57.786353855484
57.787247333863
57.78771872559
57.787557410605
57.786611898293
57.78503395208
57.782978846603
57.780373604452
57.777236256028
57.773689037518
57.769835134527
57.765778355049
57.761588299931
57.757343865332
57.753131721264
57.749032058318
57.745116390572
57.741405568656
57.737851247056
57.734430254088
57.731161933818
57.72808257684
57.725195999721
57.722507336482
57.720049717676
57.717830444585
57.715840484697
57.714080464088
57.712556417888
57.711261667251
57.710194608837
57.709341867553
57.708734951801
57.708754578571
57.711229470488
57.720021627289
57.747233899653
57.817988884583
57.953023250019
75.62728519434
56.195218812783
44.654759490784
37.684815192627
33.339356672375
30.676452729153
29.084163171946
28.207163314856
27.845736816444
27.843064024508
28.194618433192
28.746545625843
29.466622387394
30.305091280728
31.212386099148
32.152608650832
33.095576097596
34.019683619376
34.909179249726
35.754716044923
36.552492075023
37.301234951533
38.001252685848
38.654680801214
39.264460784837
39.83351575652
40.36484501894
40.86177330906
41.327264762481
41.763802434587
42.174014369861
42.560116002984
42.924130617817
43.267943931583
43.593154015279
43.901323591498
44.193736172261
44.471671273054
44.736170588646
44.988284916493
45.228880371941
45.458803657935
45.678787468048
45.889509382723
46.091601827573
46.285591757952
46.47203919681
46.65136475782
46.824052985463
46.990450775849
47.150966762548
47.305908109205
47.455599807827
47.600325652919
47.740355677377
47.875940259156
48.00730615142
48.13466770847
48.258222887894
48.378159093188
48.49465005581
48.607858465024
48.717935535172
48.825023283518
48.929255466503
49.03075841917
49.12964920537
49.226012564307
49.434926037332
50.507715632973
50.976225733488
51.33262832197
51.664469908904
51.980913844206
52.286718162335
52.584798175003
52.876235359388
53.161513632023
53.442510602233
53.724450388151
54.017726166437
54.338401179163
54.706385201503
55.139188210763
55.574154176878
56.108024043544
56.629496443327
57.068364574904
57.386196950651
57.585968568388
57.69615961529
57.749550080364
57.771646515208
57.778863694796
57.780362260968
57.780351997722
57.780382461049
57.780841730952
57.781722442264
57.782886571162
57.784164367172
57.785374345371
57.786322772608
57.786861209095
57.786817266877
57.785987988939
57.784498432382
57.782497938923
57.779959880748
57.776874085892
57.773362327067
57.769513740666
57.765412472094
57.761145961909
57.756821348714
57.752507823707
57.748289662334
57.744237789159
57.740372308169
57.736677217186
57.733140925923
57.729786271213
57.726650292222
57.723746035307
57.721088185623
57.718698810985
57.716584896468
57.714744393469
57.71317853566
57.711888116598
57.710867559767
57.71010752926
57.709588810636
57.709345037594
57.709702062276
57.712531511387
57.721691024644
57.749510963237
57.822732329417
57.967529842338
68.49047305588
48.234633083007
38.44406250225
33.06532051903
30.251149234156
28.647364062307
27.854114051685
27.551484715775
27.582537571323
27.851518081773
28.371585668058
29.003424794243
29.744074277564
30.572060956826
31.453001696304
32.364432907885
33.278328996649
34.17427908124
35.03937526946
35.864817102662
36.645283996302
37.379110896809
38.06735783139
38.711183207017
39.312819230293
39.87520503817
40.401267162002
40.893608522599
41.355096648066
41.788385497683
42.195725277211
42.579368870572
42.941247416955
43.283206046679
43.606795951437
43.913531690194
44.204684681532
44.481489250682
44.744991977883
44.996214999899
45.236001057423
45.465213150613
45.684543839713
45.894705519173
46.09626530786
46.289810673601
46.475826755182
46.654790776264
46.827129036707
46.993229602006
47.153470742994
47.308171212562
47.457651609416
47.602183329265
47.742041551911
47.877469716081
48.008696506957
48.135933135796
48.259377126978
48.379213731056
48.495615034305
48.608742967352
48.71874856779
48.82577346404
48.929950425896
49.031404060574
49.130249690428
49.226574644937
49.446182800094
50.517636037967
50.981436597161
51.337272657137
51.668767763895
51.984814670605
52.290090174057
52.587491319669
52.878132627211
53.162555359504
53.442673167794
53.723686864062
54.015894492724
54.335215663638
54.701442759577
55.132142187319
55.565970325888
56.098557544721
56.620070388493
57.060288448802
57.380126855369
57.581863895243
57.693566700127
57.747921676564
57.77051842777
57.777894567365
57.779353115154
57.779216475027
57.779103822172
57.779438586352
57.780230775656
57.781348743151
57.782627352791
57.783881802591
57.7849095051
57.785552298834
57.785679156449
57.785016971864
57.783671040788
57.781763841374
57.779332754103
57.776329571203
57.772866732948
57.769019301177
57.764864912517
57.760504215109
57.75605061304
57.751578925986
57.747173704081
57.742918868343
57.738835501725
57.734941176634
57.731244492426
57.727774444773
57.724575620986
57.721675533969
57.719093350622
57.716840352073
57.714932809666
57.713371697778
57.71216022398
57.711292206192
57.710757185008
57.710549840919
57.71063872508
57.711048412817
57.712047965229
57.715462618494
57.725344096093
57.754238239074
57.831453157028
57.992901620939
53.629897180902
36.702456979116
30.673272565185
28.198289555054
27.282649468387
26.94832054835
26.982993758393
27.217916108454
27.608430032889
28.113030139206
28.696897359339
29.361557993271
30.103338141884
30.908486879171
31.757218665846
32.62782975006
33.503130018633
34.365304170871
35.200556260532
36.000237255302
36.759613502746
37.476455270847
38.149812905563
38.78150130467
39.373369030792
39.92763036894
40.446748042963
40.933477156866
41.390182145979
41.81937616439
42.223269703398
42.603935822839
42.963266795436
43.302974569766
43.624653099527
43.929669859346
44.219333304455
44.49479586522
44.757131431521
45.007275735812
45.246123106879
45.474465226795
45.693029075781
45.902477678199
46.103403856483
46.296367270472
46.481849188519
46.660330071705
46.83221473811
46.997913887523
47.157774168984
47.312135382608
47.461300731156
47.605550892005
47.745149475047
47.880336923709
48.011343601882
48.138378496847
48.261638787119
48.381306449796
48.49755273621
48.610538964703
48.720415836391
48.827323799669
48.931394096617
49.032749863166
49.131507286812
49.227751354494
49.462213386504
50.530375378807
50.988352186294
51.343434296304
51.67443728343
51.989933305957
52.294500994931
52.5910102499
52.880616664651
53.163932326038
53.442914401759
53.722731539396
54.013557880906
54.331126926804
54.695078387822
55.123049187661
55.555165676136
56.085985837746
56.607473062573
57.049437678446
57.371931893439
57.576299629991
57.690043536409
57.74571366587
57.769002832707
57.776611794872
57.778029691101
57.777730046712
57.777426751888
57.777592059339
57.778260143339
57.779309319372
57.780578155538
57.781882864915
57.783010950743
57.783788852942
57.784133620679
57.783690357272
57.78254591859
57.780778003073
57.778485317917
57.775598848243
57.772202551401
57.768359399869
57.764142752475
57.759662821508
57.755036310921
57.750354508974
57.745706996873
57.741189113004
57.736835050465
57.732695588369
57.728807385164
57.725212912251
57.72197458335
57.719130753139
57.716697586537
57.714701870036
57.71315844999
57.712079947475
57.71146069563
57.711297224244
57.711572653005
57.71227541183
57.71336671852
57.714860090432
57.716963688116
57.721344800621
57.732439442525
57.762897188325
57.845401868983
58.029612676414
26.703826023238
24.53384174386
24.767047145925
25.31529266873
25.852488145041
26.36927520347
26.877151789857
27.410099271379
27.948217795049
28.529429046056
29.147125042165
29.818072579866
30.539932527463
31.30805282648
32.112774305203
32.938193653506
33.76907632582
34.590586707563
35.390915173552
36.161178696495
36.895721563255
37.591660040627
38.248411696988
38.865868077371
39.445857749211
39.990294426236
40.501384785307
40.981211107393
41.432144854843
41.856477679075
42.25627409399
42.633383067296
42.989684606774
43.326777223584
43.646151822776
43.949165729687
44.237075827
44.510986772562
44.771935041455
45.020854965768
45.258611454301
45.485963851302
45.703643332933
45.912285217669
46.112489773389
46.304780597896
46.489658739646
46.667577611786
46.838952609446
47.004176731727
47.163598480456
47.317558178065
47.466350162288
47.610259972478
47.749540271317
47.884434650633
48.015168395419
48.14194965214
48.264973530039
48.384421368505
48.500464619057
48.613262996229
48.722965733971
48.829712174694
48.93363319118
49.034850441396
49.133483239603
49.229607579544
49.485978547817
50.545684009331
50.996939609055
51.351107796708
51.681477650567
51.996264283953
52.299941253873
52.595347435599
52.883687143787
53.165654377336
53.443255340599
53.721616940041
54.010761367369
54.326194185116
54.687366074425
55.111991047884
55.541813402673
56.070368385496
56.591718578842
57.035784027148
57.361562649565
57.569225012065
57.685550988948
57.74290413622
57.767096213342
57.775027571835
57.776415190751
57.775921923734
57.775382283842
57.775331358174
57.775834946525
57.776785663439
57.778027016653
57.779377964559
57.780622164245
57.781566013985
57.782166819844
57.781988792632
57.781099879572
57.779539391369
57.777405303925
57.774678986242
57.771372114275
57.76754040647
57.7632548799
57.75863950802
57.753803402585
57.748862621499
57.743924269792
57.739091175334
57.734427381175
57.730015145759
57.725924634868
57.722225197736
57.719008439925
57.716311285927
57.714166630278
57.712615327147
57.711692948909
57.711402811381
57.711741402534
57.71270515493
57.71427097089
57.716419991155
57.719107079492
57.722332998861
57.726240948352
57.732246611289
57.745260466868
57.777912416548
57.866759041551
58.079184996393
26.009904732078
22.921902438293
24.121769618839
25.124148115075
25.944340651204
26.645091518849
27.246937683699
27.817152020878
28.380221141644
28.953424033673
29.5547896339
30.190492139899
30.864062855537
31.575910416451
32.321682948193
33.091775179056
33.873006992464
34.65316096427
35.419766175895
36.163731891317
36.878448129324
37.559881908679
38.205976374822
38.816562737242
39.391806745114
39.933046598642
40.44237830559
40.921607678488
41.372597123709
41.797374321132
42.198070792787
42.576429678109
42.934091017108
43.272632626895
43.593553315931
43.898149717113
44.187607307767
44.4630630542
44.725525997
44.975918727378
45.215087515297
45.443817722212
45.662818256639
45.87272351289
46.074132470675
46.267582613281
46.453573093829
46.632549415697
46.804935447985
46.971122385703
47.131468516259
47.286308141094
47.435939324784
47.58065099112
47.720702111295
47.856336866676
47.98777691328
48.115232754674
48.238903688156
48.358973470982
48.47561402518
48.588985755528
48.699240607392
48.80652015747
48.910956545668
49.01267658584
49.111791287615
49.20839582771
49.340980934796
50.392737206733
50.911853270243
51.274740285362
51.609129926662
51.926519250522
52.231622408884
52.527678068384
52.816276489624
53.098168941033
53.374931815521
53.650708445194
53.934035059948
54.238825997203
54.583618994936
54.987375221827
55.526001421306
56.051767320872
56.572816835842
57.019291240808
57.348956701597
57.560574671689
57.680036983351
57.739461258858
57.764788564468
57.773151849791
57.774533973067
57.773824593727
57.773005671677
57.772690491637
57.772984592647
57.773799862864
57.774987854266
57.776369155677
57.777734962723
57.778889197255
57.778454823987
57.778757577885
57.778345435367
57.777215249011
57.775380170148
57.772963201561
57.769842228364
57.766051998338
57.761662909874
57.756816230301
57.751615472644
57.746210810265
57.740756035583
57.73537732488
57.73019845506
57.725360304883
57.721001642103
57.717251798057
57.714211175902
57.711921465327
57.710561677402
57.710176614364
57.710788022651
57.712417720918
57.715067266848
57.718733561291
57.723378373782
57.728977415581
57.735480627214
57.742864401159
57.751176727011
57.76133429014
57.778904110271
57.816366440757
57.916140334828
58.176962155148
34.290307395496
28.758229233199
28.466983740774
28.488376007905
28.659814577616
28.919014839147
29.254145285643
29.662924683196
30.081340414212
30.54457644864
31.050056861955
31.587726044749
32.159934955684
32.766585621956
33.404491850086
34.06720314143
34.745045107891
35.427895576459
36.106716042641
36.772148875429
37.417348229309
38.037901553279
38.631092029243
39.195555770318
39.731148289067
40.238353179841
40.717998723584
41.171178203593
41.59959423655
42.004748790686
42.388138349854
42.751135223488
43.095256637705
43.421812134186
43.732023773741
44.027010368004
44.307886736748
44.575619281175
44.831113602269
45.075184856107
45.308622632222
45.532139254982
45.746371110472
45.951903389561
46.149283119319
46.339025373222
46.521585800158
46.697392211574
46.866835983448
47.030291959847
47.188095215608
47.340557049511
47.487966902001
47.630593936241
47.768691205984
47.902487720856
48.032199580063
48.158026365459
48.280158116742
48.398773411808
48.514037766933
48.626107207394
48.735127584004
48.841235840302
48.944558017608
49.045220206573
49.143335316255
49.238868501918
49.616003798681
50.604598702971
51.031994542908
51.382743852487
51.710545250206
52.022327496349
52.322277626398
52.61317900969
52.896437777117
53.173042778619
53.44516604437
53.717747978818
54.000195570895
54.307090566561
54.657082642161
55.06808046871
55.487438480262
56.005922660003
56.52563366524
56.977608043184
57.316717196056
57.538208744691
57.665667410064
57.730497186785
57.758893602899
57.768551357176
57.770070508844
57.768905690953
57.767417645055
57.766428702548
57.766151191246
57.766554492576
57.767518468808
57.768875881544
57.77043666231
57.771996678944
57.771730576346
57.772797886477
57.773213635914
57.7728969148
57.771748245948
57.769808579463
57.767109423812
57.763491588841
57.759033764308
57.753863028129
57.748124024118
57.742003741388
57.735763489475
57.729601588834
57.723759695738
57.718497204292
57.714087129973
57.710639783936
57.708540125829
57.708042831501
57.709328755282
57.712514571688
57.717667781654
57.72485704449
57.734113633584
57.745443805774
57.758803885047
57.774185862188
57.791564167037
57.810910630598
57.832157109359
57.855678427548
57.885853099391
57.936782348163
58.054089149075
58.387193133789
37.745413888087
32.600363451778
31.926812549186
31.617267575317
31.470465046454
31.4240562379
31.482993743508
31.629194541171
31.859681957905
32.163605866816
32.503984646134
32.902612635729
33.350103745151
33.838722033922
34.360793993416
34.912686316997
35.486712624123
36.074062317527
36.666342909441
37.256110775251
37.836137644372
38.400681789825
38.945978733898
39.469607053105
39.970308615334
40.447717972072
40.901927037083
41.333534715633
41.743461497461
42.13264575717
42.502223776906
42.853390981053
43.187210389111
43.504800542076
43.807109236617
44.095167306253
44.369938701486
44.632276595725
44.882966091261
45.122764653064
45.352409333919
45.572525447921
45.78370933589
45.986496743079
46.181417102784
46.368928634701
46.549471607086
46.723442379199
46.891222443674
47.053160844973
47.209574457548
47.360761066735
47.506995314119
47.64854295624
47.785640981043
47.918512539488
48.04736518059
48.172394713676
48.29378792484
48.411714936855
48.526337470476
48.637806904803
48.746265799665
48.851849092817
48.954682210819
49.054884282312
49.152558169094
49.247829178278
49.747882762344
50.652172031027
51.062871445059
51.410721929821
51.736235935377
52.045337498034
52.342003431961
52.629015834359
52.907957007674
53.180043090012
53.447558902307
53.715271691279
53.992058252375
54.291700912979
54.632107089187
55.031204765799
55.440542818332
55.949237214744
56.466138683262
56.924008810692
57.274471281318
57.508376077844
57.646226321288
57.718329518355
57.751060404658
57.762785234296
57.764796788129
57.763249365904
57.76099831996
57.759157647253
57.758089785121
57.75785187917
57.758373539164
57.759517671107
57.761121025037
57.762984463559
57.762855760048
57.764760834609
57.766156642262
57.766888745181
57.766737602537
57.765583933677
57.763437610593
57.760237650474
57.755882142116
57.750471075707
57.74420035759
57.737334444452
57.73029123577
57.723392380166
57.717065092832
57.711727677512
57.707707035745
57.705796227464
57.706515494895
57.710353038159
57.717691525795
57.728800392013
57.743869608766
57.763112763886
57.786652187798
57.814668480237
57.847258421107
57.884529945284
57.926558437681
57.973342190009
58.024706607235
58.081028028456
58.143170087122
58.225693413711
58.364826289905
58.741260726839
40.269480528569
35.188641851513
34.401078545375
33.999641097397
33.743026361918
33.582809113274
33.493924471574
33.497555157473
33.581383357823
33.726033930151
33.948546448086
34.220820143712
34.539993064275
34.911280250977
35.326163556678
35.776603312173
36.25418218402
36.75235318552
37.262906576295
37.778333522952
38.292270719312
38.799410238548
39.294953975113
39.775729069472
40.239538389777
40.685118211956
41.11194854773
41.519977406042
41.909473527255
42.280956958353
42.63517064583
42.972918897809
43.294965787836
43.602191786487
43.895465914452
44.175574514556
44.443309950644
44.699364190044
44.944485451645
45.179344078859
45.404537369888
45.620663658502
45.8282307962
46.027773193448
46.219751935311
46.404603878965
46.582721276247
46.754490158983
46.920274000203
47.080386618664
47.235131889479
47.384784252016
47.529615381502
47.66987170078
47.8057785059
47.937549451946
48.065382188925
48.189470165481
48.309989818087
48.42710661154
48.540975323734
48.651740714451
48.75954157754
48.864507656066
48.966763125275
49.066414458665
49.163561707781
49.258217933363
49.904866759453
50.704870996476
51.099844484091
51.444212819956
51.766855607363
52.072713208726
52.365509746969
52.648024706404
52.922033664832
53.18899072528
53.451284592075
53.713477239719
53.983832989817
54.275208929183
54.604599607618
54.989788290278
55.386681533896
55.882817612276
56.394768213626
56.858157396246
57.221349313396
57.47002065393
57.620739803478
57.702208890068
57.740823845295
57.755644702176
57.758743080066
57.757056583365
57.754057739597
57.751237903985
57.749175332701
57.748044557628
57.747854090131
57.748519167587
57.749916125031
57.751873311937
57.751696044265
57.75436272807
57.756780048886
57.758709534823
57.759820398123
57.759856937501
57.758629635399
57.756094548783
57.752150120479
57.746740082852
57.740084545351
57.732567365211
57.724811064169
57.71736651552
57.710851500997
57.705955615302
57.703921394498
57.7058787035
57.712956068862
57.726193656533
57.746507138044
57.774575124408
57.810863025273
57.855983366287
57.910471205017
57.97491422412
58.049654555222
58.135225723896
58.231943824359
58.340159617743
58.45968038246
58.591074254017
58.732236303573
58.891757882739
59.083723643443
59.414885166559
42.510386305767
37.102236770407
36.267751790236
35.831166674639
35.540750438749
35.331624379351
35.188195088785
35.111235627746
35.104169695906
35.158947992708
35.270615330836
35.457610412687
35.68698838111
35.952401915493
36.268058375702
36.628957376261
37.022026907463
37.438658620768
37.873428562482
38.320139967121
38.771633145182
39.222492130457
39.668578234839
40.105914156524
40.531847299163
40.944543070233
41.342824607438
41.726032102697
42.093911087787
42.446533681168
42.784231270324
43.107462927677
43.416776966418
43.712779068201
43.9960766821
44.267300573201
44.527137411663
44.776198860653
45.015075015027
45.244353927388
45.464523712994
45.676114358686
45.879632562607
46.075506584227
46.264164596116
46.445972810266
46.621326388067
46.790582420558
46.954058735447
47.112062309343
47.264858625311
47.412727392559
47.555920520777
47.694666248852
47.829179715754
47.959657728601
48.086300173022
48.209286704499
48.328784248131
48.444951900058
48.557937265497
48.667881988032
48.774917013548
48.879164645704
48.98073929512
49.079749875241
49.176306893381
49.271841853433
50.07921217101
50.761276772335
51.142632378545
51.483183334984
51.802422674994
52.104474829125
52.392840025947
52.670309527093
52.938861872671
53.200190993796
53.456772409189
53.712933531892
53.976262532266
54.258583106736
54.575813589944
54.945375752743
55.327506525972
55.808160124012
56.312198296111
56.7798799793
57.156443103455
57.421889956128
57.58795422987
57.681080642813
57.727411206104
57.746643926563
57.751711816597
57.750360064078
57.746788953395
57.742955685085
57.739757104018
57.737512010805
57.73633066291
57.736213070238
57.737089802905
57.738834528229
57.738313034616
57.741472159355
57.744786420298
57.747910368509
57.750432697358
57.751972714596
57.752186529413
57.750752025473
57.747593473378
57.742633973614
57.735941960148
57.728033468008
57.719801821811
57.712060671214
57.705834586883
57.702950985081
57.705429714837
57.715589766995
57.735836246797
57.76842853479
57.815348543969
57.878061707029
57.957668761508
58.055561072022
58.17332772724
58.311785374908
58.472569005758
58.657387895371
58.866602650842
59.101026769664
59.360076851909
59.644828120974
59.950304832029
60.279813081997
60.611169310394
60.917664357579
44.850747835689
38.595285176165
37.752202879429
37.291474555214
36.990012243846
36.763546827111
36.600345335214
36.482851571844
36.422881372795
36.422431559257
36.466180218022
36.56761048129
36.732377939482
36.938256332482
37.172490658258
37.450528741523
37.768459249007
38.11497222066
38.483275122119
38.866917889922
39.260966261918
39.659580512584
40.058131247273
40.4532102772
40.841603267639
41.221124825618
41.590223793762
41.947879934064
42.293409929293
42.62641915435
42.946833232254
43.254815337418
43.550641202802
43.834677901949
44.107353233755
44.369151576732
44.620549514993
44.862023993955
45.094073384119
45.317217594762
45.531886441478
45.738512304956
45.937535326314
46.129319814166
46.314251879891
46.492709426505
46.66500631343
46.831467639016
46.992375679622
47.148012940721
47.298656314078
47.444536282335
47.585888881926
47.722930573264
47.855860121193
47.984882125835
48.110172063443
48.231902006392
48.350231136959
48.465308755791
48.577283039535
48.686285957096
48.792440986592
48.895864514641
48.99667169086
49.094973946045
49.190873322436
49.294827638785
50.242243973994
50.821584334345
51.191390436209
51.527776410189
51.843061813833
52.140727374866