/*--------------------------------*- C++ -*----------------------------------*\
| =========                 |                                                 |
| \\      /  F ield         | OpenFOAM: The Open Source CFD Toolbox           |
|  \\    /   O peration     | Version:  2312                                  |
|   \\  /    A nd           | Website:  www.openfoam.com                      |
|    \\/     M anipulation  |                                                 |
\*---------------------------------------------------------------------------*/
FoamFile
{
    version     2.0;
    format      ascii;
    arch        "LSB;label=32;scalar=64";
    class       volScalarField;
    location    "0.00013";
    object      dydt;
}
// * * * * * * * * * * * * * * * * * * * * * * * * * * * * * * * * * * * * * //

dimensions      [0 0 -1 0 0 0 0];

internalField   nonuniform List<scalar> 
109340
(
0
0
0
0
0
0
8.5821061865127e-08
0.0014335146243862
0.0090922799600639
0.026838915238041
0.058241036022505
0.10665161773805
0.17533136406465
0.2676660494383
0.38738698379832
0.53881755724802
0.72727544579317
0.95951067521293
1.2442975447642
1.5931057846344
2.0211403545759
2.548292107975
3.2006450515288
4.0125972744877
5.0302555031199
6.3161834543291
7.9570850193264
10.076170040265
12.854257784004
16.567416150432
21.657683112783
28.874852577488
39.576756728603
56.38891025217
84.699807922013
136.19041178999
0
0
0
0
0
0
2.5173265939565e-05
0.0022614384802953
0.011486051385114
0.03164217627006
0.06626058462026
0.11866879174611
0.19215170082023
0.29016630865725
0.41657508759153
0.57596994262671
0.77394666419785
1.0176915233647
1.3165933906363
1.6829821185458
2.1331268059837
2.6883087332887
3.3764532040982
4.2344910705047
5.3120562573311
6.6768355371593
8.4231346947813
10.685963301158
13.665338136332
17.670215881277
23.202857367156
31.132930754906
43.085515514655
62.338869495929
96.258702120074
161.53405861841
0
0
0
0
0
0
1.1647877920642e-05
0.0019948423184375
0.010801060130675
0.030500054488366
0.0646824469646
0.11672245672917
0.18994766779356
0.28784391808883
0.41427496157267
0.57376489620388
0.77187686434132
1.0157322241838
1.3146783375094
1.6809985682717
2.1309656523734
2.6858237564906
3.3734527205936
4.2307449494294
5.3072805555751
6.6707156521337
8.4152969434941
10.675950945176
13.652596132049
17.654354085775
23.184681488492
31.120520867193
43.133392443191
62.729492433379
98.328572750683
172.60205226574
0
0
0
0
0
0
4.649493353652e-06
0.0018168896739501
0.010405915637778
0.029944659663094
0.064040976119362
0.1160457350469
0.18925166207738
0.28710136265178
0.41342684202452
0.5727343847017
0.77056096204802
1.0140079802214
1.3124606101744
1.6781814225489
2.1276186117342
2.6820579721799
3.3694594737368
4.2268945454442
5.3040786654849
6.6690137590707
8.4164008757
10.681854560204
13.666415971679
17.681430961769
23.235041375281
31.216629531614
43.366359643964
63.503176638223
101.73659062576
192.44159198346
0
0
0
0
0
0
2.7211620609521e-06
0.0017145669360361
0.010080097817776
0.029305735914892
0.063025216993363
0.11460771342778
0.18736595000076
0.28476499542174
0.41066267635495
0.56959410504153
0.76711169105582
1.0103231928316
1.3092933108036
1.676147836238
2.128325484659
2.6878226301505
3.383725985564
4.2549158353578
5.3533345387874
6.7504652557181
8.5459000292558
10.882407891533
13.971826766748
18.142684433636
23.934814791605
32.280355159259
45.07491750081
66.624015460541
109.5805169335
231.69833602466
0
0
0
0
0
0
7.6933664977935e-05
0.0032483431156258
0.014957638550416
0.039609602799642
0.081058889074377
0.14294017843162
0.2289428998013
0.34311337991547
0.49020718045843
0.67609971523255
0.90825276715637
1.1958453342529
1.5496081861162
1.992151126546
2.5458262506475
3.2413236789446
4.119474823171
5.2344492192858
6.6588775565568
8.491532740983
10.869378630468
13.987327728189
18.13256355232
23.747933318202
31.566948392911
42.803059744647
60.02471703934
89.069895827066
147.9903826695
347.0187077164
231.64421390245
388.19303384533
601.85881352261
855.05775240202
1131.2373805689
1450.1980235358
1815.8691667719
2231.3013267847
2693.5384728432
3191.353825925
3741.8842687418
4206.8554264864
4639.1593828679
5009.9459089736
5283.1214012654
5473.2972334782
5580.9865952228
5620.2707767614
5605.9007978867
5545.8112452744
5451.7810795255
5336.9736459033
5208.0756456618
5069.3563002235
4926.3822373694
4784.8290481181
4642.741965553
4499.4319602116
4368.6177735579
4233.5933253595
4109.346713217
3987.5971258873
3871.0593791312
3761.0762841285
3653.7455846011
3553.7727913377
3455.8484409498
3364.6765348641
3275.7058751452
3192.2390246432
3111.5147856888
3034.7366519487
2961.6338517977
2890.9910943641
2824.4606641173
2759.491143947
2698.5370297234
2638.825771032
2582.5767887321
2527.8049562598
2475.5238658605
2425.3443808782
2377.0137197554
2330.5174323158
2285.7428943767
2242.6112026778
2201.0357736389
2160.9385707284
2122.2414324187
2084.8750224198
2048.7748896506
2013.8810253196
1980.1358855383
1947.4848329449
1915.8747560564
1885.2605870122
1855.5963724738
1826.8460406148
1806.0393873955
1711.291792168
1329.8800042664
1220.8533767628
1138.4931596825
1065.1428348347
998.86184301752
938.18462973433
881.85630729211
828.78735029976
777.94972178346
728.25378500164
678.52711058896
627.64723089399
574.86300534816
520.23485762152
458.2310662561
404.78511349035
355.52737404901
313.03934171879
279.26281826716
254.81178300633
238.64076542674
228.87113332601
223.53473786119
220.9284781905
219.75059273283
219.17948880807
218.79390315759
218.42156899522
218.00917670601
217.55207153013
217.05868964988
216.55362108935
216.06587636123
215.62071782188
215.1006405169
214.80962606721
214.59763438672
214.44434724413
214.35305834401
214.30100863441
214.26390203594
214.21689805501
214.13565832605
214.00832625914
213.83075817594
213.58258330607
213.24696188039
212.81293252294
212.27789966971
211.67371405842
211.0281770557
210.35225915684
209.64328386632
208.91145263195
208.16959666743
207.41180331307
206.63780032619
205.85451773487
205.05896090833
204.2495617688
203.42774258969
202.59181337679
201.74752685655
200.90822010673
200.14238136955
199.74358479169
200.28243709693
203.70108048345
214.60032309555
235.92201501251
291.64846150131
497.7089643465
755.06795007388
1034.2192895135
1353.5641273183
1704.8298143244
2100.1570140318
2535.5028220089
3001.9620111679
3488.2760806925
3975.4463010968
4445.9942644887
4822.4023727074
5134.0588178956
5370.8643400436
5524.2536245883
5605.5242089383
5624.0449659195
5590.9520100342
5518.76913701
5418.2374751869
5297.8142253098
5165.044286453
5025.5176676017
4882.8076198362
4739.6490997176
4598.5199628112
4460.2428280166
4325.916572405
4196.5789525452
4071.7836142572
3952.3655546482
3837.7449898545
3728.4646713505
3623.8547705565
3524.1707840897
3428.8807262891
3338.0679309353
3251.2440005635
3168.4734900096
3089.2651668369
3013.6890993482
2941.2871738435
2872.1326414985
2805.809212788
2742.3754263655
2681.5019114116
2623.1768213544
2567.1745768345
2513.4124134682
2461.7493349506
2412.0922314655
2364.3342199188
2318.3548791193
2274.075557319
2231.4057174201
2190.265660343
2150.5768671943
2112.2674450627
2075.2689624396
2039.5175496879
2004.9532079143
1971.5200069937
1939.1660539658
1907.8423585427
1877.4979964149
1848.0898280495
1819.5283341604
1836.945307804
1547.1694414609
1295.31730846
1198.6447692933
1118.9701804623
1047.6670881406
983.01656306601
923.63399614115
868.30341387407
815.96786238173
765.5968133903
716.08211669359
666.24666597344
615.02261363655
561.81561388467
506.93798988316
458.67292152021
405.24873558909
355.97947094921
313.45862124569
279.63226346458
255.12316236656
238.89453787557
229.07386146648
223.69619985665
221.06014074654
219.86312944317
219.2805947314
218.88805005537
218.51056581347
218.09443309895
217.63411961204
217.13877155705
216.6308159623
216.14020319492
215.69350564225
215.1710433285
214.87231423479
214.6543002585
214.49543826685
214.39793819503
214.3391447278
214.29328073776
214.23784980502
214.15082518908
214.01908453898
213.83327381875
213.57629723297
213.22925578821
212.78362010776
212.2408301922
211.62936396669
210.97284161482
210.2816940628
209.55763592579
208.80995571239
208.04769842315
207.26732503284
206.46970268487
205.66062872204
204.83835659015
204.00127017408
203.15058181851
202.2842556902
201.40900142996
200.5375363234
199.73411964192
199.30042392936
199.80396879862
203.21167176654
214.24913666712
236.46865160555
344.00639306134
629.26147904904
935.21431488654
1271.3498421362
1649.1685314697
2047.6269668442
2464.3269551905
2898.9557582956
3342.8087626334
3808.8364337243
4207.3912051603
4593.2280063368
4929.3927192756
5199.9633715821
5404.3132429488
5539.4077649981
5608.187222805
5617.5885431742
5579.7296445566
5506.484202519
5405.8797044308
5285.6050050876
5153.555364775
5014.8044098601
4872.6212280813
4730.2350590028
4589.8205619877
4452.4140741923
4318.746930578
4189.8831169477
4065.8739717368
3946.787559867
3832.8626836582
3723.7896707306
3619.7182602099
3520.2286889002
3425.3647029334
3334.7032922935
3248.2408423456
3165.5860128083
3086.6749090202
3011.200899393
2939.0521965675
2869.989608152
2803.8716518795
2740.5415860476
2679.8237187769
2621.6092754907
2565.7142005269
2512.0627014705
2460.4890261464
2410.9166289082
2363.2236195501
2317.3238184678
2273.1144736444
2230.5075742481
2189.4239711733
2149.7870869944
2111.5263992088
2074.5732930763
2038.8638320034
2004.3382641396
1970.9411563065
1938.6205456115
1907.3266641309
1877.0111285865
1847.6281830788
1819.0928460883
1839.5960404916
1540.942801364
1294.0634243341
1197.8528254288
1118.3238710079
1047.1291730591
982.5878435737
923.30899643974
868.08505381925
815.8566157384
765.59560127551
716.19525756323
666.47937901948
615.37871272028
562.29286606624
507.52326946564
459.2667251948
405.87259715514
356.61372383594
314.05521846103
280.15819064152
255.56071161669
239.24550262491
229.35038069641
223.91485623504
221.24185337883
220.02577316586
219.43677907883
219.0445814796
218.67004850291
218.25654950763
217.79753407674
217.30390248323
216.79485035491
216.30247056955
215.85253547607
215.32604982163
215.01094831498
214.78000741551
214.60840136784
214.49739003058
214.42276623507
214.35645561968
214.28014118999
214.17791442787
214.03701719819
213.83496608709
213.56012215672
213.19430152973
212.73099433024
212.1749756275
211.54660573883
210.86645076509
210.14624177146
209.38951002501
208.60473659358
207.79801172304
206.96972089845
206.12111792327
205.25666069684
204.37654480544
203.47968039221
202.5663252752
201.63457878587
200.69260798843
199.75110675322
198.86647782529
198.35080355485
198.77341021422
202.15203819348
213.41359009126
237.45430557573
465.71499189231
923.07353962405
1349.7164506598
1816.8583027669
2237.0261831301
2668.1618137263
3070.4751306196
3458.6222483608
3836.9118349846
4212.9021733408
4501.4118705125
4797.6077678895
5067.2709299586
5288.0479227987
5458.4498287289
5565.6141619512
5615.2110655754
5614.7279827383
5570.9690952202
5492.7085561337
5390.3213040064
5271.320346563
5139.6010027576
5001.1616127731
4860.2281214804
4718.9799771155
4579.1452596182
4442.5569837423
4309.9840830568
4181.696940426
4058.4043356438
3940.0149419615
3826.6441394695
3718.1226836364
3614.4727077439
3515.4343257932
3420.8990888713
3330.6193871201
3244.4273904652
3162.0646752076
3083.3999579177
3008.1626106426
2936.2247906548
2867.3453418798
2801.4247278253
2738.2400933941
2677.6910514064
2619.5975011066
2563.8512932206
2510.3104390534
2458.8554744008
2409.382957043
2361.7826221797
2315.9713790441
2271.8433931908
2229.315379767
2188.303259952
2148.7328544136
2110.5329205182
2073.6360005742
2037.9791546253
2003.5031605491
1970.15246567
1937.8746568624
1906.6202146753
1876.3413197174
1846.9917660031
1818.4868910858
1843.3458941892
1532.2621458248
1292.3332202336
1196.7177744604
1117.3900228726
1046.3555614159
981.96847519309
922.83991284775
867.76889367964
815.69469268954
765.5918760434
716.3559274907
666.81197468194
615.88893826644
562.97751757697
508.36250479143
460.13722347904
406.80494123811
357.55602099106
314.94749405374
280.94675376494
256.21818999548
239.77191793765
229.76382368544
224.24192886883
221.51349090303
220.26939306845
219.67134958592
219.28021621066
218.91056138416
218.50227341066
218.04709898837
217.55551098053
217.04628316269
216.55150729038
216.09618007319
215.5576771618
215.22376627995
214.9739402618
214.78170470023
214.64749136902
214.5469561488
214.45215848593
214.34876944359
214.22291917039
214.05897599854
213.83251391395
213.53218781328
213.14123277011
212.65171346284
212.07179512769
211.41410436432
210.69552282442
209.92916008375
209.12018145434
208.27479513615
207.39913154902
206.49598353249
205.56718150498
204.61786364849
203.64762237805
202.65586190234
201.64374674757
200.60926222445
199.56231097009
198.51171135279
197.50478375404
196.84530073748
197.14102379091
200.42246327489
212.07072939298
239.35500278566
886.0496899459
1720.0048415508
2405.6802467954
2958.2616588468
3331.4731667327
3656.4736612296
3918.7109490346
4160.7517735883
4380.4817657659
4588.7504422206
4810.2662485068
5028.609002545
5226.5484214493
5391.4136975938
5514.8284897289
5594.4227451217
5625.3200929094
5611.0390853917
5559.7035996616
5478.57337438
5374.1890679375
5253.1132917653
5122.908597729
4985.888634633
4845.7014997422
4705.3473706915
4566.9812257367
4431.3517833042
4299.6462143939
4172.3471115119
4049.7931713759
3932.1510822517
3819.4033499511
3711.5455010035
3608.3585870536
3509.828482272
3415.7017200159
3325.8261426233
3239.9497154372
3157.9407472181
3079.5415001486
3004.5885784317
2932.8766762651
2864.2434085785
2798.5159028036
2735.5309998371
2675.1542192504
2617.2261364683
2561.6327856926
2508.2255591639
2456.9054518002
2407.5503391951
2360.0643257642
2314.348775456
2270.3141877241
2227.875514836
2186.9473382901
2147.4547315324
2109.3255167405
2072.4946374745
2036.8997806319
2002.4820073765
1969.1855239732
1936.9581655833
1905.7505211186
1875.5147924424
1846.2050446807
1817.732469739
1848.4699556287
1521.4889764518
1290.1784140119
1195.2513362093
1116.1726646029
1045.3492735813
981.16184263004
922.22876470946
867.35546833475
815.48113063786
765.58294368867
716.55977448014
667.23899334738
616.54697250857
563.8628164113
509.44924826422
461.28860578535
408.04448690201
358.80959153368
316.1374911863
282.00219494883
257.10141191494
240.48130793565
230.32265591292
224.68496207903
221.88092764873
220.59789520377
219.98663729592
219.59625763942
219.23272034781
218.83110981325
218.3809168546
217.89218544694
217.38211495197
216.88319519449
216.42032438806
215.8678997317
215.50940185872
215.23262727133
215.01193049724
214.84658622854
214.71179500082
214.58078408878
214.44231481981
214.28404614382
214.0890761877
213.832266237
213.49871833147
213.07295474585
212.54822110575
211.93286974705
211.23319911302
210.46159801062
209.63168033991
208.74935352789
207.82039539432
206.85070948136
205.84488680075
204.80583589406
203.73874170237
202.64309765256
201.51917058886
200.36973751785
199.19264204518
197.9993575472
196.79694698557
195.62355369304
194.75193823428
194.86981853134
197.98818807534
210.08304299634
241.7255891566
4223.9870580242
5007.7847698955
5052.1443557504
4919.8298540182
4830.0810535554
4790.1511762579
4799.0943564636
4826.1573497914
4907.2686968085
5004.8975154362
5131.2955416817
5260.6883016515
5386.2102749765
5495.8472249649
5576.4182241349
5622.7854092723
5632.1572644757
5605.3575452028
5546.2337524634
5460.5683388267
5354.604222727
5234.0974723189
5103.1207588411
4967.3482661412
4828.7960830552
4689.9290507895
4552.4555414995
4418.315529022
4287.8466639697
4161.5883703569
4039.9101045064
3923.1871793135
3811.1905811097
3703.9707132573
3601.4525939175
3503.4621658512
3409.8093527926
3320.35750709
3234.9074866645
3153.2465872823
3075.1700782173
3000.5217038137
2929.0871687774
2860.7080703857
2795.2042481235
2732.4436086381
2672.2609447577
2614.5215183604
2559.0897038497
2505.8431302049
2454.6692853567
2405.4503983788
2358.0898629966
2312.4861344955
2268.5575091818
2226.2162321046
2185.3808955427
2145.9742360361
2107.9258846776
2071.1710265132
2035.6465969571
2001.2938375889
1968.0580099142
1935.8879042563
1904.7338922268
1874.5464177233
1845.2845039175
1816.8391281295
1855.6441588025
1508.9469560812
1287.6084230451
1193.4598940655
1114.6767139903
1044.1143615996
980.17188016579
921.47815546587
866.84554756749
815.21487395061
765.56616638983
716.80262840531
667.75458852816
617.34579930189
564.94124982577
510.77668380132
462.71618541774
409.58644111629
360.37321910712
317.62772743763
283.32878840544
258.21512568101
241.37850901098
231.03113033481
225.24735050667
222.34677625926
221.01300335455
220.38354583331
219.99293848012
219.63641599469
219.24289680586
218.79884592369
218.31314780931
217.80224969065
217.2974457378
216.82226679014
216.25480075284
215.86670299898
215.55755871008
215.30105394883
215.09624715424
214.91854810872
214.74389700912
214.56306666261
214.36479310141
214.12857404766
213.83324834636
213.45814598651
212.9877994076
212.41834986859
211.75371158633
210.99626951543
210.15437818233
209.24148205913
208.26406403874
207.22520400015
206.13230245182
204.99233590948
203.80895177242
202.58776164821
201.32867484328
200.03273643045
198.70429838374
197.34101415017
195.95519577695
194.55248864942
193.16212459299
192.00740339932
191.87625407834
194.72476436446
207.1754642138
243.95422816895
17934.458669259
10798.009598289
8405.6523348227
7114.7176942397
6340.6388692712
5873.318893002
5624.4742581446
5483.2791786152
5417.3756941427
5404.3887545205
5424.0086086497
5468.2424473046
5524.5337868731
5580.9279480554
5625.0936884173
5647.0095732359
5642.587334899
5609.0356922983
5548.1291065723
5463.5239534413
5359.8817529434
5241.9385247994
5114.2791258089
4979.8225987975
4843.0542784584
4706.1347649182
4569.9084610584
4436.1047148167
4305.9750380932
4180.1212894592
4058.4563530988
3941.3722459865
3829.1285088465
3721.6083932853
3618.645235395
3520.1496275672
3426.0531361007
3336.0933677058
3250.1192478495
3167.946578749
3089.3983449229
3014.2532109518
2942.340387946
2873.5032528384
2807.5707091258
2744.3832413218
2683.7888464503
2625.6587585441
2569.8557773975
2516.2546917671
2464.7345325129
2415.1864639096
2367.5125392005
2321.6118928158
2277.392894959
2234.7693157731
2193.6658070455
2154.006687929
2115.7174275682
2078.7295075835
2042.980343791
2008.4123689811
1974.9698794206
1942.5997432453
1911.2531898229
1880.8891815087
1851.4596809791
1822.909257423
1808.5802587978
1629.7570125203
1314.9526836262
1212.5546675269
1131.6823144537
1059.5440160603
994.37509068316
934.76934953892
879.50629746285
827.50347555589
777.74836315545
729.17276214955
680.62149576068
630.96903234058
579.41667512785
525.91930214509
464.41387136156
411.42559964607
362.24538633253
319.41752986792
284.92867449849
259.56376376595
242.46929412583
231.89560942279
225.93527687355
222.91617218683
221.51842359362
220.86442983278
220.47157228381
220.12215080776
219.73754324954
219.30043479636
218.81812200239
218.30665831414
217.79528043341
217.30405860511
216.97426958356
216.52988288578
216.16347387369
215.83965070857
215.55947498908
215.30095373767
215.04586852532
214.78699090067
214.51386126492
214.20048431077
213.83169528665
213.38100926688
212.82952998356
212.17572674007
211.41465072138
210.54397611313
209.56733754615
208.49440476226
207.3302810439
206.08122046846
204.75402226259
203.35757756528
201.89839302747
200.3816411288
198.80911588866
197.18178958821
195.50798871703
193.78560955584
192.02538710899
190.23254389923
188.42943340639
186.73340618072
186.07527670283
188.28542936923
200.855198827
245.41401008201
11143.957240401
12572.615881934
10530.982398074
9125.6682714902
8128.4545833611
7416.5192998596
6890.6521765521
6487.9642583855
6249.1228881292
6067.7362378187
5933.7142375233
5848.5045064727
5792.5936541806
5754.163887302
5721.1314311696
5682.5723328656
5632.0607147148
5566.4849409495
5483.9414281324
5385.7687036577
5274.8968459042
5154.1645619187
5026.6131808493
4895.1410551765
4761.7400113332
4628.0252180514
4496.0313197308
4367.1371398148
4241.3149675992
4119.3121327351
4001.4572815025
3888.2285262722
3779.3365171989
3674.8750127487
3574.7733286266
3479.0413936832
3387.3872369402
3299.7041673781
3215.8183068612
3135.6057709567
3058.8413134104
2985.3508262822
2914.9715608468
2847.5597305988
2782.9557296512
2720.9978955769
2661.5544382293
2604.4940341902
2549.6966369948
2497.0289852993
2446.3855638473
2397.6597000726
2350.756331034
2305.579917937
2262.0390759194
2220.0544233947
2179.5485313259
2140.4530683562
2102.6975055049
2066.2151979388
2030.9447391775
1996.8289799772
1963.8150149004
1931.8509138622
1900.885299327
1870.8782137915
1841.7787103761
1813.3630907201
1890.0427157933
1463.7411768479
1277.2717473342
1186.1957240901
1108.6062794536
1039.0990460825
976.14499053176
918.41319850062
864.73902275339
814.07978705945
765.42709434984
717.7031855936
669.75363079144
620.49526664897
569.23950514434
516.11463423029
468.58577866655
415.97085689303
366.90030149083
323.89454964719
288.96001445282
262.98672458144
245.25751047577
234.11947297602
227.71348883509
224.38623833939
222.81492911185
222.08746165981
221.68001936262
221.34243582992
220.97657436428
220.55491785521
220.08007186741
219.56655698941
219.03768563075
218.51203513377
218.20582298603
217.68047692634
217.2177912273
216.78079055503
216.3738792086
215.98326727844
215.59500973312
215.20529850094
214.79926017938
214.35485605748
213.85226042799
213.26163338029
212.55879078849
211.73843743123
210.78393863969
209.68663556545
208.44417439462
207.06012062112
205.53585860279
203.88114251124
202.10476577898
200.21892468452
198.23558456071
196.1574324433
193.98959410963
191.72744466516
189.38490049526
186.96546379129
184.47503181674
181.91589365106
179.29713410296
176.63794489139
174.67066854894
175.37889315773
186.20181640581
237.48577581556
8603.5425405004
10988.056330775
10274.453673158
9350.3914197901
8577.6378757743
7965.9301784454
7464.3807032459
7060.3710919023
6714.3055321917
6445.6939016553
6255.0280833176
6084.4189307508
5953.0920498123
5849.164677699
5762.9536728281
5684.0200439041
5603.739417462
5517.6414038995
5423.0503734621
5318.8094296791
5205.7370375068
5085.7845406898
4960.918637406
4833.0586762734
4704.0293493769
4575.1654227531
4447.7809694768
4322.7457519943
4200.7318402613
4082.4824780167
3968.1078806483
3857.7423475339
3751.5392552659
3649.4485258234
3551.6372203288
3457.8653637539
3367.9978174769
3281.8946159232
3199.4753907479
3120.5538618166
3044.9355932401
2972.4838450327
2903.0493802239
2836.5058670653
2772.6688659232
2711.4204222522
2652.6170241628
2596.1507964732
2541.8888528834
2489.7142405764
2439.5218378431
2391.21235435
2344.6947751731
2299.8689425275
2256.6539682558
2214.9694065211
2174.7434031364
2135.9065379044
2098.3880874447
2062.1270436078
2027.0632571183
1993.140900703
1960.3070527709
1928.5093116547
1897.703574844
1867.8558649411
1838.911674825
1810.6906824223
1915.4832880916
1431.3191719876
1268.6739975796
1179.898990656
1103.332820378
1034.7276535661
972.62081609791
915.70893043536
862.84922946523
813.01242182404
765.20539145053
718.36781876734
671.36241116919
623.10512865392
572.86644154817
520.68405577804
473.71949122676
421.61648139404
372.733675304
329.55899140075
294.11765793864
267.41533197974
248.90497913333
237.05797446492
230.08167241843
226.34425437568
224.52742557651
223.68290125352
223.23869132225
222.903871056
222.55412650537
222.14784020262
221.68052885375
221.16326902143
220.61346244833
220.04911478145
219.75051091402
219.13156348334
218.55722649595
217.98697823795
217.43186491045
216.88384476061
216.33239677338
215.77813342053
215.20191991311
214.58949196182
213.91231880437
213.13446589171
212.22518860302
211.17224156117
209.94590745918
208.52768625303
206.90710673249
205.0795335379
203.04913843507
200.82881819001
198.43129184309
195.8713945139
193.16820848915
190.3190592768
187.33829334086
184.22351443905
180.98454673543
177.61444609644
174.11586974379
170.50222811133
166.78237846432
162.97308390693
159.27593697368
157.5178692192
162.67021133035
203.31194076758
7490.0465593123
9239.5825381628
9362.4152745727
8879.6977140575
8347.5335497193
7882.9863534947
7477.6837119789
7124.1182634927
6817.3068580882
6550.7762801724
6339.8572008274
6156.7820554775
5999.4403446633
5865.8951951395
5751.4897003564
5646.7364095557
5547.6803617396
5448.1053357822
5345.0749288304
5237.3782003874
5124.4057777138
5006.5333295674
4885.1689326113
4761.7100194735
4637.4848504699
4513.6934248494
4391.2240483611
4270.938451665
4153.5013023711
4039.3022074469
3928.6315545465
3821.7152747051
3718.7106538096
3619.5878663778
3524.3143073923
3432.7931104789
3344.9698060599
3260.8356499681
3180.1213473653
3102.7105576093
3028.4717659221
2957.2628270917
2888.993713142
2823.4615789474
2760.5609767516
2700.1498432711
2642.1332567051
2586.3738725899
2532.7502596371
2481.1642702053
2431.507749736
2383.6989375265
2337.6346073498
2293.2264191785
2250.3949521203
2209.0651208757
2169.1707205258
2130.6375954369
2093.4011886989
2057.3999849021
2022.5767499029
1988.8796798413
1956.2567209299
1924.6582560759
1894.0477531382
1864.370262169
1835.5915562808
1806.293839595
1896.8887619147
1399.9766295141
1258.9084921939
1172.505195338
1097.1302225334
1029.5760674039
968.44824269979
912.48019683236
860.55264297149
811.65581667898
764.8151398343
718.99353782239
673.07809943294
625.9896907181
576.95816811364
525.91992883914
479.70358776576
428.27242318308
379.68515750602
336.38722305064
300.41605805703
272.89563235954
253.47765467353
240.78592273695
233.11282540744
228.85840821688
226.71055335918
225.69072291761
225.17506994219
224.82495373668
224.48272200362
224.08773696728
223.62555201172
223.10109054696
222.52664472973
221.91908358684
221.62117297811
220.90317172936
220.20640519853
219.4909084258
218.77363932822
218.04846991685
217.30693936389
216.55034176331
215.77229883286
214.94808850855
214.04975583014
213.03254307547
211.85710925096
210.49823546601
208.91082352166
207.06156658966
204.93327404338
202.51663237079
199.81923890975
196.8615088661
193.67460172065
190.29362642308
186.74153608316
182.98890015389
179.02302330113
174.86039480088
170.49869801024
165.93445542786
161.17809730003
156.2345251503
151.13377401978
145.89925476669
140.50762051216
135.54140561196
132.31475090579
137.60869583685
7026.5623599852
7911.8866321063
8358.8061294557
8232.7038839904
7902.6183332726
7567.9492215701
7255.1611919713
6973.3354836167
6712.8588638118
6483.5637692315
6273.4473107976
6090.549552725
5939.1078192219
5804.8247516485
5682.9193280531
5567.9206766455
5460.0110154746
5355.4964520346
5249.9655132588
5141.870489206
5030.9396541171
4916.985345702
4800.329140882
4682.0552596431
4563.3110849923
4445.0499866563
4328.0419791534
4212.9177854279
4100.2829188005
3990.579802827
3884.0866233181
3780.994688436
3681.4054085798
3585.3964680074
3493.0042225004
3404.1494265316
3318.7314744246
3236.6828902724
3157.8539752135
3082.1612080974
3009.5320667324
2939.7779679053
2872.7794925848
2808.4268527516
2746.58590296
2687.1820667351
2630.0558675193
2575.1082808956
2522.2334947274
2471.3239598171
2422.3060542177
2375.0687830718
2329.5296621507
2285.6055492503
2243.2198880885
2202.308843751
2162.794520613
2124.6132801412
2087.7020640616
2052.0022896261
2017.462032146
1984.0264718441
1951.6461798116
1920.2804294288
1889.8759863857
1860.3881618345
1831.7822775008
1802.1331210579
1829.5770608526
1370.851903232
1248.0216199544
1164.0390917527
1090.0194207326
1023.6565975746
963.62880007195
908.71448751815
857.82329888885
809.96471617739
764.18971024013
719.49092682071
674.7880233454
629.01549064822
581.36678554848
531.67153664346
486.39942857139
435.82018799085
387.67259373402
344.33798124029
307.85516148054
279.46706798942
259.04185692206
245.38376954944
236.89115756192
232.00978195305
229.43329125088
228.16474951519
227.52858665864
227.13350311836
226.78217190933
226.38871448936
225.92522080912
225.38785214776
224.78403297572
224.12874374329
223.8291377961
223.00906435075
222.1873644714
221.32423583666
220.43806168237
219.52429127436
218.5727977247
217.59299929514
216.57487591988
215.49791670297
214.33153930619
213.0233823368
211.51870265882
209.77744695506
207.73415369777
205.34158343273
202.5764942439
199.43860775482
195.95460080796
192.17978252859
188.1381518093
183.8323658131
179.27002833829
174.40242478192
169.20767915239
163.64984839968
157.67286002796
151.35181815519
144.74246243179
137.91513933153
130.92267966887
123.86468516294
116.73700584855
109.15293737378
98.969731660223
78.743257345625
6945.5764954784
6945.9798470012
7447.1488645718
7559.6240047365
7401.0696948253
7171.5399983817
6937.9470124525
6717.6137595794
6507.0602597129
6311.9039218032
6138.7777158638
5971.127598465
5822.6197209667
5690.4385898464
5568.6238219765
5458.1545774176
5349.2706814561
5243.844793127
5139.5990632313
5034.6487301947
4927.5062560451
4818.3528829052
4707.4761900691
4595.3585852128
4482.7355940343
4370.4601209059
4259.2582429469
4149.6709061738
4042.1889860272
3937.2552919793
3835.1870186934
3736.1699825405
3640.3135517615
3547.685338884
3458.3305504516
3372.2365732549
3289.3568086175
3209.620286605
3132.9221408471
3059.1763132921
2988.264617039
2920.0686710194
2854.504493161
2791.4929755453
2730.8706900931
2672.546514443
2616.4143499913
2562.3684962132
2510.3397833022
2460.2127384738
2411.8915437379
2365.3036941327
2320.3565921398
2276.9843332187
2235.1153767046
2194.6699115149
2155.5894668866
2117.8061880389
2081.265771513
2045.9142994949
2011.6929688557
1978.5548682276
1946.4507503747
1915.3320095222
1885.162640102
1855.8966690895
1827.5004726666
1801.9340013238
1727.449922847
1344.8850628419
1236.2064985833
1154.5262325356
1082.0056018511
1016.9658848578
958.15221687903
904.39221716197
854.62724469797
807.88887360837
763.25784545396
719.76504684371
676.37201498573
632.03762286084
585.9277291057
537.76531879624
493.64082788647
444.11534526985
396.57879184698
353.33811109717
316.41257662664
287.15353341611
265.6561538107
250.93064090429
241.50438357824
235.88380794379
232.77655479634
231.17166786369
230.35079285649
229.86759152158