/*--------------------------------*- C++ -*----------------------------------*\
| =========                 |                                                 |
| \\      /  F ield         | OpenFOAM: The Open Source CFD Toolbox           |
|  \\    /   O peration     | Version:  2312                                  |
|   \\  /    A nd           | Website:  www.openfoam.com                      |
|    \\/     M anipulation  |                                                 |
\*---------------------------------------------------------------------------*/
FoamFile
{
    version     2.0;
    format      ascii;
    arch        "LSB;label=32;scalar=64";
    class       volScalarField;
    location    "0.00013";
    object      k;
}
// * * * * * * * * * * * * * * * * * * * * * * * * * * * * * * * * * * * * * //

dimensions      [0 2 -2 0 0 0 0];

internalField   nonuniform List<scalar> 
109340
(
6.9104750073421
6.9068138149619
6.9084332059975
6.9112309586946
6.9115423837434
6.9078427482856
6.899603267187
6.8873635195432
6.8719559208538
6.8530871229947
6.8308910195836
6.805576971556
6.7773544269761
6.7464226892955
6.7129699592417
6.6771779179713
6.6392234648091
6.5992790110134
6.5575138259132
6.5140925324949
6.4691731134966
6.4229043450486
6.3754241459429
6.3268577250915
6.2773152527267
6.2268884247398
6.1756451051637
6.1236221879616
6.0708155335368
6.0171633664948
5.9625177089759
5.9065900701129
5.8488321048419
5.7881268569063
5.7218826794754
5.6435518225264
6.9059133581657
6.9047548727183
6.9060649266399
6.9061822661337
6.9029636054683
6.8957678653565
6.8844698280101
6.868744524356
6.8488491087288
6.8251941674224
6.7980403752795
6.7676210107085
6.7341712602197
6.697925233834
6.6591144325448
6.6179659120964
6.5747033820232
6.5295476797461
6.4827169794253
6.4344245266142
6.3848749294164
6.3342585463491
6.2827480606713
6.2304959260192
6.1776313205117
6.1242553108832
6.0704361171402
6.0162026680104
5.9615327576063
5.9063350745743
5.8504149312088
5.7934073989861
5.7346247199418
5.6726497026287
5.604200133151
5.5209671914703
6.9005217174031
6.9007106507212
6.9008108673943
6.8979143076073
6.8905659595738
6.8782220453807
6.8606751804887
6.838044595704
6.8105887546335
6.7786909221104
6.7427378832452
6.703097028314
6.6601335044652
6.614212547966
6.56569755256
6.5149484239449
6.4623193868557
6.4081649303103
6.3528407394765
6.2966858571531
6.2400143801026
6.1830956838761
6.1261603444362
6.0694024300092
6.012961965055
5.956933387877
5.9013760166993
5.8462844673095
5.791605379183
5.7372095113743
5.6828510276908
5.6281151511784
5.5722232292024
5.513573053541
5.4484424005531
5.3668747172486
6.8894323981081
6.8949225831816
6.8933330460425
6.8839507605593
6.8665997836367
6.8413297110074
6.8084471008939
6.7684154795289
6.7218605441876
6.6695461125987
6.6123156437166
6.55104037362
6.4865927612398
6.4198250927609
6.3515767445859
6.2826618070713
6.2138722361136
6.1461523956267
6.0802129158184
6.0166658269673
5.9559813850469
5.8984316463981
5.8441152478805
5.7930393570727
5.7451518624199
5.7003521155636
5.658372675403
5.6191241522966
5.5824496872709
5.5481515983549
5.515914170343
5.4852033039835
5.4549530546766
5.4227644554859
5.3823889747517
5.3146490190081
6.8770611509995
6.9040866013378
6.911032824859
6.8976875856058
6.863431834323
6.8097558893408
6.739870476227
6.6578604701007
6.5681569683673
6.475164441305
6.3829401141138
6.2953504959404
6.21573734645
6.1470960435546
6.0921726888407
6.0535594881203
6.0338071533334
6.0361672624357
6.0609575160582
6.1055600197513
6.1663276869902
6.2402091528259
6.3248204558593
6.4183405548262
6.5193530002786
6.6267220674564
6.739487647581
6.856802886532
6.9787083136874
7.1044282579082
7.2321635796203
7.3595501166601
7.4832661106639
7.5962303441712
7.6785588909378
7.6570520132515
8.3372177625214
12.369733923612
15.808124475957
18.425557790811
20.231392527262
21.35655298955
21.964333035745
22.203827111019
22.191707263718
22.023011508186
21.752679535339
21.423337138145
21.063964303497
20.693885785707
20.32590395819
19.968985719802
19.628863134703
19.309285633128
19.013859338755
18.746180944457
18.501744441567
18.277646083977
18.072406003269
17.885213377078
17.715506993498
17.562862052265
17.426993629519
17.307796970739
17.205412642044
17.120331052781
17.05363549531
17.007527965253
16.985366813532
16.994933369618
17.044582478573
17.125418326463
5.5396442490002
5.4000808105672
5.2233427552188
5.0096367449743
4.7601859279995
4.4738730419196
4.1551540307644
3.8112654110266
3.4520469578342
3.0935704685171
2.7526299055717
2.4642388130704
2.2186049679495
1.9913781435264
1.7840858901713
1.5960880150335
1.4293358286466
1.2831858727389
1.1557152101448
1.0454962565063
0.95014702873215
0.86698039282699
0.79455865917909
0.73171551398749
0.67673996223742
0.62775649575873
0.585012776309
0.54775016700623
0.51225571384681
0.48313730269562
0.45476730076875
0.43067495401239
0.40790930445451
0.38754031789914
0.36890849562015
0.35163774363067
0.33598246729742
0.32138079637582
0.30793503299731
0.29566291097834
0.28392309549886
0.27353934837471
0.26319985771879
0.25428707514544
0.24516005700679
0.23735535017839
0.22937098260875
0.22240165639414
0.21554157761974
0.20918176285051
0.20315573419415
0.19741150025202
0.19200016270489
0.1868529530246
0.18195691638471
0.17729000660309
0.17284328778924
0.16860643993414
0.1645729909441
0.16073135934343
0.15706795979787
0.15356771141894
0.15021636823026
0.14700092775442
0.14391125893392
0.14094077358912
0.13808514736865
0.13505932567063
41.074040551411
4544.4807036426
3065.6348522435
2020.5444303667
1419.8295323977
1050.0210361077
806.64645163683
637.53997942317
515.14484947883
423.93089374808
354.44884506641
300.50424547698
257.78258247422
223.19024142626
194.52113364318
170.22795492086
146.69818942782
128.10691778391
110.81823173661
94.429577893468
79.154774786097
65.578734365778
54.218506696615
45.2921836945
38.712920604572
34.122926090919
30.977292562376
28.759092767437
27.091343843618
25.74208698074
24.578352110599
23.525242580742
22.540699579982
21.600461286934
20.692806748059
19.818685076748
18.789990204478
18.022091561188
17.315751027404
16.682712793355
16.12998260728
15.663552692855
15.287406520747
15.002557581308
14.808171056808
14.699262153351
14.664556464019
14.692880225872
14.800235641038
14.974741811312
15.205393585321
15.477928962683
15.778392011293
16.09418721544
16.413043136118
16.724180869484
17.019917272601
17.295523817146
17.544234847091
17.757012830273
17.932504993524
18.075728857212
18.190367057375
18.280662647998
18.349859633816
18.399419379347
18.430115999541
18.444322857161
18.445463002397
18.463063596262
18.700260025909
18.786887332764
5.4058451833052
5.2456496328457
5.0349790821632
4.7801358863189
4.4837290966429
4.1529351816076
3.7966459683033
3.4263652726466
3.0536072040459
2.6894664397454
2.3452876416334
2.0303437062087
1.7597305978774
1.5279850995535
1.3342597117266
1.1767620432476
1.0505337020699
0.94977289939395
0.8661016449409
0.7957816479635
0.73583839865664
0.68409615362857
0.63888835756391
0.59890129813984
0.56314240607264
0.53089239047634
0.50149204845867
0.47458401563981
0.44983997883956
0.42702357608602
0.40622598324956
0.38701495143847
0.36944013124317
0.35306280490173
0.33798346050052
0.32387043479669
0.31081688187532
0.29858691674523
0.28727135023155
0.27665372944745
0.26681615227077
0.2575518880132
0.24892193854134
0.24075938076813
0.23310825231255
0.22586496831241
0.21904272311402
0.21260206213733
0.20651591948859
0.20076868498447
0.19531320012473
0.1901317836697
0.18518929063758
0.18048179413905
0.17598483385964
0.17168943493463
0.16758615070914
0.16366905090705
0.1599300307373
0.15636004355431
0.1529474193854
0.14967916766657
0.14654199648357
0.14352471469086
0.14061902952913
0.13781953895657
0.13512326005453
0.13378603793788
473.8065334825
4278.532211564
2736.3674380922
1834.4691698545
1307.9709074742
977.97774562323
757.49394667245
602.49066150163
489.34704835043
404.4964330335
339.52508434413
288.82365371887
248.44336508866
215.54742062244
188.12004887974
164.74331667499
146.7031040115
128.10613111326
110.81738567151
94.443572334935
79.18943113811
65.630997169665
54.280880980563
45.358469120259
38.778740776312
34.186906975209
31.040728388098
28.823468133493
27.157362086495
25.809481712186
24.646191053136
23.59211784696
22.605012615109
21.661138950825
20.749110539456
19.869656773593
18.833466584595
18.059530996912
17.346559924921
16.707132131041
16.148388187465
15.676390862438
15.295114113848
15.005277720526
14.805804787867
14.69214777058
14.65415029981
14.678970299054
14.782664499329
14.953479953271
15.179801179509
15.447817448383
15.74395048377
16.055644605497
16.370017621447
16.676469600543
16.96733847237
17.237276961268
17.479798105702
17.687256616035
17.858510627681
17.997606098769
18.107931674956
18.19388759323
18.258541312065
18.303588029521
18.330090791742
18.340642221527
18.338898971213
18.353025388252
18.556376773935
18.61049776565
5.2467320844367
5.0684721899527
4.8332629168043
4.5524540624475
4.2366776371011
3.8986594017413
3.548389362079
3.1955738450397
2.8495959453294
2.5130793963756
2.2070382854497
1.9252675164429
1.6756101925209
1.4594840294005
1.275417070214
1.1217895623404
0.99540829860283
0.89173250102316
0.80392258394976
0.72941736691002
0.66634717503826
0.61297183593723
0.56750766780933
0.52857242197329
0.49506915838429
0.46591527547724
0.44023482805124
0.41740198302602
0.39698724389596
0.37852024148658
0.36179197649014
0.34661967633727
0.33268539981042
0.31983743503114
0.3078081619948
0.2965636493436
0.28591424641743
0.27592719332912
0.26649797017495
0.2576698217623
0.24934537684816
0.24151695351469
0.23411460359042
0.22710604151299
0.22046420139875
0.21414478988075
0.2081672116453
0.20247726018982
0.19710120158585
0.19197491888428
0.1871108581469
0.1824607755956
0.1780137498553
0.17375078223247
0.16966374184418
0.16574762937665
0.16199528865828
0.15840301584671
0.15496457799807
0.15167360141726
0.14852047250226
0.14549373349668
0.14258143613731
0.13977372436231
0.13706336195073
0.13444656132309
0.13192150216955
0.13098219595535
513.22876809253
4261.5898454106
2722.1795848735
1826.2606502963
1303.0364845494
974.86878888494
755.4927984814
601.2095350848
488.5475648032
404.01916596145
339.26103705545
288.700152104
248.41407637496
215.58327066409
188.20112915791
164.85308925153
146.81117691511
128.23520048945
110.96886024069
94.630133799281
79.409299283376
65.870984394686
54.523454161942
45.590062112168
38.991928511899
34.380049810312
31.218738080267
28.992067743211
27.320572463524
25.969033314714
24.802003609851
23.742740068922
22.748325205228
21.79551735172
20.873248038743
19.981792153094
18.929246779415
18.141528004098
17.413995758147
16.760436169335
16.188271560552
15.703878546223
15.311138206408
15.010302499082
14.799637665601
14.675631100897
14.630020451372
14.647128699133
14.742173715691
14.904740282446
15.122524872857
15.382369632852
15.670717285565
15.974905878809
16.281753378834
16.580685882157
16.863663040675
17.124403597305
17.357005543464
17.555662097925
17.719581183051
17.851523598999
17.954410018484
18.032969952422
18.090043286467
18.127746774391
18.147495666648
18.1523366714
18.145732186844
18.159508307109
18.309194897621
18.318149369725
5.1640898426074
4.9030932653258
4.5623025837618
4.1943385347039
3.8453260380934
3.508366709159
3.1873931833894
2.8803232292464
2.587215550093
2.3059629556188
2.0527921075464
1.8131539493353
1.5941645830757
1.4003262999598
1.2308250427302
1.0864594233721
0.96583506646406
0.86479953457669
0.77814800840458
0.70400398114974
0.64024283190783
0.58530566230853
0.53831525055679
0.49794404573989
0.46303653123178
0.43279842515423
0.40653906138337
0.383508426454
0.36316209392244
0.34515124312931
0.32906237645931
0.31467112071152
0.30168669809878
0.28991517875062
0.27912650664606
0.26920849707211
0.26002342364818
0.25151159337407
0.24358519408923
0.23620991551184
0.22930842329728
0.22284587784138
0.21672454427871
0.21092379751429
0.20536626102861
0.20006061013738
0.19498370725118
0.19014582443063
0.18553237983749
0.18112579679067
0.17691723479483
0.17287706555291
0.16899745810464
0.165255933089
0.16165348993807
0.15818488849819
0.15484913932323
0.15164445106749
0.14856776591082
0.14561438592205
0.14277619538024
0.14004352543902
0.1374063542169
0.13485625851189
0.13238715480329
0.12999669334005
0.12768484865751
0.12732985585808
571.06609317015
4231.4993499401
2700.8428495954
1814.2294727159
1295.8615608894
970.36891398963
752.60425079909
599.36264880718
487.3953774608
403.3305028135
338.87906604245
288.52073839511
248.37099771361
215.63521512565
188.32046038288
165.0198431571
146.9951912773
128.45813397581
111.23733241799
94.952692850321
79.779752784652
66.267716891601
54.920291568423
45.965858493404
39.334197466743
34.68767029697
31.499267176707
29.254969569845
27.572840034502
26.214040199047
25.040191506301
23.972534118336
22.96699341191
22.000433216713
21.062180181014
20.152915252782
19.074892449692
18.265686588941
17.516036712181
16.840704160214
16.247750799181
15.743894635964
15.33302114657
15.014999402286
14.787766013299
14.648213530464
14.589774013861
14.595294301391
14.676650622801
14.826439925941
15.031497424878
15.279122894302
15.55580747607
15.848548259166
16.143946419176
16.431560804035
16.702901470068
16.950802006488
17.169874125619
17.355994081588
17.508510030217
17.629378196308
17.721081129284
17.78860722111
17.834475374992
17.861330772374
17.870776416912
17.866105174272
17.848814815307
17.850155387614
17.971760013532
17.949796769338
7.0927739797877
5.8862939829842
4.7925167165025
4.0388815048252
3.4929981035845
3.058046608939
2.7461998352862
2.5186497364026
2.3122244272845
2.1031558919818
1.8957889796356
1.696203287666
1.5114185873575
1.3429335442158
1.1917534190806
1.0588333314865
0.94478736867941
0.84638565483702
0.76134737730257
0.68812713449102
0.62516949110419
0.57095199326746
0.52383733926822
0.48306766532912
0.44766381667826
0.4167602145617
0.38964634077786
0.36587222890794
0.34490739258338
0.32634673972461
0.30986221041203
0.2951689274415
0.28202293979448
0.27018067423419
0.25947879819973
0.24972443004711
0.24081698700651
0.23264456087207
0.2251423438796
0.21821589385854
0.21181889385606
0.20587822949658
0.20033694535106
0.19513610821063
0.19022754671264
0.18558955638945
0.1811903949764
0.17702818414051
0.1730722415069
0.16931874645317
0.16572957668415
0.16228614058514
0.15896765570769
0.15575697009521
0.15264787524915
0.14963833070846
0.14673292112063
0.14393210778722
0.14123563155824
0.1386391568128
0.13613637850211
0.13371936155233
0.13137957439894
0.12910948367361
0.12690419327994
0.12476265350378
0.12268530669181
0.1231846931103
655.1681193902
4190.6425712634
2672.7618997258
1798.4410712815
1286.4686198078
964.49617352332
748.84415281549
596.96123040031
485.89634062707
402.43204620267
338.37789298266
288.28245357098
248.31027367688
215.69895597172
188.47358786478
165.23795323703
147.24457085134
128.76061736748
111.6052448529
95.394352528167
80.28548869019
66.808360548963
55.460993176388
46.477718951157
39.799862266748
35.105386471297
31.878894973519
29.60943850504
27.912001610518
26.542898895758
25.359691939591
24.280903057196
23.260940432756
22.276021686998
21.316015140817
20.383124979147
19.271222309671
18.432386987289
17.652507499013
16.947186375367
16.32546435189
15.794577601241
15.358434998532
15.016651332324
14.766903886049
14.606199815696
14.528730054254
14.519293538467
14.581979721587
14.714116327786
14.901997739969
15.132976603149
15.393583091468
15.670364828971
15.94968735456
16.221258254434
16.476309716172
16.707061303574
16.908461404155
17.077642686659
17.213956262746
17.319041837403
17.395093013988
17.447257455467
17.477752644055
17.489817774043
17.485520057405
17.466733292325
17.434373161704
17.413733255977
17.507706957186
17.464854249145
11.403364117614
7.5794830474041
5.7984564839533
4.5694615097673
3.7208227183371
3.120881627196
2.6729155691883
2.344130084533
2.0828859410117
1.8972411093138
1.7506717159374
1.5973902937308
1.4396159848984
1.2893106408661
1.1540660309446
1.0339181219938
0.92708666268643
0.83231077653846
0.74929953026746
0.67720777107255
0.61484989377699
0.56094406138428
0.51442780485377
0.47386999267045
0.43848692113874
0.40749233332286
0.3802490353329
0.35610806833849
0.33475027082969
0.31579001183207
0.29890293822345
0.283778430324
0.27024756571689
0.25807551315876
0.24707324049481
0.23709848425332
0.22803873334814
0.21977788784941
0.21223179741325
0.20532158957442
0.1989815552096
0.19313188453892
0.18772447332552
0.1826926540621
0.17799450038144
0.1735841476549
0.16944424629969
0.1655554151889
0.1618957944
0.15844464681058
0.15517173770776
0.15206025113452
0.1490841611424
0.1462307126052
0.14348449180939
0.14083982587616
0.13829386132016
0.13584446568569
0.13349057468171
0.13122539202419
0.12904168332348
0.12693030969978
0.12488107882086
0.1228858478824
0.12094165577128
0.11904807753704
0.11720668342551
0.11916074728222
798.72684817703
4141.2335204595
2638.6968693373
1779.1009600716
1274.9301988283
957.2882037109
744.23699222896
594.02031708457
484.05765451233
401.32561993314
337.75597690899
287.98186114794
248.22752901696
215.76974888115
188.65565139746
165.50188484692
147.55262664727
129.13458658865
112.06180415133
95.944387191593
80.916587807575
67.484605477806
56.139126056828
47.121176229295
40.386175256589
35.631376053892
32.356300718658
30.054406604749
28.33722106683
26.955089989532
25.760422971017
24.668235165516
23.63085458784
22.623380341613
21.635813013865
20.672933391982
19.520318461902
18.642909884723
17.823974219796
17.079818753795
16.420704397619
15.854517836729
15.385270659282
15.012504710599
14.73371234108
14.545923071849
14.443222209038
14.414087494515
14.453389283868
14.562630533189
14.728466605419
14.937958873398
15.177537496151
15.43330706049
15.691298116388
15.941531962312
16.174867628571
16.383283312522
16.561892583638
16.708774221689
16.823345693141
16.907379323634
16.962762198142
16.994620797378
17.005184717541
16.998732703689
16.976215429295
16.938729103622
16.887866941864
16.841009174757
16.901864316574
16.834768151533
6.3607364306601
6.8169427422846
5.1305378599993
4.3973799526615
3.7612393799732
3.2348337463655
2.8245066190129
2.4965117294199
2.1741526508253
1.9099484776387
1.701621891702
1.535610439211
1.4083400113029
1.2837099919007
1.1571636217643
1.039427564762
0.93377973348316
0.84055418522184
0.75826215806056
0.68559415786127
0.62199413666966
0.56664695915521
0.51858534351475
0.47696364764005
0.44055672429888
0.40855432454909
0.38045605728037
0.35562508182149
0.3335545182858
0.31385261014842
0.29628625502286
0.28054851595178
0.26637527166748
0.25359128305489
0.24204158734383
0.23156975226407
0.22203672229346
0.21336847420272
0.20546748266846
0.19824735489301
0.19162959848166
0.18555653435859
0.17996632444646
0.17479467348876
0.16999526541737
0.16552613044533
0.16135969080245
0.15746684530499
0.15382800814383
0.15042056773311
0.14721809796676
0.14419669172359
0.1413294327524
0.13860205369318
0.13599967716564
0.13351299308789
0.13113297904127
0.12885521290246
0.12667769199465
0.12459518299457
0.12260016782587
0.12068241448565
0.11883189405476
0.11703962975233
0.1152986060677
0.11360546149382
0.11195898118408
0.11039997498913
137.69308446203
4465.9242333387
2898.2917206241
1925.1941151876
1363.5481876601
1015.1036714318
784.35361244385
623.25530483851
506.15056765683
418.46000563621
351.31285722576
298.91150803809
257.22477287016
223.35026352356
195.19265005367
171.26042357369
147.91348641486
129.57352120144
112.59887498056
96.593700771539
81.664501384588
68.289425550561
56.949547813285
47.893102089724
41.09168137509
36.265061045589
32.931205410497
30.589600756777
28.848246573575
27.450559879143
26.242724439022
25.135391868763
24.078197158741
23.044665037795
22.024181427962
21.020639022085
19.989644737883
19.037543406884
18.144198639189
17.325802611921
16.594739129874
15.960153172414
15.426622871837
14.993912749764
14.65948846652
14.419781350188
14.268484282734
14.199245751129
14.196031964709
14.261571139486
14.385202158051
14.553345386264
14.751892299275
14.96654936847
15.182770099016
15.390379748551
15.580453773401
15.744862820792
15.878795701123
15.981590751723
16.053176956422
16.095962455046
16.111107506932
16.103503187056
16.077501343862
16.034643062608
15.976926493257
15.906548167861
15.823876113539
15.736650371954
15.737854556756
15.618398288454
4.1621201378009
3.419683865989
3.1718771109041
2.9327347470248
2.7936170901449
2.6350413642779
2.4570777657036
2.2849796266314
2.112674371678
1.9384898958525
1.7379404968994
1.5045335850031
1.3290793518251
1.1861615724324
1.0726467163987
0.97644392622911
0.88299506904643
0.79754057017849
0.72113450782838
0.65406300370096
0.59548048883278
0.54414353851384
0.49896239355875
0.45915698577953
0.4241446163037
0.39335629377694
0.36614415596139
0.34196327313251
0.32054627015551
0.30145897046179
0.2843580242984
0.26890420220116
0.25495604212072
0.24231362203826
0.23081650582324
0.22030640153943
0.2107199256227
0.20195820881595
0.19393917455241
0.18657099130203
0.17979888389993
0.17356396955803
0.1678111734983
0.16248803497586
0.157553432597
0.15297598046068
0.14872062133527
0.14476093286629
0.14107092561686
0.13763166880768
0.13441575993592
0.13139841742023
0.12855805064442
0.12587823170558
0.1233475609335
0.1209541858594
0.11868942951712
0.11654438348329
0.11451269429483
0.11258764415656
0.11076050192851
0.10902145813297
0.10735985147307
0.10576636765467
0.10423336969006
0.10275654350709
0.10133346832845
0.12336548082002
1625.3962526657
3931.520636091
2505.502007609
1702.5562982431
1228.7683068277
928.33679230723
725.71059347287
582.16021285203
476.58889574733
396.77380708485
335.14109817733
286.66055066836
247.79165685232
215.96524305851
189.31546327943
166.50730781957
148.76857883738
130.61982153109
113.88333369637
98.154352665389
83.476096828292
70.255561140644
58.946031616814
49.809658916289
42.855605604908
37.854747692611
34.374196040532
31.931237783764
30.128105817004
28.69235084499
27.454759025762
26.314576833199
25.213954188511
24.122087303077
23.026420672126
21.931059050765
20.838710263176
19.756872328989
18.727146461313
17.769334268461
16.900605038906
16.133597555388
15.475543384836
14.927606923835
14.487816338861
14.150202251274
13.907990608047
13.75357798889
13.677180995341
13.66335509719
13.707505182114
13.797508188346
13.91769087586
14.053218155152
14.188416558932
14.312827275881
14.418096066812
14.496622380212
14.543395446166
14.559777854444
14.548185117626
14.512052848398
14.453148860549
14.374206977407
14.280991662143
14.175857239554
14.063087313218
13.944389017897
13.820291446073
13.692135731462
13.609001723561
13.3760559012
3.6627536012386
2.035595804299
2.0916024373139
2.0229654551708
1.9979510828284
1.9812739325926
1.9644836553052
1.9200494018064
1.8705935959274
1.7902361378295
1.6955362443442
1.5725051051117
1.3923970547088
1.2028929551936
1.0616403808623
0.94758882057413
0.85479937606603
0.7795035152527
0.70853725229457
0.64415993086596
0.58690350850535
0.53646554030865
0.49223767891748
0.45343648923366
0.4192280535274
0.38889100730572
0.3618591531869
0.33776310061561
0.31629731888675
0.29709161462196
0.27987629501758
0.26440809502732
0.25043826398664
0.23778478935633
0.22623064750711
0.21567866058075
0.20603118112819
0.19719151335899
0.18905794682912
0.1815604778377
0.17464854136539
0.16825612896587
0.16233287703536
0.15682868466787
0.15172109579508
0.1469689454774
0.14254442537067
0.13841415174038
0.13455950108159
0.13095894694673
0.12758850724654
0.12442577820605
0.12145018004498
0.11865062754031
0.11601297219386
0.11352744579908
0.11118396426316
0.10897373317055
0.10688956136957
0.1049211618671
0.10305978646892
0.10129612370951
0.099621018126209
0.098026631449644
0.096505606246506
0.095052106566806
0.093662645642245
0.17918039898447
2418.5063354343
3740.4904433398
2394.4586488111
1638.7301140948
1189.9483682026
903.79780471601
709.89598889213
571.94268452179
470.06534675785
392.71625904799
332.73505725625
285.37020031
247.27530004966
216.00859603044
189.77721041979
167.28435415281
149.75357532272
131.84097869767
115.39123780723
99.99962922548
85.643026990016
72.639922649983
61.400754582382
52.196732430905
45.079149492218
39.873063203948
36.21073645525
33.637287118147
31.753813851046
30.271356895455
29.002296335661
27.830967242618
26.689118641041
25.538951074548
24.363531024041
23.164663629791
21.998953402324
20.756206784815
19.550153106428
18.405341826699
17.34597391449
16.391751630682
15.555562497557
14.84246512877
14.2516810101
13.77689208763
13.409429477542
13.138480783512
12.951756800678
12.83545872866
12.776767219219
12.759564625476
12.770692608839
12.795324759055
12.81684225267
12.824595311361
12.809870364485
12.767136304466
12.692719957468
12.592158237356
12.470411198432
12.326985279798
12.171361628015
12.008982146166
11.847247553587
11.685476728085
11.530157479438
11.375076928971
11.225563771137
11.077974696778
10.968116912027
10.666532832837
3.4056360814269
1.5535242947731
1.4751694057886
1.482369019923
1.488795420051
1.5096876836717
1.5312815554703
1.5477989270186
1.5493250433617
1.5512824363265
1.5223958733205
1.4658234525116
1.3926748865421
1.270347117002
1.1008821870326
0.96023292985261
0.85274181515786
0.7657967369494
0.69408506566929
0.63526431605913
0.58095217452891
0.53201243260321
0.4883603753756
0.44971538769596
0.41565778134211
0.38561418850002
0.35896941688304
0.33519880324328
0.31390373494087
0.29476913503466
0.27753697112825
0.26197746410863
0.24787784206545
0.23508269160411
0.22345366580215
0.21285755897042
0.20317897282321
0.19428486237002
0.18611933473204
0.17860064459837
0.17164949294267
0.16520610599255
0.15920508215938
0.15362874010373
0.14843538635702
0.14359616289639
0.13907107222029
0.13483914478757
0.13088034098635
0.12716846975299
0.12368438736357
0.12040363094134
0.11731454883563
0.11440332388418
0.11165788705069
0.10906839454154
0.10662434500432
0.10431991012115
0.10214512981802
0.10009063680218
0.098146995758505
0.096305077680491
0.094557870850827
0.092898243097361
0.091319073999657
0.089815406488652
0.088381272479191
0.63214590689507
3561.71141887
3520.674214807
2269.9315050138
1566.8992260255
1146.0233728654
875.82811115484
691.70692239918
560.05664181132
462.36282221859
387.82740341438
329.74894602652
283.68424130735
246.50219638797
215.9034491612
190.17716065706
168.06976141063
150.8036483334
133.16979898328
117.04634587109
102.04200069887
88.073436169944
75.358651925426
64.247466005039
55.009974894553
47.737593765894
42.314108012748
38.442546481456
35.71109999542
33.727754004451
32.189737997462
30.889738328041
29.694402572007
28.522288514562
27.324907712877
26.077932514271
24.777913592498
23.549806416504
22.129520007673
20.717458904008
19.34302213424
18.039019419307
16.835477124142
15.755740611215
14.812385221918
14.009413675656
13.344340795375
12.80609423674
12.379790282419
12.048679583795
11.794775423209
11.60009742529
11.446177892716
11.316046900539
11.194291284862
11.066644479262
10.92019177204
10.745285207369
10.545593798158
10.324151172727
10.090411488617
9.8580623400932
9.638251092428
9.4359743064354
9.2504357754626
9.0849921860372
8.9363941926163
8.812655370331
8.6990146287494
8.6078119686564
8.5276061561596
8.5015678434631
8.2599638738511
3.5084910420793
1.3605831551169
1.1437818783571
1.138891642893
1.1578047240278
1.1867353720036
1.2189459991931
1.2528704199252
1.2797864363536
1.2982328824563
1.3203741434606
1.3113424292032
1.2746356818347
1.2294895258341
1.1415246533483
1.0151408577541
0.87686060365929
0.77466555637467
0.6944715631863
0.62901653768203
0.57406175380125
0.52794742787595
0.48589169429367
0.4480387855479
0.41419415271203
0.38407090139127
0.35731113166545
0.33350812715598
0.31227649835031
0.29326124962271
0.2761446576214
0.26063727335999
0.24653707330849
0.23369433711132
0.22196943013596
0.21125236198293
0.20146183324398
0.19249749113611
0.18427344502354
0.17670688495842
0.16970320176298
0.16321444965865
0.15719234796714
0.15158687393054
0.14636624530973
0.14148154392252
0.13691620039034
0.13264084048028
0.12862768473085
0.1248568152237
0.1213016727844
0.11795326511657
0.1147945733504
0.11181166654139
0.10899359488214
0.1063286205581
0.10381247162368
0.10143495785484
0.099186340943209
0.09705710962753
0.095037988284822
0.093122913397271
0.091304667400405
0.089575326513587
0.087929440741949
0.086361800383023
0.084868901828932
3.4085399070045
4333.9715465264
3281.2849609356
2135.7960824546
1488.8803634576
1097.9148969138
844.92192970362
671.39704521319
546.61255397335
453.50740922601
382.08467071279
326.13335388936
281.53939684739
245.40217113535
215.57615195961
190.44065599639
168.78981942289
151.84814101983
134.53316967257
118.76571469765
104.18576817798
90.661702437263
78.309510949093
67.399412151797
58.185285520969
50.791041761154
45.160641710795
41.064593221815
38.152073520376
36.048745115363
34.444298492267
33.113216950866
31.903160212846
30.716965438727
29.492984179471
28.196200375287
26.814286212214
25.552843163592
23.966763072887
22.342014593669
20.714793863164
19.125559206063
17.615580084771
16.221465162283
14.971032663331
13.880471239625
12.952565561881
12.180431794349
11.546869211804
11.028413591757
10.599833692266
10.236089435635
9.9125564307534
9.6086598562264
9.3084356015419
9.0002819271026
8.6795645969134
8.3543526515832
8.0390360456682
7.7480990553376
7.4871142510895
7.2589415347851
7.0642555656475
6.9075175913543
6.7905211554279
6.7105512063259
6.6666989331123
6.6592263761615
6.6757711699107
6.7233393010907
6.7988971284798
6.9452563796228
6.7996122510095
4.1912053532478
1.2281960935165
0.98094816777644
0.91730935367424
0.93248535553313
0.96116534985475
0.99562683358939
1.0307845518315
1.0656822539121
1.0943462437205
1.1246005776792
1.1487265716353
1.1453837435084
1.1193561148933
1.0902613385952
1.0249506044438
0.92817856846846
0.80597736593616
0.70943097342787
0.63498621695806
0.57499631947061
0.52528965017375
0.48301198423669
0.44661427288978
0.41361792527863
0.38383333633852
0.357072897563
0.33312834760586
0.31172426425103
0.29254283646121
0.27532240785827
0.25981474980599
0.24573292693625
0.23289163844478
0.22116784072171
0.21044532047369