/*--------------------------------*- C++ -*----------------------------------*\
| =========                 |                                                 |
| \\      /  F ield         | OpenFOAM: The Open Source CFD Toolbox           |
|  \\    /   O peration     | Version:  2312                                  |
|   \\  /    A nd           | Website:  www.openfoam.com                      |
|    \\/     M anipulation  |                                                 |
\*---------------------------------------------------------------------------*/
FoamFile
{
    version     2.0;
    format      ascii;
    arch        "LSB;label=32;scalar=64";
    class       volScalarField;
    location    "0.00013";
    object      nut;
}
// * * * * * * * * * * * * * * * * * * * * * * * * * * * * * * * * * * * * * //

dimensions      [0 2 -1 0 0 0 0];

internalField   nonuniform List<scalar> 
109340
(
0.0007188906024053
0.00049300835517841
0.00026605598335486
0.0002223424058701
0.000215382578078
0.00021978867387691
0.00022797964004232
0.00024230438773072
0.00021118508714682
0.00018784264355219
0.00016936874463292
0.00015429961473355
0.0001417447688702
0.00013111230964768
0.00012198748158807
0.00011406887719308
0.00010713133509833
0.00010100290312108
9.5549832211854e-05
9.0666440331512e-05
8.62680628354e-05
8.2286024593136e-05
7.8663988042823e-05
7.5355261695899e-05
7.2320791840893e-05
6.9527640581332e-05
6.6947811436649e-05
6.4557329812163e-05
6.2335506397912e-05
6.026432462859e-05
5.8327900810856e-05
5.6511948429836e-05
5.4803088380645e-05
5.3187561254508e-05
5.1647705828594e-05
5.0153367799639e-05
0.00071053736857922
0.00034455641682303
0.00025241430583666
0.00023090544394136
0.0002293560650474
0.00023392506507009
0.00020945052503115
0.00018220003774569
0.00016102683361262
0.00014426440058107
0.00013069349831031
0.00011948896122354
0.0001100843903422
0.00010208012878009
9.5186467136882e-05
8.918832615582e-05
8.3922701003366e-05
7.926380312814e-05
7.5113007480823e-05
7.139184457951e-05
6.8036999049934e-05
6.4996747159337e-05
6.2228402746648e-05
5.9696457795901e-05
5.7371172615096e-05
5.5227476583083e-05
5.3244107827538e-05
5.140291718525e-05
4.9688288456224e-05
4.808666155276e-05
4.6586110539641e-05
4.5175935233229e-05
4.384622688503e-05
4.2587330375189e-05
4.1388950102469e-05
4.0234659057785e-05
0.00041731039540805
0.00029407047911296
0.00025347180246209
0.00023792265205149
0.00019033566387165
0.00015868276746863
0.00013572992320074
0.00011843214550423
0.0001049885148976
9.4284895070318e-05
8.5586869076029e-05
7.8392595380313e-05
7.2350656913528e-05
6.7209218648873e-05
6.2783805926272e-05
5.8936543363921e-05
5.5562479981483e-05
5.2580373854968e-05
4.9926170957748e-05
4.7548237320231e-05
4.5404319387916e-05
4.3459728007219e-05
4.1686062405659e-05
4.0060096675072e-05
3.8562677224087e-05
3.7177949266095e-05
3.5892750852388e-05
3.469591904512e-05
3.3578014123784e-05
3.2530901191511e-05
3.1547446276594e-05
3.0621361285469e-05
2.9746864336775e-05
2.8919156038456e-05
2.8136533646778e-05
2.7400802889338e-05
0.00023982018599991
0.00024225314341739
0.00015203612853932
0.00011068120291107
8.7067933635244e-05
7.182008202705e-05
6.1193047077186e-05
5.3380255778541e-05
4.7406531356111e-05
4.2699568543472e-05
3.8901558463243e-05
3.5777089316942e-05
3.3164961310779e-05
3.0951234422868e-05
2.9053314158371e-05
2.7409979240315e-05
2.597479085047e-05
2.4711361840178e-05
2.3587152144123e-05
2.2574297695119e-05
2.1652088003417e-05
2.0805872777134e-05
2.0025075320267e-05
1.930187711672e-05
1.8630263225376e-05
1.8005387106548e-05
1.7422810701654e-05
1.6879324466067e-05
1.637205570699e-05
1.5898463123639e-05
1.5455970154531e-05
1.5040802404569e-05
1.4647016682795e-05
1.4269700683876e-05
1.3910490330748e-05
1.3582903313611e-05
0.0001444254168284
4.7213173466532e-05
2.8709115817267e-05
2.0819920398539e-05
1.6472580535971e-05
1.3743541794845e-05
1.1887146966344e-05
1.0553208204576e-05
9.5555249605801e-06
8.7868687640127e-06
8.1815682102558e-06
7.6979767829985e-06
7.3085136322445e-06
6.9946018299998e-06
6.7436094380336e-06
6.5466945535075e-06
6.3960399783385e-06
6.2785645851757e-06
6.1728253058704e-06
6.0673218327103e-06
5.9610557254272e-06
5.857468143258e-06
5.7602202176461e-06
5.6718301133128e-06
5.593699221021e-06
5.5265288547268e-06
5.4704989335099e-06
5.4254832157922e-06
5.3918522587775e-06
5.369355981366e-06
5.3570282924555e-06
5.3540896316084e-06
5.3597150891342e-06
5.3724187801772e-06
5.3877688868093e-06
5.3976174742213e-06
3.6370139103407e-07
5.428583767298e-07
6.9846939133557e-07
8.1988344557458e-07
9.0666778333816e-07
9.6389688108436e-07
9.9830039707346e-07
1.0161801596687e-06
1.0225512130701e-06
1.0215748878666e-06
1.0156593006412e-06
1.0067024329122e-06
9.9600974767971e-07
9.8446268250773e-07
9.7265319794055e-07
9.6100293783986e-07
9.4978670682872e-07
9.3918893454235e-07
9.2939838203497e-07
9.2064819306242e-07
9.1273750502327e-07
9.0553650286934e-07
8.9897949523073e-07
8.930290804397e-07
8.8765456867011e-07
8.8282459013187e-07
8.7850497573136e-07
8.7465764417962e-07
8.7123712414085e-07
8.6818503221214e-07
8.6542271171761e-07
8.6281584252201e-07
8.6014875535594e-07
8.5691468678015e-07
8.511662483937e-07
8.3331696546724e-07
4.5053409660481e-05
2.4929221679602e-05
1.407247300812e-05
9.2326036272479e-06
6.6965620017611e-06
5.0402122012737e-06
3.8741679466366e-06
3.0126766102423e-06
2.428981257745e-06
2.1711931755824e-06
2.2418273159032e-06
2.7853260047205e-06
3.2851236655956e-06
3.7994610473001e-06
4.2204494231137e-06
4.5558396836586e-06
4.8480025673056e-06
5.0856587628905e-06
5.3011412040892e-06
5.5270893704846e-06
5.7210878491968e-06
5.885347045845e-06
5.8994571030251e-06
5.6490573023761e-06
5.4204559482296e-06
5.2084659372441e-06
5.0165453055574e-06
4.8440615364324e-06
4.6738903365279e-06
4.5304869239582e-06
4.3865402440708e-06
4.2609743193193e-06
4.139141782971e-06
4.0273039138058e-06
3.9227417101004e-06
3.8235322635175e-06
3.7318632203336e-06
3.6444985571702e-06
3.5625087076787e-06
3.4861766340626e-06
3.4116730487752e-06
3.3446324773206e-06
3.2765176393682e-06
3.2169812730943e-06
3.1548551307947e-06
3.1011103331296e-06
3.0451434559941e-06
2.9957316091785e-06
2.9462602006422e-06
2.8998145702124e-06
2.8551336858924e-06
2.811965444734e-06
2.7708084519654e-06
2.7311886642401e-06
2.6930763085955e-06
2.6563436247898e-06
2.6209557343374e-06
2.5868578045163e-06
2.5540267243164e-06
2.5223958021639e-06
2.4918842313535e-06
2.4624026277306e-06
2.4338733853676e-06
2.4062308812665e-06
2.3794291159786e-06
2.3534369201895e-06
2.3282293881447e-06
2.3006878009303e-06
4.6076684007815e-05
0.00050508915770022
0.00046536365451365
0.00041313782654181
0.00037639602522651
0.00034935470057475
0.00032817134848372
0.00031091728978705
0.00029665180495226
0.00028481601026921
0.00027492881736635
0.00026647508166359
0.0002589193144668
0.00025183029080248
0.00024504696842966
0.00023879707853299
0.00023309378746464
0.00023003919265851
0.00022917394510175
0.00023009008869182
0.00023129008719818
0.00023059318254302
0.00022578464187177
0.00021599122234253
0.00020278373986899
0.0001892783321753
0.00017766156843434
0.00016831360751123
0.00016069549145712
0.00015419374496307
0.00014837816119872
0.00014298883036307
0.00013787696310569
0.00013295779260531
0.00012819264517633
0.00012358630326494
0.00011811458046282
0.00011397696030839
0.00011009692952928
0.00010652928702255
0.00010331657457375
0.00010050110396655
9.8127564842311e-05
9.6148952558964e-05
9.4557080780446e-05
9.3334217839187e-05
9.2417918998998e-05
9.1743289735684e-05
9.1417862865857e-05
9.1374369546355e-05
9.155761927116e-05
9.1906166607337e-05
9.236396564312e-05
9.2885944191063e-05
9.3425646356634e-05
9.3944810881233e-05
9.4419315045739e-05
9.4834936283647e-05
9.5173252267972e-05
9.541077449974e-05
9.5544470541015e-05
9.5589931465012e-05
9.5560432379322e-05
9.5472773707731e-05
9.5339269362844e-05
9.5161254651754e-05
9.4941379433094e-05
9.4683337333356e-05
9.4396322574178e-05
9.415521241045e-05
9.4512044854649e-05
9.4365691924529e-05
3.4812434957636e-05
1.9569498426681e-05
1.2142353171586e-05
8.59601496636e-06
6.4049550697988e-06
4.849484425968e-06
3.7407314919497e-06
2.9350083666128e-06
2.3511599974386e-06
1.9570105283529e-06
1.7269291374879e-06
1.6801348972871e-06
1.7516054350197e-06
1.886243848933e-06
2.095113585412e-06
2.3603744355885e-06
2.6774928339946e-06
3.0443802378154e-06
3.4254886067319e-06
3.8149262835797e-06
4.2122624135825e-06
4.6114967818107e-06
5.0054794552445e-06
5.3961513269274e-06
5.2771560093407e-06
5.0720755656646e-06
4.8851812232504e-06
4.7146205664719e-06
4.5580876808516e-06
4.4135279374033e-06
4.2808693273373e-06
4.1573433390168e-06
4.0432783952817e-06
3.9361171310705e-06
3.8365743703519e-06
3.7426268318039e-06
3.6549040623571e-06
3.5718743311009e-06
3.4941762838898e-06
3.4203863995807e-06
3.3511471686207e-06
3.2851385668157e-06
3.2229207851423e-06
3.1634283438812e-06
3.1070810985329e-06
3.0532017235586e-06
3.0019232818567e-06
2.9529828587412e-06
2.9062026052576e-06
2.8615278790897e-06
2.8186520275352e-06
2.7775079055396e-06
2.7378780699488e-06
2.6997886028203e-06
2.6630804373304e-06
2.6277055927813e-06
2.5936031508316e-06
2.5607382466875e-06
2.5290576034986e-06
2.4985029046411e-06
2.4689992137211e-06
2.4404669966152e-06
2.4128281987594e-06
2.3860227356683e-06
2.3600100753303e-06
2.3347641264031e-06
2.3102687060382e-06
2.3049047467417e-06
0.00013984879360872
0.00050835960251669
0.00045018837050654
0.00040243840881242
0.00036866692546147
0.00034340181053919
0.00032338243082008
0.00030699255236482
0.00029342120761189
0.00028214538361559
0.00027268361236252
0.00026451398409693
0.00025711620394958
0.00025011313555216
0.00024343086228931
0.00023739218259327
0.00023307156749641
0.00023000016023796
0.00022911924450832
0.00023004082987776
0.00023126862175124
0.00023061990004268
0.00022587523944341
0.00021615339719635
0.00020300595904323
0.00018953528639133
0.00017793539791435
0.00016859707986235
0.0001609862370325
0.00015448913036326
0.00014867400351302
0.00014327935372426
0.0001381558270548
0.00013322025904149
0.00012843520688602
0.00012380505379269
0.0001182999672862
0.00011413479611229
0.00011022465657411
0.00010662712902274
0.00010338501927378
0.00010054098700272
9.8139321295323e-05
9.6135218021719e-05
9.4516306591695e-05
9.3267432800932e-05
9.2331848335918e-05
9.1635566830275e-05
9.1286004738875e-05
9.1218292405161e-05
9.1375159892752e-05
9.1696826608206e-05
9.2128506441919e-05
9.2625181729998e-05
9.3138768517227e-05
9.3631901923561e-05
9.408076110391e-05
9.4469531502631e-05
9.4780577048019e-05
9.4994105205667e-05
9.5108034726009e-05
9.5135294485094e-05
9.5088231510838e-05
9.4983858986843e-05
9.4833771495482e-05
9.4639817774393e-05
9.4405805696289e-05
9.4135504279966e-05
9.3838883304057e-05
9.3585717231879e-05
9.384810796693e-05
9.360978699665e-05
2.5478581831868e-05
1.3287160239151e-05
8.5989449893726e-06
6.284701826426e-06
4.7080201867531e-06
3.7024508293526e-06
2.9566009424132e-06
2.428431714642e-06
2.0632319168052e-06
1.8317782227409e-06
1.7405035478173e-06
1.7195350743188e-06
1.7773642201874e-06
1.8965467926526e-06
2.0553729327831e-06
2.2476883742981e-06
2.4759038154603e-06
2.7214991538785e-06
2.9580822617507e-06
3.2008386925885e-06
3.4623149849512e-06
3.7302797063865e-06
4.005869224686e-06
4.3032775336464e-06
4.6158924931159e-06
4.9351688442723e-06
4.8131096888833e-06
4.641823021338e-06
4.4852930377319e-06
4.3415875223883e-06
4.2094905002035e-06
4.0876484787411e-06
3.9748222828124e-06
3.8703977016163e-06
3.7728629907192e-06
3.6823110837701e-06
3.5969436156786e-06
3.5169318684352e-06
3.4413403343883e-06
3.3702916492906e-06
3.3030179731155e-06
3.2394311877266e-06
3.1790475845794e-06
3.1216380051446e-06
3.0670365725406e-06
3.0148951473943e-06
2.9653426691267e-06
2.9178937249915e-06
2.8727380209365e-06
2.8293713008368e-06
2.7879291938352e-06
2.7480564746706e-06
2.7096994045467e-06
2.6727296622593e-06
2.6370935675741e-06
2.6027517107007e-06
2.5696380247984e-06
2.537715619109e-06
2.5069278519931e-06
2.4772230502777e-06
2.4485301313472e-06
2.4207707734372e-06
2.3938681326678e-06
2.3677652474908e-06
2.3424223301488e-06
2.3178193149849e-06
2.293936306431e-06
2.2930170685709e-06
0.00014501315955105
0.00050792758650986
0.000449498545707
0.00040194945922195
0.00036827075720978
0.00034307958611308
0.00032314311539629
0.00030683314601501
0.00029332503121134
0.00028209246703631
0.00027265815419133
0.00026450713344776
0.00025712570700869
0.00025013989881357
0.00024347328831887
0.00023744116764423
0.00023310802259206
0.00023003493831169
0.00022915861530126
0.00023012014040585
0.00023142574319144
0.00023089003210039
0.00022628379392576
0.00021670458242741
0.00020366579600144
0.00019024022454087
0.00017864429361809
0.00016929695054579
0.00016167711080091
0.0001551711278756
0.00014934335260179
0.00014392809745283
0.00013877404377604
0.00013379957413224
0.00012896882287383
0.00012428533243273
0.00011870717589368
0.00011447953045302
0.00011050315208131
0.00010683955049104
0.00010353213327845
0.00010062464353257
9.8160150875378e-05
9.6099755984411e-05
9.4421342472691e-05
9.311543824356e-05
9.2135568585982e-05
9.139223892446e-05
9.0987497033875e-05
9.0866107349302e-05
9.0968159582161e-05
9.1236075607423e-05
9.1615261517014e-05
9.2060439378023e-05
9.2523218274823e-05
9.2966778784142e-05
9.3366689184011e-05
9.3704893041288e-05
9.3965513430814e-05
9.4133891595228e-05
9.4209428957739e-05
9.420145144794e-05
9.4120875485263e-05
9.3985173376956e-05
9.3804769938836e-05
9.3582407387332e-05
9.3323567739197e-05
9.3032200089025e-05
9.271758879581e-05
9.2455894784525e-05
9.2567920281482e-05
9.2197107174591e-05
1.3392074305394e-05
7.665784929647e-06
5.1895037788412e-06
3.8323302462043e-06
3.0429227775497e-06
2.5634973872312e-06
2.253511877437e-06
2.0587509519731e-06
1.946296495065e-06
1.9149741178159e-06
1.8977822815368e-06
1.9096325364992e-06
1.9545003245351e-06
2.0339016948056e-06
2.1534139617093e-06
2.3152224467975e-06
2.501784110057e-06
2.7072174093167e-06
2.9145193594021e-06
3.1086193021258e-06
3.2898538867479e-06
3.4854753516227e-06
3.6938352015092e-06
3.9023173306394e-06
4.1219573024383e-06
4.3658565886596e-06
4.6182009862941e-06
4.5799961098662e-06
4.4243006064642e-06
4.2813938545736e-06
4.1495182345237e-06
4.0278696836262e-06
3.9150978224607e-06
3.8105422292793e-06
3.7131002011608e-06
3.6223101030085e-06
3.5373487887749e-06
3.4579091844632e-06
3.3833841867628e-06
3.3133271856471e-06
3.2473919652437e-06
3.1854624142295e-06
3.1268197046464e-06
3.0715015293458e-06
3.0188027563908e-06
2.9686382229412e-06
2.9207550568168e-06
2.8750954400407e-06
2.8314691771085e-06
2.7896937252855e-06
2.7496994808953e-06
2.7112434830799e-06
2.6742698166439e-06
2.6385865429789e-06
2.6041953222741e-06
2.5710284485884e-06
2.5390476940252e-06
2.5082097510218e-06
2.4784652968228e-06
2.449759605406e-06
2.4220190188327e-06
2.3951674265448e-06
2.3691336048222e-06
2.3438628411437e-06
2.319316329666e-06
2.2954780448388e-06
2.2723386980652e-06
2.2782876472171e-06
0.00015229937539872
0.0005067877745571
0.00044836045824189
0.00040118689568175
0.00036768358381127
0.0003426149680804
0.00032280070856394
0.00030660450407516
0.00029318608855172
0.00028201520658932
0.00027262044196519
0.00026449657554638
0.00025713931092161
0.00025017934013952
0.00024353725739812
0.00023752050354809
0.00023318426228433
0.00023011634212221
0.00022926096433909
0.00023028817050502
0.00023171409470884
0.00023134972194562
0.00022695317475426
0.00021758740601409
0.00020470580634983
0.00019134279714564
0.00017974473860214
0.00017037573964474
0.00016273580832961
0.00015621171611799
0.00015036170678534
0.000144914098891
0.00013971392957573
0.00013467988086636
0.00012977838810054
0.00012501530740878
0.00011932373690897
0.00011499890247086
0.00011092150860372
0.00010715623655164
0.00010374814595881
0.00010074169136352
9.8178416838596e-05
9.6030637128558e-05
9.4263610607958e-05
9.2871290831046e-05
9.1818141366625e-05
9.100522934102e-05
9.0514738471883e-05
9.0310964467889e-05
9.0330515480271e-05
9.0517347179373e-05
9.0817285171166e-05
9.1184299483659e-05
9.1570193626569e-05
9.1939218300513e-05
9.2266252818498e-05
9.2531306577606e-05
9.2720151446702e-05
9.2823214965181e-05
9.2840662568795e-05
9.2779364646189e-05
9.2648970993381e-05
9.2466993107142e-05
9.224208244997e-05
9.1978101171474e-05
9.1681784415645e-05
9.1356921307838e-05
9.1006069052512e-05
9.0699039324919e-05
9.0725367196166e-05
9.0258391812738e-05
5.3671332800569e-06
4.3515493820344e-06
3.6363116620691e-06
3.2805644577444e-06
2.9829868236731e-06
2.6936338321771e-06
2.5012493013525e-06
2.3943974503357e-06
2.3376427777439e-06
2.2479661718299e-06
2.2272267551122e-06
2.2320666416569e-06
2.2602457439723e-06
2.3171923173216e-06
2.3915764529721e-06
2.4933393544221e-06
2.6357271299462e-06
2.7918671221813e-06
2.950197168169e-06
3.1161328340949e-06
3.2889285171866e-06
3.4503287371115e-06
3.6130623012495e-06
3.7907552765913e-06
3.9722934484112e-06
4.1540917281233e-06
4.3527821439888e-06
4.5209790476818e-06
4.3687268936634e-06
4.2279288373994e-06
4.097646766938e-06
3.9769327698084e-06
3.8649079702137e-06
3.7606001113889e-06
3.6635399802092e-06
3.5728390755507e-06
3.4881066715694e-06
3.4087324763552e-06
3.3344019532261e-06
3.2645244238036e-06
3.1988828651993e-06
3.1370435840654e-06
3.0786823179499e-06
3.0234343491981e-06
2.9709942869792e-06
2.9212922277112e-06
2.8740835142832e-06
2.8292365456462e-06
2.7864436762173e-06
2.7457747873235e-06
2.7069151233586e-06
2.6697473105042e-06
2.6341168023631e-06
2.5997957013277e-06
2.5666664322885e-06
2.5346884231625e-06
2.5038544891191e-06
2.4741271415763e-06
2.4454652636894e-06
2.4177997062795e-06
2.3910589533197e-06
2.36517042157e-06
2.3400645173667e-06
2.3156840932962e-06
2.2919968462988e-06
2.2689910388494e-06
2.2466557834184e-06
2.2636990578107e-06
0.00016248212667051
0.00050493308553491
0.00044668701733916
0.00040009876959314
0.00036688640307091
0.00034200511687187
0.00032235666249211
0.00030630745745019
0.00029300377481382
0.00028191208804723
0.00027256854487509
0.00026448021897262
0.0002571548369518
0.0002502291923024
0.00024362044555029
0.00023762680616883
0.00023329246848402
0.00023023283280473
0.00022940947239069
0.00023052423898261
0.00023210909244389
0.00023197147595479
0.00022785357221662
0.00021877162477798
0.00020609977785919
0.00019282135124712
0.00018121939626314
0.00017181911880218
0.00016415022413436
0.00015760085596713
0.0001517210901989
0.00014623132272648
0.00014097162131071
0.00013585844382571
0.00013086121410681
0.00012599233758106
0.00012014977159811
0.00011569117555565
0.0001114756907102
0.00010757089844229
0.000104024525493
0.00010088174472849
9.818172750783e-05
9.5913383570851e-05
9.4026688866817e-05
9.2517752430302e-05
9.1356450011555e-05
9.0455250786719e-05
8.9848948642215e-05
8.9533115038534e-05
8.9441795154724e-05
8.9519192995097e-05
8.9711718878001e-05
8.9972669046841e-05
9.0254123308882e-05
9.0521754235483e-05
9.0750412800984e-05
9.0919113952362e-05
9.1014771865266e-05
9.1031807939648e-05
9.0970721741261e-05
9.0837268116015e-05
9.0640137618776e-05
9.0396399662403e-05
9.0112536684163e-05
8.9793574953494e-05
8.9449489325592e-05
8.9075834468406e-05
8.867739964921e-05
8.8293982712916e-05
8.8240210565745e-05
8.7704011717046e-05
2.4464202571813e-06
2.9479669629897e-06
3.6268226542461e-06
4.2884818854883e-06
5.0179388483151e-06
4.8901926661399e-06
4.1830445593407e-06
3.5865606684376e-06
3.1691748747142e-06
2.9365786113097e-06
2.7920521592444e-06
2.7129175763158e-06
2.6826002812711e-06
2.6894098764244e-06
2.7261402067627e-06
2.7857591420008e-06
2.8644374683399e-06
2.9594583930156e-06
3.0703671679481e-06
3.19322695395e-06
3.3268126551439e-06
3.4751634546682e-06
3.6250454958843e-06
3.7759887052595e-06
3.9388560077555e-06
4.1031379947794e-06
4.2660033867661e-06
4.437341961572e-06
4.3142652106882e-06
4.177236106245e-06
4.0498899228939e-06
3.9311575335317e-06
3.8207425231568e-06
3.7176771193845e-06
3.6212939117025e-06
3.5311457839137e-06
3.4468102805246e-06
3.3676927538716e-06
3.2934096081288e-06
3.2235911550093e-06
3.1579585346307e-06
3.0960656488896e-06
3.0377048599793e-06
2.9824688908942e-06
2.9301595613446e-06
2.8805125293202e-06
2.8334423252095e-06
2.7887758725245e-06
2.7463013475999e-06
2.7058556270382e-06
2.6672178544126e-06
2.6303043646316e-06
2.5949189907657e-06
2.5609799023675e-06
2.52836721445e-06
2.4970135254817e-06
2.4668401986112e-06
2.4378284162785e-06
2.4099655864075e-06
2.3831524006746e-06
2.3573280555175e-06
2.33238120381e-06
2.3081927953471e-06
2.2846791789173e-06
2.2618264233812e-06
2.2396357799163e-06
2.218104063261e-06
2.256245252165e-06
0.00017973480014308
0.00050248971860598
0.00044446480268273
0.00039864930847732
0.00036585945205958
0.00034124414219602
0.00032181036419531
0.00030594166824012
0.00029277672615939
0.00028178101441935
0.00027250004118414
0.00026445555078425
0.00025716975714768
0.00025028690460791
0.00024372021969257
0.00023775667563577
0.00023342783316178
0.00023037760530563
0.00022959284824038
0.00023081365093811
0.00023259223800816
0.00023273343420411
0.00022896043295637
0.00022023220276931
0.00020782556233013
0.0001946583789013
0.00018305480224553
0.00017361608062739
0.0001659110069323
0.0001593308517806
0.00015341584446217
0.00014787633858726
0.00014254537366055
0.0001373357573455
0.00013221796259061
0.00012721549936824
0.0001211902649332
0.00011655827585763
0.00011216477342388
0.00010807998048219
0.00010435507674399
0.00010103599318506
9.8158896513794e-05
9.573289710774e-05
9.3693336146226e-05
9.2036080906389e-05
9.0732651536888e-05
8.9717255514013e-05
8.8968337122937e-05
8.8509839462327e-05
8.8278099186675e-05
8.821665806387e-05
8.8272270807437e-05
8.839812374311e-05
8.8546404525083e-05
8.8685029389618e-05
8.8788718949388e-05
8.8836795026289e-05
8.8816694293304e-05
8.8725807247498e-05
8.8565909275599e-05
8.8342570362099e-05
8.8062677929356e-05
8.774243085973e-05
8.7386515733834e-05
8.7003102312056e-05
8.6598524365657e-05
8.6161740195445e-05
8.570677529216e-05
8.5235700822283e-05
8.5086516249695e-05
8.4470274656117e-05
9.8429768662779e-07
1.9086606593833e-06
2.2158119092406e-06
2.7768898439503e-06
3.3670479355251e-06
4.0305610308838e-06
4.8423493404579e-06
5.6671534684973e-06
4.7926186786942e-06
4.1426692225776e-06
3.7108437257348e-06
3.4482767492373e-06
3.2824344166695e-06
3.18635685896e-06
3.1418475894681e-06
3.1306105807474e-06
3.144453584018e-06
3.1824967466817e-06
3.2400038224083e-06
3.3135005985159e-06
3.405828738402e-06
3.5136395986847e-06
3.637344062307e-06
3.7761133519679e-06
3.9058507935649e-06
4.062081203546e-06
4.2184266181158e-06
4.377990049869e-06
4.2949860562027e-06
4.1594535982556e-06
4.0334089062885e-06
3.9159039360251e-06
3.8059624936745e-06
3.7030233192767e-06
3.6066402870219e-06
3.5162804784213e-06
3.4313540622931e-06
3.3516428930485e-06
3.2766760954967e-06
3.2060701249156e-06
3.1394921288459e-06
3.0767469861379e-06
3.0175396347762e-06
2.9614937806843e-06
2.9083844529163e-06
2.8580128174523e-06
2.8102605568991e-06
2.7649224709208e-06
2.7218479834666e-06
2.6808702489356e-06
2.6418092952573e-06
2.6045235650145e-06
2.5688314914056e-06
2.5346591098443e-06
2.5018989042528e-06
2.4704718757115e-06
2.4402823272357e-06
2.4112717299118e-06
2.3834087520256e-06
2.3566350544581e-06
2.3308772318434e-06
2.3060388963996e-06
2.2820384712837e-06
2.2588151753016e-06
2.2363127148548e-06
2.214502386511e-06
2.1933757700869e-06
2.1742650733041e-06
7.9463729253649e-05
0.00050421815474923
0.00045558174296076
0.00040666048248328
0.0003717552771733
0.00034582981486396
0.00032557650849461
0.00030914510137663
0.00029553693727548
0.00028416576541585
0.00027458130739937
0.00026632984374271
0.00025894233212665
0.00025202987700424
0.00024542478995752
0.00023930318394056
0.00023358638055242
0.00023054517164508
0.00022980212156092
0.00023114297195351
0.00023314591778139
0.00023361427188662
0.00023024940947654
0.00022194402287967
0.00020986077963059
0.00019683660576028
0.00018523801345805
0.00017575610371308
0.00016800910502143
0.00016139425783496
0.00015544070569631
0.00014984654147201
0.00014443569222462
0.00013911581809112
0.00013385521669209
0.00012867463559147
0.00012313057499842
0.00011816630385548
0.00011343576718452
0.00010900904158422
0.00010494351615568
0.00010128719828163
9.8074146585925e-05
9.533886233584e-05
9.3010673645038e-05
9.1072751342557e-05
8.9498504212038e-05
8.8254460463991e-05
8.7252685759218e-05
8.6527898110883e-05
8.6034011972359e-05
8.5713197447291e-05
8.5511647446546e-05
8.5384315936975e-05
8.5284070895729e-05
8.518124315879e-05
8.505318823328e-05
8.4880691838921e-05
8.465169557798e-05
8.4366574474764e-05
8.4029910611997e-05
8.3646415516906e-05
8.3217731355221e-05
8.2758840453784e-05
8.2281129727712e-05
8.1776282225612e-05
8.1253079463438e-05
8.0702512052025e-05
8.0142215026768e-05
7.9533284360634e-05
7.9191685189159e-05
7.8388911039724e-05
4.9063027764617e-07
1.2601188371951e-06
1.5038961707926e-06
1.7750564200219e-06
2.1386808931303e-06
2.6180801994096e-06
3.1645887466977e-06
3.8113151155281e-06
4.5737244846201e-06
5.2666457197494e-06
5.7718595141205e-06
5.2495961941365e-06
4.7141010811286e-06
4.3464620089866e-06
4.1033108078194e-06
3.9464767865019e-06
3.8387411644094e-06
3.7760648116176e-06
3.7491476614686e-06
3.7501999813889e-06
3.7753583656701e-06
3.8220132094444e-06
3.8864237451651e-06
3.9679338012538e-06
4.0716136311194e-06
4.1924953280167e-06
4.3022402641857e-06
4.3000260278581e-06
4.1618154008288e-06
4.0334444841815e-06
3.9144877627858e-06
3.8038655284705e-06
3.7010362712029e-06
3.6046721259278e-06
3.5139856060469e-06
3.4282673005493e-06
3.3475245888651e-06
3.2713346377843e-06
3.1993693079551e-06
3.1311982744662e-06
3.0667117370465e-06
3.0056875607563e-06
2.947862426079e-06
2.8929504134221e-06
2.8407554157597e-06
2.7911603552872e-06
2.74398033697e-06
2.6990832708136e-06
2.6563163056076e-06
2.6155896296405e-06
2.5767257883797e-06
2.539577705892e-06
2.5040276900069e-06
2.46999183716e-06
2.4374087046398e-06
2.4061832457132e-06
2.3762398919731e-06
2.3474991119544e-06
2.3199143927419e-06
2.2934391809147e-06
2.2680062679985e-06
2.2435380567736e-06
2.2199506541408e-06
2.1971787606662e-06
2.1751730461673e-06
2.153908263107e-06
2.13335988268e-06
2.5074471318768e-06
0.00025502188290942
0.00049359418847251
0.00043545098137097
0.00039233295597123
0.00036138399247964
0.0003380258678263
0.00031954185326391
0.00030441495715301
0.00029180306935679
0.00028119034023497
0.00027216271878834
0.00026429931581111
0.00025717896344561
0.00025047524120651
0.00024408599307073
0.00023825126472253
0.0002339571338072
0.0002309278016834
0.00023026454083735
0.00023186741278513
0.00023439096486792
0.0002356399550321
0.00023326601331573
0.00022600738558413
0.00021475552663367
0.00020213589464484
0.00019058845496542
0.00018101845508842
0.00017317764141956
0.00016648911335389
0.00016045901835546
0.00015475482767132
0.00014917544011668
0.00014361428863182
0.00013803110649673
0.00013244779819578
0.00012659760080684
0.00012105837616929
0.00011571524919741
0.00011065231650125
0.00010594442452841
0.0001016518159947
9.7817562940573e-05
9.4472278577564e-05
9.1609269761274e-05
8.9156263545396e-05
8.7087571855697e-05
8.5367261538117e-05
8.3950154403577e-05
8.2763017067287e-05
8.1801256321628e-05
8.1020275836162e-05
8.0363187419195e-05
7.9790088331166e-05
7.9254655066686e-05
7.8731713400151e-05
7.8201697441692e-05
7.7648251397481e-05
7.7059589773483e-05
7.6438145992755e-05
7.5789470882398e-05
7.5115627004154e-05
7.4420211093875e-05
7.3705964657049e-05
7.2988852480744e-05
7.2265823011629e-05
7.1553372629668e-05
7.0839556342719e-05
7.014528831199e-05
6.9419035002151e-05
6.8806609835621e-05
6.7639532103243e-05
5.6189359342904e-07
9.6245647777598e-07
1.1467626254671e-06
1.3103164427804e-06
1.5472962649478e-06
1.8511268883781e-06
2.2375711481899e-06
2.6995969331635e-06
3.2529734664944e-06
3.9034572405272e-06
4.5643680336503e-06
5.0798410973123e-06
5.4052789477705e-06
5.4863591236964e-06
5.2644510362808e-06
4.8862771576217e-06
4.6341824786598e-06
4.4609128418676e-06
4.3415929488137e-06
4.2624230755167e-06
4.2235767148528e-06
4.2140915182408e-06
4.228851613794e-06
4.2642915538678e-06
4.3189587292495e-06
4.3910209555394e-06
4.330265512553e-06
4.1998312737737e-06
4.0747905249305e-06
3.9551381012991e-06
3.8413440747491e-06
3.7342521454149e-06
3.6334548870379e-06
3.5389919631489e-06
3.4500760942657e-06
3.3667381306269e-06
3.2888793912532e-06
3.2157225592289e-06
3.1464276585533e-06
3.0806106048482e-06
3.0181498027353e-06
2.9587623101118e-06
2.9022482509628e-06
2.8483605610122e-06
2.7970875048485e-06
2.7481945026904e-06
2.7015636411877e-06
2.6570080836643e-06
2.6144783704701e-06
2.5738672705278e-06
2.5350230477149e-06
2.4978119780091e-06
2.4621215860039e-06
2.4279284455994e-06
2.3951425869844e-06
2.3636967890672e-06
2.3335098192891e-06
2.3045194610506e-06
2.2766901895492e-06
2.2499525837754e-06
2.2242523594544e-06
2.199523520095e-06
2.1756992732767e-06
2.1527295057822e-06
2.1305685596748e-06
2.1091797479051e-06
2.0885378625824e-06
3.4568970759985e-06
0.00030534523900362
0.00048594630888987
0.00042834684055361
0.00038698891904378
0.00035744197619067
0.00033516098742106
0.00031750969170656
0.00030302109398766
0.00029087971486585
0.0002805947512655
0.00027178816658067
0.0002640869402347
0.00025711645815232
0.00025057408276307
0.00024434534757652
0.00023862787514977
0.00023437083083753
0.00023133800256368
0.000230728575821
0.00023258673438848
0.00023568527554291
0.00023784484536705
0.00023666317831698
0.00023070335156312
0.0002205412024185
0.00020852678729311
0.00019712905565525
0.00018749644717676
0.00017956433657439
0.00017281055832204
0.00016672438130821
0.00016093711580597
0.00015521495255306
0.00014942707983586
0.00014351510842679
0.00013749074374747
0.00013128216238553
0.0001250396924774
0.00011891983196975
0.00011301956706998
0.00010744097763143
0.00010227171803355
9.7575435020911e-05
9.3389623986898e-05
8.9746678256192e-05
8.6591899312631e-05
8.3860262243776e-05
8.1507468461741e-05
7.9481192924088e-05
7.7725842448946e-05
7.6194211710653e-05
7.4825683981009e-05
7.3586618648798e-05
7.2447148857668e-05
7.1360621846602e-05
7.0304984672882e-05
6.9255375530986e-05
6.820027743111e-05