/*--------------------------------*- C++ -*----------------------------------*\
| =========                 |                                                 |
| \\      /  F ield         | OpenFOAM: The Open Source CFD Toolbox           |
|  \\    /   O peration     | Version:  2312                                  |
|   \\  /    A nd           | Website:  www.openfoam.com                      |
|    \\/     M anipulation  |                                                 |
\*---------------------------------------------------------------------------*/
FoamFile
{
    version     2.0;
    format      ascii;
    arch        "LSB;label=32;scalar=64";
    class       volScalarField;
    location    "0.00013";
    object      omega;
}
// * * * * * * * * * * * * * * * * * * * * * * * * * * * * * * * * * * * * * //

dimensions      [0 0 -1 0 0 0 0];

internalField   nonuniform List<scalar> 
109340
(
9612.6934810675
9900.5644499567
10701.51675035
12430.20890463
15314.27989114
19241.519060537
23813.709307265
28424.427572469
32539.967730185
36483.127544415
40331.473403717
44106.247337741
47813.788692142
51455.295901844
55029.990551903
58536.369273356
61972.75016423
65337.518101857
68629.255270421
71846.788168553
74989.201111886
78055.834837163
81046.286929571
83960.39749187
86798.209656456
89559.89837532
92245.660801139
94855.568001015
97389.367382121
99846.19264513
102224.10932138
104519.31377745
106724.49815634
108824.82145044
110786.77334604
112525.87951964
9719.282424195
10817.743502406
13664.364941732
17963.765692397
22966.398643431
28030.986190715
32869.193462209
37698.919327027
42532.34665972
47310.314533119
52015.138191025
56638.043727302
61172.807873002
65614.388558065
69958.625767345
74202.153996413
78342.371055949
82377.420992408
86306.183134531
90128.285163554
93844.158598623
97455.008491746
100962.70807802
104369.60845015
107678.3171569
110891.45638711
114011.41581342
117040.10195236
119978.62962936
122826.88969984
125582.81563838
128241.00639149
130789.46872621
133200.40614552
135403.29289041
137219.18666046
9961.820307881
13962.739140915
21389.4254122
28992.25545836
36202.179977266
43345.740404611
50546.519284048
57738.079189485
64869.845632889
71895.831427238
78782.387485812
85506.762415438
92053.531904005
98412.28154312
104576.29090327
110541.74629341
116307.25246622
121873.70420731
127244.70187896
132427.32458715
137432.17526928
142271.84493306
146959.43898036
151507.43342529
155926.98427326
160227.59472937
164416.93312862
168500.63719905
172482.06989944
176361.83755252
180136.64173848
183797.02648455
187321.36490479
190654.70120252
193642.9863377
195865.60068782
11923.017113476
28461.643411174
45340.098516517
62196.204771014
78864.852959565
95256.500938424
111261.7760692
126796.23543973
141791.8660552
156197.03758385
169975.59750632
183107.13640189
195585.71772347
207417.41686457
218617.9762475
229210.74664043
239227.03639407
248717.67227469
257776.47418674
266527.26513251
275076.53691907
283498.40016713
291839.86349185
300128.28918357
308377.38538199
316591.47797442
324768.0740092
332899.82449196
340974.26659057
348974.08354557
356879.19394216
364688.2098735
372427.5852764
380019.49554648
386930.21214747
391274.89140578
46688.610546307
146232.20797119
240726.07700103
331302.30344636
416657.961959
495487.69822163
566988.06663277
630884.97270563
687367.46494445
736913.75337532
780160.96059832
817792.86602216
850478.99740198
878834.30579133
903399.39535661
924674.19071461
943366.07866244
961392.87579961
981877.37636026
1006302.3172489
1034435.5045512
1065342.3971257
1098017.1272764
1131617.2076031
1165481.5074395
1199074.9060848
1231969.4655816
1263814.228855
1294306.2937837
1323143.4612575
1350032.7391971
1374566.1023701
1396205.9524087
1413931.1648971
1425183.4204947
1418598.4927278
4713582.3128744
5536136.306297
6151224.8556945
6581028.9723132
6861887.8343798
7031214.7276604
7121009.005685
7156087.0947289
7154323.612147
7129639.323203
7089899.6347509
7041180.6174624
6987631.1467037
6932054.0744209
6876346.8138641
6821880.4578732
6769570.2859487
6720050.0752807
6673946.9533709
6631899.5328348
6593271.3341351
6557660.3532406
6524879.4915971
6494841.8736332
6467496.040102
6442808.7230973
6420766.0776201
6401380.9130812
6384704.1226455
6370842.8065374
6360001.6401935
6352571.3499027
6349140.2653928
6351042.4629912
6359765.8057871
6374354.7691026
113850.95411598
114024.03152738
113266.71569929
112689.62456197
113183.61045248
115166.60407552
119280.34673141
125742.85919357
133860.57761913
144403.8229844
157729.57238928
169306.81188548
178650.22554051
182223.46389753
181130.72882917
177394.85296068
171982.59472085
165755.47135556
159224.52876726
152718.74671109
146401.90393381
140357.11786949
134683.35226502
129528.78238281
124849.26889932
120526.17859509
116616.66359535
113076.63267417
109599.42937543
106641.36345713
103673.34515703
101074.28999506
98549.246641587
96228.227666313
94043.534569272
91966.725895279
90030.756075619
88182.445769812
86437.692722992
84810.077633326
83221.074071205
81784.575803032
80329.144136561
79045.245700435
77708.81604476
76538.827929688
75323.539243202
74239.513216983
73157.685656125
72136.254848593
71154.543550087
70204.09892366
69293.914044724
68414.516899215
67564.708732521
66742.120615934
65946.664235799
65178.085799605
64436.675379012
63721.704264469
63031.804536344
62364.988442393
61719.056189759
61091.780052732
60481.423030221
59887.211074163
59309.08185928
58703.890904284
891427.87585243
8997383.2032637
6587611.2638135
4890727.259907
3772169.3037096
3005601.5687788
2458003.8914544
2050513.1118949
1736530.3054931
1488437.722821
1289238.6053299
1127701.1103663
995609.70569184
886272.42066489
793811.63084667
712856.10346085
629352.63536387
556891.70311983
483555.10783485
410402.63155336
342231.59213164
284391.47091239
240133.72321137
209694.55704396
190907.42004059
180279.09322086
174361.24669711
170866.11826984
168588.07672801
166946.37637153
165646.69565949
164525.03682286
163484.16060414
162461.04018179
161419.60967882
160363.1191578
159082.73246919
158120.47901984
157277.3291811
156602.12566544
156121.92597197
155854.53367824
155791.1535389
156034.5399718
156605.62841604
157490.60198562
158676.5491244
160152.09688036
161896.5394406
163883.39405959
166074.58457704
168410.12452202
170828.43835721
173268.27385568
175680.27384542
178021.3373427
180258.85132037
182375.02438358
184339.97398443
186111.19051676
187687.52280464
189096.57722506
190354.591377
191475.13933093
192469.06082299
193349.90324245
194121.00508324
194800.09235652
195404.46597273
196091.78423151
197861.13034237
199085.99141931
138193.73155115
136983.16679341
133968.87333681
130130.17791765
125936.97219354
121972.2325952
118610.0120767
116075.69920872
114364.04784508
113591.18143172
113593.52867267
114177.69551758
114858.44262839
115312.16478619
115673.96939956
116106.04716588
116624.97487635
116946.02337229
116592.73488032
115703.46325209
114389.05120693
112744.24966443
110872.62417176
108820.02971772
106713.23816765
104669.65320277
102655.77171874
100662.18669108
98690.505829742
96753.341576731
94893.338756086
93091.890632733
91371.430588181
89698.246557443
88095.115036053
86535.593675683
85041.050756027
83593.903107223
82214.326608545
80883.764910701
79619.347896495
78399.094216245
77234.891930599
76107.107415222
75024.836790586
73976.431550405
72967.462039382
71995.69801362
71060.399958002
70161.359059808
69293.122463052
68454.092710409
67639.714372322
66850.343004825
66083.183741927
65338.154855052
64615.186272965
63914.791415628
63237.005956708
62581.493607178
61947.131669954
61332.182682317
60734.534086976
60152.282937349
59584.080169427
59029.320091916
58488.114261933
58044.063698078
3387991.5675793
8416349.7460906
6078272.1575266
4558384.9098002
3547839.0306832
2847910.8601311
2342409.0936279
1962557.9085243
1667728.9700126
1433645.4059607
1245124.6387801
1091903.15478
966268.79703538
861799.68175836
772786.35547929
693971.11090744
629433.7210984
556982.79071075
483666.86050018
410551.34597246
342413.20996538
284585.14272845
240313.55147346
209843.88729758
191022.6722362
180372.25482449
174449.42800554
170960.660511
168693.68827481
167063.41508622
165773.37308991
164658.18161326
163619.68291169
162596.43320524
161553.13673353
160491.48370683
159200.94499292
158229.84411471
157374.58808282
156687.44234386
156196.59696249
155920.39952835
155851.02802801
156085.12706692
156648.15227945
157527.09525026
158711.76158519
160188.56877092
161937.90649087
163930.71563819
166126.12440105
168466.21655063
170891.19417882
173339.95254443
175759.43811646
178106.70570547
180348.65229917
182463.87684042
184423.84136199
186193.20196491
187770.78802153
189179.06541603
190432.94198706
191547.15114018
192532.05924574
193402.61276869
194162.74938335
194832.35748099
195429.63775253
196109.25610345
197727.7664508
198809.31644803
196078.44580162
191832.13855444
183408.09729433
172998.27813721
162411.71798712
152665.69927913
144225.60297223
137219.83632378
131680.77187784
127044.71515331
123549.11772229
120594.62610071
118287.67421758
116482.72468004
114933.60100315
113513.70872399
111990.31704823
110275.35563181
108122.80289102
105785.13491176
103433.23616425
101151.2756022
98978.608852827
96930.317400608
95002.724408649
93172.354107429
91465.779196355
89921.994248223
88508.652736032
87184.754317324
85946.737846931
84796.840564924
83698.182243013
82636.839851776
81584.77070383
80537.369765067
79488.109063252
78456.792355175
77440.166993052
76453.27128189
75490.166531844
74555.358493102
73643.000729537
72752.202894348
71881.829963352
71028.934477484
70200.052699677
69391.581487571
68610.921061852
67850.733775206
67114.6378325
66396.297629752
65695.017519877
65008.737952791
64337.399298371
63681.690687286
63042.065495194
62419.529853517
61814.534421032
61227.268735554
60656.991964623
60102.234830806
59561.107059983
59031.91818126
58513.514060476
58005.62643252
57508.790370382
57122.207135154
3539187.5446439
8390152.373281
6056036.4674636
4543508.1660053
3538256.7283427
2841523.7406857
2337951.0888075
1959402.1796309
1665550.2013778
1432222.4560128
1244272.4776072
1091464.5224909
966119.17674401
861850.79504159
772984.70997536
694290.25677021
629798.90302633
557459.6686513
484244.76686075
411220.56345171
343130.79516694
285291.59009362
240951.65286043
210378.85586679
191450.54926957
180719.14019911
174753.62603526
171249.79303965
168982.31498685
167357.37936721
166073.70316631
164962.50898268
163923.48731972
162896.76176531
161847.24008191
160773.5342697
159461.68912626
158469.62275534
157588.2264909
156874.82858457
156359.87637784
156063.94214096
155981.20082198
156195.01158272
156740.38599781
157606.85207226
158787.97597824
160266.65799532
162024.17031213
164029.69949125
166239.75842007
168599.64142956
171049.2010401
173526.28324107
175974.78430195
178350.65492217
180617.5541626
182748.23268577
184716.76373316
186496.72079227
188087.13075843
189503.70004505
190759.06302311
191870.36959644
192847.79759347
193708.91688393
194457.79995642
195118.85835259
195709.70753787
196412.66086312
197792.00874284
198684.64348927
385607.91441603
363274.04443554
324927.56187082
283336.75395251
246827.2858084
216569.4221616
193076.68626036
174962.99383921
160917.2559624
149487.16056239
140895.3305582
133748.65691945
127866.11279188
123018.98830974
118969.40935266
115579.00879468
112831.9832427
110246.0490163
107343.47907747
104196.54581603
100996.77680915
97897.893792082
95002.543068773
92337.247872681
89889.598302861
87648.314824564
85599.570176689
83735.53541407
82083.503411101
80616.559665636
79301.344845658
78123.461141432
77057.256747972
76082.394920855
75173.437700065
74319.56111337
73507.996857228
72735.164504651
71994.541749718
71290.851243144
70613.102992039
69957.151855228
69311.493706102
68671.233108327
68029.042504966
67391.37446636
66757.979857332
66135.482593904
65525.127851457
64926.767820053
64340.571042049
63763.017461097
63193.869613624
62630.476733361
62074.257086412
61525.919164776
60987.093581431
60459.2383096
59943.452144064
59440.275527739
58949.246174398
58469.200894672
57998.567044603
57535.900200579
57080.249515751
56631.643082947
56190.940534623
55888.401981907
3749628.5961455
8349647.6481465
6023820.3435378
4522155.3651022
3524393.3043107
2832243.2012425
2331482.6480624
1954839.6740456
1662409.6316044
1430172.889226
1243043.4915285
1090829.7689643
965900.53393012
861922.55126023
773271.6644461
694760.41306759
630382.12715255
558231.25290073
485199.618429
412321.19149712
344302.54613945
286439.5787222
241989.52769834
211252.38512392
192149.88655243
181285.47723993
175244.44621675
171708.54037579
169433.14638321
167810.97378923
166533.03584834
165425.82331045
164385.85244617
163353.5244848
162293.43336193
161203.58114935
159858.32277649
158833.57316014
157913.79807824
157160.28018675
156607.62560163
156279.83234024
156175.07024764
156356.3447172
156876.71963682
157725.96029824
158898.59886844
160378.63326181
162146.52851657
164170.98425754
166405.53134186
168797.73182067
171286.85851764
173807.86329346
176301.32447915
178721.99816108
181029.36837508
183189.91305145
185179.53063837
186979.02338438
188586.65530573
190014.00002616
191271.2136927
192377.91371131
193344.24051696
194191.1231574
194921.7778735
195563.7834387
196127.74182135
196806.44382205
198089.69165893
198871.22303906
1321520.0014024
1071682.9183413
803345.48665673
593609.61554292
446658.18318885
346683.6048495
280041.11925935
234489.80365506
202782.87521238
180260.88395241
163773.02893783
151141.22059947
141145.4835771
133056.95451272
126376.40676002
120822.30873412
116198.50127437
112013.30233738
108082.44412521
104368.10903133
100823.67427234
97394.568411278
94088.343320744
91002.935049176
88156.276283826
85536.332856673
83128.629224499
80927.654176045
78949.176952133
77188.323710137
75619.55142453
74220.245733679
72970.156590529
71845.095525035
70827.341751821
69895.235908048
69039.455980331
68249.580301716
67521.056860516
66844.619775975
66216.520823703
65628.106202393
65072.301933531
64541.2089938
64028.243859754
63529.952474101
63042.842727411
62571.008568702
62112.233950427
61665.198192827
61224.519104435
60787.078966847
60349.509013829
59911.234569572
59473.203579883
59036.183438181
58602.814883325
58174.903532049
57754.094345699
57341.042954358
56935.600986794
56536.88221907
56143.569300724
55754.359606897
55368.397860088
54985.961322721
54607.96780588
54417.433574159
4032247.3173852
8299401.8243505
5983522.6813778
4494992.7566893
3506449.4324123
2820122.0564915
2323029.8608574
1948895.5161903
1658327.9206414
1427509.0117287
1241441.4625053
1089996.2753011
965606.07850213
862005.56372756
773636.16768314
695367.47937281
631158.69881342
559262.62036087
486489.26171121
413814.84632236
345895.49183472
288002.48079632
243406.29219393
212448.57050509
193109.68056424
182061.71798011
175913.26111267
172329.12560289
170039.37556413
168418.49451182
167146.7816791
166044.47395044
165004.41873678
163964.9407112
162890.24434252
161780.67151133
160393.33286568
159324.05301234
158352.97710694
157544.34164608
156938.60918394
156565.26999757
156428.64908144
156564.7125902
157050.1318723
157874.56387572
159033.43499464
160513.5513106
162294.3834285
164342.72750874
166611.12083216
169047.28580359
171589.43429009
174168.05564379
176719.76381594
179197.34754848
181556.30600055
183757.41444563
185777.11131535
187600.82956917
189225.23569403
190660.09135461
191913.79747403
193008.32246224
193954.72913289
194778.05380954
195479.26085703
196088.34872628
196604.47003037
197224.46219916
198409.62351446
199134.04081778
4661244.9697229
2571088.191476
1598770.3388708
1065519.6015238
741504.19740298
536944.64805696
404358.9626904
317180.14057404
259004.27753278
219746.21473712
192225.47977467
172308.67951696
157193.67083392
145327.56017917
135785.64848905
127965.52009435
121319.11244096
115462.71315216
110244.36993502
105577.65397166
101382.81634226
97572.365968032
94079.7908524
90818.306415478
87749.804624954
84889.810015493
82249.390423752
79810.829870402
77591.491130488
75597.836416276
73805.200613913
72186.990193968
70731.687382484
69418.48494941
68227.889400631
67144.915209514
66159.351629135
65260.670706005
64441.360980251
63693.433720764
63009.552857497
62379.776930176
61798.12785591
61255.510365885
60745.668164148
60261.549251397
59801.551205796
59364.905161431
58950.484272778
58556.208700616
58177.376643998
57810.895643563
57452.337307226
57099.515880626
56749.862515757
56403.309168697
56061.13496854
55723.554938729
55391.070907657
55063.78525647
54740.655642498
54420.910909603
54103.400319332
53786.916349732
53470.794452248
53155.1061135
52840.930850284
52813.738740446
4443918.7488522
8241429.3608797
5936796.014916
4462822.1402592
3484754.0268571
2805288.312205
2312657.0024863
1941612.9895008
1653333.7907768
1424246.4871529
1239471.2875686
1088961.3029257
965228.30588676
862089.64555762
774066.4752208
696097.74112279
632112.3948617
560534.46001115
488089.26327708
415678.99819461
347890.318699
289965.23730501
245191.3867036
213961.33552119
194327.27525807
183045.68369985
176757.45362451
173108.42691611
170797.71614184
169176.83981661
167912.40214677
166816.64829671
165777.77293645
164730.44441514
163637.47096041
162503.26017384
161071.67083644
159944.96956608
158908.84165956
158029.4396575
157354.1499845
156919.50301008
156738.42316595
156816.57156687
157254.64528326
158045.87644974
159184.39464062
160661.26200509
162455.42797879
164531.2049107
166841.68260435
169332.63174153
171940.03685779
174588.62707697
177209.88447298
179754.48699776
182172.55322483
184420.01771533
186472.74271371
188319.21331615
189952.83660207
191384.28114932
192621.46685738
193687.59938446
194597.35377637
195380.76519063
196033.54160649
196592.23531464
197042.37948862
197581.63553874
198643.27582732
199298.13440371
6462208.0464824
3571584.4557132
2315421.1955461
1583562.9786473
1117073.3093192
802576.54494719
583292.61695642
440523.04976343
345146.78150104
279998.26589483
234968.40183184
203258.56467317
180265.97228524
162959.59563797
149447.49363074
138468.86598888
129339.02201148
121622.90967713
114961.73621654
109127.03198681
103993.34806169
99458.39075341
95430.071956692
91829.61090391
88553.927783993
85534.030398701
82717.72123046
80088.027108796
77661.373965134
75455.249766471
73458.02568168
71643.360137316
69988.937649858
68482.226869808
67109.988266584
65856.450782343
64708.193401959
63660.861556958
62706.070627744
61835.002719484
61038.4070471
60309.325139378
59640.086371162
59022.468535581
58450.066753351
57916.510882861
57418.053427935
56951.631360771
56516.017455137
56108.857857939
55726.239676367
55363.942050871
55017.011908036
54682.719721507
54358.582169112
54043.51873038
53736.806425103
53438.694322177
53149.797275429
52869.952332617
52598.294818344
52333.208548248
52072.695333624
51814.611054532
51557.461218114
51300.672415535
51044.140594131
50775.7661863
1732779.039636
8857127.0020211
6361738.0753419
4734155.8821536
3667865.0482867
2935269.3949511
2409122.2553818
2016060.7496711
1712647.4014482
1472591.2005052
1279449.2842689
1122335.7616913
993367.02020723
886205.50142081
795325.72926903
715662.95422222
633228.21332755
562030.94724063
489981.87752026
417895.9020695
350272.06207042
292317.01042522
247338.51844727
215789.10514607
195804.4826071
184239.41474461
177777.79407009
174045.73787499
171706.44751602
170083.86944728
168827.87762359
167740.88758971
166705.31215577
165650.93282706
164537.34095867
163362.72432761
162345.09371973
161108.05522163
159951.30186474
158939.13348954
158130.19934701
157573.25153802
157295.50966137
157269.68397155
157610.81918905
158332.55433285
159427.06985281
160889.83691563
162700.229124
164820.49663578
167203.66548375
169791.18525141
172513.2509989
175284.52625325
178025.86039284
180678.03635903
183184.82936427
185494.04440142
187577.99938568
189430.362098
191041.22376789
192428.59787331
193601.85917783
194583.48013043
195397.18763058
196079.38422011
196631.64274834
197101.02899408
197447.45148676
197862.44838825
198731.14859425
199242.44489809
5626744.6340323
2713778.8635879
2109106.4479754
1652192.4114326
1306233.7158939
1006478.47414
776428.77554552
599525.24453354
461915.53050084
368069.16565193
301105.82086201
250982.43223219
215059.0340825
188575.64523868
168563.09918048
152977.60921253
140404.85650669
130008.10392718
121259.38882682
113811.44728577
107394.63807948
101809.54639757
96916.158952377
92603.75784254
88780.825713406
85374.156640631
82305.293187849
79525.861219694
77020.780424733
74739.833817984
72642.46091193
70692.352342246
68887.744793122
67222.097758999
65685.102814893
64261.734055607
62947.98440723
61735.722931953
60617.939313909
59584.53440124
58629.20917148
57745.180112585
56926.392498414
56166.892533649
55461.808405941
54807.306277084
54198.865542709
53633.370423083
53107.728668855
52619.748621114
52165.333440638
51740.262609557
51340.506799294
50963.015266606
50606.022986089
50268.069181718
49948.420577422
49646.188528802
49360.741350238
49091.183709375
48836.065178188
48593.540815507
48361.368426282
48137.352111761
47919.575812011
47707.019498996
47499.472147735
49199.633863341
6373556.0028118
7965086.9639643
5753809.5326385
4339569.9299039
3400173.5893073
2746348.3735046
2271097.1538164
1912390.3053141
1633255.2525848
1411050.6312318
1231399.7290642
1084605.7235851
963498.93293168
862221.91869438
775609.69762231
698872.71328229
635879.64349052
565630.55889725
494576.07881018
423321.03285401
356140.42066567
298147.91439369
252698.75700679
220389.51863256
199555.30959634
187273.75342773
180358.2281349
176397.69253454
173972.26091105
172337.69984709
171101.37720612
170040.42606728
169022.15383973
167964.39639037
166820.51790023
165582.6623735
164605.88613343
163201.20056261
161838.18979091
160587.09686624
159523.30775438
158714.307241
158208.2288662
158010.44654151
158147.92953394
158712.37407868
159701.21007728
161110.68506923
162920.2601533
165090.10402656
167570.83935506
170296.97870008
173184.90372043
176127.36680808
179023.13178947
181792.40178778
184370.62798493
186696.05714628
188729.20929006
190477.90426293
191955.22739828
193196.18869181
194209.99548519
195020.9463276
195659.90115971
196162.6761972
196539.82469845
196844.66896481
197023.80271934
197238.92346009
197786.25565295
197755.00340219
5203719.1845204
2115000.3676039
1823919.2583225
1543875.5014615
1291253.0897215
1070306.9276513
877953.60469069
711235.58417899
575041.14779739
458628.34598073
371472.28966729
309557.93202738
257599.48157406
219251.5889086
191318.64325668
170224.2055225
153873.14987743
140774.05544749
129932.5224247
120804.54191511
113045.88781201
106380.31571511
100594.24098978
95529.720893686
91064.551797826
87100.66184323
83565.119075934
80423.016687554
77622.964162592
75115.358051436
72858.949776806
70806.1707488
68925.656647084
67189.977211689
65572.654435978
64061.608658759
62644.79678888
61321.059179395
60086.538559112
58936.523023055
57866.094389056
56867.065120722
55933.49121031
55059.281052586
54242.527461901
53478.363825238
52763.67478354
52093.989698931
51467.054614568
50880.225428202
50330.314496176
49813.908853628
49327.450250779
48869.079216629
48436.770664216
48029.614595313
47646.66655529
47286.965899983
46949.541865744
46632.610226408
46334.574415917
46053.666980171
45788.045870961
45535.972441658
45295.70560322
45065.910888446
44846.036703607
51832.726009846
7920563.4360838
7697332.7606601
5589999.5567058
4234565.9874293
3329067.2261948
2696608.0141678
2235824.6297194
1887468.2187804
1616012.8146944
1399585.1927978
1224244.0921632
1080591.8689368
961724.9001741
862054.82086782
776676.17698494
701026.03917425
638959.95413581
569906.27236602
500116.80346328
429945.54048149
363378.77617825
305408.85819024
259443.63216547
226250.42972826
204402.39283123
191213.14686492
183690.50840773
179402.26401429
176838.0874333
175170.76033654
173953.54001673
172930.69472036
171949.40437144
170912.46849367
169762.83048603
168481.62282355
167570.01105542
165996.94363905
164397.75252458
162850.93195679
161446.53834028
160276.48646037
159420.88799525
158930.55882581
158798.98049727
159101.39628523
159902.0694517
161193.58178422
162953.72935643
165137.59547979
167686.84828368
170523.86221707
173546.39801821
176615.98780365
179606.65029267
182413.7416576
184965.71950222
187200.65057452
189058.89587544
190570.05505195
191772.62484216
192692.06445598
193358.61795477
193832.06342034
194166.73114241
194377.2641132
194487.22475946
194517.89380591
194465.91275565
194385.99759801
194507.484094
193575.82894312
5188807.8907021
1812280.903906
1556177.6441904
1383994.438253
1210846.4247566
1046139.4851187
893536.84437128
754654.87867079
630998.34882252
526969.77139578
433416.91898593
356402.54421412
302079.24831377
256596.23021479
217873.35232624
189432.96623016
168162.27329886
151789.1648352
138794.80033631
128129.61607015
119142.05714628
111457.16929263
104821.13165694
99055.538183985
94015.607427129
89578.819089134
85645.084138284
82140.069356302
79009.354750456
76208.534646095
73691.770556742
71418.783120689
69357.716557742
67479.627466659
65757.2300699
64171.443175232
62702.190941841
61334.691678652
60060.170371014
58863.866711288
57735.939814172
56667.829642549
55656.475060831
54704.781436605
53809.904620756
52969.615612529
52178.920784201
51434.90347498
50734.491868132
50073.814682542
49450.31785676
48860.228529268
48301.717572409
47772.654295556
47271.587853218
46797.769257187
46350.252265512
45928.639196581
45531.378080875
45156.798701171
44803.157235542
44468.77497545
44152.372919044
43852.558936185
43567.895054356
43297.323204905
43040.291385063
84433.077958705
9090751.910806
7413487.9025944
5404886.733354
4113898.3843523
3247434.5870258
2639568.9777335
2195306.7516803
1858713.7760126
1595968.3018051
1386094.2624465
1215655.9654467
1075596.3366322
959311.37849787
861512.97353917
777585.1980504
703222.03525917
642287.72161196
574669.79966048
506414.03423198
437594.18050842
371840.02347164
313992.70428256
267513.95596163
233363.41936235
210373.61352491
196118.96026047
187827.71620533
183092.75640797
180316.36794625
178578.94208628
177368.8195285
176390.10572601
175464.63734782
174478.03374085
173358.05529159
172070.40753313
171272.18956513
169572.49778274
167760.37972468
165901.55940059
164101.27489111
162471.11245662
161126.74205566
160162.99894312
159645.29043872
159563.62600528
160037.36988257
161095.97434623
162710.21999159
164827.50104961
167376.46443375
170258.79472161
173345.59517762
176453.92762494
179417.74217147
182085.36288297
184355.54333516
186183.33138591
187499.63224823
188365.19763697
188932.00489054
189254.3849604
189349.48076748
189292.00228217
189128.03064741
188873.3669083
188556.78796039
188127.73671993
187626.94004789
187064.28347645
186879.74437806
184742.92553465
5832674.804396
1657190.8669764
1368618.1630858
1234777.0542328
1114658.2485895
992008.49566309
872428.53432085
759468.9688643
654270.49646358
558790.41045521
476812.18240332
400242.7663674
335273.32144923
288440.34502937
249432.61458941
213829.16646813
185974.24658426
164976.57183091
148835.4252933
136073.68160403
125670.65040588
116954.7836163
109507.0985818
103070.57934104
97469.188808763
92559.930692277
88223.425871129
84370.449675107
80932.540764292
77851.283177115
75077.290097352
72569.97821103
70295.376226416
68224.537449271
66334.589572211
64606.915028131
63022.654132526
61564.909285911
60218.46783926
58965.979485099
57795.010227597
56696.383923959
55660.115957479
54680.626246611
53752.372361598
52869.057543009
52029.782423478
51233.670194131
50478.684387491
49763.091981054
49083.488365881
48439.006963461
47826.950120192
47245.132259454
46692.199546555
46166.876826417
45669.245841785
45197.942275871
44751.318855909
44327.582234074
43924.977657185
43542.484713314
43178.899217147
42832.84526631
42503.431807376
42189.762582387
41891.097563781
213945.5481593
9393586.0133222
7085353.8539413
5200241.7617103
3980336.2492871
3156679.5268438
2575988.2184924
2150010.8985976
1826411.3135172
1573267.9985424
1370616.2647889
1205591.5158421
1069517.9397079
956120.9964118
860436.94860587
778161.09123217
705269.24707594
645661.73463033
579703.78004932
513240.94343053
446055.50794861
381344.0382506
323763.91132254
276825.56350279
241698.66874423
217488.98638379
202053.71014016
192833.6061543
187516.29213665
184431.29895096
182563.87100962
181329.25929794
180384.47473092
179521.23932435
178606.47613732
177550.78152945
176302.15442831
175663.90354342
173903.49081275
171958.9757753
169851.84790346
167672.38789395
165544.48730976
163602.70464305
161989.36292079
160837.07506348
160235.9381367
160175.96704237
160802.1581102
162095.76029366
163984.26585777
166373.25140056
169128.03908069
172062.82525774
174929.88208837
177491.32054212
179532.71924571
180914.37487268
181699.80969286
181969.23664997
181857.92183798
181529.1261493
180934.10300999
180184.67421514
179371.45279984
178549.75851495
177779.51408966
177128.62191514
176588.31769362
176232.56604967
175898.47508456
176197.78637503
173724.23348628
7387329.1878902
1542074.7967243
1256405.5737618
1114242.9666758
1022446.9160845
929220.31237522
836041.6299451
744353.79960031
655885.91015292
572952.73273473
498294.3098733
430537.8830635
366044.67343431
311951.40402581
272852.49497592
239206.69642311
207897.99480521
181491.71724668
161297.17863158
145642.49703241
133234.95667151
123150.98752148
114739.1639768
107566.83130186
101363.43597666
95944.650589625
91176.067072266
86955.708778743
83202.657312254
79847.236716067
76829.069650618
74098.747084784
71618.853020772
69360.194027762
67297.929024995
65411.522529645
63683.943515847
62099.710607098
60642.466612065
59295.714537026
58046.518353109
56882.773068518
55793.112954811
54770.005164967
53808.302338077
52901.027541552
52043.586461427
51229.537710936
50452.819753659
49710.490997583
48999.250955505
48317.841683692
47666.729135023
47044.62013571
46450.981655031
45886.530799885
45349.899912824
44840.019288078
44354.813528482
43892.399942294
43451.71846384
43031.154235609
42629.613607002
42246.08051413
41879.578990068
41529.751639019
41166.079560415
711093.58665126
9245259.7487948
6739602.8437025
4980260.4446329
3835806.8718811
3057934.3819188
2506504.07655
2100308.9152263