/*--------------------------------*- C++ -*----------------------------------*\
| =========                 |                                                 |
| \\      /  F ield         | OpenFOAM: The Open Source CFD Toolbox           |
|  \\    /   O peration     | Version:  2312                                  |
|   \\  /    A nd           | Website:  www.openfoam.com                      |
|    \\/     M anipulation  |                                                 |
\*---------------------------------------------------------------------------*/
FoamFile
{
    version     2.0;
    format      ascii;
    arch        "LSB;label=32;scalar=64";
    class       volScalarField;
    location    "0.00013";
    object      p;
}
// * * * * * * * * * * * * * * * * * * * * * * * * * * * * * * * * * * * * * //

dimensions      [1 -1 -2 0 0 0 0];

internalField   nonuniform List<scalar> 
109340
(
389500.80569442
387941.6962049
384993.16640428
381455.80290206
377587.06313749
373597.24232478
369568.21719847
365550.10826173
361630.02541981
357798.78131523
354002.07940351
350236.29926311
346505.00629431
342810.64383537
339154.93157732
335539.39073512
331963.45179501
328424.75075494
324918.5243798
321438.12026577
317973.55226786
314513.94770094
311046.93373934
307557.7306637
304026.59158767
300427.87079289
296727.31912378
292878.81855979
288819.02824864
284458.9778621
279670.59229284
274263.84118975
267951.6171414
260308.77754131
250747.11272085
238537.77623279
389734.46465244
387733.26421568
384428.30746748
380659.47137824
376688.09907423
372694.2785909
368730.17584894
364806.55838289
360919.66855962
357072.87688115
353260.59929123
349483.77686389
345744.86462806
342045.39484668
338386.36970675
334767.38733998
331188.48517053
327646.75259238
324136.62698807
320650.35348758
317177.72743586
313707.6356598
310227.34135296
306721.23776892
303168.44484926
299541.46606906
295803.55832811
291904.90329224
287776.53510643
283320.79165001
278395.2685722
272784.40396984
266149.74455552
257968.51280127
247386.91758486
233492.60622021
390607.36749937
388287.17805997
384645.7348661
380785.78289365
376846.00423368
372906.42204877
368959.78015378
365018.26884294
361106.78518745
357233.0407774
353396.08270468
349596.49226513
345836.10650208
342116.44079935
338439.03809234
334804.98095774
331213.99301929
327663.26188925
324146.75126687
320656.33093265
317181.01293814
313709.49300809
310228.88952135
306723.39097062
303171.97878052
299546.90335134
295811.29304919
291915.21976148
287789.55983716
283336.01210477
278410.54613584
272791.3948197
266111.90091657
257761.06211616
246645.22554847
231019.94931766
391825.69524906
389022.71932042
385191.35849146
381217.64888226
377197.5421007
373172.32993269
369156.46352618
365164.17819321
361211.89386488
357305.3186198
353444.02420412
349627.48180515
345855.85561893
342129.448413
338448.49295837
334812.94819879
331222.06473445
327672.63376331
324157.7017572
320669.37241881
317195.20196978
313724.4362485
310244.53683367
306739.68570495
303189.41335931
299565.86468155
295832.25488544
291938.67828045
287815.84438807
283364.55034945
278438.81266273
272811.25180491
266078.30285083
257516.04416523
245632.3721106
227080.40637976
393754.89773105
390097.79524204
385697.92388082
381448.78304073
377317.33111211
373251.44944887
369222.1102177
365231.25534955
361282.54058912
357376.4057097
353514.49173453
349697.26093115
345925.06150317
342198.33542315
338517.56206885
334883.17477432
331295.42314344
327752.31268547
324240.13675363
320757.70577723
317287.30401898
313819.71623808
310342.95846322
306840.70002794
303293.58969317
299673.49989958
295943.76045607
292054.44717759
287935.94140694
283487.91921804
278558.78129796
272928.50365893
266145.78032425
257377.71708019
244631.25227242
221617.46357713
397379.7722765
390669.79963047
385817.91058586
381479.11437152
377342.4541395
373285.20860224
369266.27202895
365278.26922701
361327.49054616
357415.48178709
353544.98320872
349716.87457249
345931.71095899
342190.00016538
338492.3036396
334839.323144
331232.04063185
327676.74742437
324188.70041436
320700.88898386
317222.89737454
313748.28237086
310265.1874433
306757.95247692
303206.04479571
299581.69682388
295847.96153748
291954.89544128
287832.92873557
283381.27598909
278438.21278281
272810.48907972
266002.85960793
257135.58000905
243919.00882163
216056.88382451
223831.8893336
209150.54792142
196867.824243
186879.85509219
178099.1656695
168561.02899986
157997.18738728
146310.51903168
133625.32297636
120233.8891546
105949.23722885
93004.592856782
80555.296355915
69058.267452246
58990.723479897
50219.33064031
42754.625152391
36454.770319155
31158.840504101
26759.348367031
23111.071179812
20057.615640654
17499.24321706
15358.620949742
13550.856722627
11998.642826021
10692.065563673
9594.9515687483
8589.9572651307
7785.0463594165
7035.7124216405
6410.7467046783
5847.1190357724
5353.0534011092
4919.3237473112
4527.4035675773
4184.7643198037
3872.7037943519
3595.2624981745
3346.0088102557
3116.6512902172
2915.9117345206
2723.8842241206
2560.1484133998
2399.0424751417
2262.9316207231
2128.4538181679
2012.692349484
1901.4634480965
1800.7201513137
1707.1694435718
1619.8547877812
1539.3740325582
1464.4897252687
1394.8222517345
1329.8094775096
1269.0871282307
1212.2783800453
1159.0939586899
1109.2303363472
1062.4165043294
1018.4044568667
976.98127177426
937.95093353155
901.13703349591
866.37477850937
833.51676855036
802.39973002049
785.1324479232
2832.0425040295
5743.3586791071
5982.1050296983
5987.9823944058
5979.2685758295
5965.3193127526
5948.7206929254
5930.7152650712
5911.9617136991
5892.9580397615
5874.1521331274
5856.0106148358
5838.85988933
5822.841616659
5807.7455242262
5790.591081644
5774.4788484337
5756.4940929754
5734.0462701357
5708.8908649604
5682.2240249799
5655.394262371
5629.556139513
5605.3345830034
5583.4479976994
5564.3993873421
5548.7465939066
5536.7502243315
5528.2563058484
5522.829842995
5519.8591267469
5518.7524421179
5518.4585046837
5517.627822634
5515.2954660717
5511.5634243307
5503.4763612979
5492.8522285001
5480.8944890276
5467.7208901663
5454.7176611088
5443.3033983554
5434.671473558
5429.8961529547
5429.1349086017
5432.2907474933
5440.1263393088
5453.1156647498
5471.5072354363
5494.9256874508
5521.1273855891
5548.3100338655
5575.7551078754
5603.5406244279
5630.9939927435
5657.4995274291
5683.5399806099
5709.2395777731
5734.3447811279
5759.1010683369
5783.7864700848
5808.4719180519
5833.3676224037
5858.2446413786
5882.7108792546
5906.2733705111
5928.5875246112
5949.3932889077
5969.9387943143
5986.5715436839
6062.2179319616
216282.53812996
200783.7591586
189182.18002344
180167.58020905
170794.29163847
160958.36268376
150060.60151597
138243.3335677
125739.46340999
112801.47245528
99788.338586277
87032.198578923
75592.527610173
65093.968870274
55710.481354583
47577.479487023
40604.295728636
34704.422729967
29758.319834003
25623.623315753
22169.87059886
19284.507008976
16863.77429366
14822.936450633
13097.667116473
11631.802493833
10376.980822981
9301.8922125512
8373.9227761556
7566.9716731369
6866.271460747
6250.843738878
5712.0455812155
5233.8730765475
4812.0151954614
4434.8798485543
4099.5803378125
3797.8006111587
3527.8216880981
3283.2159074534
3063.1964099319
2862.7812277922
2681.5105545009
2515.6362227095
2364.7268945647
2226.1793449127
2099.2078418104
1982.4306689321
1874.7626120354
1775.5203570451
1683.6029922196
1598.4655535642
1519.3226871596
1445.8181760291
1377.3417448712
1313.4645579453
1253.780431737
1197.944039567
1145.6347060001
1096.5695857838
1050.490687809
1007.1641320308
966.37451713099
927.92605397167
891.64302664845
857.37446886321
824.98552575855
794.34674626174
834.6253070477
4119.1609788125
5876.0832279455
5986.7437781179
5985.8880200428
5974.8148265737
5959.5888252032
5942.040917261
5923.4162189565
5904.3007701905
5885.109435761
5866.2349503226
5848.0795314011
5830.9065173977
5814.7916717516
5799.4360230713
5785.6225613179
5768.8551130088
5750.7872053821
5728.4676724113
5703.6047165249
5677.3897785526
5651.1481026486
5625.9701730373
5602.4131713436
5581.1268901964
5562.5793007689
5547.3309928378
5535.6631612185
5527.4555299107
5522.2449207043
5519.4329108576
5518.4082129892
5518.1993743963
5517.4133773667
5515.0215029319
5511.2352736903
5503.3566488414
5492.7781678944
5480.8586480538
5467.7532102145
5454.8656795077
5443.6839781687
5435.2508161955
5430.4971361371
5429.6775734171
5432.9748293855
5440.9334532167
5454.1365560531
5472.6291241761
5495.8354562287
5521.7496063436
5548.7769468771
5576.1968055903
5603.8405528704
5631.1398251011
5657.6670918517
5683.7561477433
5709.4767627462
5734.6451977373
5759.4662333404
5784.2127536197
5808.9631053012
5833.9497822763
5858.8849951341
5883.3981608806
5906.9771440718
5929.2663703622
5949.8918914898
5969.85186671
5985.7655136202
6061.4504838264
209759.24244707
191484.30347502
180956.9476572
171656.05257203
161696.57835167
151451.68356721
140727.50463853
129456.96983829
117823.00877214
105658.96099548
94376.483080827
83146.813295192
72544.839931005
62830.602871664
54078.098473657
46374.473238974
39725.388469721
34076.182099549
29305.782088751
25285.410920099
21914.261593766
19091.626647176
16715.147640332
14707.315170122
13007.849091073
11560.499335199
10320.930943302
9255.3885771253
8336.6969427053
7537.1675733213
6840.3977434954
6230.4132769564
5693.2723090558
5219.5048698006
4798.5349905137
4424.5113809065
4089.7083741079
3790.2715702229
3520.4833024995
3277.632444576
3057.7635085764
2858.5329770449
2677.3963862877
2512.2657570653
2361.6141183852
2223.3827574879
2096.8313512427
1980.1415527138
1872.9040551215
1773.6510231169
1682.0239776477
1597.008659069
1518.0735432676
1444.6384513396
1376.2294876453
1312.4379496944
1252.8375498033
1197.0793220441
1144.8342727778
1095.827086381
1049.801751851
1006.5244767038
965.778377558
927.36932599469
891.12502948218
856.89469591492
824.53771906239
793.9321533351
839.10818001185
4169.1129416676
5877.9604725115
5985.0945576978
5984.4621646458
5973.7282547479
5958.598200577
5941.1283167239
5922.5019248028
5903.3859622651
5884.1916807637
5865.3167721634
5847.164486537
5829.9958634641
5813.8793017887
5798.4843451522
5784.4316707729
5767.9060489747
5749.6483894886
5727.4724891451
5702.7148094682
5676.6155959266
5650.4410653329
5625.3271897592
5601.9147697104
5580.7297175399
5562.2808524055
5547.1013523153
5535.4662256334
5527.2622483017
5522.0579566323
5519.2388801659
5518.1344722085
5517.878762728
5516.9865575016
5514.4483450884
5510.5058701079
5503.0196138737
5492.5531472916
5480.7551387159
5467.8034248069
5455.2234895492
5444.5895502339
5436.6971149809
5432.086630875
5431.1268627458
5434.6377424834
5442.7812484866
5456.0853403351
5474.4214940457
5497.0382227902
5522.4028894545
5549.0513774037
5576.1843727827
5603.5261124646
5630.5846916666
5657.0945940906
5683.1648677942
5708.8512848439
5734.062365718
5758.9421340737
5783.7209294299
5808.5216962512
5833.5774128516
5858.5116235846
5883.0303862484
5906.5884314636
5928.8286516889
5949.2296988392
5968.0080425805
5985.2852616383
6062.9038544607
197523.79371182
176228.23747484
166027.73633969
155514.65021307
146373.54367008
136460.50964001
126751.20723508
116909.72655714
106897.40880446
96659.526477014
87407.738225315
77851.866995669
68545.194720785
59840.006281785
51840.268117946
44746.818844125
38549.443644635
33206.724901187
28660.067334995
24818.624706732
21570.135408676
18821.034216427
16508.006407581
14550.194176419
12882.783869394
11459.786545352
10241.829824457
9191.9780206084
8283.1166804916
7494.5204745167
6804.7698976866
6200.5011390066
5668.0761067966
5198.119166139
4780.5036077454
4409.0239074772
4076.6304003266
3778.87449486
3510.7637594983
3269.279824835
3050.4191107505
2852.2536432045
2671.7718886534
2507.535877472
2357.2032226603
2219.6852610588
2093.3653526868
1977.188024284
1870.134151773
1771.2001132773
1679.7833117151
1594.9750375759
1516.2784007235
1442.988333406
1374.7263493927
1311.0418967131
1251.5471082352
1195.885508621
1143.7347032196
1094.8148899801
1048.8644134201
1005.6509094118
964.96258999159
926.61012503021
890.42031588116
856.2395288799
823.92629772652
793.36275518231
846.4733712424
4239.5618392838
5879.9302518156
5982.6881215875
5982.4416569136
5972.1376113448
5957.1943982496
5939.8170599312
5921.1966793619
5902.0738308101
5882.8711338398
5863.992327406
5845.8440059921
5828.6822927868
5812.5699397512
5797.1606231394
5783.236534183
5766.7654566442
5748.5217068819
5726.4544903352
5701.827864918
5675.8531408783
5649.791462428
5624.7869266682
5601.4909409397
5580.3959284054
5562.0207295845
5546.886596299
5535.2638617988
5527.0417036749
5521.7911862471
5518.8949664712
5517.6759464206
5517.2739076578
5516.2047968787
5513.5206676697
5509.5281118822
5502.3525862832
5492.0773399817
5480.5428567223
5467.9647619282
5455.9112291747
5445.939824868
5438.6105688957
5434.3217043383
5433.6109364323
5437.3467364065
5445.6461159762
5458.8816234732
5476.9376499341
5498.8589269934
5523.5393948763
5549.6978496686
5576.4365760904
5603.3994165458
5630.2384439364
5656.695155358
5682.7499824763
5708.4353138345
5733.6608072228
5758.6213545314
5783.5239592379
5808.4477154029
5833.6198548355
5858.5794994036
5883.0903961808
5906.611978045
5928.8056561514
5949.210847391
5968.1578630236
5986.1831377987
6064.4133269871
171063.83877233
151333.41609879
140115.55841245
130609.87702544
123385.52954443
116082.06614378
109182.32490184
102102.9420107
94922.816456297
87549.442188146
79708.609905006
71699.479447747
63801.750921916
56242.857600003
49201.685322058
42782.304684488
37092.926559986
32140.532099753
27870.708759849
24219.962020603
21118.759691028
18490.939927345
16247.837945324
14343.672692621
12722.420242909
11334.536483456
10139.195549518
9109.0481532801
8216.071274729
7438.722012916
6758.903166224
6162.0075258407
5636.0083577606
5170.4243782449
4757.4727371814
4389.0695379617
4059.7440589713
3764.1719502451
3498.3901331293
3258.2882010482
3041.0880226667
2843.9833793325
2664.6643652982
2501.16944908
2351.6394759244
2214.7567405095
2088.9382395061
1973.2822217808
1866.5520130197
1768.0569474731
1676.8742108608
1592.3546696807
1513.8720219437
1440.8325573159
1372.7774691257
1309.2411958496
1249.8828261631
1194.3449403769
1142.318411168
1093.5072607246
1047.6513258002
1004.5223598843
963.91356714408
925.6351199432
889.51313363487
855.39411140439
823.14084961061
792.63353177855
856.97297746586
4327.5070271647
5881.902256258
5979.6108843165
5979.8874092106
5970.0725659062
5955.3779735506
5938.1093240552
5919.5034315444
5900.3684711587
5881.1565521933
5862.275350183
5844.1295925358
5826.9761464926
5810.8736907229
5795.472523265
5781.7328479784
5765.2848114088
5747.1516727363
5725.2508585377
5700.7648314965
5674.9101565229
5648.9652228386
5624.0766764227
5600.9081284285
5579.9366881923
5561.6618532278
5546.5871393456
5534.9773110837
5526.7301706047
5521.4220559959
5518.4305644849
5517.053333397
5516.477893774
5515.211363012
5512.3700143419
5508.250244673
5501.4377044331
5491.5056115033
5480.3520008404
5468.2730461827
5456.8804327724
5447.6613420636
5440.9941560085
5437.1668938298
5436.7836342828
5440.676435464
5449.1035834606
5462.2696492782
5479.9236851166
5501.0676757192
5524.9218432233
5550.4340658002
5576.647778589
5603.1657157588
5629.7000600187
5656.0122057696
5682.0020132927
5707.657844324
5732.9226486456
5758.0182286079
5783.1045835826
5808.1940292946
5833.4941415499
5858.4741050627
5882.9495140388
5906.4110045332
5928.5450161736
5948.9087141415
5967.8709274635
5985.9901672688
6064.3917678023
103571.93097482
99978.493339117
98736.526016158
98522.517079108
97243.554899622
94942.724610092
91669.413118585
87834.866589934
82973.652262844
77569.975266246
71517.623120316
65181.47378337
58707.165776012
52309.058900074
46213.739652537
40558.670044648
35440.049394537
30902.378866125
26943.401002329
23524.272343293
20589.449156049
18078.025471956
15938.186931155
14101.312624534
12528.757821858
11179.160201057
10017.457686756
9009.0356057916
8133.7200285449
7370.8944996082
6703.2505852164
6115.0070654586
5596.6102210295
5137.4199727605
4729.0989483082
4364.8427577584
4039.1294898302
3746.5276818099
3483.0115852609
3245.0081593614
3029.6325980732
2833.9050279443
2655.8651621901
2493.3756783036
2344.856557513
2208.6435864198
2083.5337012946
1968.4130620316
1862.2217720609
1764.1465078188
1673.303220347
1589.1226489334
1510.909230851
1438.1625090964
1370.3385944959
1307.0189309773
1247.844388797
1192.4682403912
1140.5826178857
1091.8956142051
1046.1595649347
1003.1433171698
962.63533891369
924.44433014636
888.40248135217
854.35876118248
822.17880575988
791.74298754145
873.10907384896
4431.2613571949
5884.2881942478
5976.0814021357
5976.8868605488
5967.5651370385
5953.1497532077
5936.0015280489
5917.4200784397
5898.2695159171
5879.0440490469
5860.1579836909
5842.016433027
5824.8740310089
5808.7882927175
5793.4108059823
5779.8744469117
5763.4516981376
5745.4670373987
5723.7317752594
5699.4075219514
5673.7066226226
5647.9115227279
5623.1757047024
5600.1678100297
5579.3475880779
5561.1931599357
5546.1897247008
5534.5966684569
5526.3161994486
5520.9315589707
5517.8199274167
5516.2681210984
5515.46563026
5513.9842428332
5511.0684657422
5506.8014783646
5500.344410267
5490.7856220461
5480.1137852338
5468.6857683545
5458.0966517329
5449.6864857685
5443.7214037983
5440.4124115031
5440.5310398667
5444.5953299388
5453.1147139521
5466.1915246351
5483.3196561951
5503.6834918529
5526.6774798414
5551.4462764888
5577.016017055
5602.9609422079
5629.1704392081
5655.3141696521
5681.2277771765
5706.8682933855
5732.2046143327
5757.4548154949
5782.7321445222
5807.9809637781
5833.3821275949
5858.3770915101
5882.8059555802
5906.2076642161
5928.2963713978
5948.6178865365
5967.5461011928
5985.628751377
6064.0217368095
10106.046497193
46051.038245531
60048.154486417
68588.574697209
73705.781819609
76083.021310685
76065.75955777
74625.712738615
72073.835325556
68638.057867515
64522.133349081
59837.085220959
54778.133948478
49541.326330018
44338.004145187
39357.439519034
34719.982091453
30514.99797552
26773.392459161
23491.133444347
20639.091830437
18176.653294889
16055.446324573
14236.552173633
12666.731536888
11309.056509599
10139.109130767
9125.3798583323
8242.1344197293
7468.880003784
6792.7444832884
6198.2686126535
5672.5105341025
5206.3043309281
4792.2248401915
4422.9422856776
4092.0226218987
3795.0925074156
3527.7313231954
3286.2056523205
3067.3806483666
2868.7900715239
2688.1204647417
2523.1898799508
2372.374752065
2234.1503399553
2107.2496249531
1990.4185092009
1882.6701306166
1783.1499845521
1691.041300023
1605.6770250537
1526.3538969595
1452.5835758048
1383.8587533319
1319.7408996715
1259.8042948863
1203.6960791554
1151.1352869955
1101.8372699921
1055.5403984749
1011.998727071
971.00403641843
932.36968333778
895.92030696964
861.49927070725
828.95391313567
798.1496523653
793.44662770487
3463.3157615752
5794.6086403716
5967.9145296582
5974.4532834928
5967.4639824183
5954.3879849829
5937.9299984132
5919.6717020568
5900.5975052136
5881.3320949187
5862.310697662
5843.9526930681
5826.5524248713
5810.2326845637
5794.7696503884
5777.6306339694
5761.2542052678
5743.4038989063
5721.8886056562
5697.7475265653
5672.2183618606
5646.5920452316
5622.0292277965
5599.2045027505
5578.5625786572
5560.5550457669
5545.6442842916
5534.0818398453
5525.773171827
5520.3069150929
5517.0607887891
5515.3132982351
5514.2292646763
5512.4828698573
5509.3882069424
5504.0733344126
5498.2799830824
5489.3212900172
5479.5950271123
5469.4709161887
5460.3732873549
5453.3492834116
5448.5602913973
5446.1739983584
5447.1640950915
5451.5825390253
5460.1146381702
5472.8606073853
5489.0167303007
5508.1110466976
5529.6763492274
5553.0552845432
5577.456285043
5602.5203639771
5627.9867064988
5653.6471511678
5679.3228901518
5704.8467635707
5730.2871835073
5755.768592602
5781.373448259
5806.8553723596
5832.3408287325
5857.360655075
5881.6633821949
5904.7540562812
5926.726114494
5947.038715898
5966.1095932126
5984.3203429494
6061.7457299388
7949.5326885219
14679.719402457
25106.790485473
33682.47587707
40451.397951759
45375.552418917
48652.311956073
50596.552648538
50759.611710687
50030.164072485
48508.211931128
46223.647967548
43385.11565702
40142.541738851
36677.88213552
33175.080805808
29771.398949461
26564.845883033
23624.27969908
20977.449371592
18625.257926054
16554.721371223
14742.11690993
13158.972735257
11780.158205847
10580.8014465
9533.2450467743
8613.412967688
7809.1223996962
7102.7668557144
6480.5293333206
5928.5661272111
5439.5334284227
5004.6556629558
4616.6209842765
4268.4939618955
3956.2289403165
3675.1489102275
3421.4228592602
3191.4373683592
2982.7356312614
2792.9638713455
2619.9267583649
2461.6946800043
2316.6903495458
2183.6620695139
2061.2866757263
1948.4880350327
1844.2811490936
1747.9390369641
1658.6794786831
1575.8267680577
1498.7913651821
1427.0621171147
1360.2076368665
1297.7828497146
1239.4067491156
1184.7213348292
1133.4366492006
1085.2980306141
1040.057044785
997.49078361634
957.3935264767
919.58650515377
883.90016845476
850.18732782059
818.30802357735
787.81439131393
982.71967655218
4804.9029890981
5896.0674864678
5964.0104233111
5965.5336738024
5957.5306966208
5944.0087661727
5927.276212135
5908.8423898749
5889.6500902569
5870.3633997034
5851.4409872144
5833.2945771282
5816.1782563557
5800.1509715817
5784.877548314
5771.9477235466
5755.6949463291
5738.0948751873
5717.1249988038
5693.416730846
5668.294044117
5643.0722807894
5618.9276652271
5596.5438969104
5576.33745169
5558.6989041329
5544.0355317104
5532.5772715448
5524.2311124918
5518.5907604214
5515.0448070619
5512.8658015734
5511.1896443264
5508.9826304249
5505.6316463586
5500.025943786
5494.9377984321
5487.0276622748
5478.7910755465
5470.5648363225
5463.434722408
5458.2335469389
5454.9516149033
5454.0442873214
5456.0396780696
5461.0970349559
5469.7289201001
5482.0029366007
5497.0056975635
5514.5957159703
5534.39772203
5555.897979856
5578.6042329842
5602.298923792
5626.7060020367
5651.707422349
5677.0404971283
5702.3834510343
5727.9707768554
5753.7009473217
5779.6960614919
5805.4303435273
5830.7081321138
5855.3232067044
5879.1086360719
5902.0179348844
5924.0240214929
5944.6046540152
5964.2897654412
5983.4630200582
6058.6152146883
7689.7755383749
8435.6847779951
12979.057711468
18439.918184046
23493.616531506
27786.45726247
31261.991805897
33852.921635599
35669.399116735
36535.377659536
36417.261081116
35814.875930171
34552.758355094
32793.114706666
30667.953848833
28323.651491563
25900.646057471
23503.628693486
21210.925036066
19075.788806441
17125.429913844
15367.730999939
13798.263087303
12405.490089625
11173.721006444
10087.565005047
9129.8856702661
8285.1264113386
7539.5019421777
6878.3031492716
6291.5181296952
5770.5716857997
5306.4044443297
4892.2245284583
4520.1607558521
4185.8821955402
3885.1511411154
3613.8053483609
3367.960454185
3144.7348299058
2941.9954157602
2757.2212876239
2588.4362099944
2433.7176427234
2291.9302659521
2161.5886051743
2041.5873782018
1930.7748682186
1828.3556355647
1733.5729552776
1645.6745018036
1564.0206385166
1488.0175275711
1417.2509324357
1351.2374889007
1289.5682051658
1231.8613703678
1177.7838366926
1127.0720432051
1079.4400546764
1034.6506102797
992.48777317085
952.75695357932
915.29439722382
879.930802641
846.50100769114
814.86879957475
784.39706015385
1127.6959767385
5061.2086217611
5900.6367616446
5953.7967653492
5955.8326578057
5948.7213154333
5935.8306167664
5919.4591588453
5901.1741495708
5882.0004235019
5862.6703217562
5843.7097206224
5825.5421688159
5808.4269575547
5792.4253550077
5777.2173954974
5764.6678689959
5748.5372185014
5731.1779253831
5710.8415159611
5687.6360414723
5662.9953794404
5638.2455477187
5614.5907457976
5592.7273048052
5573.0442709761
5555.8727361615
5541.5499792289
5530.2705749325
5521.932322377
5516.1352359999
5512.2802947364
5509.6495451129
5507.3995176635
5504.7646799306
5501.1653816689
5495.5826573444
5491.2965383814
5484.5061052245
5477.8797665777
5471.4400205416
5466.1246081571
5462.6908686443
5460.9989499431
5461.6533619117
5464.6028281363
5470.2360830358
5479.0372255077
5490.9550745378
5504.9813020401
5521.2050634725
5539.3752396336
5559.1057501476
5580.2303519146
5602.6413362977
5626.0886041091
5650.3435154508
5675.1599462984
5700.2606284121
5725.8773621138
5751.2128830274
5776.5944037661
5801.9222874443
5827.1603381999
5852.0893039141
5876.213017074
5899.5208260442
5921.5438365182
5941.9348322756
5961.8700369016
5981.3339058726
6055.6037181414
7008.6371830527
6995.9107735306
8442.6212366434
11608.467270471
15087.741669835
18362.040320849
21275.38869872
23721.470235053
25667.968704317
27027.557700366
27660.054638806
27768.066407477
27441.017083541
26626.318807825
25408.718575969
23935.812639272
22283.898835077
20555.784536972
18829.516949233
17158.728087599
15583.1708343
14126.362245853
12796.879235906
11595.037293477
10515.37364786
9549.3087192509
8687.670712234
7919.7304181474
7235.0385494952
6624.3428303539
6079.2695649077
5591.8987269309
5154.5892964387
4761.7526518031
4408.618136862
4090.4211216072
3803.0441132828
3542.0133614469
3305.2401330962
3090.1547242312
2894.1457718584
2715.1963846832
2551.0672512445
2400.7131430363
2262.5784114337
2135.4755484913
2018.1181356111
1909.6707303971
1809.4018601894
1716.4527682484
1630.1890045797
1549.9089131049
1475.1826799275
1405.5503428672
1340.5495818086
1279.7806299442
1222.8533811218
1169.5057859688
1119.4496407427
1072.4224563658
1028.1843493599
986.51082561472
947.22553146387
910.16397060274
875.15878331604
842.06282687134
810.72271612797
780.95149975138
1424.5837372531
5298.747184711
5902.1013574468
5941.715825749
5944.3300048736
5938.1245782364
5925.9358058222
5910.0029981368
5891.9610963231
5872.8601778544
5853.5115929161
5834.5182059323
5816.3232162359
5799.1940487069
5783.1960649736
5768.0269543619
5755.8268421473
5739.8341724233
5722.6787469068
5702.9819582579
5680.3436456196
5656.242062633
5632.0099599332
5608.8898537417
5587.5996734083
5568.5055682139
5551.8865866993
5537.9967544866
5526.980149054
5518.7162072632
5512.8123291818
5508.6863431585
5505.6404843189
5502.9152487317
5499.9251856953
5496.1516314126
5490.7430644554
5487.2092721375
5481.6138332959
5476.5060334288
5471.6523292611
5467.9338283351
5466.1447504375
5466.2429662195
5468.0937750956
5472.080714839
5478.3476040006
5487.384076172
5499.0202153773
5512.2829385935
5527.4335662237
5544.2829903506
5562.5433787417
5582.2947246129
5603.4986495342
5626.0382918277
5649.5152681511
5673.3756197413
5697.3737397535
5722.0244946165
5747.1758312831
5772.5276566415
5797.5165407744
5821.9304242003
5845.8979559833
5870.2075830005
5894.2072876569
5917.2346779838
5938.9171440134
5959.7356142039
5980.3166910516
6057.9834108146
6365.0795708263
6365.3046000175
6596.2226342292
8178.9176019955
10492.128158529
12891.441975699
15181.128553493
17247.432072916
18990.078257644
20369.656888254
21372.728226114
21900.95429044
21961.324784115
21673.666261364
21053.031214834
20175.35523037
19090.898506059
17876.557886627
16603.060254936
15323.211028136
14075.896168395
12890.363288921
11783.852439259
10763.841691989
9831.3981216675
8984.3722064628
8218.6342421487
7528.6874705593
6907.7279617288
6349.0632170256
5846.4653979054
5393.9457980496
4986.1639468904
4618.1617489439
4285.1684846106
3983.2831555021
3709.6401462145
3461.0501775091
3234.8229275459
3028.6151657302
2839.7872636661
2666.9053983992
2508.5062394978
2362.9403835376
2229.0418055923
2105.306625468
1991.0544952171
1885.4212949239
1787.5315220866
1696.7288530705
1612.2169324472
1533.6020075867
1460.373371256
1392.0467742194
1328.211113257
1268.4306953026
1212.4469934116
1159.9492879745
1110.6537621587
1064.3122710827
1020.6813682446
979.57922076872
940.82123753669
904.215772232
869.62115374019
836.89500897636
805.90920493271
778.456592946
1961.2534883567
5494.7547839278
5900.1272952669
5927.8879951359
5930.9404049646
5925.639465665
5914.2611778321
5898.8962287679
5881.1893764595
5862.2641442492
5842.9597579901
5823.9660385913
5805.7548819161
5788.60329936
5772.5826683473
5757.4148365211
5745.5148922675
5729.678608201
5712.6447705494
5693.4782232288
5671.5503073852
5648.0317935469
5624.3470939469
5601.7771323209
5581.0827572423
5562.6227813506
5546.6180389829
5533.2440166082
5522.5768447014
5514.4699028384
5508.5371306346
5504.2185933771
5500.8468698746
5497.7825574967
5494.5484573723
5490.6942437537
5485.4989269688
5482.7154620658
5478.2475734176
5474.4481512051
5471.0023132013
5468.6903388839
5468.4525207155
5469.8108949167
5472.9310500804
5477.9389620397
5484.8355587835
5494.0793950511
5505.5655820053
5518.3083167748
5532.6969058863
5548.642041922
5565.9551601684
5584.753013133
5605.073947604
5626.2185853001
5648.2284892491
5671.3254462811
5694.884704799
5719.1808162365
5743.8729947563
5768.0461457903
5793.7156924786
5819.3314910511
5844.7238449143
5869.5960004524
5893.5510519078
5916.4654488814
5938.1025944215
5958.6480111079
5979.9553865323
6053.9147670056
5844.1251198123
5823.2140706678
5783.5026444381
6371.3433538369
7807.7051067367
9541.0790604895
11299.731553786
12972.216938539
14456.049247566
15708.861220741
16668.353131139
17369.453715784
17698.769509905
17747.677617219
17514.973591383
17014.800730831
16336.053846772
15505.734058735
14585.465898925
13620.566754035
12649.797619316
11700.122682083
10791.838816222
9936.7525992335
9141.4867584845
8408.1399967164
7735.7684065159
7122.4887391155
6564.9155573911
6058.6157267435
5599.2041126395
5182.558095123
4804.675519103
4461.731498518
4150.0714573981
3866.5510830884
3608.3053553092
3372.5731181053
3157.0328190442
2959.9697468097
2779.4189000182
2613.7338149873
2461.4596275572
2320.8928886997
2191.1949273864
2071.5140667039
1960.7879169156
1858.2546955441
1762.9632401335
1674.3560396672
1592.0072423951
1515.2709085152
1443.7113738227
1376.835269877
1314.2225552042
1255.645867233
1200.7257651586
1149.1876809374
1100.7454097145
1055.1467186868
1012.226576413
971.77046559499
933.5948778118
897.53500258616
863.42690170471
831.15477071339
800.54945765086
779.14058504116
2725.8408444928
5639.1505889474
5892.3418751075
5911.9919781091
5915.5406587245
5911.1973501432
5900.7704401361