/*--------------------------------*- C++ -*----------------------------------*\
| =========                 |                                                 |
| \\      /  F ield         | OpenFOAM: The Open Source CFD Toolbox           |
|  \\    /   O peration     | Version:  2312                                  |
|   \\  /    A nd           | Website:  www.openfoam.com                      |
|    \\/     M anipulation  |                                                 |
\*---------------------------------------------------------------------------*/
FoamFile
{
    version     2.0;
    format      ascii;
    arch        "LSB;label=32;scalar=64";
    class       volScalarField;
    location    "0.00013";
    object      pTsat;
}
// * * * * * * * * * * * * * * * * * * * * * * * * * * * * * * * * * * * * * //

dimensions      [1 -1 -2 0 0 0 0];

internalField   nonuniform List<scalar> 
109340
(
389500.80479681
387941.69715375
384993.16667062
381455.80297061
377587.06314438
373597.2422995
369568.21715735
365550.10828944
361630.02547972
357798.78136241
354002.07944085
350236.29929014
346505.00631632
342810.6438508
339154.93158816
335539.39073665
331963.45180434
328424.7507557
324918.52438347
321438.12027136
317973.55226948
314513.94769929
311046.93373529
307557.73066237
304026.59158205
300427.87078869
296727.31912276
292878.81855669
288819.02824595
284458.97785764
279670.59229058
274263.84118734
267951.61713837
260308.7775381
250747.1127185
238537.77623052
389734.46481501
387733.26462376
384428.30757368
380659.47140881
376688.09907581
372694.27859624
368730.17588888
364806.55841759
360919.66858881
357072.87690385
353260.59931161
349483.77687379
345744.86464198
342045.39485378
338386.36971417
334767.38734012
331188.48517168
327646.75259286
324136.62698635
320650.35348396
317177.72743424
313707.6356545
310227.34135188
306721.23776682
303168.44484354
299541.46606261
295803.55832187
291904.90328791
287776.53510406
283320.79164431
278395.26856735
272784.40396636
266149.74455127
257968.51279758
247386.91758282
233492.60621879
390607.36750373
388287.17823691
384645.73494454
380785.78294761
376846.00428462
372906.42209118
368959.78018289
365018.2688696
361106.7852026
357233.0407854
353396.0827201
349596.49227315
345836.10651228
342116.44080615
338439.03809884
334804.98096529
331213.99302393
327663.26189581
324146.75127072
320656.33093051
317181.01294185
313709.49301148
310228.88952096
306723.39097047
303171.97878019
299546.90335152
295811.29304903
291915.219761
287789.55983623
283336.01210417
278410.54613453
272791.39481876
266111.90091537
257761.06211328
246645.22554698
231019.9493149
391825.69503002
389022.71942305
385191.3585896
381217.64893043
377197.54212924
373172.32995045
369156.46354563
365164.17820811
361211.89387655
357305.31863043
353444.02420614
349627.48180382
345855.85562302
342129.44841464
338448.49295644
334812.9481985
331222.06473231
327672.63376571
324157.70175733
320669.37241771
317195.2019672
313724.43625009
310244.53682687
306739.68569946
303189.41335341
299565.86468072
295832.25488202
291938.67827854
287815.84438735
283364.55034869
278438.81266186
272811.2518042
266078.30284939
257516.04416329
245632.37210828
227080.40637729
393754.8975494
390097.79530537
385697.92389845
381448.78304386
377317.3311103
373251.44944751
369222.11021667
365231.25535081
361282.54059117
357376.40571356
353514.49173145
349697.26092814
345925.06150272
342198.33541919
338517.562068
334883.1747751
331295.42314098
327752.31268575
324240.13675357
320757.70577272
317287.30401973
313819.71623588
310342.95846355
306840.70002637
303293.58969411
299673.49989984
295943.76045649
292054.44717963
287935.94140814
283487.91921658
278558.78129479
272928.50365801
266145.78032272
257377.71707912
244631.25227013
221617.46357435
397379.77211832
390669.79964386
385817.91059144
381479.11437155
377342.45413726
373285.20860104
369266.27202663
365278.2692298
361327.49054086
357415.48178566
353544.98320827
349716.87456981
345931.71095871
342190.00016258
338492.30363789
334839.32314307
331232.04063074
327676.74742151
324188.70040921
320700.88898215
317222.89737095
313748.28236898
310265.18744477
306757.95247711
303206.04479496
299581.69682315
295847.96153555
291954.8954413
287832.92873477
283381.27598734
278438.21275781
272810.48908346
266002.85960596
257135.58000582
243919.0088174
216056.88381866
223831.88932745
209150.54791477
196867.8241454
186879.85637054
178099.16460886
168561.02843643
157997.18760407
146310.51921824
133625.32307787
120233.88424698
105949.33609134
93004.594161836
80555.293563749
69058.26829508
58990.723095327
50219.331157619
42754.624832571
36454.770263841
31158.84074844
26759.348303708
23111.071237782
20057.616128101
17499.244704291
15358.623299777
13550.854640719
11998.636075214
10692.097972226
9594.9498061774
8589.9556100936
7785.0337746324
7035.7022161793
6410.7514542586
5847.1089560605
5353.073174883
4919.3161153242
4527.4221637306
4184.7578827779
3872.7183679948
3595.2563776014
3346.0074055569
3116.6465245118
2915.9090930259
2723.8809010047
2560.1548675257
2399.0407384288
2262.9291856349
2128.4544870008
2012.6906686589
1901.4681647763
1800.719305435
1707.1695852102
1619.8547703403
1539.374046469
1464.4897193461
1394.8222638315
1329.8094756032
1269.0871295337
1212.2783738362
1159.0939498543
1109.2303223984
1062.4164879711
1018.4044387439
976.98125477651
937.95091910869
901.13702240461
866.37476856261
833.51675951618
802.39969592668
785.1323711378
2832.0450605297
5743.3604969769
5982.1054350802
5987.9826058802
5979.2685762571
5965.3193271813
5948.7206782652
5930.7152625424
5911.9617195155
5892.9580502815
5874.1521427674
5856.0106208642
5838.8598938594
5822.8416285149
5807.7455584398
5790.5900152522
5774.4789842401
5756.4942330132
5734.0463769675
5708.8909248639
5682.2240406542
5655.3942422991
5629.5560933664
5605.3345237844
5583.447940396
5564.3993362406
5548.7465511608
5536.7501911107
5528.2562839052
5522.8298313111
5519.8591250583
5518.7524489722
5518.4585255177
5517.6278525632
5515.2954894737
5511.5634339232
5503.4763774492
5492.8522283806
5480.8944802558
5467.7208724717
5454.7176325351
5443.3033606521
5434.6714327825
5429.896109967
5429.1348620283
5432.2907009895
5440.1262938835
5453.1156203587
5471.5072006276
5494.925663754
5521.1273754219
5548.3100306528
5575.7551106645
5603.5406283433
5630.9939975607
5657.499532221
5683.539984115
5709.2395814244
5734.344783984
5759.1010693913
5783.78646893
5808.4719150811
5833.3676174912
5858.2446380708
5882.710877884
5906.2733703387
5928.5875240966
5949.3932885551
5969.9387862437
5986.5715496583
6062.2180177351
216282.53812882
200783.75918821
189182.18298889
180167.602043
170794.28067084
160958.34953323
150060.60220305
138243.33354451
125739.46327681
112801.47293724
99788.338677063
87032.198171916
75592.528438767
65093.968384322
55710.481467005
47577.479497754
40604.295717291
34704.422858189
29758.319749689
25623.623326758
22169.870622939
19284.506973205
16863.774209437
14822.936297434
13097.667289348
11631.80387751
10376.979526335
9301.8917636776
8373.9244781834
7566.9707850995
6866.2722174956
6250.8426940212
5712.0461921811
5233.8721522248
4812.0157245572
4434.8790174066
4099.5807235346
3797.7998996551
3527.8219798141
3283.2153392988
3063.1967077048
2862.7808395873
2681.5109827237
2515.636132063
2364.7274705738
2226.1796267907
2099.2079342398
1982.4307948588
1874.7623534963
1775.5204586235
1683.6029434706
1598.4655647405
1519.3227073728
1445.8181683433
1377.3417570987
1313.4645566993
1253.780434805
1197.9440341734
1145.6346993142
1096.569573144
1050.4906734273
1007.1641155233
966.37450139335
927.92603968946
891.64301570983
857.37446196153
824.9855267134
794.34671082962
834.62730450308
4119.1673768843
5876.084281054
5986.7440829461
5985.8881567878
5974.8148817576
5959.5888556862
5942.0409522131
5923.4162635784
5904.3008268006
5885.1094970936
5866.2350104422
5848.0795887069
5830.9065759803
5814.7917415008
5799.4361173204
5785.6215459639
5768.8552377396
5750.7873240454
5728.4677620615
5703.6047645033
5677.3897885141
5651.148084187
5625.9701341873
5602.4131226322
5581.1268434698
5562.5792594859
5547.3309587129
5535.6631356812
5527.4555132479
5522.2449128474
5519.4329109755
5518.408223147
5518.1993931305
5517.4134027213
5515.0215207086
5511.2352783059
5503.3566587977
5492.7781655771
5480.858636758
5467.7531901701
5454.8656494278
5443.6839420122
5435.2507772302
5430.4970959919
5429.6775319411
5432.9747889305
5440.9334148495
5454.1365168409
5472.6290873982
5495.8354280908
5521.7495898176
5548.7769379796
5576.1967981126
5603.8405518751
5631.1398246483
5657.6670927907
5683.7561485019
5709.4767630264
5734.6451969822
5759.466232043
5784.2127506841
5808.9631002948
5833.9497775892
5858.8849912061
5883.398158154
5906.9771421753
5929.2663692285
5949.8918885439
5969.8518575822
5985.765480502
6061.450598224
209759.24244754
191484.30343579
180956.94683191
171656.05982935
161696.57127464
151451.77146215
140727.50471377
129456.96999974
117823.00867937
105658.96158768
94376.483027676
83146.813554029
72544.83979062
62830.603025862
54078.09851364
46374.473146643
39725.38851851
34076.182331994
29305.782042842
25285.41088715
21914.261648795
19091.62660798
16715.147647272
14707.31515956
13007.849107925
11560.499499598
10320.930792603
9255.3885455658
8336.6973048639
7537.1671005804
6840.3980691028
6230.4129002286
5693.2725676676
5219.5046298034
4798.535162935
4424.5112043958
4089.7085573189
3790.2714184373
3520.4835070704
3277.632274858
3057.7637146404
2858.5327973432
2677.3965356107
2512.2655991111
2361.6142057993
2223.3826711724
2096.8314076292
1980.1415850302
1872.9040544513
1773.6510751899
1682.023943311
1597.0086989136
1518.0735230757
1444.638465899
1376.2294910774
1312.4379537126
1252.8375529766
1197.079320471
1144.8342690181
1095.8270778397
1049.8017415051
1006.5244643795
965.77836550458
927.36931481436
891.12502050735
856.89468912567
824.53771079826
793.93213831873
839.11021564815
4169.1194375781
5877.9614608582
5985.0948344197
5984.4622859368
5973.7283083089
5958.5982323765
5941.1283530961
5922.5019671289
5903.3860129694
5884.1917337374
5865.3168226922
5847.1645340082
5829.9959123876
5813.8793617495
5798.4844288045
5784.4306584416
5767.9061756837
5749.6485187109
5727.4725906415
5702.7148689484
5676.6156168973
5650.4410577394
5625.327162522
5601.9147295777
5580.7296780165
5562.280817046
5547.1013228738
5535.4662033935
5527.2622339726
5522.057949938
5519.2388804289
5518.1344807099
5517.8787821877
5516.9865808963
5514.4483591515
5510.5058746971
5503.0196243208
5492.5531480737
5480.7551308001
5467.8034098609
5455.2234682212
5444.5895210364
5436.6970856933
5432.0865954445
5431.1268272452
5434.6377053817
5442.7812143745
5456.0853100414
5474.4214708441
5497.0382076987
5522.4028821113
5549.0513754463
5576.1843773461
5603.5261160789
5630.5846973886
5657.0945995141
5683.1648726297
5708.8512891619
5734.0623691383
5758.9421363725
5783.7209302612
5808.5216954348
5833.5774140179
5858.5116246867
5883.030388057
5906.5884342369
5928.8286537012
5949.2297001943
5968.00803836
5985.2852504461
6062.9039562675
197523.7937118
176228.23761862
166027.73650846
155514.5191025
146373.53877542
136460.51224899
126751.20731393
116909.72613247
106897.4087621
96659.526453021
87407.738383834
77851.866965522
68545.194629992
59840.006333897
51840.267993674
44746.818909975
38549.443763028
33206.724858242
28660.067318518
24818.624720413
21570.135476944
18821.034161316
16508.006476897
14550.194231339
12882.783830097
11459.786579556
10241.829903742
9191.9778183742
8283.1167993352
7494.5203959233
6804.7698209321
6200.5012419963
5668.0759531367
5198.1192865957
4780.5034255344
4409.0240419611
4076.6302688936
3778.8746098596
3510.7636633139
3269.2799013511
3050.4190768753
2852.253666105
2671.7719106446
2507.5358402499
2357.2032906558
2219.6851895183
2093.3654296575
1977.1879513152
1870.1342110052
1771.2000818222
1679.7833314488
1594.9750338848
1516.2783988097
1442.9883471587
1374.7263463008
1311.0419050727
1251.5471100352
1195.8855108937
1143.7347018302
1094.8148859001
1048.8644071707
1005.6509014243
964.9625816686
926.61011681743
890.42030874061
856.23952202204
823.92629180023
793.36274604883
846.47540443775
4239.5673913437
5879.9312045883
5982.6883745437
5982.4417704898
5972.1376639084
5957.1944304546
5939.8170964247
5921.196721853
5902.0738806709
5882.871185629
5863.9923768274
5845.8440525569
5828.6823409078
5812.5699988607
5797.1607059864
5783.2355211052
5766.765578971
5748.5218332024
5726.4545896213
5701.8279229073
5675.8531608216
5649.7914544222
5624.7868995078
5601.4909011542
5580.395889136
5562.0206945476
5546.8865672111
5535.2638398513
5527.0416895546
5521.7911797306
5518.8949671126
5517.6759556143
5517.2739265471
5516.2048191589
5513.5206825012
5509.5281148555
5502.3525963108
5492.0773403303
5480.5428482988
5467.9647452766
5455.9112053807
5445.9397963269
5438.6105404137
5434.3216699825
5433.6109027467
5437.3467012295
5445.6460844749
5458.8815956034
5476.9376263514
5498.8589105033
5523.5393850218
5549.697845293
5576.4365749245
5603.399419059
5630.2384471971
5656.6951588768
5682.7499858638
5708.4353166324
5733.6608090726
5758.6213555099
5783.5239589522
5808.4477143791
5833.6198528181
5858.579498514
5883.0903963562
5906.6119790831
5928.8056575002
5949.2108475313
5968.1578571701
5986.1831246624
6064.4134316527
171063.83876499
151333.4161304
140115.5583984
130609.87402816
123385.53617506
116082.06417312
109182.32516795
102102.94155233
94922.816489926
87549.442155836
79708.60985128
71699.479410267
63801.750920174
56242.85754885
49201.685267922
42782.304771219
37092.926578357
32140.532083716
27870.708807669
24219.961998677
21118.759710866
18490.939894561
16247.838053434
14343.672737415
12722.420231754
11334.536492669
10139.195581799
9109.0481272783
8216.0711658322
7438.7220929387
6758.9030282239
6162.0076204158
5636.0082333699
5170.4244187702
4757.4726504665
4389.0695965917
4059.7439913225
3764.1720044692
3498.3900651104
3258.2882733504
3041.087952872
2843.9834425035
2664.664295171
2501.1694941212
2351.639434083
2214.7567625486
2088.9382401817
1973.282216051
1866.55204317
1768.0569216392
1676.8742404187
1592.3546482902
1513.8720381614
1440.8325512179
1372.7774729448
1309.2412003984
1249.8828281596
1194.3449443238
1142.3184113193
1093.5072603754
1047.6513231691
1004.5223561668
963.9135626487
925.63511525861
889.51312933965
855.39410649108
823.14084491997
792.63352752575
856.97502581222
4327.5121576593
5881.9031038821
5979.6111104761
5979.8875139842
5970.0726179076
5955.378006391
5938.1093597157
5919.5034741776
5900.3685200875
5881.1566026306
5862.2753982937
5844.1296379289
5826.9761935466
5810.8737486854
5795.4726049083
5781.7318434253
5765.284931918
5747.1517981665
5725.2509578182
5700.7648902408
5674.9101774583
5648.9652159201
5624.076650854
5600.9080898294
5579.9366498366
5561.6618190411
5546.5871110008
5534.9772897248
5526.7301569148
5521.4220498479
5518.4305655949
5517.0533428139
5516.4779119187
5515.2113848123
5512.3700266103
5508.2502467988
5501.4377130743
5491.5056110609
5480.3519916491
5468.273030323
5456.8804114692
5447.6613166448
5440.994131338
5437.1668637476
5436.7836060291
5440.6764050373
5449.1035571006
5462.2696266523
5479.9236664775
5501.0676627341
5524.9218354692
5550.4340626594
5576.6477791018
5603.165717615
5629.7000638216
5656.0122101109
5682.0020172704
5707.6578478284
5732.9226516744
5758.0182305945
5783.1045846231
5808.1940299693
5833.4941414763
5858.4741064498
5882.9495164646
5906.4110071541
5928.5450187783
5948.9087165984
5967.8709235152
5985.9901511837
6064.3918713134
103571.93096176
99978.493369141
98736.526045161
98522.516242831
97243.55334616
94942.724483194
91669.413505758
87834.866552754
82973.652351244
77569.975301375
71517.623118367
65181.473770582
58707.165755715
52309.058846199
46213.739658697
40558.670078886
35440.049355514
30902.378885629
26943.401026192
23524.272303315
20589.449161759
18078.025523377
15938.186952388
14101.312569078
12528.757830871
11179.160224505
10017.457669708
9009.0356023492
8133.7199916037
7370.8944890902
6703.2505861795
6115.0070125163
5596.6102280545
5137.4198968909
4729.0989900884
4364.8427059263
4039.1295206052
3746.5276337559
3483.0116149684
3245.0081392319
3029.632604621
2833.905020044
2655.8651433929
2493.3756899606
2344.8565246416
2208.6436141985
2083.533670958
1968.4130896306
1862.2217589467
1764.1465187592
1673.3032216755
1589.1226412623
1510.9092394435
1438.1624987266
1370.3386017231
1307.0189270332
1247.8443923132
1192.4682422356
1140.5826192779
1091.8956157938
1046.1595651802
1003.1433171421
962.63533801665
924.44432902541
888.40247944944
854.35875766039
822.17879968187
791.7429887669
873.11114129351
4431.2666006245
5884.2889199457
5976.0816093601
5976.886959839
5967.5651887821
5953.1497872224
5936.0015629484
5917.4201210051
5898.2695637913
5879.0440979456
5860.158030265
5842.0164770169
5824.8740767213
5808.7883491958
5793.4108844692
5779.8735278675
5763.4518204243
5745.4671632204
5723.7318754159
5699.4075817472
5673.7066449877
5647.9115173514
5623.1756812063
5600.1677728811
5579.3475508601
5561.1931267714
5546.1896972458
5534.5966477986
5526.3161862958
5520.9315532917
5517.8199292925
5516.2681301431
5515.4656481191
5513.9842645009
5511.0684737801
5506.8014738825
5500.3444158316
5490.7856197749
5480.1137759176
5468.6857547348
5458.0966349223
5449.6864660324
5443.7213885693
5440.4123891197
5440.5310204123
5444.5953131235
5453.114696404
5466.1915108141
5483.3196449685
5503.6834835531
5526.6774740862
5551.4462731869
5577.0160154429
5602.9609439503
5629.1704394049
5655.3141698746
5681.2277777693
5706.8682932898
5732.2046141613
5757.4548145913
5782.7321435926
5807.9809625478
5833.3821272122
5858.3770917273
5882.8059524383
5906.2076601154
5928.2963666489
5948.6178795307
5967.5460872178
5985.6287252859
6064.0218267845
10106.046503335
46051.038232791
60048.154204366
68588.57483174
73705.78258496
76083.021378445
76065.759779053
74625.712738213
72073.835535522
68638.057856706
64522.133341454
59837.085237704
54778.133915882
49541.326279237
44338.004140613
39357.439509677
34719.98207683
30514.99800059
26773.392473375
23491.133416597
20639.09183681
18176.653303253
16055.446287911
14236.55216139
12666.731557023
11309.056546054
10139.109123683
9125.3798770325
8242.1344268102
7468.8799898209
6792.7444878791
6198.2685592707
5672.5105534784
5206.3042820419
4792.2248705382
4422.9422403804
4092.0226448721
3795.0924709127
3527.7313570861
3286.2056284892
3067.3806704368
2868.7900436435
2688.1204656705
2523.1898656699
2372.3747412911
2234.1503424497
2107.2496076911
1990.4185264425
1882.670116398
1783.150000606
1691.0412927445
1605.6770265141
1526.3538969626
1452.5835684667
1383.8587559355
1319.7408921691
1259.8042972391
1203.696078155
1151.1352885843
1101.8372720132
1055.5404003915
1011.9987295524
971.00403831254
932.36968508138
895.92030820183
861.49927125777
828.95391199243
798.14965256707
793.44625710778
3463.3171073651
5794.609737388
5967.9147705383
5974.453395017
5967.4640433321
5954.3880225318
5937.9300324771
5919.6717428916
5900.5975511913
5881.3321423363
5862.3107431385
5843.952735816
5826.5524678374
5810.2327354183
5794.7697209829
5777.6297222082
5761.2543295722
5743.404024439
5721.8887062448
5697.7475876143
5672.218385863
5646.5920416346
5622.0292067481
5599.2044674095
5578.562542765
5560.5550137858
5545.6442578729
5534.0818200479
5525.7731593924
5520.3069099782
5517.060791355
5515.3133072103
5514.2292821039
5512.4828903277
5509.3882219233
5504.0733235219
5498.2799875748
5489.3212876311
5479.5950192939
5469.4709075898
5460.3732757834
5453.3492724184
5448.5602771266
5446.1739871328
5447.1640831182
5451.5825287298
5460.1145724658
5472.8605992342
5489.0167237331
5508.1110411439
5529.6763441608
5553.0552802365
5577.4562814067
5602.5203594788
5627.9867025547
5653.6471481811
5679.3228863595
5704.846760274
5730.2871797653
5755.7685893866
5781.3734447974
5806.8553696678
5832.3408257943
5857.3606530278
5881.6633815895
5904.754056394
5926.7261136186
5947.0387146946
5966.1095889114
5984.3203251265
6061.745824242
7949.5326992562
14679.719372959
25106.790134347
33682.475980927
40451.397981149
45375.552466848
48652.311854484
50596.552846283
50759.611801332
50030.164093017
48508.21207451
46223.648067548
43385.115678392
40142.541696076
36677.882143524
33175.080806112
29771.398985055
26564.845880395
23624.279704992
20977.44939732
18625.257934369
16554.721356722
14742.116914625
13158.972763249
11780.158181754
10580.801437734
9533.2450491878
8613.4130143
7809.1223880073
7102.7668492573
6480.5293319012
5928.5661306377
5439.5334160922
5004.6556731464
4616.620976882
4268.4939642494
3956.2289391259
3675.1489390698
3421.4228655616
3191.4373888542
2982.7356219459
2792.9638771127
2619.9267437536
2461.6946771316
2316.6903374564
2183.6620617819
2061.2866746685
1948.4880282187
1844.2811552865
1747.9390315137
1658.6794834615
1575.8267644128
1498.7913609398
1427.0621128982
1360.2076271664
1297.7828462142
1239.4067425806
1184.7213339632
1133.4366489331
1085.2980321713
1040.0570487284
997.49078801061
957.39353207886
919.58651095509
883.90017466519
850.18733680336
818.30804399917
787.81437104814
982.7222710032
4804.9076553754
5896.0680790727
5964.0106117232
5965.5337636636
5957.5307536565
5944.0088059015
5927.2762492111
5908.8424308382
5889.6501344057
5870.3634433006
5851.4410279861
5833.2946154121
5816.178295964
5800.1510210022
5784.8776189807
5771.9468278498
5755.6950651245
5738.0949983311
5717.1251000205
5693.4167945973
5668.294071831
5643.0722812757
5618.9276486101
5596.5438669689
5576.3374187526
5558.6988747894
5544.0355076617
5532.5772538604
5524.2311018547
5518.5907568154
5515.0448107384
5512.8658111336
5511.1896600557
5508.98264886
5505.6316553659
5500.0259306938
5494.9378048748
5487.0276595157
5478.7910701168
5470.5648272356
5463.4347125343
5458.2335372931
5454.9516031224
5454.0442759591
5456.039662447
5461.0970303106
5469.72895344
5482.0028900092
5497.0057050375
5514.5957115809
5534.3977191711
5555.8979783015
5578.6042326405
5602.2989235212
5626.7060031942
5651.7074227068
5677.0404977155
5702.3834522236
5727.9707781891
5753.7009490936
5779.6960633374
5805.4303457876
5830.708134981
5855.3232099936
5879.1086398129
5902.0179382315
5924.0240239949
5944.6046555069
5964.2897591522
5983.4629990795
6058.6152941106
7689.7755336062
8435.6847664377
12979.057747774
18439.918118782
23493.616542616
27786.457376555
31261.991808427
33852.921600713
35669.39917177
36535.378008737
36417.26044825
35814.871587688
34552.760342764
32793.116780949
30667.954071797
28323.651496999
25900.646045627
23503.628672228
21210.92502629
19075.788812062
17125.429889599
15367.73099346
13798.26311151
12405.490114811
11173.721023515
10087.565031185
9129.8856825315
8285.1263915362
7539.5019056276
6878.3031179494
6291.5181234248
5770.5716698771
5306.4044359129
4892.2245273799
4520.1607572645
4185.8821968756
3885.1511552247
3613.8053616146
3367.9604711995
3144.7348365677
2941.9954284157
2757.2212884848
2588.4362098746
2433.7176360152
2291.9302598707
2161.5886029368
2041.5873719091
1930.7748674023
1828.3556308601
1733.5729570014
1645.6745007453
1564.0206367618
1488.0175236816
1417.2509233252
1351.2374817643
1289.5681956223
1231.861364262
1177.783832485
1127.0720413193
1079.4400561638
1034.6506125073
992.48777763724
952.75695880016
915.29440352413
879.93080905046
846.50101319968
814.8688010679
784.39702807233
1127.6991171008
5061.2122274535
5900.6370409618
5953.7969363703
5955.832733225
5948.7213797751
5935.8306623686
5919.4591991511
5901.174189287
5882.0004650842
5862.6703614841
5843.7097567553
5825.5422020204
5808.4269913737
5792.4253975433
5777.2174579889
5764.6670057224
5748.5373296852
5731.1780441304
5710.8416159369
5687.6361076789
5662.9954111957
5638.2455527949
5614.5907332917
5592.7272803374
5573.0442415268
5555.8727098843
5541.549958005
5530.2705598323
5521.9323139587
5516.1352341848
5512.2802995198
5509.6495550971
5507.399531718
5504.7646947046
5501.1653886026
5495.5826448757
5491.296543306
5484.5061045959
5477.8797618481
5471.4400155166
5466.124600898
5462.6908610919
5460.9989424254
5461.6533545725
5464.6028254522
5470.2360722703
5479.0372788045
5490.9551040933
5504.9812871715
5521.2050605216
5539.3752366854
5559.1057475222
5580.2303492366
5602.6413341769
5626.0886008767
5650.3435126837
5675.1599436369
5700.2606252636
5725.8773597044
5751.2128814246
5776.5944029404
5801.9222872983
5827.1603381472
5852.0893023905
5876.2130153557
5899.5208236587
5921.5438334287
5941.9348263183
5961.8700285039
5981.3338734172
6055.6037834948
7008.6371875542
6995.9107896517
8442.6211817681
11608.467280885
15087.741640046
18362.040355541
21275.388762531
23721.470224769
25667.968473376
27027.558563164
27660.058548441
27768.057299543
27441.022167542
26626.319169579
25408.716197916
23935.810625134
22283.898772363
20555.784598773
18829.516835184
17158.728129272
15583.170880821
14126.362252876
12796.879225918
11595.037285765
10515.373649028
9549.3087164828
8687.6707017527
7919.730407917
7235.0385510987
6624.34282601
6079.2695487899
5591.8987097968
5154.5893190053
4761.7526700048
4408.6181531542
4090.4211302632
3803.0441260633
3542.0133755998
3305.2401392382
3090.1547305899
2894.1457755855
2715.1963809266
2551.0672423749
2400.7131346889
2262.5784094388
2135.4755450862
2018.1181350296
1909.670727612
1809.4018600629
1716.4527688842
1630.1890057922
1549.9089124181
1475.1826747698
1405.5503363393
1340.5495721913
1279.7806217597
1222.8533745455
1169.5057814449
1119.4496392754
1072.4224557705
1028.1843506844
986.51082753575
947.22553462445
910.1639747371
875.15878638916
842.06282829251
810.72271287146
780.95144991644
1424.584363999
5298.7496237226
5902.1016128144
5941.7159775579
5944.3301089177
5938.1246494681
5925.9358590449
5910.0030419927
5891.961136363
5872.8602166465
5853.5116285463
5834.5182369669
5816.3232434719
5799.1940756742
5783.1960993841
5768.0270073621
5755.826015517
5739.8342736863
5722.6788587689
5702.9820570057
5680.3437143576
5656.2420984612
5632.0099699373
5608.8898464966
5587.5996565277
5568.5055436836
5551.8865638255
5537.996736403
5526.9801368535
5518.7162013249
5512.8123293443
5508.6863492044
5505.6404945763
5502.9152612711
5499.9251974571
5496.1516366516
5490.7430531129
5487.2092757368
5481.6138337115
5476.5060296645
5471.6523251744
5467.9338247637
5466.1447447561
5466.2429627914
5468.09377059
5472.0807108943
5478.3476004764
5487.3840234192
5499.0202131894
5512.2829369405
5527.4335646188
5544.2829885206
5562.5433764204
5582.2947214001
5603.4986453838
5626.0382865287
5649.5152632071
5673.3756141108
5697.3737336543
5722.0244877897
5747.1758256606
5772.5276501272
5797.5165339055
5821.9304178073
5845.897949112
5870.2075744284
5894.2072764433
5917.2346657788
5938.9171260617
5959.735592541
5980.3166493162
6057.9834429011
6365.0795831618
6365.3045973146
6596.2226125196
8178.9176471481
10492.128153873
12891.441952537
15181.128626311
17247.432060656
18990.078001591
20369.654721545
21372.734309411
21900.954707307
21961.317445336
21673.67320037
21053.031077992
20175.356037335
19090.900091692
17876.55826303
16603.060150022
15323.21099616
14075.896263092
12890.363341183
11783.852394342
10763.841641426
9831.398119332
8984.3722203741
8218.6342510027
7528.6874842409
6907.7279700577
6349.0632012173
5846.4653605713
5393.9457620759
4986.1639254448
4618.161739726
4285.1684888436
3983.2831725418
3709.6401675671
3461.0501910665
3234.8229238105
3028.6151625261
2839.7872590596
2666.9053909432
2508.506228335
2362.9403782846
2229.0418019747
2105.3066284096
1991.0544943796
1885.421295692
1787.5315263104
1696.728855999
1612.2169321372
1533.6020061222
1460.3733676202
1392.0467680518
1328.2111057361
1268.4306876737
1212.4469869581
1159.9492840304
1110.6537594664
1064.3122694856
1020.681366878
979.57922082927
940.82123892808
904.21577478364
869.62115841096
836.89502278769
805.90921990799
778.45664952836
1961.2498083654
5494.7564245336
5900.1274962376
5927.8881424889
5930.9405132861
5925.6395445332
5914.2612387688
5898.8962770836
5881.1894170473
5862.2641806605
5842.9597891037
5823.9660642582
5805.7549026603
5788.6033189341
5772.5826939769
5757.4148788058
5745.5141058128
5729.6786981085
5712.6448760004
5693.4783202994
5671.5503782014
5648.0318332843
5624.3471089224
5601.7771304817
5581.0827454329
5562.6227632341
5546.6180197574
5533.2440018842
5522.5768355829
5514.4698995396
5508.5371329417
5504.2186008761
5500.8468804375
5497.7825691052
5494.5484671892
5490.694248617
5485.4989152291
5482.7154651588
5478.2475735768
5474.4481504165
5471.0023087863
5468.6903363254
5468.4525183546
5469.8108901582
5472.9310484716
5477.9389602921
5484.8355584751
5494.0793954074
5505.5655828978
5518.3083178419
5532.6969063259
5548.6420419055
5565.9551586492
5584.7530095456
5605.073941551
5626.2185780073
5648.2284795178
5671.3254342248
5694.884690984
5719.1808014468
5743.8729773585
5768.0461286089
5793.7156749458
5819.3314712586
5844.7238217093
5869.59597234
5893.5510190352
5916.4654109078
5938.1025483462
5958.6479598543
5979.9553110356
6053.9147819718
5844.1251828472
5823.2140827759
5783.5026464293
6371.3433558535
7807.7050920104
9541.0790346452
11299.731577588
12972.216939368
14456.049194915
15708.863979366
16668.353734926
17369.454420283
17698.773757148
17747.694247476
17514.968234702
17014.799681621
16336.054283982
15505.733682425
14585.466132776
13620.566743413
12649.797617366
11700.122689809
10791.838830208
9936.7526056686
9141.4867536923
8408.1399908627
7735.7684026327
7122.4887385206
6564.9155670169
6058.6157473917
5599.204132645
5182.5580994412
4804.6755014458
4461.7314724395
4150.0714416702
3866.5510844241
3608.3053560262
3372.5731223877
3157.0328139644
2959.9697419012
2779.4188963849
2613.7338149839
2461.4596309063
2320.8928958499
2191.1949282841
2071.5140662757
1960.7879230591
1858.2547048559
1762.9632450876
1674.3560414191
1592.0072410535
1515.270908324
1443.7113742104
1376.8352670276
1314.2225496816
1255.6458604256
1200.7257594576
1149.1876763603
1100.7454054542
1055.1467149937
1012.2265736815
971.77046432763
933.5948782806
897.53500493791
863.42690624029
831.15478143724
800.54944736087
779.14056031925
2725.8396749117
5639.151570259
5892.3420874056
5911.9921137378
5915.5407642835
5911.1974373742