/*--------------------------------*- C++ -*----------------------------------*\
| =========                 |                                                 |
| \\      /  F ield         | OpenFOAM: The Open Source CFD Toolbox           |
|  \\    /   O peration     | Version:  2312                                  |
|   \\  /    A nd           | Website:  www.openfoam.com                      |
|    \\/     M anipulation  |                                                 |
\*---------------------------------------------------------------------------*/
FoamFile
{
    version     2.0;
    format      ascii;
    arch        "LSB;label=32;scalar=64";
    class       volScalarField;
    location    "0.00013";
    object      rho;
}
// * * * * * * * * * * * * * * * * * * * * * * * * * * * * * * * * * * * * * //

dimensions      [1 -3 0 0 0 0 0];

internalField   nonuniform List<scalar> 
109340
(
662.48306005151
662.47800869187
662.46840203535
662.45678309426
662.44395485026
662.43058874962
662.4169445528
662.40315320716
662.38936154357
662.37523778608
662.36014235237
662.34346454049
662.32447306788
662.30227952214
662.27582424009
662.24385333973
662.20487211303
662.15708848099
662.09832853481
662.02592518648
661.93655630842
661.82605211661
661.68912387311
661.51899676323
661.30688553738
661.04126148326
660.70676688519
660.28256903117
659.7397520326
659.03698954264
658.11297953261
656.87236431399
655.15777171317
652.69107573095
648.94339972439
642.83119696957
662.48381613765
662.47733273455
662.4665545495
662.45415369896
662.44095598745
662.42754442871
662.41408734643
662.4005734032
662.38680271432
662.372444653
662.35699023486
662.33980822175
662.32012555463
662.29700958834
662.26935204088
662.23583692285
662.19490562328
662.14468096402
662.08287817234
662.006683432
661.91258662021
661.79616985306
661.65181596365
661.47230955078
661.24826799519
660.96733555493
660.61298673568
660.16269006878
659.58496649219
658.83444668406
657.84307645103
656.50336661135
654.63385690451
651.90322220891
647.6429021514
640.40581331046
662.48663545861
662.4791318038
662.46726733238
662.45457198821
662.44148403063
662.42826117841
662.4148728812
662.40131743144
662.38749840657
662.37310024456
662.35762848309
662.34044855151
662.32078290181
662.29769661501
662.27008158758
662.23662691246
662.19577324247
662.14564572832
662.08396052594
662.00790592112
661.91397106156
661.7977380914
661.65358988415
661.47430902759
661.25051066228
660.96983420491
660.61574781531
660.16571352654
659.58824853766
658.83797442535
657.84679694532
656.50696093029
654.63501831437
651.88877807092
647.54588158156
639.85989587752
662.49056063193
662.48151700889
662.46905354822
662.45600022325
662.4426589345
662.42915970931
662.41554620997
662.40183486933
662.38791145541
662.37345570801
662.35797421258
662.34082706245
662.32122916262
662.29823945257
662.27074266639
662.23742041973
662.19670728915
662.14672130236
662.08516646071
662.00921982495
661.91534282855
661.79908639306
661.65478720029
661.47515909383
661.25072451429
660.96898588139
660.61321792316
660.16060613746
659.57926865585
658.82323085853
657.8234527016
656.47052690646
654.57622379991
651.78031576019
647.27305955398
638.74974683928
662.49675281554
662.48499634874
662.47071180792
662.45676708001
662.44306287421
662.42943117143
662.41577527883
662.40207936894
662.38819957248
662.37380386629
662.35840543406
662.34136106954
662.32187262745
662.29897874891
662.27153395395
662.23817625778
662.1972808973
662.14688518188
662.08453733985
662.00728367933
661.91132935396
661.79190503155
661.64290179598
661.45640311732
661.22207131242
660.92619527906
660.55035252615
660.06933068843
659.44781588995
658.63481352984
657.55359243561
656.08306204885
654.01263723897
650.93146234182
645.85537500635
635.32682851259
662.50830308862
662.48680435309
662.47103094676
662.45676084266
662.44300777373
662.42937508854
662.41572619937
662.40198522523
662.38792586922
662.37308072843
662.35677537167
662.33811776564
662.31599291989
662.28904151394
662.25562311995
662.2137610491
662.16106420037
662.09465068277
662.0110774051
661.90542266273
661.77175655067
661.60242187196
661.38747760706
661.1139328291
660.76467905716
660.3169568227
659.74012730833
658.99228003796
658.01484026786
656.72349207353
654.99150084976
652.62173090578
649.26898018692
644.26005553826
635.93755730331
617.3357675739
632.31586198607
614.69305783718
587.64547663815
550.86378973303
506.21406617535
455.24253709025
400.09470912853
343.31068275854
287.54216234808
235.27576947138
187.64050832012
148.14823530656
115.65316574177
89.711106561035
69.719698786269
54.390897806134
42.759217844852
33.923643314521
27.17456466007
22.016057042907
18.044414070262
14.940416648912
12.493542954691
10.552767139749
8.9918637867514
7.713574554504
6.6798008423354
5.8360259990153
5.0991506517767
4.5195343376798
3.9991091724143
3.5762176534244
3.2020240536155
2.8843338154167
2.6080596417767
2.3663946218721
2.1562485361335
1.9705800114863
1.8061851742432
1.6622877339771
1.5306843058123
1.4176488163939
1.3108218845863
1.2206437654061
1.1334537648031
1.0600206437885
0.98893408155384
0.92771750970752
0.87002608681558
0.81784604331427
0.77001377024639
0.72575634757659
0.68527475465871
0.64790910762942
0.61341118112512
0.58145690753164
0.55182495107208
0.52429403483678
0.49869015541732
0.47483866385757
0.45258517855028
0.43178982387553
0.41233211333661
0.39410227947622
0.37700211622133
0.36094105011582
0.34583849316979
0.33160876414403
0.32302241779449
1.1225476996824
2.2264999671889
2.2857862525005
2.2580862029658
2.2269238681099
2.1954020605073
2.16417961831
2.1335615332342
2.1037222909465
2.0747031507774
2.0463081020549
2.0180006067295
1.9888180168278
1.9574875959164
1.9227804883343
1.8792023818997
1.8383113762427
1.798908200302
1.7644473143067
1.7373637643759
1.7173457135058
1.7027742865702
1.6919006854018
1.6833492088497
1.6763601375225
1.6705489212864
1.6658428076626
1.6622334413352
1.6596533097333
1.6579719998528
1.657012939441
1.6566055913242
1.6564428795741
1.6561269567623
1.6553787022895
1.654232061317
1.6518279177053
1.6486981524307
1.6451935286386
1.6413593196952
1.6376136132839
1.6343804147699
1.6320067755434
1.6308109601744
1.6308292142303
1.6320341343018
1.6346535347027
1.6388199021204
1.6446074031233
1.6518930181184
1.6599987863871
1.6683894401375
1.6768527078049
1.6854089753447
1.69385270483
1.7020026194162
1.7100022089053
1.7178866687105
1.7255805199575
1.733157476592
1.7407022338684
1.7482359252795
1.7558216403402
1.7633896559256
1.7708177710299
1.7779329660134
1.7845192855746
1.7902559415203
1.7947708421094
1.7954344455843
1.8099947829867
627.20249298799
604.64527461777
571.19995622318
528.43301216794
478.46951968231
424.07485365514
367.59087459852
311.75684526919
258.94743807578
210.913425028
168.77754377912
133.05430124762
104.52221654639
81.771680205249
63.950547855548
50.237885787297
39.72334023706
31.68043191259
25.519906755518
20.772182209498
17.085214738865
14.199018900041
11.915806361983
10.090606802026
8.6194885774715
7.4223141337286
6.4374581034941
5.6232180176518
4.9429771553899
4.3695473740552
3.8848978171088
3.4703829434559
3.1158092976352
2.8083097048744
2.5424504451177
2.3094820023704
2.1060144649126
1.9260826623338
1.7676101668766
1.6262792236111
1.500888605507
1.3882851535012
1.2876666667607
1.1967807184138
1.1149809888199
1.0407658676567
0.9734228700251
0.91214304151868
0.85616610337177
0.80505680407766
0.75813053768466
0.71503991339724
0.6753153293387
0.63870504183815
0.60486005806771
0.57351826737496
0.54444170136807
0.51742485922462
0.49228186660254
0.46884846204775
0.44697718814255
0.42653521224815
0.40740196342049
0.38946862590994
0.37263811288644
0.35682640142522
0.34195863456503
0.32796394756629
0.34191874290767
1.6201089725328
2.2690606881058
2.2796652558175
2.2499877847662
2.2184028978658
2.1867823495587
2.1555371114342
2.1250043429934
2.0953248404291
2.0664655514687
2.0381349624698
2.0096811959235
1.9800431346589
1.9479188500503
1.9121979096851
1.8777707804747
1.8367147965014
1.797308951482
1.7628832308332
1.7358670921938
1.715959544158
1.7015432011115
1.6908530016536
1.6824931810274
1.6756816621371
1.670021444701
1.6654387469021
1.6619302820865
1.6594379373323
1.6578225254731
1.6569114549305
1.6565285955035
1.6563902353386
1.6560860325901
1.6553183717696
1.6541540806628
1.6518087025765
1.6486897572619
1.6451956549558
1.6413804968261
1.6376691415372
1.6345054683093
1.6321910002612
1.6310018291966
1.6310053366317
1.6322550799723
1.634913848396
1.639148090685
1.6449677898592
1.6521918875249
1.6602153746842
1.6685635575736
1.6770219824327
1.6855368850862
1.6939357774776
1.7020924357328
1.7101054057102
1.7179939443187
1.7257033411789
1.7332954195808
1.7408530792932
1.7483997294055
1.7560053658723
1.7635820197187
1.7710152647479
1.7781268329295
1.784695930001
1.7903690332723
1.7946907401992
1.7950695861115
1.8093536425182
624.41016184434
595.96824042822
555.21533064655
505.11877706339
449.29278556419
391.77540742272
335.52730363451
282.51441622479
234.17556518279
190.81353434844
154.34263481924
123.32545203122
97.81009646037
77.306570817716
61.045442070405
48.321263497018
38.457978632787
30.850227258827
24.967545392096
20.391562007824
16.817949606568
14.009662827578
11.778352872274
9.9892471122607
8.544197209686
7.3651476744418
6.3941807260349
5.5887539167545
4.9163857051349
4.3487381543155
3.8676288180419
3.4569708029688
3.1040155456787
2.7993829001295
2.5343886568071
2.3033511226475
2.1003718796032
1.9218133037917
1.7635854515388
1.62322759029
1.4980146107025
1.3860367967066
1.2855606199101
1.1950486300922
1.1134351500237
1.0393751898741
0.97227631206539
0.91104131023575
0.85528786158661
0.80417886326964
0.75739705934876
0.71437047685056
0.67474353966908
0.63817227346395
0.60436133393331
0.57306202556779
0.54402555331622
0.517045931944
0.49193337625277
0.46852723642877
0.44668087038199
0.42626160335591
0.40714827089058
0.38923284108164
0.37241969465783
0.35662487250483
0.3417710360026
0.32779125322468
0.34365509362301
1.6393156518654
2.2694681146157
2.2787531772937
2.2491929073558
2.2177682120805
2.186222500352
2.1550520600118
2.1245697693271
2.0949427903114
2.0661345778088
2.0378566120721
2.0094622679551
1.9798964979293
1.9478596261214
1.9122263779158
1.8777563690914
1.8368250582316
1.7973485742286
1.7629053377867
1.7358369938646
1.7158854257835
1.7014303367189
1.690721782536
1.6823872176127
1.6756001785226
1.669971199442
1.66541385018
1.661920361885
1.6594335043577
1.6578229488729
1.6569109679273
1.6565041493257
1.6563492351886
1.6560096240804
1.6551938793402
1.6539796056468
1.6517442797197
1.6486533069139
1.645193117213
1.6414207914759
1.6378013257397
1.6348007383612
1.6326482503245
1.6315016134138
1.6314687387657
1.6327877501224
1.635507458147
1.6397782279379
1.6455561422113
1.6526101615074
1.6604772929293
1.6687191991024
1.6770969086411
1.685524680851
1.6938534836963
1.7020041799285
1.7100078579244
1.7178802389862
1.7255939223787
1.7331927353744
1.7407464551548
1.7482919489312
1.7558996442691
1.7634551956406
1.7708674477131
1.7779514398941
1.7844834083316
1.7900657245459
1.7939926307382
1.7946298471259
1.8088803283738
618.17187311608
576.3075540857
520.59085711902
457.94276068319
396.82578456237
339.07732814206
287.32867039838
241.46265840723
201.08207645024
165.67858383743
136.37855810131
110.89773539611
89.377847189848
71.661857370183
57.271774230827
45.833570448299
36.815158123765
29.740132932729
24.207928031372
19.876775012217
16.461194614441
13.748178510611
11.588726965138
9.8516771399664
8.4399195441946
7.2848442016241
6.3331940566053
5.541425244955
4.8779213051965
4.3188830457212
3.8433581090997
3.4371958460721
3.0877131454447
2.7859151734354
2.5232227826387
2.2939993734298
2.0925772506517
1.9151845129421
1.7579940037964
1.6185212400827
1.4939260312678
1.3826042011374
1.2825245966605
1.1925292929118
1.1111249992089
1.037454709398
0.97050941508665
0.90954315287233
0.85391169004528
0.80296819701508
0.7563084699349
0.71339000686111
0.67388714753225
0.63739279484359
0.60365780225098
0.57241546583984
0.54343322340521
0.51650286225831
0.49143711834744
0.46807390399056
0.44626415210393
0.42587605695235
0.40679068933875
0.38890215218823
0.37211450207506
0.35634267082644
0.34150918370085
0.32754857766451
0.34651995579019
1.6663864079378
2.2697577496749
2.2774197531418
2.2480555739101
2.2168419657428
2.1854231652558
2.1543536071411
2.1239472113146
2.094393419616
2.0656569722416
2.0374533282503
2.0091440545703
1.9796822505688
1.9477730619807
1.9122791995273
1.877922417999
1.8370829732414
1.7975960039315
1.7630920329059
1.7359350397743
1.7159001253468
1.7013881107166
1.6906549927431
1.6823260073647
1.675556516561
1.6699517550452
1.6654150477263
1.6619332020005
1.6594476969407
1.6578279991681
1.6568951719382
1.656453612377
1.6562516897059
1.6558541834808
1.6549888274375
1.6537512345387
1.6516004815088
1.6485592919084
1.6451740172272
1.6415088367092
1.6380445069368
1.6352405056486
1.633256717012
1.6322086855358
1.6322568620821
1.6336501886071
1.6364249078963
1.6406840356549
1.646387255402
1.6532432122214
1.6609167683582
1.6690216963893
1.677288107414
1.6856066478175
1.6938707924073
1.7020021384748
1.7099938572212
1.7178542825254
1.7255563740194
1.7331591442921
1.7407252418159
1.7482785970876
1.7558872493619
1.7634126364379
1.7707815778422
1.7778141782793
1.7842952168763
1.7898333564423
1.793743844982
1.7943580675803
1.8077459646864
597.29828828917
520.44470618373
438.81705227946
368.4384183905
312.70818762608
266.33806793742
227.74900107735
194.50024103387
165.54353096985
140.11935434697
117.34654576863
97.273674009215
79.910468024514
65.188601210148
52.946059728038
42.916160685118
34.841953790484
28.407173334834
23.293272812662
19.232707097498
16.005543338476
13.430536826571
11.352811493183
9.6740833651296
8.3076077885985
7.1852472280326
6.254906240841
5.4802579734166
4.829876561679
4.2801451906037
3.8122933987241
3.4117914989118
3.0670056031997
2.7684674356104
2.5089638238018
2.2818953398231
2.0825010005864
1.9065653607078
1.7508303992857
1.6122721668231
1.488676502933
1.3780272354951
1.2786264786765
1.189096546942
1.1081498497924
1.0348579199773
0.96819958153095
0.90753065300807
0.85208749415505
0.80138186909188
0.75485957882181
0.71209670618959
0.67271366932371
0.63634888838873
0.60272294750315
0.57155995380487
0.54265013414022
0.51578459949889
0.49078216267394
0.46747412133896
0.44571216581273
0.42536653082348
0.40632050259501
0.38846813943424
0.37171332329909
0.35597116075138
0.3411660368092
0.32723178574823
0.35060516356638
1.7000657684207
2.2698952240561
2.2756962380985
2.2465978916169
2.215635290466
2.1843851344101
2.1534432057435
2.123137919189
2.0936776861742
2.0650345530043
2.0369278948629
2.0087277730946
1.9794003301993
1.9476580902846
1.9123539844333
1.8781658005302
1.8374364904864
1.7979693199855
1.7633936052448
1.7361084525624
1.7159475033303
1.7013477056781
1.6905712798529
1.6822397599595
1.6754935615077
1.6699209965759
1.6654111587207
1.6619437144119
1.6594599841215
1.6578296653006
1.6568716804972
1.6563828032287
1.6561253538706
1.6556627745438
1.6547427700142
1.6534556011582
1.6514030242756
1.6484542849716
1.6451766037991
1.6416547881129
1.6383838444728
1.6358022517716
1.6340169215833
1.6331103831531
1.6332634717223
1.6347133241569
1.6375372969053
1.6417881122449
1.6473832368795
1.6540196205779
1.6614593073818
1.6693821208591
1.6774987649049
1.6856869906774
1.6938578644376
1.7019382179064
1.7098962263697
1.7177270139977
1.7254131676093
1.7330219366637
1.7406012887605
1.7481553467887
1.7557462113077
1.7632153145322
1.7705056092346
1.7774505614327
1.7838524229184
1.7893015553816
1.7931186965638
1.7934330353555
1.8054474218497
449.00963349141
325.10471368526
272.7994056153
240.76876980071
214.5446488598
191.50864640629
170.35261729021
151.03203361032
132.43891387402
115.06977523384
98.711604580255
83.7578019617
70.292701269259
58.437858006006
48.269552209068
39.720153198335
32.654903071941
26.895087594167
22.24065282018
18.493482205411
15.47706852279
13.04263936419
11.074466739033
9.4664275226495
8.1491832135373
7.0632770638441
6.16229258475
5.406883264747
4.7713788553088
4.2333037211406
3.7748013187995
3.3809291623887
3.0417198751945
2.7476827560995
2.4914880987594
2.267231952904
2.070233325437
1.8962139878622
1.7419639206096
1.6047101826031
1.4822402369929
1.3724351432562
1.2738056255294
1.1848761399051
1.10451265557
1.031621911486
0.96536502077274
0.90500817169294
0.84986174468757
0.79939546924146
0.75306302010076
0.71048733586531
0.671252532842
0.63504267601379
0.60154056462825
0.57049099092585
0.54167809137036
0.51489700751914
0.48996815824578
0.46672460326559
0.44502372753762
0.42473470494422
0.40573899471357
0.38793025435428
0.37121503838377
0.35550964583568
0.3407396318128
0.32683931838682
0.35690180508147
1.7397999352227
2.270047681217
2.27366712539
2.2448533423913
2.2141608677088
2.1831097402966
2.1523203668957
2.1221412715522
2.0927947556586
2.0642643590631
2.0362750932708
2.0082083599858
1.9790451874623
1.9475085972872
1.9124419490763
1.8784666294679
1.8378778328639
1.7984452641872
1.7637718267232
1.7363241349077
1.7160062777084
1.7012960499908
1.690465543618
1.6821290173604
1.6754091296254
1.6698741130388
1.6653964154973
1.6619470973327
1.6594652319415
1.6578208058228
1.6568317784271
1.6562914535074
1.6559625575719
1.6554291219072
1.6544780798674
1.653132748023
1.6511733921346
1.6483234196285
1.6451802202121
1.64184679776
1.6388090624645
1.6364652888744
1.6348901474351
1.6341428171298
1.6344539525805
1.6359667106084
1.6388317184516
1.6430708485534
1.6485239716612
1.654942448295
1.6621393342656
1.669851270205
1.6777813340819
1.685797236266
1.6938635823123
1.7018776590985
1.7097877252262
1.7175778503137
1.7252393283354
1.7328376126485
1.740406499278
1.7479297918005
1.7554615438932
1.7628358675854
1.7700036586941
1.7768169243086
1.7831023715442
1.7884175989882
1.792086665101
1.7919978591401
1.8022482306006
15.286772769375
103.78952104601
127.59060789715
136.6073502347
138.01083504091
134.04367289355
126.31006831269
116.83025521014
106.37204852582
95.468218861316
84.505231888525
73.740697402615
63.496771323193
54.020223471045
45.511852801341
38.088359081672
31.750496554268
26.443636253666
22.05814924151
18.463999111795
15.530175555841
13.137877648124
11.1825473313
9.5831896755413
8.2629562766731
7.1669578171944
6.2562141611625
5.4933792814615
4.8494683014045
4.3021562069617
3.8361043535999
3.4364187947347
3.0911857235247
2.7916794967073
2.5309875568984
2.3028740762936
2.1021395975187
1.9250185512784
1.7680607211726
1.6283880465137
1.5036465861916
1.3919465517835
1.2916167620832
1.2011404489601
1.119361239492
1.0452339373951
0.97788914617488
0.91651570608299
0.86045629400103
0.80915584867783
0.76209361229443
0.71884691318599
0.67899119317165
0.64221582395677
0.6082156687883
0.57672560502973
0.54749882272054
0.5203264311393
0.49503960653485
0.4714731651467
0.44947765260453
0.42891507635318
0.40966757904998
0.39163012563445
0.37470551988761
0.35880718222769
0.34385271001316
0.32976970459634
0.32611773069416
1.3677747666009
2.2429243141142
2.2773562909491
2.2502637137152
2.2201029206642
2.1893059848151
2.1585949648505
2.1283944059242
2.0989676982047
2.0703787461334
2.0424314557482
2.0146138905172
1.9860192878252
1.9554281517386
1.9215964484907
1.878808961943
1.8383992312925
1.7990033993376
1.7642263546319
1.7365833688277
1.7160730495945
1.7012246694973
1.6903231414406
1.6819746966129
1.6752828253469
1.6697918172805
1.6653539157485
1.6619292740058
1.6594534728837
1.6577958771556
1.6567735270892
1.6561766986115
1.6557609631562
1.6551414506057
1.6541256760646
1.6525257076873
1.6507408421032
1.6480460215686
1.6451653879719
1.6422099753963
1.6396033849219
1.6376652026976
1.6364404778872
1.6359764710295
1.6365609398724
1.6382005776705
1.6410932346583
1.6452598916767
1.6504498772047
1.6565151574277
1.6633065435556
1.6706167425179
1.6781998919883
1.6859425550204
1.6937632059009
1.7015880194729
1.7093594385582
1.7170247191084
1.7246039046811
1.7321331775809
1.7396365711681
1.7470409784553
1.7543844404841
1.7615285946717
1.7683980383165
1.7748410872659
1.7808295052866
1.7858549854768
1.7892656500707
1.7885431965543
1.7955023533127
6.8296265374284
18.244643010318
32.55902452117
44.442166540157
53.511507003836
59.534360560733
62.702667216148
63.504794589667
61.770142556939
58.756147471945
54.769735254795
50.042825936998
44.942681918999
39.726385309078
34.645463296938
29.906799380645
25.630783647708
21.869997546148
18.632143841335
15.884718653548
13.573813927239
11.640425261538
10.025667583564
8.6755824310938
7.5458291272848
6.5984837135966
5.7990731609137
5.1196761717146
4.5426262324849
4.0494649420374
3.6259150350942
3.2592366979349
2.9414486318922
2.6646527148919
2.4224395652421
2.2091673761686
2.0211201353275
1.8545887300127
1.706557617084
1.5743487075033
1.4560199148198
1.3498219335552
1.2541870201286
1.1677750635426
1.0894830496635
1.0184255201846
0.95373190229541
0.8946889878608
0.84066250094248
0.7911618431318
0.74569903783884
0.70385178996582
0.66525663377597
0.6295984311073
0.59660984551472
0.56602906105692
0.53763041743242
0.51120765999904
0.48658975620636
0.46362734876236
0.4421785661544
0.42211686934544
0.40332706864725
0.38570865216866
0.36916808389896
0.3536237006486
0.33899894738746
0.32509481037631
0.399735320681
1.8821400304213
2.2714584927864
2.2662590080234
2.2380502375676
2.2082055715564
2.1778815341908
2.147686596485
2.1180318428578
2.0891456845909
2.0610607674132
2.0335327853656
2.0059908556649
1.9774795138774
1.9467692731982
1.9126758118032
1.8795756638894
1.8396395236593
1.8003485134005
1.7653433503426
1.7372203937095
1.7162222484449
1.7010137047005
1.6899168593741
1.6815200401579
1.6748826695819
1.6694935593714
1.6651550969742
1.6617989053193
1.6593489942723
1.6576702455045
1.6565797892713
1.6558644088994
1.6552715187073
1.6545031162015
1.6533883971077
1.6516942240139
1.6500812011717
1.6476575162732
1.6451821194653
1.642761478048
1.640719333222
1.6393046379238
1.6385225235604
1.6385081570125
1.6394107863615
1.6412715820688
1.6442330321609
1.6483000365232
1.6531859365528
1.6588357236252
1.6651203868781
1.6718688122337
1.6789260923267
1.6862038965509
1.693602715226
1.7010755293712
1.7085338405131
1.7158749769018
1.7231651055918
1.7303699540351
1.737523146032
1.744467303859
1.7511425407442
1.7574894488667
1.7634582466432
1.7690390247548
1.7742000964227
1.778515007575
1.7812715799621
1.7797751081562
1.7816374296951
5.4408464448192
8.0327585305554
12.982578837736
18.980032381824
24.620051775166
29.422642176715
33.17199475336
35.732512457186
37.191642848349
37.388923515995
36.435842798826
34.884300161693
32.642550116982
29.966053948507
27.056353068521
24.093664596487
21.231825260941
18.568798570982
16.161137062457
14.03247569843
12.180385490874
10.585812415526
9.2215519445401
8.0582081370286
7.0669426915905
6.2224589581798
5.5014482966001
4.88423201248
4.3543950884076
3.8968424033705
3.5006431349586
3.1567806035403
2.856897651591
2.5945951391048
2.3634976506854
2.1595627396069
1.979140300992
1.8189102664343
1.6759377428336
1.5479801458933
1.4333144992431
1.3301486758023
1.2370617810371
1.1527417139109
1.0763192519682
1.0068141907566
0.94347161438693
0.88555580934058
0.83252644797735
0.78388886750652
0.73917204409187
0.69797676214747
0.65994047270745
0.62479438829727
0.59225135842217
0.56206668488224
0.5340173278369
0.50790846463266
0.48358217373086
0.46087654384232
0.43965541655813
0.41979626208659
0.40118913961717
0.38374051746708
0.36735729700688
0.35195075145139
0.33744676419767
0.3235661461414
0.45636706574178
1.9788693148823
2.270451596425
2.2598947676295
2.2321749511193
2.2029761118326
2.1732331421261
2.1435521421322
2.1143522031471
2.0858745330965
2.0581685196875
2.0310278971998
2.0039252019762
1.9759621810027
1.9459548842939
1.912707218977
1.8803877985421
1.8410841913553
1.8019774284099
1.7667326434802
1.7380231010434
1.7164011091529
1.7007078093958
1.6893263010223
1.6808306142314
1.6742290156094
1.6689505336301
1.6647351835639
1.6614750982749
1.6590747100235
1.6573923288109
1.656243909547
1.6554164268356
1.6546628056259
1.6537640053661
1.6525586734805
1.6508671127198
1.6494500925484
1.6473103980604
1.6452626400729
1.6433237699348
1.6417837327662
1.6408691975116
1.6405421660343
1.6409905904383
1.6421932716854
1.6442557141351
1.6473089707663
1.6513128328493
1.6559455400316
1.6612109222281
1.6670081365109
1.6732014779285
1.6796945275741
1.6864224106797
1.6932783959933
1.7001690136865
1.7070010226773
1.7136769913999
1.7202500281965
1.7264706967317
1.732423055115
1.7380698926643
1.7433922394006
1.7483188814648
1.7526998720806
1.7565425277255
1.7596842280609
1.7619721236578
1.7628730535065
1.7601952297205
1.7592841836204
4.3496079771587
5.6977071107168
7.210681800264
10.195568117103
13.521229872089
16.692941567161
19.528316181575
21.845942553088
23.583189583531
24.660627057134
24.917331546025
24.604698358384
23.841183724179
22.600089356076
21.011566544569
19.246043612464
17.399767926297
15.574933803849
13.842287952824
12.242615391968
10.798544896297
9.5164882341279
8.3906586297983
7.4091052289043
6.556893239106
5.8184058440331
5.1791571946475
4.6252185040136
4.1442332243343
3.72574319536
3.3607921256013
3.0415289193191
2.7609784636838
2.5138333018055
2.295676237134
2.102462405609
1.9307862857246
1.7773203714225
1.6401416202196
1.5172377336182
1.4067117599718
1.3070678050345
1.2167984090515
1.1350411681952
1.0607496117411
0.99310282008309
0.931278717396
0.87469961006804
0.82286472242663
0.77524028106197
0.73141630713532
0.69097097973753
0.65361957427679
0.61907679908012
0.58706742137923
0.55735401872089
0.5297116670155
0.50397841231655
0.47998710649602
0.45758706657315
0.43664230417119
0.41702744476653
0.39864125813235
0.38139051733192
0.36518354418616
0.3499398593673
0.33557839077688
0.32200999359165
0.57317424448642
2.0675272669778
2.2677117767966
2.2523504828206
2.2252090238344
2.1967232379865
2.1676481535897
2.1385697125943
2.1099169693753
2.0819229003098
2.0546587556632
2.0279625493846
2.0013593361801
1.9740181352805
1.9448126871499
1.9125456312326
1.8811635072654
1.8426779732516
1.8038716800865
1.7683986412541
1.7390256962947
1.7166479410865
1.7003330714261
1.6885560151238
1.6798863773445
1.6732802552078
1.668103564866
1.6640249191121
1.660885195144
1.658561523891
1.6569021682547
1.6557215570317
1.6548085731354
1.6539390563165
1.6529458656138
1.6516844084586
1.6500509265703
1.6488187016737
1.6469833000787
1.6453261493991
1.64379348517
1.6426676896491
1.6421960441507
1.6423706428062
1.6431553142466
1.6446689076058
1.6469425586496
1.6501026001031
1.6540613409581
1.6584946037291
1.6634467998921
1.6688199704246
1.6744547905479
1.6803085791589
1.686300253499
1.6923295400019
1.6982170158764
1.7037522234367
1.7088291855848
1.7135610993121
1.717867399
1.7216194797215
1.7246267768725
1.7267951617031
1.7281487777902
1.7289008815342
1.7288728465648
1.7278423749946
1.725835702924
1.7225009261796
1.7172170274948
1.720186218104
3.5404362506947
4.6558424302273
5.0523365225616
6.4313865458914
8.4105091320596
10.489073256969
12.490485151327
14.291525511664
15.777209578794
16.898870044015
17.639971271871
17.891624071456
17.70470315954
17.203946627738
16.40133034496
15.38553267486
14.225871726409
13.002202128906
11.778505620568
10.599801682796
9.4958095793016
8.4844129062209
7.5723287866165
6.7586482492041
6.0376376199661
5.4017060408164
4.8425621427955
4.3517710815626
3.9208611043297
3.5421538368729
3.2088909346872
2.9150306975839
2.6553848816456
2.4253927058643
2.2209556725137
2.0387283697209
1.8761315489133
1.730621369182
1.6000746297268
1.4826770264493
1.376589829113
1.2806563814326
1.1937783223399
1.1148362537342
1.0429944673575
0.97730723729691
0.91725030965075
0.86224530233493
0.81173638296086
0.7652908468221
0.72243373429072
0.68288746626932
0.64633552973608
0.61248599164333
0.58109004795743
0.55189752474891
0.52474326767846
0.49944610052196
0.47584249052009
0.45378954165327
0.43315095041501
0.4138206397253
0.39569467394782
0.37866928476784
0.36266448096611
0.34760219692866
0.33341227819801
0.32080433991638
0.78375489656492
2.1393039255847
2.2631404199149
2.2436821137059
2.2171257369689
2.1894134065797
2.1611043789006
2.1327300561747
2.1047080599959
2.0772807260871
2.0505247089555
2.0243285167526
1.9982779861742
1.971617913179
1.9432918948637
1.9121177060406
1.8818187699368
1.8443518662013
1.8060039862552
1.7703323289182
1.7402873123081
1.7170365086641
1.69995711935
1.6876525178108
1.6787081515188
1.672034437932
1.6669268677564
1.6629824291305
1.6599789733583
1.657758859898
1.6561540978492
1.6549776477497
1.6540221200193
1.6530950033434
1.6520587074078
1.6507864654539
1.6492386381908
1.6482059782168
1.6466611863055
1.6453314002171
1.644143469735
1.643355226146
1.6432703868871
1.6437620651123
1.6448835612802
1.6466781541165
1.6491426777544
1.6523867707752
1.6563269957512
1.6606201136081
1.6653254579162
1.6703088552379
1.6753949355504
1.6804809570688
1.6854331431999
1.6899010332485
1.693775578559
1.6970318257991
1.6994132488878
1.7009190088294
1.7013542668879
1.7004076208313
1.6985891077517
1.6953540105599
1.6906527912302
1.6843839576366
1.6765026723671
1.6669585653344
1.656013437261
1.6435873841983
1.6314421014034
1.6350374569352
2.9175584916337
3.9319048323632
4.0823927162975
4.6127814538319
5.7549420788765
7.1341023026597
8.5425291848896
9.8900667632668
11.07727132826
12.05582546015
12.774613518468
13.247747664397
13.381007521925
13.267874875684
12.920294250403
12.355481459646
11.651523550917
10.845857969392
9.9950679934353
9.138751901311
8.3075701223721
7.5213764700865
6.7927587345878
6.1269006997819
5.5249172681463
4.9845650871529
4.5017147988631
4.0718635556072
3.6899528309937
3.3507034330398
3.0492412260494
2.7811977861864
2.542607250787
2.3298963904103
2.139841749594
1.9697072502604
1.8170913939803
1.679808997928
1.5560296060719
1.4443342517651
1.3432775175621
1.2516485655207
1.1683955287597
1.0924098357182
1.0230396290622
0.95966344305193
0.90159646448751
0.84832142460987
0.79926022483981
0.75403625685395
0.71234823638206
0.67381171602281
0.6381492424893
0.60506935995431
0.57432359969494
0.5457557687742
0.51915060141365