/*--------------------------------*- C++ -*----------------------------------*\
| =========                 |                                                 |
| \\      /  F ield         | OpenFOAM: The Open Source CFD Toolbox           |
|  \\    /   O peration     | Version:  2312                                  |
|   \\  /    A nd           | Website:  www.openfoam.com                      |
|    \\/     M anipulation  |                                                 |
\*---------------------------------------------------------------------------*/
FoamFile
{
    version     2.0;
    format      ascii;
    arch        "LSB;label=32;scalar=64";
    class       volScalarField;
    location    "0.00013";
    object      rhoHat;
}
// * * * * * * * * * * * * * * * * * * * * * * * * * * * * * * * * * * * * * //

dimensions      [1 -3 0 0 0 0 0];

internalField   nonuniform List<scalar> 
109340
(
661.22295109075
661.21813132837
661.20890953631
661.19765862138
661.18511269307
661.17190214846
661.15826907564
661.14430529721
661.13000804629
661.11474286977
661.09741205571
661.07680313659
661.05143752254
661.01952566168
660.97893752985
660.92715500383
660.86118518004
660.77744645943
660.6716019851
660.53833575033
660.37103474206
660.16139712218
659.89889472005
659.57004705151
659.15739023016
658.63802956755
657.98150495581
657.14655901752
656.07602983621
654.68840035524
652.86307024107
650.41304830421
647.03098251093
642.17656861886
634.83036975168
622.93068493004
661.22367075094
661.21748480595
661.2071276783
661.19509768598
661.18216104339
661.16887345652
661.15539473696
661.14166537281
661.12729713165
661.11161521117
661.09361770523
661.0720354253
661.04530984146
661.01156589704
660.96857865658
660.91371222159
660.84384378177
660.75522341367
660.64329536709
660.50245422653
660.32571237079
660.10427380366
659.82695697817
659.47940705279
659.04297630381
658.49313465623
657.79711679584
656.91031963636
655.77054613109
654.28836015674
652.32998087751
649.68483179002
645.99895917539
640.62975917937
632.29154864102
618.24166836238
661.22635032165
661.21920461156
661.2078154224
661.19550543289
661.18268128251
661.16958723686
661.15618682886
661.14243510597
661.12805368708
661.11238319301
661.09443503712
661.07293455917
661.04631632288
661.01270075983
660.96986143939
660.91516757863
660.84549594638
660.75710093273
660.64543023699
660.5048838988
660.32847545467
660.10740954421
659.83050509626
659.48340380526
659.04745375337
658.49811579896
657.80261205269
656.91632638968
655.77705426623
654.29534281582
652.33733602329
649.6919495563
646.00139492372
640.60201123583
632.10416128046
617.19384410754
661.23007047345
661.22148078439
661.20953714658
661.19689664378
661.18383802415
661.17048142831
661.15686522938
661.14297387414
661.12852215823
661.11284810927
661.09496344276
661.07358656582
661.0471425942
661.01374376187
660.97115372872
660.91673053229
660.84734035068
660.7592246221
660.64780978576
660.50747256157
660.33117590303
660.11006002734
659.83285023313
659.48505076624
659.04782269713
658.49635402692
657.79748155491
656.90604001159
655.75903559808
654.26584323894
652.29075786504
649.61948959862
645.88503833303
640.38894853906
631.5734518141
615.06181504903
661.23591449687
661.22479298222
661.21113320951
661.19764288713
661.18423541955
661.17075143835
661.15709598664
661.143230725
661.12885453647
661.11329979387
661.09558438141
661.07441669244
661.04819501529
661.0149903752
660.97250497717
660.91800780057
660.84824264571
660.75928503072
660.64627232052
660.50329659543
660.32282578452
660.09535432739
659.80871516482
659.44715582553
658.99011877119
658.4103774394
657.67139708385
656.72326250083
655.49620605949
653.88974109627
651.75315012749
648.84947462852
644.76882616749
638.71630513965
628.80371670979
608.48669936974
661.24673501479
661.2265120048
661.2114424088
661.1976391062
661.18418290632
661.17069616038
661.15704490746
661.14310207905
661.12839227864
661.1119726897
661.09248130906
661.06812628065
661.03667008312
660.99538594621
660.94098407106
660.86950121163
660.7761442105
660.65512079071
660.49948757816
660.29962544475
660.04364473653
659.71626773195
659.29768972669
658.76205947909
658.07537950048
657.19250353843
656.05278767285
654.57350362793
652.63942441932
650.08539364061
646.66449965424
641.99510829499
635.41459793642
625.64371583282
609.57501228901
574.42566320463
602.70519327525
569.53064554904
520.41472221864
457.16259547394
385.88448427198
311.90682771886
240.74201669847
177.10067493787
124.10622842955
82.987384318068
52.706073253391
32.808118264465
19.960107308464
11.988608776113
7.2277625302225
4.3908774279902
2.7088444254213
1.7020395870328
1.0903295020654
0.71452127498681
0.47924371603607
0.3280663988804
0.22908737999867
0.16322763944022
0.1183815148
0.087024084444752
0.065150690970611
0.049707056598384
0.037911570575724
0.029741693955707
0.0232832826465
0.018582619903364
0.014901649467233
0.012068791071666
0.0098702752188196
0.0081122785236234
0.0067372114741908
0.0056179651097945
0.0047212964330485
0.0039929639791445
0.003386927355836
0.0029017011218624
0.0024810081202862
0.0021494901194896
0.0018528458349372
0.0016196078785065
0.0014088115779727
0.0012394623982732
0.0010892106023405
0.00096238537885263
0.00085268506660652
0.00075719178072697
0.00067481211019826
0.00060300151068704
0.0005402968157574
0.00048529853354828
0.00043694265192107
0.00039429746255371
0.00035660829681727
0.00032320747900716
0.00029352998459137
0.00026709291967464
0.00024348965047555
0.00022236966378147
0.00020343207968671
0.00018641529466984
0.00017109423571371
0.00015726230280655
0.00014915795612475
0.001793936722803
0.0070640391163734
0.0074391082918526
0.0072531762129988
0.0070479749238501
0.0068437855099766
0.0066446412897276
0.0064522939385538
0.0062675972252033
0.0060905479869144
0.00591970820587
0.0057516936314546
0.0055808311278831
0.0054000349116192
0.0052030153262717
0.0049606846041954
0.0047384882235777
0.0045292110653443
0.0043503022557438
0.0042125133037212
0.0041124954351663
0.0040408984025584
0.003988291476352
0.0039474942891475
0.0039144981035588
0.0038872576799265
0.0038652895012605
0.0038484757777004
0.0038364619138014
0.0038286243991792
0.0038241389603479
0.0038222266144641
0.0038214739778542
0.003820057067911
0.0038166746489965
0.0038115284198752
0.0038005758688715
0.0037863009235428
0.0037703391482833
0.0037528886000853
0.003735853059718
0.0037211412060536
0.0037103430224892
0.0037048824156249
0.003704948238441
0.0037103927383622
0.0037222502688303
0.0037411864879027
0.0037675791983689
0.0038009812520789
0.003838376012234
0.0038773041882321
0.0039167686150876
0.0039568715929805
0.003996663447458
0.0040352554366925
0.0040733082947717
0.0041109870453482
0.0041479193823453
0.004184449556965
0.0042209738586232
0.0042575954369246
0.0042946234389998
0.0043317245768553
0.0043682984553985
0.0044034775384227
0.0044361612049082
0.004464696458113
0.0044871297545106
0.0044901913295359
0.0045627655020555
592.99468890129
551.04117037543
491.6413665074
420.61114630555
344.65056881194
270.56266676495
203.12516282459
145.96528385679
100.59024375929
66.648495360813
42.618245182772
26.444845591672
16.291937733456
9.9543116344107
6.0774240585009
3.7438589051326
2.3366059269951
1.483651971693
0.96115489093296
0.635790964333
0.42947589758511
0.29620820331727
0.20832530906614
0.14920233477247
0.10873735387436
0.080538389949849
0.060518738084366
0.046128667603215
0.035610331683949
0.027800716505178
0.021956987204
0.017506604316425
0.014100705620794
0.011446290793628
0.0093746657974338
0.0077301407201893
0.0064236450286943
0.0053695580131166
0.004519473218819
0.0038234195278855
0.0032546836496985
0.0027830991135815
0.0023930497990949
0.0020660610054251
0.0017924479654221
0.0015609804333498
0.0013649299496279
0.0011979129952019
0.0010549651982644
0.00093235479823972
0.00082650268792128
0.0007349222671772
0.00065527813075361
0.00058593683539176
0.00052529099598997
0.00047209597979925
0.00042529215158194
0.00038400106215319
0.0003474737724205
0.00031507908305883
0.00028627841828982
0.00026061185926385
0.00023768402430036
0.00021715555380986
0.00019873548670435
0.00018217649331137
0.00016726511389259
0.00015381343505005
0.00016699065375153
0.0037387588015889
0.0073354588597039
0.0073975724814916
0.0071995647489986
0.0069925536226849
0.0067886134971245
0.0065902012614387
0.0063992215908151
0.0062162930932126
0.0060409469972975
0.0058711842106027
0.0057029830692117
0.0055301850842728
0.0053456685502864
0.0051439691070363
0.0049531698970382
0.0047303051728356
0.0045212056756494
0.004342632066356
0.0042052895922846
0.0041058822566442
0.0040350738106636
0.003983366040063
0.0039434894207464
0.0039113377939537
0.0038848106075076
0.00386342222804
0.0038470799889228
0.003835474731021
0.0038279436915132
0.0038236813809156
0.0038218813141164
0.0038212415321965
0.0038198788324859
0.0038164049624689
0.0038111686403728
0.0038004896901478
0.0037862671245688
0.0037703515624607
0.003752986277787
0.00373610320399
0.0037217052083633
0.0037111779620955
0.0037057519406483
0.0037057474260545
0.0037113956214836
0.0037234356438112
0.0037426817624067
0.0037692349874667
0.0038023701786782
0.003839390207119
0.0038781212721728
0.0039175654219454
0.0039574807727683
0.0039970604395396
0.0040356823010987
0.0040737986048791
0.0041114971194061
0.0041485047060896
0.0041851069286085
0.0042216929618715
0.0042583768997952
0.0042955009464249
0.0043326453163937
0.0043692456835345
0.0044044079028194
0.0044370062209154
0.0044652236125282
0.004486689890802
0.0044883231912767
0.0045594814556462
587.73567179205
535.3316984429
464.46679617493
384.24763479737
303.8192324904
230.83442261382
169.16113656731
119.80714797468
82.221429347293
54.520638792833
35.620630098902
22.707603112267
14.260427043889
8.8932877700621
5.5358864443238
3.4626318429707
2.1895617988627
1.4066119430304
0.91983482910544
0.61261288569127
0.4160915021493
0.28832940560131
0.20352786799647
0.14620850424067
0.10683915508802
0.079297307961593
0.059704229393104
0.045564013249755
0.035225688290561
0.027536437103421
0.021761021775458
0.017371309003036
0.013993704983791
0.011373411586135
0.0093151324066114
0.0076889950476606
0.0063891667632312
0.005345705725281
0.0044988371381312
0.0038090723586384
0.0032421673798655
0.0027741218348356
0.0023851819694967
0.0020601347974276
0.0017874396052324
0.0015568434007556
0.0013616779388941
0.0011950266140561
0.0010527823844718
0.00093032357709344
0.00082490013061498
0.0007335430055504
0.00065416983599986
0.00058495716180251
0.00052442453330037
0.00047134397791226
0.00042464150258648
0.00038343801791385
0.00034698132348721
0.00031464685472737
0.00028589842328902
0.00026027712223475
0.00023738767862902
0.00021689234467437
0.00019850229522256
0.00018197058333325
0.00016708172008517
0.00015365124538053
0.0001686867829151
0.0038280416601388
0.0073380586447724
0.0073915897956947
0.007194416183256
0.0069884969478311
0.0067850896371988
0.0065871975276255
0.006396578235178
0.0062140118163105
0.0060390090672366
0.0058695895569478
0.0057017628094669
0.0055294044356391
0.0053454020112744
0.0051442035605946
0.0049531819402522
0.0047309725058249
0.0045215027021821
0.0043428263601903
0.0042052108669075
0.0041055762009663
0.0040345714163741
0.0039827735006319
0.0039430085160594
0.003910971021962
0.0038845903252407
0.0038633215267232
0.0038470509133139
0.0038354730204644
0.0038279660390739
0.0038237015145464
0.0038217892265238
0.0038210747971847
0.0038195492821027
0.0038158536013959
0.0038103681453268
0.0038002009447198
0.0037861086768514
0.0037703453327886
0.0037531725771145
0.0037366968948298
0.0037230386271152
0.003713248121787
0.0037080281632447
0.0037078520037592
0.0037138159045147
0.0037261409183478
0.0037455652292377
0.0037719499281492
0.0038043216252333
0.0038406242341327
0.0038788630703481
0.00391793143882
0.0039574371362192
0.0039966788807051
0.0040352645766097
0.0040733310010215
0.0041109454697048
0.0041479660173072
0.0041845906843641
0.0042211479010201
0.0042578161332572
0.0042949407037602
0.0043319722524673
0.0043684583899168
0.0044034725165785
0.0044358735669843
0.0044636245205785
0.0044831067526592
0.0044860135990497
0.004556954527198
576.06440920966
500.56193228625
408.25402819222
315.69149580041
236.88075545911
172.7970681617
123.95821138661
87.448638715018
60.574843514301
41.070265184842
27.790294545574
18.349059221152
11.900312029122
7.6379204154552
4.8704038416135
3.1140603085714
2.0058284097073
1.3068440556144
0.86450980018002
0.58195403090796
0.39855752473666
0.27762592994198
0.19700204838563
0.14219338035216
0.10423751407205
0.077571289083627
0.058565902030926
0.044792807750077
0.034674862267196
0.027157883622524
0.021488099250031
0.017172092342537
0.013846825936816
0.01126366959645
0.0092331034599011
0.0076263500273899
0.0063417749411214
0.0053086898446106
0.0044703345341031
0.0037868875212723
0.0032244845988056
0.0027603185410994
0.0023739183081457
0.0020514130600808
0.0017800145100366
0.0015510779263683
0.0013567167459693
0.0011910978402413
0.0010493816787626
0.00092752408467311
0.00082252054544885
0.00073152897266804
0.00065250510160497
0.00058352583684507
0.00052320182793542
0.00047027847090853
0.0004237154239991
0.00038263114950676
0.00034628011963878
0.00031403689954895
0.00028536406710283
0.00025980548680921
0.00023697002485662
0.00021652323447285
0.00019817649405129
0.00018168224419784
0.00016682533335183
0.00015342346449332
0.00017150307895425
0.0039556176255204
0.0073398710266979
0.0073828439176187
0.0071870512168219
0.0069825792409937
0.0067800590786651
0.0065828737911451
0.0063927918531164
0.0062107317826059
0.006036212680077
0.0058672789644687
0.0056999885463584
0.0055282625506983
0.00534501052241
0.0051446040794596
0.0049541902746615
0.0047324511959457
0.0045228968898074
0.0043438770681345
0.0042057890786786
0.0041057215875264
0.0040344228981717
0.0039824950925238
0.0039427475580025
0.0039107890444903
0.0038845212393448
0.003863350167612
0.0038471360105223
0.0038355669420662
0.0038280199762726
0.0038236609314697
0.0038215891724103
0.0038206591298298
0.0038188658837817
0.0038149387209023
0.003809336534222
0.0037995539651678
0.0037856865870081
0.00377026092129
0.0037535723225806
0.003737795413026
0.0037250296946056
0.0037160071194606
0.0037112393691949
0.0037114290805924
0.0037177386837448
0.0037303269195403
0.0037497185068283
0.003775786238321
0.0038072691401771
0.0038426870116741
0.0038802943289422
0.0039188470810301
0.0039578385439243
0.0039967680047892
0.0040352549751412
0.0040732574604132
0.004110806533145
0.0041477607308584
0.0041843913797215
0.0042209955778323
0.0042576891024046
0.0042948069593585
0.0043316777763733
0.0043679357708424
0.0044026782464253
0.0044348065907742
0.0044623164567226
0.0044816948298121
0.0044844583616965
0.0045509933601837
537.82194143677
408.10206820603
289.89255365476
204.17900405847
146.94357522047
106.49268670046
77.7905517875
56.675085286358
41.009713347089
29.345267651024
20.55544227915
14.105403535271
9.5055107741269
6.3161980115563
4.1601003569995
2.7289215203739
1.7958444123701
1.1919090143246
0.80017935052264
0.54471543258254
0.37671854277979
0.26489664787992
0.18903279797417
0.13709425676651
0.10098269920743
0.075456848844044
0.057121690191666
0.043805541175682
0.033992946594991
0.026670971089119
0.021140948672467
0.016918286356644
0.013661050052515
0.011122570475455
0.0091286410372433
0.0075458302426452
0.0062806181776893
0.0052608662848195
0.004433845188627
0.0037576025071975
0.003201793597023
0.0027420031978103
0.0023594750196019
0.0020395677692122
0.0017704773266818
0.001543285741995
0.0013502542366428
0.0011858093811878
0.0010448918793464
0.00092385084504509
0.00081936196381038
0.00072887232721408
0.00065022687701677
0.00058161174637217
0.00052157761614213
0.00046887016412189
0.00042249187638288
0.00038156487019969
0.00034535531860019
0.00031323045945081
0.00028465671663386
0.00025918256644458
0.00023642115027367
0.00021603902973943
0.00019774839305858
0.00018130274774097
0.00016648950733894
0.00015312616566804
0.00017555379266943
0.0041175587604816
0.0073406673951668
0.0073715395294691
0.0071776129779266
0.0069748725605456
0.0067735287832114
0.0065772401399218
0.0063878709056544
0.0062064592311271
0.0060325687027296
0.0058642683170915
0.0056976666766215
0.0055267582650245
0.0053444871398134
0.0051451566735476
0.0049556494035277
0.0047344719604265
0.0045249750785861
0.0043455387189049
0.0042067682669471
0.0041060496378005
0.0040343014856716
0.0039821490864942
0.0039423781429815
0.0039105240009933
0.0038844061684722
0.0038633624003801
0.0038472184690572
0.0038356611306249
0.0038280681670806
0.0038235956389994
0.003821306746236
0.0038201218447664
0.0038180264820495
0.0038138436083934
0.0038080047110081
0.0037986648327109
0.0037852164841596
0.0037702774900441
0.0037542367309402
0.0037393334640488
0.0037275781037356
0.0037194578060002
0.0037153362997311
0.0037160064969188
0.0037225816152129
0.0037354102895331
0.0037547851976389
0.003780386556105
0.0038108837088691
0.0038452335604238
0.0038820008463978
0.0039198571180663
0.0039582340233359
0.0039967142243815
0.004034948759577
0.004072777868477
0.0041101702514339
0.0041470291578181
0.0041836682472232
0.0042203159369123
0.0042569918352451
0.0042940025575784
0.0043305739055643
0.0043664181395646
0.0044006970114361
0.0044323989641413
0.0044594304710863
0.0044783067992527
0.0044795332831329
0.0045390520779849
303.76666583149
159.00240738441
111.83505572732
87.035083888928
69.046871366133
54.966981142885
43.453887169945
34.123686554197
26.212563373019
19.766530042234
14.529118103362
10.447501695611
7.3486299245145
5.0718630227702
3.4553696896873
2.3362795094606
1.5767059291113
1.0679579083702
0.72923882615254
0.50349716018041
0.3521618585731
0.24976112434747
0.17984329521658
0.13125053397592
0.09715395194957
0.072907602817396
0.055436561250667
0.042636131895269
0.033171508239338
0.026088420090336
0.020725584541819
0.016612624889977
0.013435862814949
0.010955665691402
0.0090014224354467
0.0074488730691677
0.0062065525668396
0.0052037296357901
0.0043888734996573
0.0037223378530609
0.0031740571835588
0.0027197316578937
0.0023416478064688
0.0020250716003469
0.0017588334940231
0.001533616033881
0.0013423364779405
0.0011792012582875
0.0010394262532328
0.00091925842840235
0.00081545624270829
0.00072557000899576
0.00064739720278018
0.0005792193600106
0.00051952686010792
0.00046711317611936
0.00042097509270567
0.00038024905355472
0.00034420734841384
0.00031222396562913
0.00028377552973796
0.00025841097096552
0.00023574301361856
0.00021543951437597
0.00019721716733895
0.00018083173734029
0.00016607263537372
0.00015275818118687
0.00018187344875853
0.0043124867525732
0.007341498815379
0.0073582297728145
0.0071663192772951
0.0069654599926596
0.0067655093309766
0.0065702952486726
0.0063818129591717
0.0062011899478178
0.0060280600674427
0.0058605274185757
0.0056947679486967
0.0055248596391728
0.0053437970135015
0.0051458126886945
0.0049574530799348
0.0047369940686013
0.0045276210220568
0.0043476233473607
0.004207988894299
0.0041064593903037
0.0040341458504864
0.0039817124329498
0.0039419034607777
0.0039101663224146
0.0038842231321075
0.0038633315418397
0.0038472758161272
0.0038357314975275
0.003828077363673
0.0038234649800359
0.0038209410830294
0.0038194278849808
0.0038170017992309
0.0038126694927134
0.0038065556226432
0.0037976350089335
0.0037846323709885
0.0037703004553515
0.0037551107413247
0.0037412648511483
0.0037305910821481
0.0037234260772192
0.0037200305072356
0.0037214252259761
0.0037282966544785
0.0037413318645421
0.0037606780260155
0.0037856577667315
0.0038151772309012
0.0038484211854621
0.0038842171780409
0.0039212053119309
0.0039587693615122
0.0039967450274363
0.004034651329583
0.0040722341946913
0.0041094115506575
0.0041461269606331
0.0041826883680562
0.0042192559926222
0.0042557508047858
0.0042924401772617
0.0043285087263247
0.0043637067186975
0.0043972870892761
0.0044283586549363
0.004454669362818
0.0044727532712185
0.0044719116164254
0.0045224269694295
0.3483795024764
16.142269839883
24.389869628049
27.947582346349
28.510374741533
26.878548356307
23.850121719983
20.38893257368
16.887820256094
13.590576168662
10.637787814658
8.0913977333984
5.9923946546946
4.3317484205346
3.0706013576879
2.1476433667909
1.4902883926508
1.0322849039848
0.71728074514955
0.5018898731408
0.35459388702103
0.25343740044818
0.18338586048678
0.13452109908238
0.099896334012008
0.075072292060714
0.057146116104534
0.044016563825322
0.034270385808851
0.026947319141003
0.021406879886404
0.017164526910893
0.013878100727516
0.011310665673137
0.0092901964825853
0.0076857996087614
0.0064000632164967
0.0053636141372893
0.0045218473753086
0.0038334016808566
0.003266731764507
0.0027978976474137
0.0024078237057916
0.0020812518408841
0.0018066079035783
0.0015745021024256
0.0013775138246028
0.0012094870057061
0.0010655945482284
0.00094192167944773
0.00083520021166339
0.00074280341478805
0.00066246312110729
0.00059242380463187
0.00053116117969787
0.00047741409395585
0.00043010226476337
0.00038833822054773
0.0003513941421141
0.0003186312844064
0.00028950348219969
0.0002635399493261
0.00024034570325626
0.00021958242135389
0.00020095582072416
0.00018421303907812
0.00016913107962863
0.00015551872653008
0.00015199489049339
0.002664404703782
0.0071682588428006
0.0073836466539072
0.0072023560319261
0.0070042871301839
0.0068053189777357
0.0066099829526012
0.0064207806261414
0.0062391161903381
0.0060651170195856
0.0058973478068802
0.0057325777699444
0.0055654599625978
0.0053891921906439
0.0051973461064139
0.0049595156110787
0.0047399767300658
0.0045307313980041
0.004350129933693
0.0042094577822704
0.0041069352029364
0.004033916336325
0.0039811166187098
0.0039412340857061
0.0039096204967548
0.0038838818743194
0.003863178591254
0.0038472423279348
0.003835731505849
0.0038280215776341
0.0038232596010119
0.0038204784975686
0.0038185656822991
0.0038157377224428
0.003811098688413
0.0038038287660076
0.0037956947906499
0.0037833905179168
0.0037702442079743
0.0037567652834229
0.0037448799990341
0.0037360519728569
0.0037304826636271
0.0037283764827027
0.0037310306211709
0.0037384955254109
0.0037516912752649
0.0037707477201752
0.0037945629487657
0.0038224924016952
0.0038538893749072
0.0038878333199623
0.0039232017531674
0.0039594724462964
0.0039962696175098
0.0040332452636018
0.004070125732561
0.0041066557352081
0.0041429172237042
0.0041790813482108
0.0042152622828342
0.0042511043090578
0.0042867913115054
0.004321637221788
0.0043552610513364
0.0043868926000583
0.004416361241024
0.0044410983855305
0.0044577670407964
0.004453655908669
0.0044874035668865
0.068812833055657
0.49482668411673
1.5774082933605
2.9403218666748
4.2636943704031
5.2774608259485
5.8529663848544
6.0013840489755
5.6751203391123
5.131584870147
4.4555697122359
3.7165259669938
2.9947628022965
2.3375159968505
1.7758517560398
1.3217364457108
0.96961988219012
0.70507887026697
0.51112272189747
0.37104124928061
0.27060783392713
0.19877480670042
0.1472830573583
0.11016498829389
0.083252953792784
0.063596220814209
0.049072243399416
0.038211772322073
0.030056475318935
0.023864208167292
0.019117469593801
0.015434241631427
0.012561712187741
0.010301322247984
0.0085077825947044
0.0070709481862563
0.0059146094265552
0.0049770045648665
0.0042116950601712
0.0035823452718935
0.0030623916537245
0.0026305501468886
0.0022698368697622
0.0019668497435088
0.0017111345372129
0.0014945081062114
0.0013100716919977
0.0011523799625163
0.0010169716619406
0.00090036060434229
0.00079953497113405
0.00071203754569582
0.00063584795803917
0.00056929964764252
0.00051101974839196
0.00045981270065021
0.00041468860521943
0.00037480317501759
0.0003394629504242
0.00030808156893869
0.00028014789224551
0.00025522601832972
0.00023294035221816
0.00021297180378271
0.00019504180559204
0.000178912510719
0.00016437520017604
0.00015112732143319
0.00022797857889145
0.0050482261802842
0.0073499827504744
0.007309666175189
0.0071223285019602
0.0069274958869592
0.0067326835643455
0.0065416724453917
0.0063568612378639
0.0061794286848404
0.0060093131237169
0.0058448084431766
0.0056823744887877
0.0055164458702324
0.0053402502961433
0.0051477953324019
0.0049641860108334
0.0047471004256783
0.0045382536768921
0.0043563090546943
0.0042130860585894
0.0041080494923049
0.0040331969266809
0.0039793968827553
0.0039392420458619
0.0039078631640908
0.0038825968624778
0.0038623633474999
0.0038467568780585
0.0038353798605759
0.0038275855915695
0.0038225205815319
0.0038192016356364
0.0038164725528094
0.0038129504980362
0.0038078429911426
0.0038001259780893
0.0037927570923435
0.0037816737619749
0.0037703574150605
0.0037592999354918
0.0037499827588132
0.0037435357798041
0.0037399814067069
0.0037399207076037
0.0037440468405034
0.0037525486765742
0.0037661000313023
0.0037847527382238
0.0038072240340699
0.0038332842064628
0.003862372174168
0.0038937213955426
0.0039266294736418
0.0039606923669353
0.0039954517010543
0.0040306870884554
0.0040659843170539
0.0041008507058595
0.0041355904879541
0.0041700352935099
0.0042043477285152
0.0042377601455932
0.0042699685665939
0.0043006563259091
0.0043295634201148
0.004356620716035
0.0043816500696925
0.0044025101644538
0.004415589523963
0.004407375231064
0.004415191811987
0.043437139438375
0.095414288989268
0.24952706307794
0.53371507488444
0.89847295302333
1.2835870533059
1.6317833731722
1.8933461768445
2.0507200794789
2.0717817473075
1.9666062660874
1.8016178205823
1.5763794783031
1.3274043929456
1.0811569125608
0.85651531973074
0.66444332503475
0.507676299529
0.38413907426848
0.28929079185766
0.21772651781133
0.16427334189052
0.12452774988504
0.09499205260181
0.072986029640655
0.05653032693823
0.04414768385899
0.034766287798406
0.027608837474519
0.022093221347456
0.017814915086795
0.014475898098286
0.01184751843095
0.009764963576441
0.0080974263089608
0.0067559210981809
0.0056706462391216
0.0047867263338284
0.0040614176226439
0.0034629625415279
0.0029673108125727
0.0025541824460495
0.0022080706241476
0.0019163734156895
0.0016699010912866
0.0014605145894608
0.0012819466756127
0.0011288977639691
0.00099732130221886
0.000883830693445
0.0007855567914713
0.0007001635742927
0.00062569514818012
0.00056061874100033
0.00050355786790945
0.00045337855794803
0.00040911694164114
0.00036996686138269
0.00033526718813864
0.00030442583721185
0.0002769505797498
0.00025241934187387
0.00023047027291995
0.00021079764308329
0.00019312762836143
0.00017721897050649
0.00016286911892949
0.00014970557858629
0.00029701816924749
0.005581071048079
0.0073429177499427
0.0072680767912625
0.0070844343476928
0.0068942400780601
0.006703565403547
0.0065161851992848
0.0063345562133343
0.0061599439190414
0.005992398422646
0.0058304475151458
0.0056708098073428
0.0055082422838884
0.0053362016425071
0.0051485705139169
0.0049692324893917
0.0047554548837874
0.0045474037078532
0.0043640221032808
0.0042176795969722
0.0041094313932406
0.0040321196330451
0.0039768748248421
0.0039361962103137
0.0039049558480311
0.0038801989654658
0.0038605453750884
0.0038453994836913
0.0038342693521822
0.0038264757538513
0.0038211584638821
0.0038173338569529
0.0038138661245337
0.0038097376014856
0.0038042009928736
0.0037964796302761
0.0037899886968378
0.0037801814104441
0.0037707958474831
0.0037619211323687
0.0037548791162976
0.0037507042268787
0.0037492157364256
0.0037512725567324
0.0037567808252965
0.0037662329054051
0.0037802432937539
0.0037986538065127
0.0038200062934037
0.0038443311006604
0.0038711858433644
0.003899958090579
0.0039302034738089
0.0039616288720354
0.0039937405217987
0.0040260954684366
0.004058250038024
0.0040897317079125
0.0041207881594991
0.0041502074538502
0.0041783793039409
0.0042051035232196
0.0042302677464634
0.0042535040569416
0.004274065415975
0.0042919691495302
0.0043063988171956
0.0043165838100678
0.0043198450690662
0.0043053310816263
0.0042986741065247
0.027640116627702
0.04781932221977
0.076684455220667
0.15343165843141
0.27000737093315
0.41171067285777
0.56361883562624
0.70543840857874
0.82209704963909
0.89879594226736
0.91735808051399
0.89422772507759
0.83903796714434
0.75352803089256
0.65086224874847
0.54565252285525
0.4456009098922
0.35671264644473
0.28149553863406
0.21997873222684
0.17097649313389
0.13265815838144
0.10302706407576
0.080255821184812
0.06279664971069
0.049403160765285
0.039109593679759
0.031164508880712
0.024999260701508
0.020189264377557
0.016415201889276
0.013434664558974
0.01106266610013
0.0091645117485721
0.007637844266827
0.0064022022830454
0.0053960290522408
0.0045696152969872
0.0038892162881861
0.003326336074928
0.0028578308065883
0.0024660256198092
0.0021360960780983
0.001857785161741
0.0016217842244932
0.0014208792474926
0.0012489217882867
0.0011013025406535
0.00097423481297831
0.00086437567126962
0.00076910757450988
0.00068613582169719
0.00061373057929215
0.0005503740719256
0.00049475503793006
0.00044578504406578
0.00040252691651799
0.00036424687530501
0.00033028629479354
0.00030008321168573
0.00027315659857802
0.00024909113876104
0.00022754392808005
0.00020821647766256
0.00019084247270046
0.00017519405726241
0.00016106580555925
0.0001482628512588
0.00046808076437321
0.0060926164640169
0.0073244889263373
0.0072189142742278
0.0070396356057816
0.0068545817679153
0.00666866566133
0.006485535627371
0.0063077169364365
0.0061364356024129
0.0059718874479739
0.0058128737840066
0.0056564265799581
0.0054976835514553
0.0053303976959547
0.0051483796740397
0.004974199790762
0.0047647385433609
0.0045580839541084
0.0043732974964332
0.0042234151109932
0.0041112770040821
0.0040308209632125
0.0039735835563923
0.0039320119562469
0.0039007106830595
0.0038764157387323
0.0038574031139653
0.0038428310674783
0.003832076149811
0.0038244096331417
0.0038189625449552
0.0038147577279564
0.0038107617298602
0.0038061961751041
0.0038003908681414
0.0037929250932405
0.0037872635939507
0.0037788242393553
0.0037712017761538
0.0037641617492892
0.003758986441073
0.0037568177132328
0.0037576069001604
0.0037611972065801
0.0037681383930088
0.0037785801151959
0.0037931120915013
0.0038113524188059
0.0038318191314395
0.0038547216441871
0.0038796193014452
0.0039057688505899
0.0039329642941734
0.003960824754156
0.0039888730029651
0.0040162555853454