/*--------------------------------*- C++ -*----------------------------------*\
| =========                 |                                                 |
| \\      /  F ield         | OpenFOAM: The Open Source CFD Toolbox           |
|  \\    /   O peration     | Version:  2312                                  |
|   \\  /    A nd           | Website:  www.openfoam.com                      |
|    \\/     M anipulation  |                                                 |
\*---------------------------------------------------------------------------*/
FoamFile
{
    version     2.0;
    format      ascii;
    arch        "LSB;label=32;scalar=64";
    class       volScalarField;
    location    "0.00013";
    object      T;
}
// * * * * * * * * * * * * * * * * * * * * * * * * * * * * * * * * * * * * * //

dimensions      [0 0 0 1 0 0 0];

internalField   nonuniform List<scalar> 
109340
(
372.99991004945
372.99864776886
372.99643275878
372.993610448
372.9905902519
372.98756731142
372.9846138033
372.9817659209
372.97898484055
372.97619197686
372.97339385275
372.9705934895
372.96778779044
372.96496910311
372.96212695028
372.95924793998
372.95631497656
372.95330675526
372.95019635572
372.94695007274
372.94352587822
372.93987249204
372.93592638687
372.93160700551
372.9268112654
372.9214053045
372.91521299802
372.90799903283
372.89944251033
372.8890944933
372.8763060407
372.86009937846
372.83892544915
372.81018936894
372.7692393746
372.70731559957
372.99970834986
372.99803259276
372.99547714875
372.99259831181
372.98964414576
372.98671117973
372.98382012529
372.98096076152
372.97812767078
372.97530912287
372.97249736499
372.96968770869
372.9668736508
372.96404631247
372.96119409735
372.95830270278
372.95535456494
372.95232706265
372.94919159369
372.94591259044
372.9424461022
372.9387382108
372.93472192107
372.93031189303
372.92539846212
372.91983863821
372.91344363623
372.90596001889
372.89704014614
372.88619404835
372.87270643991
372.85548416229
372.83275813326
372.8014763246
372.75588192095
372.6845184461
372.9997479559
372.99776619767
372.99511338107
372.9922835293
372.9893850573
372.98647140677
372.98355492689
372.98065287411
372.97777863526
372.97492934141
372.97209633451
372.96927225686
372.96644906185
372.96361715023
372.9607649257
372.9578781919
372.95493942611
372.9519262506
372.94881022271
372.94555617458
372.94212013937
372.93844872948
372.93447547714
372.93011518199
372.92525812949
372.91976110271
372.91343525934
372.90602709002
372.89718884879
372.88643025304
372.87303519119
372.85590624336
372.8332473561
372.801890893
372.75561027903
372.68073658717
372.99970896037
372.9974085858
372.9946237683
372.99170116748
372.98873823137
372.98576192675
372.9827886339
372.97983362645
372.9769088203
372.97401838147
372.97115854407
372.96832280875
372.96550273381
372.96268886397
372.9598714933
372.95703694254
372.95416850947
372.95124452086
372.94823714734
372.94511269599
372.94182763703
372.938328718
372.93454848865
372.93040046227
372.92577290617
372.92052024308
372.91445067902
372.90730704529
372.89873690319
372.88824317377
372.87509924625
372.85819023236
372.83566176657
372.80415567205
372.75666711847
372.67538015081
372.99949532251
372.99643970165
372.99302275738
372.9896793446
372.98641403824
372.98322422919
372.98012143707
372.97713374664
372.97428087528
372.97155766174
372.96896727752
372.96650925861
372.96417620494
372.96195930125
372.95984878916
372.95783239255
372.95589462732
372.95401530603
372.9521642003
372.95031083191
372.94837701689
372.94628609395
372.94395274474
372.94127386268
372.93812243005
372.9343337539
372.92969296322
372.92391357257
372.91660267804
372.90720670192
372.89491412986
372.8784934388
372.85585565873
372.82314807754
372.7717889018
372.67534551905
373.00336092663
373.0175810221
373.03289357677
373.04809061768
373.0627404283
373.07660572531
373.0895593933
373.10154720617
373.11255858747
373.12260261286
373.13170235872
373.13988448968
373.14717501631
373.15359775023
373.15917148476
373.16390926622
373.1678181374
373.17090227217
373.17321202355
373.17486433695
373.17584989237
373.17611675463
373.17558750271
373.17413793895
373.17164565484
373.16789146179
373.16258771175
373.1553394247
373.14559196227
373.13254919982
373.11502382846
373.09121049049
373.05798257292
373.00949691263
372.93221171165
372.77603656472
372.60904341385
372.4542170404
372.21724012769
371.87823331963
371.4271394364
370.85297202043
370.14112904659
369.27871879002
368.25481450053
367.06389098733
365.70295688147
364.19324939685
362.57256403614
360.87028995854
359.12553475268
357.37354961808
355.64331588964
353.95674508663
352.32796910209
350.766751714
349.27825645067
347.86298466349
346.51986539949
345.2469029067
344.04023178059
342.89469329093
341.80766977316
340.77919546973
339.79423216631
338.86255974267
337.97088345998
337.12027845139
336.30878990375
335.52892431948
334.7857536656
334.06822965354
333.3835432446
332.72099581707
332.08669739363
331.47295621898
330.88226230278
330.31191652065
329.75923122606
329.22740353493
328.70855370369
328.2103227488
327.72269074589
327.2537333806
326.79532205678
326.35171660844
325.91947638611
325.49897251438
325.08980024002
324.69119718268
324.30268486637
323.92376569836
323.55401680001
323.19304160201
322.84048278022
322.49597758739
322.1591807157
321.82977150363
321.50745642057
321.19195326319
320.88298566504
320.58032126309
320.28371512814
319.99295176264
319.78529168652
321.83838106065
321.06371232103
320.13256744776
319.2327151821
318.37008911065
317.53914607354
316.73145478993
315.93759412785
315.14729478061
314.34815335592
313.52319543896
312.6491930467
311.69697374888
310.63576879991
309.44255877976
307.94394910774
306.50167668624
305.02075074094
303.59882024121
302.35054496019
301.3648369581
300.66422595184
300.2143749563
299.95277058188
299.81328505917
299.74051932423
299.69850278457
299.66855971214
299.64277543921
299.61831014725
299.59433573405
299.57064507724
299.54727382122
299.52415706574
299.50144439623
299.47396243621
299.45241392311
299.43187402606
299.41266878016
299.39507789208
299.37951249476
299.36633197172
299.35566779281
299.34752789221
299.34155465112
299.33742727901
299.3349867473
299.33395666716
299.33404718262
299.33473010951
299.33509603446
299.33448843008
299.33262293676
299.32944017967
299.3247079263
299.31836051221
299.31061801482
299.301596114
299.29135250363
299.28000063639
299.26774641268
299.25472796595
299.24107887193
299.22683456811
299.21221739773
299.19994447506
299.20351777637
299.24948647778
299.42894937526
299.93815204321
300.91743139923
372.56575135066
372.37274378111
372.07875288345
371.67096060508
371.14380366024
370.48803041852
369.69405984968
368.75523204392
367.66694493556
366.42884660828
365.04493233717
363.53228815111
361.92144355728
360.24385206931
358.5290519278
356.80878978845
355.11007972913
353.45377663839
351.8546071288
350.32125881465
348.85831492288
347.46719238343
346.14670959378
344.89428200992
343.70701227768
342.58061260135
341.51096681667
340.49469565089
339.52782341107
338.60648095252
337.72819472559
336.88903722257
336.08704632977
335.31875113498
334.58264806994
333.87580713499
333.19694791475
332.54362563175
331.9148327539
331.30838668992
330.72356594195
330.15842871195
329.61244172632
329.08389275866
328.57236388791
328.07640633229
327.59554218254
327.12872711977
326.67537224458
326.2347372699
325.80619131297
325.3891415919
324.98296353818
324.58728719125
324.2015142835
323.82523908927
323.45800832439
323.09944977755
322.74917746686
322.40685261402
322.07214011563
321.74473252191
321.42433022541
321.11065858656
320.80345863928
320.50247162261
320.20749048858
319.91797205085
320.1060240384
321.71830409642
320.82249042375
319.89779731728
319.008228124
318.15492022881
317.3313321565
316.52874958665
315.73760727147
314.94733809217
314.1446240384
313.31108512571
312.42190509912
311.44695474403
310.35635438621
309.1308469068
307.95044583687
306.50928369563
305.02925411524
303.60770284442
302.35909540707
301.37245124342
300.67060174575
300.21952258704
299.95692051659
299.81678723491
299.74371312829
299.7016221213
299.6717228091
299.64601815238
299.62162116218
299.59767754842
299.57398951915
299.55058106375
299.52738313706
299.50453718243
299.47688112895
299.45519673595
299.4344282841
299.41500544008
299.3971976814
299.38144059515
299.36810186376
299.35726484845
299.34889053853
299.34265741625
299.33830719412
299.33560112089
299.33427707759
299.33395270877
299.33406817687
299.33380025639
299.33252077706
299.32992080576
299.3258862884
299.32024325039
299.31294874436
299.30417805152
299.29404187745
299.28261626235
299.27002852128
299.25647748197
299.24209856679
299.22703085727
299.21129541326
299.19510926543
299.18097213602
299.18278632461
299.22690240124
299.40553426112
299.9210904087
300.93831193876
372.54624260785
372.31167542293
371.9530784882
371.46545119122
370.85145454678
370.11117651703
369.24665484192
368.25559475888
367.137608443
365.89150905815
364.52634500984
363.05376602163
361.49039184587
359.8625392361
358.19847238341
356.52549182772
354.86903482135
353.24991673042
351.68239441891
350.17515498861
348.7336057566
347.36011662079
346.05403875926
344.81340655524
343.63556437044
342.51710142261
341.45462558956
340.44410471585
339.48232217927
338.56553431825
337.69071184958
336.85510586584
336.05562199386
335.29020538323
334.55601514548
333.85147699885
333.17411373724
332.52270409848
331.8950707596
331.29023368033
330.7063593129
330.14255245903
329.59735829747
329.06988638562
328.55908419781
328.06392857855
327.5838066804
327.11759593067
326.66497118974
326.22481556271
325.79690601421
325.3803154881
324.97466261514
324.57935753764
324.19396765789
323.81805424558
323.45117448633
323.09294130801
322.74297108973
322.4009291274
322.06648446415
321.73932849688
321.41916151611
321.10570953291
320.79871395887
320.49793422361
320.20313716053
319.91380053924
320.13413537206
321.7089071062
320.81141854011
319.88799651947
318.99968310335
318.14748532696
317.32498515302
316.52356445358
315.73371208286
314.94489642853
314.14384465207
313.31223660632
312.4253358256
311.45308743989
310.3656215708
309.14354837884
307.96437642184
306.5259371398
305.04795806039
303.62729332478
302.37800045734
301.38932752542
300.68476507341
300.23096878996
299.96615697896
299.82456916838
299.75079066798
299.70851547399
299.67869510544
299.65315299752
299.62890377687
299.60503075193
299.5813487571
299.55785181502
299.5344675427
299.51132244538
299.48330078848
299.46127559253
299.44002785035
299.4201441276
299.40187084537
299.38570070717
299.37200029216
299.3607820386
299.35188190097
299.34508952649
299.34023330421
299.33692096699
299.33486065726
299.33358401545
299.33249039781
299.33087418169
299.32810761748
299.32385768458
299.31797776809
299.31033061972
299.30090444384
299.28982189512
299.2771931066
299.26312477932
299.24776858625
299.2313047811
299.21386790372
299.19560356425
299.17650982396
299.15678535384
299.13853435533
299.13621106519
299.17624003769
299.35289615805
299.88185014012
300.97818558544
372.50701486542
372.1772685061
371.67994286909
371.04040918912
370.28799520143
369.43172500896
368.48646366822
367.45277945756
366.32613296383
365.10315330531
363.79119032533
362.38813909577
360.9023092082
359.3516811371
357.75981303548
356.15191025552
354.55192458339
352.98071932297
351.45342633789
349.98040418521
348.56745048659
347.21678010182
345.92989405116
344.70542578988
343.54076383155
342.43315062157
341.37967157103
340.37708324039
339.4218257849
338.5109942631
337.64118689892
336.80988295694
336.01430884214
335.25217955481
334.52109348596
333.81911595236
333.14426500709
332.49488306966
331.86928912781
331.26614780681
330.68388922222
330.12151943437
329.57761729367
329.05141099397
328.5415889011
328.04756098781
327.56822797515
327.10299519516
326.65102822006
326.21168298619
325.78438891209
325.3684597677
324.96342251448
324.56865489885
324.18378006899
323.80832491757
323.44188777896
323.08406724236
322.73449442876
322.39282561509
322.05872832687
321.73189505327
321.41203384377
321.09887469701
320.79215824728
320.49164101501
320.19707874046
319.90796671278
320.17584948581
321.69575163184
320.79560061418
319.87388794683
318.98735228101
318.1367597708
317.3158315724
316.51608184128
315.72808530667
314.94135697235
314.14269006441
313.31385254499
312.43022431034
311.4618588753
310.3789002981
309.16177150162
307.98528285857
306.55105085866
305.07625627742
303.6570115667
302.40675054224
301.41505724498
300.70640521494
300.24849823524
299.98029616079
299.83646406552
299.76157890781
299.7189961821
299.68928027415
299.66397763256
299.63994897201
299.61619716762
299.59250928996
299.56886666407
299.54519610074
299.52165359205
299.49302016581
299.47044733388
299.44852264754
299.42796263943
299.40900724697
299.39219329421
299.37788518211
299.36602876116
299.35640258228
299.34883288324
299.34311998824
299.33883132455
299.33557636661
299.33283044518
299.32993000841
299.32625419655
299.32119784388
299.31438567355
299.30565395174
299.2949045653
299.2821326944
299.26743514989
299.25091846909
299.23271809359
299.21300641326
299.19196139218
299.16971209156
299.14638927568
299.12198509077
299.09666875809
299.07212923199
299.06253609373
299.09643639603
299.26957387936
299.82002862595
301.05383203986
372.40200606948
371.79656065509
370.99549184343
370.11791945487
369.21787349503
368.28881662309
367.32545071574
366.31393954384
365.23831480067
364.09322341503
362.86659036407
361.55744575739
360.1692018859
358.71460311318
357.21319963026
355.68671409733
354.15757620915
352.64642030241
351.16935729995
349.73790985
348.35955064911
347.03856279991
345.775397045
344.57056515087
343.4226897031
342.32930884926
341.28743180859
340.29456648527
339.34786848128
338.44415948264
337.5806650596
336.75470037952
335.96391054628
335.20580276898
334.47847398239
333.77967358534
333.10778313015
332.46094978713
331.83780108201
331.23666941985
330.65643717829
330.09572861415
329.55350841426
329.02865781384
328.52023131147
328.0273835229
327.54917362504
327.08498241485
326.63392491839
326.19551961892
325.76898080169
325.35383709935
324.94947689593
324.55540875048
324.17115571061
323.79626284331
323.43035473747
323.07303364753
322.72394184456
322.38271914168
322.0490392341
321.72259910052
321.40311362038
321.09031087623
320.78392942548
320.48372428711
320.18945944127
319.90059419704
320.23328943042
321.67897839316
320.77544380845
319.85564056295
318.97131480931
318.12279463204
317.30390974865
316.50632750363
315.72073516597
314.93670747628
314.14112376536
313.3158695536
312.43647860748
311.4731480863
310.39604247645
309.18534847267
308.01294962185
306.58439543455
305.11393682526
303.69669827931
302.44525914915
301.44962388524
300.7355587489
300.27217070332
299.99940894479
299.85252104947
299.77609480836
299.73305011735
299.70343993494
299.67843851837
299.65469643093
299.63110892304
299.6074151749
299.58357494211
299.55952067771
299.53547258792
299.50606165927
299.48272782679
299.45991293216
299.43843923879
299.41856931597
299.40087015018
299.38569590043
299.37294028128
299.3623355918
299.35371507149
299.34680843721
299.34116764181
299.33627916124
299.33152871112
299.32620765026
299.3197390387
299.31154763988
299.30121429817
299.28855558284
299.27350788567
299.2560731066
299.23633735763
299.21440557297
299.19044149964
299.16463707535
299.13715590974
299.1081295744
299.07765744434
299.04573037891
299.01248653088
298.97921980145
298.95875345856
298.98384205416
299.15041516896
299.72618808799
301.14467608758
371.79371976093
370.24930995632
369.19507421143
368.31999056502
367.48173767706
366.64606934414
365.78726787031
364.8910074315
363.93303104329
362.90235147952
361.79004983108
360.5951258781
359.31994388953
357.97396958273
356.57357027006
355.13906707703
353.69102103875
352.24934689768
350.83114812637
349.44901162182
348.11169106697
346.82443023448
345.59044547165
344.40943067566
343.28121737277
342.20453021285
341.1771638654
340.19621965918
339.25967826775
338.36478314276
337.50895799825
336.68948029129
335.90437814214
335.15135891585
334.42832372435
333.73344166184
333.06501225145
332.42131644336
331.80085713853
331.20226153361
330.62428360674
330.06559908557
329.52522877167
329.00204915786
328.49521639066
328.00371722863
327.52684795627
327.06380796669
326.61390134525
326.1764841308
325.75088277929
325.33661528717
324.93306070999
324.53978091631
324.15623345165
323.78202068557
323.41673547678
323.05999909047
322.71144917955
322.37073718661
322.03754829875
321.71157388599
321.39252483743
321.08012926028
320.77413467764
320.47428578954
320.18038818957
319.89174483566
320.31559161466
321.65879809702
320.75131921002
319.83347233254
318.95168063893
318.10565458021
317.28926427065
316.49432965959
315.71166853102
314.93093013144
314.13909899987
313.31820831794
312.44398478716
311.48680667176
310.41686937686
309.21408113062
308.04717047664
306.62576169516
305.16081442133
303.74622267528
302.49348124802
301.49306460293
300.77232410311
300.30211320349
300.02362129146
299.87283193411
299.79438582685
299.7506859653
299.72115578693
299.6965001531
299.67310065535
299.64971495227
299.62601668889
299.60193152727
299.57740055378
299.55271891219
299.52246267278
299.49813194705
299.47420797194
299.45158457028
299.43057978919
299.41174945886
299.39542992843
299.381485515
299.36961679415
299.35966672444
299.35121444451
299.3438100944
299.336824878
299.32950556095
299.32112197392
299.31109126833
299.29884988151
299.28394305618
299.26616980044
299.24551707448
299.22194943708
299.19558389103
299.16651486302
299.13494459809
299.1010717947
299.06503812069
299.02697200579
298.9869277888
298.94490063148
298.90098115291
298.85609240609
298.82081362225
298.83326652332
298.9882151871
299.58734927523
301.22638564334
362.98145790214
366.5901630435
366.33258387883
365.91418447324
365.42773083616
364.85599269218
364.20369152823
363.47782831444
362.68117694677
361.81002991285
360.85409309942
359.80886738748
358.67751313288
357.466215895
356.18771036117
354.86023733736
353.50368531425
352.13751471499
350.77974503981
349.44504375607
348.14416646285
346.88474018296
345.67099053984
344.50556466566
343.38863554558
342.31916916429
341.29676077924
340.31925618741
339.38455676753
338.48998851014
337.63382487864
336.81365701488
336.027132275
335.27226636588
334.54729195461
333.85034685465
333.17957266934
332.53356805266
331.91078810871
331.30986302998
330.72946427626
330.16850463536
329.62586379691
329.10046237977
328.59140877902
328.0978071938
327.61890078998
327.15384443585
326.70199264984
326.26267520449
325.83528405189
325.41925149398
325.01398621228
324.61904873555
324.23393695045
323.85823022989
323.49147209179
323.13329402122
322.78335574249
322.44131320478
322.10683723362
321.77960988451
321.45934911224
321.14578644416
320.83866761832
320.53779279441
320.2428884984
319.9536234258
319.81857256141
321.81258053478
320.95662722442
320.03326499569
319.14479052852
318.29313378285
317.47295140376
316.67651985706
315.89505362833
315.11863815628
314.33527873738
313.52858099558
312.6761047873
311.7495101451
310.71838777772
309.55887905478
308.08770911947
306.67491699311
305.2166837213
303.80544536388
302.55138125918
301.54544117598
300.81683631274
300.33849731489
300.05310425885
299.89753011744
299.81653188397
299.77193407221
299.74242197801
299.71813434868
299.69512155156
299.67197067396
299.64827323134
299.62390781208
299.59882302558
299.57322938276
299.55286459226
299.52663942342
299.50069680077
299.47595631397
299.45285857397
299.43188467829
299.41334653207
299.39708960104
299.38280251415
299.37029470636
299.35891491745
299.34813709723
299.33715315842
299.32499284384
299.31086459221
299.29409710025
299.27409165551
299.25038442576
299.22275997683
299.19117355608
299.15563865764
299.11632568055
299.0733121457
299.02685681705
298.9771252195
298.92419721719
298.86817280218
298.80903436118
298.74677236552
298.68134052353
298.61329207264
298.54852231771
298.53325304618
298.65908066826
299.2788968708
301.26617736646
353.84494051596
359.05614124775
359.88651522132
360.27866275142
360.44417025121
360.42151371729
360.21710631757
359.85752800533
359.36655285978
358.76118001847
358.04875510278
357.23962591994
356.33733434343
355.34513069768
354.27383896988
353.14000755977
351.96176636597
350.7578070135
349.54490479508
348.33826171756
347.15030317163
345.98972410223
344.86240809777
343.77201809993
342.72074374648
341.7092835738
340.73750817703
339.80403070435
338.90832107093
338.04873194513
337.22353700326
336.43066856428
335.66869564449
334.93607134019
334.23107464414
333.55195906378
332.89750478209
332.2663339556
331.65711869838
331.06850726614
330.49946102872
329.94894421573
329.41592525963
328.89942607505
328.39859030387
327.91267887469
327.44087384659
326.98247759859
326.53679654011
326.10329180289
325.6813444852
325.27040289163
324.86995790334
324.47953908517
324.09873129272
323.72708183787
323.3641974517
323.0096853151
322.66321188825
322.3244590638
321.99310922117
321.66887058619
321.35146381834
321.04062951101
320.73608889029
320.43765173714
320.14504285246
319.85597219584
320.76471476736
321.5725410233
320.65539452286
319.74491187885
318.87233522092
318.0359353885
317.22947576218
316.44514469648
315.67417986408
314.90653775077
314.12962877634
313.32611334933
312.47254497223
311.54009788353
310.49917769257
309.3286759878
308.18660100816
306.79547857263
305.35442525261
303.95231034734
302.69601386568
301.67727862245
300.92974777942
300.43142906874
300.12877212745
299.96079971831
299.87285376636
299.82549471291
299.79565545205
299.77205631336
299.74988583425
299.72728239481
299.70361544011
299.67865370876
299.65237487148
299.624994315
299.60542038562
299.57623617947
299.54696773746
299.51858171832
299.49165762013
299.46671740146
299.44400718485
299.42337902943
299.40461703975
299.38725792642
299.37052607741
299.35355145677
299.33522160037
299.31425004828
299.28961736253
299.2604128244
299.22585206844
299.18546426123
299.13890897319
299.08619589234
299.0274642692
298.9628800479
298.89254728562
298.81670605429
298.73536710458
298.64829602508
298.55549522256
298.45679474743
298.35212889369
298.24129536178
298.124575811
298.00274841728
297.9138978532
297.96408315297
298.53018720441
300.90230275137
349.44999780983
354.04435253899
355.07887057688
355.72788898118
356.15456320887
356.42032337882
356.51947939959
356.47164168478
356.27039092793
355.93022070966
355.46622357687
354.89612395795
354.21377550594
353.43527976787
352.57061455693
351.63113390149
350.63223018711
349.59096450537
348.52341649049
347.44411154423
346.36624620757
345.30088983429
344.25572314534
343.2361377344
342.24572658982
341.286746677
340.36032392529
339.46652205517
338.60516176164
337.77519148541
336.97550302033
336.20543089575
335.46355601815
334.74868669099
334.05918713923
333.39392561506
332.75190034592
332.13180094782
331.53240898837
330.95259703061
330.39158795271
329.84828272135
329.32177346833
328.81110639052
328.31566704922
327.83463109592
327.36730276068
326.91294999825
326.47101666923
326.0409469952
325.62216122264
325.21413628392
324.81637046984
324.42847690098
324.04999785451
323.68052580815
323.31966336074
322.96705323511
322.62238077762
322.28530375258
321.95552129411
321.63274772773
321.3167191302
321.00719090143
320.70393197054
320.40675545267
320.11535112513
319.82730985106
321.19477160666
321.48842685417
320.57090428917
319.66790262555
318.80317792436
317.97485245943
317.17682226558
316.40152884701
315.64049383052
314.88393093567
314.11962382509
313.33080395656
312.4947934333
311.58353565646
310.56773461275
309.42553786375
308.30692884029
306.94343126017
305.52481539602
304.13562393268
302.87854670227
301.84565230787
301.07570840172
300.552887617
300.22847821611
300.04411658805
299.94632165004
299.89445254651
299.86343474005
299.84021709929
299.81884212153
299.7968303708
299.77323711392
299.74768590668
299.72015930063
299.69087323326
299.67171444108
299.63915991934
299.60598689895
299.5732028623
299.54137814543
299.51116037414
299.48287755791
299.45642172275
299.43157897089
299.40762308289
299.38361640751
299.358352316
299.33024988864
299.29755590439
299.25882305887
299.21273602758
299.1581878793
299.09446065816
299.02133539221
298.93884447486
298.84704019396
298.7460760166
298.63629664551
298.51750691289
298.38926181863
298.25144886232
298.10411412861
297.94647474495
297.77801698577
297.59850575555
297.40800504762
297.20643344587
297.0045397706
296.90908425628
297.20446084066
299.32562164363
346.74537149207
350.43080233637
351.45625148084
352.15204457897
352.66641888095
353.0500534331
353.30229067382
353.41812202062
353.41180263461
353.26915730919
352.99422216855
352.60418670093
352.12293918487
351.53172710928
350.84244403096
350.0749785517
349.23935593081
348.34951354373
347.42110611604
346.46787340742
345.50227824955
344.53513911271
343.57577121257
342.6310874978
341.70596385977
340.80378229146
339.92677237314
339.0761885675
338.25254837279
337.45580292115
336.68569579048
335.94163546031
335.22253101032
334.52757421371
333.85615755972
333.20710687119
332.57954706431
331.97216159625
331.38421751439
330.81499957007
330.26344104264
329.72873466049
329.20986582771
328.70630360266
328.21729640793
327.74214825493
327.28011890534
326.83064338822
326.39324472461
325.96730663449
325.55233157321
325.14777968462
324.75327327593
324.36839997867
323.99272474478
323.62585167393
323.26739244768
322.91705250724
322.57450208106
322.23942393838
321.91151422506
321.59049072669
321.27611419235
320.96815090956
320.66641779383
320.37060620409
320.08051482684
319.78541595639
321.52569073955
321.38910337123
320.47122172227
319.57688345782
318.72136494364
317.90239583346
317.11409542425
316.3492065218
315.59954834216
314.85562203584
314.10564666025
313.33354521128
312.51758914265
311.63069978595
310.64406516315
309.53513147463
308.44535419691
307.11543791757
305.72482978734
304.35308093951
303.09788420724
302.05083766499
301.25615530653
300.70505499283
300.35460693632
300.14982760567
300.0387713927
299.98003494249
299.94645552871
299.92293772042
299.90207936959
299.88057817969
299.85705937156
299.8309472162
299.80217155487
299.77094661683
299.75210096173
299.71598072697
299.67858171555
299.64083523184
299.60331708598
299.56671492655
299.53152472299
299.49775933617
299.46500581949
299.43254456954
299.39919112988
299.36330425374
299.32272104572
299.27504538519
299.21820107986
299.15010390443
299.06914397228
298.97441795498
298.86564401503
298.74304952793
298.607101886
298.45835320155
298.29714533308
298.12190333359
297.93107086157
297.72437432632
297.50023543395
297.25723849781
296.99503462317
296.71360337828
296.41285705665
296.09217747287
295.74869858264
295.41866620824
295.19174358963
295.57416955127
345.17373223553
347.55949002968
348.59855965756
349.26401461503
349.79561447738
350.2203928862
350.53882803842
350.75758103023
350.84771347714
350.83735247636
350.71129485515
350.46357529127
350.11648824406
349.67959968889
349.14618575397
348.5251299784
347.83131177029
347.07865788339
346.2781039234
345.4423219679
344.58406222671
343.71408280553
342.8409600231
341.9724569228
341.11446015428
340.2713326142
339.446231017
338.64131249928
337.85794015467
337.09686342483
336.3583399199
335.64222584254
334.94820820913
334.27586528624
333.62444968532
332.99310333395
332.38143205258
331.78868654643
331.21393272954
330.65659059016
330.11563618712
329.59044352526
329.08051892614
328.58505692632
328.10348269245
327.63497949429
327.17910292116
326.73538890147
326.30321335983
325.88211011424
325.47150676748
325.07107283717
324.68040731384
324.29906235729
323.92666093126
323.56279486066
323.20718695915
322.85951176101
322.51943876919
322.1866738872
321.86092830363
321.54196151811
321.22952855453
320.9233913776
320.6232864615
320.32897733453
320.04029808608
319.74695253221
321.76161863514
321.26931006132
320.35635607768
319.47200464164
318.62689132143
317.81849616167
317.04115666855
316.28791718128
315.55089944243
314.8209137363
314.0866683186
313.33289472536
312.53898824572
311.67907552154
310.72505341221
309.65380769568
308.59796276939
307.30743196954
305.95076546251
304.6016354964
303.3522325928
302.29260016076
301.47226928162
300.89011375282
300.50985268086
300.28073548422
300.15260461783
300.0840412579
300.04591629034
300.02093242095
299.99998788191
299.97870597921
299.95514410284
299.92845058727
299.89843784878
299.86529010491
299.84676350846
299.80709145376
299.76542062281
299.72250771761
299.67890294606
299.63527550029
299.59220534344
299.54965980582
299.50736401522
299.4645093371
299.41965410902
299.37073053717
299.31484708043
299.2487936007
299.16949967861
299.07396856405
298.96004754365
298.82682220327
298.67449366101
298.50389446305
298.31515670496
298.10756960167
297.87973479644
297.62801713981
297.3491681712
297.03827605366
296.69176644345
296.30931136328
295.89119571885
295.43842383388
294.95113148446
294.43289730873
293.88119564568
293.26158984194
292.38755873092
290.52016285935
344.40549382809
345.14918683853
346.24630035824
346.86866552722
347.38072275799
347.81099108756
348.15616613199
348.42316969439
348.58117843721
348.64214324345
348.61431341362
348.48060077074
348.236309732
347.91478271964
347.50756267132
347.01433495229
346.44341212176
345.80723201811
345.12016262496
344.39266169927
343.63427638676
342.85567445461
342.06615354768
341.27279904845
340.48195626975
339.69876684646
338.9268997713
338.16923698331
337.42783721549
336.70402792128
335.99866717037
335.31219825863
334.64471379851
333.996084697
333.36601733981
332.75417189305
332.1600939597
331.58308706054
331.02247509636
330.47802243842
329.94896578743
329.43466360001
328.93465839839
328.44809636613
327.97448938172
327.51358241336
327.0646958237
326.62738697116
326.20106275494
325.78526708508
325.37975343299
324.98402951756
324.59770005331
324.2203655921
323.8516270873
323.4912751784
323.13893837362
322.79430056189
322.45705913689
322.12692172177
321.80367792081
321.48706789908
321.17683475415
320.87272433557
320.57453631129
320.28207131064
319.9950658063
319.7439887159
321.86177430063
321.13228999359
320.22615663207
319.35303387106
318.51950950625
317.7228911121
316.95771511975
316.21728805672
315.49401590803