/*--------------------------------*- C++ -*----------------------------------*\
| =========                 |                                                 |
| \\      /  F ield         | OpenFOAM: The Open Source CFD Toolbox           |
|  \\    /   O peration     | Version:  2312                                  |
|   \\  /    A nd           | Website:  www.openfoam.com                      |
|    \\/     M anipulation  |                                                 |
\*---------------------------------------------------------------------------*/
FoamFile
{
    version     2.0;
    format      ascii;
    arch        "LSB;label=32;scalar=64";
    class       volScalarField;
    location    "0.00013";
    object      TpSat;
}
// * * * * * * * * * * * * * * * * * * * * * * * * * * * * * * * * * * * * * //

dimensions      [0 0 0 1 0 0 0];

internalField   nonuniform List<scalar> 
109340
(
372.99991004945
372.99864776886
372.99643275878
372.993610448
372.9905902519
372.98756731142
372.9846138033
372.9817659209
372.97898484055
372.97619197686
372.97339385275
372.9705934895
372.96778779044
372.96496910311
372.96212695028
372.95924793998
372.95631497656
372.95330675526
372.95019635572
372.94695007274
372.94352587822
372.93987249204
372.93592638687
372.93160700551
372.9268112654
372.9214053045
372.91521299802
372.90799903283
372.89944251033
372.8890944933
372.8763060407
372.86009937846
372.83892544915
372.81018936894
372.7692393746
372.70731559957
372.99970834986
372.99803259276
372.99547714875
372.99259831181
372.98964414576
372.98671117973
372.98382012529
372.98096076152
372.97812767078
372.97530912287
372.97249736499
372.96968770869
372.9668736508
372.96404631247
372.96119409735
372.95830270278
372.95535456494
372.95232706265
372.94919159369
372.94591259044
372.9424461022
372.9387382108
372.93472192107
372.93031189303
372.92539846212
372.91983863821
372.91344363623
372.90596001889
372.89704014614
372.88619404835
372.87270643991
372.85548416229
372.83275813326
372.8014763246
372.75588192095
372.6845184461
372.9997479559
372.99776619767
372.99511338107
372.9922835293
372.9893850573
372.98647140677
372.98355492689
372.98065287411
372.97777863526
372.97492934141
372.97209633451
372.96927225686
372.96644906185
372.96361715023
372.9607649257
372.9578781919
372.95493942611
372.9519262506
372.94881022271
372.94555617458
372.94212013937
372.93844872948
372.93447547714
372.93011518199
372.92525812949
372.91976110271
372.91343525934
372.90602709002
372.89718884879
372.88643025304
372.87303519119
372.85590624336
372.8332473561
372.801890893
372.75561027903
372.68073658717
372.99970896037
372.9974085858
372.9946237683
372.99170116748
372.98873823137
372.98576192675
372.9827886339
372.97983362645
372.9769088203
372.97401838147
372.97115854407
372.96832280875
372.96550273381
372.96268886397
372.9598714933
372.95703694254
372.95416850947
372.95124452086
372.94823714734
372.94511269599
372.94182763703
372.938328718
372.93454848865
372.93040046227
372.92577290617
372.92052024308
372.91445067902
372.90730704529
372.89873690319
372.88824317377
372.87509924625
372.85819023236
372.83566176657
372.80415567205
372.75666711847
372.67538015081
372.99949532251
372.99643970165
372.99302275738
372.9896793446
372.98641403824
372.98322422919
372.98012143707
372.97713374664
372.97428087528
372.97155766174
372.96896727752
372.96650925861
372.96417620494
372.96195930125
372.95984878916
372.95783239255
372.95589462732
372.95401530603
372.9521642003
372.95031083191
372.94837701689
372.94628609395
372.94395274474
372.94127386268
372.93812243005
372.9343337539
372.92969296322
372.92391357257
372.91660267804
372.90720670192
372.89491412986
372.8784934388
372.85585565873
372.82314807754
372.7717889018
372.67534551905
373.00336092663
373.0175810221
373.03289357677
373.04809061768
373.0627404283
373.07660572531
373.0895593933
373.10154720617
373.11255858747
373.12260261286
373.13170235872
373.13988448968
373.14717501631
373.15359775023
373.15917148476
373.16390926622
373.1678181374
373.17090227217
373.17321202355
373.17486433695
373.17584989237
373.17611675463
373.17558750271
373.17413793895
373.17164565484
373.16789146179
373.16258771175
373.1553394247
373.14559196227
373.13254919982
373.11502382846
373.09121049049
373.05798257292
373.00949691263
372.93221171165
372.77603656472
372.60904341385
372.4542170404
372.21724011538
371.87823339357
371.42713960712
370.85297198805
370.14112910824
369.27871852663
368.25481456949
367.06389333701
365.70299182956
364.1932374389
362.57256155435
360.87029187318
359.1255334128
357.37355261522
355.64331365621
353.95674471116
352.32797139528
350.76675115633
349.27825745314
347.86299413173
346.51989383267
345.24694046552
344.0401621843
342.89453812587
341.80805579107
340.77900276827
339.79408432656
338.86280107243
337.97035437359
337.1210197419
336.30824677103
335.52970145702
334.78525814998
334.06898677582
333.38305663206
332.72181820477
332.0861904588
331.47381314376
330.88171541997
330.31228982108
329.75875441555
329.22742670365
328.70833779528
328.21019360483
327.72284232242
327.25352086772
326.79575792759
326.3515793631
325.91950120583
325.49897058855
325.08980339872
324.69119589891
324.30268763647
323.92376535132
323.5540171895
323.19304002052
322.84048039607
322.49597360048
322.15917582418
321.82976581298
321.50745084366
321.19194832787
320.88298171543
320.58031748341
320.28371136088
319.9929401777
319.78555081506
321.83863128549
321.06371384162
320.13256612783
319.23271366562
318.37008772015
317.53914493787
316.73145416406
315.93759389476
315.14729484941
314.34815359539
313.52319578261
312.64919350326
311.69697437545
310.63576963372
309.44255978544
307.94394784705
306.50167515011
305.02074933219
303.59881901562
302.35054403442
301.36483628003
300.66422538881
300.21437442967
299.95277004834
299.81328458226
299.74051890962
299.69850245584
299.66855950415
299.64277537304
299.61831022652
299.59433595137
299.57064539204
299.54727423331
299.52415744783
299.50144467987
299.47396251347
299.45241373839
299.43187361131
299.41266819725
299.39507717221
299.37951161136
299.36633093988
299.3556667275
299.34752687555
299.34155371105
299.33742638232
299.33498588491
299.33395591485
299.33404657722
299.33472980135
299.33509593209
299.33448843008
299.33262299255
299.32944030686
299.32470808447
299.3183606363
299.31061811088
299.30159618865
299.29135256267
299.28000066658
299.26774639564
299.2547279065
299.24107878793
299.22683448589
299.21221732345
299.19994440552
299.20351769468
299.24948632801
299.42894906467
299.93815128613
300.91743674622
372.56575135066
372.37274378111
372.07875273912
371.6709595827
371.14380486242
370.48803168216
369.69405944176
368.75523182151
367.66694504059
366.42884520951
365.0449280533
363.53228756712
361.92144618549
360.24384962653
358.5290520102
356.80879024024
355.11007945581
353.45377788081
351.85460667311
350.32125859659
348.85831545635
347.46719182517
346.14670923387
344.89428298909
343.70701689494
342.58061158498
341.51095560746
340.49471457632
339.52780317561
338.6064965768
337.72818157335
336.88903606464
336.08704858306
335.31874019561
334.58265763651
333.87579109599
333.19695775714
332.54361381417
331.91483904861
331.30838317368
330.72356788873
330.15844049896
329.61243867286
329.08392139854
328.57234978427
328.07643827755
327.59551225642
327.12874542015
326.67534718835
326.23475272501
325.80618305344
325.38914349627
324.98296754014
324.58728584224
324.20151700562
323.82523892888
323.45800912084
323.09944841263
322.74917562005
322.40684896166
322.07213574765
321.74472729026
321.42432501612
321.11065366192
320.80345470187
320.50246904798
320.20749051811
319.91796930281
320.10707531128
321.71836963888
320.82249080457
319.89779611621
319.00822666433
318.15491880476
317.33133090847
316.52874867133
315.73760662698
314.94733763656
314.14462368852
313.31108485727
312.42190494925
311.44695476996
310.35635461115
309.13084728468
307.95044412667
306.50928173821
305.02925231806
303.60770131898
302.35909426249
301.37245042732
300.67060111277
300.21952204134
299.95691999573
299.81678678741
299.74371274781
299.7016218235
299.67172262366
299.64601810395
299.62162124971
299.59767776287
299.57398982951
299.55058147463
299.52738352736
299.50453747842
299.47688124259
299.45519662378
299.43442792735
299.41500491123
299.39719700058
299.38143974408
299.368100885
299.35726383488
299.34888955387
299.34265646348
299.3383063014
299.33560026959
299.33427632949
299.3339521148
299.33406783981
299.3338001131
299.33252073903
299.32992084915
299.32588638259
299.32024337741
299.31294884773
299.30417813569
299.29404194665
299.28261631874
299.27002854815
299.25647747001
299.24209852262
299.22703079096
299.21129536078
299.19510923608
299.18097212093
299.18278630581
299.22690232332
299.40553402168
299.92108973161
300.93831740425
372.54624260785
372.31167542293
371.95307846422
371.4654499891
370.85145294578
370.11117623991
369.24665423476
368.25559509219
367.13760826717
365.89151013885
364.52634485718
363.05376713914
361.49039019163
359.86253980655
358.19847296572
356.52549068991
354.8690354731
353.24991873731
351.68239365722
350.17515445241
348.73360642737
347.36011591881
346.05403885187
344.81340661368
343.63556550587
342.51710484689
341.4546187488
340.44410360655
339.48233223235
338.56551754202
337.69072616755
336.85508798499
336.05563656019
335.29019055402
334.55602706805
333.8514636364
333.17412775999
332.52269129771
331.89508764351
331.29021837717
330.70637878496
330.14253514137
329.59737557448
329.0698694881
328.55909669193
328.06392059399
327.58381276862
327.11760088823
326.66496884972
326.22482469926
325.7969002051
325.38032254473
324.97465916867
324.57936044948
324.19396855396
323.81805527415
323.45117530953
323.09294092587
322.74297004135
322.40092664549
322.06648130361
321.73932457862
321.41915750953
321.10570564918
320.79871073331
320.49793164462
320.2031341228
319.91379825907
320.13519552078
321.70896786992
320.81141874681
319.88799525266
318.99968161556
318.14748388457
317.32498389498
316.52356350905
315.73371140751
314.94489593773
314.14384426556
313.31223630121
312.42533563886
311.45308742767
310.36562175593
309.14354871774
307.96437462935
306.52593511168
305.04795620341
303.62729175196
302.37799927876
301.38932668825
300.68476443322
300.23096823666
299.96615646345
299.82456872868
299.75079029736
299.70851518577
299.67869492759
299.65315295158
299.62890386539
299.60503095559
299.58134908225
299.5578522113
299.53446792725
299.51132270536
299.4833009112
299.46127551164
299.44002751611
299.42014362627
299.40187016488
299.3856998326
299.37199937461
299.36078108746
299.35188096868
299.34508856516
299.34023244192
299.33692016442
299.33485996573
299.33358347113
299.33249005787
299.33087402006
299.32810756473
299.32385768458
299.31797784867
299.31033072166
299.30090454002
299.28982197803
299.27719317425
299.26312482906
299.24776860719
299.23130476575
299.21386785966
299.19560349945
299.17650977937
299.15678533633
299.13853434993
299.13621106519
299.17623997032
299.35289592033
299.88184945972
300.97819120482
372.50701486542
372.1772685061
371.67994289086
371.04042564677
370.28799041738
369.43172731032
368.48646382547
367.45277907072
366.32613291393
365.10315346673
363.79119057011
362.38813873231
360.90230862126
359.3516814583
357.75981230474
356.15191036516
354.55192595731
352.98071888319
351.45342614459
349.98040501021
348.56745116043
347.21677950791
345.92989521403
344.70542672151
343.54076302432
342.43315195416
341.37967294523
340.3770770408
339.42183033406
338.51098983627
337.64118456413
336.80988613246
336.01430212962
335.2521847166
334.52108371646
333.81912334969
333.14425706096
332.4948904934
331.86928282589
331.26615326207
330.68388739611
330.1215204645
329.57762017723
329.0514056328
328.54159726964
328.04755158981
327.56823881328
327.10298570981
326.65103737287
326.21167841979
325.78439208327
325.36845933799
324.96342215283
324.56865767135
324.18377961552
323.80832684968
323.44188831915
323.0840678462
322.73449405712
322.39282442983
322.058726422
321.73189251339
321.41203107382
321.09887185625
320.79215566148
320.49163843484
320.19707643159
319.90796375796
320.17692128716
321.69580897339
320.79560058026
319.87388660217
318.98735075711
318.13675830897
317.31583030449
316.51608086992
315.72808459976
314.94135644513
314.14268964029
313.31385220254
312.43022408611
311.46185882383
310.37890044163
309.16177179921
307.98528103625
306.55104880743
305.07625440216
303.65700998281
302.40674935926
301.41505640891
300.70640458019
300.24849769179
299.98029565258
299.83646363432
299.76157854608
299.71899590164
299.68928010124
299.66397758825
299.63994905886
299.61619736695
299.59250960932
299.5688670528
299.54519647218
299.52165379922
299.49302028107
299.47044726359
299.44852233599
299.42796215569
299.40900657069
299.39219244507
299.37788432125
299.36602787362
299.35640170857
299.34883195835
299.34311917597
299.33883058885
299.33557572966
299.33282995484
299.32992967911
299.32625402156
299.3211977804
299.31438568178
299.30565401844
299.29490465399
299.28213278615
299.26743523378
299.25091853694
299.2327181389
299.21300642966
299.19196137839
299.16971205747
299.14638924993
299.12198507796
299.09666876709
299.07212924883
299.06253610018
299.09643633657
299.2695736466
299.82002792345
301.05383757696
372.40200606948
371.79656067111
370.99549184343
370.1179191494
369.21787371714
368.28881545689
367.32544950536
366.31393950135
365.23831494671
364.09322355223
362.86659050007
361.55744551855
360.16920179216
358.71460290236
357.21319916288
355.68671489898
354.15757630042
352.64641995701
351.16935787826
349.73790964264
348.35955001267
347.03856272479
345.775398844
344.57056576378
343.4226896457
342.32930934427
341.28743272884
340.29456560721
339.34786462668
338.44416211461
337.5806586486
336.75470462341
335.9639036175
335.20580509078
334.4784680132
333.77967765093
333.10777769566
332.46095427133
331.83779513407
331.23667588686
330.65643053004
330.09573494945
329.55350110462
329.02866250829
328.52022674245
328.0273857885
327.54917410095
327.08498097373
326.63392999546
326.19551522609
325.76898596462
325.35383321761
324.94947997822
324.55540763182
324.17115653644
323.79626391142
323.43035531687
323.07303467217
322.72394191776
322.38271903387
322.04903844126
321.7225979168
321.40311213523
321.09030925229
320.78392786586
320.48372242644
320.18945768109
319.90059134576
320.23442535821
321.67902919802
320.77544353242
319.85563917026
318.97131325607
318.12279315657
317.30390847167
316.50632650638
315.72073442569
314.93670691
314.14112330084
313.31586917157
312.43647834314
311.47314799205
310.39604257386
309.18534872376
308.01294777177
306.58439336574
305.11393493893
303.69669668981
302.44525796679
301.44962305499
300.73555812375
300.27217017232
299.99940844595
299.85252062857
299.77609445707
299.73304984584
299.70343976743
299.67843847546
299.65469651586
299.63110911793
299.60741548102
299.58357532453
299.55952102976
299.53547277068
299.50606174305
299.48272775657
299.45991264876
299.43843878412
299.41856865759
299.40086934515
299.38569509799
299.37293946052
299.36233479362
299.35371421397
299.34680768349
299.34116697776
299.33627858705
299.33152827148
299.3262073382
299.31973885491
299.31154756645
299.30121429817
299.28855563406
299.27350795993
299.25607318754
299.23633743688
299.21440563469
299.19044153841
299.16463709127
299.13715590254
299.108129556
299.07765744434
299.04573038971
299.01248655867
298.9792198376
298.95875347449
298.9838420038
299.15041493852
299.72618735462
301.14468151018
371.79371976717
370.24931008336
369.19507442641
368.31999007679
367.48173838505
366.64606922669
365.78726702912
364.89100714878
363.93303144118
362.90235176302
361.79005004328
360.59512580392
359.31994363634
357.97396923565
356.57357029178
355.13906746235
353.69102073481
352.24934707841
350.83114852584
349.4490109149
348.11169098545
346.82443119539
345.59044598996
344.40942959871
343.28121779644
342.2045308789
341.1771634911
340.19621981102
339.25967667254
338.36478286695
337.50895756657
336.68947784543
335.90437815035
335.15135463578
334.4283260237
333.73343849952
333.06501424339
332.42131285129
331.80085926527
331.20226003985
330.62428389344
330.06559845318
329.52522618052
329.00205060098
328.49521210626
328.00372083277
327.52684379054
327.0638119133
326.61389961261
326.17648570022
325.75088320618
325.33661367875
324.93306239833
324.53977877297
324.15623496724
323.782019818
323.4167363252
323.05999959073
322.71144959446
322.37073764615
322.03754839046
321.71157388599
321.39252454831
321.08012887459
320.77413402014
320.47428446442
320.18038572093
319.89174159803
320.31692609888
321.65884421154
320.75131891062
319.83347094956
318.95167908519
318.105653101
317.28926298646
316.49432863665
315.71166775374
314.93092952168
314.13909849042
313.31820789161
312.44398447765
311.48680652866
310.41686942108
309.21408132748
308.04716857679
306.6257596075
305.16081252397
303.74622108056
302.49348006866
301.49306378157
300.77232349099
300.30211268707
300.02362080506
299.87283152583
299.79438548801
299.75068570429
299.72115562609
299.6965001123
299.67310073853
299.64971514139
299.62601698334
299.60193189314
299.57740087722
299.55271908354
299.52246274297
299.49813188021
299.47420771806
299.45158415598
299.43057917936
299.41174872706
299.39542919262
299.38148474037
299.36961609694
299.35966598872
299.35121372353
299.34380949078
299.33682437062
299.3295051626
299.32112167605
299.31109107748
299.29884979459
299.28394303954
299.26616980971
299.24551712944
299.22194950499
299.19558395989
299.16651491583
299.13494463636
299.10107181575
299.065038126
299.02697200579
298.98692781143
298.94490067296
298.90098120656
298.85609247113
298.82081366178
298.83326650068
298.98821498063
299.58734853286
301.22639095523
362.98145794327
366.59016322528
366.3325855642
365.91418401797
365.42773015359
364.85599288801
364.20369192766
363.47782831444
362.68117755254
361.81003025243
360.8540932654
359.80886747733
358.67751286077
357.46621548984
356.18771029437
354.86023739599
353.50368510168
352.13751502746
350.7797452657
349.44504325219
348.14416653173
346.88474049199
345.67098986708
344.50556437779
343.38863638164
342.31917028065
341.29676064839
340.31925684903
339.38455687111
338.48998790175
337.6338248097
336.81365436457
336.02713304772
335.2722635469
334.54729375372
333.85034374918
333.17957417416
332.53356530492
331.91079090861
331.30986099603
330.72946618976
330.16850189293
329.62586360854
329.10046076628
328.59140711064
328.09780759061
327.61889826756
327.15384700761
326.70199050402
326.26267772374
325.83528292494
325.41925161724
325.01398626444
324.61904713088
324.23393744899
323.85822849487
323.49147260831
323.13329379821
322.78335617996
322.44131378506
322.10683782725
321.77961067619
321.45934975435
321.14578705248
320.83866807479
320.53779304192
320.24288805141
319.9536237358
319.81911444118
321.81271097945
320.95662837106
320.03326369078
319.14478898946
318.29313228665
317.47295006226
316.67651875012
315.89505275883
315.11863746552
314.33527815687
313.52858049979
312.67610439438
311.74950990291
310.71838771669
309.55887915523
308.08770718909
306.67491488757
305.21668181151
303.80544376837
302.55138008429
301.54544036606
300.81683571679
300.33849681555
300.05310378678
299.89752972332
299.81653155885
299.77193382278
299.74242182497
299.71813431088
299.69512163291
299.67197085736
299.64827351503
299.62390814876
299.59882332099
299.57322952482
299.5528646641
299.52663937858
299.50069658697
299.4759559651
299.45285806762
299.43188408863
299.41334592474
299.39708899288
299.38280187811
299.37029410992
299.35891433631
299.34813658231
299.33715273289
299.32499250039
299.3108643199
299.29409691301
299.27409155081
299.25038438069
299.22275997683
299.19117357565
299.15563868637
299.11632572231
299.07331217679
299.02685685404
298.97712524909
298.92419725514
298.8681728504
298.80903443756
298.74677246556
298.68134064048
298.61329217906
298.54852239323
298.53325308022
298.65908052229
299.2788961315
301.2661823897
353.84494057451
359.05614177362
359.88650930409
360.27866085553
360.44417049502
360.42151378115
360.21710550851
359.85752903694
359.36655358367
358.76118008428
358.04875450836
357.23962614433
356.33733431717
355.34513035199
354.27383909749
353.14000795614
351.96176652298
350.75780710469
349.54490504254
348.33826200042
347.15030331462
345.98972374523
344.86240819513
343.77201889404
342.72074337024
341.709283389
340.73750822224
339.80403189063
338.90832054658
338.04873151554
337.22353693194
336.43066876107
335.66869499427
334.9360719444
334.23107417104
333.55195939613
332.89750473083
332.26633650268
331.65711943056
331.06850928773
330.49946020526
329.94894478386
329.41592354597
328.89942552121
328.39858871276
327.91267764789
327.44087365795
326.98247647642
326.5367975292
326.10329090961
325.68134531435
325.27040223913
324.86995692436
324.47953810828
324.09872902439
323.72708089958
323.36419579133
323.00968502992
322.66321182291
322.32445952836
321.99311042558
321.66887201645
321.35146570491
321.04063156022
320.73609119624
320.43765523389
320.1450444267
319.85597239035
320.76629939191
321.57256467641
320.65539422011
319.74491064244
318.87233378682
318.03593396686
317.22947448077
316.44514360802
315.6741789604
314.90653698982
314.12962811022
313.32611276766
312.47254449947
311.54009755844
310.49917753401
309.32867597483
308.18659901219
306.79547642604
305.35442331343
303.95230875032
302.69601270626
301.67727784365
300.92974722636
300.4314286154
300.12877168232
299.96079935956
299.87285347467
299.82549449195
299.79565531918
299.77205628515
299.74988591165
299.72728256542
299.703615693
299.67865398791
299.65237511179
299.62499444378
299.60542045811
299.57623613576
299.54696756614
299.51858143125
299.49165724848
299.46671697317
299.44400673519
299.42337856593
299.40461655936
299.38725747742
299.37052566285
299.35355108223
299.33522128437
299.31424978466
299.28961715928
299.26041267886
299.22585197179
299.18546420077
299.13890894761
299.08619586984
299.0274642692
298.96288006195
298.89254730919
298.81670609304
298.73536715301
298.64829610958
298.55549534508
298.45679487776
298.35212903223
298.24129549692
298.12457594071
298.00274852285
297.91389792476
297.96408307477
298.53018652039
300.90230688205
349.44999786928
354.04435215004
355.07887138671
355.72788776041
356.15456327127
356.42032496836
356.51947939471
356.47164120602
356.27039142782
355.93022387902
355.46621750402
354.89612247837
354.21377149194
353.43527162016
352.5706159483
351.63113424446
350.63223000181
349.59096428706
348.52341642665
347.44411122918
346.36624560971
345.30088973727
344.25572376334
343.23613847298
342.24572708744
341.2867475223
340.36032430841
339.46652133917
338.60516019743
337.77519010543
336.97550256967
336.2054300598
335.4635552812
334.7486866781
334.05918726758
333.3939258242
332.751901542
332.13180216403
331.5324107425
330.95259776654
330.39158933397
329.848282867
329.32177341824
328.81110557507
328.31566618179
327.83463075676
327.36730176847
326.91294981329
326.4710158956
326.04094727668
325.62216104968
325.21413590101
324.81636960355
324.4284748347
324.04999610511
323.6805234414
323.31966172088
322.9670520817
322.62238023273
322.28530417764
321.95552199676
321.6327491689
321.31672089618
321.00719312199
320.70393432163
320.40675732477
320.11535298158
319.82731027588
321.19611638983
321.48844023681
320.5709033638
319.66790130864
318.80317661015
317.97485111361
317.17682101262
316.40152772546
315.64049284507
314.88393006914
314.11962304705
313.3308032589
312.49479283582
311.58353518769
310.56773429045
309.4255376794
308.30692676406
306.9434290664
305.52481342921
304.13562233885
302.87854556501
301.84565157283
301.07570790778
300.55288722729
300.22847787722
300.04411627598
299.94632139964
299.89445236061
299.8634346326
299.8402170836
299.81884219646
299.79683052557
299.77323733203
299.74768613018
299.72015948558
299.6908733129
299.67171450239
299.63915989691
299.60598675759
299.57320264998
299.54137784969
299.51116006538
299.48287724305
299.45642138984
299.43157864654
299.40762277719
299.38361612656
299.35835206991
299.33024968752
299.29755574488
299.2588229264
299.21273592827
299.15818780082
299.09446059845
299.02133534604
298.93884445357
298.84704018364
298.7460760166
298.63629668488
298.51750698473
298.38926191649
298.25144899851
298.10411430065
297.94647491252
297.77801716286
297.59850593601
297.40800524239
297.2064336394
297.00453993536
296.90908433785
297.20446051453
299.32562448775
346.74537149777
350.43080341401
351.45625104881
352.1520443711
352.66641838366
353.05005420653
353.3022917962
353.41812190203
353.41179949257
353.26916702501
352.99421657429
352.60411423391
352.12298675862
351.53173789814
350.84245745739
350.07498380708
349.23936080841
348.34951425679
347.4211039669
346.46787432805
345.50227934435
344.53513922956
343.57577091977
342.63108723846
341.70596391585
340.80378217014
339.92677198812
339.07618813137
338.2525484466
337.45580273928
336.68569494131
335.94163438719
335.22253190615
334.52757495966
333.85615851234
333.20710766258
332.57954825434
331.97216273834
331.38421820231
330.81500005897
330.26344134941
329.72873415678
329.20986467521
328.70630250452
328.21729612579
327.74214776628
327.28011882526
326.83064293598
326.39324472461
325.96730678023
325.5523318047
325.14777954611
324.75327214765
324.36839845215
323.99272242028
323.62584957419
323.26739070308
322.91705124814
322.57450163849
322.23942376583
321.91151462427
321.59049135212
321.27611524781
320.9681523047
320.66641883428
320.37060685305
320.08051308869
319.78543646131
321.52683208896
321.38911154979
320.47122079314
319.57688222299
318.72136367233
317.90239459753
317.11409422064
316.34920538403
315.59954728841
314.85562107017
314.10564577279
313.33354439903
312.51758841422
311.63069916382
310.64406466437
309.535131103
308.44535203579
307.1154356777
305.72482780382
304.35307934951
303.09788310226
302.05083698832
301.25615489083
300.70505468669
300.35460667327
300.14982735115
300.0387711926
299.98003479827
299.94645545129
299.92293772042
299.9020794444
299.88057831931
299.85705955584
299.83094739199
299.80217168838
299.77094666781
299.75210099545
299.7159807125
299.67858161391
299.64083510468
299.60331688447
299.56671469031
299.53152451376
299.49775912435
299.46500561885
299.43254438294
299.39919096383
299.36330411502
299.32272094254
299.27504530084
299.21820101719
299.15010385505
299.06914392714
298.97441791077
298.86564397812
298.74304952074
298.607101886
298.45835323176
298.29714540059
298.12190344445
297.93107100799
297.72437451564
297.50023565329
297.25723872833
296.99503487653
296.71360366893
296.4128574132
296.09217786568
295.74869901097
295.41866659754
295.1917439941
295.57417043239
345.17373226349
347.55948967242
348.59855902586
349.26401653175
349.795614205
350.22039199718
350.5388298236
350.75758004094
350.84771441852
350.83731992951
350.71136996791
350.46358647612
350.11640014693
349.67964305574
349.1461870922
348.52512685844
347.83129501635
347.07866030482
346.27810209762
345.44232117748
344.58406461167
343.71408412474
342.84095867697
341.97245529647
341.11445982696
340.27133317427
339.44623137439
338.64131312368
337.85794055605
337.09686256498
336.35833775826
335.6422235855
334.9482066879
334.2758645678
333.62445005718
332.99310502975
332.38143395442
331.78868771689
331.21393276201
330.65659027231
330.1156354845
329.59044252364
329.08051768176
328.5850561669
328.10348220669
327.63497981574
327.17910285792
326.73538910279
326.30321415339
325.88211068404
325.47150677888
325.07107253636
324.68040653177
324.29906092275
323.92665907203
323.5627929055
323.20718524524
322.85951064927
322.51943799523
322.18667339078
321.86092788393
321.54196151811
321.22952902007
320.92339226172
320.62328801822
320.32897914494
320.04029916249
319.74699185583
321.76215399332
321.26931333208
320.35635521272
319.47200357166
318.62689018291
317.81849506337
317.04115553632
316.287916046
315.55089833523
314.82091268318
314.08666732688
313.33289379683
312.53898738431
311.67907474336
310.72505273378
309.65380713144
308.59796052872
307.30742969094
305.95076345889
304.60163391411
303.35223153095
302.29259956053
301.4722689672
300.89011355525
300.50985251748
300.28073532366
300.15260447978
300.08404116325
300.04591624836
300.02093244003
299.99998796056
299.9787061075
299.95514425921
299.92845072686
299.89843794601
299.86529013616
299.84676352866
299.80709145376
299.7654205636
299.72250764352
299.67890285656
299.63527534797
299.59220518909
299.54965969737
299.50736390085
299.46450924035
299.41965403382
299.37073048697
299.31484705718
299.24879359233
299.16949967861
299.07396857223
298.96004755062
298.82682220327
298.67449366873
298.50389447984
298.31515675254
298.10756969755
297.87973494007
297.62801731552
297.34916838257
297.03827628017
296.69176672236
296.30931173066
295.8911961679
295.43842436365
294.95113209218
294.43289799387
293.88119640777
293.26159068404
292.38756004298
290.52016113315
344.40549393442
345.14918773327
346.24630054793
346.86866618519
347.38072230997
347.8109899239
348.15616709343
348.42317022178
348.58117195815
348.64220646427
348.61429915007
348.48061574486
348.23635742174
347.91502743439
347.5074970914
347.01431377839
346.44342773966
345.80722719131
345.12016362351
344.39266119374
343.63427631265
342.85567469271
342.06615400798
341.27279922808
340.48195607432
339.6987665389
338.92689962725
338.16923694972
337.42783773254
336.70402908295
335.99866839607
335.31219854975
334.64471254644
333.99608272964
333.36601606384
332.75417187868
332.16009403691
331.5830873659
331.02247464519
330.4780216558
329.94896557431
329.43466360001
328.93465874345
328.44809715425
327.97448964253
327.51358270746
327.06469674739
326.62738858374
326.20106367729
325.78526741656
325.37975335791
324.98402952319
324.59770002317
324.22036489662
323.85162568857
323.49127345243
323.13893682754
322.79429925207
322.45705787109
322.12692057981
321.80367703839
321.48706748958
321.17683492042
320.87272517995
320.57453812856
320.28207295165
319.99506862774
319.74409039706
321.8619708176
321.13229126434
320.22615558706
319.35303299498
318.51950851605
317.72289016415
316.95771406801