/*--------------------------------*- C++ -*----------------------------------*\
| =========                 |                                                 |
| \\      /  F ield         | OpenFOAM: The Open Source CFD Toolbox           |
|  \\    /   O peration     | Version:  2312                                  |
|   \\  /    A nd           | Website:  www.openfoam.com                      |
|    \\/     M anipulation  |                                                 |
\*---------------------------------------------------------------------------*/
FoamFile
{
    version     2.0;
    format      ascii;
    arch        "LSB;label=32;scalar=64";
    class       volScalarField;
    location    "0.00013";
    object      Y.Liq;
}
// * * * * * * * * * * * * * * * * * * * * * * * * * * * * * * * * * * * * * //

dimensions      [0 0 0 0 0 0 0];

internalField   nonuniform List<scalar> 
109340
(
0.99999
0.99999
0.99999
0.99999
0.99998999999996
0.99998999999893
0.9999899999693
0.99998999940002
0.99998999592492
0.99998998491583
0.99998995971725
0.99998991177323
0.99998983072024
0.99998970438328
0.99998951865759
0.99998925726285
0.99998890131205
0.99998842866208
0.99998781298008
0.99998702245621
0.99998601806121
0.99998475130731
0.99998316133552
0.99998117105383
0.99997868180175
0.99997556589829
0.99997165591236
0.99996672870019
0.99996048072244
0.99995248811638
0.99994213879192
0.99992850991623
0.99991013203416
0.99988450712013
0.99984706802564
0.99978880008972
0.99999
0.99999
0.99999
0.99999
0.99998999999994
0.99998999999826
0.99998999995035
0.999989999116
0.99998999461555
0.999989981301
0.99998995200943
0.99998989770831
0.99998980756496
0.99998966891825
0.99998946713388
0.99998918531003
0.99998880381536
0.99998829957431
0.99998764504202
0.99998680681006
0.99998574375419
0.99998440463557
0.99998272498877
0.99998062295962
0.99997799352369
0.99997470035411
0.99997056403704
0.99996534438264
0.9999587127768
0.99995020692148
0.9999391526423
0.99992451990371
0.99990463649141
0.99987657793266
0.99983473992449
0.99976741319894
0.99999
0.99999
0.99999
0.99999
0.99998999999997
0.99998999999924
0.99998999997459
0.99998999932213
0.9999899952735
0.99998998267965
0.99998995434227
0.99998990118687
0.99998981233954
0.99998967510269
0.99998947481358
0.99998919455889
0.99998881470799
0.99998831220424
0.99998765953134
0.99998682331746
0.99998576246068
0.99998442571736
0.99998274861101
0.99998064924962
0.99997802255877
0.99997473213381
0.99997059844828
0.99996538118756
0.99995875164183
0.99995024743005
0.99993919421811
0.99992456085395
0.99990466462635
0.9998765165701
0.99983417521156
0.99976412462588
0.99999
0.99999
0.99999
0.99999
0.99998999999999
0.99998999999984
0.99998999999274
0.99998999952426
0.9999899959734
0.99998998420129
0.99998995697388
0.99998990517316
0.99998981788303
0.99998968236397
0.99998948390544
0.99998920553609
0.99998882755523
0.99998832681967
0.99998767569178
0.99998684062926
0.99998578025019
0.99998444287519
0.99998276341732
0.9999806591235
0.99997802373012
0.9999747191675
0.99997056357707
0.99996531337547
0.99995863525547
0.99995006025619
0.99993890412294
0.99992411992651
0.99990398879429
0.99987539931684
0.99983186220096
0.9997565981911
0.99999
0.99999
0.99999
0.99999
0.99999
0.99998999999999
0.9999899999992
0.99998999965606
0.99998999655054
0.99998998563295
0.99998995964816
0.99998990936181
0.99998982364179
0.99998968943623
0.99998949158378
0.99998921247327
0.9999888315315
0.99998832445293
0.99998766191089
0.99998680829935
0.99998571926245
0.99998433900478
0.99998259687761
0.99998040244981
0.99997763899585
0.99997415402448
0.99996974578037
0.99996414305633
0.99995697379243
0.99994771370309
0.99993559685776
0.99991945312984
0.99989735381412
0.99986575606434
0.99981692189779
0.99972731863858
0.99999
0.99999
0.99999
0.99999
0.99999
0.99999
0.9999899999916
0.99998999918791
0.9999899937699
0.99998997661417
0.9999899376879
0.99998986421768
0.99998974069096
0.99998954868754
0.99998926650811
0.99998886856337
0.99998832447036
0.99998759792432
0.99998664569729
0.99998541136483
0.99998382284147
0.9999817890894
0.99997919339446
0.99997588496837
0.99997166764266
0.99996628396167
0.99995939240646
0.99995053341954
0.99993907659473
0.99992413396134
0.99990440738274
0.99987792197483
0.99984140127122
0.99978878573062
0.99970645372215
0.99954749524696
0.99969283867906
0.99953429011666
0.999283480113
0.998918532885
0.99842939729846
0.99780605359937
0.99703339114902
0.99609841909115
0.99499063847058
0.9937058677812
0.99224434992987
0.99062574868049
0.98889660145808
0.98709020959934
0.98524790890255
0.98340894158483
0.98160402083892
0.97985553756462
0.97817782692398
0.97657932577349
0.97506401441739
0.97363185597474
0.97228037144903
0.97100599067884
0.96980417284803
0.96867005600444
0.96759878072649
0.96658680439163
0.96562785696155
0.96471894094228
0.96385624307561
0.96303539196534
0.96225457993355
0.96150924680123
0.96079839969839
0.96011801572232
0.95946734369688
0.95884304834006
0.95824450050544
0.95766895173901
0.95711581458894
0.9565828814924
0.95606951389486
0.95557405733234
0.95509570279546
0.95463337322365
0.95418605277036
0.95375311104381
0.95333347905184
0.95292673963158
0.95253196454722
0.95214871540713
0.95177631785621
0.95141425856892
0.95106202786845
0.95071916226725
0.95038522422404
0.95005980814278
0.94974253101969
0.94943303395885
0.94913098032384
0.94883605510939
0.94854796056212
0.94826641513658
0.94799115214061
0.9477219232645
0.94745848935684
0.94720061977674
0.94692448159767
0.94525925441872
0.94404572587793
0.94307664151223
0.94215800529854
0.94127337298974
0.94041155222574
0.93956399644601
0.93872620715422
0.93789572472914
0.93706735467217
0.93622775955998
0.93535000057771
0.93439076558105
0.93329315790169
0.9320001597983
0.93028624549838
0.92859459473582
0.92689973907079
0.92541052093914
0.92426505381332
0.9234878874287
0.92301637777411
0.92275827915797
0.92263112837369
0.92257466927936
0.9225504974226
0.92253833488231
0.92252937976402
0.9225206223232
0.92251136286181
0.92250173051743
0.92249211311152
0.9224829259356
0.92247455329691
0.92246733430348
0.92246055417985
0.92245714502455
0.92245549110861
0.92245534081802
0.92245703290393
0.922460673885
0.92246612518181
0.922473196535
0.92248166067315
0.92249126816615
0.92250175646334
0.92251287323494
0.92252438186775
0.92253600749524
0.92254752075521
0.9225587201149
0.92256941135989
0.92257942436955
0.92258862876424
0.92259693729028
0.9226042986304
0.92261069291836
0.92261612973133
0.92262064435744
0.92262428140252
0.92262709131555
0.92262913019386
0.92263044901323
0.92263107404714
0.92263091088684
0.92262958161386
0.92262569817233
0.92261562920341
0.92259072500456
0.92253570630158
0.92244209613407
0.99965073759109
0.99945063958635
0.99913649495726
0.99869480867182
0.9981230211145
0.99741124458416
0.99655035657872
0.99553407552297
0.99435903635433
0.99302683844498
0.99154341403562
0.98992924862295
0.98821684011266
0.98644285952343
0.98463947925693
0.98284037798922
0.98107466237787
0.97936327489167
0.97772060342512
0.97615473738094
0.97466923799893
0.97326429201867
0.97193775879445
0.97068613614455
0.96950537994804
0.96839048281086
0.96733683243292
0.96633991912288
0.9653955420542
0.9644996065826
0.9636485401979
0.96283884879023
0.96206749200669
0.96133161982219
0.96062864447658
0.95995623732725
0.95931222816146
0.95869471104273
0.95810187719232
0.95753212205976
0.95698393377242
0.95645595422969
0.95594693308735
0.95545570804359
0.95498123806095
0.95452253245738
0.95407871246617
0.95364893227646
0.95323244725272
0.9528285372705
0.95243655844957
0.95205588732833
0.9516859632531
0.95132625269084
0.95097626208802
0.95063553409789
0.95030363979372
0.94998017942201
0.9496647762121
0.94935707671772
0.94905674899579
0.94876348184301
0.94847698222528
0.94819697461261
0.94792319877597
0.94765540717188
0.94739336935661
0.94713687272943
0.94673638272165
0.94487811689466
0.94379050488388
0.94283755244547
0.94192883887521
0.94105135088729
0.94019434174053
0.9393502994641
0.93851553224212
0.93768735771784
0.9368590132731
0.93601427299783
0.93512231658993
0.93413604438939
0.93299685783476
0.93165164007263
0.93029427434447
0.92860372246456
0.92690909201989
0.92541898862744
0.92427192411833
0.92349301443894
0.92302002588222
0.92276087471969
0.92263309140678
0.92257635629229
0.92255214861372
0.92254007437866
0.92253124714122
0.92252260880681
0.92251343474728
0.92250384342198
0.9224942159463
0.92248497334556
0.92247650712432
0.92246916436153
0.92246219018306
0.92245861016864
0.92245679682522
0.92245653143434
0.92245809093853
0.92246163114713
0.92246701458685
0.92247405240688
0.92248251503325
0.92249214786879
0.92250268295395
0.92251386005812
0.92252543295893
0.92253711270923
0.92254866065792
0.92255986339064
0.92257051699055
0.92258044255856
0.92258950194737
0.92259760297666
0.92260469296917
0.92261074983745
0.92261578715711
0.92261983699339
0.92262294394126
0.92262516092766
0.92262654604217
0.92262715467923
0.9226270094872
0.92262605739473
0.92262388518507
0.92261913614688
0.92260819123493
0.92258234191175
0.92252597680827
0.92242982105256
0.99963320489697
0.99938928051777
0.99900187922797
0.99847285209134
0.99780688613442
0.99700427086911
0.99606700988437
0.99499497418419
0.99378887436415
0.99244954526127
0.99098690994552
0.98941636127372
0.98775711240601
0.98603809147217
0.98429041828308
0.98254318851658
0.9808236954347
0.97915251296472
0.97754387544595
0.97600628265279
0.97454393906081
0.97315799524551
0.97184711041639
0.97060832592522
0.96943790799956
0.96833174703545
0.96728576154424
0.96629535642105
0.9653564864923
0.96446539026423
0.96361842496386
0.96281237203211
0.96204414319582
0.96131102628859
0.96061045077338
0.95994015645143
0.95929801099631
0.95868213729927
0.95809074898776
0.95752227064581
0.95697520041011
0.95644821289941
0.9559400466246
0.95544958779833
0.95497576989581
0.95451765620556
0.95407434137141
0.95364502101122
0.95322893019999
0.95282537181024
0.95243369560059
0.95205329014781
0.95168359648816
0.95132408708436
0.95097427555246
0.95063370379601
0.9503019468793
0.94997860635053
0.94966330824651
0.94935570121072
0.9490554548795
0.94876225837906
0.94847581961456
0.94819586426531
0.94792213278195
0.94765437960252
0.94739237522564
0.94713590784482
0.9467253190681
0.9448644266135
0.94378088640978
0.94282861937249
0.94192053338166
0.94104377156877
0.94018772177862
0.93934492623594
0.9385116510171
0.93768513337092
0.93685855989068
0.936015757599
0.93512608945194
0.93414273162555
0.93300732279795
0.93166667647241
0.93031122771678
0.92862363260705
0.92692964672316
0.92543767960701
0.92428714335775
0.9235044039723
0.923028143373
0.92276664868068
0.92263744665409
0.92258008186205
0.92255578037213
0.92254389160662
0.92253534141528
0.92252696383469
0.92251797869792
0.92250848077004
0.92249883595198
0.92248947556715
0.92248080661132
0.92247319657777
0.92246580150957
0.92246184559495
0.92245967719915
0.92245915316137
0.92246042092697
0.92246373511557
0.9224689648622
0.9224759247401
0.92248438037127
0.9224940652806
0.92250469932589
0.92251600472285
0.92252771294697
0.92253950307887
0.92255111648009
0.92256231385365
0.92257286869921
0.92258258136051
0.92259129627265
0.9225989108637
0.92260536532149
0.92261063908982
0.92261474550437
0.92261771171232
0.92261958296261
0.92262041868098
0.9226202766107
0.92261923465576
0.92261731940854
0.92261447224566
0.92261032332452
0.92260354332741
0.9225905352303
0.9225624630588
0.92250302008962
0.92240114888796
0.99959465731781
0.9992478779269
0.99870854466978
0.99801574217431
0.99719673190275
0.99626948653021
0.99524610310423
0.99412989108717
0.99291710529413
0.99160503351181
0.99020115811186
0.98870688416078
0.98713224613661
0.98549753586801
0.98382877844371
0.98215182780078
0.98049301363028
0.97887357394583
0.97730819597548
0.9758067643971
0.97437455669582
0.97301335159901
0.9717228119229
0.97050094330573
0.96934458071498
0.9682500546926
0.96721355932665
0.96623143497391
0.96529968086571
0.96441467332882
0.96357301270136
0.96277155150907
0.96200737838054
0.96127780294832
0.96058039150912
0.95991288809041
0.95927326634845
0.95865963058384
0.95807027965108
0.95750361970352
0.95695821599282
0.95643271852176
0.95592591288241
0.9554366690813
0.9549639583616
0.95450684098721
0.95406443489221
0.95363594188493
0.95322060131099
0.95281772783715
0.95242666551609
0.95204681951889
0.95167762730202
0.95131857288372
0.95096917263446
0.95062897410193
0.95029755627679
0.94997452393921
0.9496595061678
0.94935215394272
0.94905213932872
0.9487591529262
0.94847290422363
0.9481931203615
0.94791954343762
0.9476519306871
0.94739005425702
0.94713369972104
0.94670843296643
0.94484477788371
0.94376666189277
0.94281552878357
0.94190843120463
0.94103277471121
0.94017814123365
0.93933715544828
0.93850603143239
0.93768189230485
0.93685785783178
0.93601783390113
0.93513144756918
0.93415227124619
0.93302228217539
0.9316881848335
0.93033652261704
0.92865362463526
0.92696080857439
0.92546612709291
0.92431038619512
0.92352184756362
0.92304059603295
0.92277550208483
0.92264410340549
0.92258574289648
0.92256127043695
0.92254964683918
0.92254151099167
0.9225335305403
0.92252483894096
0.9225154927542
0.92250583776115
0.92249631122847
0.9224873438082
0.92247934078539
0.9224713242447
0.92246679658426
0.92246407827846
0.92246314481826
0.92246397181761
0.92246693071651
0.92247191420442
0.92247874224092
0.92248717387627
0.92249692750839
0.92250770199607
0.92251919101432
0.92253108963171
0.92254302817467
0.92255471583073
0.92256587256684
0.92257623525475
0.92258557030828
0.92259369215329
0.92260047872118
0.92260586034817
0.9226098304283
0.92261237473664
0.92261351968904
0.92261331378579
0.9226118330298
0.92260914392828
0.92260530921227
0.92260038127778
0.92259432191006
0.92258680710202
0.92257656070333
0.92256001702971
0.92252815284555
0.92246358215598
0.92235245410296
0.99946716115037
0.99882232969538
0.99796096831862
0.99701828353844
0.996043748743
0.99503939587033
0.993997851235
0.99290688154266
0.99175038944935
0.99052306126529
0.98921437060181
0.98782403540165
0.98635656719347
0.98482630413218
0.98325494110743
0.98166623750879
0.98008321552482
0.97852762842357
0.97701575269208
0.97555875665683
0.97416330017946
0.97283262156413
0.97156732920216
0.97036633198774
0.96922735127552
0.96814741491216
0.9671231779908
0.96615121883596
0.96522826350383
0.96435075796508
0.96351556119217
0.96271968555477
0.9619603846277
0.96123507746243
0.96054142291369
0.95987725655941
0.95924060446293
0.95862962915382
0.95804266644562
0.95747816553285
0.95693471769956
0.95641099815708
0.95590581368144
0.95541804598432
0.95494669064641
0.95449080952255
0.95404954862204
0.95362210658336
0.95320774234676
0.95280576566934
0.95241553137559
0.95203644768798
0.95166795748621
0.95130955079634
0.95096074656717
0.95062109921861
0.95029019025737
0.94996762875771
0.94965304634857
0.9493460966306
0.94904645389094
0.94875381045861
0.94846787745846
0.94818838376747
0.94791507396634
0.94764770784699
0.94738605700946
0.94712990570305
0.94668405734574
0.94481940123576
0.9437478864936
0.94279824963754
0.94189251257432
0.94101836416053
0.94016561863511
0.93932700559902
0.93849867759818
0.93767761561365
0.93685686104839
0.93602042693664
0.93513828418307
0.93416451949293
0.93304155049581
0.93171594911609
0.93036992753703
0.92869344131448
0.92700241466601
0.92550428583448
0.9243416877982
0.92354541457674
0.92305745249045
0.92278748155095
0.92265307494683
0.92259331484945
0.92256856350533
0.92255726513102
0.92254967226787
0.92254222580894
0.92253394021682
0.92252481701708
0.92251517788503
0.92250545476495
0.92249610579329
0.9224875984803
0.92247878588977
0.92247349513332
0.92247002572959
0.92246850510982
0.92246875464774
0.92247121256991
0.92247584119221
0.92248246777219
0.92249084375343
0.92250066788868
0.92251160948351
0.92252332301517
0.92253544721024
0.92254754962508
0.92255928968663
0.92257033052019
0.92258035607218
0.92258908125759
0.92259626466263
0.92260176779536
0.92260553203582
0.92260750083702
0.92260766036856
0.92260601494822
0.9226026435948
0.92259760797806
0.92259098794765
0.92258285340061
0.92257327130872
0.92256222828881
0.92254946400972
0.92253378190816
0.92251167304943
0.92247389449069
0.92240166074605
0.92227703893258
0.99859881936259
0.99703621923107
0.99595983054535
0.99504518161175
0.9941574048213
0.99326602442751
0.99234524449446
0.99138225515514
0.9903548645911
0.9892531180317
0.98807002814325
0.98680468510523
0.98546055503667
0.98404828898379
0.98258600314674
0.98109587472144
0.97959959664094
0.97811824290859
0.97666870248056
0.97526360136329
0.97391129543662
0.97261642551988
0.97138094772167
0.97020481794066
0.96908659898323
0.96802410113963
0.96701457411722
0.96605504346232
0.96514263743323
0.96427416020436
0.96344669944857
0.96265751177206
0.96190400858883
0.96118377862346
0.96049457469124
0.95983434912983
0.95920118629038
0.95859332769137
0.95800914420365
0.95744714450963
0.95690594197929
0.95638426050092
0.95588092016471
0.95539483843931
0.95492502201298
0.95447055450901
0.95403059527589
0.95360435477567
0.95319110562581
0.95279015977849
0.95240088464802
0.95202268891053
0.95165502605441
0.95129738840776
0.95094930093275
0.95061032195681
0.95028003647978
0.94995805795754
0.94964402086322
0.9493375814499
0.94903841550608
0.94874621706648
0.94846069886784
0.94818159153241
0.94790864179175
0.94764161065035
0.94738026962243
0.94712439613958
0.9466474767218
0.94478876981469
0.94372472092176
0.94277684419204
0.94187280270367
0.94100056470048
0.94015018277606
0.93931449854464
0.93848959105499
0.93767227636478
0.93685550986075
0.93602344201365
0.93514646617853
0.93417929933465
0.93306490421344
0.93174971570524
0.93041120026909
0.92874286948158
0.9270543663253
0.92555217777665
0.92438115171266
0.92357523941111
0.92307883653433
0.92280267562885
0.92266440234751
0.9226027876228
0.92257760802718
0.92256666856088
0.92255973558781
0.92255296027663
0.92254520296862
0.92253639104273
0.92252681510934
0.92251689088277
0.92250709316228
0.92249797109524
0.92248824127102
0.9224820013129
0.92247758067316
0.92247523477455
0.92247480536294
0.92247659083809
0.9224807343103
0.92248706772217
0.92249533562899
0.92250521312043
0.9225163305256
0.92252829144452
0.92254065087469
0.92255290362447
0.92256463501557
0.92257543318939
0.92258490764824
0.92259269051066
0.92259845521523
0.92260209164611
0.92260348025525
0.92260253011637
0.92259916642218
0.92259342982997
0.92258539460674
0.92257511344729
0.92256267717129
0.92254816133102
0.92253164870399
0.92251314890712
0.922492483227
0.92246855448079
0.92243796819905
0.92239124624752
0.9223080107992
0.9221645668681
0.98756686508547
0.99286009988342
0.99274117961684
0.9923759682035
0.99190010537843
0.9913120519977
0.99063053505702
0.98986656294201
0.98902156338373
0.98809495993005
0.98707995432046
0.98597453020596
0.98478381880799
0.9835152618688
0.98218260180206
0.98080533029444
0.97940479960039
0.97800131083126
0.97661413037454
0.97525761081249
0.97394235155277
0.97267531408791
0.97146034598017
0.97029904508868
0.96919136661855
0.96813609936399
0.96713131194517
0.9661746185459
0.96526357367123
0.96439539868528
0.96356739237144
0.96277702678901
0.96202187884511
0.96129969629491
0.96060831250561
0.95994575798056
0.95931017937402
0.95869986832684
0.95811322388416
0.95754877447929
0.9570051498899
0.95648109317008
0.95597543338259
0.95548709892093
0.95501509547793
0.95455850924043
0.95411649676827
0.95368827365723
0.95327311132211
0.95287032277327
0.95247927280381
0.952099366889
0.95173005768459
0.95137083381274
0.95102121805676
0.95068076506702
0.95034905771733
0.95002570759965
0.94971034727415
0.94940263069816
0.94910223102346
0.94880883978249
0.9485221665511
0.94824193919277
0.94796790203305
0.94769981473417
0.94743745347102
0.94718061482384
0.94687259871191
0.94509027097239
0.94394395243299
0.94298321495091
0.94207147505795
0.94119446557317
0.94034210866409
0.9395065332861
0.9386830884081
0.93786860545758
0.93705733799759
0.9362362293517
0.93537986610467
0.93444752271851
0.93338495131342
0.93213559465978
0.930460054125
0.92880168133154
0.92711656844031
0.92560984861814
0.92442892304788
0.92361150373545
0.92310491587611
0.92282120824122
0.92267815111466
0.92261416370174
0.92258835442996
0.92257777346296
0.92257160105611
0.92256563241267
0.92255853579975
0.92255014262056
0.92254069993175
0.92253060511691
0.92252032108819
0.92251038610253
0.92250594085124
0.92249795954838
0.92249177141566
0.92248777971886
0.92248608765658
0.92248658130001
0.92248973922577
0.92249543833344
0.9225034190111
0.92251331425116
0.92252467947825
0.92253701807215
0.92254971266989
0.92256211963575
0.92257366986211
0.92258377966319
0.92259187743342
0.92259744303125
0.92260012653245
0.92259978653871
0.92259592954111
0.92258846592329
0.9225773445277
0.92256257590079
0.92254420439878
0.92252226167508
0.92249685764268
0.92246805818321
0.92243596171113
0.9224005996456
0.92236194961531
0.92231906897767
0.92226889867238
0.92220157263321
0.92209430400183
0.92191100922499
0.97725188699585
0.98477034385524
0.98575726736786
0.98627696093079
0.98651670904844
0.98653713636163
0.98635728389952
0.98599519681822
0.98549379382939
0.98486822699968
0.98412591721341
0.98327923895135
0.98233637021795
0.98130405824521
0.98019492866884
0.97902633434898
0.97781783488343
0.97658847302193
0.97535529809129
0.97413464888378
0.97293870683365
0.97177584824972
0.97065157611046
0.96956912861916
0.96852998218442
0.96753442433497
0.9665817933255
0.96567089706467
0.96480010043158
0.96396743212067
0.96317093138006
0.96240861177325
0.96167850642381
0.96097874582695
0.96030753495332
0.95966314975317
0.95904399059154
0.95844856705991
0.95787546509598
0.9573233664176
0.95679103692744
0.95627733016751
0.95578119718087
0.95530165960401
0.95483780522924
0.95438877930243
0.95395379203351
0.95353210798636
0.95312304111517
0.95272595015705
0.95234023525338
0.95196533961656
0.95160074327324
0.95124596091147
0.95090053783053
0.95056404811384
0.9502360926366
0.94991629632569
0.94960430670028
0.94929979012194
0.94900243189528
0.9487119348007
0.94842801866675
0.9481504202008
0.94787889041411
0.94761319016244
0.94735308968955
0.94709831937852
0.94644836274003
0.94466768081476
0.9436306629805
0.94268919907912
0.94179175635164
0.94092742422782
0.94008684348953
0.93926308287711
0.9384518839976
0.93764946739669
0.93684851392712
0.93603377707843
0.93517736752749
0.93423656442067
0.93315663476297
0.93188377056687
0.93057909154986
0.92894633728247
0.92727124831379
0.92575475359562
0.92455011613229
0.92370428066349
0.92317204214163
0.92286896727075
0.922713337236
0.92264273204291
0.9226147976741
0.92260475201722
0.92260030754798
0.92259633230877
0.92259098536742
0.92258382817599
0.92257497358394
0.92256475556613
0.92255361265049
0.92254211030465
0.92253739993178
0.92252664250619
0.92251743374207
0.92251040502208
0.92250599714435
0.92250430619962
0.92250536571017
0.92250956628993
0.92251666964504
0.92252624752212
0.92253771934711
0.9225503890292
0.92256326853708
0.92257543093744
0.92258595201535
0.92259387263756
0.9225982203423
0.92259854326916
0.92259369993735
0.92258298567981
0.92256593733395
0.92254226083336
0.92251177339113
0.9224743592127
0.92242992053851
0.92237837656195
0.92231979911895
0.92225413901505
0.92218141951702
0.92210163645804
0.92201502705692
0.9219207575186
0.92181687949584
0.92169298655433
0.92152425997874
0.92124717368227
0.97197196073112
0.97952519429536
0.98070962213584
0.98145754206155
0.98196618085949
0.98229777549443
0.98244242193441
0.98241780931483
0.98223161422715
0.98188414626303
0.98141810178975
0.98083492530672
0.98013237688835
0.97932840138313
0.97843896649657
0.97747578683343
0.97645635154568
0.97539843917306
0.97431856944183
0.97323128863579
0.97215015880336
0.97108608506868
0.97004659552966
0.96903692123309
0.96806026991282
0.96711838833045
0.96621204675214
0.96534108445602
0.96450475405283
0.96370198656936
0.96293149684456
0.96219187807839
0.96148170130064
0.96079946715117
0.96014374326359
0.95951310785149
0.95890617942001
0.95832165579864
0.95775830732851
0.95721495464247
0.95669048062147
0.95618385637392
0.95569411412676
0.95522035307187
0.95476173660419
0.95431747966099
0.95388683967331
0.95346912244389
0.95306368271696
0.95266991801428
0.95228726515414
0.9519151946584
0.95155321184005
0.95120085189043
0.95085767916944
0.95052328511961
0.95019728430679
0.94987931355335
0.94956902911953
0.94926610698376
0.94897024162656
0.94868114512539
0.94839854573381
0.94812218622933
0.94785182533751
0.94758723707821
0.9473282067532
0.94707408770958
0.94624406455402
0.94456442594784
0.94354736270426
0.94261187558613
0.94172025946304
0.94086289084589
0.94003089014294
0.93921740236379
0.9384178453258
0.93762798355917
0.9368403255415
0.93604017990186
0.93520114597368
0.93428272993477
0.93323232654675
0.93199631065676
0.9307236483565
0.92912463364796
0.92746514916139
0.92593940077795
0.92470693157097
0.92382597658453
0.92326102575272
0.92293253112612
0.92275982767989
0.92267952302027
0.92264777176529
0.92263762177004
0.9226349428721
0.92263336317477
0.92263034333583
0.92262505018498
0.92261738207169
0.92260755534288
0.92259595453228
0.92258313334534
0.92257816518517
0.92256433815471
0.92255155730772
0.92254067367375
0.92253242877175
0.92252737371703
0.92252561700788
0.92252728665837
0.92253264185454
0.92254122187268
0.92255228117373
0.92256482603937
0.92257731752816
0.92258836940406
0.92259646154491
0.92260010935414
0.92259811870281
0.9225881517203
0.92256873588791
0.92253853689394
0.92249650686539
0.92244192335166
0.92237432073713
0.92229305686412
0.92219759734251
0.9220874031584
0.92196216858268
0.92182133725674
0.92166449059287
0.92149146612799
0.92130267619927
0.92109695594571
0.9208746873234
0.9206245043181
0.92032325100801
0.9198636873901
0.96774360394681
0.97572866063964
0.97697510547786
0.97775362248222
0.97833818789939
0.97877158326673
0.97908014024781
0.9792299630751
0.97923614818756
0.97911730142761
0.97884058428759
0.97845483357111
0.97796866231719
0.97736798343108
0.97666756388775
0.97588615863102
0.97503854139826
0.97413922355268
0.97320443765109
0.97224859643417
0.97128425830686
0.97032197431796
0.9693711072451
0.96843824588688
0.96752820907492
0.96664416619099
0.96578800101432
0.96496063533541
0.96416235165493
0.9633929446015
0.96265176125884
0.96193792977937
0.96125050834896
0.96058840262441
0.95995051505431
0.95933574229768
0.9587429615202
0.9581710834756
0.95761906125126
0.95708590384941
0.95657065395494
0.95607236975418
0.95559019509277
0.95512331789788
0.95467096968223
0.95423242519407
0.95380700369523
0.95339406094989
0.95299299118006
0.95260323741286
0.95222427301241
0.95185560178322
0.95149675682956
0.95114730038345
0.95080682036846
0.95047492559803
0.95015124795652
0.94983543969409
0.94952717163657
0.94922613207776
0.9489320269512
0.94864458006562
0.94836353073585
0.94808863272346
0.94781965378995
0.94755637490274
0.9472986028688
0.94704458196345
0.94597791827252
0.94444591917302
0.94344751671472
0.9425194408618
0.94163508302388
0.94078608386928
0.93996416060289
0.93916254211895
0.93837628456698
0.93760067226563
0.93682807466594
0.9360444582136
0.93522515097407
0.93433224692407
0.93331575149313
0.93212269032832
0.93088943420368
0.92933281089878
0.92769620383477
0.92616387851571
0.92490120676386
0.92397934046201
0.92337475459831
0.92301441745198
0.92281945054592
0.92272567587986
0.92268764508077
0.9226761362644
0.92267483041137
0.92267581629718
0.9226756034061
0.922672832223
0.92266707931421
0.9226583740661
0.92264699213107
0.92263341604412
0.92262867531532
0.92261193520898
0.92259539779189
0.92258011225555
0.92256710415176
0.92255729881611
0.92255138832724
0.92254949294568
0.92255177172072
0.92255821570801
0.92256793476802
0.92257950156465
0.92259066755484
0.92259926455812
0.92260310670993
0.92259978145477
0.92258549812668
0.92255696983629
0.92251105638182
0.92244496927063
0.9223562834185
0.92224320730909
0.92210447168586
0.9219379350612
0.92174159598547
0.92151360288382
0.92125237471728
0.9209558326308
0.92062275127669
0.92025189878061
0.91984338381365
0.91939503681683
0.91891144838852
0.91837829896537
0.91778070073242
0.91696435259982
0.96380255059394
0.97270872745552
0.97403129643384
0.97480468558329
0.97539483131051
0.97586368854579
0.97622436840885
0.9764710291646
0.9765917567256
0.97659742480469
0.97649259969359
0.97624372456477
0.97589750942756
0.97546931568955
0.97493721229128
0.97431110241174
0.97361180512668
0.97285574763344
0.97205450484086
0.97122035965323
0.97036687772991
0.96950482352455
0.9686425635227
0.96778799688655
0.96694668717908
0.96612276262891
0.96531917716463
0.96453791733994
0.96378015013847
0.96304641301392
0.96233672845618
0.96165080780911
0.96098815874403
0.96034812777921
0.95972996196901
0.95913283658914
0.9585558766744
0.95799822145806
0.95745899995861
0.95693735743949
0.95643250527724
0.95594365575245
0.9554700407379
0.95501095388098
0.95456571624127
0.954133685786
0.95371423764832
0.95330678298881
0.95291076469697
0.95252566241141
0.95215099629984
0.95178630070071
0.95143113305884
0.95108507931598
0.95074775421944
0.95041879201719
0.95009784054481
0.94978456886311
0.94947866413489
0.94917982922725
0.9488877843848
0.9486022666944
0.94832302837054
0.94804983454184
0.94778246046678
0.94752069219146
0.94726431991788
0.94700872642216
0.94567234518208
0.94431289843332
0.94333167434266
0.94241195503379
0.94153613846228
0.94069690537752
0.93988649978427
0.93909819235252
0.93832664829487
0.93756667089717
0.93681053590267
0.9360449609959
0.93524719390284
0.93438223135782
0.93340315078992
0.93225823112092
0.93107133201539
0.92956595727865
0.92796154769337
0.92642762727314
0.92513465925881
0.92416747276994
0.92351676931899
0.92311794514259
0.92289493136793
0.92278318949471
0.92273554482411
0.92272065076138
0.92271974029993
0.92272308704896
0.92272590860617
0.92272618314616
0.92272306971492
0.92271630645024
0.92270599959077
0.92269250580543
0.92268879278269
0.92266987365971
0.92264990577044
0.92263016710621
0.92261188707755
0.92259631572095
0.92258459214804
0.92257754652439
0.92257532433645
0.92257793318959
0.92258481667034
0.92259407946376
0.92260255921039
0.92260716768363
0.92260437191998
0.92258845728612