/*--------------------------------*- C++ -*----------------------------------*\
| =========                 |                                                 |
| \\      /  F ield         | OpenFOAM: The Open Source CFD Toolbox           |
|  \\    /   O peration     | Version:  2312                                  |
|   \\  /    A nd           | Website:  www.openfoam.com                      |
|    \\/     M anipulation  |                                                 |
\*---------------------------------------------------------------------------*/
FoamFile
{
    version     2.0;
    format      ascii;
    arch        "LSB;label=32;scalar=64";
    class       volScalarField;
    location    "0.00013";
    object      Ybar.Liq;
}
// * * * * * * * * * * * * * * * * * * * * * * * * * * * * * * * * * * * * * //

dimensions      [0 0 0 0 0 0 0];

internalField   nonuniform List<scalar> 
109340
(
0.99909183771142
0.99908819791562
0.99908123351594
0.99907273677523
0.99906326180021
0.99905328460917
0.99904298799205
0.99903244101615
0.99902164044675
0.99901010469544
0.99899700101849
0.99898140897229
0.99896220606796
0.99893803383613
0.99890727538587
0.9988680191676
0.99881799306487
0.9987544776908
0.99867417959412
0.99857306070255
0.99844609610571
0.99828697501466
0.9980876901753
0.99783798253716
0.99752455149247
0.99712994409266
0.9966309137963
0.99599593006766
0.99518123330734
0.99412428943177
0.99273234576635
0.99086113057951
0.98827253913326
0.98454567059197
0.97887982268064
0.96963384921994
0.99909238164277
0.99908771019655
0.99907988845122
0.99907080316972
0.9990610329098
0.99905099738359
0.99904081727835
0.99903044726865
0.99901959259045
0.99900774082262
0.99899413135954
0.99897780065841
0.99895756557642
0.9989320027581
0.9988994232713
0.99885782616264
0.99880484062151
0.99873761934916
0.99865270248229
0.99854583182322
0.9984116973334
0.99824361183011
0.99803306995292
0.9977691453884
0.99743763294994
0.99701982823954
0.99649071759075
0.99581620045141
0.99494864025525
0.99381938841226
0.9923254822388
0.9903043100234
0.98748136398124
0.98335533010586
0.97691448053258
0.96596726365481
0.99909440597625
0.9990890098063
0.99908040846697
0.9990711115938
0.99906142626058
0.99905153694006
0.99904141604824
0.99903102929297
0.9990201649388
0.9990083222071
0.99899475054046
0.99897848224603
0.99895832894638
0.9989328638629
0.99890039692377
0.99885893104131
0.99880609509588
0.99873904506972
0.99865432373786
0.99854767706795
0.99841379594233
0.99824599370377
0.99803576541149
0.9977721822036
0.99744103581826
0.9970236151229
0.99649489709438
0.99582077153402
0.99495359654283
0.99382471134356
0.9923310967991
0.9903097545442
0.98748323895998
0.98333400292088
0.97676943397714
0.96514675071735
0.99909721654044
0.99909072985076
0.99908170979792
0.99907216334215
0.99906230095098
0.99905221335167
0.99904192950664
0.99903143741391
0.99902052025988
0.99900867530528
0.99899515219945
0.99897897799145
0.99895895714814
0.99893365668053
0.99890137900945
0.99886011857827
0.99880749623873
0.99874065815358
0.99865613098262
0.99854964299344
0.99841584669763
0.99824800650036
0.99803754629758
0.99777343268731
0.997441314989
0.99702227402937
0.99649099246612
0.99581293966828
0.99493986765534
0.99380221215637
0.99229552263
0.99025430752912
0.98739396662307
0.98316991013863
0.97635817350578
0.96347469076858
0.9991016318467
0.9990932333139
0.99908291749642
0.99907272950609
0.99906260391763
0.99905242033039
0.99904210698628
0.99903163471099
0.99902077476112
0.99900902018188
0.9989956252665
0.99897960943546
0.99895975677969
0.99893460301973
0.99890240391662
0.99886108629192
0.99880817806292
0.99874069937102
0.99865495744768
0.99854646414673
0.99840949588241
0.99823682594215
0.99801919910151
0.99774462473106
0.99739744143507
0.99695688587201
0.99639506051993
0.99567379045458
0.99473961342075
0.9935153415577
0.9918848577519
0.98966491018981
0.98653709881194
0.98188033422109
0.97420763904023
0.9582969661997
0.99910980196206
0.99909450717741
0.99908310426086
0.99907265804015
0.99906247459462
0.99905226889044
0.99904193986083
0.99903139116778
0.99902026172698
0.99900783560422
0.99899307863525
0.99897463042357
0.99895079233212
0.99891949435892
0.99887823902502
0.99882401734295
0.99875318966804
0.99866135653228
0.99854324211054
0.99839153675569
0.99819719899599
0.99794860377753
0.99763066922197
0.99722368862698
0.99670171156824
0.99603022127618
0.99516275608894
0.99403576930865
0.99256046115589
0.99060903412964
0.98798946827176
0.98440299188526
0.97932703798382
0.97174271093933
0.95914326844584
0.93100576832749
0.95371712248069
0.92702468632605
0.88603966466373
0.83029911938696
0.76264384109903
0.68544124455281
0.6019575868787
0.51605593317386
0.43175995826736
0.35283500736575
0.28098107589974
0.22150508238345
0.17262193423046
0.13366042604148
0.10368493980672
0.080739245106628
0.063358241421646
0.050177581439436
0.040126620723474
0.032456900271888
0.026560811329505
0.021959661932312
0.018337685500525
0.015468804081457
0.013165386907491
0.011281270555528
0.009755694104172
0.0085168909568633
0.0074343502517791
0.0065816694125402
0.0058207855914888
0.0051979068349792
0.0046528233986774
0.0041856558000586
0.0037838693426757
0.0034291742731377
0.0031240030291413
0.0028518058978702
0.00261352038689
0.0024027737907308
0.0022122950915811
0.0020471321585499
0.0018924195587853
0.0017609979485743
0.0016345656840219
0.0015278575468611
0.0014246327611036
0.0013359644803096
0.0012520996863724
0.0011766982697347
0.0011073763556666
0.001043318140605
0.00098473772554919
0.00093069202244055
0.00088081124544856
0.00083462827815791
0.00079181694303327
0.00075205645254771
0.00071509193978511
0.00068066955037162
0.00064856423197058
0.00061857261088605
0.00059051921102729
0.00056424445767863
0.00053960556748598
0.00051647107514125
0.00049472374971456
0.00047424032390061
0.0004617917872077
0.0016000845515584
0.003173127323349
0.0032546104465273
0.0032121194771489
0.0031648736033636
0.003117267452257
0.003070198226831
0.0030240890097913
0.0029791777007945
0.002935504515164
0.0028927484243378
0.0028500687754312
0.0028059814528517
0.0027585393925067
0.00270587850955
0.0026396902774047
0.0025775549300423
0.0025176985871233
0.0024654948521103
0.0024246387571998
0.0023946785208073
0.0023731386979827
0.0023573128660958
0.0023450646458884
0.0023351722948752
0.0023270028712752
0.0023204031055002
0.0023153397029379
0.0023117120931169
0.0023093380989253
0.0023079729972536
0.0023073839203508
0.0023071453447962
0.0023067072174574
0.0023056768433461
0.0023041135324003
0.0023007965170641
0.0022964695889438
0.0022916237973216
0.002286316568469
0.0022811260783358
0.0022766368724315
0.0022733400038925
0.002271676977142
0.0022717090113549
0.0022733905015664
0.0022770339408657
0.0022828328188906
0.0022908853793908
0.0023010324247689
0.002312337747424
0.0023240473099554
0.002335857493971
0.0023477969447972
0.00235958324283
0.0023709574893435
0.0023821187280659
0.002393117946246
0.0024038494986895
0.0024144162956205
0.0024249343612196
0.0024354338743363
0.0024460031539624
0.0024565468074597
0.0024668954888537
0.0024768071280788
0.0024859766154526
0.0024939454040205
0.0025001685238557
0.0025009444172263
0.0025209421795415
0.94598313053095
0.91181481126636
0.86113395490883
0.79632635375807
0.7206362610436
0.63827227399399
0.55279844602047
0.46836956669764
0.38858490690617
0.3160914190081
0.25257561681896
0.19879761923768
0.15590209420189
0.12175363899674
0.095047282248381
0.074532123956926
0.058828393021985
0.046836246410878
0.037665968880918
0.030609938873932
0.025138816714697
0.02086226968465
0.017483913288194
0.014786873846879
0.012615787006426
0.010851187404695
0.0094012365342963
0.0082035574162148
0.0072043209913991
0.0063625614848681
0.0056519618821977
0.0050446588317851
0.0045256163664606
0.0040759047718796
0.0036873227864412
0.0033471514287815
0.003050191693632
0.0027878296395959
0.0025568600343108
0.0023510412309741
0.0021685262630061
0.0020047266493322
0.0018584524606889
0.0017263779977251
0.0016076076958965
0.001499862777818
0.0014021914279525
0.0013133099490042
0.0012321940552633
0.0011581342648401
0.0010901879517719
0.0010278113718986
0.00097033441712818
0.00091738614069089
0.00086845458103154
0.00082316087769473
0.00078115582952621
0.00074214117302343
0.00070584519033544
0.00067202912663994
0.00064047788464286
0.00061099834633615
0.00058341498730111
0.00055756968945609
0.00053332126771456
0.00051054757175208
0.00048913966677405
0.00046899556536275
0.00048856878263743
0.0023094874429282
0.0032330769923256
0.0032451015576914
0.003199838280696
0.0031520349419312
0.0031043193868691
0.0030572484586132
0.0030112892651893
0.002966630829697
0.0029232027777367
0.002880540602003
0.0028376302780643
0.0027928407194875
0.0027441836701376
0.002689979258088
0.0026377015012031
0.0025753409593485
0.0025154852380372
0.0024633316187032
0.0024225679196469
0.0023927589505762
0.0023714324071514
0.0023558600976487
0.0023438772455245
0.0023342315911898
0.0023262723869937
0.0023198447327841
0.0023149221236443
0.0023114171287526
0.0023091353753281
0.0023078375411193
0.0023072823090149
0.0023070777226225
0.0023066558331039
0.0023055976562509
0.0023040068152055
0.0023007722469143
0.0022964609536236
0.0022916290391383
0.0022863476239861
0.0022812036221815
0.0022768104876828
0.0022735968227892
0.0022719445858917
0.0022719550899538
0.0022736988566058
0.002277397695716
0.0022832902731509
0.0022913901002747
0.0023014542241607
0.0023126446543998
0.0023242935772799
0.0023360963798079
0.0023479787916281
0.0023597013001993
0.0023710834205594
0.0023822621948242
0.0023932659943724
0.0024040180859627
0.0024146042328684
0.0024251384264429
0.0024356540158962
0.0024462487289251
0.0024568025301771
0.0024671565248356
0.0024770612025349
0.0024862046258827
0.0024940826813264
0.0025000347262906
0.0025004109980065
0.0025200179309154
0.94177079088465
0.89869597810417
0.8369406223071
0.76104115258064
0.67649658038921
0.58943226468012
0.50434780388861
0.42421682087077
0.35121757534873
0.28580643933653
0.23084624145098
0.18416794074389
0.14582468113017
0.11505847012635
0.090697790771736
0.071667360213639
0.056939996044457
0.045599133881453
0.036844122955707
0.030044529576777
0.024742410745985
0.020581822486615
0.017280621974852
0.014637183462706
0.01250475308547
0.010766929805072
0.0093375118520401
0.008153006125022
0.0071651623017242
0.0063321354008505
0.0056265959430099
0.0050250589990915
0.0045083582564639
0.0040628649396177
0.0036755613872062
0.0033382036624753
0.0030419724429779
0.0027816126384999
0.0025510012572501
0.0023466140013712
0.0021643427646244
0.002001482721375
0.0018553882099546
0.0017238947975661
0.0016053556162279
0.0014978701347004
0.00140051685465
0.0013117241116235
0.0012309163862326
0.0011568701216726
0.001089128901161
0.0010268450624762
0.000969512296563
0.00091661786304637
0.00086773713534848
0.00082250422716841
0.00078055737375872
0.00074159628215565
0.0007053443035726
0.0006715675403856
0.00064005223992143
0.00061060544024392
0.0005830508188817
0.00055723135656693
0.00053300798696659
0.00051025868702192
0.00048887118742685
0.00046874799665158
0.00049104082679066
0.0023368835366905
0.0032336334437955
0.0032437737603545
0.0031986798806196
0.0031511078433039
0.0031035026871665
0.0030565429347158
0.003010661051399
0.0029660829214098
0.0029227331563532
0.0028801516667622
0.0028373323872674
0.0027926535588838
0.0027441306022154
0.0026900622091606
0.0026377286786965
0.002575550148444
0.0025155956748674
0.0024634115152007
0.0024225651066288
0.0023926844515858
0.0023712951390916
0.0023556921910918
0.0023437398167677
0.0023341268262177
0.0023262109809282
0.0023198192691012
0.0023149184832047
0.0023114220391138
0.0023091477720137
0.0023078493868064
0.002307260258651
0.0023070329880456
0.0023065616759114
0.0023054361139738
0.0023037693190467
0.0023006888528753
0.0022964164637776
0.0022916303809709
0.0022864072388108
0.0022813874479187
0.0022772207119193
0.0022742331537138
0.0022726445241885
0.00227260249742
0.0022744425780855
0.002278227513649
0.0022841724793739
0.0022922181551327
0.0023020477934487
0.002313019364916
0.0023245188408569
0.0023362082414835
0.0023479681639462
0.0023595903843423
0.0023709616206828
0.0023821253884923
0.0023931041565095
0.0024038593153576
0.0024144510047391
0.0024249757465222
0.0024354854912435
0.0024460788387768
0.0024565989498101
0.0024669189210596
0.0024767801441876
0.0024858664785705
0.0024936124195597
0.0024990095608714
0.0024997366623774
0.0025192801833739
0.9323551195421
0.86895956928745
0.78454691885203
0.68965956805311
0.59715947917387
0.50979087978562
0.43155767936966
0.36227185158161
0.30132817366592
0.24795385066074
0.20381997030703
0.16549309589913
0.13317013846502
0.10659975158451
0.085051893031484
0.067950938180616
0.054489481358805
0.043946026259221
0.035714619779029
0.029280089740351
0.024213381673251
0.020194689481542
0.017000241781573
0.014434007542689
0.012350970159208
0.010648658382577
0.0092477242645431
0.0080834471469468
0.0071087120014533
0.0062882948295831
0.0055910694221087
0.0049960562758898
0.0044845503763381
0.0040431465010182
0.0036592850589569
0.0033245300130657
0.003030630532107
0.00277193296566
0.0025428803531556
0.0023397477323314
0.0021584134507472
0.0019964809799568
0.0018509885017672
0.0017202302255069
0.0016020079259639
0.0014950855901294
0.0013979559517986
0.0013095599174391
0.0012289213777666
0.0011551235965052
0.0010875528716095
0.0010254309626983
0.00096827488129438
0.00091549310729296
0.00086672266087979
0.0008215720048414
0.00077970398080916
0.00074081401944332
0.00070462983771725
0.00067091504982163
0.00063945270873166
0.00061005097406013
0.00058253680206702
0.0005567562033574
0.00053256967336663
0.00050985361118102
0.00048849536359999
0.00046839987750118
0.00049511847613625
0.0023754800435871
0.0032340084565666
0.0032418317105873
0.0031970217324967
0.003149755066777
0.0031023362236734
0.0030555270345996
0.0030097608730244
0.0029652948949825
0.002922055297129
0.0028795879041437
0.0028368989994196
0.0027923794033249
0.0027440520486964
0.0026901978972912
0.0026380329181007
0.0025759941029742
0.0025160256480847
0.0024637472337189
0.002422761988005
0.0023927493025396
0.0023712673958236
0.0023556210799588
0.0023436706526266
0.0023340796326248
0.0023261971712557
0.0023198350598741
0.0023149517822848
0.0023114585205954
0.0023091725797245
0.0023078458634691
0.0023072085792374
0.0023069160025994
0.0023063634471962
0.0023051673577151
0.0023034642935548
0.0023004991348489
0.0022962938957989
0.0022916096534117
0.0022865333677388
0.0022817266907797
0.0022778331720909
0.002275081343648
0.002273631806496
0.0022737019690615
0.0022756471612842
0.0022795107801496
0.0022854427127953
0.0022933879086188
0.0023029439151163
0.0023136449182004
0.0023249519337921
0.0023364850431547
0.0023480903413005
0.0023596187645219
0.0023709595173314
0.0023821029382183
0.0023930607568502
0.0024037945026471
0.0024143854565289
0.0024249208840859
0.002435434662931
0.0024460225135343
0.002456493147294
0.0024667446854365
0.002476525499603
0.002485531481498
0.0024932061432469
0.0024985699250481
0.0024992501699147
0.0025175650502065
0.90081882049267
0.78444546822917
0.66086075098892
0.5543604103914
0.47005652096606
0.39995956650406
0.34165888076978
0.29146569783959
0.24778911637684
0.20947857705848
0.1752054304888
0.1450347941216
0.11897209453754
0.0969056047577
0.078582712026469
0.06359461528783
0.051547734885764
0.041961665216848
0.034354997122053
0.028324212714602
0.023538103946495
0.019724461973037
0.016651511140713
0.014171859199271
0.012155878360331
0.01050196981487
0.0091325643797907
0.0079935373278218
0.0070382053346559
0.0062314626781095
0.0055455574694171
0.0049588644377615
0.0044542568408477
0.0040176535826567
0.0036384522021167
0.0033068718930706
0.0030159310396737
0.0027593761407283
0.0025324445124827
0.0023306523491654
0.0021507792448632
0.0019898238852025
0.0018453297266236
0.001715239891869
0.0015976960497889
0.0014913129363286
0.0013946116648626
0.0013066400262368
0.0012262813387841
0.0011528268226095
0.001085456374684
0.0010235617217718
0.00096657814535076
0.0009139860513851
0.00086537248463874
0.0008203375508734
0.0007785744020709
0.00073977841307893
0.00070368590897025
0.00067005092128602
0.00063865778726105
0.00060931748686615
0.00058186023574894
0.00055613194442774
0.00053199288647303
0.00050931971532617
0.0004880024120721
0.00046794490094654
0.00050092493405312
0.0024235853390646
0.0032341518279881
0.0032393192726194
0.0031948949177329
0.003147992360149
0.0031008212468714
0.003054202835954
0.003008590494764
0.0029642680240071
0.0029211716155492
0.0028788529930433
0.0028363314785074
0.0027920177133787
0.0027439459498267
0.002690382350862
0.0026384686133645
0.0025765991065519
0.0025166599265054
0.0024642690419062
0.0024230848649904
0.002392875273792
0.0023712532413226
0.002355533935944
0.002343572167764
0.0023340100479293
0.002326171849557
0.0023198482516485
0.0023149867711942
0.0023114977336666
0.0023091984434147
0.0023078377594527
0.0023071349398483
0.0023067651604704
0.002306120851094
0.002304846732357
0.0023030708485048
0.0023002382496314
0.0022961586699243
0.0022916213030368
0.0022867416131898
0.0022822013524856
0.002278617024834
0.0022761419870065
0.0022748909204027
0.0022751082413436
0.0022771336779593
0.0022810685111476
0.0022869916566904
0.0022947902137244
0.0023040425744832
0.0023144170367891
0.0023254683582272
0.0023367906272078
0.0023482109997203
0.0023596046296514
0.0023708692464563
0.0023819598258709
0.0023928695935761
0.0024035729153298
0.0024141630777225
0.0024247072030503
0.0024352115460306
0.002445763979709
0.0024561443807097
0.0024662735977419
0.0024759185214514
0.0024847995620766
0.0024923349864635
0.002497552417611
0.0024977939749228
0.0025141567782406
0.67670568012649
0.48920665359612
0.41005817655934
0.36158018233258
0.32191118069711
0.28709171284744
0.25514266705232
0.22598853046199
0.19796505471983
0.17181372544207
0.14721532233669
0.12475616083682
0.10455954519776
0.086802769329724
0.071593722422642
0.058824917515044
0.048288495035046
0.039711618790196
0.032790964102749
0.027227388001107
0.022755066066162
0.019150548550902
0.016240172802729
0.013865377163979
0.011922343829039
0.010322389881218
0.0089963437284547
0.007885728567464
0.0069523387765228
0.0061627886520202
0.005490613749736
0.0049137063224349
0.0044172634923066
0.0039872891926995
0.0036129222997657
0.003285484820253
0.002998033864028
0.0027442990646457
0.0025195247746073
0.002319652661993
0.0021414110301659
0.0019816987636172
0.0018383213774433
0.0017091128241457
0.0015924156223906
0.0014866178426221
0.0013905029549146
0.0013029821182998
0.0012230592782959
0.0011499485465738
0.0010828579202897
0.0010212330000829
0.00096446613402058
0.00091209852286692
0.00086366438162549
0.00081879446761664
0.00077717143405336
0.00073849805300684
0.0007025120756333
0.0006689705404966
0.00063766581357646
0.00060840740708005
0.00058102296045016
0.00055535778603916
0.00053127604631965
0.00050865606991259
0.00048738959453013
0.00046738094005848
0.00050985155081256
0.0024802489509393
0.0032342954046562
0.0032363569335185
0.0031923471045312
0.0031458378751408
0.0030989597436801
0.0030525696848223
0.0030071490428719
0.0029630010175357
0.0029200776995273
0.0028779392402592
0.0028356222543273
0.0027915601152753
0.0027438030236676
0.0026906024811017
0.0026390071007197
0.002577353706694
0.0025174659498618
0.0024649236038497
0.0024234879018172
0.002393033118221
0.0023712348102786
0.0023554240503345
0.0023434453565099
0.0023339152000708
0.0023261283680659
0.0023198507350299
0.0023150165763341
0.0023115323083183
0.0023092152356896
0.0023078127262431
0.0023070390245334
0.0023065698482723
0.0023058250281542
0.0023045048078305
0.0023026443365128
0.0022999369686839
0.002295990840023
0.0022916365863729
0.0022870152321552
0.0022827972707367
0.0022795437400701
0.0022773615081338
0.0022763331041598
0.002276772017448
0.0022788867886179
0.0022828819683458
0.0022887920291098
0.0022963962074859
0.0023053468308424
0.0023153825814259
0.0023261378895687
0.0023371970953957
0.0023483726722149
0.0023596142572884
0.002370779374008
0.0023817945982346
0.0023926379277059
0.0024032953014744
0.0024138580596906
0.0024243734619196
0.0024348195575194
0.0024452734211026
0.0024555037238258
0.0024654426572766
0.0024748832155582
0.0024835796292335
0.0024909053356286
0.002495892259941
0.0024955420818921
0.002509394880213
0.022790215514328
0.15554758883417
0.19118765536345
0.20461975134877
0.20662030607686
0.20056076254578
0.18885973591033
0.17455174083058
0.1587920374147
0.14238288548835
0.12590467652567
0.10974512273616
0.094386935181928
0.080198097215361
0.067476174133388
0.056391786129256
0.04694187158246
0.039040413954582
0.032520092820819
0.027183811652369
0.022833867129482
0.019291556189355
0.016400011193495
0.014037746085889
0.01209009161534
0.010475113548657
0.0091345550605622
0.0080128644197795
0.0070669976143279
0.0062638073222679
0.0055804768166772
0.0049949697855479
0.0044896457319514
0.0040516184701893
0.0036706344482276
0.0033375196781856
0.0030445846006062
0.0027862937428677
0.002557546686859
0.0023541287350555
0.0021725603193254
0.0020100758203715
0.0018642081236784
0.0017327414424153
0.0016139736383846
0.001506373234077
0.0014086681432888
0.0013196663438428
0.0012384123746339
0.0011640863753266
0.0010959336442719
0.0010333312361941
0.00097566222797758
0.00092247197068626
0.00087331423380262
0.00082780395619414
0.00078557963026288
0.00074633836232332
0.00070983286042615
0.00067582291434131
0.0006440908242495
0.00061443583082104
0.00058668648928769
0.00056068991414487
0.00053630482274698
0.0005134053388627
0.00049187187233801
0.00047159908081241
0.00046614986876976
0.0019498475760569
0.0031962773222624
0.0032422954158067
0.0032007001227724
0.0031549175587871
0.0031083801311073
0.0030620873396276
0.0030166259992017
0.0029723582131992
0.0029293539385185
0.0028872929284473
0.0028453740020955
0.0028021994150755
0.0027559036991978
0.0027045998939785
0.0026396251317674
0.0025782464062043
0.0025184147602475
0.0024657106234297
0.0024239732311286
0.0023932185118302
0.0023712006607985
0.0023552713082335
0.0023432637106093
0.0023337665802761
0.002326039635253
0.0023198186846478
0.0023150212983803
0.0023115480952156
0.0023092150035159
0.0023077678491744
0.0023069166352655
0.0023063265399933
0.0023054596253084
0.0023040454532643
0.0023018413844166
0.0022993691415896
0.0022956316629317
0.0022916349725366
0.0022875329140632
0.0022839122102493
0.0022812226032889
0.0022795287760802
0.0022788951063449
0.002279718385071
0.0022820119367331
0.0022860511250337
0.0022918655012657
0.0022991070842611
0.0023075672356969
0.0023170375042647
0.0023272293314885
0.0023377981641967
0.0023485835141826
0.0023594712026867
0.0023703568202338
0.0023811601085273
0.0023918076497407
0.0024023251661164
0.0024127637019661
0.0024231570163761
0.0024334039055488
0.0024435586017776
0.0024534275377686
0.0024629063876122
0.0024717825712161
0.0024800133330183
0.0024868816507868
0.0024914527340311
0.0024901559468586
0.00249931528274
0.010075855063953
0.027122833379283
0.048450427871614
0.066166357807978
0.0796866396817
0.088656278721539
0.093356707104138
0.094515641949531
0.091887266681316
0.087348611074615
0.081361422385578
0.074276092135372
0.066642895232861
0.058846708917678
0.051262911774532
0.044199153741867
0.037833345052802
0.032241879306298
0.027434081311542
0.023359723626074
0.019937042248621
0.017077024952758
0.014691198989678
0.012698750868956
0.011033335173782
0.0096382887301089
0.0084623097793522
0.0074638927949403
0.0066166852848012
0.0058932926989224
0.0052725501391576
0.0047356186809989
0.0042706519715626
0.0038659714944917
0.0035121178248359
0.0032007694022502
0.0029264349073021
0.002683647066233
0.0024679727006454
0.0022754683456894
0.0021032797126809
0.0019488288446712
0.0018098200238983
0.0016842828293853
0.0015706028251037
0.0014674780477907
0.0013736349311104
0.0012880298850874
0.0012097333024408
0.0011380288057119
0.0010722007254221
0.0010116344006007
0.00095579745475444
0.0009042301348241
0.0008565421747777
0.00081235112976858
0.00077132902384886
0.00073317458547624
0.00069763918704706
0.00066450479833003
0.00063356494434362
0.00060463554429108
0.00057754893765097
0.00055215896425473
0.00052832959884458
0.00050594204520099
0.00048488545425473
0.00046487297224387
0.00057076866878591
0.0026833233926935
0.00323600288365
0.0032255099509398
0.0031823973157286
0.0031371316510885
0.0030913287985146
0.0030458302082279
0.0030012044751277
0.0029577617001048
0.0029155226811086
0.0028740929057711
0.0028325816709389
0.0027895189260213
0.0027430267730926
0.0026913138228967
0.0026410361859949
0.0025803834739967
0.0025207141707881
0.0024676536971764
0.0024251759876475
0.0023936627978603
0.0023710749323381
0.0023548230818892
0.0023427157974747
0.002333277874856
0.0023256878998278
0.0023196075856511
0.0023149110274797
0.0023114803670429
0.002309123876227
0.0023075866930395
0.0023065737121863
0.0023057367980646
0.0023046588130841
0.002303100489874
0.0023007597713059
0.0022985146896417
0.002295142498856
0.0022916973019566
0.0022883290032298
0.0022854895171771
0.0022835254685916
0.002282446424643
0.0022824367682859
0.0022837074177161
0.0022863131095801
0.0022904534010441
0.0022961345684922
0.0023029561940465
0.0023108378168021
0.0023195989499535
0.0023289991560934
0.0023388208861024
0.0023489374666957
0.0023592087054294
0.0023695670144066
0.0023798894378362
0.002390032414692
0.0024000861396212
0.0024100027279655
0.0024198303418725
0.0024293499135055
0.0024384780214118
0.0024471288477883
0.0024552336141281
0.0024627784296266
0.0024697170781299
0.0024754499260788
0.0024789575067554
0.0024764213600528
0.0024782330078081
0.0079836949739115
0.011878410651729
0.019220836377391
0.028121168595846
0.036495843117367
0.043629147510028
0.049195710007824
0.05299142289872
0.055144564700572
0.055417238752013
0.053979487797488
0.051650274548902
0.048296591156792
0.044300636549817
0.039962798599017
0.035552141814988
0.031296888477762
0.027342035939738
0.02377068692982
0.020616881245281
0.017876010799808
0.015518913548848
0.013504512001499
0.01178864631624
0.010328132642375
0.0090851455903026
0.0080249451906246
0.007118229631367
0.00634058337215
0.005669625663776
0.0050891301813275
0.0045857256723366
0.0041470487845243
0.0037636313644841
0.0034260796624659
0.0031284123480398
0.002865239952639
0.0026316735247493
0.0024233951584463
0.0022371054588472
0.0020702625857481
0.0019202386347185
0.0017849449314677
0.001662459499564
0.0015515023030976
0.0014506386826064
0.0013587625962733
0.0012747971947371
0.0011979516178197
0.0011275007076763
0.0010627573562851
0.0010031375732942
0.00094811236909261
0.00089728841738116
0.00085024649145445
0.00080663026938824
0.00076611420713099
0.00072841479636447
0.00069330153755258
0.00066053880891013
0.00062992850193647
0.00060129209439734
0.00057446974266347
0.00054932517763712
0.00052572316423604
0.00050353492172737
0.00048265265477636
0.00046267524180786
0.00065141452512224
0.0028212314184258
0.0032343049125424
0.0032161893485381
0.0031737999715948
0.0031294855955315
0.0030845451811661
0.0030398172271223
0.0029958803509518
0.0029530611398837
0.0029114038839475
0.0028705696490315
0.002829733658664
0.0027875126535211
0.0027420976628565
0.0026916785227664
0.0026425829325685
0.0025829002676623
0.0025235170740316
0.0024700827771154
0.002426702698379
0.0023942223411832
0.0023708718760531
0.0023541572955765
0.0023418684950709
0.002332455923456
0.0023250108508291
0.0023191026337357
0.0023145457217558
0.002311191800799
0.0023088380342694
0.0023072267642236
0.0023060623366107
0.0023050024970168
0.0023037402044986
0.0023020497351644
0.0022997062088649
0.002297722353755
0.0022947317838105
0.0022918679122421
0.0022891592267023
0.0022870095215465
0.0022857356955628
0.0022852842746308
0.0022859177807087
0.002287606193308
0.0022904960293056
0.0022947681055743
0.0023003649910386
0.0023068351385598
0.0023141784593769
0.0023222520764054
0.0023308637849949
0.0023398722478912
0.0023491838750778
0.0023586472640506
0.0023681286322243
0.0023774965014504
0.0023866133632798
0.0023955529005759
0.0024039650543356
0.0024119668766902
0.0024195041875157
0.0024265481538146
0.0024329971278618
0.0024386424421285
0.0024434952653389
0.0024473269857277
0.0024499246124487
0.0024505174076841
0.0024459956348444
0.0024434840424109
0.0063547451068888
0.0083929015558749
0.010635078882804
0.015049327922493
0.019969947252417
0.024665000269577
0.028863308552664
0.032293571177422
0.034861770787293
0.036449550336008
0.036818818397116
0.036344533364101
0.03519639570581
0.033344485096838
0.030978727582078
0.028353309525897
0.025611234205002
0.022904291902979
0.020336932389405
0.017969136961823
0.015833982471347
0.013940369165195
0.012279215828355
0.010832401361625
0.0095774770946714
0.0084910676741466
0.0075515257894194
0.0067381026324108
0.0060324239733018
0.0054189564905881
0.00488440746634
0.0044171441584453
0.0040068518211039
0.0036456826752487
0.0033270994185384
0.0030451337952975
0.0027947631405012
0.0025710973079443
0.0023712917069978
0.0021923830477048
0.0020315852661763
0.0018866997669143
0.0017555176226261
0.0016367666184626
0.0015289138201728
0.0014307560690717
0.0013410905643331
0.0012590705694415
0.0011839612749399
0.0011149833972844
0.001051536985487
0.00099300683509994
0.00093897592878262
0.00088902721118586
0.00084275956808684
0.00079982645153177
0.00075990055547341
0.00072274528633892
0.00068811713798615
0.00065579684188025
0.00062558633455322
0.00059730338680723
0.00057080049028704
0.00054594201609051
0.00052259479814153
0.00050064182477824
0.00047996574007707
0.00046043327953495
0.00081764543139176
0.0029475058712811
0.0032300733249708
0.0032051367679713
0.0031636065598646
0.0031203446079314
0.0030763965234408
0.0030325714368234
0.0029894608977299
0.0029473780514721
0.0029063980533688
0.0028662467852889
0.0028261789285241
0.0027849132607579
0.0027407281677095
0.0026918106203333
0.0026441382140571
0.0025857090768633
0.0025267925610179
0.0024730051325803
0.0024286062711545
0.0023949578087343
0.0023706352629888
0.0023532866829852
0.002340698519122
0.0023312456012319
0.0023239269452036
0.0023182066569017