/*--------------------------------*- C++ -*----------------------------------*\
| =========                 |                                                 |
| \\      /  F ield         | OpenFOAM: The Open Source CFD Toolbox           |
|  \\    /   O peration     | Version:  2312                                  |
|   \\  /    A nd           | Website:  www.openfoam.com                      |
|    \\/     M anipulation  |                                                 |
\*---------------------------------------------------------------------------*/
FoamFile
{
    version     2.0;
    format      ascii;
    arch        "LSB;label=32;scalar=64";
    class       volScalarField;
    location    "0.00013";
    object      yPlus;
}
// * * * * * * * * * * * * * * * * * * * * * * * * * * * * * * * * * * * * * //

dimensions      [0 0 0 0 0 0 0];

internalField   uniform 0;

boundaryField
{
    inlet
    {
        type            calculated;
        value           uniform 0;
    }
    outlet
    {
        type            calculated;
        value           uniform 0;
    }
    nozzleWalls
    {
        type            calculated;
        value           nonuniform List<scalar> 
144
(
35.086195645456
34.672375828757
34.241976916963
33.817444248861
33.405156676537
33.007238744569
32.624441184631
32.256693636083
31.904003337011
31.566354798309
31.243841175349
30.93665723478
30.645094594466
30.369548344036
30.110519464813
29.868587845804
29.644364774936
29.437857885559
29.246123939811
29.067006038842
28.900226939559
28.745801207831
28.603805838048
28.474353788061
28.357700653365
28.254294305711
28.164882937697
28.090675935981
28.033612910585
27.996874728164
27.986193710364
28.010523314503
28.089300924919
28.270142978859
28.721162064015
30.877273550849
35.325136852629
34.987542667868
34.564959414858
34.134912699539
33.713108045297
33.304282382649
32.910108236992
32.531100581616
32.167110752508
31.818179311679
31.484301473093
31.165598242994
30.862288308235
30.574688267786
30.303221184231
30.048409561188
29.810849423754
29.59112673926
29.388670865165
29.200184300831
29.024155311135
28.860460186187
28.709133086184
28.570259886191
28.443977147983
28.3305836364
28.230591703183
28.144845014399
28.074705231267
28.022359467636
27.991441187715
27.988482808515
28.023982581197
28.121841590013
28.344429384634
28.943705388645
35.177914122239
34.779088319504
34.349468747039
33.922561786694
33.506933963801
33.10530781596
32.718710535726
32.347221448451
31.990766712889
31.649353506734
31.323041598283
31.012001695315
30.716500758219
30.436907094109
30.173697659359
29.927433848778
29.698731158867
29.487940992735
29.292843476198
29.110627296816
28.940765467715
28.783246089705
28.638133835973
28.505529346521
28.385643879139
28.278869062716
28.185867502021
28.107712062909
28.046125600535
28.003908057538
27.985980846274
28.000359678241
28.06272764745
28.210272915723
28.559621457514
29.829772649769
35.260315507532
34.88450247167
34.457237052634
34.028408538828
33.609593694538
33.204328306114
32.813926160226
32.438692276926
32.078469096009
31.733295624822
31.403196182929
31.088317092383
30.788901085939
30.505290384082
30.237934636672
29.987377734569
29.754227963184
29.538996191063
29.340351713373
29.155019623528
28.982075042328
28.821466216975
28.673243398795
28.537499532882
28.414405168308
28.304302904716
28.207777117249
28.125779017562
28.059840347955
28.012432904447
27.987709954087
27.993118008207
28.041195241207
28.16159883209
28.438223812517
29.279453220841
)
;
    }
    tipWalls
    {
        type            calculated;
        value           nonuniform List<scalar> 
304
(
9.2155358706685
3.0176125198986
4.5517985813421
4.8700602988764
4.7578589353339
4.4715052932301
4.0531862880964
3.3787272153462
2.3626505629767
1.3078745869993
0.38782322693322
0.54963668409906
0.56022741982929
0.5045801580934
0.44328619122051
0.39209143924338
0.35232313305674
0.32170068702988
0.29677701633863
0.27551136254611
0.25690861749412
0.24034234568537
0.22549716373067
0.21207193944522
0.19997968043087
0.18910046133336
0.1793321758234
0.17057690264375
0.16274197490256
0.1557443099343
0.14951067730614
0.14397455834915
0.1390681099818
0.13471480958553
0.13082749839045
0.12731424933845
0.12409387543131
0.12110991163337
0.11833532555215
0.11576988903958
0.11343154641928
0.11134148828692
0.10951141126055
0.10793709154817
0.10659603640866
0.10544243197214
0.10442232129307
0.10347204593962
0.10253369903135
0.10157040731015
0.10057619259831
0.099588678704477
0.098664597744011
0.09786308439275
0.097220675785753
0.096735642336779
0.096370193907306
0.096060008000448
0.095721548140483
0.095281698321016
0.094698184407651
0.093973381614424
0.093171208348966
0.092518573804479
0.093694719740976
0.1782758242456
0.17822472933774
0.17719796091995
0.17606461765628
0.17492590397964
0.17382154259211
0.17278012910436
0.17184471760507
0.17112553276086
0.17091112286168
0.1722048307859
0.17866802575501
0.32457167281061
0.32508411633793
0.32391218201257
0.32278046789095
0.3214101206384
0.31986979400999
0.31834695699541
0.31695818594796
0.3157621649264
0.31480815384845
0.31414224073218
0.31378790298959
0.31375481187348
0.31424405639868
0.31527573303672
0.31717652042681
0.32000148782224
0.32329191157508
0.32524334262103
0.31495930874385
1.5810668011498
4.0300074704684
4.7960426435001
4.8441355633657
4.6283489883541
4.2832897442552
3.7580258242463
2.9124104052408
1.800625819248
0.86122824351542
0.42571710362492
0.5724759155617
0.53687797159438
0.47264935598321
0.41602834053502
0.37071353097061
0.33613136120464
0.30874557120525
0.28576965577418
0.26591370045485
0.24838866468942
0.23272994205672
0.21861081044121
0.2058681228749
0.1943951107099
0.18408366410348
0.17483388863438
0.16654983185949
0.15914327450296
0.152536256955
0.14665946871958
0.14144719973485
0.13682751533711
0.13271872695451
0.12902963451456
0.12567166701703
0.1225747155136
0.119697021757
0.11702561698139
0.11457088881362
0.11235445114501
0.11039373577883
0.10869331129723
0.10723975353187
0.10599915797826
0.10491953492569
0.10394241927643
0.10300426668861
0.10205639001772
0.10107583759509
0.10007833377278
0.099114794409698
0.098245416846156
0.097521178598259
0.096960069779391
0.096541536434232
0.096213303860107
0.095899442505338
0.095517824532612
0.095008931654963
0.09435134952662
0.093573801469811
0.092796705084368
0.092549269204038
0.094171005441974
0.17874277011109
0.17774263328574
0.17663528941277
0.17549295344267
0.17436796575325
0.17329159399226
0.172295242582
0.17144185707583
0.17089860003655
0.17125178575919
0.17420727471003
0.17925738810256
22.549502882589
2.1394290593327
4.3302608668864
4.8488149526808
4.8073571634811
4.5529901887619
4.1750194436426
3.5808139458308
2.6444979021488
1.5414924778682
0.63041123584051
0.50411862428705
0.56929858294982
0.52171181494532
0.45725174522506
0.40398010779161
0.3612294041412
0.3287044459237
0.30263554218389
0.2805598470355
0.26134737208166
0.24430689286848
0.22906846286105
0.21529784876442
0.2028851248746
0.19171223156164
0.18167548895754
0.17267597246687
0.16461914868698
0.15741938746646
0.15100117089312
0.14529674848717
0.14023971127544
0.13575586470135
0.1317607299347
0.12816227287855
0.12487510180397
0.12183571364415
0.11900975657202
0.116390844573
0.11399358512197
0.11183986929381
0.10994442332493
0.10830761261766
0.10691159680501
0.10571615426401
0.10466825135119
0.1037064960401
0.10276962345669
0.10181452198027
0.10082618082622
0.099832027635267
0.098886252631332
0.098049361490011
0.097365791265361
0.096843648590814
0.096453520223992
0.096136893529356
0.095813234512023
0.09540413769156
0.094858262574771
0.094165821753834
0.093371380916192
0.092639721621634
0.092849800589101
3.2889459591094
3.6236721266175
4.7001366307722
4.8659720066978
4.6970295068913
4.3816937649662
3.9152415013398
3.1574283574958
2.0735583634645
1.0871611372847
0.3149681790666
0.56808617247625
0.54878393235249
0.48909820102099
0.4292018533691
0.38092196963596
0.34398735675617
0.31508057834997
0.29116286132693
0.27063086793089
0.2525882330728
0.23648586513395
0.22201107510716
0.20892965914603
0.19715041298047
0.18655816498782
0.17705211854944
0.16853530301088
0.16091708420229
0.15411695546229
0.14806377434692
0.14269176407765
0.13793114621927
0.13370293108169
0.12991759583885
0.12648440077839
0.12332727709723
0.12039706100285
0.11767387254952
0.1151631124774
0.11288508151619
0.11085942472636
0.10909447127789
0.10758134022907
0.10629218291759
0.10517723547781
0.10418071022935
0.10323822110473
0.1022960575052
0.10132411216186
0.10032666871658
0.099349267203268
0.098450720389768
0.097686955727968
0.097085568699055
0.096635249214628
0.096290577736838
0.09598129241773
0.095623374689997
0.095150053167706
0.094529038944574
0.093775299408977
0.092977601678009
0.09246246799952
0.095846559263953
)
;
    }
    wedge1
    {
        type            wedge;
    }
    wedge2
    {
        type            wedge;
    }
    defaultFaces
    {
        type            empty;
    }
}


// ************************************************************************* //
