/*--------------------------------*- C++ -*----------------------------------*\
| =========                 |                                                 |
| \\      /  F ield         | OpenFOAM: The Open Source CFD Toolbox           |
|  \\    /   O peration     | Version:  2312                                  |
|   \\  /    A nd           | Website:  www.openfoam.com                      |
|    \\/     M anipulation  |                                                 |
\*---------------------------------------------------------------------------*/
FoamFile
{
    version     2.0;
    format      ascii;
    arch        "LSB;label=32;scalar=64";
    class       volScalarField;
    location    "0.003";
    object      alphat;
}
// * * * * * * * * * * * * * * * * * * * * * * * * * * * * * * * * * * * * * //

dimensions      [1 -1 -1 0 0 0 0];

internalField   nonuniform List<scalar> 
48128
(
1.1466e-07
1.48337e-07
1.9814e-07
2.00466e-07
1.85022e-07
1.60622e-07
1.32974e-07
1.0669e-07
8.20053e-08
5.68162e-08
1.3537e-07
8.52209e-07
2.80412e-06
5.11418e-06
7.0462e-06
8.63464e-06
9.97803e-06
1.11537e-05
1.22313e-05
1.32547e-05
1.42566e-05
1.52598e-05
1.62794e-05
1.73262e-05
1.84142e-05
1.95537e-05
2.07588e-05
2.20637e-05
2.34636e-05
2.49895e-05
2.66388e-05
2.84223e-05
3.0359e-05
3.24654e-05
3.47369e-05
3.72284e-05
3.99572e-05
4.29532e-05
4.61113e-05
4.95441e-05
5.31799e-05
5.69707e-05
6.098e-05
6.52547e-05
6.96895e-05
7.42938e-05
7.88693e-05
8.38573e-05
8.87273e-05
9.36483e-05
9.81653e-05
0.000103164
0.0001079
0.000112874
0.000117115
0.000122748
0.000129028
0.000134986
0.000140908
0.000146528
0.000151963
0.000157038
0.000161791
0.000166333
0.000170666
0.000174828
0.000178752
0.000182451
0.000184587
0.000177223
0.000170458
0.000164251
0.000158686
0.00015346
0.000148645
0.000144131
0.000139895
0.000135965
0.000132213
0.000128712
0.000125387
0.000122366
0.000119421
0.000116736
0.00011413
0.000111752
0.000109421
0.000107299
0.000105221
0.000103323
0.000101465
9.97735e-05
9.81324e-05
9.661e-05
9.51099e-05
9.36701e-05
9.22574e-05
9.09568e-05
8.97806e-05
8.87129e-05
8.77312e-05
8.68052e-05
8.58913e-05
8.50073e-05
8.41768e-05
8.33983e-05
8.26851e-05
8.20106e-05
8.13885e-05
8.08019e-05
8.02735e-05
7.97883e-05
7.93566e-05
7.89624e-05
7.86049e-05
7.82703e-05
7.79386e-05
7.7524e-05
7.70904e-05
7.65149e-05
7.60627e-05
7.61437e-05
7.58581e-05
7.55545e-05
7.55269e-05
7.54181e-05
7.52867e-05
7.5164e-05
7.50154e-05
7.48575e-05
7.46831e-05
7.45149e-05
7.43528e-05
7.41867e-05
7.40174e-05
7.38367e-05
7.36778e-05
7.35436e-05
7.34201e-05
7.33052e-05
7.31993e-05
7.3103e-05
7.30185e-05
7.29426e-05
7.28798e-05
7.28255e-05
7.27717e-05
7.27191e-05
7.26528e-05
7.25833e-05
7.25017e-05
7.24258e-05
7.23532e-05
7.22809e-05
7.22039e-05
7.21125e-05
7.20148e-05
7.18838e-05
7.17441e-05
7.16107e-05
7.14628e-05
7.13339e-05
7.12655e-05
7.118e-05
7.11055e-05
7.10537e-05
7.10073e-05
7.09785e-05
7.09489e-05
7.09209e-05
7.08853e-05
7.08435e-05
7.07915e-05
7.07329e-05
7.0661e-05
7.05774e-05
7.04896e-05
7.04012e-05
7.03038e-05
7.02147e-05
7.01437e-05
7.00835e-05
7.00305e-05
7.00041e-05
6.99793e-05
6.99549e-05
6.99353e-05
6.99203e-05
6.99024e-05
6.98724e-05
6.98294e-05
6.97759e-05
6.97165e-05
6.96425e-05
6.95739e-05
6.95031e-05
6.94423e-05
6.93869e-05
6.93371e-05
6.92974e-05
6.92658e-05
6.92402e-05
6.92271e-05
6.92143e-05
6.91983e-05
6.91771e-05
6.91467e-05
6.91194e-05
6.90847e-05
6.89926e-05
6.89389e-05
6.88886e-05
6.88376e-05
6.87878e-05
6.87412e-05
6.87003e-05
6.8672e-05
6.8647e-05
6.86247e-05
6.86056e-05
6.85905e-05
6.857e-05
6.85516e-05
6.8522e-05
6.84697e-05
6.84313e-05
6.83826e-05
6.83274e-05
6.82832e-05
6.82403e-05
6.81981e-05
6.8158e-05
6.81267e-05
6.80986e-05
6.80729e-05
6.80497e-05
6.80285e-05
6.8006e-05
6.79844e-05
6.79325e-05
8.59587e-07
6.75879e-07
4.71033e-07
3.1526e-07
2.34055e-07
1.91451e-07
1.96394e-07
3.34663e-07
7.0207e-07
1.32148e-06
2.85775e-06
5.88541e-06
1.0778e-05
1.84272e-05
2.69877e-05
3.62189e-05
4.5577e-05
5.47482e-05
6.37861e-05
7.27959e-05
8.19923e-05
9.14704e-05
0.000101559
0.000112222
0.000123722
0.000136068
0.00014946
0.00016397
0.000179124
0.000196243
0.000214795
0.000234381
0.000255427
0.000277935
0.000301078
0.000325597
0.000349391
0.000375449
0.000402289
0.000430872
0.000460923
0.000491449
0.00052286
0.000555356
0.000587635
0.000620807
0.000653217
0.00068874
0.000724068
0.0007606
0.000793337
0.000829531
0.000864028
0.000900527
0.000931774
0.00096304
0.000993098
0.00102002
0.00104568
0.00106934
0.00109114
0.00111035
0.00112748
0.00114284
0.00115673
0.00116941
0.00118035
0.00118973
0.00119761
0.00120429
0.00121113
0.00121552
0.00121938
0.00122127
0.00122163
0.00122126
0.0012184
0.00121547
0.00121029
0.00120503
0.0011976
0.00119078
0.0011823
0.00117441
0.00116494
0.00115599
0.00114554
0.00113561
0.00112463
0.00111431
0.00110314
0.00109252
0.00108135
0.00107062
0.00105945
0.00104826
0.00103663
0.00102512
0.00101389
0.00100308
0.000992657
0.000982697
0.000972742
0.000962773
0.000953069
0.000943479
0.000934312
0.00092522
0.000916623
0.000908103
0.000900144
0.000892386
0.000885206
0.000878247
0.000871865
0.000865497
0.000859721
0.000853009
0.000846372
0.000838727
0.000831821
0.000827479
0.000821084
0.000815106
0.000810791
0.000806704
0.000802828
0.000799421
0.000795836
0.000792224
0.000788385
0.00078457
0.000780733
0.000776876
0.000772901
0.000768901
0.000764911
0.000761165
0.000757481
0.000754014
0.000750675
0.00074746
0.000744486
0.000741578
0.000738787
0.000734748
0.000730629
0.000726526
0.000722449
0.000718509
0.000714566
0.000710731
0.000706916
0.000703271
0.000699755
0.000696262
0.000692837
0.00068923
0.000685714
0.000682129
0.000678598
0.000674895
0.000671536
0.00066817
0.000664896
0.000661871
0.000658882
0.000656249
0.000653659
0.000651304
0.000649108
0.000646966
0.000645051
0.000643017
0.000641256
0.000639279
0.00063743
0.000635449
0.00063343
0.000631354
0.000629188
0.000627167
0.000625068
0.00062339
0.000621692
0.000620109
0.000618635
0.000617293
0.000616041
0.00061496
0.000613855
0.000612846
0.000611564
0.000610628
0.000609414
0.000608228
0.000606904
0.000605569
0.000604264
0.000602992
0.00060181
0.000600656
0.00059966
0.000598755
0.000597938
0.000597246
0.000596588
0.000596003
0.000595309
0.000594715
0.000593932
0.000593134
0.000592282
0.000591365
0.000590438
0.000589485
0.000588668
0.00058785
0.000587123
0.000586448
0.000585869
0.000585416
0.000584974
0.000584613
0.000584193
0.000583724
0.000583141
0.000582607
0.000581999
0.000581343
0.000580643
0.000579919
0.000579262
0.000578658
0.000578085
0.000577607
0.000577164
0.000576792
0.000576491
0.000575998
1.14783e-06
1.28418e-06
1.36415e-06
9.61015e-07
6.47567e-07
6.98768e-07
1.29308e-06
2.5846e-06
4.78821e-06
8.61874e-06
1.55261e-05
2.82548e-05
4.84342e-05
7.73398e-05
0.000108729
0.000139737
0.00016852
0.000195077
0.00021978
0.000243388
0.000266683
0.00028934
0.000313074
0.000337276
0.000362746
0.000389356
0.000417467
0.000447268
0.00047834
0.00051156
0.000546282
0.00058257
0.000620743
0.0006604
0.000700377
0.000742404
0.000785262
0.000831317
0.000878036
0.000926943
0.000978077
0.00102974
0.00108215
0.00113603
0.001189
0.00124312
0.00129482
0.00135094
0.00140601
0.00146296
0.00151346
0.00156839
0.00162057
0.00167474
0.00172172
0.00177011
0.00181579
0.00185781
0.00189816
0.00193591
0.00197049
0.0020014
0.00202939
0.00205478
0.00207797
0.00209925
0.00211798
0.00213451
0.00214869
0.0021592
0.00216896
0.00217443
0.00217958
0.00218143
0.00218154
0.00218013
0.00217572
0.00217083
0.00216263
0.00215445
0.00214298
0.00213244
0.00211901
0.00210649
0.00209124
0.00207698
0.00206014
0.0020443
0.00202646
0.00200975
0.00199152
0.00197424
0.00195588
0.00193816
0.00191943
0.00190043
0.00188065
0.00186103
0.00184189
0.00182338
0.00180542
0.00178801
0.0017704
0.00175262
0.00173522
0.0017179
0.00170127
0.00168461
0.00166876
0.00165287
0.00163792
0.00162315
0.00160937
0.00159581
0.00158326
0.00157043
0.00155879
0.00154505
0.00153165
0.00151657
0.00150218
0.00149275
0.00148017
0.00146758
0.00145802
0.001449
0.00144015
0.00143188
0.00142327
0.00141462
0.00140562
0.00139664
0.00138764
0.00137863
0.00136945
0.00136023
0.00135108
0.00134235
0.0013338
0.00132559
0.00131758
0.00130988
0.00130244
0.00129536
0.00128853
0.00128218
0.00127605
0.00127031
0.00126457
0.0012591
0.00125358
0.00124823
0.00124305
0.001238
0.00123305
0.00122798
0.00122287
0.00121725
0.00121147
0.00120555
0.00119956
0.00119358
0.00118835
0.00118303
0.00117817
0.00117357
0.00116946
0.00116561
0.00116213
0.00115885
0.0011557
0.00115265
0.00114951
0.00114643
0.00114307
0.00113948
0.0011357
0.00113181
0.00112773
0.00112361
0.00111965
0.00111586
0.00111239
0.00110931
0.00110652
0.00110394
0.00110161
0.00109956
0.00109767
0.00109579
0.00109377
0.0010916
0.00108926
0.00108676
0.0010841
0.00108134
0.00107854
0.00107581
0.00107314
0.00107067
0.0010685
0.00106649
0.00106489
0.00106345
0.00106216
0.00106094
0.00105964
0.00105846
0.00105699
0.00105516
0.00105338
0.00105151
0.00104957
0.00104758
0.00104566
0.00104378
0.00104224
0.0010408
0.00103958
0.00103847
0.00103762
0.00103676
0.00103606
0.00103519
0.0010341
0.00103303
0.00103174
0.00103035
0.00102896
0.00102756
0.00102615
0.00102475
0.00102352
0.00102247
0.00102151
0.00102075
0.00102005
0.00101949
0.00101897
0.00101792
1.36173e-06
2.13203e-06
2.85845e-06
2.08249e-06
1.8985e-06
2.97561e-06
5.28008e-06
9.43634e-06
1.64105e-05
2.87761e-05
5.12187e-05
8.66e-05
0.000134616
0.000190637
0.000244068
0.000291961
0.000333915
0.000371909
0.000406857
0.000439634
0.000471832
0.00050346
0.000536075
0.000569247
0.000603795
0.000639624
0.000676982
0.000716023
0.000756543
0.000799067
0.000842962
0.000888642
0.000935463
0.000984171
0.00103344
0.00108476
0.00113725
0.001193
0.00124897
0.00130655
0.00136629
0.00142657
0.00148727
0.00154965
0.00161074
0.00167281
0.00173132
0.00179412
0.00185536
0.00191818
0.00197454
0.00203479
0.00209207
0.00215061
0.00220274
0.00225725
0.00230782
0.00235554
0.0024017
0.00244481
0.00248457
0.0025211
0.00255511
0.00258658
0.0026157
0.00264271
0.00266691
0.00268931
0.00270911
0.0027246
0.00273975
0.00274998
0.00276036
0.0027665
0.00277119
0.0027734
0.00277312
0.00277198
0.00276707
0.00276224
0.0027541
0.00274692
0.00273614
0.00272607
0.00271299
0.00270066
0.00268563
0.00267139
0.00265492
0.00263929
0.00262199
0.00260562
0.00258791
0.00257073
0.002552
0.00253256
0.00251202
0.00249159
0.00247178
0.00245262
0.00243403
0.00241579
0.00239703
0.00237786
0.00235898
0.00234007
0.0023219
0.00230359
0.00228614
0.0022685
0.00225191
0.00223542
0.00222008
0.00220489
0.00219083
0.00217636
0.00216315
0.00214696
0.00213091
0.002113
0.00209481
0.00208371
0.00206964
0.00205458
0.0020432
0.00203285
0.00202235
0.00201217
0.00200151
0.00199074
0.00197942
0.00196801
0.00195649
0.00194486
0.00193296
0.00192089
0.00190888
0.00189738
0.00188607
0.00187517
0.00186446
0.00185416
0.00184409
0.0018345
0.00182518
0.00181642
0.00180786
0.00179982
0.00179168
0.00178389
0.00177597
0.00176831
0.00176078
0.00175345
0.00174615
0.00173873
0.00173117
0.00172293
0.00171442
0.00170577
0.00169699
0.0016882
0.0016804
0.00167264
0.00166537
0.00165852
0.00165231
0.0016465
0.00164115
0.00163606
0.00163113
0.00162631
0.00162134
0.00161641
0.00161107
0.00160547
0.00159957
0.00159357
0.00158724
0.00158101
0.00157494
0.00156923
0.00156383
0.00155905
0.00155456
0.00155045
0.00154661
0.00154324
0.00153998
0.00153679
0.00153338
0.0015298
0.00152601
0.00152184
0.00151756
0.00151312
0.00150874
0.00150444
0.00150022
0.00149638
0.00149288
0.00148968
0.00148696
0.00148451
0.00148224
0.0014801
0.00147786
0.00147577
0.00147329
0.00147021
0.00146721
0.00146422
0.00146116
0.00145805
0.00145507
0.00145216
0.00144974
0.00144745
0.00144546
0.00144365
0.00144217
0.00144066
0.00143944
0.00143792
0.00143608
0.0014343
0.00143226
0.00143009
0.00142792
0.00142577
0.00142362
0.00142155
0.00141971
0.0014181
0.00141662
0.0014154
0.00141428
0.00141334
0.00141246
0.00141079
1.53254e-06
4.06214e-06
5.74656e-06
4.11175e-06
5.33243e-06
8.2129e-06
1.35963e-05
2.31005e-05
4.01961e-05
7.05265e-05
0.000117018
0.000180284
0.000250644
0.000320045
0.000383143
0.000439025
0.000489196
0.00053349
0.000574585
0.000613425
0.000651387
0.000688816
0.000726895
0.000765519
0.000805283
0.000846185
0.000888351
0.000931943
0.000976806
0.00102331
0.00107074
0.00111941
0.00116894
0.00122044
0.00127234
0.00132625
0.00138106
0.00143896
0.00149667
0.00155507
0.00161555
0.00167633
0.0017374
0.00180006
0.00186053
0.00192129
0.00197764
0.00203772
0.0020959
0.00215483
0.00220797
0.00226506
0.00231909
0.00237115
0.00240932
0.0024602
0.00248732
0.00252927
0.00256744
0.00260434
0.00264369
0.00268145
0.00272887
0.00277132
0.00281639
0.0028508
0.00289172
0.00293073
0.00296136
0.0029826
0.00300281
0.00301793
0.00303351
0.00304397
0.00305383
0.00306027
0.00306513
0.0030688
0.00306905
0.00306943
0.00306738
0.00306608
0.00306115
0.00305641
0.0030488
0.00304149
0.00303176
0.00302253
0.00301113
0.00300021
0.00298777
0.0029761
0.00296299
0.00295025
0.00293552
0.00291974
0.00290272
0.00288566
0.00286933
0.00285349
0.00283818
0.00282295
0.00280697
0.0027904
0.00277396
0.00275739
0.00274149
0.00272536
0.00271
0.00269438
0.00267975
0.00266518
0.0026517
0.00263835
0.00262607
0.00261339
0.00260166
0.00258681
0.00257143
0.00255461
0.00253623
0.00252596
0.00251411
0.0025003
0.00248979
0.00248071
0.00247134
0.00246193
0.00245197
0.0024419
0.00243107
0.00242006
0.00240879
0.00239731
0.00238544
0.00237329
0.00236112
0.00234944
0.00233793
0.00232682
0.00231585
0.0023053
0.00229496
0.00228508
0.00227549
0.00226646
0.00225763
0.00224932
0.00224082
0.00223268
0.00222429
0.00221618
0.0022081
0.00220027
0.00219232
0.00218424
0.00217584
0.00216668
0.0021571
0.00214736
0.00213741
0.00212732
0.00211838
0.00210963
0.00210131
0.00209353
0.00208642
0.00207983
0.00207375
0.00206799
0.00206239
0.00205687
0.00205112
0.00204539
0.00203907
0.00203244
0.00202542
0.00201826
0.00201062
0.00200312
0.00199579
0.00198901
0.00198245
0.0019767
0.00197126
0.00196635
0.00196171
0.00195762
0.00195363
0.00194972
0.00194552
0.00194106
0.00193635
0.00193119
0.0019258
0.00192026
0.00191478
0.00190938
0.00190409
0.00189932
0.0018949
0.0018909
0.00188743
0.00188434
0.00188143
0.00187869
0.00187582
0.0018731
0.00186996
0.00186602
0.00186211
0.00185822
0.00185432
0.00185034
0.00184655
0.00184286
0.00183978
0.00183688
0.00183435
0.00183204
0.00183014
0.0018282
0.00182657
0.00182462
0.00182225
0.00181992
0.00181731
0.00181453
0.00181174
0.00180901
0.00180629
0.00180369
0.00180139
0.00179938
0.00179752
0.00179597
0.00179457
0.00179337
0.00179225
0.00179016
1.68391e-06
7.61399e-06
9.93147e-06
7.84989e-06
1.07782e-05
1.6621e-05
2.73949e-05
4.68274e-05
8.16996e-05
0.000134798
0.000205931
0.000285236
0.000365319
0.000440375
0.000508145
0.000569422
0.000622638
0.000670925
0.000715813
0.000758245
0.000799496
0.000840079
0.000880847
0.000921955
0.000963727
0.00100633
0.00104976
0.00109423
0.00113945
0.00118575
0.00123233
0.00128009
0.00132826
0.00137831
0.00142828
0.00147953
0.00153093
0.00158525
0.00163873
0.00169152
0.00174644
0.00180101
0.00185599
0.00191253
0.00194786
0.00196657
0.00198861
0.00201085
0.00202724
0.0020407
0.0020688
0.00210181
0.00212249
0.00214942
0.00217155
0.00223248
0.00225655
0.00228337
0.00232933
0.00235464
0.00239792
0.00242467
0.00247497
0.00251099
0.0025546
0.0025833
0.00262109
0.00265683
0.00269133
0.00273161
0.00276517
0.00280669
0.00284316
0.00288005
0.00291631
0.00294911
0.0029869
0.00301949
0.00305247
0.00308597
0.00312327
0.00315472
0.00316649
0.00316792
0.00316686
0.00316567
0.00316257
0.00315978
0.00315502
0.00315058
0.00314458
0.00313926
0.00313242
0.00312582
0.00311682
0.00310668
0.00309524
0.00308365
0.0030728
0.00306217
0.00305195
0.00304154
0.0030303
0.00301837
0.00300639
0.00299416
0.00298243
0.00297039
0.002959
0.0029473
0.00293642
0.00292558
0.00291566
0.00290585
0.00289701
0.00288772
0.00287897
0.00286724
0.00285453
0.00284094
0.00282506
0.00281675
0.00280878
0.00279848
0.00279033
0.00278381
0.00277713
0.00277008
0.00276246
0.00275474
0.00274615
0.00273731
0.00272805
0.00271848
0.00270848
0.00269815
0.0026877
0.00267769
0.00266777
0.00265824
0.0026488
0.00263975
0.00263088
0.0026224
0.0026142
0.0026065
0.00259902
0.002592
0.00258472
0.00257778
0.00257051
0.00256353
0.00255646
0.00254966
0.0025426
0.00253536
0.00252768
0.00251919
0.00251017
0.00250097
0.00249149
0.00248164
0.00247303
0.0024648
0.00245684
0.00244947
0.00244273
0.0024366
0.00243097
0.00242571
0.00242055
0.0024155
0.0024101
0.00240468
0.00239856
0.00239206
0.00238509
0.00237791
0.00237017
0.00236257
0.00235507
0.00234823
0.00234155
0.00233581
0.00233036
0.00232558
0.00232102
0.00231704
0.00231314
0.00230931
0.00230515
0.00230062
0.00229579
0.00229045
0.00228481
0.00227901
0.00227319
0.00226753
0.0022619
0.00225695
0.00225227
0.0022481
0.00224448
0.00224135
0.00223836
0.00223559
0.00223265
0.00222981
0.00222657
0.00222239
0.00221814
0.00221389
0.0022097
0.00220536
0.00220126
0.00219727
0.00219401
0.00219091
0.00218828
0.00218586
0.00218393
0.00218195
0.00218025
0.00217827
0.00217576
0.00217322
0.00217042
0.00216741
0.00216436
0.0021614
0.00215845
0.00215566
0.00215324
0.00215112
0.00214918
0.00214759
0.00214617
0.00214496
0.00214385
0.00214173
1.83993e-06
1.17661e-05
1.42439e-05
1.28686e-05
1.87617e-05
2.96101e-05
4.88253e-05
8.43973e-05
0.000139641
0.000213994
0.000297769
0.000384888
0.00046876
0.000546001
0.000616789
0.000678907
0.000733909
0.000784339
0.000831129
0.000875228
0.000917749
0.000959362
0.00100055
0.00104173
0.00108303
0.00112477
0.00116678
0.00120935
0.001252
0.00129525
0.00133824
0.00138199
0.00142539
0.00147025
0.00151441
0.00155957
0.00160391
0.00165133
0.00169742
0.00170998
0.00172086
0.00171877
0.0017275
0.00173964
0.00175243
0.00176085
0.00177624
0.00179468
0.001808
0.00182228
0.00184211
0.00188272
0.00190077
0.00192698
0.00193526
0.00200264
0.00202434
0.00203032
0.00207483
0.00208937
0.00212515
0.00214147
0.00218375
0.00220893
0.0022453
0.00226666
0.00229577
0.00232366
0.0023526
0.00238599
0.00241543
0.00245283
0.00248614
0.00252138
0.0025558
0.00258921
0.0026262
0.00265968
0.00269455
0.00273181
0.00276935
0.00280559
0.00284116
0.00287644
0.00291066
0.0029431
0.00297722
0.00301135
0.00304232
0.00307395
0.00310528
0.00312634
0.00312761
0.00312859
0.00312691
0.00312403
0.00311989
0.00311545
0.0031117
0.00310795
0.00310439
0.00310035
0.00309547
0.0030898
0.00308388
0.00307747
0.00307128
0.00306455
0.0030583
0.00305166
0.00304566
0.00303964
0.00303427
0.003029
0.00302454
0.0030194
0.00301447
0.00300693
0.00299839
0.00298936
0.00297783
0.00297224
0.00296864
0.00296331
0.00295839
0.00295501
0.00295183
0.00294798
0.00294365
0.00293918
0.00293379
0.00292809
0.00292183
0.00291527
0.00290823
0.00290089
0.00289335
0.00288613
0.00287894
0.00287208
0.0028653
0.00285886
0.00285256
0.0028466
0.00284086
0.00283554
0.00283043
0.00282566
0.00282068
0.00281592
0.00281088
0.00280605
0.00280105
0.00279627
0.00279119
0.00278582
0.00278002
0.00277339
0.00276616
0.00275876
0.00275103
0.00274267
0.00273552
0.002729
0.00272255
0.00271666
0.0027113
0.00270664
0.00270244
0.00269857
0.00269479
0.00269113
0.00268701
0.00268283
0.0026779
0.00267256
0.00266667
0.00266046
0.00265376
0.00264712
0.00264047
0.00263451
0.00262872
0.00262389
0.00261936
0.00261552
0.00261186
0.00260877
0.00260574
0.00260276
0.00259944
0.00259568
0.00259156
0.00258683
0.00258183
0.00257663
0.0025713
0.00256619
0.00256105
0.00255669
0.00255248
0.00254886
0.00254576
0.00254323
0.00254081
0.00253863
0.00253624
0.00253389
0.00253119
0.00252744
0.00252353
0.00251957
0.00251571
0.00251165
0.00250787
0.00250416
0.00250127
0.00249852
0.00249633
0.00249428
0.0024928
0.00249127
0.00248994
0.00248839
0.00248624
0.00248395
0.00248143
0.00247868
0.00247584
0.00247311
0.00247039
0.00246785
0.00246573
0.00246392
0.00246229
0.00246103
0.00245994
0.00245909
0.00245832
0.00245668
2.06952e-06
1.57012e-05
1.95177e-05
1.98042e-05
3.06594e-05
4.83176e-05
8.04324e-05
0.000134235
0.000207715
0.000292989
0.000383793
0.000473828
0.00055854
0.000636932
0.000707418
0.000769273
0.000824953
0.000875979
0.000923155
0.000967402
0.00100954
0.0010504
0.0010902
0.00112955
0.00116846
0.00120734
0.00124589
0.00128452
0.00132247
0.0013606
0.0013977
0.00143516
0.00147168
0.00150927
0.00154538
0.00155433
0.00155014
0.00155
0.00153068
0.00152745
0.00152925
0.00152276
0.0015354
0.00154878
0.00156445
0.00157391
0.00159056
0.00161871
0.00163171
0.00164706
0.00165328
0.00170294
0.00171618
0.00173784
0.00174015
0.00179133
0.00180925
0.00180064
0.00183022
0.0018355
0.00186141
0.00186992
0.00189944
0.00191446
0.00194138
0.00195779
0.00197724
0.00199858
0.00202127
0.00204697
0.00207184
0.00210041
0.00212879
0.00215563
0.00218534
0.00221334
0.00224355
0.00227361
0.00230034
0.00233819
0.00236413
0.00240341
0.00243006
0.00247417
0.00250005
0.00254492
0.00257461
0.00262197
0.00265102
0.00269734
0.00273058
0.00277567
0.00280367
0.00284563
0.00287142
0.00291055
0.002945
0.00298319
0.00300538
0.00301058
0.00301522
0.00301907
0.0030219
0.00302385
0.00302517
0.00302582
0.00302643
0.00302633
0.00302657
0.00302623
0.00302625
0.00302625
0.00302645
0.0030268
0.00302755
0.00302732
0.00302694
0.00302466
0.00302159
0.00301815
0.00301249
0.0030104
0.00301134
0.00301166
0.00301098
0.00301115
0.0030117
0.0030117
0.00301125
0.00301057
0.00300898
0.00300704
0.0030044
0.00300152
0.00299814
0.00299455
0.00299068
0.00298692
0.00298315
0.00297968
0.00297624
0.0029731
0.00297002
0.00296727
0.00296463
0.00296234
0.0029602
0.00295829
0.00295621
0.00295425
0.00295205
0.00295002
0.00294772
0.00294557
0.00294309
0.00294028
0.00293709
0.00293309
0.0029285
0.00292369
0.00291855
0.00291274
0.00290792
0.00290378
0.0028997
0.00289605
0.00289279
0.00289029
0.00288815
0.00288635
0.00288457
0.00288294
0.0028808
0.00287856
0.00287555
0.00287215
0.00286803
0.00286372
0.0028589
0.00285401
0.00284905
0.00284478
0.00284067
0.00283744
0.00283454
0.00283229
0.00283021
0.00282866
0.00282711
0.00282563
0.00282379
0.00282151
0.00281878
0.0028154
0.00281177
0.00280791
0.00280383
0.00279996
0.00279606
0.00279295
0.00278992
0.00278748
0.00278551
0.00278419
0.00278292
0.00278191
0.00278064
0.00277937
0.00277782
0.00277513
0.00277223
0.00276918
0.00276628
0.00276312
0.00276028
0.00275744
0.0027555
0.00275363
0.00275241
0.00275125
0.00275071
0.00275011
0.00274963
0.002749
0.00274771
0.00274615
0.00274443
0.00274244
0.00274031
0.00273829
0.00273631
0.0027345
0.00273314
0.00273207
0.00273119
0.00273068
0.00273032
0.00273021
0.00273016
0.00272957
2.34916e-06
2.0628e-05
2.65085e-05
3.02165e-05
4.6731e-05
7.40674e-05
0.000121963
0.000191898
0.000275304
0.000366779
0.000460448
0.000550708
0.00063488
0.000713153
0.000781634
0.000842723
0.000897984
0.000948441
0.000994795
0.00103785
0.00107819
0.00111684
0.00115376
0.00118974
0.00122466
0.00125911
0.00129256
0.00132566
0.00135737
0.00138897
0.00141875
0.00144838
0.00145537
0.00143937
0.00141201
0.00138722
0.00137582
0.00137014
0.00135069
0.001353
0.001363
0.00136476
0.00139377
0.00140676
0.00142083
0.00143242
0.00143909
0.00147745
0.00148449
0.00149433
0.00148426
0.00152718
0.00153211
0.00154622
0.00154387
0.00156083
0.00158808
0.0015834
0.00159782
0.00160039
0.00162252
0.00163218
0.00165189
0.00166756
0.00168691
0.00170639
0.00172071
0.00174273
0.00176196
0.00178682
0.00180843
0.00183143
0.00185924
0.00187507
0.00190679
0.00192599
0.00195366
0.00197915
0.00199752
0.00203643
0.00204979
0.00208669
0.00210675
0.00214592
0.00216239
0.00220033
0.00222212
0.00226045
0.00228314
0.00231999
0.00234779
0.00238376
0.00241056
0.00244748
0.00247458
0.00251466
0.00255567
0.00259784
0.00263207
0.00266861
0.0026978
0.00272951
0.00276021
0.00279319
0.00282455
0.00284406
0.00285382
0.0028624
0.0028708
0.00287841
0.00288604
0.00289354
0.00290086
0.00290804
0.00291528
0.00292098
0.00292613
0.00293052
0.00293421
0.00293718
0.00293881
0.00294208
0.00294811
0.00295409
0.00295875
0.00296333
0.00296823
0.00297275
0.00297684
0.0029806
0.00298342
0.00298596
0.00298756
0.00298898
0.00298992
0.00299072
0.00299121
0.00299152
0.00299177
0.00299226
0.00299271
0.00299341
0.00299408
0.00299502
0.00299598
0.00299715
0.00299845
0.0029998
0.00300104
0.00300232
0.00300336
0.00300461
0.00300539
0.00300631
0.00300683
0.00300702
0.00300688
0.00300596
0.00300465
0.00300306
0.00300109
0.0029985
0.00299657
0.00299532
0.00299413
0.00299326
0.00299269
0.00299271
0.00299308
0.00299373
0.00299442
0.00299524
0.00299556
0.00299571
0.00299514
0.00299422
0.00299244
0.00299065
0.00298827
0.00298579
0.00298313
0.00298113
0.00297928
0.00297815
0.00297735
0.00297722
0.00297721
0.00297765
0.00297805
0.00297852
0.0029787
0.00297838
0.00297758
0.00297615
0.00297445
0.00297252
0.00297029
0.00296824
0.00296617
0.00296484
0.00296357
0.0029628
0.00296246
0.0029628
0.00296317
0.00296382
0.00296416
0.00296444
0.00296455
0.00296347
0.00296217
0.00296058
0.00295917
0.00295747
0.0029561
0.00295468
0.00295417
0.00295368
0.00295389
0.00295411
0.00295494
0.00295572
0.00295653
0.00295726
0.00295731
0.00295695
0.0029565
0.00295574
0.0029548
0.00295397
0.00295318
0.00295257
0.00295241
0.00295251
0.0029528
0.00295346
0.0029542
0.00295523
0.00295627
0.0029573
2.65631e-06
2.64077e-05
3.2722e-05
4.39149e-05
6.77905e-05
0.000107031
0.000169928
0.000249097
0.000338577
0.000432733
0.000526621
0.000615709
0.000699086
0.000775001
0.000841494
0.000901239
0.000955199
0.0010041
0.00104852
0.00108915
0.00112649
0.00116158
0.00119427
0.00122549
0.00125505
0.00128369
0.00131069
0.00133713
0.00136161
0.0013856
0.00136071
0.00132669
0.00129612
0.00127107
0.00124324
0.00122274
0.00122167
0.00122345
0.00121399
0.00122183
0.00124712
0.00125167
0.00127891
0.00129028
0.0012953
0.00131228
0.00130217
0.0013395
0.00133384
0.00133869
0.00132334
0.00134915
0.00135378
0.00137114
0.00138134
0.00136192
0.00140225
0.00141113
0.00140829
0.00141613
0.00142436
0.0014462
0.00145269
0.00147227
0.00148313
0.00151101
0.00152056
0.00154803
0.00155988
0.00159124
0.00160459
0.00162879
0.00165793
0.00166451
0.00170362
0.00171074
0.0017461
0.00175747
0.00178863
0.0018049
0.00182431
0.00184393
0.00186676
0.00189207
0.00191521
0.00194206
0.00196148
0.00198345
0.00200394
0.00202501
0.00204555
0.00206537
0.0020852
0.00210526
0.00212969
0.00215664
0.00219091
0.00222075
0.00225133
0.00227993
0.00230735
0.00233595
0.00236803
0.00240203
0.00243628
0.00246929
0.00250108
0.00253259
0.00256386
0.00259411
0.00261781
0.0026355
0.00265265
0.0026688
0.00268462
0.0026981
0.00271084
0.00272341
0.00273585
0.00274739
0.00275785
0.00276851
0.00278086
0.00279335
0.00280449
0.0028149
0.00282519
0.00283527
0.0028447
0.00285391
0.00286208
0.00286992
0.0028768
0.00288335
0.00288956
0.00289563
0.00290132
0.0029066
0.00291167
0.00291688
0.00292192
0.00292713
0.00293218
0.00293739
0.00294252
0.0029477
0.00295291
0.00295803
0.00296302
0.002968
0.00297275
0.00297761
0.00298195
0.00298624
0.00299019
0.00299382
0.00299709
0.00299974
0.00300216
0.00300427
0.00300591
0.0030071
0.00300855
0.00301061
0.00301273
0.00301501
0.00301747
0.00302038
0.0030236
0.00302699
0.00303044
0.00303399
0.00303711
0.00304005
0.00304223
0.00304415
0.00304524
0.00304632
0.00304684
0.00304722
0.00304732
0.00304803
0.00304883
0.00305018
0.00305191
0.00305417
0.00305659
0.00305935
0.00306202
0.00306479
0.00306733
0.00306929
0.00307089
0.00307181
0.00307248
0.0030729
0.003073
0.0030732
0.00307342
0.00307427
0.00307517
0.00307647
0.00307815
0.00308048
0.00308285
0.00308547
0.00308785
0.00309003
0.00309221
0.00309319
0.00309394
0.00309429
0.00309479
0.003095
0.00309554
0.00309597
0.00309729
0.00309859
0.00310061
0.0031026
0.00310517
0.00310769
0.00311018
0.00311264
0.00311445
0.00311568
0.0031169
0.00311778
0.00311846
0.00311924
0.00312006
0.00312106
0.00312249
0.00312415
0.00312599
0.00312817
0.00313038
0.00313289
0.00313536
0.00313854
2.94323e-06
3.29596e-05
4.11021e-05
6.08715e-05
9.3581e-05
0.000145344
0.000218289
0.000303115
0.000395212
0.00048985
0.000582389
0.000669559
0.000751393
0.000824264
0.00088867
0.000946501
0.000998371
0.00104477
0.00108615
0.0011232
0.0011563
0.00118645
0.00121359
0.00123873
0.0012616
0.00128328
0.00130291
0.00132087
0.00128563
0.00124523
0.00120063
0.00116219
0.0011378
0.00112215
0.00110781
0.0010983
0.00110703
0.00111531
0.00111153
0.00111944
0.00116761
0.00116561
0.00116331
0.00118715
0.00117602
0.00119517
0.00117498
0.00120343
0.00119393
0.00121558
0.00120672
0.00120893
0.0012084
0.00122251
0.00123906
0.00120572
0.00122144
0.00124392
0.00122728
0.0012445
0.0012351
0.00126607
0.00125479
0.00127915
0.00127191
0.0013151
0.00131227
0.00130251
0.00130174
0.00129629
0.0012972
0.00129674
0.00130084
0.00130388
0.00130763
0.00131454
0.00131982
0.00132949
0.00133923
0.00135266
0.00136319
0.00137697
0.00139132
0.00140835
0.00142458
0.00144439
0.00146393
0.00148693
0.00151
0.00153503
0.00156099
0.0015886
0.00161679
0.00164719
0.00167806
0.00171105
0.00174611
0.00178124
0.00181675
0.00185158
0.00188645
0.00192039
0.00195589
0.00199102
0.00202633
0.00206028
0.0020938
0.00212617
0.00215821
0.00218895
0.00221924
0.00224808
0.00227585
0.00230228
0.00232786
0.00235106
0.00237391
0.00239672
0.00241963
0.00244207
0.00246318
0.00248381
0.00250428
0.00252464
0.00254367
0.00256166
0.0025788
0.00259581
0.00261196
0.002628
0.0026427
0.00265734
0.00267064
0.00268385
0.00269662
0.00270915
0.0027213
0.00273278
0.00274385
0.00275486
0.00276549
0.00277617
0.00278647
0.00279688
0.0028069
0.00281698
0.00282671
0.00283646
0.00284581
0.00285525
0.00286423
0.0028734
0.00288176
0.00289004
0.00289787
0.00290546
0.00291274
0.00291953
0.00292615
0.0029325
0.00293833
0.0029438
0.00294923
0.00295508
0.00296092
0.00296677
0.00297272
0.00297883
0.00298519
0.00299162
0.00299815
0.00300474
0.00301088
0.00301691
0.0030222
0.00302734
0.00303166
0.00303595
0.00303975
0.00304338
0.00304663
0.00305041
0.00305418
0.00305835
0.00306285
0.0030678
0.00307292
0.00307822
0.00308343
0.00308874
0.00309387
0.00309844
0.00310271
0.00310632
0.00310969
0.00311278
0.00311557
0.00311836
0.00312122
0.00312453
0.00312792
0.00313158
0.00313557
0.0031401
0.00314475
0.00314958
0.00315432
0.00315862
0.00316321
0.00316655
0.00316971
0.00317239