/*--------------------------------*- C++ -*----------------------------------*\
| =========                 |                                                 |
| \\      /  F ield         | OpenFOAM: The Open Source CFD Toolbox           |
|  \\    /   O peration     | Version:  2312                                  |
|   \\  /    A nd           | Website:  www.openfoam.com                      |
|    \\/     M anipulation  |                                                 |
\*---------------------------------------------------------------------------*/
FoamFile
{
    version     2.0;
    format      ascii;
    arch        "LSB;label=32;scalar=64";
    class       volScalarField;
    location    "0.003";
    object      cSound;
}
// * * * * * * * * * * * * * * * * * * * * * * * * * * * * * * * * * * * * * //

dimensions      [0 1 -1 0 0 0 0];

internalField   nonuniform List<scalar> 
48128
(
379.016
379.094
378.942
378.909
378.961
378.99
379.06
379.148
379.071
378.661
377.163
376.087
375.463
374.932
374.491
373.669
372.952
372.269
371.628
371.036
370.505
370
369.517
369.071
368.668
368.316
368.021
367.801
367.657
367.58
367.558
367.633
367.787
368.011
368.299
368.645
369.052
369.509
369.984
370.505
371.049
371.598
372.141
372.681
373.201
373.686
374.134
374.548
374.921
375.246
375.497
375.712
375.853
375.943
375.95
375.903
375.783
375.602
375.36
375.062
374.71
374.313
373.875
373.4
372.884
372.326
371.733
371.118
370.469
369.806
369.107
368.394
367.666
366.913
366.159
365.376
364.607
363.823
363.042
362.281
361.516
360.791
360.057
359.353
358.642
357.971
357.297
356.661
356.03
355.428
354.83
354.27
353.72
353.189
352.656
352.127
351.6
351.098
350.629
350.199
349.796
349.405
349.015
348.634
348.267
347.921
347.597
347.295
347.009
346.738
346.489
346.258
346.052
345.861
345.688
345.526
345.351
345.159
344.954
344.71
344.346
344.364
344.272
344.063
344.076
344.035
343.976
343.907
343.83
343.744
343.655
343.564
343.475
343.384
343.293
343.2
343.112
343.04
342.978
342.921
342.868
342.823
342.782
342.751
342.723
342.71
342.711
342.716
342.723
342.732
342.741
342.754
342.771
342.79
342.805
342.818
342.815
342.808
342.793
342.774
342.748
342.731
342.739
342.744
342.754
342.779
342.812
342.857
342.905
342.958
343.005
343.052
343.087
343.122
343.137
343.154
343.155
343.155
343.146
343.144
343.15
343.161
343.179
343.211
343.249
343.29
343.336
343.385
343.435
343.477
343.512
343.534
343.56
343.563
343.571
343.573
343.58
343.593
343.613
343.639
343.671
343.709
343.757
343.806
343.857
343.901
343.94
343.974
344.016
344.009
344.016
344.025
344.034
344.047
344.064
344.086
344.115
344.149
344.187
344.229
344.274
344.313
344.354
344.388
344.406
344.426
344.448
344.455
344.467
344.483
344.501
344.525
344.553
344.586
344.624
344.664
344.707
344.75
344.789
344.837
378.754
378.893
378.778
378.749
378.821
378.914
379.082
379.195
378.759
377.692
376.193
374.952
373.896
372.686
371.412
370.388
369.485
368.689
368.011
367.439
366.969
366.569
366.221
365.938
365.728
365.592
365.533
365.525
365.62
365.795
366.045
366.384
366.788
367.257
367.776
368.341
368.941
369.579
370.228
370.881
371.541
372.181
372.788
373.357
373.875
374.333
374.719
375.044
375.296
375.484
375.571
375.583
375.492
375.332
375.082
374.761
374.341
373.847
373.275
372.631
371.92
371.155
370.342
369.484
368.583
367.637
366.658
365.651
364.607
363.564
362.497
361.435
360.371
359.292
358.223
357.132
356.064
354.991
353.931
352.894
351.874
350.887
349.906
348.95
348.009
347.101
346.212
345.356
344.522
343.714
342.92
342.164
341.429
340.714
340.005
339.301
338.599
337.925
337.288
336.691
336.124
335.571
335.02
334.482
333.957
333.454
332.975
332.52
332.083
331.664
331.27
330.896
330.55
330.225
329.921
329.637
329.344
329.037
328.717
328.359
327.871
327.767
327.562
327.243
327.142
327
326.843
326.681
326.515
326.345
326.171
325.999
325.829
325.66
325.489
325.316
325.148
324.996
324.855
324.721
324.592
324.473
324.361
324.258
324.164
324.079
324.002
323.933
323.864
323.799
323.733
323.674
323.621
323.572
323.521
323.467
323.407
323.34
323.266
323.187
323.103
323.015
322.965
322.912
322.855
322.827
322.797
322.792
322.787
322.79
322.793
322.795
322.793
322.788
322.776
322.761
322.738
322.712
322.679
322.647
322.624
322.609
322.594
322.6
322.611
322.626
322.647
322.674
322.703
322.729
322.749
322.76
322.774
322.768
322.767
322.759
322.759
322.762
322.77
322.785
322.807
322.835
322.873
322.916
322.961
323.005
323.044
323.081
323.131
323.128
323.136
323.148
323.161
323.176
323.194
323.218
323.248
323.283
323.323
323.367
323.417
323.463
323.511
323.558
323.586
323.617
323.652
323.67
323.692
323.717
323.744
323.775
323.81
323.851
323.895
323.944
323.997
324.052
324.106
324.179
378.614
378.78
378.734
378.734
378.836
378.979
379.139
378.775
377.453
375.729
374.204
372.92
371.845
371.047
370.352
369.669
369.087
368.584
368.134
367.754
367.462
367.211
367.007
366.859
366.771
366.742
366.778
366.886
367.076
367.338
367.666
368.063
368.512
369.017
369.552
370.119
370.704
371.305
371.903
372.484
373.05
373.581
374.061
374.483
374.834
375.112
375.301
375.414
375.431
375.374
375.208
374.96
374.595
374.149
373.615
373.001
372.284
371.499
370.637
369.708
368.718
367.684
366.611
365.5
364.354
363.171
361.972
360.754
359.515
358.287
357.043
355.822
354.604
353.384
352.181
350.968
349.785
348.609
347.452
346.322
345.226
344.159
343.109
342.084
341.088
340.122
339.183
338.281
337.405
336.554
335.722
334.929
334.159
333.411
332.671
331.941
331.214
330.52
329.861
329.24
328.649
328.069
327.491
326.927
326.375
325.846
325.34
324.856
324.39
323.942
323.517
323.112
322.735
322.378
322.041
321.726
321.403
321.07
320.722
320.344
319.851
319.711
319.474
319.15
319.002
318.821
318.629
318.432
318.233
318.033
317.831
317.633
317.438
317.244
317.051
316.856
316.666
316.492
316.326
316.169
316.016
315.873
315.737
315.61
315.489
315.38
315.279
315.185
315.091
315.002
314.913
314.831
314.754
314.683
314.61
314.536
314.457
314.371
314.28
314.184
314.084
313.978
313.908
313.835
313.757
313.708
313.655
313.628
313.601
313.584
313.567
313.549
313.53
313.507
313.479
313.449
313.414
313.376
313.331
313.288
313.252
313.226
313.196
313.193
313.191
313.194
313.203
313.219
313.236
313.251
313.262
313.265
313.269
313.26
313.253
313.241
313.232
313.23
313.234
313.243
313.259
313.281
313.314
313.351
313.392
313.431
313.468
313.504
313.552
313.552
313.56
313.573
313.586
313.602
313.62
313.644
313.674
313.709
313.749
313.794
313.843
313.891
313.939
313.988
314.021
314.056
314.093
314.117
314.144
314.173
314.204
314.239
314.277
314.32
314.368
314.419
314.475
314.533
314.592
314.674
378.533
378.726
378.821
378.817
378.951
379.045
378.706
377.407
375.484
373.86
372.68
371.844
371.24
370.797
370.413
369.947
369.535
369.179
368.869
368.61
368.423
368.264
368.144
368.071
368.046
368.081
368.182
368.347
368.58
368.876
369.227
369.634
370.084
370.579
371.095
371.627
372.16
372.692
373.205
373.681
374.123
374.515
374.837
375.084
375.243
375.313
375.271
375.14
374.889
374.557
374.105
373.562
372.888
372.127
371.284
370.353
369.317
368.227
367.06
365.84
364.567
363.27
361.943
360.594
359.221
357.822
356.43
355.029
353.633
352.262
350.891
349.562
348.242
346.94
345.658
344.383
343.149
341.928
340.734
339.577
338.468
337.384
336.326
335.3
334.31
333.354
332.43
331.545
330.69
329.859
329.05
328.278
327.532
326.809
326.097
325.397
324.702
324.044
323.418
322.83
322.268
321.715
321.164
320.626
320.099
319.594
319.11
318.647
318.199
317.77
317.361
316.971
316.607
316.26
315.935
315.627
315.313
314.991
314.653
314.292
313.838
313.694
313.466
313.179
313.011
312.828
312.636
312.438
312.24
312.04
311.838
311.641
311.447
311.255
311.065
310.872
310.686
310.514
310.35
310.193
310.042
309.899
309.763
309.634
309.511
309.4
309.295
309.197
309.099
309.006
308.912
308.826
308.745
308.67
308.594
308.517
308.435
308.349
308.257
308.16
308.06
307.956
307.882
307.807
307.727
307.672
307.614
307.581
307.546
307.522
307.499
307.475
307.449
307.421
307.388
307.353
307.314
307.272
307.224
307.179
307.14
307.111
307.077
307.071
307.063
307.064
307.069
307.079
307.091
307.102
307.109
307.109
307.108
307.098
307.089
307.076
307.064
307.06
307.062
307.069
307.082
307.102
307.132
307.167
307.205
307.244
307.279
307.315
307.361
307.363
307.372
307.386
307.4
307.416
307.435
307.46
307.49
307.526
307.567
307.612
307.662
307.71
307.76
307.809
307.844
307.881
307.92
307.947
307.978
308.01
308.044
308.082
308.123
308.167
308.216
308.269
308.327
308.386
308.447
308.534
378.482
378.712
378.931
378.961
378.986
378.654
377.477
375.547
373.905
372.792
372.06
371.583
371.273
370.983
370.732
370.425
370.156
369.916
369.707
369.53
369.414
369.318
369.255
369.231
369.257
369.339
369.478
369.677
369.933
370.245
370.604
371.008
371.443
371.912
372.391
372.866
373.323
373.76
374.161
374.499
374.78
374.995
375.114
375.139
375.047
374.855
374.522
374.083
373.492
372.808
371.994
371.078
370.019
368.866
367.642
366.331
364.909
363.465
361.939
360.39
358.803
357.22
355.629
354.04
352.45
350.841
349.278
347.718
346.193
344.714
343.249
341.856
340.477
339.14
337.83
336.541
335.311
334.1
332.924
331.798
330.731
329.689
328.683
327.714
326.786
325.891
325.03
324.21
323.421
322.654
321.91
321.201
320.523
319.867
319.226
318.597
317.973
317.389
316.833
316.311
315.813
315.322
314.833
314.355
313.886
313.438
313.006
312.595
312.194
311.813
311.448
311.102
310.778
310.468
310.18
309.903
309.621
309.335
309.029
308.712
308.319
308.187
307.991
307.763
307.591
307.432
307.262
307.084
306.905
306.724
306.542
306.362
306.186
306.012
305.839
305.665
305.499
305.344
305.195
305.054
304.918
304.789
304.667
304.552
304.44
304.34
304.244
304.154
304.065
303.979
303.892
303.815
303.74
303.671
303.602
303.532
303.457
303.379
303.297
303.209
303.119
303.025
302.957
302.889
302.817
302.766
302.712
302.681
302.649
302.627
302.605
302.582
302.558
302.532
302.501
302.468
302.43
302.392
302.347
302.305
302.269
302.242
302.212
302.206
302.2
302.201
302.207
302.218
302.229
302.239
302.247
302.248
302.248
302.239
302.231
302.219
302.209
302.206
302.209
302.216
302.229
302.249
302.279
302.315
302.353
302.391
302.428
302.465
302.51
302.516
302.528
302.543
302.559
302.576
302.597
302.624
302.656
302.693
302.736
302.782
302.834
302.884
302.936
302.985
303.022
303.061
303.102
303.132
303.166
303.202
303.24
303.28
303.323
303.37
303.421
303.476
303.535
303.596
303.659
303.749
378.453
378.753
379.002
378.946
378.686
377.683
375.865
374.182
373.045
372.349
371.926
371.67
371.479
371.304
371.156
370.967
370.799
370.643
370.506
370.392
370.332
370.286
370.269
370.292
370.358
370.477
370.645
370.867
371.137
371.456
371.81
372.197
372.6
373.02
373.436
373.827
374.172
374.474
374.717
374.871
374.932
374.893
374.734
374.455
374.022
373.465
372.732
371.864
370.809
369.636
368.331
366.911
365.337
363.675
361.934
360.163
358.258
356.369
354.426
352.479
350.553
348.636
346.793
344.963
343.18
341.372
339.674
337.993
336.387
334.854
333.35
331.961
330.591
329.294
328.034
326.811
325.666
324.548
323.474
322.462
321.524
320.606
319.73
318.885
318.086
317.313
316.577
315.879
315.212
314.562
313.935
313.34
312.78
312.235
311.709
311.19
310.676
310.202
309.747
309.325
308.923
308.526
308.131
307.746
307.366
307.002
306.65
306.315
305.989
305.682
305.386
305.107
304.845
304.595
304.363
304.137
303.906
303.678
303.427
303.172
302.863
302.752
302.608
302.452
302.299
302.181
302.049
301.907
301.763
301.616
301.469
301.321
301.177
301.034
300.893
300.75
300.617
300.491
300.37
300.256
300.147
300.045
299.948
299.858
299.768
299.69
299.615
299.543
299.473
299.403
299.334
299.272
299.213
299.158
299.103
299.048
298.989
298.926
298.861
298.79
298.718
298.64
298.585
298.532
298.476
298.436
298.392
298.371
298.348
298.333
298.319
298.304
298.287
298.268
298.245
298.22
298.19
298.16
298.124
298.09
298.062
298.043
298.022
298.019
298.02
298.026
298.036
298.051
298.066
298.081
298.093
298.098
298.105
298.097
298.096
298.088
298.083
298.084
298.09
298.1
298.117
298.14
298.172
298.21
298.251
298.292
298.331
298.373
298.417
298.43
298.446
298.464
298.484
298.505
298.53
298.559
298.594
298.635
298.68
298.73
298.784
298.837
298.892
298.943
298.983
299.025
299.068
299.102
299.14
299.179
299.221
299.265
299.312
299.362
299.415
299.473
299.533
299.596
299.662
299.755
378.448
378.767
378.949
378.685
377.958
376.337
374.605
373.387
372.655
372.243
372.007
371.861
371.77
371.685
371.606
371.5
371.403
371.313
371.235
371.176
371.161
371.161
371.184
371.245
371.345
371.491
371.679
371.913
372.185
372.496
372.828
373.176
373.521
373.86
374.173
374.438
374.622
374.729
374.737
374.616
374.361
373.956
373.391
372.668
371.733
370.624
369.299
367.794
366.06
364.18
362.175
360.071
357.796
355.472
353.01
350.769
348.312
345.831
343.49
341.072
338.824
336.521
334.482
332.415
330.496
328.52
326.744
324.999
323.388
321.893
320.448
319.177
317.919
316.78
315.678
314.64
313.691
312.778
311.915
311.128
310.426
309.736
309.085
308.455
307.871
307.303
306.773
306.277
305.809
305.35
304.913
304.497
304.108
303.728
303.367
303.002
302.642
302.315
302.002
301.717
301.446
301.176
300.907
300.644
300.378
300.125
299.878
299.645
299.416
299.206
299
298.81
298.631
298.46
298.303
298.146
297.984
297.833
297.655
297.479
297.271
297.188
297.12
297.037
296.936
296.864
296.783
296.69
296.596
296.494
296.396
296.293
296.193
296.093
295.996
295.896
295.808
295.721
295.638
295.562
295.49
295.424
295.361
295.305
295.248
295.201
295.155
295.111
295.067
295.022
294.978
294.941
294.906
294.871
294.839
294.804
294.769
294.726
294.686
294.639
294.59
294.538
294.502
294.47
294.435
294.412
294.386
294.379
294.37
294.369
294.367
294.365
294.362
294.357
294.345
294.334
294.315
294.301
294.277
294.257
294.242
294.234
294.226
294.232
294.242
294.258
294.277
294.3
294.323
294.345
294.365
294.378
294.396
294.393
294.402
294.401
294.405
294.412
294.425
294.442
294.466
294.493
294.531
294.574
294.619
294.666
294.71
294.757
294.804
294.826
294.848
294.872
294.897
294.924
294.954
294.988
295.027
295.073
295.123
295.177
295.235
295.292
295.351
295.406
295.451
295.496
295.543
295.583
295.625
295.669
295.715
295.764
295.816
295.87
295.927
295.987
296.051
296.117
296.185
296.282
378.457
378.645
378.71
378.142
376.903
375.156
373.825
372.994
372.535
372.301
372.175
372.111
372.09
372.066
372.042
371.996
371.954
371.916
371.888
371.875
371.896
371.935
371.992
372.083
372.206
372.369
372.565
372.798
373.054
373.334
373.617
373.895
374.142
374.354
374.506
374.577
374.51
374.323
373.965
373.412
372.657
371.67
370.48
369.074
367.394
365.468
363.299
360.922
358.283
355.498
352.544
349.685
346.606
343.542
340.241
337.59
334.619
331.467
328.812
325.949
323.455
320.811
318.668
316.424
314.463
312.418
310.645
308.932
307.414
306.033
304.739
303.659
302.598
301.707
300.841
300.085
299.404
298.79
298.212
297.745
297.323
296.956
296.588
296.288
295.984
295.731
295.474
295.281
295.072
294.896
294.711
294.557
294.392
294.248
294.099
293.949
293.791
293.672
293.544
293.437
293.328
293.218
293.104
292.991
292.868
292.753
292.635
292.529
292.419
292.328
292.23
292.148
292.069
291.995
291.93
291.86
291.781
291.72
291.626
291.553
291.457
291.423
291.435
291.427
291.402
291.387
291.366
291.334
291.299
291.256
291.217
291.169
291.124
291.077
291.034
290.987
290.952
290.914
290.879
290.849
290.822
290.8
290.78
290.765
290.749
290.741
290.731
290.723
290.712
290.702
290.689
290.685
290.678
290.673
290.667
290.66
290.653
290.636
290.631
290.61
290.593
290.572
290.56
290.553
290.544
290.545
290.543
290.553
290.565
290.581
290.597
290.613
290.629
290.641
290.645
290.655
290.649
290.656
290.648
290.647
290.649
290.657
290.665
290.684
290.708
290.737
290.768
290.803
290.837
290.87
290.902
290.926
290.956
290.965
290.985
290.995
291.01
291.028
291.051
291.078
291.11
291.146
291.191
291.242
291.294
291.348
291.399
291.453
291.506
291.541
291.571
291.602
291.635
291.669
291.706
291.747
291.793
291.844
291.901
291.96
292.025
292.088
292.152
292.212
292.264
292.313
292.365
292.412
292.46
292.51
292.562
292.617
292.674
292.733
292.795
292.86
292.927
292.997
293.069
293.172
378.459
378.417
378.295
377.358
375.812
374.37
373.398
372.841
372.571
372.436
372.387
372.381
372.409
372.427
372.441
372.443
372.445
372.449
372.461
372.485
372.536
372.604
372.686
372.795
372.93
373.095
373.283
373.491
373.706
373.924
374.119
374.282
374.37
374.383
374.268
374.02
373.541
372.868
371.905
370.665
369.139
367.285
365.25
362.89
360.211
357.213
353.954
350.602
346.947
343.191
339.131
335.639
331.831
328.149
324.077
321.094
317.772
314.079
311.196
308.002
305.461
302.662
300.557
298.311
296.441
294.523
292.877
291.358
290.05
288.896
287.89
287.033
286.285
285.632
285.063
284.595
284.176
283.895
283.533
283.425
283.216
283.206
283.054
283.131
283.036
283.156
283.123
283.291
283.302
283.457
283.511
283.672
283.732
283.891
283.952
284.088
284.172
284.312
284.398
284.51
284.589
284.672
284.734
284.807
284.859
284.906
284.94
284.979
285.01
285.052
285.082
285.123
285.163
285.2
285.248
285.268
285.289
285.321
285.334
285.384
285.392
285.437
285.518
285.607
285.662
285.719
285.759
285.802
285.83
285.864
285.887
285.907
285.922
285.937
285.956
285.97
285.996
286.014
286.034
286.058
286.083
286.111
286.141
286.174
286.206
286.242
286.275
286.309
286.336
286.368
286.394
286.426
286.454
286.484
286.51
286.537
286.561
286.579
286.61
286.622
286.645
286.655
286.673
286.698
286.721
286.747
286.773
286.807
286.843
286.881
286.919
286.958
286.995
287.029
287.055
287.087
287.103
287.13
287.145
287.165
287.188
287.216
287.244
287.279
287.32
287.365
287.412
287.463
287.51
287.558
287.604
287.643
287.686
287.712
287.745
287.771
287.799
287.831
287.867
287.906
287.95
287.997
288.051
288.111
288.173
288.237
288.297
288.361
288.42
288.471
288.51
288.552
288.594
288.638
288.684
288.733
288.787
288.847
288.911
288.978
289.05
289.12
289.191
289.258
289.319
289.374
289.431
289.486
289.542
289.599
289.658
289.72
289.784
289.85
289.918
289.988
290.061
290.135
290.211
290.322
378.452
378.13
377.755
376.496
375.035
373.904
373.205
372.849
372.674
372.612
372.61
372.651
372.708
372.757
372.8
372.837
372.872
372.909
372.952
373.004
373.075
373.16
373.256
373.37
373.5
373.649
373.803
373.959
374.095
374.206
374.253
374.223
374.041
373.715
373.144
372.351
371.217
369.781
367.913
365.686
363.139
360.169
357.15
353.603
349.728
345.604
341.108
336.914
332.317
327.714
322.584
318.705
314.301
310.293
305.869
302.515
299.217
295.489
292.615
289.451
287.092
284.502
282.563
280.637
278.97
277.442
276.038
274.925
273.894
273.107
272.415
271.807
271.446
270.925
270.73
270.439
270.284
270.27
270.026
270.246
270.129
270.389
270.384
270.693
270.734
271.077
271.203
271.565
271.753
272.099
272.348
272.691
272.945
273.286
273.544
273.879
274.187
274.532
274.824
275.139
275.411
275.691
275.945
276.211
276.453
276.68
276.881
277.081
277.267
277.458
277.63
277.806
277.972
278.132
278.292
278.421
278.549
278.679
278.816
278.974
279.105
279.243
279.406
279.585
279.726
279.859
279.976
280.095
280.199
280.309
280.403
280.496
280.579
280.663
280.749
280.833
280.924
281.003
281.084
281.167
281.25
281.334
281.419
281.505
281.589
281.676
281.755
281.836
281.909
281.984
282.055
282.13
282.196
282.264
282.328
282.393
282.453
282.512
282.58
282.632
282.693
282.744
282.798
282.857
282.913
282.972
283.028
283.09
283.153
283.217
283.281
283.346
283.407
283.466
283.518
283.575
283.618
283.667
283.709
283.754
283.801
283.852
283.902
283.957
284.018
284.083
284.149
284.216
284.281
284.345
284.408
284.464
284.525
284.568
284.618
284.662
284.707
284.755
284.806
284.86
284.918
284.978
285.045
285.117
285.19
285.265
285.337
285.411
285.481
285.548
285.6
285.653
285.707
285.762
285.819
285.879
285.943
286.012
286.085
286.162
286.242
286.321
286.4
286.475
286.547
286.609
286.674
286.739
286.802
286.868
286.936
287.006
287.078
287.152
287.227
287.304
287.383
287.463
287.545
287.663
378.365
377.813
377.16
375.784
374.537
373.663
373.173
372.917
372.816
372.797
372.835
372.904
372.98
373.05
373.115
373.176
373.235
373.295
373.357
373.427
373.508
373.598
373.692
373.795
373.9
374.006
374.094
374.156
374.158
374.087
373.869
373.497
372.85
371.958
370.672
369.045
366.983
364.487
361.446
357.956
354.359
350.173
345.938
341.225
336.118
331.067
325.338
320.594
315.176
310.156
304.4
300.382
295.75
291.888
287.72
284.071
281.172
277.904
275.175
272.572
270.402
268.519
266.779
265.441
264.02
263.154
262.012
261.484
260.641
260.353
259.851
259.558
259.518
259.06
259.251
258.96
259.124
259.118
259.128
259.47
259.358
259.761
259.816
260.231
260.317
260.746
260.931
261.357
261.615
262.032
262.34
262.763
263.074
263.499
263.847
264.276
264.691
265.14
265.55
265.979
266.373
266.781
267.175
267.583
267.971
268.348
268.698
269.047
269.379
269.713
270.021
270.33
270.62
270.902
271.166
271.403
271.642
271.881
272.139
272.41
272.662
272.896
273.143
273.408
273.64
273.852
274.05
274.251
274.434
274.621
274.791
274.962
275.116
275.274
275.43
275.586
275.747
275.892
276.038
276.184
276.328
276.471
276.614
276.757
276.896
277.036
277.167
277.298
277.419
277.543
277.661
277.782
277.891
278.002
278.106
278.211
278.313
278.414
278.522
278.619
278.722
278.815
278.909
279.005
279.098
279.193
279.282
279.374
279.467
279.561
279.653
279.746
279.835
279.922
280.002
280.087
280.158
280.234
280.307
280.38
280.453
280.529
280.605
280.683
280.766
280.852
280.939
281.026
281.11
281.194
281.275
281.351
281.43
281.495
281.564
281.628
281.693
281.759
281.828
281.899
281.973
282.049
282.129
282.214
282.301
282.389
282.474
282.561
282.643
282.728
282.794
282.861
282.928
282.996
283.066
283.138
283.214
283.294
283.378
283.465
283.555
283.644
283.733
283.818
283.901
283.973
284.047
284.122
284.195
284.27
284.347
284.427
284.509
284.591
284.675
284.76
284.846
284.933
285.022
285.15
378.281
377.509
376.605
375.302
374.259
373.582
373.194
373.024
372.971
372.984
373.047
373.133
373.22
373.304
373.383
373.458
373.531
373.604
373.677
373.752
373.832
373.912
373.987
374.057
374.108
374.136
374.108
374.012
373.768
373.372
372.692
371.751
370.389
368.654
366.38
363.628
360.398
356.65
352.331
347.434
342.943
337.554
331.814
326.327
320.122
314.471
307.871
302.897
297.073
292.26
286.591
282.642
278.082
274.668
271.061
267.786
265.077
262.829
260.303
258.629
256.725
255.703
254.177
253.677
252.345
252.383
251.367
251.568
250.792
251.112
250.606
250.844
250.772
250.786
251.009
250.843
251.268
251.059
251.469
251.799
251.676
252.151
252.162
252.598
252.65
253.095
253.224
253.64
253.833
254.241
254.468
254.872
255.125
255.532
255.832
256.249
256.637
257.073
257.476
257.904
258.305
258.734
259.159
259.609
260.046
260.484
260.907
261.334
261.75
262.167
262.568
262.971
263.356
263.73
264.081
264.411
264.742
265.084
265.444
265.819
266.179
266.509
266.831
267.171
267.487
267.777
268.054
268.334
268.595
268.86
269.104
269.353
269.579
269.813
270.039
270.268
270.5
270.711
270.925
271.134
271.341
271.545
271.747
271.949
272.145
272.339
272.522
272.705
272.878
273.052
273.221
273.39
273.543
273.699
273.846
273.993
274.139
274.285
274.435
274.577
274.724
274.864
274.999
275.135
275.267
275.4
275.525
275.651
275.775
275.9
276.023
276.146
276.265
276.381
276.492
276.607
276.709
276.815
276.918
277.022
277.124
277.228
277.33
277.434
277.541
277.651
277.76
277.87
277.974
278.079
278.181
278.279
278.379
278.466
278.556
278.643
278.728
278.816
278.904
278.994
279.086
279.179
279.275
279.375
279.477
279.58
279.679
279.78
279.877
279.979
280.063
280.145
280.227
280.31
280.394
280.48
280.568
280.661
280.757
280.855
280.957
281.058
281.157
281.253
281.349
281.431
281.516
281.603
281.686
281.772
281.86
281.951
282.043
282.135
282.228
282.322
282.416
282.511
282.608
282.747
378.118
377.206
376.127
374.95
374.077
373.546
373.26
373.147
373.127
373.162
373.24
373.334
373.428
373.517
373.602
373.684
373.762
373.838
373.91
373.979
374.043
374.097
374.13
374.138
374.094
373.99
373.75
373.363
372.692
371.753
370.368
368.587
366.259
363.414
359.926
355.824
351.264
346.384
340.87
334.601
329.167
322.798
315.61
309.759
302.83
297.151
290.388
285.514
279.658
275.443
270.287
266.697
262.574
259.723
256.713
254.336
251.917
250.731
248.451
247.931
246.302
246.214
244.895
245.246
244.175
244.872
244.082
244.831
244.246
245.019
244.609
245.342
245.047
245.779
245.709
246.127
246.555
246.398
246.959
247.134
247.192
247.745
247.659
248.151
248.149
248.601
248.635
249.028
249.104
249.464
249.548
249.888
249.983
250.308
250.471
250.792
251.031
251.358
251.617
251.936
252.204
252.531
252.857
253.22
253.574
253.948
254.329
254.718
255.111
255.509
255.911
256.317
256.717
257.107
257.488
257.851
258.224
258.622
259.04
259.476
259.909
260.31
260.683
261.068
261.444
261.798
262.138
262.482
262.809
263.141
263.451
263.769
264.062
264.364
264.655
264.952
265.249
265.525
265.802
266.072
266.339
266.601
266.862
267.119
267.371
267.617
267.854
268.088
268.314
268.537
268.757
268.974
269.173
269.374
269.565
269.756
269.946
270.137
270.331
270.519
270.71
270.899
271.075
271.253
271.425
271.597
271.759
271.92
272.076
272.234
272.389
272.543
272.693
272.841
272.984
273.129
273.264
273.402
273.538
273.675
273.807
273.94
274.071
274.201
274.335
274.469
274.602
274.734
274.861
274.988
275.113
275.234
275.356
275.467
275.581
275.691
275.799
275.909
276.018
276.128
276.24
276.352
276.466
276.582
276.699
276.818
276.934
277.05
277.164
277.281
277.387
277.485
277.583
277.682
277.782
277.882
277.985
278.091
278.2
278.312
278.426
278.539
278.65
278.758
278.868
278.962
279.058
279.158
279.253
279.35
279.451
279.553
279.656
279.76
279.863
279.967
280.07
280.174
280.279
280.431
377.909
376.879
375.748
374.711
373.992
373.56
373.348
373.276
373.276
373.326
373.412
373.507
373.6
373.69
373.774
373.853
373.928
373.996
374.057
374.107
374.138
374.143
374.101
374.006
373.79
373.443
372.828
371.948
370.619
368.882
366.549
363.672
360.163
356.026
351.256
345.776
339.798
334.041
327.543
320.23
313.407
306.621
298.768
292.832
285.689
280.328
273.911
269.45
263.994
260.452
255.893
253.068
249.586
247.543
245.054
243.763
241.851
241.301
239.608
240.079
238.876
239.475
238.487
239.449
238.684
239.826
239.263
240.472
240.117
241.296
240.997
242.093
241.854
242.907
242.718
243.576
243.839
244.069
244.713
244.553
245.087
245.64
245.498
246.057
246.047
246.516
246.501
246.914
246.929
247.277
247.271
247.581
247.569
247.854
247.901
248.16
248.249
248.485
248.574
248.778
248.879
249.066
249.217
249.425
249.599
249.816
250.04
250.277
250.524
250.782
251.058
251.341
251.63
251.923
252.213
252.496
252.814
253.168
253.551
253.958
254.381
254.774
255.149
255.522
255.9
256.271
256.633
256.999
257.353
257.718
258.067
258.424
258.761
259.108
259.445
259.788
260.133
260.458
260.785
261.104
261.42
261.731
262.043
262.348
262.649
262.941
263.227
263.506
263.781
264.051
264.317
264.581
264.822
265.068
265.3
265.533
265.766
266
266.237
266.469
266.705
266.94
267.159
267.377
267.589
267.799
267.999
268.195
268.384
268.574
268.76
268.947
269.128
269.308
269.483
269.661
269.829
270
270.169
270.34
270.503
270.665
270.827
270.984
271.144
271.304
271.461
271.618
271.767
271.918
272.066
272.21
272.356
272.492
272.63
272.766
272.898
273.03
273.162
273.294
273.426
273.558
273.69
273.823
273.958
274.093
274.227
274.358
274.49
274.624
274.751
274.868
274.983
275.099
275.216
275.332
275.45
275.571
275.694
275.82
275.947
276.073
276.197
276.318
276.442
276.549
276.658
276.771
276.879
276.989
277.102
277.217
277.332
277.448
277.562
277.677
277.79
277.903
278.018
278.184
377.725
376.574
375.465
374.548
373.943
373.596
373.44
373.399
373.413
373.472
373.56
373.652
373.739
373.822
373.899
373.969
374.03
374.082
374.119
374.132
374.108
374.031
373.86
373.574
373.05
372.281
371.077
369.462
367.241
364.47
360.99
356.813
351.996
346.615
340.598
333.93
326.492
320.039
312.695
305.022
296.582
290.045
282.189
276.352
269.486
264.641
259.064
255.168
250.552
247.615
243.861
241.977
239.157
238.017
235.937
235.61
234.32
233.481
233.856
234.022
233.837
234.895
234.2
235.651
235.133
236.679
236.329
237.942
237.669
239.168
238.915
240.244
240.057
241.29
241.146
242.242
242.13
242.903
243.613
243.437
244.119
244.615
244.522
245.15
245.125
245.646
245.632
246.108
246.101
246.492
246.449
246.783
246.737
247.03
247.03
247.283
247.307
247.532
247.534
247.707
247.72
247.851
247.897
248.021
248.068
248.185
248.287
248.399
248.512
248.631
248.76
248.893
249.019
249.155
249.264
249.382
249.547
249.751
249.984
250.243
250.524
250.805
251.056
251.32
251.598
251.885
252.178
252.486
252.791
253.121
253.435
253.77
254.095
254.432
254.768
255.112
255.458
255.797
256.136
256.471
256.808
257.141
257.477
257.807
258.136
258.456
258.774
259.084
259.395
259.7
260.001
260.3
260.577
260.858
261.124
261.393
261.663
261.935
262.209
262.481
262.756
263.031
263.29
263.546
263.795
264.039
264.276
264.504
264.725
264.946
265.162
265.38
265.59
265.802
266.009
266.217
266.419
266.622
266.825
267.027
267.223
267.413
267.605
267.79
267.977
268.162
268.342
268.523
268.696
268.871
269.042
269.211
269.38
269.542
269.705
269.866
270.023
270.179
270.334
270.488
270.641
270.794
270.945
271.096
271.247
271.4
271.552
271.7
271.851
272.001
272.151
272.286
272.42
272.554
272.688
272.821
272.955
273.091
273.229
273.369
273.51
273.65
273.787
273.923
274.06
274.181
274.305
274.432
274.553
274.677
274.803
274.931
275.059
275.187
275.313
275.439
275.563
275.686
275.811
275.993
377.531
376.31
375.246
374.435
373.929
373.649
373.535
373.512
373.538
373.6
373.685
373.769
373.847
373.918
373.98
374.033
374.073
374.096
374.091
374.045
373.93
373.708
373.301
372.676
371.652
370.239
368.221
365.646
362.343
358.361
353.616
348.077
341.875
335.484
328.257
320.704
311.959
304.852
296.55
288.913
280.087
273.712
266.381
260.988
255.121
250.777
246.511
243.01
239.503
236.874
234.303
233.015
231.004
230.742
229.353
230.014
229.099
229.639
230.111
229.772
231.054
231.71
231.301
233.074
232.608
234.533
234.211
236.138
235.896
237.656
237.431
239.058
238.905
240.32
240.193
241.475
241.401
242.405
242.873
242.959
243.788
244.03
244.212
244.904
244.839
245.431
245.43
245.942
245.903
246.331
246.267