/*--------------------------------*- C++ -*----------------------------------*\
| =========                 |                                                 |
| \\      /  F ield         | OpenFOAM: The Open Source CFD Toolbox           |
|  \\    /   O peration     | Version:  2312                                  |
|   \\  /    A nd           | Website:  www.openfoam.com                      |
|    \\/     M anipulation  |                                                 |
\*---------------------------------------------------------------------------*/
FoamFile
{
    version     2.0;
    format      ascii;
    arch        "LSB;label=32;scalar=64";
    class       volScalarField;
    location    "0.003";
    object      k;
}
// * * * * * * * * * * * * * * * * * * * * * * * * * * * * * * * * * * * * * //

dimensions      [0 2 -2 0 0 0 0];

internalField   nonuniform List<scalar> 
48128
(
7.30355
9.4561
12.6965
12.9314
11.9468
10.3957
8.62391
6.94151
5.35222
3.71624
8.75682
55.2395
183.464
341.564
482.422
604.262
710.046
803.907
889.543
969.309
1045.02
1118.11
1189.19
1258.49
1326.4
1393.11
1458.93
1524.24
1589.54
1655.69
1721.67
1787.54
1854.01
1920.78
1987.86
2057.23
2129.71
2205.85
2280.25
2356.57
2431.77
2503.15
2573.95
2646.43
2717.73
2782.88
2840.66
2902.29
2953.95
2993.62
3012.12
3040.38
3055.99
3073.19
3059.98
3098.32
3160.75
3207.81
3249.76
3279.79
3302.43
3313.27
3314.24
3310.34
3302.26
3291.68
3277.27
3259.51
3237.5
3208.5
3176.94
3141.99
3107.88
3072.56
3036.92
3001.72
2965.16
2929.68
2893.26
2857.28
2820.12
2785.04
2749.39
2716.43
2683.04
2651.89
2620.26
2590.6
2560.71
2533.11
2505.75
2480.05
2454.79
2431.05
2408.09
2386.5
2365.91
2346.51
2328.21
2310.61
2293.76
2277.66
2262.35
2247.72
2234.17
2221.33
2209.41
2197.89
2187.25
2177.04
2167.62
2158.6
2150.18
2142.03
2134.32
2126.76
2119.56
2112.13
2105.32
2097.12
2095.53
2092.04
2086.08
2082.26
2077.71
2072.62
2067.38
2062.52
2057.64
2053.15
2048.85
2045.08
2041.6
2038.44
2035.46
2032.69
2030.39
2028.25
2026.2
2024.13
2022.19
2020.23
2018.31
2016.42
2014.53
2012.54
2010.36
2007.94
2005.34
2002.62
1999.83
1997.08
1994.3
1991.52
1988.73
1985.97
1983.27
1980.54
1978.02
1975.95
1973.83
1972.47
1971.09
1969.61
1968.12
1966.54
1964.83
1962.92
1960.79
1958.46
1956
1953.41
1950.9
1948.33
1946.06
1943.82
1941.95
1940.25
1938.79
1937.61
1936.56
1935.48
1934.41
1933.21
1931.81
1930.2
1928.43
1926.49
1924.38
1922.2
1919.93
1917.96
1915.88
1914.29
1912.85
1911.72
1910.74
1909.78
1908.8
1907.77
1906.63
1905.36
1903.89
1902.2
1900.32
1898.35
1896.33
1894.44
1892.23
1890.49
1889.31
1888.23
1887.22
1886.24
1885.24
1884.2
1883.08
1881.81
1880.38
1878.8
1877.06
1875.26
1873.39
1871.42
1869.68
1868.19
1866.62
1865.38
1864.33
1863.27
1862.18
1861.03
1859.81
1858.48
1857.02
1855.46
1853.78
1852.04
1850.23
1847.61
19.7871
9.94294
5.55083
3.87184
3.00344
2.56129
2.8202
5.22275
13.5058
33.2936
83.5588
183.061
335.967
518.542
695.651
870.377
1041.3
1209
1376.05
1544.24
1717.19
1895.66
2083.66
2279.17
2485.58
2701.42
2928.6
3167.28
3411.38
3671.79
3941
4215.74
4499.98
4789.05
5078.88
5372.07
5663.43
5962.9
6257.63
6552.35
6844.6
7123.6
7390.4
7645.82
7879.45
8096.31
8290.86
8490.43
8675.75
8842.75
8952.94
9069.28
9158.45
9244.08
9262.72
9274.22
9279.97
9255.53
9208.54
9137.86
9047.43
8935.39
8805.32
8662.59
8511.91
8357.15
8196.66
8031.8
7862.81
7691.33
7522.01
7348.15
7177.16
7003.97
6833.2
6664.48
6496.57
6331.75
6169.54
6010.93
5853.66
5702.15
5554.22
5412.27
5273.63
5140.3
5010.17
4884.93
4763.34
4646.97
4534.71
4427.23
4324.17
4225.3
4130.54
4038.75
3950.42
3865.38
3784.39
3707.07
3633.9
3564.17
3497.53
3433.12
3371.91
3312.94
3257.21
3203.46
3152.93
3104.18
3058.51
3014.77
2973.86
2934.85
2898.48
2863.46
2830.59
2797.3
2765.24
2732.65
2700.28
2674.87
2648.5
2621.01
2598.67
2577.7
2557.61
2539.04
2520.79
2503.1
2485.34
2468.23
2451.29
2434.96
2418.62
2402.89
2387.36
2372.8
2358.73
2345.53
2332.88
2320.75
2309.5
2298.48
2288.52
2278.65
2268.87
2259.54
2250.36
2241.59
2232.92
2224.69
2216.68
2209.2
2201.79
2194.63
2187.42
2180.09
2172.75
2165.35
2158.09
2150.78
2144.54
2138.19
2132.7
2127.23
2122.59
2118.22
2114.31
2110.77
2107.36
2104.17
2100.95
2097.7
2094.26
2090.63
2086.81
2082.84
2078.74
2074.49
2070.64
2066.76
2063.42
2060.39
2057.67
2055.2
2053.02
2051.1
2049.4
2047.65
2045.78
2043.74
2041.55
2039.08
2036.43
2033.65
2030.82
2028.08
2025.46
2023.02
2020.92
2018.98
2017.52
2016.19
2015.07
2013.92
2012.71
2011.44
2009.89
2007.92
2005.87
2003.74
2001.55
1999.33
1997.21
1995.18
1993.48
1991.86
1990.5
1989.24
1988.26
1987.27
1986.33
1985.19
1983.81
1982.31
1980.65
1978.85
1977
1975.13
1973.26
1971.48
1969.87
1968.48
1967.17
1966.12
1965.1
1964.24
1963.29
1961.69
26.41
13.9158
8.6289
5.23036
3.634
4.43341
11.1219
32.3253
76.2559
151.974
280.585
483.516
750.399
1072.87
1392.2
1700.25
1992.25
2271
2540.67
2806.09
3071.79
3339.43
3616.74
3901.18
4196.99
4503.34
4821.97
5153.86
5494.56
5847.28
6209.4
6579.79
6959.84
7347.1
7735.67
8129.41
8526.34
8931.28
9328.41
9718.85
10107.5
10479.9
10828.7
11159.4
11458.3
11733.6
11969.1
12201
12413.3
12607.3
12724.9
12830.9
12903.5
12958.8
12944.3
12903.6
12842.3
12744.9
12619.2
12465.2
12287.4
12085.1
11862.7
11625.7
11379.3
11128.6
10872.6
10613.9
10351.9
10084.8
9820.22
9551.48
9289.74
9027.13
8771.89
8520.03
8274.4
8032.93
7798.88
7570.82
7347.86
7132.52
6923.9
6722.98
6527.84
6340.13
6158.09
5983.23
5813.85
5652.06
5496.17
5347.3
5204.35
5067.43
4935.91
4808.56
4686.17
4568.15
4455.5
4347.67
4245.17
4147.11
4053.15
3962.27
3875.56
3791.84
3712.27
3635.35
3562.52
3492.11
3425.48
3361.51
3300.9
3242.96
3188.25
3135.34
3085.8
3035.81
2988.06
2940.43
2892.44
2852.49
2811.85
2770.01
2733.71
2699.65
2666.8
2635.76
2605.56
2576.42
2547.72
2519.99
2492.82
2466.6
2440.7
2415.59
2391
2367.4
2344.56
2322.68
2301.62
2281.24
2261.84
2243.05
2225.19
2208.18
2191.71
2176.03
2160.76
2146.09
2131.75
2117.92
2104.48
2091.64
2079.12
2066.95
2054.96
2042.87
2030.94
2018.97
2007.22
1995.38
1984.61
1974.06
1963.93
1954.32
1945.37
1936.97
1929.15
1921.77
1914.77
1908.02
1901.44
1895.05
1888.59
1882.12
1875.58
1869.01
1862.36
1855.7
1849.29
1843.07
1837.2
1831.68
1826.58
1821.78
1817.29
1813.2
1809.38
1805.76
1802.11
1798.41
1794.67
1790.74
1786.73
1782.63
1778.47
1774.47
1770.56
1766.8
1763.38
1760.11
1757.32
1754.79
1752.49
1750.31
1748.16
1746.03
1743.87
1741.32
1738.68
1735.99
1733.25
1730.48
1727.79
1725.16
1722.81
1720.57
1718.57
1716.69
1715.15
1713.64
1712.28
1710.88
1709.27
1707.59
1705.84
1703.95
1702
1700.02
1698.01
1696.1
1694.26
1692.64
1691.09
1689.81
1688.6
1687.62
1686.61
1685.13
31.3652
18.2505
12.6385
7.80741
8.15641
18.8694
49.2256
109.769
207.343
364.981
609.475
950.446
1353.48
1773.81
2165.42
2530.16
2870.23
3195.31
3511.42
3823.87
4137.7
4456.31
4785.61
5125.59
5479.78
5848.56
6232.1
6631.16
7044.4
7472.34
7913.04
8365.93
8829.36
9306.07
9785.99
10268.8
10753.3
11247.9
11733.4
12200.4
12664.5
13112.1
13523
13908.1
14248.7
14559.2
14813.9
15051.7
15261
15446.5
15547.4
15615.6
15643.3
15636.7
15567.8
15453.1
15306.9
15122.7
14908.3
14664.1
14395.9
14105.6
13797.5
13476.1
13146.2
12814.4
12479.9
12147.1
11814.5
11478.9
11150.3
10820.2
10500.6
10182.5
9875.42
9572.5
9280.93
8994.05
8718.67
8450.91
8191.96
7941.5
7699.98
7466.62
7241.22
7024.23
6815.22
6614.45
6420.84
6235.73
6057.97
5888.2
5725.36
5569.33
5419.27
5273.86
5134.32
4999.68
4871.3
4748.32
4631.27
4518.99
4411.15
4306.72
4206.84
4110.35
4018.44
3929.55
3845.14
3763.42
3685.79
3611.1
3540.03
3471.94
3407.31
3344.75
3286.03
3226.95
3170.4
3114.45
3057.48
3009.86
2961.8
2912.31
2868.54
2827.26
2787.11
2748.71
2711.38
2675.38
2640.07
2605.94
2572.64
2540.46
2508.87
2478.17
2448.18
2419.25
2391.26
2364.27
2338.2
2312.94
2288.66
2265.14
2242.56
2220.9
2199.94
2179.92
2160.39
2141.63
2123.31
2105.63
2088.4
2071.89
2055.77
2040.13
2024.79
2009.45
1994.36
1979.35
1964.61
1949.81
1936.07
1922.68
1909.56
1897.07
1885.19
1873.93
1863.27
1853.08
1843.38
1834
1824.86
1816.02
1807.18
1798.48
1789.78
1781.23
1772.59
1764.13
1755.79
1747.88
1740.07
1732.8
1725.89
1719.34
1713.08
1707.27
1701.71
1696.47
1691.23
1686.11
1680.94
1675.72
1670.49
1665.21
1660
1654.87
1649.89
1645.12
1640.63
1636.33
1632.46
1628.86
1625.5
1622.33
1619.24
1616.23
1613.3
1610.08
1606.79
1603.49
1600.19
1596.88
1593.66
1590.51
1587.64
1584.85
1582.3
1579.86
1577.74
1575.66
1573.78
1571.92
1569.93
1567.91
1565.89
1563.78
1561.63
1559.47
1557.28
1555.18
1553.13
1551.27
1549.47
1547.92
1546.43
1545.21
1543.98
1542.28
35.2988
26.1993
19.0331
14.0437
25.8278
59.7489
126.082
234.26
405.356
670.694
1038.47
1485.69
1929.12
2356.45
2762.56
3149.62
3519.45
3877.62
4229.79
4580.43
4934.84
5297.22
5672.77
6063.09
6471.43
6898.04
7343.67
7809.04
8293.56
8797.29
9317.02
9851.18
10397.8
10962.4
11532.1
12101
12666.4
13243.2
13812.5
14345.6
14868.6
15375.4
15829
16246.7
16603.9
16920.5
17168.1
17379.2
17547.7
17678.3
17725.2
17715.4
17657.8
17551.9
17389.2
17168
16906.7
16611.4
16285.6
15936.3
15566
15185.9
14795.1
14400.3
14001
13604.9
13212.1
12825.2
12443.6
12064.6
11695.3
11330.1
10977.6
10629.2
10295.5
9966.39
9653.41
9345.2
9052.08
8767.35
8494.98
8231.07
7978.35
7733.51
7498.92
7272.57
7056.32
6848.03
6648.33
6456.8
6273.68
6098.36
5930.52
5769.49
5614.47
5464.22
5320.23
5181.12
5048.69
4921.64
4800.63
4684.25
4572.3
4463.69
4359.62
4258.94
4162.88
4069.93
3981.47
3895.68
3813.99
3735.18
3660.05
3587.81
3519.11
3452.54
3389.83
3327
3266.55
3207.16
3146
3094.7
3043.82
2991.46
2943.95
2899.02
2855.27
2813.12
2772.15
2732.6
2693.85
2656.35
2619.78
2584.41
2549.77
2516.11
2483.19
2451.38
2420.6
2390.86
2362.06
2334.13
2307.18
2281.03
2255.82
2231.49
2207.95
2185.36
2163.32
2142.12
2121.37
2101.37
2081.82
2063.08
2044.75
2027
2009.57
1992.29
1975.29
1958.46
1941.94
1925.37
1909.81
1894.71
1879.81
1865.56
1851.88
1838.82
1826.37
1814.4
1802.96
1791.84
1781.04
1770.52
1760.11
1749.85
1739.68
1729.74
1719.71
1709.98
1700.29
1691.19
1682.08
1673.58
1665.4
1657.65
1650.17
1643.15
1636.35
1629.93
1623.51
1617.3
1611.03
1604.84
1598.65
1592.46
1586.42
1580.42
1574.62
1569.07
1563.76
1558.67
1553.97
1549.55
1545.39
1541.42
1537.59
1533.84
1530.27
1526.46
1522.58
1518.74
1514.95
1511.16
1507.49
1503.89
1500.58
1497.37
1494.38
1491.49
1488.89
1486.36
1484
1481.74
1479.38
1477
1474.69
1472.33
1469.94
1467.59
1465.22
1462.94
1460.7
1458.64
1456.6
1454.82
1453.08
1451.62
1450.18
1448.21
38.7752
38.2988
30.7932
30.6927
63.9903
128.389
234.317
402.951
664.99
1033.24
1482.43
1932.1
2370.91
2797.7
3211.94
3614.15
4005.91
4391.04
4773.77
5157.44
5548.04
5950.01
6368.71
6806.36
7265.94
7748.72
8255.76
8787.78
9343.66
9923.39
10522.2
11138.2
11766.6
12415.2
13071.9
13722.7
14360
15004.5
15647
16231.6
16788.8
17325.7
17786.6
18194.9
18529.3
18808.6
19004.2
19132.8
19201
19204.6
19138.2
18987.4
18773.5
18518.1
18234
17876.9
17477.1
17062.6
16616.7
16162.2
15693
15235.2
14771
14307.1
13846.7
13394.4
12958.3
12535.9
12125.1
11731.8
11348.2
10980.5
10627
10281.4
9955.29
9632.99
9332.88
9035.49
8757.71
8486.2
8231.6
7983.08
7746.81
7515.07
7295.36
7081.52
6879.4
6682.96
6496.19
6315.73
6144.18
5978.93
5821.73
5670.36
5524.48
5382.99
5247.42
5116
4990.93
4870.48
4755.62
4644.83
4538.14
4434.39
4334.67
4237.95
4145.41
4055.67
3970.03
3886.77
3807.27
3730.32
3656.8
3585.79
3518.24
3452.51
3390.45
3328.32
3268.37
3209.71
3148.94
3097.38
3047.1
2995.79
2947.49
2902.03
2857.93
2815.16
2773.53
2733.28
2693.79
2655.52
2618.12
2581.92
2546.48
2512.04
2478.29
2445.65
2414.02
2383.42
2353.74
2324.94
2297.07
2269.99
2243.81
2218.41
2193.86
2170.15
2147.04
2124.73
2102.88
2081.79
2061.15
2041.34
2021.93
2003.17
1984.71
1966.55
1948.65
1931
1913.67
1896.26
1879.78
1863.87
1848.08
1832.97
1818.31
1804.3
1790.88
1777.92
1765.51
1753.39
1741.64
1730.09
1718.8
1707.57
1696.55
1685.75
1674.89
1664.39
1653.9
1644.03
1634.11
1624.85
1615.91
1607.39
1599.13
1591.3
1583.7
1576.48
1569.3
1562.34
1555.32
1548.46
1541.61
1534.82
1528.16
1521.6
1515.22
1509.11
1503.21
1497.53
1492.25
1487.25
1482.51
1477.96
1473.58
1469.29
1465.24
1460.98
1456.65
1452.38
1448.21
1444.05
1440.03
1436.1
1432.45
1428.92
1425.6
1422.38
1419.41
1416.56
1413.82
1411.24
1408.56
1405.88
1403.34
1400.75
1398.15
1395.64
1393.11
1390.68
1388.29
1386.07
1383.86
1381.89
1379.95
1378.29
1376.67
1374.47
42.3061
54.7627
53.334
62.2405
122.554
218.348
371.231
613.088
959.878
1393.91
1837.54
2276.6
2707.15
3130.7
3548.31
3960.52
4368.78
4775.26
5183.06
5595.35
6017.82
6455.64
6913.85
7395.38
7903.66
8441.25
9008.91
9607
10233.3
10887.9
11565
12261.2
12967.2
13691.6
14427
15151.8
15847.1
16534.7
17222.4
17837
18390.4
18906
19308.2
19634.2
19870.5
20031.1
20093.4
20061
19966.7
19793.8
19554.3
19206.5
18795.2
18318.6
17827.7
17261.6
16651.6
16064.4
15465.1
14875.9
14304.6
13758.2
13241.5
12732.8
12256.9
11784.8
11351.2
10939.4
10545.7
10186.9
9833.56
9515.24
9206.86
8915.2
8644.53
8377.3
8137.48
7895.6
7678.9
7461.72
7266.62
7070.81
6890.76
6709.12
6541.41
6372.74
6217.18
6061.36
5915.89
5771.6
5636.39
5502.9
5375.83
5250.57
5130.22
5011.99
4898.77
4787.58
4681.85
4579.51
4481.85
4387.23
4296.02
4206.86
4120.62
4036.44
3955.42
3876.49
3800.79
3726.94
3656.03
3587.21
3521.04
3456.97
3395.74
3335.83
3279.17
3222.48
3167.9
3114.26
3058.65
3010.09
2963.84
2917.15
2871.57
2828.62
2787.32
2746.84
2707.53
2669.29
2631.76
2595.26
2559.49
2524.85
2490.87
2457.85
2425.4
2393.94
2363.37
2333.76
2304.97
2277.03
2249.9
2223.51
2197.91
2172.97
2148.88
2125.41
2102.65
2080.45
2058.85
2037.79
2017.26
1997.44
1978.05
1959.28
1940.81
1922.78
1904.88
1887.37
1870.12
1852.72
1836.15
1820.26
1804.38
1789.17
1774.29
1760.08
1746.41
1733.14
1720.44
1707.99
1695.91
1683.97
1672.41
1660.79
1649.5
1638.34
1627.24
1616.43
1605.64
1595.41
1585.22
1575.62
1566.35
1557.44
1548.82
1540.56
1532.57
1524.9
1517.36
1509.96
1502.63
1495.35
1488.19
1481.08
1474.08
1467.23
1460.52
1454.08
1447.84
1441.82
1436.17
1430.82
1425.72
1420.83
1416.11
1411.49
1407.15
1402.6
1398
1393.46
1389.05
1384.66
1380.42
1376.27
1372.41
1368.66
1365.14
1361.72
1358.51
1355.44
1352.46
1349.67
1346.78
1343.87
1341.17
1338.43
1335.69
1333.07
1330.43
1327.91
1325.43
1323.11
1320.78
1318.69
1316.62
1314.82
1313.06
1310.7
47.464
77.3284
87.3261
108.839
196.272
326.913
535.886
847.092
1249.74
1681.89
2113.02
2538.27
2958.47
3376.39
3793.38
4211.07
4630.43
5052.43
5479.87
5916.21
6365.76
6835.01
7328.24
7850.25
8404.81
8995.13
9621.66
10284.1
10978.3
11705.5
12456.8
13228.7
14005.6
14792.3
15587.5
16370.3
17101.1
17790.8
18461.2
19048.3
19519
19922.8
20164
20333.4
20391
20343.6
20201.7
19904.7
19494
18981.4
18426.6
17756.8
17038.4
16284.7
15553.1
14803.3
14036.5
13279.3
12607.7
11931.1
11343.2
10756.4
10260
9760.42
9333.09
8901.1
8528.19
8177.23
7856.23
7576.91
7302.39
7076.67
6851.09
6655.93
6474.37
6301.45
6153.15
6001.81
5875.75
5746.17
5636.86
5524.39
5425.9
5323.65
5232.81
5138.54
5054.09
4966.87
4886.68
4804.72
4728.3
4649.79
4573.58
4495.66
4420.44
4344.31
4270.74
4196.33
4125.04
4053.22
3984.21
3916.19
3850.08
3784.35
3719.71
3655.88
3593.91
3533.02
3474.06
3416.12
3359.85
3305.22
3251.81
3200.3
3150.09
3101
3054.22
3007.8
2963.09
2918.45
2872.66
2830.27
2791.34
2752.35
2713.38
2675.82
2640.25
2604.83
2570.76
2537
2504.12
2471.77
2440.05
2409.29
2379.01
2349.57
2320.45
2292.15
2264.54
2237.73
2211.59
2186.18
2161.39
2137.25
2113.74
2090.71
2068.49
2046.61
2025.52
2004.7
1984.56
1964.71
1945.44
1926.65
1908.39
1890.56
1873.17
1856.13
1839.23
1822.72
1806.38
1789.95
1774.12
1758.95
1743.82
1729.21
1714.87
1701.12
1687.86
1674.96
1662.56
1650.42
1638.6
1626.96
1615.59
1604.27
1593.15
1582.25
1571.41
1560.77
1550.19
1540.07
1530.08
1520.52
1511.33
1502.43
1493.84
1485.54
1477.53
1469.79
1462.24
1454.76
1447.47
1440.12
1432.96
1425.83
1418.79
1411.89
1405.14
1398.64
1392.32
1386.19
1380.41
1374.94
1369.7
1364.68
1359.84
1355.11
1350.66
1346.03
1341.35
1336.72
1332.23
1327.78
1323.46
1319.24
1315.3
1311.47
1307.87
1304.37
1301.06
1297.91
1294.81
1291.93
1288.94
1285.94
1283.17
1280.36
1277.57
1274.91
1272.25
1269.71
1267.21
1264.86
1262.49
1260.35
1258.22
1256.35
1254.53
1252.09
53.7204
107.735
131.092
168.718
282.682
453.648
718.84
1080.49
1487.91
1906.71
2321.44
2731.38
3139.46
3549.06
3961.7
4380.18
4805.02
5237.1
5678.9
6134
6605.36
7101.02
7625.15
8184.37
8782.36
9422.8
10105.6
10829.6
11588.4
12383.9
13202.6
14040.6
14876
15703.7
16520.7
17317.5
18030.5
18646.6
19202.6
19662
19946.2
20136.3
20125.7
19991.1
19721
19296.4
18771.5
18072.2
17277.4
16396.5
15502
14564
13623.4
12707.8
11816.2
11047.1
10318.7
9571.33
8968.89
8354.66
7858.67
7353.55
6953.4
6546.4
6220.56
5889.43
5617.92
5359.76
5140.22
4946.79
4766.65
4624.43
4480.76
4369.53
4261.88
4169.75
4092.07
4014.79
3957.61
3897.84
3853.28
3807.31
3771.89
3734.62
3704.53
3672.57
3646.66
3619.26
3594.6
3568.79
3544.48
3519.11
3494.71
3469.64
3444.96
3419.65
3394.06
3367.15
3339.43
3310.33
3280.54
3249.7
3217.68
3184.26
3149.63
3113.82
3077.28
3040.22
3003.24
2966.25
2929.55
2893.76
2857.99
2823.28
2788.55
2754.49
2721.23
2689.24
2657.54
2625.68
2593.11
2561.05
2532.08
2503.02
2473.7
2444.69
2417.24
2389.6
2363.06
2336.31
2310.33
2284.42
2258.98
2234.15
2209.68
2185.79
2162
2138.72
2115.88
2093.6
2071.77
2050.45
2029.58
2009.13
1989.15
1969.42
1950.35
1931.43
1913.17
1895.02
1877.47
1860.01
1843.06
1826.42
1810.29
1794.4
1779.08
1763.86
1748.98
1734.29
1719.77
1705.17
1690.92
1677.19
1663.56
1650.25
1637.19
1624.53
1612.32
1600.42
1588.94
1577.73
1566.74
1556.01
1545.38
1534.98
1524.51
1514.45
1504.34
1494.38
1484.49
1474.96
1465.58
1456.49
1447.78
1439.3
1431.13
1423.17
1415.52
1408.07
1400.86
1393.68
1386.71
1379.67
1372.81
1365.98
1359.2
1352.56
1346.04
1339.74
1333.6
1327.64
1321.95
1316.59
1311.44
1306.52
1301.77
1297.13
1292.79
1288.28
1283.73
1279.21
1274.81
1270.46
1266.24
1262.1
1258.22
1254.46
1250.91
1247.48
1244.21
1241.1
1238.03
1235.18
1232.23
1229.25
1226.51
1223.75
1221.01
1218.41
1215.82
1213.35
1210.92
1208.61
1206.3
1204.19
1202.07
1200.21
1198.4
1195.99
60.5746
143.251
180.094
238.789
381.209
593.679
904.373
1277.11
1676.19
2076.77
2473.08
2866.6
3260.52
3658.66
4063.66
4478.44
4903.67
5340.47
5791.15
6259.31
6747.7
7265.25
7816.65
8410.07
9048.85
9736.82
10472.8
11256.1
12075.2
12931.6
13805.5
14688
15551.8
16377.3
17148.5
17865.2
18467.8
18918.2
19262.2
19454.2
19376.8
19165.9
18804.8
18256
17577.5
16736
15805.2
14765.7
13680.2
12576.5
11537
10588.7
9693.07
8852.07
8065.92
7383.1
6799.25
6188.72
5713.79
5230.58
4863.16
4489.02
4203.88
3915.17
3696.08
3473.83
3301.27
3134.87
3004.82
2884.67
2783.53
2700.62
2623.82
2566.5
2511.44
2471.69
2435.82
2407.66
2389.47
2369.7
2361.35
2352.57
2351.33
2351.33
2353.93
2357.78
2363.82
2370.3
2377.65
2384.24
2391.26
2398.37
2406.43
2414.62
2423.24
2431.84
2441.07
2448.03
2454.1
2457.83
2460.23
2460.21
2459.37
2457.06
2453.04
2447
2439.06
2429.46
2418.56
2406.53
2393.59
2379.77
2364.87
2349.11
2332.64
2315.79
2298.71
2282.67
2266.26
2249.47
2231.61
2213.17
2195.97
2178.68
2160.87
2142.8
2125.19
2107.38
2089.88
2072.14
2054.68
2037.01
2019.61
2002.32
1985.34
1968.6
1951.78
1935.09
1918.58
1902.29
1886.23
1870.36
1854.76
1839.27
1824.09
1808.89
1794.15
1779.38
1765.05
1750.69
1736.77
1722.77
1709.15
1695.65
1682.58
1669.66
1657.21
1644.76
1632.73
1620.73
1608.86
1596.86
1584.99
1573.46
1562.01
1550.7
1539.57
1528.68
1518.15
1507.85
1497.88
1488.17
1478.61
1469.31
1460.02
1450.99
1441.85
1433.04
1424.19
1415.41
1406.66
1398.18
1389.83
1381.66
1373.84
1366.17
1358.81
1351.56
1344.62
1337.83
1331.3
1324.76
1318.44
1312.06
1305.81
1299.59
1293.4
1287.3
1281.3
1275.48
1269.78
1264.24
1258.9
1253.88
1249.04
1244.45
1240.01
1235.68
1231.64
1227.47
1223.26
1219.04
1214.94
1210.87
1206.91
1203.02
1199.36
1195.82
1192.48
1189.25
1186.16
1183.23
1180.33
1177.64
1174.86
1172.04
1169.46
1166.85
1164.28
1161.85
1159.43
1157.12
1154.85
1152.69
1150.52
1148.53
1146.52
1144.75
1143.02
1140.76
66.9252
181.988
233.279
316.289
487.878
737.395
1067.74
1436.49
1818.81
2199.04
2576.01
2951.7
3329.3
3713.58
4107.73
4514.67
4935.64
5372.1
5826.54
6302.63
6804.19
7340.39
7916.5
8542.18
9220.31
9954.18
10741.7
11580.7
12452.2
13351.4
14256.8
15141.6
15966.7
16705.2
17342.5
17896
18259.4
18387.4
18334.2
18135.5
17672.6
17026.4
16289
15339.4
14282.7
13135.8
11965.1
10881
9784.6
8791.61
7817.19
7001.05
6258.79
5588.72
4996.92
4456.06
4034.42
3605.29
3276.42
2952.38
2709.29
2471.46
2290.58
2113.13
1981.18
1851.55
1755.45
1657.52
1587.02
1515.41
1464.2
1413.71
1378.1
1346.09
1319.2
1302.1
1283.65
1277.32
1270.82
1268.32
1270.42
1274.5
1282.08
1292
1304.87
1319.44
1336.28
1354.31
1374.04
1394.35
1416.09
1438.1
1461.46
1485.21
1510.09
1535.36
1561.9
1586.7
1611.8
1634.42
1656.49
1676.45
1696.66
1715.36
1733.16
1748.93
1763.2
1775.47
1786.23
1795.05
1802.44
1807.85
1811.68
1814
1815.17
1815.37
1815.26
1815.17
1814.64
1813.41
1810.77
1806.96
1802.73
1798.03
1792.41
1785.99
1779.17
1771.88
1764.34
1756.39
1748.27
1739.8
1731.28
1722.61
1714.06
1705.43
1696.57
1687.52
1678.33
1669.03
1659.66
1650.22
1640.75
1631.19
1621.62
1611.93
1602.34
1592.65
1583.09
1573.42
1563.92
1554.25
1544.77
1535.22
1525.98
1516.82
1507.99
1499.14
1490.61
1482.05
1473.49
1464.79
1456.02
1447.39
1438.76
1430.11
1421.51
1412.98
1404.7
1396.55
1388.66
1380.95
1373.36
1365.98
1358.57
1351.38
1344.09
1337
1329.89
1322.76
1315.62
1308.62
1301.73
1294.9
1288.36
1281.88
1275.69
1269.53
1263.65
1257.87
1252.35
1246.79
1241.43
1236.03
1230.72
1225.41
1220.1
1214.84
1209.65
1204.59
1199.6
1194.73
1189.99
1185.54
1181.24
1177.21
1173.29
1169.5
1165.96
1162.34
1158.68
1154.98
1151.35
1147.75
1144.24
1140.77
1137.5
1134.34
1131.35
1128.47
1125.71
1123.11
1120.51
1118.12
1115.66
1113.14
1110.83
1108.51
1106.23
1104.06
1101.93
1099.89
1097.88
1095.97
1094.03
1092.25
1090.44
1088.86
1087.31
1085.31
72.2376
221.688
288.754
397.24
596.591
868.88
1201.36
1558.71
1920.63
2279.73
2636.48
2992.96
3352.35
3720.75
4102.2
4498.94
4912.03
5343.75
5797.29
6277.18
6788.69
7341.7
7942.08
8600.32
9318.59
10098.8
10933.6
11817.6
12728.3
13638.6
14510.2
15324.4
16040.2
16601.3
16971.3
17210.8
17211.6
16973.4
16517.6
15895.5
15075.6
14055.3
12969.3
11804
10599.5
9475.31
8327.53
7376.24
6419.96
5628.15
4859.87
4235.64
3689.02
3220.01
2827.89
2474.14
2190.69
1937.71
1736.61
1547.56
1406.78
1270.87
1169.76
1072.05
1000.89
931.953
882.104
831.455
795.017
757.76
731.385
703.737
686.594
668.103
655.71
645.371
634.697
630.453
625.444
624.465
625.343
627.159
631.042
636.626
644.229
653.157
663.907
675.973
689.813
704.782
721.525
739.428
759.121
780.042
802.681
826.455
851.795
877.79
904.668
931.756
959.425
986.995
1015.13
1042.48
1070.08
1096.55
1122.51
1146.94
1170.55
1192.32
1213.14
1231.76
1249.27
1265.68
1280.94
1295.58
1309.75
1323.85
1337.17
1349.81
1360.82
1369.34
1376.85
1383.37
1389.29
1393.5
1397.49
1400.22
1402.94
1404.57
1406.23
1407.02
1407.8
1408.09
1408.43
1408.33
1407.8
1406.75
1405.24
1403.31
1401.02
1398.39
1395.47
1392.25
1388.77
1385.01
1381.08
1376.93
1372.67
1368.19
1363.6
1358.76
1353.84
1348.8
1343.86
1338.96
1334.26
1329.52
1324.95
1320.31
1315.57
1310.62
1305.51
1300.3
1294.97
1289.49
1283.91
1278.23
1272.64
1267.08
1261.7
1256.43
1251.23
1246.18
1241.1
1236.15
1231.13
1226.2
1221.22
1216.16
1211.03
1205.93
1200.85
1195.75
1190.84
1185.91
1181.22
1176.49
1172
1167.56
1163.34
1159.09
1155
1150.87
1146.78
1142.67
1138.54
1134.41
1130.3
1126.25
1122.23
1118.29
1114.4
1110.76
1107.23
1103.97
1100.8
1097.74
1094.91
1092.05
1089.13
1086.16
1083.21
1080.27
1077.38
1074.51
1071.78
1069.16
1066.68
1064.31
1062.02
1059.88
1057.74
1055.79
1053.78
1051.71
1049.79
1047.89
1046.02
1044.24
1042.5
1040.83
1039.2
1037.63
1036.05
1034.57
1033.06
1031.76
1030.47
1028.86
77.0965
261.476
345.266
476.687
696.248
979.11
1306.23
1646.45
1986.38
2323.96
2659.43
2995.74
3339.03
3692.02
4058.17
4440.56
4841.76
5265.15
5714.83
6196.93
6717.91
7288.89
7915.85
8610.34
9370.08
10193.5
11071.6
11983.2
12888
13750.7
14528
15177.7
15675.3
15945.6
15966.4
15827.4
15515.9
14899.5
14056.6
13046.5
11967.2
10777.5
9546.49
8424.86
7277.18
6324.37
5356.14
4606.94
3876.36
3315.14
2797.54
2379.94
2027.84
1736.88
1502.79
1301.14
1134.79
1004.06
894.994
798.696
727.194
660.554
611.491
565.28
531.242
498.949
475.07
451.167
433.193
414.942
401.182
386.907
376.935
366.177
359.057
351.678
345.356
340.787
335.94
333.167
331.371
329.404
328.941
329.253
330.401
332.213
334.937
338.368
342.749
347.883
354.031
361.039
369.208
378.357
388.764
400.166
412.875
426.594
441.546
457.483
474.611
492.762
512.069
532.246
553.401
575.292
597.791
620.663
643.841
667.051
690.475
713.438
736.086
758.374
780.318
802.466
824.789
847.112
869.205
890.58
911.252
929.375
946.109
961.189
976.472
989.834
1003.11
1014.75
1026.49
1036.87
1047.31
1056.67
1065.94
1074.42
1082.77
1090.46
1097.71
1104.13
1110.01
1115.23
1120.01
1124.14
1127.92
1131.06
1133.93
1136.15
1138.25
1139.75
1141.22
1141.9
1142.6
1142.58
1142.47
1142.17
1141.79
1141.38
1141.02
1140.63
1140.24
1139.77
1139.16
1138.25
1137.04
1135.55
1133.79
1131.75
1129.45
1126.94
1124.33
1121.65
1119.06
1116.47
1113.95
1111.51
1109.05
1106.65
1104.18
1101.7
1099.14
1096.45
1093.63
1090.73
1087.75
1084.69
1081.66
1078.59
1075.64
1072.64
1069.79
1066.96
1064.31
1061.63
1059.06
1056.45
1053.84
1051.18
1048.48
1045.73
1042.94
1040.15
1037.33
1034.53
1031.73
1029.11
1026.57
1024.28
1022.06
1019.92
1018.01
1016.09
1014.1
1012.04
1009.96
1007.86
1005.77
1003.67
1001.66
999.726
997.906
996.178
994.516
992.986
991.455
990.074
988.643
987.162
985.765
984.412
983.068
981.791
980.56
979.383
978.233
977.113
975.981
974.907
973.809
972.882
971.933
970.859
90.0127
298.424
398.168
547.16
780.183
1065.66
1382.65
1703.26
2020.85
2336.12
2652.32
2971.67
3295.76
3629.87
3978.22
4344.4
4731.92
5145.59
5591.03
6076.74
6610.22
7204.74
7864.9
8598.51
9403.28
10269.6
11169.4
12064.8
12914.5
13660.7
14248.5
14648.8
14858.2
14775.9
14496.7
13986.8
13323.1
12401
11280.7
10041.3
8850.9
7698.94
6522.77
5564.84
4617.79
3891.24
3183.46
2660.16
2175.15
1823.05
1513.49
1272.5
1076.2
918.006
796.094
694.926
611.835
552.917
499.534
459.373
426.923
397.305
374.672
353.484
337.207
321.349
308.872
296.257
286.307
276.071
267.648
259.072
252.272
245.238
239.812
234.185
229.959
225.908
221.76
218.315
215.601
212.824
210.77
208.682
207.449
206.164
205.613
205.034
205.088
205.327
205.93
206.883
208.297
210.136
212.496
215.292
218.637
222.478
226.93
231.94
237.612
243.923
250.983
258.748
267.33
276.697
286.868
297.803
309.5
321.946
335.146
349.025
363.609
378.898
395.015
412.144
430.269
449.272
469.014
489.285
510.07
530.107
550.129
569.064
588.347
606.542
624.958
642.099
659.431
675.74
692.232
707.874
723.613
738.468
753.226
767.032
780.78
793.681
806.135
817.781
829.004
839.34
849.328
858.357
867.122
874.88
882.516
889.149
895.787
901.431
907.145
911.938
916.719
920.98
925.235
929.331
933.476
937.471
941.503
945.316
949.034
952.342
955.111
957.425
959.315
960.792
961.906
962.605
963.171
963.52
963.882
964.178
964.489
964.824
965.137
965.49
965.671
965.855
965.834
965.675
965.322
964.79
964.088
963.235
962.291
961.26
960.227
959.14
958.115
957.08
956.166
955.23
954.355
953.438
952.48
951.463
950.359
949.164
947.88
946.524
945.099
943.624
942.105
940.678
939.321
938.159
937.05
936.01
935.154
934.341
933.436
932.452
931.404
930.303
929.166
927.995
926.848
925.753
924.734
923.785
922.89
922.096
921.305
920.621
919.901
919.126
918.387
917.687
916.99
916.333
915.72
915.139
914.579
914.014
913.437
912.866
912.278
911.814
911.288
910.908
104.08
328.701
443.879
606.415
846.95
1129.89
1432.24
1732.65
2028.29
2324.93
2622.48
2921.24
3224.84
3539.32
3869.32
4219.02
4592.91
4997.95
5442.07
5936.94
6490.25
7115.24
7817.21
8599.81
9450.42
10345.1
11230
12062.8
12789.6
13344.3
13676.5
13768.8
13672.6
13298.9
12691.6
11838
10842.3
9679.35
8459.27
7223.71
6041.51
5064.11
4099.41
3361.87
2691.83
2197.46
1761.45
1447.95
1176.9
986.984
824.054
704.746
606.175
529.097
469.484
421.185
383.347
354.421
330.571
314.733
298.658
284.053
272.139
260.076
250.184
239.985
232.007
223.764
216.863
209.824
203.979
197.687
192.756
187.693
183.724
179.451
176.21
173.104
169.971
167.145
164.73
162.322
160.34
158.302
156.615
154.887
153.551
152.181
151.117
150.024
149.211
148.432
147.875
147.486
147.242
147.239
147.362
147.656
148.135
148.795
149.67
150.752
152.082
153.657
155.529
157.702
160.194
163.006
166.161
169.68
173.588
177.9
182.673
187.958
193.87
200.525
207.968
216.194
225.22
235.046
245.666
256.907
268.676
280.977
293.891
307.308
321.239
335.534
350.263
365.294
380.759
396.51
412.604
428.908
445.479
462.031
478.794
495.203
511.552
527.284
542.868
557.621
572.205
585.795
599.246
611.557
623.801
634.83
645.876
655.911
666.048
675.263
684.523
693.119
701.732
710.043
718.425
726.534
734.611
742.398
749.956
757.086
763.657
769.655
775.166
780.139
784.692
788.692
792.484
795.935
799.349
802.633
805.88
809.142
812.335
815.515
818.436
821.301
823.95
826.388
828.553
830.441
832.126
833.526
834.818
835.872
836.943
837.855
838.78
839.658
840.575
841.47
842.392
843.256
844.047
844.781
845.365
845.833
846.15
846.348
846.419
846.388
846.294
846.181
846.147
846.204
846.319
846.504
846.804
847.196
847.5
847.701
847.793
847.793
847.742
847.627
847.472
847.322
847.216
847.156
847.148
847.188
847.254
847.36
847.468
847.49
847.525
847.576
847.63
847.699
847.798
847.913
848.039
848.128
848.189
848.215
848.239
848.319
848.341
848.71
115.841
350.683
481.09
652.954
895.875
1172.14
1457.47
1737.79
2017.08
2294.51
2570.82
2848.37
3131.49
3426.78
3739.24
4074.01
4436.71
4837.6
5287.28
5800.24
6384.24
7055.53
7811.7
8651.24
9540.71
10438.2
11255.3
11965.8
12511.2
12808.6
12826.3
12635.6
12244.9
11545.1
10626.6
9496.4
8228.96
6983.12
5805.75
4746.3
3756.03
3015.38
2364.63
1884.9
1489.38
1201.3
972.977
808.66
675.033
580.132
498.295
441.286
389.416
351.845
320.617
297.574
278.964
263.546
251.845
241.515
230.132
221.796
213.326
204.701
197.486
190.142
184.249
178.31
173.397
168.349
164.16
159.999
156.508
152.961
150.009
147.027
144.628
142.169
139.971
138.098
136.176
134.305
132.797
131.216
129.737
128.25
127.045
125.819
124.726
123.614
122.668
121.706
120.914
120.109
119.494