/*--------------------------------*- C++ -*----------------------------------*\
| =========                 |                                                 |
| \\      /  F ield         | OpenFOAM: The Open Source CFD Toolbox           |
|  \\    /   O peration     | Version:  2312                                  |
|   \\  /    A nd           | Website:  www.openfoam.com                      |
|    \\/     M anipulation  |                                                 |
\*---------------------------------------------------------------------------*/
FoamFile
{
    version     2.0;
    format      ascii;
    arch        "LSB;label=32;scalar=64";
    class       volScalarField;
    location    "0.003";
    object      minKappa;
}
// * * * * * * * * * * * * * * * * * * * * * * * * * * * * * * * * * * * * * //

dimensions      [0 0 0 0 0 0 0];

internalField   nonuniform List<scalar> 
48128
(
0.613247
0.613043
0.613286
0.61311
0.613025
0.612978
0.612865
0.612723
0.612847
0.61351
0.615947
0.61771
0.618736
0.619612
0.620342
0.621707
0.622902
0.624045
0.625121
0.626119
0.627015
0.627871
0.628692
0.629452
0.630139
0.630743
0.631247
0.631625
0.631873
0.632005
0.632043
0.631915
0.63165
0.631266
0.630772
0.63018
0.629674
0.628647
0.627692
0.626698
0.625682
0.624682
0.623717
0.62279
0.621925
0.621141
0.620446
0.619734
0.619122
0.618701
0.618559
0.618432
0.618391
0.618449
0.618648
0.618951
0.619397
0.619954
0.620627
0.621408
0.622292
0.623261
0.624306
0.625426
0.626721
0.628127
0.629608
0.631155
0.632786
0.634432
0.636135
0.637855
0.639591
0.641377
0.643159
0.645001
0.646817
0.648666
0.650504
0.652318
0.654122
0.655874
0.657633
0.659355
0.66107
0.66273
0.664371
0.665957
0.667514
0.669029
0.670526
0.671958
0.673357
0.674724
0.676087
0.677451
0.678816
0.680135
0.681387
0.68256
0.683674
0.684762
0.68585
0.686917
0.687959
0.688959
0.689912
0.690818
0.691687
0.692523
0.693307
0.694051
0.694738
0.69538
0.695983
0.696542
0.697125
0.69774
0.698385
0.699116
0.700142
0.700324
0.700723
0.701393
0.701561
0.701822
0.702117
0.702426
0.702746
0.703079
0.703419
0.70376
0.704095
0.704432
0.704774
0.70512
0.705458
0.70576
0.70604
0.706302
0.706555
0.706787
0.707001
0.707199
0.707375
0.707532
0.707672
0.707795
0.707919
0.708034
0.708151
0.708256
0.708347
0.70843
0.708518
0.708612
0.708722
0.708848
0.708991
0.709144
0.709308
0.677827
0.677812
0.677802
0.677781
0.677732
0.677667
0.677579
0.677484
0.67738
0.677286
0.677194
0.677125
0.677055
0.709731
0.676993
0.676991
0.67699
0.677008
0.677011
0.677001
0.676978
0.676942
0.676879
0.676804
0.676724
0.676634
0.676536
0.676437
0.676356
0.676287
0.676244
0.676191
0.676187
0.67617
0.676167
0.676152
0.676126
0.676088
0.676037
0.675974
0.675898
0.675805
0.675708
0.675609
0.675522
0.675445
0.675377
0.675296
0.675309
0.675296
0.675279
0.67526
0.675235
0.675202
0.675158
0.675101
0.675034
0.67496
0.674879
0.674789
0.674712
0.674632
0.674566
0.674531
0.674491
0.674449
0.674435
0.674411
0.674381
0.674344
0.674299
0.674243
0.674178
0.674105
0.674026
0.673943
0.673858
0.673782
0.673689
0.613247
0.613043
0.613286
0.61311
0.613025
0.612978
0.612812
0.612646
0.612847
0.61351
0.615947
0.61771
0.618736
0.619612
0.620342
0.621707
0.622902
0.624045
0.625121
0.626119
0.627015
0.627871
0.628692
0.629452
0.630139
0.630743
0.631247
0.631625
0.631873
0.632005
0.632043
0.631915
0.63165
0.630885
0.629951
0.628953
0.627917
0.626838
0.625757
0.62469
0.623636
0.622632
0.621702
0.620854
0.620113
0.61948
0.619003
0.618817
0.618788
0.618701
0.618559
0.618432
0.618391
0.618449
0.618648
0.618951
0.619397
0.619954
0.620627
0.621408
0.622292
0.623261
0.624306
0.625426
0.626721
0.628127
0.629608
0.631155
0.632786
0.634432
0.636135
0.637855
0.639591
0.641377
0.643159
0.645001
0.646817
0.648666
0.650504
0.652318
0.654122
0.655874
0.657633
0.659355
0.66107
0.66273
0.664371
0.665957
0.667514
0.669029
0.670526
0.671958
0.673357
0.674724
0.676087
0.677451
0.678816
0.680135
0.681387
0.68256
0.683674
0.684762
0.68585
0.686917
0.687959
0.688959
0.689912
0.690818
0.691687
0.692523
0.693307
0.694051
0.694738
0.69538
0.695983
0.696542
0.697125
0.69774
0.698385
0.699116
0.700142
0.700324
0.700723
0.701393
0.701561
0.701822
0.702117
0.702426
0.702746
0.703079
0.703419
0.70376
0.704095
0.704432
0.704774
0.70512
0.705458
0.70576
0.70604
0.706302
0.706555
0.706787
0.707001
0.707199
0.707375
0.707532
0.707672
0.707795
0.707919
0.708034
0.708151
0.708256
0.708347
0.70843
0.708518
0.708612
0.708722
0.708848
0.708991
0.709144
0.709308
0.677827
0.677812
0.677802
0.677781
0.677732
0.677667
0.677579
0.677484
0.67738
0.677286
0.677194
0.677125
0.677055
0.709731
0.676993
0.676991
0.67699
0.677008
0.677011
0.677001
0.676978
0.676942
0.676879
0.676804
0.676724
0.676634
0.676536
0.676437
0.676356
0.676287
0.676244
0.676191
0.676187
0.67617
0.676167
0.676152
0.676126
0.676088
0.676037
0.675974
0.675898
0.675805
0.675708
0.675609
0.675522
0.675445
0.675377
0.675296
0.675309
0.675296
0.675279
0.67526
0.675235
0.675202
0.675158
0.675101
0.675034
0.67496
0.674879
0.674789
0.674712
0.674632
0.674566
0.674531
0.674491
0.674449
0.674435
0.674411
0.674381
0.674344
0.674299
0.674243
0.674178
0.674105
0.674026
0.673943
0.673858
0.673782
0.673689
0.613521
0.613275
0.613322
0.61338
0.613213
0.612943
0.612736
0.612646
0.613606
0.615876
0.618334
0.620521
0.622639
0.624719
0.626377
0.627823
0.629085
0.630194
0.630948
0.631435
0.631785
0.632088
0.632315
0.632454
0.632502
0.632461
0.632318
0.632031
0.631624
0.6311
0.630518
0.62983
0.628887
0.628022
0.627115
0.62617
0.625206
0.624234
0.623278
0.622368
0.621498
0.6207
0.619999
0.619406
0.6191
0.618983
0.619003
0.618817
0.618788
0.618792
0.618857
0.619051
0.619428
0.619929
0.620577
0.621353
0.622298
0.623365
0.624566
0.625888
0.627325
0.628851
0.63046
0.632147
0.633911
0.635757
0.637656
0.639608
0.641623
0.64364
0.645706
0.647761
0.649827
0.651922
0.654006
0.656133
0.658223
0.660327
0.662413
0.664466
0.666499
0.668531
0.67055
0.672538
0.674491
0.676397
0.678265
0.680074
0.681844
0.68357
0.685269
0.686898
0.68849
0.690044
0.691591
0.693129
0.694667
0.69615
0.697562
0.698897
0.700173
0.701427
0.70268
0.703909
0.705113
0.706273
0.707385
0.70845
0.709478
0.71047
0.711411
0.71231
0.713149
0.713943
0.714696
0.715397
0.716119
0.716868
0.717648
0.718507
0.719643
0.719951
0.720491
0.721258
0.721567
0.721971
0.722403
0.722845
0.723291
0.723743
0.7242
0.724649
0.72509
0.72553
0.725971
0.726418
0.726853
0.727253
0.727631
0.727992
0.728341
0.728668
0.728978
0.72927
0.729543
0.72979
0.730019
0.730228
0.730439
0.730638
0.730839
0.731025
0.731197
0.731356
0.731518
0.731686
0.731867
0.732062
0.732274
0.732494
0.732726
0.73297
0.733128
0.733296
0.733473
0.733581
0.733698
0.733752
0.733809
0.73384
0.733872
0.733907
0.733944
0.73399
0.734049
0.734114
0.734192
0.734276
0.730453
0.730539
0.730607
0.730652
0.730704
0.7307
0.73069
0.730669
0.730634
0.730585
0.730531
0.730485
0.730448
0.730432
0.730412
0.730429
0.730438
0.730461
0.730471
0.73047
0.730455
0.730428
0.730385
0.730328
0.730246
0.730152
0.730055
0.729959
0.729872
0.729788
0.729676
0.72968
0.729661
0.729632
0.729603
0.729568
0.729526
0.729471
0.729403
0.729322
0.729231
0.729129
0.729016
0.728908
0.728799
0.728689
0.72862
0.728544
0.728462
0.728414
0.728358
0.728296
0.72823
0.728155
0.728071
0.727976
0.727871
0.727757
0.727633
0.727505
0.727376
0.727199
0.613677
0.613393
0.613131
0.613191
0.613012
0.612889
0.612736
0.613667
0.616543
0.619838
0.622083
0.623855
0.625264
0.626312
0.627119
0.627725
0.628281
0.628762
0.629171
0.629511
0.629739
0.629934
0.630086
0.630168
0.630167
0.630067
0.629863
0.629552
0.629135
0.628617
0.627873
0.627172
0.62641
0.625577
0.624719
0.623851
0.622993
0.622152
0.621351
0.620636
0.619989
0.619509
0.619311
0.61927
0.6191
0.618983
0.619028
0.619042
0.619235
0.619556
0.620068
0.620722
0.621584
0.622589
0.623739
0.625034
0.626511
0.628098
0.629825
0.631662
0.633612
0.63563
0.637724
0.639882
0.642108
0.644406
0.646729
0.649094
0.651491
0.653873
0.656286
0.658658
0.661035
0.663414
0.665776
0.668158
0.670487
0.672815
0.675113
0.677363
0.679547
0.681692
0.683806
0.685876
0.687893
0.689856
0.69177
0.693615
0.695413
0.697167
0.698889
0.700538
0.702143
0.703707
0.705258
0.706793
0.708325
0.70979
0.711186
0.712528
0.713825
0.715106
0.716387
0.717644
0.718876
0.720062
0.721203
0.722295
0.723356
0.724377
0.725351
0.726282
0.727154
0.727986
0.728771
0.729508
0.730265
0.731045
0.731861
0.732741
0.733864
0.73421
0.734776
0.735511
0.735898
0.73635
0.736824
0.73731
0.737796
0.738286
0.738782
0.739267
0.739743
0.740216
0.740687
0.741164
0.741626
0.742053
0.74246
0.742851
0.743228
0.743585
0.743925
0.744246
0.744554
0.744833
0.745094
0.745338
0.745582
0.745813
0.746047
0.746261
0.746464
0.746651
0.74684
0.747034
0.74724
0.747458
0.74769
0.747932
0.748185
0.748448
0.748633
0.748825
0.749026
0.749163
0.749308
0.749391
0.749478
0.749537
0.749596
0.749656
0.749719
0.749789
0.749871
0.749959
0.750057
0.750161
0.750281
0.750394
0.748886
0.748951
0.750651
0.750668
0.750687
0.750686
0.750675
0.75065
0.750621
0.750596
0.750578
0.750579
0.748903
0.748925
0.748945
0.748976
0.749
0.749008
0.749
0.748981
0.748946
0.748896
0.74882
0.748731
0.748637
0.748543
0.748456
0.748368
0.748256
0.748254
0.748232
0.748201
0.748168
0.74813
0.748085
0.748026
0.747954
0.747868
0.747771
0.747663
0.747543
0.747428
0.74731
0.747192
0.747112
0.747025
0.746933
0.746872
0.746803
0.746729
0.74665
0.746564
0.746469
0.746364
0.746249
0.746123
0.745988
0.745847
0.745703
0.745502
0.613777
0.613372
0.612959
0.613025
0.612984
0.612889
0.613788
0.61667
0.620004
0.622278
0.623875
0.624977
0.62569
0.62605
0.626362
0.626748
0.627083
0.627397
0.627691
0.627938
0.628086
0.628207
0.628275
0.628276
0.628198
0.628027
0.627767
0.62741
0.626965
0.626289
0.625674
0.624988
0.624263
0.623491
0.622711
0.621954
0.621246
0.620581
0.619984
0.619713
0.619612
0.619509
0.619311
0.61927
0.619261
0.619361
0.619671
0.620142
0.620839
0.621682
0.622737
0.623955
0.62541
0.627024
0.628777
0.630688
0.632798
0.634987
0.637331
0.639758
0.642286
0.644851
0.647471
0.650131
0.652836
0.655604
0.658347
0.66112
0.663878
0.666592
0.669313
0.671947
0.674579
0.677173
0.67974
0.6823
0.684777
0.687241
0.689658
0.692003
0.694255
0.696467
0.698628
0.700732
0.702764
0.704738
0.706652
0.708489
0.710271
0.712011
0.713711
0.715338
0.71691
0.71844
0.719948
0.721434
0.722916
0.724316
0.725653
0.726915
0.728123
0.729317
0.73051
0.731679
0.732829
0.733933
0.734997
0.736015
0.737007
0.737956
0.738864
0.73973
0.74055
0.741351
0.7421
0.742815
0.743546
0.744294
0.745086
0.74592
0.746959
0.747299
0.747832
0.748466
0.748906
0.749336
0.749793
0.750266
0.750742
0.751221
0.751706
0.752182
0.752649
0.753111
0.75357
0.754035
0.754481
0.754896
0.755294
0.755674
0.756042
0.756389
0.75672
0.757033
0.757338
0.757612
0.757872
0.758116
0.75836
0.758593
0.758828
0.759041
0.759245
0.759432
0.759622
0.759815
0.760018
0.760232
0.760458
0.760695
0.760941
0.761198
0.761383
0.761571
0.761768
0.761909
0.762059
0.762146
0.762237
0.762303
0.762367
0.762433
0.762503
0.762578
0.762665
0.762758
0.76286
0.762968
0.76309
0.763205
0.763306
0.763381
0.763469
0.763489
0.763513
0.763514
0.763506
0.763485
0.763461
0.763439
0.763426
0.763428
0.76246
0.762485
0.762506
0.762538
0.762564
0.762574
0.762567
0.76255
0.762517
0.762467
0.762392
0.762303
0.762209
0.762112
0.762023
0.76193
0.761818
0.761808
0.761781
0.761746
0.761708
0.761666
0.761616
0.761552
0.761475
0.761383
0.761278
0.761164
0.761038
0.760915
0.760788
0.760666
0.760577
0.760483
0.760382
0.760311
0.760231
0.760146
0.760057
0.75996
0.759856
0.759742
0.759618
0.759484
0.75934
0.75919
0.759036
0.758818
0.613845
0.613339
0.612959
0.613025
0.612984
0.61384
0.61644
0.619723
0.62203
0.62354
0.624508
0.624976
0.625199
0.625396
0.625559
0.625785
0.626008
0.626216
0.626397
0.626544
0.626607
0.626646
0.62664
0.62657
0.626429
0.626206
0.625905
0.625521
0.624916
0.624368
0.62377
0.623128
0.62247
0.621799
0.621145
0.620545
0.620124
0.619948
0.619935
0.619713
0.619612
0.619593
0.619625
0.619835
0.620269
0.62089
0.621775
0.622864
0.624239
0.625799
0.627588
0.629572
0.631824
0.634249
0.636823
0.639522
0.642459
0.645431
0.648551
0.651728
0.654952
0.658195
0.661409
0.664641
0.66786
0.671153
0.674328
0.677514
0.68062
0.683635
0.686634
0.689467
0.692291
0.69502
0.697701
0.700344
0.702862
0.705348
0.707768
0.710082
0.712265
0.714414
0.716489
0.718501
0.720426
0.722297
0.724096
0.725814
0.72747
0.729089
0.730663
0.732165
0.733599
0.734994
0.736356
0.737699
0.739036
0.740283
0.741478
0.742598
0.743669
0.74473
0.745787
0.746822
0.747844
0.748823
0.749771
0.750676
0.75156
0.752398
0.753205
0.75397
0.754688
0.755376
0.756016
0.756636
0.757269
0.757905
0.758594
0.759305
0.760176
0.76048
0.760904
0.761383
0.761817
0.762169
0.762562
0.762978
0.763398
0.763825
0.764252
0.76468
0.765098
0.76551
0.765919
0.766334
0.766724
0.767092
0.767446
0.767782
0.768104
0.768409
0.768699
0.76897
0.769239
0.769477
0.769704
0.769921
0.770136
0.770346
0.770554
0.770742
0.770923
0.771089
0.771257
0.771426
0.771605
0.771792
0.771992
0.772201
0.772418
0.772648
0.772814
0.772976
0.773148
0.773272
0.773407
0.77348
0.773557
0.773614
0.773666
0.773721
0.773781
0.773846
0.77392
0.774005
0.774095
0.774192
0.7743
0.774404
0.774494
0.774559
0.77463
0.774647
0.774656
0.774653
0.774638
0.774609
0.77458
0.774552
0.774532
0.774529
0.773901
0.773924
0.773934
0.773961
0.773979
0.773983
0.773972
0.773949
0.77391
0.773855
0.773775
0.77368
0.773579
0.773476
0.773379
0.773277
0.773163
0.773139
0.773103
0.77306
0.773014
0.772964
0.772905
0.772834
0.772748
0.772647
0.772534
0.772411
0.772275
0.772142
0.772006
0.771877
0.771778
0.771675
0.771567
0.771484
0.771393
0.771296
0.771196
0.771087
0.770972
0.770848
0.770714
0.770571
0.770418
0.77026
0.770096
0.769863
0.613844
0.613339
0.613001
0.613062
0.613714
0.615893
0.619112
0.621514
0.623073
0.623999
0.624416
0.62457
0.624638
0.624707
0.624792
0.624919
0.625036
0.625144
0.625233
0.625294
0.625288
0.625255
0.625188
0.62506
0.624873
0.624613
0.62429
0.623741
0.623277
0.622757
0.62221
0.621652
0.621111
0.620593
0.620318
0.620199
0.620124
0.619948
0.619935
0.619924
0.620085
0.620452
0.621051
0.621884
0.623023
0.624417
0.626147
0.628153
0.630527
0.633145
0.636009
0.639087
0.642482
0.646036
0.649825
0.653487
0.657513
0.661596
0.66565
0.669831
0.673881
0.678024
0.681882
0.685799
0.689564
0.693454
0.697066
0.700665
0.704082
0.707327
0.710517
0.713421
0.716314
0.719017
0.721657
0.724204
0.726579
0.728898
0.731124
0.733204
0.735111
0.73699
0.738785
0.740524
0.742165
0.743762
0.745276
0.74671
0.748077
0.749419
0.75071
0.751941
0.753102
0.754235
0.755326
0.756415
0.757496
0.758488
0.759442
0.760322
0.761163
0.761998
0.762829
0.763644
0.764457
0.765234
0.765993
0.766712
0.767417
0.768073
0.768713
0.76931
0.769873
0.770413
0.770911
0.771401
0.771906
0.772394
0.772946
0.773501
0.774168
0.77442
0.774694
0.775004
0.775333
0.77558
0.775855
0.776161
0.77647
0.776794
0.777112
0.77744
0.777758
0.778084
0.778406
0.778734
0.779034
0.779322
0.7796
0.779858
0.780104
0.780334
0.780554
0.780755
0.780957
0.781129
0.781297
0.781459
0.781617
0.781779
0.781934
0.782075
0.782204
0.782333
0.782453
0.78258
0.782711
0.782856
0.783005
0.783164
0.783334
0.783513
0.783639
0.783757
0.783884
0.783975
0.784074
0.784117
0.784167
0.784192
0.784219
0.784248
0.784279
0.784317
0.78437
0.784425
0.784493
0.784559
0.78464
0.78472
0.784782
0.784823
0.784864
0.784867
0.784856
0.784832
0.784798
0.784751
0.784706
0.784662
0.784623
0.784604
0.784161
0.784175
0.784164
0.784177
0.784178
0.784167
0.784142
0.784106
0.784053
0.783986
0.783894
0.783786
0.783673
0.783557
0.783447
0.783331
0.783209
0.783164
0.783113
0.783057
0.782998
0.782935
0.782864
0.78278
0.782682
0.782569
0.782442
0.782306
0.782158
0.782013
0.781863
0.781724
0.781612
0.781498
0.78138
0.781283
0.781178
0.781067
0.780953
0.78083
0.780702
0.780565
0.78042
0.780266
0.780103
0.779934
0.77976
0.77951
0.613837
0.613437
0.613086
0.613683
0.615244
0.618269
0.6208
0.622504
0.623499
0.623942
0.624062
0.624101
0.624078
0.624082
0.624091
0.624128
0.624162
0.62419
0.624203
0.624193
0.624133
0.624044
0.623927
0.623759
0.623543
0.623269
0.622785
0.622393
0.621969
0.621518
0.621071
0.620689
0.620543
0.620521
0.620318
0.620199
0.620217
0.620284
0.620574
0.621133
0.621971
0.623131
0.6246
0.62639
0.628603
0.63119
0.634194
0.637566
0.641407
0.645554
0.650022
0.654557
0.659519
0.66459
0.670097
0.674851
0.680203
0.685843
0.69093
0.696388
0.701366
0.706633
0.711152
0.715869
0.720172
0.724686
0.728718
0.732691
0.736327
0.739701
0.742943
0.745752
0.748543
0.751006
0.753408
0.755615
0.757629
0.759528
0.761329
0.762905
0.764324
0.765664
0.766959
0.768145
0.769282
0.770337
0.77135
0.772241
0.773116
0.773941
0.774748
0.775491
0.776214
0.776898
0.777565
0.77824
0.778921
0.779506
0.780087
0.780605
0.781106
0.781608
0.782115
0.782614
0.783127
0.783616
0.784102
0.784553
0.785004
0.785405
0.78581
0.786173
0.786517
0.786846
0.787144
0.787447
0.78777
0.788055
0.78842
0.788754
0.789163
0.789322
0.789397
0.78952
0.78969
0.789807
0.789944
0.790113
0.790288
0.790482
0.790667
0.790872
0.791067
0.791267
0.791455
0.791654
0.791822
0.79199
0.792151
0.792294
0.792434
0.792562
0.792682
0.792784
0.79289
0.792973
0.793053
0.793134
0.793214
0.793294
0.793382
0.793442
0.793507
0.793565
0.793624
0.793689
0.79375
0.793841
0.793905
0.794005
0.794103
0.794202
0.794276
0.794336
0.794401
0.794435
0.794477
0.794481
0.794479
0.794467
0.794452
0.794437
0.794425
0.794421
0.794439
0.79444
0.794485
0.794493
0.794545
0.794578
0.7946
0.794605
0.794608
0.794581
0.794537
0.794482
0.794416
0.79434
0.794268
0.794197
0.794131
0.794083
0.79374
0.79373
0.793692
0.79368
0.793654
0.79362
0.793571
0.793512
0.793437
0.79335
0.793239
0.793112
0.79298
0.792844
0.792715
0.792579
0.792443
0.792367
0.792296
0.792221
0.792143
0.792061
0.791972
0.79187
0.791755
0.791625
0.791481
0.791328
0.791162
0.791001
0.790835
0.790681
0.79055
0.790423
0.790291
0.790175
0.790054
0.789927
0.789795
0.789655
0.78951
0.789358
0.789198
0.78903
0.788855
0.788674
0.788487
0.788218
0.613837
0.613721
0.613624
0.614794
0.617237
0.619891
0.621802
0.622959
0.623509
0.623651
0.62367
0.623631
0.62356
0.623504
0.623456
0.623423
0.623392
0.623358
0.623312
0.623249
0.623147
0.623019
0.62287
0.622683
0.622462
0.622038
0.621726
0.621388
0.621051
0.620815
0.620736
0.620689
0.620543
0.620521
0.620514
0.620661
0.621113
0.621827
0.622927
0.624427
0.626344
0.628749
0.6315
0.634743
0.638536
0.642877
0.647729
0.652931
0.658742
0.664892
0.671612
0.677822
0.684684
0.691543
0.699194
0.705163
0.711951
0.719479
0.725791
0.733146
0.739277
0.746158
0.751427
0.757296
0.762176
0.767463
0.771948
0.776353
0.780096
0.78358
0.786639
0.789235
0.79173
0.793664
0.795684
0.797186
0.798673
0.799789
0.800936
0.80166
0.802355
0.802735
0.803348
0.803433
0.803876
0.803834
0.80413
0.803916
0.804118
0.803938
0.804042
0.803835
0.80392
0.803716
0.803805
0.803689
0.80379
0.803766
0.803829
0.803827
0.803873
0.803915
0.803991
0.80405
0.804151
0.80425
0.804369
0.804467
0.804579
0.804649
0.804745
0.804805
0.80486
0.804914
0.804941
0.805011
0.805094
0.805136
0.80525
0.805284
0.80541
0.805395
0.805266
0.805155
0.805114
0.805056
0.805029
0.805016
0.805026
0.80504
0.805063
0.805103
0.805146
0.805191
0.805225
0.805272
0.805286
0.805314
0.805337
0.805345
0.805349
0.805341
0.805328
0.805303
0.80528
0.805247
0.80522
0.805188
0.805174
0.805145
0.805134
0.805102
0.805078
0.805047
0.805024
0.805
0.804984
0.804988
0.804952
0.804975
0.804964
0.80499
0.804987
0.804966
0.804948
0.804917
0.804886
0.804832
0.804769
0.804698
0.804625
0.804553
0.804485
0.804423
0.804388
0.80433
0.804323
0.804277
0.804272
0.804096
0.804221
0.804173
0.804128
0.804058
0.80397
0.803871
0.803764
0.803649
0.803539
0.803431
0.803326
0.803241
0.802944
0.802896
0.802824
0.802773
0.802713
0.802644
0.802563
0.802472
0.802366
0.802251
0.802114
0.801961
0.801802
0.80164
0.801485
0.801323
0.801168
0.801051
0.800955
0.800854
0.800751
0.800643
0.800529
0.800404
0.800266
0.800114
0.799948
0.799773
0.799585
0.799403
0.799217
0.799043
0.798887
0.798744
0.798595
0.798455
0.798313
0.798166
0.798013
0.797853
0.797688
0.797516
0.797338
0.797153
0.796962
0.796766
0.796563
0.796272
0.613843
0.614092
0.614441
0.616271
0.618801
0.620928
0.622319
0.623066
0.62328
0.623324
0.623287
0.623194
0.623083
0.622983
0.622892
0.622811
0.622732
0.622652
0.622564
0.622463
0.622335
0.622189
0.622031
0.62185
0.621495
0.621255
0.621013
0.620897
0.620894
0.620815
0.620736
0.620738
0.620815
0.621075
0.621644
0.622511
0.623857
0.625626
0.628017
0.630969
0.634471
0.638669
0.643128
0.648416
0.654386
0.661
0.668352
0.675669
0.683853
0.69235
0.701933
0.709826
0.718839
0.728029
0.738552
0.746201
0.754647
0.764435
0.771913
0.7808
0.787277
0.795142
0.800712
0.806825
0.811849
0.817092
0.8215
0.825545
0.828844
0.83187
0.834204
0.836471
0.838017
0.839684
0.840827
0.841713
0.842642
0.842698
0.84381
0.843311
0.843681
0.843087
0.843193
0.842396
0.842338
0.841414
0.841113
0.840107
0.839633
0.838688
0.838021
0.837095
0.836411
0.835505
0.83486
0.833987
0.833219
0.832336
0.831629
0.830855
0.830218
0.829572
0.829016
0.828429
0.827921
0.827463
0.827079
0.826702
0.826358
0.825997
0.825683
0.825356
0.825042
0.824747
0.824424
0.8242
0.823981
0.823756
0.823529
0.823226
0.823027
0.822762
0.822407
0.822019
0.821735
0.821461
0.821233
0.820999
0.820808
0.820603
0.820433
0.820271
0.82013
0.819987
0.819836
0.819695
0.819528
0.819388
0.819243
0.819089
0.818934
0.818773
0.818609
0.818437
0.818271
0.818097
0.817939
0.817777
0.817637
0.817486
0.817351
0.817201
0.817069
0.816933
0.816806
0.816677
0.816562
0.816453
0.816315
0.816226
0.816109
0.816026
0.815926
0.815811
0.8157
0.815581
0.815467
0.815335
0.815196
0.815053
0.814909
0.814764
0.814628
0.814498
0.81439
0.814265
0.814185
0.813978
0.813896
0.813804
0.813705
0.813593
0.813599
0.813474
0.813332
0.813179
0.81302
0.812856
0.812698
0.812542
0.812391
0.812117
0.81197
0.811872
0.811755
0.811656
0.811551
0.811438
0.811315
0.811184
0.81104
0.810888
0.810717
0.810531
0.810339
0.810144
0.809956
0.809763
0.80958
0.809414
0.809285
0.809152
0.809017
0.808878
0.808733
0.808579
0.808413
0.808233
0.80804
0.807838
0.807624
0.807416
0.807204
0.807006
0.806819
0.806655
0.806484
0.806316
0.80615
0.805979
0.805801
0.805616
0.805426
0.805232
0.805032
0.804826
0.804616
0.804401
0.80418
0.803862
0.613922
0.614605
0.615423
0.617622
0.619854
0.621516
0.622507
0.622905
0.623011
0.623005
0.622921
0.622791
0.622655
0.622526
0.622406
0.622293
0.622183
0.622072
0.621959
0.621839
0.621705
0.621563
0.621422
0.621128
0.620977
0.620931
0.620977
0.620897
0.620894
0.620913
0.621055
0.621389
0.622077
0.623093
0.624647
0.626683
0.629392
0.632757
0.637007
0.642028
0.647514
0.654021
0.660751
0.668585
0.677314
0.686475
0.696973
0.706427
0.71735
0.728876
0.742391
0.752136
0.763685
0.774044
0.785642
0.795939
0.804173
0.814725
0.822876
0.831821
0.83871
0.845685
0.851392
0.856823
0.861476
0.865618
0.869512
0.872358
0.875237
0.877136
0.878798
0.880614
0.880696
0.882983
0.882392
0.883569
0.88344
0.883133
0.883743
0.882575
0.88293
0.881699
0.88144
0.880088
0.879749
0.878346
0.877644
0.87622
0.875263
0.873877
0.872734
0.871322
0.870213
0.868804
0.867602
0.866194
0.864814
0.863348
0.862026
0.860655
0.85941
0.858143
0.856947
0.855717
0.854571
0.853481
0.852492
0.851516
0.850607
0.849692
0.848873
0.848056
0.847301
0.846565
0.845879
0.845286
0.84469
0.844108
0.843468
0.842792
0.842182
0.841607
0.840964
0.840269
0.83969
0.83916
0.838677
0.838183
0.837742
0.837291
0.836888
0.836488
0.836126
0.835763
0.835397
0.835033
0.834655
0.834318
0.833977
0.833634
0.833295
0.832954
0.832615
0.832271
0.83194
0.831601
0.831291
0.830975
0.830689
0.830395
0.830116
0.829828
0.82957
0.829307
0.829061
0.828812
0.828573
0.828338
0.828081
0.827862
0.827622
0.827412
0.827197
0.82697
0.826752
0.826529
0.826318
0.826095
0.825867
0.825637
0.82541
0.825181
0.824963
0.824752
0.82456
0.824356
0.824191
0.823932
0.823765
0.823593
0.823418
0.823233
0.82305
0.822947
0.82274
0.822524
0.822303
0.822079
0.821865
0.821653
0.821445
0.821148
0.820945
0.820789
0.820617
0.82046
0.820301
0.820136
0.819962
0.819782
0.819591
0.819395
0.819183
0.818956
0.818724
0.818489
0.818263
0.818031
0.817814
0.817594
0.817424
0.817252
0.817079
0.816902
0.81672
0.816531
0.81633
0.816117
0.815891
0.815657
0.815412
0.815173
0.814932
0.814704
0.814482
0.814291
0.814093
0.813893
0.8137
0.813499
0.813292
0.813079
0.81286
0.812639
0.812413
0.812183
0.811949
0.811713
0.81147
0.81112
0.614059
0.615135
0.616406
0.618603
0.620496
0.621784
0.62248
0.622693
0.622741
0.622699
0.622582
0.622432
0.622281
0.622137
0.622
0.62187
0.621744
0.62162
0.621499
0.621379
0.62126
0.621149
0.620941
0.620927
0.620977
0.620931
0.620977
0.621016
0.621217
0.621606
0.622353
0.623449
0.625132
0.627346
0.630372
0.634134
0.638738
0.644257
0.650886
0.658605
0.666229
0.675482
0.685389
0.69584
0.707801
0.719718
0.734586
0.746447
0.760663
0.77356
0.789094
0.800288
0.813648
0.824262
0.835786
0.84704
0.855923
0.864664
0.873251
0.880585
0.88743
0.892418
0.898024
0.901174
0.906293
0.907271
0.911273
0.911496
0.914609
0.914244
0.916232
0.916238
0.916108
0.917318
0.915995
0.917619
0.916091
0.916935
0.915717
0.914256
0.915017
0.913444
0.913235
0.911773
0.911494
0.909915
0.909292
0.907771
0.906885
0.905361
0.904319
0.902787
0.901633
0.900074
0.898795
0.897188
0.895594
0.893912
0.892289
0.89064
0.889058
0.887432
0.88583
0.884176
0.882572
0.881002
0.879522
0.878044
0.87663
0.875221
0.873902
0.872584
0.871346
0.87015
0.869051
0.868036
0.867029
0.86601
0.864939
0.863824
0.862784
0.861837
0.860886
0.859875
0.858962
0.858138
0.857359
0.856568
0.855844
0.855113
0.854448
0.85377
0.853162
0.852535
0.851926
0.851313
0.85069
0.850127
0.84956
0.849001
0.848452
0.847907
0.847369
0.846831
0.84631
0.84579
0.845307
0.844819
0.844368
0.843908
0.843468
0.843023
0.842622
0.842214
0.841831
0.841445
0.841067
0.84069
0.840297
0.839934
0.839554
0.839201
0.838855
0.838503
0.838163
0.837819
0.837499
0.83717
0.836844
0.836515
0.836192
0.835868
0.835557
0.835252
0.834966
0.834599
0.834339
0.834067
0.833804
0.833539
0.833278
0.833009
0.832744
0.832473
0.832189
0.83198
0.831689
0.831398
0.83112
0.830841
0.830481
0.830224
0.829958
0.829734
0.829497
0.829274
0.829053
0.828826
0.828594
0.828357
0.828111
0.827862
0.827602
0.827329
0.827051
0.82677
0.826499
0.826223
0.825961
0.825687
0.825465
0.825248
0.82503
0.824809
0.824583
0.824353
0.824113
0.823861
0.823598
0.823327
0.823047
0.82277
0.822496
0.822234
0.821972
0.821749
0.821519
0.821283
0.821057
0.820824
0.820583
0.820336
0.820085
0.819832
0.819577
0.819319
0.819059
0.818796
0.818529
0.818142
0.614196
0.615629
0.617251
0.619291
0.620878
0.621882
0.622332
0.622474
0.622486
0.622415
0.622278
0.62212
0.621965
0.621816
0.621675
0.621541
0.621414
0.621294
0.621184
0.621085
0.621006
0.620957
0.620941
0.620927
0.620989
0.621052
0.621275
0.621676
0.622437
0.623552
0.625283
0.627579
0.630719
0.634658
0.639684
0.645766
0.652819
0.660816
0.670169
0.681113
0.691149
0.703427
0.717672
0.730808
0.746874
0.761145
0.778827
0.792292
0.808974
0.821935
0.838057
0.85016
0.864151
0.87466
0.88551
0.895363
0.904636
0.909903
0.919116
0.922737
0.929501
0.931056
0.936606
0.936391
0.941014
0.939183
0.942611
0.940604
0.943269
0.94107
0.942847
0.940725
0.941956
0.939765
0.939809
0.939045
0.937113
0.938431
0.936465
0.935182
0.935844
0.933768
0.933988
0.932264
0.932255
0.930602
0.930386
0.928957
0.928568
0.92721
0.926733
0.925423
0.92488
0.923611
0.922804
0.921517
0.920375
0.919023
0.917781
0.916422
0.915156
0.913733
0.912256
0.910687
0.909111
0.907509
0.905888
0.904258
0.902626
0.900997
0.899378
0.897761
0.896185
0.894679
0.893218
0.89184
0.89047
0.889043
0.887566
0.886041
0.884567
0.883201
0.881957
0.880647
0.879397
0.878249
0.877154
0.876051
0.875019
0.873978
0.873018
0.87204
0.871152
0.870238
0.86936
0.86847
0.867579
0.866767
0.86595
0.865155
0.864374
0.863608
0.862848
0.8621
0.86137
0.860656
0.859978
0.859304
0.858662
0.858025
0.857403
0.856787
0.856226
0.855656
0.855121
0.854583
0.854053
0.853521
0.852865
0.852349
0.85182
0.851308
0.850824
0.850335
0.849956
0.84948
0.849034
0.848588
0.848153
0.847716
0.847285
0.846856
0.846441
0.846033
0.845561
0.845162
0.844797
0.844423
0.844056
0.843687
0.843329
0.842968
0.842611
0.842254
0.841887
0.841515
0.841146
0.84086
0.840429
0.840075
0.839729
0.839399
0.839063
0.838764
0.838454
0.838156
0.837863
0.837567
0.837269
0.836967
0.83666
0.836351
0.836035
0.83571
0.835381
0.835049
0.834726
0.8344
0.834085
0.833758
0.833473
0.833205
0.832936
0.832664
0.83239
0.832112
0.831828
0.831532
0.831227
0.830914
0.830594
0.830276
0.829965
0.829663
0.829357
0.829098
0.82883
0.828554
0.828291
0.82802
0.827742
0.827458
0.82717
0.826882
0.826594
0.826303
0.826013
0.825722
0.825426
0.824997
0.614524
0.616125
0.617955
0.619779
0.6211
0.621878
0.622169
0.622259
0.622247
0.622157
0.622012
0.621856
0.621705
0.621562
0.621428
0.621304
0.621191
0.621091
0.621011
0.620958
0.620927
0.620957
0.620964
0.621037
0.621253
0.621628
0.622339
0.623396
0.625072
0.627329
0.63049
0.634494
0.639586
0.645781
0.653265
0.662169
0.672242
0.682734
0.694978
0.709363
0.722852
0.73848
0.757403
0.772485
0.791646
0.807057
0.826614
0.840753
0.858936
0.871265
0.887698
0.898918
0.912317
0.921247
0.931159
0.937733
0.94617
0.947758
0.958255
0.955819
0.962528
0.96103
0.965545
0.962652
0.9662
0.96242
0.965086
0.961051
0.96263
0.958568
0.959846
0.955971
0.957012
0.953227
0.954054
0.951167
0.94942
0.94957
0.947205
0.94779
0.946019
0.943781
0.944419
0.942409
0.942419
0.940727
0.940785
0.939334
0.939234
0.937995
0.937949
0.936822
0.936804
0.935746
0.935482
0.93449
0.934039
0.933133
0.932635
0.931815
0.931275
0.930474
0.92972
0.928789
0.927909
0.926924
0.925873
0.924771
0.92362
0.92242
0.921149
0.919844
0.918505
0.917161
0.91579
0.914476
0.913066
0.911533
0.909905
0.908199
0.906451
0.904872
0.903336
0.901842
0.900355
0.898916
0.897545
0.896176
0.894871
0.893558
0.892304
0.891041
0.88987
0.888676
0.887528
0.886367
0.885206
0.884132
0.883053
0.882012
0.880984
0.879983
0.878984
0.878013
0.877058
0.876137
0.875248
0.874377
0.87353
0.872698
0.871882
0.871077
0.870345
0.869602