/*--------------------------------*- C++ -*----------------------------------*\
| =========                 |                                                 |
| \\      /  F ield         | OpenFOAM: The Open Source CFD Toolbox           |
|  \\    /   O peration     | Version:  2312                                  |
|   \\  /    A nd           | Website:  www.openfoam.com                      |
|    \\/     M anipulation  |                                                 |
\*---------------------------------------------------------------------------*/
FoamFile
{
    version     2.0;
    format      ascii;
    arch        "LSB;label=32;scalar=64";
    class       volScalarField;
    location    "0.003";
    object      nut;
}
// * * * * * * * * * * * * * * * * * * * * * * * * * * * * * * * * * * * * * //

dimensions      [0 2 -1 0 0 0 0];

internalField   nonuniform List<scalar> 
48128
(
3.36475e-06
4.35423e-06
5.8302e-06
5.91829e-06
5.46528e-06
4.75052e-06
3.9372e-06
3.16432e-06
2.43621e-06
1.68987e-06
4.00298e-06
2.51646e-05
8.26402e-05
0.000151092
0.000209394
0.000258031
0.000299314
0.000335388
0.000368104
0.000398626
0.00042781
0.000456275
0.000484354
0.000512226
0.00054014
0.000568245
0.000596745
0.000626087
0.000656241
0.00068767
0.000720032
0.000753346
0.000787842
0.000823481
0.000860065
0.00089837
0.000938526
0.000980676
0.00102254
0.00106565
0.00110855
0.00115016
0.00119152
0.00123326
0.00127399
0.00131252
0.00134762
0.00138392
0.00141583
0.00144366
0.0014637
0.00148657
0.00150443
0.00152233
0.00152989
0.00155284
0.00158219
0.00160595
0.00162745
0.00164463
0.001659
0.00166929
0.00167617
0.00168113
0.00168443
0.00168658
0.00168723
0.00168653
0.00167235
0.00157569
0.00148808
0.00140979
0.00133987
0.00127579
0.00121808
0.00116465
0.00111623
0.00107137
0.00103017
0.000991843
0.000956557
0.000924231
0.000893936
0.000866144
0.000840048
0.000816089
0.000793399
0.000772585
0.000752827
0.000734663
0.000717379
0.000701511
0.000686489
0.000672514
0.000659202
0.000646643
0.000634723
0.000623706
0.000613611
0.000604306
0.000595674
0.000587499
0.000579668
0.000572223
0.000565277
0.000558755
0.000552732
0.000547033
0.00054174
0.000536721
0.000532113
0.000527783
0.0005238
0.000520049
0.000516537
0.000513203
0.000509897
0.000506465
0.000503123
0.000499255
0.000496226
0.00049514
0.000492871
0.000490411
0.000489122
0.000487439
0.000485625
0.000483849
0.000482027
0.000480255
0.000478497
0.000476858
0.000475291
0.000473797
0.000472341
0.00047093
0.000469653
0.000468525
0.000467462
0.000466452
0.00046549
0.000464586
0.000463736
0.000462929
0.00046217
0.000461449
0.000460731
0.000460002
0.000459228
0.000458434
0.000457617
0.000456835
0.00045607
0.000455322
0.000454552
0.000453774
0.000452975
0.000452138
0.000451313
0.000450574
0.000449805
0.000449209
0.000448794
0.000448335
0.000447888
0.000447521
0.000447143
0.000446805
0.00044643
0.000446036
0.000445594
0.000445117
0.000444618
0.000444098
0.000443569
0.00044304
0.000442544
0.000442079
0.000441627
0.000441253
0.000440963
0.000440706
0.000440468
0.000440291
0.000440093
0.000439872
0.000439639
0.000439394
0.000439116
0.000438786
0.000438409
0.000438035
0.000437658
0.000437277
0.000436952
0.000436663
0.000436437
0.000436242
0.000436071
0.000435918
0.000435773
0.000435631
0.000435497
0.000435332
0.000435134
0.000434894
0.000434623
0.00043437
0.00043409
0.000433664
0.000433428
0.000433232
0.000433053
0.000432891
0.000432744
0.000432618
0.000432503
0.000432383
0.00043225
0.000432105
0.000431949
0.000431756
0.000431559
0.000431315
0.000431034
0.000430824
0.000430604
0.000430381
0.000430225
0.000430083
0.000429947
0.000429823
0.000429705
0.000429584
0.000429455
0.000429316
0.000429165
0.000429
0.000428811
0.000428502
2.52674e-05
1.98543e-05
1.3858e-05
9.29883e-06
6.90446e-06
5.65343e-06
5.80525e-06
9.90328e-06
2.0749e-05
3.89012e-05
8.35219e-05
0.000171549
0.000313754
0.000537159
0.000788579
0.00105935
0.00133663
0.00160893
0.00187639
0.00214073
0.00240726
0.002678
0.00296151
0.00325538
0.00356553
0.00389021
0.00423249
0.00459368
0.00495529
0.00535075
0.00576308
0.00617644
0.00660112
0.00703159
0.00744632
0.00785973
0.00822107
0.00859786
0.00895739
0.00931481
0.00966589
0.0099884
0.0102915
0.0105775
0.0108278
0.0110553
0.0112485
0.0114531
0.011637
0.0118028
0.0118974
0.0120116
0.0120918
0.0121763
0.0121851
0.0121773
0.0121508
0.0120856
0.0120061
0.0119085
0.0117953
0.0116625
0.0115167
0.0113633
0.0112062
0.0110488
0.0108867
0.0107218
0.0105548
0.010393
0.0102403
0.0100824
0.00992918
0.00977152
0.00961542
0.00946041
0.00930177
0.00914679
0.00898984
0.00883626
0.00867888
0.00852885
0.00837871
0.00823593
0.00809159
0.00795391
0.00781459
0.00768137
0.00754835
0.00742231
0.00729666
0.00717677
0.00705848
0.00694525
0.00683469
0.00672759
0.00662246
0.00651949
0.00641929
0.0063225
0.00622933
0.00614026
0.00605427
0.00597036
0.00588973
0.00581082
0.0057354
0.0056614
0.00559131
0.00552235
0.00545737
0.00539379
0.00533397
0.00527566
0.00522108
0.0051673
0.00511747
0.00506639
0.00501811
0.00496756
0.00492192
0.00487681
0.00483087
0.00478727
0.00474828
0.00471148
0.00467663
0.00464465
0.00461291
0.00458218
0.00455137
0.0045216
0.00449209
0.00446349
0.0044348
0.00440711
0.00437945
0.0043532
0.00432731
0.00430277
0.00427899
0.00425593
0.00423421
0.00421278
0.0041919
0.00416372
0.00413498
0.00410635
0.00407821
0.00405099
0.00402422
0.00399819
0.00397234
0.00394767
0.00392388
0.00390097
0.00387877
0.00385703
0.00383633
0.00381567
0.00379588
0.00377531
0.00375525
0.00373576
0.0037161
0.00369768
0.00367888
0.0036618
0.00364469
0.00362872
0.00361377
0.00359917
0.00358636
0.00357297
0.00356196
0.00355028
0.00353988
0.00352906
0.00351856
0.00350783
0.00349642
0.0034856
0.00347401
0.00346405
0.00345377
0.00344393
0.00343444
0.0034254
0.00341678
0.00340939
0.00340217
0.00339608
0.00338872
0.00338395
0.00337789
0.0033723
0.00336602
0.00335959
0.00335325
0.00334672
0.00334039
0.00333398
0.00332792
0.00332219
0.00331686
0.00331225
0.00330804
0.00330428
0.00330016
0.0032981
0.0032946
0.00329115
0.00328756
0.00328368
0.00327969
0.00327544
0.00327144
0.00326725
0.00326335
0.00325951
0.00325596
0.00325317
0.00325028
0.00324813
0.00324641
0.00324428
0.00324197
0.00324017
0.00323793
0.00323544
0.00323271
0.00322984
0.00322694
0.00322418
0.00322143
0.00321904
0.00321671
0.00321472
0.003213
0.00321097
3.36995e-05
3.771e-05
4.01252e-05
2.83464e-05
1.91061e-05
2.06469e-05
3.82506e-05
7.63639e-05
0.000140756
0.000251367
0.000451017
0.000819705
0.00140406
0.00224289
0.00316989
0.00409967
0.00496416
0.00576015
0.00649748
0.00719525
0.00787429
0.00852328
0.00919024
0.00985387
0.0105334
0.0112209
0.0119214
0.0126367
0.0133486
0.0140757
0.0147974
0.0155052
0.0162079
0.0168844
0.0175079
0.0181153
0.0186783
0.0192439
0.0197603
0.0202509
0.0207194
0.021131
0.0214933
0.0218171
0.0220725
0.0222819
0.02242
0.0225638
0.0226697
0.0227463
0.0227113
0.0226926
0.022629
0.0225597
0.0223971
0.022233
0.0220413
0.0218088
0.021558
0.0212913
0.021003
0.0206942
0.0203741
0.0200493
0.0197251
0.0194056
0.0190859
0.0187689
0.0184526
0.018134
0.0178255
0.017512
0.017213
0.0169114
0.0166209
0.0163332
0.0160505
0.0157729
0.0154986
0.0152315
0.0149629
0.0147058
0.0144508
0.0142074
0.0139636
0.0137312
0.0134976
0.0132748
0.0130523
0.0128415
0.0126319
0.0124318
0.0122343
0.0120446
0.0118586
0.0116777
0.0115003
0.0113266
0.0111573
0.0109932
0.0108343
0.0106809
0.0105318
0.0103855
0.0102443
0.0101054
0.00997205
0.00984034
0.00971488
0.00959048
0.00947253
0.00935607
0.00924581
0.00913716
0.00903488
0.00893242
0.0088378
0.00873878
0.00864614
0.00854973
0.00845938
0.00837307
0.00828463
0.00819771
0.00812009
0.0080453
0.00797311
0.00790495
0.00783721
0.00777126
0.00770561
0.00764175
0.00757864
0.00751731
0.0074561
0.00739664
0.00733761
0.00728092
0.00722524
0.00717161
0.00711919
0.00706849
0.00701917
0.00697172
0.00692538
0.00688142
0.00683837
0.00679754
0.00675722
0.00671865
0.00668056
0.00664363
0.00660769
0.00657287
0.00653895
0.00650561
0.00647269
0.0064395
0.00640639
0.00637329
0.00634073
0.00630858
0.00627803
0.00624783
0.006219
0.0061913
0.00616519
0.00614009
0.00611635
0.00609357
0.00607165
0.00605038
0.00602962
0.00600928
0.005989
0.00596845
0.0059479
0.00592732
0.00590664
0.00588603
0.00586579
0.00584612
0.00582751
0.00580999
0.00579351
0.00577783
0.00576297
0.0057492
0.00573611
0.00572358
0.00571089
0.00569851
0.00568546
0.00567297
0.00566001
0.00564709
0.00563392
0.00562113
0.00560851
0.00559633
0.00558514
0.00557443
0.00556502
0.00555618
0.00554796
0.00554026
0.00553248
0.00552547
0.0055174
0.00550982
0.00550207
0.00549395
0.0054857
0.00547735
0.00546929
0.00546122
0.00545409
0.00544714
0.00544103
0.00543515
0.00543019
0.0054253
0.00542109
0.00541638
0.00541181
0.00540724
0.00540219
0.00539704
0.00539186
0.0053866
0.00538133
0.00537605
0.00537101
0.00536664
0.00536245
0.00535906
0.00535578
0.00535318
0.00535059
0.00534661
3.99718e-05
6.26564e-05
8.41356e-05
6.14696e-05
5.60624e-05
8.7976e-05
0.00015588
0.000276703
0.000477276
0.000833486
0.00148184
0.00250713
0.00390718
0.00556463
0.00715736
0.00860125
0.00987409
0.0110266
0.0120817
0.0130604
0.0140058
0.0149163
0.0158344
0.0167415
0.0176566
0.018572
0.0194881
0.0204026
0.0213022
0.0221939
0.0230564
0.0238888
0.0246769
0.025425
0.0261076
0.0267502
0.0273408
0.027907
0.028398
0.0288304
0.0292192
0.0295376
0.0297872
0.0299856
0.0301022
0.0301551
0.0301187
0.0300697
0.0299777
0.0298443
0.0296076
0.0293698
0.0290952
0.0288028
0.0284412
0.028087
0.0277005
0.0272924
0.0268746
0.0264464
0.026004
0.0255557
0.0251081
0.0246646
0.0242291
0.0238053
0.0233892
0.0229855
0.0225897
0.0221947
0.0218184
0.0214424
0.0210869
0.0207318
0.0203942
0.0200594
0.0197392
0.0194234
0.0191167
0.0188184
0.0185243
0.0182415
0.0179638
0.0176968
0.0174328
0.0171794
0.0169284
0.0166872
0.0164486
0.0162204
0.0159956
0.0157801
0.0155684
0.0153643
0.0151637
0.0149676
0.0147756
0.0145872
0.0144041
0.014226
0.0140535
0.0138855
0.0137214
0.0135595
0.0134027
0.0132479
0.013099
0.0129515
0.0128104
0.0126699
0.0125364
0.0124037
0.0122779
0.0121532
0.0120354
0.0119169
0.0118072
0.0116908
0.0115816
0.0114682
0.0113576
0.0112577
0.0111545
0.0110503
0.0109576
0.0108683
0.0107803
0.010696
0.0106118
0.0105296
0.0104474
0.010367
0.0102873
0.0102096
0.0101318
0.0100558
0.00998017
0.00990724
0.00983541
0.00976595
0.00969758
0.0096314
0.00956636
0.00950374
0.00944205
0.009383
0.00932469
0.00926908
0.00921371
0.00916057
0.00910777
0.00905658
0.0090063
0.00895763
0.00890969
0.00886281
0.0088161
0.00876936
0.0087224
0.00867577
0.0086296
0.00858405
0.00854035
0.00849763
0.00845609
0.0084164
0.00837852
0.00834212
0.00830729
0.00827367
0.00824117
0.00820929
0.00817808
0.00814726
0.00811651
0.00808559
0.00805462
0.00802387
0.00799271
0.0079624
0.00793231
0.00790358
0.00787548
0.0078494
0.00782406
0.00780026
0.00777716
0.00775584
0.00773493
0.00771511
0.00769489
0.00767532
0.00765506
0.00763483
0.00761448
0.00759406
0.00757388
0.00755411
0.00753466
0.00751612
0.00749871
0.00748225
0.00746717
0.00745297
0.00743954
0.00742695
0.00741436
0.00740286
0.00738987
0.00737694
0.00736416
0.00735138
0.00733862
0.00732577
0.00731344
0.00730123
0.0072903
0.00727968
0.00727012
0.00726101
0.00725296
0.00724496
0.00723817
0.00723034
0.00722271
0.00721532
0.0072074
0.00719946
0.00719157
0.00718373
0.00717589
0.00716834
0.00716104
0.00715459
0.00714839
0.00714313
0.00713811
0.00713395
0.00712984
0.00712379
4.49591e-05
0.000119468
0.000169272
0.00012146
0.000157501
0.000242409
0.000398717
0.000671709
0.00116265
0.00203861
0.00338689
0.00523826
0.00731125
0.00938815
0.0112931
0.0130027
0.014542
0.0159011
0.0171543
0.0183247
0.0194482
0.0205324
0.0216077
0.0226645
0.0237153
0.0247529
0.0257733
0.0267731
0.027739
0.0286727
0.0295518
0.0303705
0.0311254
0.0318245
0.0324447
0.0330065
0.0335044
0.0339519
0.0343104
0.0345779
0.0347867
0.0349181
0.0349751
0.0349674
0.0348616
0.034672
0.0343909
0.0340798
0.0337306
0.0333288
0.0328526
0.0323678
0.0318636
0.0313032
0.0306018
0.0300413
0.0292354
0.0286353
0.0280132
0.0274155
0.0268752
0.0263542
0.0259541
0.0255359
0.0251714
0.0247439
0.0244081
0.0240802
0.023718
0.0233162
0.0229306
0.022551
0.0221923
0.0218369
0.0215044
0.0211743
0.0208662
0.0205613
0.0202733
0.0199935
0.0197257
0.0194668
0.0192175
0.018975
0.0187391
0.0185101
0.0182874
0.0180712
0.0178602
0.0176564
0.0174586
0.0172679
0.0170823
0.0169025
0.0167261
0.0165527
0.0163834
0.0162168
0.0160552
0.0158973
0.0157444
0.0155945
0.0154477
0.0153021
0.0151607
0.0150205
0.0148854
0.0147512
0.0146226
0.0144941
0.0143715
0.0142494
0.0141333
0.0140178
0.0139087
0.0137987
0.0136965
0.0135881
0.0134849
0.0133788
0.0132706
0.0131782
0.013083
0.0129844
0.0128957
0.0128104
0.0127259
0.0126437
0.0125617
0.0124814
0.0124006
0.0123215
0.0122428
0.0121657
0.0120883
0.0120125
0.0119367
0.0118634
0.0117909
0.0117207
0.0116512
0.0115839
0.0115174
0.0114531
0.0113896
0.0113285
0.0112679
0.0112099
0.0111518
0.0110958
0.0110398
0.0109855
0.0109316
0.0108797
0.0108279
0.0107775
0.0107267
0.0106762
0.0106249
0.0105742
0.0105235
0.0104734
0.0104251
0.0103781
0.0103319
0.0102878
0.0102453
0.0102047
0.0101656
0.0101278
0.0100912
0.0100552
0.0100197
0.00998445
0.00994908
0.00991353
0.00987775
0.00984227
0.00980594
0.00977079
0.00973576
0.00970268
0.0096697
0.00963932
0.00960954
0.00958177
0.00955455
0.00952939
0.0095045
0.00948085
0.0094566
0.00943303
0.00940863
0.00938447
0.00935973
0.00933506
0.0093107
0.00928673
0.0092631
0.00924081
0.00921951
0.00919959
0.00918101
0.00916372
0.00914711
0.00913164
0.00911611
0.00910182
0.00908601
0.00906992
0.0090539
0.00903796
0.00902225
0.00900637
0.00899126
0.00897634
0.00896303
0.0089501
0.00893847
0.00892735
0.00891754
0.00890766
0.00889923
0.00888959
0.00888008
0.00887085
0.00886114
0.00885142
0.00884172
0.00883233
0.00882289
0.00881396
0.00880535
0.00879772
0.00879035
0.00878406
0.00877811
0.00877309
0.00876825
0.00876121
4.93681e-05
0.000223924
0.00029255
0.000231853
0.000317882
0.000487854
0.000797442
0.0013548
0.00236002
0.00390002
0.0059803
0.00832001
0.010711
0.0129864
0.0150579
0.0169514
0.0186025
0.020099
0.0214806
0.0227708
0.0240018
0.0251851
0.0263418
0.027469
0.028572
0.0296454
0.0306822
0.0316773
0.0326164
0.0334962
0.0342961
0.0350232
0.0356688
0.036241
0.0367201
0.0371096
0.0374212
0.0376582
0.0377966
0.0378109
0.0377553
0.0376121
0.0374052
0.0371297
0.0364168
0.0353371
0.0343622
0.0333299
0.0322504
0.0311116
0.0302593
0.0294307
0.0284949
0.0276439
0.0267954
0.026393
0.0256172
0.0249012
0.0244137
0.0237572
0.0233101
0.0227425
0.02242
0.0219989
0.021676
0.0212596
0.0209542
0.0206546
0.0203824
0.020179
0.0199443
0.0198038
0.0196339
0.0195041
0.0193856
0.0192672
0.0192038
0.0191128
0.0190582
0.0190078
0.0190025
0.01896
0.0188303
0.018641
0.0184608
0.0182828
0.0181142
0.0179485
0.0177902
0.0176363
0.0174885
0.0173454
0.0172082
0.0170743
0.0169429
0.0168131
0.0166866
0.0165611
0.01644
0.0163209
0.0162059
0.0160924
0.015981
0.0158695
0.0157607
0.015652
0.015547
0.0154422
0.0153416
0.0152406
0.015144
0.0150474
0.0149551
0.0148631
0.0147763
0.0146883
0.0146067
0.0145196
0.0144364
0.0143511
0.014261
0.0141873
0.0141121
0.0140334
0.0139599
0.0138903
0.0138211
0.0137529
0.0136848
0.0136178
0.0135502
0.0134838
0.0134173
0.0133523
0.0132868
0.0132225
0.0131578
0.0130953
0.0130332
0.0129731
0.0129133
0.0128554
0.0127979
0.0127422
0.0126869
0.0126335
0.0125806
0.0125295
0.0124783
0.0124287
0.0123789
0.0123305
0.0122823
0.0122359
0.0121892
0.0121441
0.012098
0.0120525
0.0120058
0.0119597
0.0119133
0.0118668
0.0118222
0.0117789
0.0117358
0.0116948
0.011655
0.0116171
0.0115805
0.0115452
0.0115109
0.0114771
0.0114436
0.0114103
0.0113767
0.0113427
0.0113085
0.0112743
0.0112391
0.011205
0.0111708
0.0111387
0.0111065
0.011077
0.011048
0.0110211
0.0109946
0.0109701
0.0109459
0.0109228
0.0108991
0.0108757
0.0108517
0.0108277
0.010803
0.0107784
0.0107538
0.0107299
0.0107059
0.0106836
0.0106619
0.0106419
0.0106231
0.0106059
0.0105892
0.0105739
0.0105583
0.0105441
0.0105285
0.0105122
0.010496
0.0104796
0.0104638
0.0104474
0.0104321
0.0104169
0.0104036
0.0103906
0.0103792
0.0103681
0.0103587
0.010349
0.0103408
0.0103314
0.0103219
0.0103127
0.0103031
0.0102935
0.0102838
0.0102747
0.0102654
0.0102568
0.0102485
0.0102413
0.0102343
0.0102284
0.0102229
0.0102184
0.0102141
0.010208
5.38744e-05
0.000345856
0.000419239
0.000379537
0.000550961
0.000863343
0.00141407
0.00243789
0.00403746
0.00620816
0.00867659
0.0112787
0.0138148
0.0161828
0.0183701
0.0203095
0.0220325
0.0236096
0.0250622
0.0264148
0.0276948
0.0289155
0.0300914
0.0312233
0.0323121
0.0333537
0.0343385
0.0352601
0.0361025
0.036862
0.0375246
0.0380934
0.0385608
0.0389289
0.0391933
0.0393495
0.0394162
0.0393909
0.0392685
0.0382944
0.0371964
0.0358126
0.034659
0.0335341
0.0324491
0.0312407
0.0302086
0.0291672
0.0280992
0.0270329
0.026113
0.0254345
0.0245284
0.0237274
0.022778
0.0224775
0.0217618
0.0209046
0.020456
0.0197821
0.0193367
0.0187586
0.0184366
0.0180031
0.0176953
0.0173041
0.0170104
0.0167282
0.0164929
0.0163103
0.0161218
0.0160197
0.0158947
0.01582
0.0157491
0.0156966
0.0156806
0.015651
0.0156577
0.0156778
0.0157177
0.0157487
0.0158015
0.0158485
0.015907
0.0159537
0.0160241
0.0160909
0.016156
0.0162231
0.0163003
0.016321
0.0162515
0.0161798
0.0161094
0.016038
0.0159687
0.0158979
0.0158309
0.0157646
0.0157008
0.0156369
0.0155737
0.0155088
0.0154443
0.0153782
0.0153138
0.0152483
0.0151853
0.015121
0.0150592
0.0149968
0.0149368
0.0148768
0.01482
0.0147617
0.0147085
0.0146509
0.0145969
0.0145403
0.0144784
0.0144289
0.0143809
0.0143297
0.0142787
0.0142311
0.0141842
0.0141369
0.0140896
0.0140426
0.013995
0.013948
0.0139006
0.0138545
0.0138077
0.013762
0.0137155
0.0136706
0.0136258
0.0135824
0.0135391
0.0134973
0.0134555
0.0134149
0.0133745
0.0133352
0.0132962
0.0132583
0.0132203
0.0131833
0.013146
0.0131096
0.0130732
0.0130382
0.013003
0.0129689
0.0129341
0.0128998
0.0128641
0.0128291
0.0127933
0.0127569
0.0127222
0.0126887
0.0126548
0.0126226
0.012591
0.0125613
0.0125325
0.0125049
0.0124781
0.0124517
0.0124253
0.0123991
0.0123725
0.0123453
0.0123178
0.0122901
0.0122615
0.0122336
0.0122054
0.0121791
0.0121526
0.0121287
0.0121051
0.0120834
0.012062
0.0120424
0.0120229
0.0120045
0.0119854
0.0119666
0.011947
0.0119273
0.0119068
0.0118865
0.0118657
0.0118458
0.0118255
0.0118069
0.0117885
0.011772
0.0117564
0.0117426
0.0117291
0.0117171
0.0117047
0.0116937
0.0116814
0.0116682
0.0116549
0.0116413
0.0116283
0.0116146
0.0116021
0.0115894
0.0115788
0.0115683
0.0115597
0.0115512
0.0115445
0.0115374
0.0115317
0.0115248
0.0115177
0.0115109
0.0115037
0.0114963
0.011489
0.0114821
0.0114752
0.011469
0.0114631
0.0114582
0.0114535
0.0114499
0.0114465
0.0114443
0.0114421
0.0114395
6.04726e-05
0.000461
0.000573052
0.000581507
0.000895237
0.0014012
0.00232419
0.00387877
0.00601782
0.00852432
0.0112288
0.0139483
0.0165391
0.0189652
0.0211667
0.0231155
0.0248748
0.0264841
0.0279612
0.0293296
0.0306098
0.0318168
0.0329602
0.0340432
0.0350641
0.0360193
0.0368982
0.0376925
0.0383853
0.0389738
0.0394455
0.0398039
0.0400483
0.0401661
0.0401749
0.0393554
0.0381892
0.0369916
0.035356
0.0340863
0.0328441
0.031425
0.0304048
0.0293511
0.0283672
0.0272228
0.026249
0.0253922
0.0243636
0.0233599
0.0222939
0.0217491
0.020852
0.0200569
0.0191144
0.0186713
0.0180042
0.0171041
0.0165956
0.0159364
0.0154968
0.0149501
0.0146106
0.0141903
0.0138957
0.0135607
0.0132866
0.013042
0.0128462
0.0126844
0.0125423
0.0124485
0.0123586
0.0122967
0.0122548
0.0122307
0.0122247
0.0122308
0.0122384
0.0123067
0.0123244
0.0124145
0.012457
0.0125882
0.0126392
0.0127851
0.0128647
0.0130289
0.0131148
0.0132829
0.0133965
0.0135645
0.0136596
0.0138186
0.0139116
0.0140692
0.0142106
0.0143675
0.0144489
0.0144469
0.0144441
0.0144381
0.0144307
0.0144192
0.0144055
0.0143889
0.0143725
0.0143536
0.0143354
0.0143146
0.0142943
0.0142728
0.0142514
0.0142296
0.0142083
0.0141855
0.0141661
0.0141441
0.014125
0.0141018
0.014075
0.0140531
0.0140359
0.014016
0.0139928
0.0139709
0.0139502
0.0139278
0.0139056
0.0138822
0.0138586
0.0138346
0.0138103
0.013787
0.0137629
0.0137398
0.0137154
0.013692
0.0136683
0.0136456
0.0136227
0.0136007
0.0135783
0.0135568
0.0135349
0.0135136
0.0134923
0.0134712
0.0134502
0.0134292
0.0134082
0.0133873
0.0133665
0.0133465
0.0133264
0.0133071
0.0132875
0.0132682
0.0132477
0.0132278
0.0132068
0.0131849
0.013164
0.0131442
0.0131237
0.0131041
0.0130847
0.0130668
0.0130495
0.0130331
0.0130172
0.0130018
0.0129862
0.0129707
0.0129547
0.0129382
0.012921
0.012904
0.0128858
0.012868
0.0128497
0.012833
0.0128159
0.012801
0.0127863
0.0127732
0.0127602
0.0127488
0.0127374
0.0127269
0.0127158
0.0127049
0.0126932
0.0126811
0.0126684
0.0126556
0.0126421
0.0126294
0.0126161
0.0126045
0.0125927
0.0125826
0.0125732
0.0125658
0.0125583
0.0125525
0.0125461
0.0125411
0.012535
0.0125278
0.0125205
0.0125125
0.0125052
0.012497
0.0124899
0.0124824
0.0124772
0.0124717
0.0124685
0.0124649
0.0124633
0.0124612
0.0124602
0.0124582
0.0124558
0.0124534
0.0124509
0.0124482
0.0124453
0.012443
0.0124407
0.0124389
0.0124376
0.012437
0.0124366
0.0124372
0.0124379
0.0124396
0.0124414
0.0124449
6.84787e-05
0.000604516
0.000775337
0.000882321
0.00135666
0.00214127
0.00352215
0.00555144
0.00799391
0.0107073
0.0135254
0.0162796
0.0188796
0.0213225
0.0234822
0.0254231
0.0271832
0.0287874
0.0302511
0.0315945
0.0328329
0.0339814
0.0350477
0.0360354
0.0369424
0.0377648
0.0384922
0.0391141
0.0396169
0.0399957
0.0402373
0.0403469
0.0397647
0.0384155
0.0367634
0.0351118
0.0338178
0.0325332
0.0309383
0.0298327
0.028798
0.0275816
0.0269011
0.025857
0.0248535
0.0237645
0.0226415
0.0219393
0.0208755
0.0198525
0.0186463
0.0180468
0.0171535
0.0163736
0.0154997
0.0148119
0.0143215
0.0135929
0.0130664
0.0124972
0.0121284
0.0116974
0.0113784
0.0110553
0.0107931
0.0105635
0.0103371
0.0101709
0.0100224
0.00991501
0.00981856
0.00974002
0.00970125
0.00962507
0.00963483
0.00960642
0.00961943
0.00964018
0.00963521
0.00973382
0.00971979
0.00982198
0.00985802
0.00998295
0.0100155
0.0101458
0.010211
0.0103478
0.010425
0.0105634
0.0106696
0.0108099
0.0109185
0.0110692
0.0111856
0.0113604
0.0115426
0.0117276
0.0118799
0.01204
0.0121684
0.0123081
0.0124435
0.0125892
0.0127268
0.0128113
0.0128514
0.0128862
0.0129185
0.0129466
0.0129736
0.0129984
0.0130214
0.0130425
0.013062
0.013079
0.0130977
0.0131157
0.0131348
0.0131495
0.0131618
0.0131728
0.0131883
0.0132015
0.0132104
0.0132183
0.0132266
0.0132326
0.0132383
0.0132418
0.013245
0.013247
0.0132485
0.0132506
0.013252
0.013254
0.0132543
0.013255
0.0132549
0.0132553
0.013255
0.0132552
0.0132546
0.0132544
0.0132533
0.0132521
0.0132507
0.0132488
0.0132468
0.0132442
0.0132415
0.0132384
0.0132351
0.0132323
0.0132295
0.0132271
0.0132249
0.0132226
0.01322
0.0132173
0.0132138
0.013209
0.0132044
0.0132005
0.0131958
0.0131912
0.0131864
0.0131824
0.0131789
0.0131759
0.0131733
0.013171
0.0131686
0.0131662
0.0131632
0.0131599
0.0131554
0.0131516
0.0131464
0.0131414
0.0131355
0.0131309
0.0131258
0.0131222
0.0131188
0.0131167
0.0131145
0.0131135
0.0131125
0.0131122
0.0131115
0.0131108
0.0131094
0.0131075
0.013105
0.0131023
0.0130987
0.0130957
0.013092
0.0130897
0.013087
0.0130856
0.0130848
0.0130858
0.0130867
0.0130893
0.013091
0.0130944
0.0130967
0.013098
0.013099
0.013099
0.0130997
0.0130993
0.0131
0.0131
0.0131022
0.013104
0.0131081
0.0131116
0.0131171
0.013122
0.0131279
0.0131328
0.0131371
0.0131413
0.0131455
0.0131493
0.013153
0.0131572
0.0131614
0.0131661
0.0131712
0.0131768
0.0131825
0.0131891
0.0131955
0.0132031
0.0132105
0.0132224
7.72436e-05
0.000771598
0.0009532
0.00127529
0.00196032
0.00308938
0.00490895
0.00721782
0.00985506
0.0126752
0.0155256
0.018269
0.0208652
0.0232544
0.0253689
0.0272813
0.0290133
0.0305805
0.0319961
0.0332764
0.0344338
0.0354822
0.0364287
0.0372777
0.0380285
0.038675
0.0392096
0.0396239
0.0399043
0.0400452
0.0387189
0.0370374
0.0354516
0.0338922
0.0322639
0.0307521
0.0297394
0.0286489
0.0272982
0.0263108
0.0255824
0.0244288
0.0236934
0.0226292
0.0214734
0.0204878
0.0191653
0.01846
0.0173221
0.0163376
0.0151945
0.0145012
0.0137248
0.0130952
0.0124837
0.0116134
0.0113043
0.0108172
0.0102904
0.00987445
0.00950769
0.0092574
0.00893892
0.00872317
0.00848532
0.00837553
0.00818769
0.00811524
0.00797868
0.00795275
0.00786002
0.00782132
0.00782622
0.00773618
0.00780787
0.00774748
0.00781455
0.00779235
0.00786128
0.00786648
0.00790087
0.00793674
0.00799535
0.00806206
0.00813818
0.00822246
0.00828855
0.00835739
0.00843426
0.00850872
0.0085897
0.00866596
0.00875048
0.00883385
0.00894503
0.00906473
0.00921795
0.00935081
0.0094918
0.00962249
0.00975088
0.00988395
0.0100311
0.0101858
0.0103412
0.0104919
0.0106365
0.0107795
0.0109197
0.0110548
0.0111602
0.0112389
0.0113139
0.0113832
0.0114497
0.0115117
0.0115736
0.011635
0.0116969
0.0117543
0.0118087
0.0118597
0.0119112
0.0119592
0.0120037
0.0120461
0.0120858
0.012124
0.0121596
0.0121936
0.0122259
0.0122569
0.0122871
0.012317
0.0123466
0.0123763
0.0124039
0.0124312
0.0124572
0.012483
0.0125075
0.0125321
0.0125551
0.012578
0.0125995
0.0126203
0.0126403
0.0126594
0.0126779
0.0126955
0.0127126
0.0127288
0.0127446
0.0127603
0.0127761
0.0127922
0.0128087
0.012825
0.0128415
0.0128577
0.0128729
0.012887
0.0129002
0.0129137
0.0129262
0.0129381
0.0129495
0.0129608
0.0129724
0.012984
0.012996
0.0130083
0.0130203
0.0130324
0.0130439
0.0130551
0.0130653
0.0130761
0.0130854
0.0130947
0.0131029
0.013112
0.0131205
0.0131298
0.0131392
0.0131494
0.0131596
0.0131705
0.0131813
0.0131927
0.0132039
0.0132149
0.0132254
0.0132353
0.0132447
0.0132538
0.0132619
0.0132702
0.0132779
0.0132865
0.0132946
0.0133036
0.0133129
0.0133239
0.0133348
0.0133472
0.0133589
0.013372
0.0133845
0.013396
0.0134071
0.0134169
0.0134274
0.0134365
0.0134467
0.0134559
0.0134672
0.013478
0.0134909
0.0135032
0.0135174
0.0135309
0.0135452
0.0135585
0.0135714
0.0135837
0.0135961
0.0136081
0.01362
0.0136324
0.0136448
0.0136576
0.0136706
0.0136841
0.0136975
0.0137116
0.0137252
0.0137401
0.0137545
0.0137771
8.53812e-05
0.000960016
0.00119255
0.00176
0.00269916
0.00419239
0.00631067
0.00879726
0.0115345
0.0143916
0.0172253
0.0199298
0.0224955
0.0248065
0.0268692
0.0287332
0.0304107
0.0319108
0.0332434
0.0344216
0.0354569
0.0363626
0.0371458
0.0378129
0.0383649
0.038795
0.0391037
0.0392562
0.0377785
0.0360485
0.0341843
0.0323963
0.031003
0.0297115
0.0284462
0.0272124
0.0264217
0.0254581
0.0242289
0.0232124
0.0228815
0.0216434
0.0203675
0.0195126
0.0181572
0.0172472
0.0159013
0.0151569
0.0140971
0.0134184
0.0125057
0.0117159
0.0110116
0.0104713
0.0100441
0.00922879
0.00882481
0.00855921
0.00805786
0.00781733
0.00743473
0.00732547
0.00698443
0.00687771
0.00661401
0.00664031
0.00644932
0.00624786
0.00610247
0.00594977
0.00584283
0.00573356
0.00565961
0.0055904
0.00553475
0.00550096
0.00546382
0.00545748
0.00544824
0.00545638
0.00547089
0.00549405
0.00552488
0.00556504
0.00561535
0.00567429
0.00574159
0.00581735
0.00590232
0.00599302
0.00609242
0.00619817
0.00631342
0.00643554
0.00656661
0.00670441
0.00685242
0.00699951
0.00715458
0.00730596
0.00746169
0.00761385
0.0077718
0.00792773
0.00808459
0.00823719
0.00838787
0.00853379
0.00867703
0.00881485
0.00894943
0.00907735
0.00919972
0.0093159
0.00942821
0.00953631
0.00964466
0.00975175
0.00985868
0.0099623
0.0100615
0.0101567
0.0102475
0.0103341
0.0104166
0.0104964
0.0105709
0.0106439
0.0107125
0.01078
0.0108442
0.0109076
0.0109694
0.0110306
0.0110914
0.0111512
0.0112093
0.0112663
0.0113211
0.011375
0.0114267
0.0114778
0.0115265
0.0115749
0.0116206
0.0116659
0.0117089
0.0117514
0.0117918
0.0118319
0.01187
0.0119075
0.0119439
0.0119797
0.0120155
0.0120516
0.012088
0.0121244
0.012161
0.0121975
0.0122324
0.0122666
0.0122992
0.0123314
0.0123622
0.0123918
0.0124204
0.0124481
0.0124757
0.0125029
0.0125305
0.0125581
0.0125855
0.012613
0.01264
0.0126669
0.0126927
0.012719
0.0127439
0.0127686
0.0127919
0.0128158
0.0128387
0.012862
0.0128851
0.0129086
0.0129321
0.0129556
0.0129793
0.0130033
0.0130272
0.0130508
0.0130743
0.0130971
0.0131194
0.0131413
0.0131622
0.013183
0.0132032
0.0132236
0.0132437
0.0132641
0.0132845
0.0133063
0.0133282
0.0133514
0.0133743
0.013398
0.0134219
0.0134446
0.013467
0.013488
0.0135094
0.0135293
0.0135501
0.0135698
0.0135913
0.0136121
0.013635
0.0136572
0.0136811
0.0137043
0.0137283
0.0137513
0.0137738
0.0137955
0.0138175
0.0138389
0.0138602
0.013882
0.0139037
0.0139259
0.0139482
0.0139707
0.013993
0.0140157
0.0140378
0.0140611
0.0140837
0.0141187
9.22182e-05
0.00115413
0.00152686
0.00232048
0.00353425
0.00532735
0.00762866
0.0102267
0.0130001
0.0158448
0.0186311
0.0212848
0.0237823
0.0260151
0.0280219
0.0298247
0.0314229
0.0328216
0.0340288
0.0350572
0.03592
0.0366332
0.0372074
0.0376461
0.0379612
0.0381452
0.0368251
0.0349804
0.0331011
0.0313205
0.0297682
0.0283601
0.0274241
0.026416
0.0253572
0.0241947
0.0234665
0.0228621
0.02178
0.0206109
0.0201752
0.0188818
0.01718
0.0165407
0.0152148
0.0144792
0.0133702
0.0126065
0.0116117
0.0110757
0.0103672
0.00950253
0.00882601
0.00825795
0.00789164
0.00740719
0.00681851
0.00672502
0.00627809
0.00605962
0.00573861
0.00541563
0.00517324
0.00493194
0.00475675
0.00458311
0.0044619
0.00433299
0.00424374
0.00414871
0.00408352
0.00401253
0.00396996
0.00392169
0.00389034
0.00386243
0.00383304
0.00382068
0.00380578
0.00380124
0.00380252
0.00380616
0.00381541
0.00382968
0.00385005
0.00387511
0.00390647
0.00394323
0.00398687
0.00403612
0.00409256
0.00415539
0.00422496
0.0043027
0.00438685
0.0044813
0.00458146
0.00469191
0.00480711
0.00493036
0.00506002
0.00519452
0.00533811
0.00548436
0.00563647
0.0057885
0.00594425
0.00609841
0.00625472
0.00640764
0.00656175
0.00671024
0.00685772
0.00700355
0.00714716
0.00729087
0.00743514
0.00758173
0.00772705
0.00787197
0.00801213
0.00814209
0.00826937
0.00839104
0.00851072
0.00862295
0.00873365
0.00883884
0.00894308
0.00904281
0.00914229
0.00923807
0.00933422
0.00942832
0.0095229
0.00961492
0.00970524
0.0097938
0.00987952
0.00996326
0.0100443
0.0101237
0.0102003
0.0102757
0.0103481
0.0104195
0.0104877
0.0105555
0.01062
0.0106843
0.0107454
0.010806
0.0108643
0.0109222
0.0109797
0.0110374
0.0110953
0.0111536
0.0112115
0.0112697
0.011326
0.0113815
0.0114353