/*--------------------------------*- C++ -*----------------------------------*\
| =========                 |                                                 |
| \\      /  F ield         | OpenFOAM: The Open Source CFD Toolbox           |
|  \\    /   O peration     | Version:  2312                                  |
|   \\  /    A nd           | Website:  www.openfoam.com                      |
|    \\/     M anipulation  |                                                 |
\*---------------------------------------------------------------------------*/
FoamFile
{
    version     2.0;
    format      ascii;
    arch        "LSB;label=32;scalar=64";
    class       volScalarField;
    location    "0.003";
    object      omega;
}
// * * * * * * * * * * * * * * * * * * * * * * * * * * * * * * * * * * * * * //

dimensions      [0 0 -1 0 0 0 0];

internalField   nonuniform List<scalar> 
48128
(
2.17061e+06
2.17171e+06
2.17771e+06
2.18499e+06
2.18594e+06
2.18833e+06
2.19036e+06
2.19368e+06
2.19694e+06
2.19913e+06
2.18758e+06
2.19512e+06
2.22003e+06
2.26064e+06
2.3039e+06
2.34182e+06
2.37224e+06
2.39695e+06
2.41655e+06
2.43163e+06
2.44272e+06
2.45051e+06
2.45522e+06
2.45691e+06
2.45565e+06
2.4516e+06
2.44482e+06
2.43455e+06
2.42218e+06
2.40767e+06
2.3911e+06
2.3728e+06
2.35328e+06
2.33251e+06
2.3113e+06
2.28996e+06
2.26921e+06
2.24931e+06
2.22998e+06
2.2114e+06
2.19365e+06
2.17635e+06
2.16023e+06
2.14588e+06
2.13325e+06
2.12025e+06
2.10791e+06
2.09715e+06
2.08638e+06
2.07364e+06
2.05787e+06
2.04523e+06
2.03133e+06
2.01873e+06
2.00013e+06
1.99525e+06
1.99771e+06
1.99745e+06
1.99685e+06
1.99424e+06
1.99062e+06
1.98484e+06
1.97727e+06
1.96911e+06
1.96046e+06
1.95168e+06
1.9424e+06
1.93267e+06
1.92217e+06
1.91026e+06
1.89788e+06
1.88494e+06
1.87238e+06
1.85971e+06
1.84717e+06
1.83484e+06
1.82238e+06
1.81022e+06
1.79801e+06
1.78591e+06
1.77363e+06
1.7619e+06
1.75014e+06
1.73914e+06
1.7281e+06
1.71769e+06
1.70723e+06
1.69732e+06
1.68741e+06
1.67816e+06
1.66904e+06
1.66039e+06
1.65192e+06
1.6439e+06
1.63618e+06
1.62891e+06
1.62201e+06
1.61548e+06
1.60926e+06
1.60324e+06
1.59745e+06
1.59189e+06
1.58661e+06
1.58158e+06
1.5769e+06
1.57245e+06
1.5683e+06
1.56427e+06
1.56053e+06
1.55693e+06
1.55357e+06
1.55033e+06
1.54728e+06
1.5443e+06
1.54145e+06
1.53865e+06
1.53596e+06
1.53332e+06
1.53093e+06
1.52821e+06
1.52766e+06
1.52602e+06
1.52393e+06
1.52253e+06
1.52069e+06
1.51871e+06
1.51668e+06
1.51477e+06
1.51289e+06
1.51116e+06
1.50954e+06
1.50811e+06
1.50679e+06
1.5056e+06
1.50449e+06
1.50348e+06
1.50263e+06
1.50184e+06
1.50106e+06
1.50028e+06
1.49954e+06
1.49879e+06
1.49805e+06
1.49732e+06
1.49657e+06
1.49578e+06
1.49493e+06
1.494e+06
1.49301e+06
1.49198e+06
1.49095e+06
1.48993e+06
1.48889e+06
1.48786e+06
1.48683e+06
1.48583e+06
1.48486e+06
1.48394e+06
1.4831e+06
1.48243e+06
1.48177e+06
1.48138e+06
1.48092e+06
1.48044e+06
1.47995e+06
1.4794e+06
1.47879e+06
1.47809e+06
1.47731e+06
1.47645e+06
1.47554e+06
1.47459e+06
1.47368e+06
1.47275e+06
1.47195e+06
1.47119e+06
1.47057e+06
1.47002e+06
1.46958e+06
1.46923e+06
1.46893e+06
1.4686e+06
1.46826e+06
1.46785e+06
1.46736e+06
1.46679e+06
1.46614e+06
1.46543e+06
1.46465e+06
1.46386e+06
1.46304e+06
1.46236e+06
1.46164e+06
1.46113e+06
1.46067e+06
1.46033e+06
1.46005e+06
1.45977e+06
1.45948e+06
1.45916e+06
1.45879e+06
1.45836e+06
1.45783e+06
1.45722e+06
1.45654e+06
1.45583e+06
1.4551e+06
1.45443e+06
1.45364e+06
1.4531e+06
1.45272e+06
1.45239e+06
1.45209e+06
1.45181e+06
1.45151e+06
1.4512e+06
1.45083e+06
1.45041e+06
1.44991e+06
1.44936e+06
1.44874e+06
1.44809e+06
1.44742e+06
1.44671e+06
1.44613e+06
1.44562e+06
1.44511e+06
1.44472e+06
1.4444e+06
1.44408e+06
1.44374e+06
1.44339e+06
1.44299e+06
1.44255e+06
1.44205e+06
1.44151e+06
1.44092e+06
1.44031e+06
1.43966e+06
1.43875e+06
783110
500794
400550
416379
434999
453050
485801
527376
650913
855849
1.00044e+06
1.06711e+06
1.0708e+06
965342
882157
821617
779048
751432
733352
721360
713337
707862
703581
700124
697114
694415
691934
689487
688433
686220
683836
682552
681700
681077
682066
683493
688892
693533
698599
703433
708120
713187
718106
722840
727707
732347
737061
741323
745533
749206
752515
755044
757408
759187
760167
761600
763735
765829
766990
767338
767037
766163
764569
762333
759572
756389
752906
749112
744950
740047
734553
728810
722835
716774
710650
704460
698423
692238
686279
680257
674472
668571
662897
657154
651742
646261
641131
635945
631044
626082
621477
616883
612620
608373
604350
600326
596519
592897
589534
586329
583353
580460
577696
575028
572507
570132
567913
565843
563899
562113
560436
558934
557532
556300
555149
554150
553124
552129
551052
550099
548623
548489
548244
547496
547287
547110
546891
546659
546465
546268
546063
545875
545689
545528
545373
545230
545127
545072
545081
545121
545195
545298
545438
545598
545799
546007
546218
546437
546665
546889
547123
547372
547637
547925
548200
548489
548755
549010
549271
549506
549748
549997
550352
550765
551204
551639
552125
552619
553124
553634
554101
554573
554963
555410
555705
556102
556370
556657
556945
557228
557583
557906
558312
558613
558971
559339
559708
560067
560429
560709
560984
561151
561452
561499
561628
561721
561859
562025
562212
562404
562602
562802
563015
563245
563463
563625
563769
563827
563963
563855
563799
563800
563803
563818
563846
563902
563958
564032
564087
564157
564238
564273
564290
564283
564193
564083
564017
563901
563782
563702
563619
563594
563557
563525
563493
563452
563419
563370
563294
563174
783692
369020
215050
184516
190201
214725
290765
423306
541761
604591
622116
589866
534449
478342
439195
414729
401327
394261
391024
389992
390104
391801
393541
395903
398446
401335
404481
407848
411620
415416
419627
424361
429411
435141
441839
448760
456484
464110
472077
479922
487827
495947
503815
511497
519124
526597
533856
540732
547573
554257
560289
565424
570221
574422
577945
580381
582646
584395
585360
585459
585032
583983
582246
579855
576894
573474
569666
565505
561003
556124
550908
545425
539693
533790
527763
521638
515521
509287
503197
497051
491071
485013
479137
473202
467491
461732
456235
450720
445428
440141
435104
430130
425392
420722
416230
411773
407481
403313
399335
395489
391826
388274
384849
381521
378315
375230
372268
369433
366708
364123
361622
359287
357016
354920
352883
351007
349159
347395
345594
343921
341921
340675
339406
337901
336659
335556
334474
333431
332460
331532
330632
329766
328927
328123
327343
326579
325855
325151
324496
323871
323297
322734
322237
321735
321310
320891
320502
320121
319770
319422
319097
318789
318489
318223
317959
317718
317482
317241
317018
316786
316561
316296
316120
315960
315796
315656
315541
315463
315409
315377
315362
315355
315351
315354
315343
315344
315335
315320
315300
315271
315268
315264
315263
315263
315280
315305
315340
315383
315437
315494
315556
315593
315660
315662
315675
315672
315672
315679
315692
315708
315727
315747
315780
315826
315880
315927
315981
315996
316067
316039
316004
315982
315958
315934
315907
315892
315875
315866
315853
315850
315856
315860
315855
315871
315841
315796
315768
315720
315661
315601
315537
315492
315445
315400
315357
315318
315285
315256
315220
315177
784682
291280
150216
127012
145488
214483
315791
396702
434429
437897
411296
379097
346408
318765
302544
294162
290683
289782
290639
292783
295427
298754
302229
306162
310353
314912
319790
325015
330689
336685
343204
350203
357799
366020
374833
383876
393305
403049
413178
423179
433431
443912
453987
463824
473343
482811
491849
500562
509079
517570
525114
531691
537661
542888
547368
550185
552586
554099
554738
554483
553602
551955
549525
546373
542581
538302
533576
528467
523001
517189
511050
504617
497968
491153
484226
477207
470178
463053
456075
449076
442228
435353
428639
421919
415378
408876
402590
396379
390357
384438
378726
373140
367755
362486
357384
352352
347487
342744
338188
333778
329547
325447
321480
317617
313881
310264
306773
303406
300157
297036
294008
291131
288326
285682
283107
280673
278307
276025
273746
271572
269201
267360
265524
263551
261784
260139
258537
256986
255505
254082
252702
251369
250078
248832
247624
246442
245305
244190
243127
242093
241112
240146
239240
238342
237507
236694
235927
235182
234476
233788
233131
232498
231882
231299
230734
230190
229669
229144
228648
228147
227660
227144
226697
226261
225821
225402
225003
224635
224293
223973
223680
223405
223141
222899
222655
222430
222206
221991
221776
221558
221346
221150
220948
220756
220587
220421
220270
220128
220003
219890
219786
219679
219586
219484
219383
219278
219174
219069
218973
218878
218789
218695
218618
218551
218495
218438
218392
218325
218312
218259
218190
218121
218051
217981
217909
217841
217774
217709
217644
217581
217530
217484
217428
217407
217361
217304
217261
217208
217147
217084
217015
216952
216886
216822
216757
216700
216644
216599
216552
216497
785131
219300
112441
115624
163985
246480
316220
348753
348647
328997
306615
283622
263856
251002
244623
242228
242020
243859
246573
249959
253743
257994
262535
267515
272880
278675
284933
291675
298985
306818
315278
324366
334062
344465
355440
366623
378052
390057
402576
414877
427424
440329
452580
464624
476281
488015
499203
509955
520232
530421
539537
547315
554169
559787
564870
567398
569326
570090
569793
568689
566643
563771
559977
555395
550090
544332
538128
531550
524646
517436
510030
502419
494658
486752
478761
470684
462633
454505
446503
438509
430656
422825
415160
407562
400174
392897
385858
378947
372243
365691
359346
353161
347173
341339
335671
330109
324733
319492
314459
309589
304911
300378
295985
291704
287561
283541
279662
275905
272282
268778
265386
262130
258967
255946
253015
250207
247496
244847
242239
239720
237066
234834
232655
230388
228289
226301
224368
222492
220682
218935
217235
215586
213986
212435
210928
209457
208031
206635
205294
203986
202730
201497
200321
199162
198059
196981
195951
194950
193989
193057
192157
191286
190440
189627
188841
188076
187344
186611
185911
185212
184533
183835
183194
182569
181943
181338
180753
180194
179662
179150
178666
178201
177754
177328
176911
176511
176121
175746
175374
175010
174644
174302
173954
173620
173307
173000
172711
172430
172166
171918
171680
171451
171229
171011
170801
170589
170387
170181
169989
169798
169615
169428
169259
169096
168949
168800
168667
168520
168420
168299
168168
168040
167912
167788
167662
167540
167419
167302
167185
167070
166961
166863
166756
166683
166595
166500
166422
166338
166250
166162
166070
165980
165888
165797
165705
165620
165534
165462
165390
165298
785431
171035
105258
132380
201302
263171
293836
297425
281773
264932
247886
232224
221352
215432
213305
213207
215343
218471
222236
226493
231151
236251
241772
247783
254303
261380
269073
277416
286471
296254
306804
318024
329884
342573
355988
369787
383738
398438
413978
429284
444673
460643
475511
490036
503968
518070
531544
544107
555807
566800
576633
583898
590007
594183
598433
598846
598428
597374
594943
591739
587481
582723
577032
570810
564004
556898
549439
541668
533626
525316
516828
508143
499350
490424
481488
472472
463569
454597
445786
436969
428348
419758
411402
403147
395180
387333
379780
372341
365155
358109
351326
344699
338312
332099
326064
320166
314469
308915
303584
298419
293450
288636
283972
279428
275030
270760
266637
262635
258775
255027
251405
247905
244518
241254
238101
235052
232116
229230
226398
223656
220808
218321
215922
213476
211139
208926
206781
204695
202672
200713
198801
196942
195130
193370
191655
189982
188351
186758
185221
183720
182272
180853
179488
178148
176860
175598
174385
173203
172062
170953
169877
168832
167814
166832
165878
164950
164053
163165
162309
161458
160633
159795
159005
158238
157473
156733
156012
155315
154647
153996
153378
152773
152193
151625
151080
150543
150025
149522
149024
148540
148055
147596
147131
146687
146262
145846
145447
145058
144685
144330
143985
143654
143325
143010
142702
142397
142105
141810
141532
141255
140989
140720
140472
140229
140002
139775
139566
139348
139170
138979
138782
138591
138402
138221
138038
137862
137688
137520
137351
137188
137026
136878
136723
136598
136464
136324
136205
136081
135956
135833
135709
135587
135463
135341
135218
135103
134986
134883
134781
134646
785272
158340
127216
163991
222437
252909
262526
251483
237743
224529
211781
201850
195961
193459
193157
195008
198288
202260
206807
211826
217291
223259
229762
236854
244604
253083
262356
272461
283452
295370
308196
321872
336279
351708
368099
385057
402045
419759
438581
457445
475887
495020
512253
528309
543320
557929
571954
583293
593460
601896
610177
613873
616392
617417
618822
616564
612819
609007
603841
598158
591638
584933
577542
569740
561416
552816
544096
535262
526311
517302
508186
499110
490019
480858
471870
462787
453987
445078
436510
427846
419553
411182
403147
395045
387319
379551
372166
364740
357655
350594
343854
337166
330789
324513
318461
312507
306774
301146
295741
290494
285453
280570
275850
271257
266806
262479
258291
254224
250294
246474
242778
239198
235729
232373
229133
225978
222943
219951
217025
214181
211257
208616
206096
203574
201109
198764
196508
194303
192165
190084
188050
186067
184128
182241
180397
178597
176836
175116
173449
171822
170245
168703
167211
165749
164336
162950
161616
160308
159047
157810
156614
155443
154305
153199
152122
151074
150054
149055
148077
147116
146179
145233
144327
143455
142584
141743
140918
140119
139351
138597
137877
137169
136488
135814
135172
134528
133913
133306
132711
132130
131551
130996
130443
129908
129396
128891
128405
127928
127471
127028
126600
126181
125774
125372
124986
124602
124230
123860
123507
123155
122818
122479
122161
121849
121554
121261
120987
120706
120461
120207
119949
119700
119454
119217
118981
118753
118528
118311
118094
117885
117676
117482
117282
117110
116931
116748
116587
116423
116258
116099
115939
115783
115626
115472
115317
115171
115023
114889
114757
114577
784884
167741
152388
187168
219240
233309
230569
218392
207674
197305
188179
181977
178877
178030
179215
182175
186149
190772
195981
201714
207964
214824
222336
230597
239698
249731
260763
272841
286003
300342
315797
332348
349717
368278
387992
408637
429160
450084
472114
493812
513287
532989
549255
563770
577020
588475
599875
606322
612403
616154
620417
619289
617003
612955
608108
600939
592077
583413
574365
565231
555919
546800
537706
528546
519467
510122
501255
492370
483565
475130
466555
458505
450322
442470
434763
427037
419731
412269
405310
398151
391481
384637
378158
371480
365186
358723
352628
346383
340481
334480
328787
322975
317411
311766
306385
300959
295746
290508
285492
280560
275837
271239
266798
262452
258214
254077
250055
246141
242341
238646
235048
231575
228175
224905
221708
218604
215600
212655
209776
206956
204096
201398
198872
196372
193913
191528
189262
187024
184872
182752
180691
178666
176684
174751
172856
171005
169186
167408
165679
163989
162347
160741
159180
157652
156169
154712
153309
151925
150594
149279
148011
146759
145546
144357
143203
142071
140972
139893
138833
137794
136776
135758
134770
133820
132876
131959
131059
130187
129343
128516
127720
126938
126180
125433
124711
123995
123299
122617
121949
121290
120640
120008
119389
118781
118199
117623
117070
116524
116000
115487
114994
114504
114035
113564
113114
112664
112227
111794
111377
110963
110565
110167
109790
109420
109067
108718
108388
108053
107752
107443
107132
106831
106534
106248
105963
105688
105416
105155
104894
104644
104392
104156
103916
103701
103481
103259
103058
102855
102654
102460
102265
102076
101886
101701
101514
101338
101160
100995
100835
100611
784484
178217
169078
191221
208367
211859
204091
194633
186131
178077
171636
167779
166288
166447
168711
172292
176764
181923
187725
194148
201181
208968
217565
227121
237731
249513
262536
276871
292511
309631
328118
347997
368782
390918
414222
438489
461532
483576
505675
526932
543244
558935
570689
580829
590287
596616
603488
603414
602033
598423
594218
587158
578583
568865
558509
548610
537743
526340
515934
505312
495318
485027
475705
466101
457284
448074
439747
431320
423453
416009
408581
401972
395150
389127
383000
377197
371687
366078
361012
355732
350902
345925
341206
336306
331645
326832
322235
317512
312951
308299
303821
299280
294966
290599
286407
282178
278044
273865
269809
265757
261846
257994
254208
250446
246727
243053
239451
235927
232475
229114
225809
222625
219485
216468
213485
210604
207764
205040
202328
199678
197017
194420
191994
189601
187254
184948
182756
180585
178502
176435
174430
172448
170508
168607
166744
164916
163117
161352
159631
157944
156301
154690
153122
151582
150087
148612
147189
145782
144426
143083
141786
140502
139255
138028
136838
135661
134525
133397
132298
131214
130150
129092
128058
127055
126068
125102
124157
123235
122341
121466
120618
119788
118976
118182
117402
116640
115885
115153
114430
113716
113014
112327
111656
110994
110359
109731
109126
108527
107952
107386
106842
106300
105780
105259
104755
104255
103767
103283
102814
102351
101903
101458
101030
100613
100211
99816.1
99439.7
99060.3
98711.2
98357
98001.9
97657
97315.9
96987.1
96659.6
96343.6
96030.9
95730.8
95430.6
95143.2
94853.8
94581.4
94305.1
94053.1
93797.5
93540.9
93303.2
93066
92831.4
92604.2
92378.2
92157.2
91936.9
91722.6
91507.3
91301.9
91097
90903.6
90715.6
90451.6
784202
185655
176025
187242
194462
192168
184230
176938
170084
163845
159291
156910
156266
157332
160183
164157
169015
174636
180996
188101
195962
204758
214574
225606
237949
251760
267098
284074
302605
322924
344953
368681
393078
418149
443107
467844
490128
509350
526962
544035
554643
564484
572143
576043
578851
577585
575490
569716
561958
552114
541974
530954
519113
506340
492492
480866
468447
454498
441988
428829
417549
405596
395528
385039
376305
367118
359411
351554
345106
338853
333191
328441
323595
319793
315840
312651
309433
306529
303954
301240
298873
296415
294087
291654
289246
286749
284240
281637
278965
276188
273352
270457
267624
264756
261893
259003
256081
253100
250076
247017
243943
240892
237892
234903
231921
228942
225977
223047
220143
217295
214475
211744
209024
206366
203729
201169
198616
196190
193748
191375
188980
186613
184362
182177
180017
177882
175841
173820
171871
169937
168060
166193
164368
162565
160801
159063
157352
155663
154014
152389
150807
149246
147729
146229
144774
143332
141939
140557
139223
137898
136618
135345
134108
132885
131697
130522
129382
128246
127145
126051
124980
123913
122866
121844
120841
119855
118891
117947
117030
116131
115257
114402
113562
112743
111931
111143
110357
109592
108838
108090
107355
106633
105929
105231
104560
103896
103256
102620
102010
101407
100826
100248
99689.9
99133.2
98591.3
98054.5
97527.4
97006.4
96498.6
95998.4
95510.9
95029.4
94562.1
94107.7
93667.7
93236.7
92822.3
92408.1
92020.2
91629.5
91239.4
90858.8
90482
90117.6
89755.1
89404.5
89057.6
88724
88391.1
88071.7
87750.7
87447
87140
86855.9
86569.2
86283.3
86014.2
85746.9
85483.1
85226.8
84972.7
84723.9
84476.6
84235.8
83994.8
83763.4
83533.5
83314.4
83101.6
82800.9
783840
189568
175939
179710
180752
175889
169197
163288
157684
152800
149548
148105
147999
149702
152879
157124
162300
168347
175269
183101
191900
201866
213119
225907
240332
256584
274697
294805
316809
340827
366451
393256
419055
443847
466594
487658
506270
520000
531965
544391
547686
549595
551912
549431
545540
538440
529787
518987
506671
492604
477473
461936
445796
429111
411981
395018
380571
364913
351601
337723
326348
314528
304859
294862
286929
278712
272109
265294
260062
254700
250597
246567
243497
240786
238349
236704
234936
234049
233253
232447
232214
231978
232055
232163
232376
232529
232737
232806
232797
232662
232435
232021
231484
230782
229965
229007
227934
226687
225282
223711
221999
220185
218310
216374
214379
212321
210209
208051
205858
203640
201403
199161
196928
194721
192525
190364
188214
186138
184065
182027
179970
177908
175919
173990
172073
170153
168307
166469
164698
162929
161217
159504
157829
156167
154539
152936
151355
149785
148248
146728
145245
143776
142346
140925
139547
138174
136849
135528
134253
132981
131754
130527
129335
128152
127000
125861
124752
123647
122573
121505
120457
119412
118383
117375
116384
115407
114450
113510
112595
111698
110822
109966
109122
108299
107482
106686
105894
105118
104355
103595
102848
102110
101391
100677
99988
99304.1
98645.5
97990.2
97359
96735
96133.1
95533.4
94952.5
94374.5
93808.6
93248.8
92696.9
92152.4
91618.3
91093.4
90578.6
90072.4
89576.7
89096.2
88627.1
88171.3
87727.3
87289.3
86869.8
86454.2
86038.1
85630.4
85226.3
84834.5
84445.1
84067.1
83693.3
83332.7
82973.9
82628.3
82282.1
81952.7
81620.8
81310.1
80998.2
80688.7
80393.1
80101.2
79813
79532
79254.1
78981.6
78711.4
78447.8
78184.7
77930.8
77679
77437.7
77203.1
76870.2
783333
192083
173312
171189
168803
163098
157479
152416
147740
143879
141509
140615
140960
143023
146393
150846
156320
162812
170364
179055
188995
200411
213454
228452
245477
264745
286280
310142
335755
362886
389849
416507
440523
461899
479804
495293
510233
518111
522576
527037
525640
522131
518539
510844
501048
488608
474332
458538
440750
421317
399984
380066
360959
342720
325856
308832
294648
280197
267969
255388
245144
234666
226117
217369
210415
203345
197697
191889
187339
182650
179106
175385
172947
170361
168548
167090
165586
165010
164341
164279
164455
164775
165393
166235
167330
168552
169951
171426
173021
174619
176302
177944
179675
181291
182974
184423
185922
187086
188194
188983
189609
190007
190166
190083
189850
189435
188840
188073
187147
186079
184880
183564
182171
180720
179224
177699
176157
174611
173051
171470
169845
168181
166501
164863
163240
161604
160012
158417
156874
155325
153816
152306
150821
149347
147899
146473
145056
143637
142237
140848
139484
138131
136807
135489
134206
132925
131685
130447
129252
128055
126901
125741
124614
123491
122396
121311
120255
119202
118177
117156
116155
115154
114165
113192
112236
111291
110363
109447
108554
107677
106821
105981
105154
104346
103544
102760
101982
101215
100461
99709.1
98968.4
98234.2
97518.1
96804.1
96114.6
95428.2
94766.4
94107.4
93470.7
92841.2
92232.3
91626.5
91037.3
90452.2
89876.5
89307.9
88744.8
88190.1
87642.8
87105.9
86576.2
86056.9
85544.4
85049
84561.5
84091.5
83628.2
83176
82735.2
82304.8
81871.7
81446.3
81024.2
80613.6
80205.8
79808.5
79415.7
79035.2
78657.8
78292.6
77928.3
77578.9
77229.1
76897.8
76567.2
76239.7
75923.4
75612.7
75305.5
75004.8
74707.9
74416.5
74127.9
73845.8
73564.9
73292.5
73022.9
72763.2
72510.3
72150.4
783372
193589
168412
162656
158596
153069
148083
143533
139504
136406
134626
134069
134759
137013
140520
145178
150991
158024
166374
176183
187613
200932
216345
234213
254558
277593
302947
330270
357917
385559
410947
434822
455376
471608
484084
494374
504311
504879
503423
500606
496371
487971
477820
464900
449415
431474
410485
388461
365031
343749
321784
301921
283472
266508
251749
237575
224854
213729
203565
193456
185176
176746
169782
162696
156939
151132
146409
141606
137713
133743
130586
127324
124914
122371
120583
118803
117255
116160
115039
114345
113975
113586
113622
113796
114195
114773
115570
116538
117711
119034
120551
122212
124065
126048
128198
130426
132770
135140
137589
139944
142346
144585
146856
148887
150856
152609
154212
155563
156743
157663
158421
158910
159244
159311
159236
159060
158776
158382
157878
157261
156512
155626
154632
153577
152484
151349
150190
149011
147828
146630
145433
144223
143008
141786
140569
139354
138146
136929
135717
134509
133310
132116
130937
129762
128608
127455
126332
125213
124125
123029
121964
120891
119843
118797
117773
116758
115768
114781
113820
112859
111919
110977
110043
109120
108210
107309
106422
105544
104686
103841
103016
102205
101406
100625
99850.5
99092.4
98340.3
97596.9
96865.7
96135.6
95414.7
94698.4
93997.9
93297.9
92620.3
91944.4
91291.9
90642.1
90012.5
89389.8
88786.5
88186.9
87602.1
87022.2
86449.1
85884
85322.2
84769.3
84220.7
83683.1
83150.1
82628.6
82110.6
81610.7
81115.9
80641.1
80169.5
79711.5
79260.7
78823.9
78383.6
77949.7
77519
77098.3
76681
76272.5
75869
75476.3
75087.9
74710
74334.7
73972.2
73611.5
73266.1
72923.3
72584.1
72253.7
71929.8
71609.4
71294.7
70984.4
70679.3
70377.3
70081.7
69787.6
69501.4
69218.2
68944.6
68677.3
68296.3
785926
192561
162496
155005
149980
144885
140316
136136
132514
129955
128569
128238
129167
131542
135198
140128
146413
154202
163667
175043
188519
204479
223044
244646
269046
296071
324322
353391
380642
406513
428849
448499
464742
474959
482501
486179
489312
486458
480458
471395
462113
448855
432210
413082
390569
366453
340083
317000
293021
273750
254385
237786
222745
209212
197711
187005
177028
168920
160651
153478
146989
140387
134802
129173
124530
119826
115960
112045
108866
105624
102946
100221
98022.8
95769.3
93998.4
92199.1
90761.5
89448
88160.3
87069.8
86220.2
85361.9
84757.7
84177
83817
83524.2
83375.8
83383.1
83487
83692.2
84035.1
84506.1
85134.8
85905.8
86845.5
87922.4
89162.1
90543.6
92090.6
93772.2
95602
97544
99607.7
101754
103990
106281
108616
110934
113269
115510
117733
119823
121837
123736
125520
127237
128868
130361
131706
132869
133854
134588
135089
135390
135551
135511
135380
135139
134807
134384
133890
133326
132702
132018
131285
130506
129696
128852
127979
127084
126170
125240
124297
123345
122385
121417
120457
119489
118538
117580
116642
115695
114762
113826
112908
111994
111101
110210
109338
108468
107613
106758
105900
105045
104197
103356
102523
101695
100884
100082
99297.8
98526.2
97766.5
97022.6
96285.6
95564.6
94846.7
94137.9
93436.9
92738.8
92046.3
91356.6
90679.8
90002.8
89345.1
88688.3
88053.4
87421
86807
86199.4
85610
85025
84453.1
83886.6
83324.8
82771.9
82220.4
81677.6
81137.1
80607.3
80080
79564.7
79050.2
78553.9
78061.1
77588.4
77118.1
76661.3
76209.9
75774
75334.6
74900.5
74469.3
74046.7
73627.6
73215.8
72809
72411.5
72018.9
71635.6
71255.8
70887.3
70521.9
70169.1
69820.6
69475.6
69137.4
68806.3
68478.6
68155.8
67837.5
67524.2
67214.1
66910.2
66607.8
66312.9
66020.7
65737.8
65460.6
65064.9
788548
190476
156390
148022
142713
137966
133706
129800
126500
124271
123148
122981
124086
126597
130491
135866
142889
151827
162959
176579
192959
212494
235196
261318
289703
319780
349130
377930
403209
425905
444305
458486
469686
474435
476092
474368
471434
464814
454715
440246
423631
403649
379118
352559
324055
299279
274083
254234
234339
219271
204500
192508
181280
171376
162547
154318
146639
139697
133168
127773
122244
116810
112261
107656
103817
99907.9
96827.6
93701.8
91120.6
88500.2
86328.8
84059.4
82242.4
80391.5
78920.2
77391.3
76174.8
75022.9
73918.3
72925.9
72055.2
71199
70497.3
69779.9
69188.9
68588.1
68119.7
67643.1
67282.9
66916.5
66661.6
66414.6
66278.2
66172.3
66187.2
66248.6
66382
66595.4
66898.9
67291.8
67784.9
68371.7
69062
69853.5
70757.6
71770.5
72894.1
74121.2
75450.9
76877
78395.6
79997.7
81687.4
83464.6
85342.3
87329.9
89412
91557.9
93746.4
95932.8
98145.9
100234
102262
104068
105878
107448
108982
110262
111498
112502
113461
114222
114916
115422
115867
116120
116331
116340
116275
116124
115886
115567
115176
114719
114205
113641
113034
112390
111719
111028
110323
109604
108875
108136
107396
106650
105912
105169
104432
103690
102950
102204
101452
100697
99941.4
99188.5
98438.3
97688.4
96949.3
96214.8
95495.3
94785.2
94086.2
93400.3
92722.7
92055.2
91386.6
90725.5
90067.5
89412.5
88759.7
88107.4
87464.1
86820.8
86191.9
85563.9
84955.1
84349
83759
83174.1
82605.7
82041.9
81489.3
80942.4
80398.5
79863.8
79328.8
78802.2
78276.2
77759.9
77245
76741.6
76237.8
75750.2
75266.3
74800.1
74337.9
73887
73441.8
73011.6
72578.8
72150.6
71725
71306.1
70891.2
70482.2
70077.9
69681.5
69290.2
68907.1
68528.2
68159.3
67794.4
67439.7
67090.8
66745.3
66404.9
66071.8
65741.9
65416.4
65095.2
64778.7
64465.3
64158
63851.9
63552.9
63256.3
62968.6
62685.7
62281.6
790982
187686
150421
141626
136371
131937
127934
124274
121272
119214
118259
118238
119520
122271
126608
132761
140994
151724
165270
182194
202599
226868
254448
285107
316466
348080
376691
403488
425751
444020
457547
465234
471164
470382
467773
461366
452236
439536
423272
402055
375536
346462
315478
288452
262635
241541
222439
207317
193314
182255
171487
162736
153829
146124
138558
131731
125080
118969
113558
108537
103290
99157.7
95388.9
91611.4
88494.4
85467.9
83037.8
80590.2
78535.8
76442.3
74726.1
73021.6
71635.6
70239
69098.2
67952
67014
66074.6
65219.1
64474.5
63723.3
62998.4
62383.3
61748.6
61168.3
60582.2
60083.2
59576.1
59125.3
58667.8
58273.3
57872.6
57536.5
57194.4
56921.9
56645.5
56425.5
56198.6
56020.1
55871.8
55769.1
55697
55662.3
55674.9
55722.7
55813.6
55952.7
56140.8
56380.8
56675.2
57026.8
57438.5
57919.4
58478.1
59133.3
59895.4
60767.8
61752.2
62847.4
64043.6
65344.1
66737.8
68210
69747.4
71355.8
73022
74742.7
76494.1
78279
80063.8
81876.6
83670.4
85498.6
87248.3
89016.3
90652.1
92253.6
93722.3
95075.1
96278.2
97352.1
98268.3
99052.3
99690.4
100198
100584
100838
101010
101041
100995
100890
100718
100487
100203
99876.4
99513.2
99121.5
98700.6
98254.2
97780.3
97280.5
96753.8
96203.2
95633.7
95048.7
94451.5
93843.4
93227.1
92605.9
91979.9
91359.9
90742.4
90129.3
89523.1
88919.7
88325
87729.8
87139.1
86548.7
85959.3
85368.2
84775.5
84186.5
83597
83016
82435.6
81869.9
81307.9
80756.1
80205.7
79668.9
79136.3
78612.5
78094.1
77577.4
77069.2
76559.2
76056.8
75553.5
75057.8
74563.7
74078.6
73593
73119.8
72650.8
72195.6
71746.9
71306.4
70872.9
70451.8
70030.8
69613.2
69197.6
68787.2
68381.1
67979.6
67582.2
67191.2
66805
66426.4
66052.1
65686.7
65325.8
64973.4
64627.8
64285.6
63947.1
63616
63287.8
62963.6
62643.5
62327.7
62014.8
61707.9
61401.7
61102.5
60805
60516.2
60231.3
59824.3
793052
184656
144740
135768
130720
126572
122798
119385
116630
114742
113872
114032
115579
118796
123943
131404
141557
154963
172197
193807
219583
249500
281935
316434
348866
379836
406487
429732
447858
460214
467686
468995
468864
464705
457150
444594
427187
405464
378300
347243
313789
284380
257622
235485
216448
200721
187394
176081
165900
156958
148518
140939
133243
126274
119202
113022
106917
101620
96746.7
91988.5
87991.7
84926.8
81782.5
78975.3
76685.2
74498.8