/*--------------------------------*- C++ -*----------------------------------*\
| =========                 |                                                 |
| \\      /  F ield         | OpenFOAM: The Open Source CFD Toolbox           |
|  \\    /   O peration     | Version:  2312                                  |
|   \\  /    A nd           | Website:  www.openfoam.com                      |
|    \\/     M anipulation  |                                                 |
\*---------------------------------------------------------------------------*/
FoamFile
{
    version     2.0;
    format      ascii;
    arch        "LSB;label=32;scalar=64";
    class       volScalarField;
    location    "0.003";
    object      p;
}
// * * * * * * * * * * * * * * * * * * * * * * * * * * * * * * * * * * * * * //

dimensions      [1 -1 -2 0 0 0 0];

internalField   nonuniform List<scalar> 
48128
(
3496.61
3497.08
3485.82
3473.64
3472.73
3468.9
3466.3
3462.05
3454.93
3443.45
3436.12
3421.39
3416.73
3398.7
3370.9
3337.47
3312.04
3291.99
3277.85
3269.69
3267.58
3270.39
3278.06
3291.04
3309.71
3334.3
3365.35
3405.2
3452.15
3507.14
3570.15
3642.21
3723.17
3813.81
3913.2
4022.6
4141.86
4271.62
4409.23
4558.66
4717.67
4885.52
5062.62
5249.33
5442.01
5645.87
5851.52
6071.8
6292.13
6524.4
6754.44
6997.19
7236.99
7485.16
7728.32
7978.33
8225.66
8470.02
8713.56
8952.19
9186.59
9414.85
9637.45
9853.6
10062.7
10264.1
10457.1
10642.6
10820.6
10986.8
11147.2
11294.1
11435.5
11566.8
11686.5
11800.9
11900.6
11998.9
12082.4
12165.8
12236.8
12310.2
12370.5
12431.7
12482.2
12533.9
12575.9
12619.2
12654.7
12690.7
12719.9
12750.3
12775.3
12799.9
12816.9
12829.4
12834.7
12840.5
12848.7
12859.7
12872
12884.6
12892.3
12897.4
12901.1
12905.3
12910.3
12915.9
12921.9
12928.5
12936.6
12946.6
12959
12973.4
12989.4
13005.9
13021.5
13025.6
13023.3
13007.8
12982.4
13026.1
13030
13027.1
13057.7
13080.8
13102.3
13123.7
13141.3
13155.5
13166.2
13174.7
13182.5
13187.6
13191.1
13191.1
13191.8
13193.9
13196.9
13200.5
13204.5
13209.3
13215.1
13222
13230.1
13239.9
13250.8
13262.6
13273.4
13284.4
13293.9
13303.7
13313.9
13324
13333.5
13340.4
13345.6
13345.5
13342.7
13338.3
13331.4
13323.8
13323.9
13321.9
13322.1
13325.2
13330.4
13338.5
13347.9
13358.5
13368.7
13378.8
13386.7
13394
13397.6
13399
13397.4
13394.7
13389.1
13383.4
13379.1
13376.3
13374.8
13377.6
13381.8
13387.1
13394
13402.5
13411.4
13419
13425
13427.9
13430.1
13427.7
13425.1
13420.4
13416.3
13412.6
13409.7
13408.7
13409.6
13412
13417.3
13423.8
13430.7
13437.5
13443
13448.2
13453.4
13448.1
13445.5
13442.4
13438.8
13435.1
13431.9
13429.5
13429.8
13431.3
13434
13438.1
13443.5
13448.5
13454.3
13458.7
13458.6
13459.2
13458.2
13454.8
13452
13449.2
13446.6
13444.3
13444.1
13444.9
13446.8
13449.7
13453.6
13457.7
13462.4
13465.5
3485.91
3490.75
3483.31
3473.88
3474.78
3472.95
3472.52
3470.78
3467.21
3461.35
3458.74
3445.17
3430.21
3403.4
3372.14
3350.29
3325.07
3303.9
3288.5
3279.35
3276.29
3278.34
3285.2
3297.36
3315.2
3339.25
3370.18
3406.51
3451.57
3505.32
3567.06
3638.56
3718.35
3808.05
3906.4
4014.63
4132.07
4260.37
4397.11
4544.81
4701.89
4868.14
5043.14
5227.7
5418.67
5620.48
5824.33
6041.83
6259.8
6489.71
6718.34
6958.5
7196.31
7441.91
7684.34
7933.66
8180.79
8425.58
8668.19
8906.11
9139.89
9368.08
9590.87
9807.23
10016.5
10218
10411.4
10597.1
10774.2
10940.1
11100.9
11249.4
11391.9
11524.3
11645.3
11760.5
11861.9
11961.4
12046.1
12130.8
12203.8
12278.5
12340.3
12402.4
12454.4
12507.1
12550.5
12595
12631.8
12668.7
12698.9
12730.4
12756.4
12782
12799.9
12813
12818.9
12825.5
12834.5
12846.4
12859.6
12872.8
12881
12886.6
12890.8
12895.5
12901
12907.1
12913.5
12920.5
12929
12939.4
12952.1
12966.8
12983.1
13000.1
13015.9
13020.2
13017.8
13003.1
12976.9
13020.4
13026.3
13023.9
13053.2
13077.5
13099.1
13120.3
13137.9
13152.3
13163.1
13171.7
13179.7
13184.9
13188.5
13188.6
13189.4
13191.7
13194.8
13198.5
13202.6
13207.5
13213.4
13220.3
13228.5
13238.2
13249.3
13261.1
13272
13283
13292.5
13302.4
13312.7
13322.8
13332.4
13339.3
13344.7
13344.5
13341.9
13337.5
13330.7
13323
13323.4
13321.4
13321.5
13324.7
13329.8
13338
13347.4
13358.1
13368.3
13378.4
13386.3
13393.7
13397.3
13398.6
13397.2
13394.4
13388.9
13383.2
13378.9
13376.2
13374.6
13377.6
13381.7
13387
13393.9
13402.4
13411.3
13418.9
13425
13427.8
13430
13427.8
13425.1
13420.5
13416.3
13412.6
13409.7
13408.8
13409.7
13412.1
13417.4
13423.8
13430.8
13437.5
13443.1
13448.3
13453.5
13448.3
13445.5
13442.5
13438.9
13435.2
13432
13429.7
13430
13431.4
13434.2
13438.2
13443.7
13448.7
13454.4
13458.9
13458.7
13459.4
13458.3
13455
13452.1
13449.3
13446.7
13444.5
13444.3
13445.1
13447
13449.9
13453.7
13457.8
13462.6
13465.7
3487.56
3489.91
3483.25
3473.54
3474.47
3472.01
3471.02
3468.49
3461.82
3457.46
3443.19
3424.03
3406.92
3390.97
3360.5
3327.05
3303.21
3286.37
3274.37
3267.69
3266.48
3269.68
3277.49
3290.41
3309
3333.59
3364.91
3403.05
3448.93
3502.92
3564.6
3635.7
3715.02
3804.39
3902.31
4010.07
4126.71
4254.1
4389.85
4536.25
4692.48
4857.93
5032.01
5215.9
5406.08
5607.34
5810.38
6027.21
6244.18
6473.25
6701.07
6940.86
7177.89
7422.93
7664.63
7912.15
8155.43
8397.65
8639.59
8877.14
9110.75
9339.15
9562.43
9779.46
9989.41
10191.3
10385.5
10571.9
10750.3
10917.7
11079.6
11229.1
11373
11506.1
11628.2
11744
11846.5
11947.1
12032.3
12117.9
12192.2
12268.1
12330.4
12393.1
12445.5
12498.7
12542.4
12587.6
12624.8
12662.2
12692.5
12724.6
12751
12777
12795
12808.2
12814.1
12821
12830.3
12842.6
12856.2
12869.5
12877.8
12883.5
12887.9
12892.7
12898.4
12904.6
12911.1
12918.2
12926.8
12937.4
12950.2
12965
12981.4
12998.5
13014.1
13018.5
13015.7
13002.1
12976.3
13016.4
13025.1
13024.8
13051.5
13076.5
13098.5
13119.3
13136.8
13151.2
13162.1
13170.8
13178.7
13183.9
13187.6
13187.8
13188.6
13190.9
13194.1
13197.8
13201.9
13206.9
13212.8
13219.7
13227.9
13237.7
13248.7
13260.6
13271.5
13282.5
13292
13302
13312.2
13322.4
13331.9
13338.8
13344.1
13344
13341.4
13337.1
13330.4
13322.7
13322.9
13321.1
13321.3
13324.5
13329.6
13337.8
13347.2
13357.8
13368.1
13378.2
13386.1
13393.5
13397
13398.3
13397
13394.2
13388.8
13383
13378.7
13376.1
13374.5
13377.5
13381.5
13386.9
13393.8
13402.3
13411.3
13418.8
13424.9
13427.7
13429.8
13427.8
13424.9
13420.4
13416.2
13412.5
13409.7
13408.8
13409.7
13412.1
13417.3
13423.8
13430.8
13437.5
13443.1
13448.2
13453.3
13448.4
13445.4
13442.5
13438.9
13435.2
13432
13429.7
13430
13431.5
13434.2
13438.2
13443.7
13448.7
13454.4
13458.9
13458.8
13459.3
13458.3
13455
13452.1
13449.3
13446.7
13444.6
13444.3
13445.1
13447
13449.9
13453.8
13457.9
13462.6
13465.7
3486.72
3486.18
3482.51
3472.58
3473.58
3471.08
3469.98
3469.62
3462.63
3446.86
3429.04
3411.42
3391.69
3364.45
3341.97
3318.29
3298.55
3283.52
3272.87
3266.93
3266.21
3269.58
3277.41
3290.35
3308.71
3332.91
3363.6
3401.17
3446.24
3499.31
3560.2
3630.35
3708.59
3797.03
3893.69
4000.3
4115.07
4241.3
4375.54
4520.13
4674.92
4838.68
5010.91
5193.39
5381.74
5581.44
5782.31
5997.64
6213.07
6440.76
6666.85
6905.86
7141.42
7385.52
7626.05
7873.68
8116.82
8358.98
8600.47
8837.58
9070.6
9298.95
9522.4
9740.03
9950.5
10152.7
10347
10533.8
10712.5
10880.7
11043.4
11193.7
11339.3
11472.9
11596.4
11712.5
11816.2
11918.1
12003.5
12090
12165.9
12243.5
12306.5
12370.3
12423.7
12478.1
12522.8
12569.3
12607.7
12646
12677.2
12710.3
12737.5
12764.6
12783.3
12796.9
12803.3
12811
12821.1
12834.1
12848.4
12862.1
12870.7
12876.9
12881.7
12887
12893.1
12899.7
12906.5
12914
12922.8
12933.6
12946.7
12961.6
12978.2
12995.4
13010.5
13015.2
13011.7
13000
12976
13009.9
13022.5
13025.9
13049.2
13074.7
13097.1
13117.3
13134.5
13149.1
13160.2
13169
13177
13182.2
13185.9
13186.3
13187.3
13189.7
13192.9
13196.6
13200.8
13205.9
13211.9
13218.8
13227
13236.9
13247.9
13259.8
13270.7
13281.6
13291.2
13301.3
13311.6
13321.7
13331.2
13338
13343.3
13343.1
13340.7
13336.4
13330.1
13322.3
13322.3
13320.9
13321.2
13324.3
13329.3
13337.5
13346.9
13357.5
13367.8
13377.9
13385.7
13393.1
13396.5
13397.9
13396.6
13393.9
13388.5
13382.8
13378.5
13376
13374.6
13377.4
13381.4
13386.9
13393.8
13402.2
13411.1
13418.6
13424.7
13427.5
13429.6
13427.6
13424.8
13420.3
13416.1
13412.5
13409.7
13408.8
13409.7
13412.2
13417.4
13423.8
13430.8
13437.5
13443.1
13448.1
13453.1
13448.6
13445.4
13442.4
13438.9
13435.2
13432
13429.8
13430.1
13431.6
13434.3
13438.2
13443.7
13448.8
13454.3
13458.9
13458.9
13459.3
13458.3
13455.1
13452.2
13449.4
13446.8
13444.6
13444.4
13445.2
13447.1
13450
13453.9
13457.9
13462.6
13465.7
3487.82
3483.32
3481.88
3472.61
3473.45
3469.8
3470.65
3464.5
3452.45
3434.19
3416.24
3394.32
3375.4
3351.29
3330.73
3309.23
3292.3
3279.28
3270.14
3265.08
3264.83
3268.42
3276.32
3289.11
3307.11
3330.89
3360.96
3397.87
3442.19
3494.54
3554.61
3623.91
3701.13
3788.85
3884.46
3990.28
4103.47
4229.05
4362.05
4505.3
4659.42
4822.03
4992.75
5174.65
5362.07
5561.74
5761.4
5976.62
6191.31
6418.55
6643.03
6882.86
7117.75
7361.73
7600.98
7850
8092.17
8334.73
8575.89
8812.87
9045.68
9273.94
9498.26
9716.56
9927.8
10129.6
10323.7
10510.9
10688.6
10857.4
11020.6
11171.2
11318.6
11451.9
11576.8
11692.3
11797
11899.9
11985.1
12072.2
12149.4
12228.4
12291.8
12356.3
12410.2
12465
12510.1
12557.7
12596.6
12635.6
12667.1
12700.9
12728.5
12756.1
12774.9
12788.8
12795.4
12803.8
12814.4
12827.8
12842.4
12856.1
12864.8
12871.4
12876.5
12882.2
12888.5
12895.3
12902.3
12910.1
12919.2
12930.3
12943.6
12958.6
12975.3
12992.4
13006.9
13011.8
13007.7
12998.3
12977
13003.8
13020.5
13027.9
13047.8
13073.2
13095.9
13115.6
13132.5
13147.2
13158.5
13167.5
13175.3
13180.6
13184.4
13185
13186.4
13188.8
13192
13195.7
13200
13205.1
13211.2
13218.2
13226.4
13236.3
13247.3
13259
13269.9
13280.9
13290.5
13300.7
13311
13321.1
13330.4
13337.1
13342.3
13342
13339.9
13335.7
13329.9
13322.1
13321.7
13320.8
13321.2
13324.3
13329.2
13337.4
13346.7
13357.3
13367.5
13377.5
13385.3
13392.6
13396
13397.4
13396.1
13393.4
13388.2
13382.6
13378.4
13376
13374.7
13377.4
13381.4
13386.9
13393.8
13402.2
13410.9
13418.4
13424.4
13427.2
13429.4
13427.3
13424.5
13420.2
13416
13412.4
13409.6
13409
13409.9
13412.3
13417.4
13423.8
13430.8
13437.4
13443
13447.9
13452.7
13448.7
13445.3
13442.3
13438.8
13435.2
13432.1
13429.9
13430.2
13431.7
13434.4
13438.3
13443.8
13448.8
13454.2
13458.8
13459
13459.2
13458.2
13455.1
13452.2
13449.4
13446.8
13444.7
13444.5
13445.3
13447.2
13450.1
13453.9
13458
13462.6
13465.7
3489.53
3484.14
3483.11
3472.77
3473.05
3471.32
3466.62
3456.71
3441.11
3422.87
3402.39
3382.74
3361.88
3339.37
3320.53
3301.96
3287.12
3275.55
3267.5
3263.07
3263.07
3266.81
3274.64
3287.21
3304.68
3327.96
3357.32
3393.65
3437.15
3488.86
3548.11
3616.63
3692.77
3779.92
3874.49
3979.69
4091.21
4216.53
4348.45
4490.52
4644.65
4807.01
4976.96
5158.9
5344.69
5544.35
5742.94
5959.16
6173.63
6401.45
6625.37
6867.32
7101.28
7345.5
7582.98
7837.31
8075.65
8318.14
8560.92
8795.64
9029.64
9256.13
9483.02
9702
9914.24
10114.6
10308.8
10496.3
10672.4
10841.8
11004.6
11155.6
11304.4
11437
11562.8
11677.2
11782.9
11886.1
11970.7
12058.4
12136.7
12216.3
12278.9
12343.7
12397.6
12452.9
12498.3
12547.1
12586.3
12626
12657.9
12692.5
12720.2
12748.4
12767.1
12781.2
12788.3
12797.8
12809.1
12822.9
12837.4
12850.8
12859.6
12866.7
12872.2
12878.3
12884.9
12891.8
12899
12907.2
12916.6
12927.9
12941.3
12956.2
12973
12989.5
13002.8
13007.9
13003.4
12996.5
12979.1
12998.6
13018.4
13029.9
13047.2
13071.8
13094.3
13113.4
13129.9
13144.8
13156.4
13165.6
13173.5
13178.7
13182.7
13183.7
13185.5
13188.1
13191.2
13194.9
13199.3
13204.5
13210.7
13217.7
13225.9
13235.8
13246.7
13258.4
13269.2
13280.1
13289.9
13300.3
13310.5
13320.4
13329.6
13336
13341.1
13340.8
13338.9
13335
13329.7
13322.1
13321.1
13320.9
13321.5
13324.6
13329.4
13337.4
13346.6
13357.1
13367.2
13377.1
13384.8
13392
13395.3
13396.8
13395.5
13393
13387.9
13382.6
13378.4
13376.2
13375
13377.5
13381.4
13387.1
13393.9
13402.2
13410.7
13418.1
13424.1
13426.9
13429.1
13426.8
13424.4
13420
13415.9
13412.4
13409.7
13409.2
13410.1
13412.5
13417.5
13423.9
13430.8
13437.3
13442.9
13447.7
13452.2
13448.7
13445.3
13442.1
13438.8
13435.2
13432.1
13430
13430.3
13431.8
13434.6
13438.5
13443.8
13448.9
13454
13458.7
13459.1
13459.1
13458.1
13455.2
13452.2
13449.4
13446.9
13444.8
13444.7
13445.5
13447.4
13450.2
13454
13458.1
13462.6
13465.6
3493.84
3486.2
3484.99
3473
3474.65
3469.63
3460.92
3447.5
3430.75
3411.65
3392.38
3370.6
3349.88
3329.37
3311.79
3295.36
3282.03
3271.66
3264.52
3260.65
3260.78
3264.73
3272.27
3284.48
3301.42
3324.2
3352.87
3388.63
3431.3
3482.49
3540.86
3608.74
3683.74
3770.58
3864.11
3969.16
4079.1
4204.8
4335.79
4476.09
4631.23
4793.98
4963.65
5146.22
5330.54
5530.18
5727.96
5945.29
6158.57
6385.98
6609.48
6855.05
7086.04
7330.11
7562.6
7830.12
8061.18
8297.01
8547.99
8776.21
9012.14
9234.39
9465.43
9684.3
9899.7
10097.9
10292
10480
10655.4
10826.8
10989.3
11141.6
11292.1
11424.1
11551.3
11664.3
11771.8
11875
11959.2
12048
12127.6
12207.7
12269.4
12334.6
12388.3
12443.7
12489.5
12539.5
12578.9
12619.2
12651.1
12686.1
12712.9
12741.4
12759.8
12774
12782.1
12793.1
12805.1
12819.3
12833.5
12846.2
12855
12862.6
12868.9
12875.6
12882.4
12889.3
12896.7
12905.3
12915
12926.6
12940.1
12954.9
12971.7
12987.2
12998.7
13003.9
12999.4
12995.4
12982.5
12995.3
13016.9
13032.7
13048.6
13071
13092.9
13111.4
13127.7
13142.6
13154.5
13164
13171.8
13177
13181.1
13182.6
13185
13187.6
13190.6
13194.4
13198.9
13204.1
13210.3
13217.5
13225.7
13235.6
13246.3
13257.9
13268.6
13279.4
13289.3
13299.9
13310
13319.8
13328.7
13334.9
13339.7
13339.4
13337.9
13334.2
13329.7
13322.4
13320.7
13321.1
13322
13325.1
13329.8
13337.7
13346.8
13357
13366.8
13376.7
13384.4
13391.3
13394.4
13396.1
13394.7
13392.3
13387.6
13382.7
13378.5
13376.5
13375.5
13377.7
13381.6
13387.3
13394.2
13402.3
13410.4
13417.7
13423.7
13426.5
13428.8
13426.2
13424.1
13419.8
13415.9
13412.5
13409.8
13409.5
13410.5
13412.8
13417.7
13424
13430.8
13437.2
13442.8
13447.4
13451.5
13448.7
13445.3
13442
13438.7
13435.3
13432.3
13430.2
13430.6
13432.1
13434.8
13438.6
13443.8
13448.9
13453.8
13458.4
13459.2
13458.9
13457.9
13455.2
13452.2
13449.5
13447
13445
13444.9
13445.7
13447.5
13450.4
13454.1
13458.1
13462.6
13465.6
3501.19
3487.94
3489.17
3478.44
3475.01
3466.56
3454.36
3439.13
3421.64
3402.93
3381.66
3359.83
3339.71
3320.83
3304.29
3289.46
3277.33
3267.9
3261.47
3258.11
3258.2
3262.15
3269.3
3281.16
3297.54
3319.83
3347.75
3383
3424.81
3475.56
3533
3600.37
3674.29
3761.37
3853.64
3958.17
4066.59
4193.67
4324.69
4463.09
4618.62
4781.28
4950.86
5134.11
5317.18
5515.91
5712.65
5931.54
6140.81
6364.82
6583.53
6838.86
7062.55
7304.32
7527.89
7810.01
8037.06
8261.88
8516.82
8740.47
8976.37
9194.97
9429.84
9648.67
9868.27
10065.3
10257.6
10446.6
10621.1
10795.7
10957.4
11113
11266
11397.9
11528.1
11640
11751.3
11854.1
11939.7
12030.9
12112.6
12194.3
12256.9
12324.4
12377.7
12434.7
12480.2
12533.2
12571.3
12614
12645.2
12681.6
12706.1
12735.4
12752
12768
12776.8
12790.8
12802.2
12816.7
12829.5
12841.5
12850.2
12858.8
12865.8
12873.3
12880.2
12887.3
12895.1
12904.3
12914.1
12926.3
12939.6
12954.3
12971.2
12984.8
12993.9
12998.9
12994.8
12994.9
12986.6
12994.9
13015.9
13035
13051.5
13071.4
13091.3
13109.4
13125.2
13140.5
13152.5
13162.4
13170
13175.3
13179.6
13181.7
13184.8
13187.4
13190.4
13194.2
13198.7
13204.1
13210.3
13217.7
13225.9
13235.7
13246.2
13257.6
13267.9
13279
13288.7
13299.9
13309.6
13319.4
13327.7
13333.6
13338.1
13337.8
13337
13333.3
13329.4
13323.1
13321
13321.4
13322.8
13325.8
13330.5
13338.2
13347.1
13356.9
13366.5
13376.3
13383.8
13390.5
13393.4
13395.5
13393.6
13391.8
13387.4
13382.8
13378.8
13376.9
13376.1
13378.1
13382.1
13387.8
13394.5
13402.4
13410.2
13417.2
13423.1
13426.1
13428.2
13425.8
13423.7
13419.8
13415.9
13412.6
13410.1
13410
13411
13413.3
13417.9
13424.2
13430.9
13437.2
13442.7
13446.9
13450.8
13448.6
13445.2
13441.9
13438.6
13435.3
13432.5
13430.5
13430.9
13432.4
13435.1
13438.9
13443.9
13449
13453.6
13458.2
13459.3
13458.7
13457.7
13455.3
13452.3
13449.5
13447.1
13445.1
13445.1
13445.9
13447.7
13450.6
13454.3
13458.2
13462.6
13465.4
3509.67
3490.3
3494.85
3483.34
3474.94
3462.83
3448.55
3432.29
3414.62
3393.93
3372.03
3350.62
3331.28
3313.6
3298
3284.34
3273.13
3264.47
3258.56
3255.45
3255.32
3259.23
3265.98
3277.44
3293.2
3315.03
3342.15
3376.99
3417.82
3468.31
3525.08
3592.03
3663.95
3751.2
3842.92
3947.78
4054.75
4182.35
4313.17
4450.82
4606.65
4767.78
4937.11
5117.58
5298.35
5493.72
5687.85
5912.75
6114.21
6332.51
6539.19
6809.36
7024.9
7263.45
7472.27
7760.34
7998.09
8207.78
8458.86
8677.41
8916.01
9129.93
9367.53
9587.81
9810.63
10008.8
10198.8
10389.5
10564.3
10743.4
10903.8
11065.4
11219.6
11352.7
11487.2
11599
11715.1
11819
11904.4
12004.2
12082.6
12171.2
12230.2
12308.4
12354.2
12420.1
12460.2
12522.4
12555.3
12604.6
12633.4
12674.9
12695.3
12728.6
12741
12760.5
12771.3
12789.8
12800
12815.2
12825.7
12836.8
12845.5
12855.2
12863.6
12871.3
12878.2
12885.5
12893.8
12903.8
12913.9
12926.4
12939.9
12954.2
12971.4
12981.7
12987.9
12992.5
12991.2
12994.3
12990.1
12997.8
13016.5
13038
13054.8
13072.4
13089.5
13107.4
13122.4
13138.6
13149.9
13160.9
13167.9
13173.5
13178
13180.9
13185
13187.4
13190.4
13194.4
13198.9
13204.4
13210.7
13218.2
13226.4
13236.2
13246.4
13257.4
13267.4
13278.6
13288.3
13300
13309.2
13319
13326.6
13332.4
13336.1
13336
13335.8
13332.5
13329.4
13323.7
13321.6
13322.1
13323.7
13326.9
13331.6
13338.9
13347.5
13357
13366.3
13375.8
13383.1
13389.5
13392.4
13394.6
13392.7
13391.1
13387.2
13383
13379.2
13377.5
13377
13378.8
13382.5
13388.3
13394.9
13402.6
13409.9
13416.7
13422.6
13425.5
13427.4
13425.3
13423.2
13419.7
13416
13412.7
13410.5
13410.5
13411.6
13413.9
13418.3
13424.4
13430.9
13437.1
13442.5
13446.3
13450
13448.4
13445.2
13441.9
13438.6
13435.4
13432.7
13430.9
13431.3
13432.7
13435.5
13439.1
13444
13449
13453.3
13457.8
13459.3
13458.5
13457.5
13455.3
13452.3
13449.6
13447.2
13445.4
13445.4
13446.2
13448
13450.8
13454.4
13458.2
13462.5
13465.3
3518.12
3495.37
3499.03
3486.53
3474.22
3459.64
3443.84
3426.9
3408.23
3385.72
3363.82
3343
3324.43
3307.65
3292.86
3280.08
3269.56
3261.44
3255.78
3252.73
3252.43
3256.11
3262.45
3273.48
3288.55
3309.99
3336.29
3370.83
3410.91
3460.82
3515.99
3583.12
3653.6
3741.3
3832.34
3937.64
4043.43
4170.99
4299.75
4435.74
4591.84
4747.6
4918
5092.33
5269.89
5464.61
5646.83
5883.32
6074.06
6285.7
6473.54
6750.04
6959.92
7200.86
7394.37
7665.84
7932.76
8135.92
8370.04
8582.45
8819.85
9031.9
9268.07
9494.55
9716.23
9919.04
10107.7
10298.6
10476
10660
10821.1
10989.5
11149.4
11280.5
11423.1
11535.5
11659.5
11767.6
11849.8
11969.2
12034.7
12132.6
12192.2
12283.4
12321
12397.1
12432.8
12501.7
12533.1
12586
12616.8
12658.9
12680.6
12713.5
12725
12747.1
12763
12785.2
12796
12811.8
12820.5
12830.6
12839.7
12851
12860.8
12869
12876.1
12884
12893
12903.5
12914.3
12926.9
12940.2
12954.6
12970.7
12977.6
12981
12984.6
12987.6
12993.5
12995
13002
13018.7
13041.4
13058
13072.7
13088.3
13104.9
13119.7
13135.7
13147.4
13158.8
13165.7
13171.5
13176.3
13180.2
13185.2
13187.6
13190.7
13194.7
13199.4
13204.9
13211.3
13218.9
13227.2
13236.8
13246.7
13257.3
13267.1
13278.1
13288.1
13300
13309.1
13318.2
13325.4
13330.9
13334
13334.3
13334.4
13331.8
13329.2
13324.6
13322.5
13323.2
13325
13328.3
13332.8
13339.8
13348.1
13357.1
13366
13375.2
13382.4
13388.5
13391.2
13393.5
13391.8
13390.2
13387
13383.3
13379.9
13378.4
13378.1
13379.7
13383.4
13389
13395.4
13402.9
13409.7
13416.2
13421.9
13424.6
13426.6
13424.7
13422.8
13419.6
13416.1
13413
13411.1
13411.2
13412.3
13414.6
13418.8
13424.7
13431
13436.9
13442.3
13445.6
13449.1
13448.1
13445.1
13441.8
13438.6
13435.5
13433.1
13431.4
13431.8
13433.2
13435.9
13439.5
13444.1
13449
13453
13457.4
13459.3
13458.2
13457.2
13455.3
13452.4
13449.7
13447.4
13445.7
13445.7
13446.5
13448.3
13451.1
13454.6
13458.3
13462.5
13465.1
3524.98
3500.48
3501.96
3488.6
3473.93
3457.54
3440.72
3422.59
3401.67
3378.88
3357
3336.96
3319.05
3302.99
3288.84
3276.7
3266.65
3258.8
3253.18
3250.2
3249.69
3252.95
3258.83
3269.46
3283.77
3305.01
3330.64
3364.56
3402.93
3452.86
3506.64
3574.61
3644.21
3732.37
3822.01
3926.31
4030.53
4157.23
4281.03
4413.79
4576.9
4716.98
4882.3
5059.92
5226.64
5425.18
5586.51
5829.03
6009.35
6224.66
6386.46
6650.4
6856.14
7104.91
7294.46
7530.55
7816.02
8017.13
8237.92
8448.3
8676.21
8901.14
9133.07
9360.22
9574.93
9796.25
9977.55
10181.6
10350.8
10548.7
10707.9
10883.5
11057.2
11180.6
11342.3
11446.5
11585.3
11683.2
11789.6
11921.5
11972.1
12079.6
12142.6
12241.4
12279.7
12361.8
12399.7
12471.1
12507
12561.7
12595.4
12640.1
12659.5
12693.7
12706.9
12731.8
12752
12778.4
12790.1
12806.5
12813.2
12822.3
12831.7
12844.5
12855.8
12865.1
12873.2
12882.1
12892
12903.2
12914.5
12927.4
12940.8
12954.8
12967.9
12971.4
12973.1
12976.7
12983.2
12993.2
13000.3
13008.7
13023.3
13044.3
13060.7
13073.3
13086.8
13102.1
13116.7
13132.4
13144
13156.3
13162.5
13169.3
13174.3
13179.5
13185.4
13187.9
13191.1
13195.2
13200
13205.7
13212.3
13219.9
13228.4
13237.6
13247.1
13257.2
13266.9
13277.7
13288
13300.1
13308.6
13317.6
13323.8
13328.8
13331.7
13332.4
13332.8
13330.9
13329.1
13325.7
13323.7
13324.5
13326.6
13330
13334.5
13341
13348.8
13357.3
13365.9
13374.7
13381.3
13387.1
13389.7
13392.2
13390.7
13389.2
13386.7
13383.8
13380.7
13379.5
13379.3
13380.9
13384.4
13389.8
13396.1
13403.1
13409.4
13415.6
13421
13423.7
13425.7
13424.1
13422.3
13419.5
13416.3
13413.5
13411.8
13412
13413.2
13415.5
13419.5
13425
13431.1
13436.7
13442
13444.8
13448.1
13447.7
13445
13441.8
13438.5
13435.7
13433.4
13431.9
13432.4
13433.8
13436.4
13439.9
13444.3
13448.9
13452.7
13457
13459.1
13457.9
13457
13455.3
13452.5
13449.8
13447.6
13446
13446.1
13446.9
13448.7
13451.4
13454.8
13458.4
13462.4
13464.9
3531.5
3506.16
3504.45
3490.06
3473.47
3456.31
3436.95
3419.38
3396.27
3373.36
3351.71
3332.38
3315.05
3299.57
3285.92
3274.19
3264.37
3256.6
3250.99
3247.94
3247.15
3249.89
3255.26
3265.61
3279.24
3300.11
3324.23
3358.02
3394.82
3445.68
3498.7
3567.02
3635.21
3723.06
3810.23
3911.07
4014.08
4141.06
4256.23
4378.47
4553.83
4676.31
4821.37
5019.34
5165.12
5365.43
5505.39
5741.91
5911.52
6132.45
6276.07
6507.03
6701.63
6948.96
7153.54
7368.84
7630.59
7862.98
8064.39
8276.57
8492.27
8738.61
8943.47
9197.72
9376.94
9639.76
9795.74
10040.6
10185.2
10415.3
10556.2
10751.1
10909.9
11067
11227.9
11342.7
11499
11573.5
11720
11838
11896.8
12017.8
12077.5
12180.3
12226.7
12316.3
12357.6
12432
12471.5
12531.9
12563.7
12612
12632.1
12669.5
12683.9
12713.6
12737.7
12768.9
12782.3
12800.2
12805.3
12814.3
12824.1
12838.6
12850.4
12861.2
12870.4
12880.5
12891.2
12902.8
12914.6
12928
12941
12953.8
12962.8
12963.3
12963.9
12968.5
12978.2
12992.8
13007
13016.3
13028.7
13046.9
13063.1
13073.5
13085.4
13099.3
13113.2
13128.3
13140
13152.9
13159.1
13166.7
13172.1
13178.4
13185.3
13188
13191.6
13195.9
13200.7
13206.6
13213.4
13221.2
13229.6
13238.6
13247.5
13257.1
13266.7
13277.2
13288
13300.1
13307.9
13316.7
13322
13326.5
13329.2
13330.1
13330.9
13329.7
13328.9
13326.9
13325.3
13326.2
13328.4
13331.9
13336.4
13342.4
13349.6
13357.6
13365.6
13374
13380.1
13385.7
13388.2
13390.6
13389.5
13388.3
13386.4
13384.2
13381.7
13380.8
13380.8
13382.2
13385.6
13390.8
13396.8
13403.4
13409.1
13414.9
13420.1
13422.7
13424.6
13423.3
13421.8
13419.3
13416.5
13414
13412.6
13412.9
13414.2
13416.5
13420.3
13425.5
13431.1
13436.5
13441.6
13444
13447
13447.1
13444.8
13441.7
13438.6
13435.9
13433.9
13432.6
13433
13434.4
13437
13440.4
13444.5
13448.9
13452.3
13456.5
13458.9
13457.6
13456.6
13455.2
13452.5
13449.9
13447.9
13446.4
13446.5
13447.3
13449.1
13451.8
13455
13458.4
13462.3
13464.7
3533.53
3511.02
3504.42
3489.51
3472.6
3454.24
3435.11
3415.53
3391.94
3369.11
3347.97
3329.24
3312.39
3297.36
3284.04
3272.52
3262.75
3254.94
3249.32
3246.01
3244.86
3247.1
3251.9
3262.12
3274.35
3295
3317.73
3352.32
3388.4
3439.81
3491.62
3559.3
3625.42
3711.77
3795.08
3888.71
3989.66
4124
4225.91
4325.94
4501.74
4627.26
4746.85
4950.4
5077.63
5278.2
5403.75
5620.31
5768.62
5989.77
6133.63
6338.39
6520.89
6741.17
6957.24
7169.61
7395.89
7655.36
7833.67
8086.18
8264.5
8543.47
8710.39
8992.94
9140.16
9436.88
9583.36
9859.96
9996.44
10253.9
10381.2
10607.2
10728.8
10938.7
11059.3
11234.5
11378
11458.6
11625.9
11716.5
11811.5
11953.5
11995.8
12104.9
12156.6
12258.7
12302.7
12384.4
12424.3
12492.5
12521.5
12575.3
12593.6
12635.3
12654.1
12690.2
12716.4
12752.4
12767.4
12788.7
12792.4
12803.4
12814.6
12830.8
12842
12855.2
12867
12879.1
12891.2
12903.4
12916.4
12930.9
12943.4
12953.5
12957.5
12955.3
12955.9
12962.3
12974.6
12993.4
13012.9
13025.1
13035.7
13050
13064.2
13073.6
13083.8
13095.9
13108.5
13123.2
13134.9
13148.4
13154.9
13163.4
13169.5
13177.2
13184.9
13188.1
13192.1
13196.5
13201.5
13207.6
13214.6
13222.5
13230.9
13239.5
13247.9
13257
13266.4
13276.9
13287.8
13299.8
13307
13315.4
13319.8
13323.8
13326.3
13327.6
13328.8
13328.4
13328.7
13328.1
13327.2
13328.1
13330.4
13334
13338.5
13344.1
13350.6
13357.8
13365.3
13373.2
13378.6
13384
13386.3
13388.8
13388.1
13387.2
13386
13384.7
13382.8
13382.1
13382.4
13383.8
13387.1
13391.9
13397.5
13403.7
13408.7
13414.1
13418.9
13421.5
13423.4
13422.4
13421.2
13419.1
13416.7
13414.6
13413.5
13413.9
13415.3
13417.7
13421.2
13425.9
13431.2
13436.2
13441.2
13443.1
13445.8
13446.4
13444.6
13441.7
13438.6
13436.1
13434.4
13433.3
13433.8
13435.1
13437.7
13440.9
13444.7
13448.8
13452
13455.9
13458.6
13457.2
13456.3
13455.1
13452.6
13450.1
13448.2
13446.8
13447
13447.8
13449.6
13452.2
13455.2
13458.5
13462.2
13464.4
3531.54
3511.31
3503.25
3488.12
3471.22
3452.1
3434.28
3412.45
3388.8
3366.12
3345.69
3327.45
3310.98
3296.29
3283.14
3271.66
3261.8
3253.99
3248.13
3244.48
3242.94
3244.75
3248.58
3258.5
3269.43
3290.66
3312.84
3348.16
3383.27
3434.5
3484.17
3549.28
3612.95
3696.95
3775.87
3857.73
3948.07
4095.2
4192.49
4267.59
4403.69
4568.71
4660.93
4849.63
4961.08
5154.5
5270.3
5468.26
5601.42
5803.42
5946.37
6140.85
6307.68
6512.37
6710.48
6942.24
7121.49
7380.02
7554.89
7851.45
8020.85
8316.68
8450.21
8748.89
8881.85
9184.87
9329.13
9633.75
9766.63
10053.5
10176.7
10432.2
10538.5
10779.5
10885.9
11096.5
11225.6
11365.9
11537.8
11586.7
11730.8
11879.4
11913.5
12035.2
12090.6
12201
12245.8
12338.5
12378.5
12453
12477.9
12537.1
12552.7
12602
12622.4
12667.9
12691.2
12730.7
12745.3
12770.4
12774.8
12789
12800.1
12817.9
12828.2
12844.2
12858.8
12873.7
12887.3
12900.7
12915.4
12930.7
12941.9
12950
12949
12945.3
12948.1
12957.7
12973.4
12995.3
13020.7
13035.5
13045.1
13055
13065.9
13074.9
13083.8
13093.8
13104.8
13118.7
13129.9
13143.7
13150.9
13160.4
13167.2
13175.7
13184
13188.1
13192.7
13197.3
13202.6
13208.8
13216.1
13224
13232.3
13240.3
13248.3
13256.9
13266.1
13276.3
13287.3
13299.3
13305.7
13313.7
13317
13320.6
13323
13324.7
13326.5
13326.9
13328.3
13329.5
13329.2
13330.3
13332.7
13336.4
13340.8
13345.9
13351.6
13358.1
13364.9
13372.1
13376.9
13382
13384.2
13386.8
13386.4
13386
13385.6
13385.2
13384
13383.7
13384.2
13385.6
13388.7
13393.2
13398.3
13404
13408.3
13413.2
13417.6
13420.1
13422
13421.3
13420.5
13418.9
13417
13415.3
13414.6
13415.1
13416.6
13419
13422.3
13426.5
13431.2
13435.9
13440.6
13442.1
13444.6
13445.5
13444.3
13441.7
13438.7
13436.4
13435
13434.1
13434.6
13435.9
13438.4
13441.5
13444.9
13448.8
13451.6
13455.3
13458.1
13456.8
13456
13454.9
13452.6
13450.3
13448.5
13447.3
13447.5
13448.4
13450.1
13452.6
13455.4
13458.5
13462
13464.2
3530.89
3509.92
3501.39
3486.33
3469.58
3451.09
3432.82
3410.18
3386.81
3364.46
3344.78
3326.98
3310.77
3296.3
3283.16
3271.61
3261.63
3253.68
3247.47
3243.49
3241.32
3242.63
3245.3
3255.49
3265.86
3288.05
3309.46
3344.85
3378.25
3428.07
3474.35
3533.73
3594.94
3678.95
3749.18
3822.02
3890.61
4040.03
4134.3
4217.85
4302.19
4472.41
4553.46
4718.81
4815.74
4991.8
5106.96
5281.99
5403.37
5582.49
5724.57
5924.21
6070.51
6272.27
6413.74
6646.31
6765.01
6964.5
7191.05
7458.75
7668
7964.01
8103.18
8421.94
8563.96
8900.06
9034.81
9366.23
9507.52
9827.38
9940.95
10222.8
10332.1
10600
10695.2
10932.9
11024.9
11227.5
11395
11448.6
11618.2
11748.3
11801.7
11942.1
11993.3
12109.5
12157
12263.4
12304.8
12390.3
12415.1
12482.9
12499.2
12555.8
12579.9
12636.6
12660.9
12704.9
12719.7
12750.6
12757.8
12777.4
12787.3
12805.6
12814
12833.3
12850
12867.2
12882.2
12897
12912.6
12927.4
12935.9
12940.5
12936
12931.3
12937.8
12951.1
12969.8
12993.9
13022.7
13044.4
13052.2
13058.6
13067
13075.4
13083.2
13091.9
13101.3
13114.1
13124.5
13138.7
13147
13157.8
13165.8
13175.2
13183.8
13189.5
13194.3
13199.1
13204.5
13210.9
13218.3
13226.1
13234.1
13241.5
13249.1
13257.1
13266.1
13276.1
13286.8
13298.4
13304.1
13311.6
13313.9
13317
13319.4
13321.6
13323.8
13325.4
13328
13330.7
13331.2
13332.7
13335.3
13338.8
13343.2
13347.7
13352.7
13358.4
13364.3
13370.8
13374.9
13379.6
13381.8
13384.5
13384.6
13384.7
13385.2
13385.7
13385.3
13385.3
13386.1
13387.7
13390.6
13394.5
13399.1
13404.2
13407.9
13412.2
13416.1
13418.5
13420.4
13420.2
13419.7
13418.7
13417.3
13416.1
13415.7
13416.3
13417.9
13420.3
13423.4
13427.1
13431.2
13435.5
13439.9
13441.1
13443.2
13444.4
13443.8
13441.6
13438.8
13436.8
13435.7
13435
13435.5
13436.8
13439.2
13442.1
13445.2
13448.6
13451.2
13454.6
13457.5
13456.3
13455.6
13454.7
13452.7
13450.5
13448.9
13447.9
13448.1
13449
13450.6
13453
13455.7
13458.6
13461.8
13463.8
3528.42
3507.33
3498.89
3484.43
3468.2
3450.82
3431.58
3408.83
3385.97
3364.22
3345.2
3327.72
3311.65
3297.3
3284.04
3272.3
3262.2
3253.99
3247.38
3242.9
3239.7
3240.92
3242.96
3254.15
3263.75
3286.46
3306.34
3340.54
3371.02
3417.64
3460.32
3511.54
3565.03
3656.58
3712.7
3789.1
3828.31
3965.08
4041.75
4161.22
4206.58
4345.65
4420.21
4559.51
4651.55
4788.31
4906.38
5053.58
5172.65
5314.93
5428.4
5591.97
5709.27
5894.52
6025.79
6272.54
6422.53
6632.65
6876.04
7079.82
7387.83
7616.97
7788.46
8122.19
8253.08
8597.59
8738.72
9098.73
9240.21
9573.96
9701.7
10013.9
10130
10411
10516.3
10774.8
10875.6
11106
11239.7
11345.9
11539.7
11627.5
11732
11888.5
11929.8
12053.2
12106
12222.2
12257.4
12347.3
12370.3
12444.3
12461.7
12525.9
12553.3
12610.9
12634
12679.8
12687.9
12722.7
12733.7
12760.7
12771.3
12790.9
12798.6
12818.9
12836.5
12856.5
12873.4
12890
12907.1
12921.2
12927.1
12930.8
12922.6
12919.7
12928
12945.5
12968
12993.3