/*--------------------------------*- C++ -*----------------------------------*\
| =========                 |                                                 |
| \\      /  F ield         | OpenFOAM: The Open Source CFD Toolbox           |
|  \\    /   O peration     | Version:  2312                                  |
|   \\  /    A nd           | Website:  www.openfoam.com                      |
|    \\/     M anipulation  |                                                 |
\*---------------------------------------------------------------------------*/
FoamFile
{
    version     2.0;
    format      ascii;
    arch        "LSB;label=32;scalar=64";
    class       surfaceScalarField;
    location    "0.003";
    object      phi;
}
// * * * * * * * * * * * * * * * * * * * * * * * * * * * * * * * * * * * * * //

dimensions      [1 0 -1 0 0 0 0];

oriented        oriented;

internalField   nonuniform List<scalar> 
95760
(
1.45726e-08
-1.45797e-08
1.8994e-08
-4.42847e-09
1.95851e-08
-5.98369e-10
1.85379e-08
1.03977e-09
1.72276e-08
1.30275e-09
1.57107e-08
1.50922e-09
1.4069e-08
1.63401e-09
1.21566e-08
1.90479e-09
9.11388e-09
3.03544e-09
2.40325e-09
6.70445e-09
-8.92205e-09
1.13214e-08
-2.78846e-08
1.89596e-08
-5.39769e-08
2.60905e-08
-7.73502e-08
2.33728e-08
-9.58905e-08
1.85415e-08
-1.1073e-07
1.48418e-08
-1.22424e-07
1.16985e-08
-1.32123e-07
9.70363e-09
-1.40476e-07
8.3572e-09
-1.47874e-07
7.40248e-09
-1.54569e-07
6.69828e-09
-1.60781e-07
6.21386e-09
-1.66576e-07
5.79594e-09
-1.72015e-07
5.43789e-09
-1.77113e-07
5.09704e-09
-1.81868e-07
4.75289e-09
-1.86358e-07
4.48734e-09
-1.90284e-07
3.92266e-09
-1.94022e-07
3.73599e-09
-1.9749e-07
3.46529e-09
-2.00336e-07
2.84396e-09
-2.02689e-07
2.35221e-09
-2.04575e-07
1.88675e-09
-2.05808e-07
1.23432e-09
-2.06558e-07
7.52498e-10
-2.06595e-07
3.99586e-11
-2.06134e-07
-4.56448e-10
-2.04608e-07
-1.52237e-09
-2.02306e-07
-2.3004e-09
-1.99081e-07
-3.22427e-09
-1.94522e-07
-4.56158e-09
-1.8892e-07
-5.60603e-09
-1.8227e-07
-6.65487e-09
-1.74157e-07
-8.11868e-09
-1.64865e-07
-9.29906e-09
-1.54225e-07
-1.06462e-08
-1.42704e-07
-1.15271e-08
-1.29513e-07
-1.31982e-08
-1.14764e-07
-1.47562e-08
-9.82638e-08
-1.6513e-08
-8.10085e-08
-1.72728e-08
-6.18361e-08
-1.91889e-08
-4.11634e-08
-2.06882e-08
-1.82645e-08
-2.28904e-08
5.42047e-09
-2.3659e-08
3.07061e-08
-2.52403e-08
5.80354e-08
-2.72662e-08
8.65643e-08
-2.84688e-08
1.16629e-07
-3.00052e-08
1.47782e-07
-3.11045e-08
1.80064e-07
-3.22506e-08
2.13017e-07
-3.2941e-08
2.4654e-07
-3.35267e-08
2.80634e-07
-3.41058e-08
3.15319e-07
-3.46953e-08
3.50732e-07
-3.54164e-08
3.86501e-07
-3.57654e-08
4.22583e-07
-3.60746e-08
4.5865e-07
-3.60596e-08
4.94475e-07
-3.5821e-08
5.30298e-07
-3.58215e-08
5.65424e-07
-3.51347e-08
6.00607e-07
-3.52011e-08
6.35249e-07
-3.46605e-08
6.6957e-07
-3.43339e-08
7.03433e-07
-3.38693e-08
7.36388e-07
-3.29426e-08
7.69032e-07
-3.26154e-08
8.00672e-07
-3.16106e-08
8.31433e-07
-3.07137e-08
8.60948e-07
-2.94825e-08
8.8993e-07
-2.89617e-08
9.17939e-07
-2.80001e-08
9.45273e-07
-2.73471e-08
9.71553e-07
-2.62924e-08
9.97137e-07
-2.56019e-08
1.02155e-06
-2.44207e-08
1.04521e-06
-2.36648e-08
1.0679e-06
-2.26758e-08
1.08998e-06
-2.20712e-08
1.11099e-06
-2.10119e-08
1.13126e-06
-2.02805e-08
1.1506e-06
-1.93697e-08
1.16935e-06
-1.87822e-08
1.18741e-06
-1.81043e-08
1.20489e-06
-1.75211e-08
1.22145e-06
-1.65984e-08
1.23707e-06
-1.56641e-08
1.2518e-06
-1.47607e-08
1.26577e-06
-1.39788e-08
1.27911e-06
-1.33487e-08
1.29206e-06
-1.29466e-08
1.30448e-06
-1.24189e-08
1.31637e-06
-1.18844e-08
1.32772e-06
-1.13307e-08
1.33851e-06
-1.07808e-08
1.34881e-06
-1.02847e-08
1.35863e-06
-9.82596e-09
1.36804e-06
-9.41551e-09
1.37699e-06
-8.9725e-09
1.38559e-06
-8.61664e-09
1.39379e-06
-8.21466e-09
1.40168e-06
-7.90169e-09
1.40925e-06
-7.57098e-09
1.41657e-06
-7.30819e-09
1.42366e-06
-7.05997e-09
1.43082e-06
-7.12203e-09
1.43744e-06
-6.60559e-09
1.44415e-06
-6.68211e-09
1.44969e-06
-5.49705e-09
1.45707e-06
-7.32779e-09
1.46118e-06
-4.08911e-09
1.46461e-06
-3.41501e-09
1.47015e-06
-5.51855e-09
1.47421e-06
-4.05869e-09
1.47834e-06
-4.13312e-09
1.48293e-06
-4.59261e-09
1.48758e-06
-4.6592e-09
1.49201e-06
-4.43187e-09
1.4963e-06
-4.28634e-09
1.5004e-06
-4.11215e-09
1.50436e-06
-3.96694e-09
1.50816e-06
-3.79512e-09
1.51175e-06
-3.58308e-09
1.51512e-06
-3.36611e-09
1.51826e-06
-3.14598e-09
1.52117e-06
-2.90834e-09
1.52389e-06
-2.71347e-09
1.52642e-06
-2.53884e-09
1.52885e-06
-2.42173e-09
1.53112e-06
-2.27241e-09
1.53331e-06
-2.17922e-09
1.53536e-06
-2.04215e-09
1.53741e-06
-2.04023e-09
1.53925e-06
-1.83918e-09
1.54096e-06
-1.71475e-09
1.54255e-06
-1.60523e-09
1.54397e-06
-1.44093e-09
1.5453e-06
-1.34659e-09
1.54656e-06
-1.28766e-09
1.54768e-06
-1.14751e-09
1.54872e-06
-1.06285e-09
1.54968e-06
-9.94288e-10
1.55058e-06
-9.32896e-10
1.55148e-06
-9.45121e-10
1.55224e-06
-7.75091e-10
1.55294e-06
-7.12e-10
1.55336e-06
-4.37987e-10
1.55366e-06
-3.01775e-10
1.55388e-06
-2.11538e-10
1.55391e-06
-2.11464e-11
1.5539e-06
2.23381e-11
1.55375e-06
1.64473e-10
1.55348e-06
2.92782e-10
1.55323e-06
2.66653e-10
1.55299e-06
2.44375e-10
1.55269e-06
3.06466e-10
1.55242e-06
2.71755e-10
1.55216e-06
2.57207e-10
1.55196e-06
1.99136e-10
1.55181e-06
1.51612e-10
1.55172e-06
8.55078e-11
1.55169e-06
3.04732e-11
1.55159e-06
1.00152e-10
1.55166e-06
-6.59504e-11
1.55138e-06
2.76854e-10
1.55126e-06
1.34635e-10
1.55099e-06
2.79739e-10
1.55062e-06
3.74586e-10
1.55017e-06
4.72754e-10
1.54949e-06
6.94425e-10
1.54887e-06
6.29739e-10
1.54811e-06
7.75096e-10
1.54761e-06
5.17105e-10
1.54697e-06
6.66119e-10
1.54636e-06
6.18782e-10
1.54581e-06
5.71478e-10
1.54529e-06
5.32436e-10
1.54485e-06
4.53166e-10
1.54446e-06
3.93144e-10
1.54412e-06
3.47352e-10
1.54383e-06
2.91984e-10
1.54328e-06
5.59976e-10
1.54301e-06
2.61592e-10
1.54246e-06
5.37604e-10
1.54196e-06
4.91042e-10
1.54126e-06
6.80687e-10
1.54049e-06
7.52255e-10
1.53964e-06
8.33588e-10
1.53879e-06
8.21065e-10
1.53796e-06
8.1717e-10
1.53717e-06
7.73247e-10
1.53643e-06
7.25632e-10
1.53568e-06
7.3475e-10
1.53503e-06
6.41853e-10
1.53443e-06
5.91088e-10
1.53389e-06
5.2239e-10
1.53342e-06
4.56136e-10
1.53272e-06
6.83805e-10
1.53234e-06
3.77427e-10
1.53178e-06
5.53601e-10
1.53109e-06
6.74573e-10
1.53034e-06
7.41579e-10
1.52951e-06
8.21588e-10
1.52861e-06
8.82616e-10
1.52766e-06
9.51396e-10
1.52675e-06
9.00973e-10
1.52584e-06
9.15454e-10
1.52502e-06
8.29941e-10
1.52418e-06
8.3863e-10
1.52341e-06
7.77477e-10
1.52271e-06
7.13926e-10
1.52205e-06
6.68997e-10
1.52136e-06
7.01096e-10
1.5208e-06
5.66239e-10
1.52019e-06
6.13334e-10
1.51943e-06
7.53845e-10
1.51875e-06
6.86806e-10
1.51797e-06
7.87279e-10
1.5171e-06
8.69861e-10
1.51618e-06
9.29283e-10
1.51516e-06
1.0254e-09
1.51418e-06
9.78746e-10
1.51319e-06
9.75126e-10
1.51224e-06
9.36393e-10
1.51136e-06
8.63207e-10
1.51048e-06
8.50286e-10
1.5097e-06
7.56244e-10
1.50896e-06
7.15314e-10
8.0351e-10
1.3134e-08
-2.77205e-08
1.69625e-08
-8.26391e-09
1.81529e-08
-1.79596e-09
1.74254e-08
1.75991e-09
1.5748e-08
2.97265e-09
1.25367e-08
4.71295e-09
7.17263e-09
6.99037e-09
-1.40662e-09
1.04767e-08
-1.47619e-08
1.63844e-08
-3.53946e-08
2.73322e-08
-6.3758e-08
3.96811e-08
-8.90232e-08
4.42218e-08
-1.08039e-07
4.51045e-08
-1.23049e-07
3.8382e-08
-1.34408e-07
2.99014e-08
-1.42713e-07
2.31497e-08
-1.50051e-07
1.90402e-08
-1.56246e-07
1.5903e-08
-1.61519e-07
1.3635e-08
-1.66121e-07
1.20085e-08
-1.70158e-07
1.07395e-08
-1.73796e-07
9.85392e-09
-1.77056e-07
9.05768e-09
-1.7997e-07
8.35263e-09
-1.82547e-07
7.67353e-09
-1.84826e-07
7.03034e-09
-1.8677e-07
6.42955e-09
-1.88468e-07
5.61849e-09
-1.89517e-07
4.7828e-09
-1.90006e-07
3.95119e-09
-1.90109e-07
2.94539e-09
-1.89735e-07
1.9767e-09
-1.88735e-07
8.8705e-10
-1.87056e-07
-4.44056e-10
-1.84739e-07
-1.56233e-09
-1.81756e-07
-2.94069e-09
-1.78008e-07
-4.20105e-09
-1.73202e-07
-6.32572e-09
-1.67482e-07
-8.01834e-09
-1.60765e-07
-9.94048e-09
-1.52741e-07
-1.25874e-08
-1.43522e-07
-1.48279e-08
-1.33177e-07
-1.70038e-08
-1.21438e-07
-1.98629e-08
-1.0848e-07
-2.22623e-08
-9.40061e-08
-2.5126e-08
-7.84179e-08
-2.71222e-08
-6.10426e-08
-3.05811e-08
-4.19961e-08
-3.38113e-08
-2.10349e-08
-3.74871e-08
1.00028e-09
-3.93243e-08
2.50373e-08
-4.32413e-08
5.07119e-08
-4.63768e-08
7.85985e-08
-5.07702e-08
1.07434e-07
-5.24736e-08
1.38078e-07
-5.58474e-08
1.70844e-07
-5.99796e-08
2.0496e-07
-6.25343e-08
2.40652e-07
-6.56478e-08
2.77509e-07
-6.79185e-08
3.15584e-07
-7.02935e-08
3.54384e-07
-7.17245e-08
3.93872e-07
-7.30131e-08
4.34052e-07
-7.42939e-08
4.74953e-07
-7.56067e-08
5.16639e-07
-7.71099e-08
5.58628e-07
-7.77568e-08
6.01014e-07
-7.84614e-08
6.43632e-07
-7.86793e-08
6.85972e-07
-7.81649e-08
7.28478e-07
-7.83371e-08
7.70212e-07
-7.68889e-08
8.11879e-07
-7.6896e-08
8.52925e-07
-7.57353e-08
8.93555e-07
-7.49858e-08
9.33638e-07
-7.39685e-08
9.72766e-07
-7.20589e-08
1.01146e-06
-7.1283e-08
1.04906e-06
-6.91723e-08
1.08578e-06
-6.73733e-08
1.12122e-06
-6.48779e-08
1.15606e-06
-6.37517e-08
1.1898e-06
-6.17011e-08
1.22281e-06
-6.03359e-08
1.25467e-06
-5.81276e-08
1.28573e-06
-5.66434e-08
1.31556e-06
-5.42215e-08
1.34455e-06
-5.26346e-08
1.37247e-06
-5.05624e-08
1.39966e-06
-4.92358e-08
1.4258e-06
-4.7134e-08
1.45115e-06
-4.56448e-08
1.47553e-06
-4.37925e-08
1.49916e-06
-4.24791e-08
1.52191e-06
-4.09421e-08
1.54385e-06
-3.95682e-08
1.56487e-06
-3.77205e-08
1.58505e-06
-3.59322e-08
1.60444e-06
-3.42319e-08
1.62315e-06
-3.27425e-08
1.64123e-06
-3.14482e-08
1.65871e-06
-3.04372e-08
1.67553e-06
-2.92314e-08
1.69175e-06
-2.80743e-08
1.70739e-06
-2.69335e-08
1.72251e-06
-2.58434e-08
1.73713e-06
-2.48539e-08
1.75125e-06
-2.391e-08
1.76491e-06
-2.30417e-08
1.77811e-06
-2.21506e-08
1.79094e-06
-2.14247e-08
1.80339e-06
-2.06326e-08
1.81552e-06
-2.00212e-08
1.82734e-06
-1.93634e-08
1.83883e-06
-1.87883e-08
1.85002e-06
-1.82336e-08
1.86082e-06
-1.79194e-08
1.87087e-06
-1.66845e-08
1.88071e-06
-1.65572e-08
1.88901e-06
-1.38097e-08
1.89996e-06
-1.82915e-08
1.90823e-06
-1.2368e-08
1.91522e-06
-1.04193e-08
1.92404e-06
-1.43011e-08
1.93245e-06
-1.24457e-08
1.94039e-06
-1.2035e-08
1.94838e-06
-1.25486e-08
1.95628e-06
-1.2521e-08
1.96381e-06
-1.19192e-08
1.971e-06
-1.14441e-08
1.97787e-06
-1.09698e-08
1.9845e-06
-1.05927e-08
1.99087e-06
-1.01583e-08
1.99694e-06
-9.64554e-09
2.0027e-06
-9.13398e-09
2.00818e-06
-8.64009e-09
2.01343e-06
-8.17941e-09
2.01856e-06
-7.86227e-09
2.0235e-06
-7.50024e-09
2.02826e-06
-7.20541e-09
2.03286e-06
-6.88674e-09
2.03733e-06
-6.65643e-09
2.04169e-06
-6.39121e-09
2.04594e-06
-6.27878e-09
2.05012e-06
-5.99202e-09
2.05425e-06
-5.81376e-09
2.05829e-06
-5.61996e-09
2.06227e-06
-5.41134e-09
2.06611e-06
-5.17424e-09
2.06983e-06
-5.01421e-09
2.07338e-06
-4.70893e-09
2.07684e-06
-4.5454e-09
2.08021e-06
-4.40337e-09
2.08346e-06
-4.23241e-09
2.08655e-06
-4.08943e-09
2.08943e-06
-3.71076e-09
2.09202e-06
-3.34832e-09
2.09433e-06
-2.79271e-09
2.09628e-06
-2.28549e-09
2.09809e-06
-2.0477e-09
2.09958e-06
-1.52694e-09
2.1015e-06
-1.8898e-09
2.10285e-06
-1.16427e-09
2.10422e-06
-1.06427e-09
2.1057e-06
-1.18635e-09
2.10727e-06
-1.30484e-09
2.10891e-06
-1.30677e-09
2.11053e-06
-1.3325e-09
2.11222e-06
-1.41587e-09
2.11384e-06
-1.40728e-09
2.11541e-06
-1.40463e-09
2.1169e-06
-1.39184e-09
2.11826e-06
-1.31333e-09
2.11948e-06
-1.11106e-09
2.12045e-06
-1.03126e-09
2.12124e-06
-5.05796e-10
2.12175e-06
-3.76853e-10
2.12211e-06
-7.65706e-11
2.12235e-06
1.32269e-10
2.12252e-06
2.96331e-10
2.12263e-06
5.94589e-10
2.12267e-06
5.89065e-10
2.12304e-06
4.19995e-10
2.12332e-06
2.47026e-10
2.12364e-06
3.6562e-10
2.124e-06
2.79272e-10
2.12443e-06
1.72142e-10
2.12491e-06
7.09706e-11
2.12535e-06
4.02207e-11
2.12569e-06
7.80904e-11
2.12591e-06
1.53843e-10
2.126e-06
2.24073e-10
2.1259e-06
6.73363e-10
2.12568e-06
5.07009e-10
2.12528e-06
9.48668e-10
2.12477e-06
1.00096e-09
2.12421e-06
1.24074e-09
2.12356e-06
1.38943e-09
2.12293e-06
1.44876e-09
2.12235e-06
1.37936e-09
2.12183e-06
1.31454e-09
2.12149e-06
1.07782e-09
2.12116e-06
1.03201e-09
2.12084e-06
1.02623e-09
2.12053e-06
9.19055e-10
2.12024e-06
8.64617e-10
2.11983e-06
9.1009e-10
2.11954e-06
7.2803e-10
2.11853e-06
1.67684e-09
2.11786e-06
1.04652e-09
2.11711e-06
1.29654e-09
2.11618e-06
1.59766e-09
2.11515e-06
1.75299e-09
2.11408e-06
1.8792e-09
2.113e-06
1.94964e-09
2.11195e-06
1.98743e-09
2.11098e-06
1.86002e-09
2.11009e-06
1.80244e-09
2.10928e-06
1.63684e-09
2.10854e-06
1.57747e-09
2.10779e-06
1.5346e-09
2.10707e-06
1.44307e-09
2.1064e-06
1.36125e-09
2.10529e-06
1.83201e-09
2.10444e-06
1.43545e-09
2.1035e-06
1.55815e-09
2.1023e-06
1.95542e-09
2.1011e-06
1.88862e-09
2.09988e-06
2.00814e-09
2.0986e-06
2.16064e-09
2.0973e-06
2.24865e-09
2.09597e-06
2.37737e-09
2.09471e-06
2.25281e-09
2.09351e-06
2.18824e-09
2.09236e-06
2.09118e-09
2.09125e-06
1.96176e-09
2.09019e-06
1.88617e-09
2.08913e-06
1.78414e-09
2.08806e-06
1.74808e-09
1.98988e-09
9.45349e-09
-3.71807e-08
1.32203e-08
-1.20377e-08
1.44987e-08
-3.08157e-09
1.30316e-08
3.21959e-09
9.61664e-09
6.38e-09
3.35563e-09
1.09663e-08
-7.25595e-09
1.75946e-08
-2.41035e-08
2.73178e-08
-4.96447e-08
4.19204e-08
-7.56384e-08
5.33215e-08
-9.55332e-08
5.9572e-08
-1.10045e-07
5.87305e-08
-1.19687e-07
5.47442e-08
-1.26154e-07
4.48486e-08
-1.32971e-07
3.67191e-08
-1.39261e-07
2.9442e-08
-1.44361e-07
2.41434e-08
-1.48653e-07
2.01997e-08
-1.52335e-07
1.73219e-08
-1.55609e-07
1.5286e-08
-1.58466e-07
1.35995e-08
-1.60997e-07
1.23878e-08
-1.63216e-07
1.1278e-08
-1.65137e-07
1.0274e-08
-1.66784e-07
9.32047e-09
-1.68058e-07
8.30358e-09
-1.68858e-07
7.22738e-09
-1.69222e-07
5.98036e-09
-1.69183e-07
4.7419e-09
-1.68602e-07
3.36798e-09
-1.67533e-07
1.87399e-09
-1.65838e-07
2.80811e-10
-1.63486e-07
-1.46517e-09
-1.60379e-07
-3.55114e-09
-1.56523e-07
-5.41628e-09
-1.51876e-07
-7.58577e-09
-1.46371e-07
-9.7022e-09
-1.39734e-07
-1.29605e-08
-1.32047e-07
-1.57022e-08
-1.23314e-07
-1.86727e-08
-1.13174e-07
-2.27283e-08
-1.01646e-07
-2.63582e-08
-8.88691e-08
-2.97841e-08
-7.45871e-08
-3.41485e-08
-5.89632e-08
-3.7891e-08
-4.16445e-08
-4.24504e-08
-2.30469e-08
-4.57271e-08
-2.46342e-09
-5.11731e-08
1.99186e-08
-5.62034e-08
4.44376e-08
-6.20202e-08
7.01662e-08
-6.50689e-08
9.8169e-08
-7.12591e-08
1.27905e-07
-7.61264e-08
1.59968e-07
-8.28278e-08
1.92978e-07
-8.54687e-08
2.28116e-07
-9.09572e-08
2.65361e-07
-9.71826e-08
3.03813e-07
-1.00952e-07
3.44064e-07
-1.05863e-07
3.85504e-07
-1.09325e-07
4.28241e-07
-1.13004e-07
4.71623e-07
-1.15089e-07
5.15749e-07
-1.17134e-07
5.60565e-07
-1.19115e-07
6.06139e-07
-1.21186e-07
6.52455e-07
-1.23429e-07
6.98873e-07
-1.24175e-07
7.45674e-07
-1.25266e-07
7.92323e-07
-1.25334e-07
8.38635e-07
-1.24487e-07
8.84835e-07
-1.24555e-07
9.30162e-07
-1.2225e-07
9.75298e-07
-1.22074e-07
1.01961e-06
-1.20085e-07
1.06343e-06
-1.18842e-07
1.10644e-06
-1.17002e-07
1.14847e-06
-1.14081e-07
1.18982e-06
-1.12599e-07
1.22996e-06
-1.09283e-07
1.26912e-06
-1.06476e-07
1.30698e-06
-1.02678e-07
1.34411e-06
-1.00817e-07
1.38002e-06
-9.75499e-08
1.41502e-06
-9.52944e-08
1.44877e-06
-9.18233e-08
1.48159e-06
-8.94153e-08
1.5131e-06
-8.5673e-08
1.54372e-06
-8.3201e-08
1.5732e-06
-7.9988e-08
1.60187e-06
-7.78593e-08
1.62944e-06
-7.46709e-08
1.65624e-06
-7.24448e-08
1.68201e-06
-6.95983e-08
1.70695e-06
-6.75037e-08
1.73086e-06
-6.49663e-08
1.75384e-06
-6.26785e-08
1.77579e-06
-5.98163e-08
1.79694e-06
-5.72228e-08
1.8174e-06
-5.48171e-08
1.83729e-06
-5.27259e-08
1.85659e-06
-5.08118e-08
1.87525e-06
-4.91255e-08
1.89318e-06
-4.71528e-08
1.91046e-06
-4.53284e-08
1.92717e-06
-4.3582e-08
1.94338e-06
-4.1981e-08
1.95914e-06
-4.05331e-08
1.97442e-06
-3.9129e-08
1.98926e-06
-3.78101e-08
2.00367e-06
-3.65011e-08
2.01775e-06
-3.5455e-08
2.03149e-06
-3.43123e-08
2.045e-06
-3.34782e-08
2.05821e-06
-3.2519e-08
2.07112e-06
-3.16635e-08
2.08374e-06
-3.08311e-08
2.09573e-06
-2.99216e-08
2.10686e-06
-2.78651e-08
2.11757e-06
-2.73296e-08
2.12679e-06
-2.31045e-08
2.13818e-06
-2.9741e-08
2.1479e-06
-2.2148e-08
2.15655e-06
-1.91232e-08
2.16613e-06
-2.38794e-08
2.17621e-06
-2.25043e-08
2.186e-06
-2.17828e-08
2.19552e-06
-2.20111e-08
2.20481e-06
-2.17186e-08
2.21365e-06
-2.06835e-08
2.22208e-06
-1.97979e-08
2.23009e-06
-1.89384e-08
2.2378e-06
-1.82712e-08
2.24519e-06
-1.7526e-08
2.25222e-06
-1.66656e-08
2.25888e-06
-1.5803e-08
2.26521e-06
-1.49963e-08
2.27135e-06
-1.43517e-08
2.27741e-06
-1.39482e-08
2.28329e-06
-1.34198e-08
2.289e-06
-1.29567e-08
2.29455e-06
-1.24759e-08
2.3e-06
-1.2133e-08
2.30534e-06
-1.17401e-08
2.31062e-06
-1.15525e-08
2.31581e-06
-1.1152e-08
2.32099e-06
-1.09561e-08
2.32608e-06
-1.06648e-08
2.33113e-06
-1.04107e-08
2.33599e-06
-9.99567e-09
2.34071e-06
-9.70756e-09
2.34522e-06
-9.21243e-09
2.34966e-06
-8.98342e-09
2.35399e-06
-8.76395e-09
2.35817e-06
-8.46431e-09
2.36214e-06
-8.11581e-09
2.36583e-06
-7.47781e-09
2.36914e-06
-6.73093e-09
2.37209e-06
-5.81757e-09
2.37462e-06
-4.87841e-09
2.37696e-06
-4.44011e-09
2.379e-06
-3.59491e-09
2.38145e-06
-4.35193e-09
2.38346e-06
-3.17121e-09
2.38551e-06
-3.1083e-09
2.38771e-06
-3.35302e-09
2.39006e-06
-3.62622e-09
2.39252e-06
-3.73236e-09
2.39503e-06
-3.80644e-09
2.39754e-06
-3.90594e-09
2.40004e-06
-3.87034e-09
2.40242e-06
-3.76046e-09
2.40465e-06
-3.59882e-09
2.4067e-06
-3.34106e-09
2.40854e-06
-2.93311e-09
2.41002e-06
-2.49631e-09
2.41128e-06
-1.75622e-09
2.41222e-06
-1.30826e-09
2.41287e-06
-7.26316e-10
2.41331e-06
-3.21381e-10
2.41375e-06
-1.55622e-10
2.41423e-06
1.0312e-10
2.41468e-06
1.37043e-10
2.4154e-06
-3.04718e-10
2.41609e-06
-4.42004e-10
2.41689e-06
-4.08673e-10
2.41776e-06
-5.72582e-10
2.41869e-06
-7.37944e-10
2.41971e-06
-9.15866e-10
2.42062e-06
-8.387e-10
2.42136e-06
-6.34607e-10
2.42189e-06
-3.42683e-10
2.42221e-06
-6.43214e-11
2.42237e-06
5.52484e-10
2.4222e-06
7.01882e-10
2.42189e-06
1.29199e-09
2.42142e-06
1.48653e-09
2.42094e-06
1.74281e-09
2.4204e-06
1.92999e-09
2.41985e-06
1.98679e-09
2.41941e-06
1.80303e-09
2.4191e-06
1.59796e-09
2.41895e-06
1.19416e-09
2.41885e-06
1.09133e-09
2.41878e-06
1.06177e-09
2.41872e-06
9.44995e-10
2.41859e-06
9.55599e-10
2.41831e-06
1.16337e-09
2.41807e-06
9.39592e-10
2.41712e-06
2.61818e-09
2.4162e-06
1.95204e-09
2.41531e-06
2.18169e-09
2.41427e-06
2.63711e-09
2.41311e-06
2.90425e-09
2.41191e-06
3.06704e-09
2.41073e-06
3.12324e-09
2.40963e-06
3.07116e-09
2.40862e-06
2.84749e-09
2.40772e-06
2.68685e-09
2.40691e-06
2.43305e-09
2.40622e-06
2.25478e-09
2.40552e-06
2.23803e-09
2.40478e-06
2.19695e-09
2.40412e-06
2.05451e-09
2.40288e-06
3.09549e-09
2.40185e-06
2.49574e-09
2.40073e-06
2.68677e-09
2.39929e-06
3.39492e-09
2.39782e-06
3.3593e-09
2.39636e-06
3.47425e-09
2.39484e-06
3.68863e-09
2.39331e-06
3.79453e-09
2.39181e-06
3.9063e-09
2.39039e-06
3.69598e-09
2.38906e-06
3.54708e-09
2.3878e-06
3.37357e-09
2.38659e-06
3.18079e-09
2.38543e-06
3.0318e-09
2.38423e-06
2.96009e-09
2.38301e-06
2.93749e-09
3.37806e-09
5.9543e-09
-4.31417e-08
8.69246e-09
-1.47829e-08
9.27431e-09
-3.67082e-09
5.90803e-09
6.57843e-09
-5.3316e-10
1.28136e-08
-1.12657e-08
2.16915e-08
-2.84205e-08
3.47429e-08
-5.28829e-08
5.1775e-08
-7.53349e-08
6.43677e-08
-9.22484e-08
7.02305e-08
-1.0389e-07
7.12093e-08
-1.11492e-07
6.63293e-08
-1.16585e-07
5.9835e-08
-1.21563e-07
4.98262e-08
-1.26027e-07
4.11831e-08
-1.30046e-07
3.34631e-08
-1.33589e-07
2.76896e-08
-1.3673e-07
2.33449e-08
-1.395e-07
2.00956e-08
-1.41964e-07
1.7754e-08
-1.44129e-07
1.57677e-08
-1.45994e-07
1.42554e-08
-1.47574e-07
1.28599e-08
-1.48859e-07
1.15596e-08
-1.49764e-07
1.02256e-08
-1.50231e-07
8.76975e-09
-1.50296e-07
7.29114e-09
-1.49915e-07
5.5966e-09
-1.49019e-07
3.84361e-09
-1.47495e-07
1.84183e-09
-1.4538e-07
-2.4284e-10
-1.42556e-07
-2.54543e-09
-1.39002e-07
-5.02013e-09
-1.34553e-07
-8.00047e-09
-1.29221e-07
-1.0748e-08
-1.22957e-07
-1.3848e-08
-1.15791e-07
-1.68653e-08
-1.07362e-07
-2.13864e-08
-9.77037e-08
-2.53581e-08
-8.69257e-08
-2.9449e-08
-7.45966e-08
-3.50574e-08
-6.06677e-08
-4.02886e-08
-4.53481e-08
-4.51062e-08
-2.83572e-08
-5.1142e-08
-9.89206e-09
-5.63596e-08
1.04842e-08
-6.28318e-08
3.22927e-08
-6.75434e-08
5.63914e-08
-7.52816e-08
8.24474e-08
-8.22714e-08
1.10947e-07
-9.05364e-08
1.4072e-07
-9.48582e-08
1.73132e-07
-1.03688e-07
2.07418e-07
-1.10429e-07
2.44169e-07
-1.19579e-07
2.81743e-07
-1.23039e-07
3.21847e-07
-1.31048e-07
3.64135e-07
-1.39446e-07
4.07528e-07
-1.44329e-07
4.5292e-07
-1.51237e-07
4.99386e-07
-1.55769e-07
5.47239e-07
-1.60835e-07
5.95537e-07
-1.63371e-07
6.4468e-07
-1.6627e-07
6.94442e-07
-1.6888e-07
7.44951e-07
-1.71695e-07
7.95966e-07
-1.74439e-07
8.46893e-07
-1.751e-07
8.98119e-07
-1.76492e-07
9.48714e-07
-1.75937e-07
9.98915e-07
-1.74703e-07
1.04861e-06
-1.74276e-07
1.0973e-06
-1.70993e-07
1.14562e-06
-1.7045e-07
1.19283e-06
-1.67352e-07
1.23936e-06
-1.65423e-07
1.28474e-06
-1.62408e-07
1.32899e-06
-1.58334e-07
1.37233e-06
-1.55913e-07
1.41424e-06
-1.51152e-07
1.45501e-06
-1.47191e-07
1.49442e-06
-1.4204e-07
1.53292e-06
-1.39244e-07
1.56995e-06
-1.34509e-07
1.6059e-06
-1.31177e-07
1.64042e-06
-1.26257e-07
1.67389e-06
-1.22798e-07
1.70588e-06
-1.1758e-07
1.73695e-06
-1.14187e-07
1.76678e-06
-1.09735e-07
1.79573e-06
-1.06743e-07
1.8235e-06
-1.0239e-07
1.85053e-06
-9.94574e-08
1.87644e-06
-9.55249e-08
1.90143e-06
-9.25764e-08
1.92521e-06
-8.88653e-08
1.94792e-06
-8.55487e-08
1.96949e-06
-8.15611e-08
1.99032e-06
-7.82392e-08
2.01055e-06
-7.52181e-08
2.0303e-06
-7.26266e-08
2.04952e-06
-7.01345e-08
2.06806e-06
-6.77188e-08
2.0858e-06
-6.49077e-08
2.10289e-06
-6.23856e-08
2.1194e-06
-6.00214e-08
2.13546e-06
-5.79493e-08
2.1511e-06
-5.60806e-08
2.16632e-06
-5.42517e-08
2.18109e-06
-5.24971e-08
2.19549e-06
-5.08149e-08
2.20961e-06
-4.94895e-08
2.22344e-06
-4.80454e-08
2.23713e-06
-4.70826e-08
2.25052e-06
-4.58213e-08
2.26369e-06
-4.47641e-08
2.27655e-06
-4.36562e-08
2.28868e-06
-4.20434e-08
2.29983e-06
-3.90803e-08
2.31031e-06
-3.78946e-08
2.31969e-06
-3.25941e-08
2.32992e-06
-4.00877e-08
2.34022e-06
-3.25705e-08
2.34986e-06
-2.88626e-08
2.35931e-06
-3.33773e-08
2.36983e-06
-3.30243e-08
2.38024e-06
-3.2161e-08
2.39027e-06
-3.19653e-08
2.39998e-06
-3.13053e-08
2.40922e-06
-2.98084e-08
2.41804e-06
-2.8496e-08
2.42638e-06
-2.72015e-08
2.43438e-06
-2.62145e-08
2.44203e-06
-2.51305e-08
2.44928e-06
-2.38929e-08
2.45612e-06
-2.26503e-08
2.4626e-06
-2.14973e-08
2.46892e-06
-2.07128e-08
2.47518e-06
-2.02494e-08
2.48128e-06
-1.95724e-08
2.48724e-06
-1.89685e-08
2.49305e-06
-1.83438e-08
2.49879e-06
-1.79255e-08
2.50443e-06
-1.74095e-08
2.51005e-06
-1.7185e-08
2.51561e-06
-1.66938e-08
2.52119e-06
-1.64955e-08
2.52669e-06
-1.60998e-08
2.53213e-06
-1.57865e-08
2.53737e-06
-1.51732e-08
2.54247e-06
-1.47448e-08
2.54733e-06
-1.40307e-08
2.55213e-06
-1.37655e-08
2.55681e-06
-1.34508e-08
2.56132e-06
-1.30207e-08
2.56558e-06
-1.24346e-08
2.56952e-06
-1.15028e-08
2.57302e-06
-1.032e-08
2.57611e-06
-8.99188e-09
2.57875e-06
-7.60791e-09
2.58115e-06
-6.91989e-09
2.58326e-06
-5.7721e-09
2.58572e-06
-6.84537e-09
2.58791e-06
-5.38032e-09
2.59019e-06
-5.37569e-09
2.59261e-06
-5.74513e-09
2.59521e-06
-6.2001e-09
2.598e-06
-6.47502e-09
2.60087e-06
-6.64107e-09
2.60377e-06
-6.76996e-09
2.60666e-06
-6.71306e-09
2.60941e-06
-6.47625e-09
2.61198e-06
-6.13601e-09
2.61435e-06
-5.67902e-09
2.61646e-06
-5.00574e-09
2.61815e-06
-4.16279e-09
2.61959e-06
-3.18386e-09
2.62067e-06
-2.38515e-09
2.62144e-06
-1.49386e-09
2.6219e-06
-7.96425e-10
2.6224e-06
-6.76388e-10
2.623e-06
-5.16983e-10
2.62362e-06
-4.96576e-10
2.62445e-06
-1.14768e-09
2.62534e-06
-1.32791e-09
2.62634e-06
-1.39863e-09
2.62743e-06
-1.64747e-09
2.62862e-06
-1.90758e-09
2.62991e-06
-2.17938e-09
2.63108e-06
-1.97629e-09
2.63205e-06
-1.56704e-09
2.63275e-06
-1.00755e-09
2.63321e-06
-4.78178e-10
2.63344e-06
3.61394e-10
2.6333e-06
8.79602e-10
2.63301e-06
1.62675e-09
2.63253e-06
1.99096e-09
2.63204e-06
2.26105e-09
2.63155e-06
2.4346e-09
2.63101e-06
2.52763e-09
2.63063e-06
2.17373e-09
2.63043e-06
1.78323e-09
2.63036e-06
1.22868e-09
2.63038e-06
1.04075e-09
2.63046e-06
9.40469e-10
2.63051e-06
8.50952e-10
2.6305e-06
9.14989e-10
2.6303e-06
1.31536e-09
2.63005e-06
1.15927e-09
2.62918e-06
3.46645e-09
2.62809e-06
3.03821e-09
2.62708e-06
3.18639e-09
2.62595e-06
3.77162e-09
2.62469e-06
4.16596e-09
2.62338e-06
4.3697e-09
2.6221e-06
4.39074e-09
2.62093e-06
4.22395e-09
2.61988e-06
3.87941e-09
2.61894e-06
3.59664e-09
2.6181e-06
3.24983e-09
2.61743e-06
2.90406e-09
2.61674e-06
2.92181e-09
2.61597e-06
2.9798e-09
2.61528e-06
2.77695e-09
2.61402e-06
4.39177e-09
2.61285e-06
3.69008e-09
2.6116e-06
3.95568e-09
2.61e-06
4.99925e-09
2.60835e-06
5.00561e-09
2.60669e-06
5.13362e-09
2.60498e-06
5.39846e-09
2.60328e-06
5.51689e-09
2.60163e-06
5.57898e-09
2.60009e-06
5.27541e-09
2.59865e-06
5.02792e-09
2.5973e-06
4.76149e-09
2.59601e-06
4.49679e-09
2.59478e-06
4.26708e-09
2.59349e-06
4.23675e-09
2.59216e-06
4.23997e-09
4.91582e-09
3.1037e-09
-4.6252e-08
4.06086e-09
-1.57471e-08
3.73121e-09
-3.34855e-09
-1.99378e-09
1.2296e-08
-1.2441e-08
2.32535e-08
-2.85894e-08
3.78333e-08
-5.0794e-08
5.69421e-08
-7.04463e-08
7.14224e-08
-8.52679e-08
7.91846e-08
-9.57629e-08
8.07209e-08
-1.02451e-07
7.78931e-08
-1.07495e-07
7.13695e-08
-1.1052e-07
6.28573e-08
-1.13451e-07
5.27563e-08
-1.16238e-07
4.39708e-08
-1.19015e-07
3.62414e-08
-1.21627e-07
3.03049e-08
-1.24006e-07
2.57274e-08
-1.26129e-07
2.22225e-08
-1.27983e-07
1.96116e-08
-1.29578e-07
1.7367e-08
-1.30877e-07
1.55565e-08
-1.31874e-07
1.38594e-08
-1.32494e-07
1.218e-08
-1.32727e-07
1.04586e-08
-1.32547e-07
8.58948e-09
-1.31887e-07
6.62995e-09
-1.30671e-07
4.37837e-09
-1.28851e-07
2.02094e-09
-1.26317e-07
-6.94818e-10
-1.23092e-07
-3.47049e-09
-1.19052e-07
-6.58768e-09
-1.14198e-07
-9.87664e-09
-1.08294e-07
-1.39057e-08
-1.01358e-07
-1.76841e-08
-9.33275e-08
-2.18779e-08
-8.43158e-08
-2.58751e-08
-7.38567e-08
-3.18429e-08
-6.19446e-08
-3.72674e-08
-4.88218e-08
-4.25694e-08
-3.3935e-08
-4.99436e-08
-1.718e-08
-5.70443e-08
1.1513e-09
-6.34392e-08
2.13885e-08
-7.13805e-08
4.32275e-08
-7.82005e-08
6.73562e-08
-8.69646e-08
9.31046e-08
-9.32998e-08
1.21645e-07
-1.03833e-07
1.52318e-07
-1.12959e-07
1.85853e-07
-1.2409e-07
2.20724e-07
-1.29747e-07
2.58847e-07
-1.41829e-07
2.98965e-07
-1.50567e-07
3.41854e-07
-1.62471e-07
3.85472e-07
-1.6666e-07
4.32248e-07
-1.77821e-07
4.81326e-07
-1.88514e-07
5.31079e-07
-1.94086e-07
5.83356e-07
-2.03505e-07
6.36308e-07
-2.08705e-07
6.90757e-07
-2.1527e-07
7.45225e-07
-2.17828e-07
8.00507e-07
-2.21547e-07
8.56182e-07
-2.24558e-07
9.12305e-07
-2.27812e-07
9.68697e-07
-2.30815e-07
1.02471e-06
-2.31102e-07
1.08068e-06
-2.32456e-07
1.13567e-06
-2.30944e-07
1.19014e-06
-2.29179e-07
1.24366e-06
-2.27842e-07
1.29596e-06
-2.23359e-07
1.34756e-06
-2.22127e-07
1.39764e-06
-2.17524e-07
1.44672e-06
-2.14571e-07
1.49423e-06
-2.09959e-07
1.54039e-06
-2.04499e-07
1.58529e-06
-2.00794e-07
1.62836e-06
-1.94179e-07
1.67016e-06
-1.88945e-07
1.71043e-06
-1.82263e-07
1.74952e-06
-1.78258e-07
1.78669e-06
-1.71595e-07
1.82257e-06
-1.66967e-07
1.85679e-06
-1.60368e-07
1.88988e-06
-1.55766e-07
1.92132e-06
-1.48898e-07
1.95188e-06
-1.44623e-07
1.98106e-06
-1.38803e-07
2.00932e-06
-1.34903e-07
2.03629e-06
-1.29297e-07
2.06255e-06
-1.25674e-07
2.08751e-06
-1.20485e-07
2.11144e-06
-1.16569e-07
2.13393e-06
-1.1148e-07
2.15527e-06
-1.07056e-07
2.17535e-06
-1.01846e-07
2.19484e-06
-9.79567e-08
2.21381e-06
-9.44113e-08
2.23241e-06
-9.14278e-08
2.25048e-06
-8.83746e-08
2.26784e-06
-8.51738e-08
2.28436e-06
-8.14703e-08
2.30025e-06
-7.82433e-08
2.31557e-06
-7.52689e-08
2.33052e-06
-7.27913e-08
2.3451e-06
-7.0546e-08
2.35929e-06
-6.83372e-08
2.37309e-06
-6.61793e-08
2.38659e-06
-6.42024e-08
2.39988e-06
-6.26636e-08
2.41295e-06
-6.09913e-08
2.42597e-06
-5.99761e-08
2.43869e-06
-5.84192e-08
2.45133e-06
-5.72913e-08
2.46361e-06
-5.58685e-08
2.47504e-06
-5.34587e-08
2.48541e-06
-4.95003e-08
2.49486e-06
-4.7442e-08
2.50375e-06
-4.16141e-08
2.51233e-06
-4.88424e-08
2.52227e-06
-4.26868e-08
2.53197e-06
-3.87306e-08
2.5408e-06
-4.23213e-08
2.551e-06
-4.32485e-08
2.56124e-06
-4.23899e-08
2.57104e-06
-4.16957e-08
2.58048e-06
-4.06032e-08
2.58946e-06
-3.86298e-08
2.59803e-06
-3.69104e-08
2.60609e-06
-3.51381e-08
2.6138e-06
-3.38263e-08
2.62111e-06
-3.23769e-08
2.62801e-06
-3.07493e-08
2.63449e-06
-2.91193e-08
2.64057e-06
-2.76053e-08
2.64655e-06
-2.67319e-08
2.65248e-06
-2.62229e-08
2.65826e-06
-2.54173e-08
2.66394e-06
-2.47168e-08
2.66949e-06
-2.39728e-08
2.67502e-06
-2.35208e-08
2.68045e-06
-2.28932e-08
2.68588e-06
-2.26532e-08
2.69134e-06
-2.21522e-08
2.69685e-06
-2.1972e-08
2.70229e-06
-2.14844e-08
2.70769e-06
-2.10996e-08
2.7129e-06
-2.02925e-08
2.71796e-06
-1.97265e-08
2.72278e-06
-1.87749e-08
2.72757e-06
-1.85121e-08
2.73221e-06
-1.80766e-08
2.73669e-06
-1.75261e-08
2.74088e-06
-1.66727e-08
2.74472e-06
-1.54221e-08
2.74806e-06
-1.3764e-08
2.75095e-06
-1.19801e-08
2.75339e-06
-1.01648e-08
2.75555e-06
-9.18286e-09
2.75748e-06
-7.79069e-09
2.75959e-06
-9.01716e-09
2.76163e-06
-7.45627e-09
2.76383e-06
-7.58662e-09
2.76619e-06
-8.08621e-09
2.76874e-06
-8.71639e-09
2.77154e-06
-9.22238e-09
2.77446e-06
-9.51596e-09
2.77746e-06
-9.71789e-09
2.78043e-06
-9.63684e-09
2.78327e-06
-9.26968e-09
2.78592e-06
-8.73942e-09
2.78835e-06
-8.06587e-09
2.79046e-06
-7.08661e-09
2.79214e-06
-5.80113e-09
2.79355e-06
-4.5785e-09
2.79458e-06
-3.3939e-09
2.79523e-06
-2.14888e-09
2.7956e-06
-1.17358e-09
2.796e-06
-1.09754e-09
2.79651e-06
-1.0565e-09
2.79708e-06
-1.09546e-09
2.79787e-06
-1.95458e-09
2.79875e-06
-2.21728e-09
2.79977e-06
-2.41719e-09
2.80095e-06
-2.8137e-09
2.80221e-06
-3.15567e-09
2.80358e-06
-3.5248e-09
2.80484e-06
-3.20134e-09
2.80588e-06
-2.56287e-09
2.80662e-06
-1.7045e-09
2.80706e-06
-8.83187e-10
2.80727e-06
2.02432e-10
2.80706e-06
1.13565e-09
2.80668e-06
2.04823e-09
2.80613e-06
2.58961e-09
2.80556e-06
2.87198e-09
2.80498e-06
3.03787e-09
2.80441e-06
3.10924e-09
2.80402e-06
2.56943e-09
2.8038e-06
1.98954e-09
2.80374e-06
1.26574e-09
2.80378e-06
9.64162e-10
2.80391e-06
7.67839e-10
2.80399e-06
7.19447e-10
2.804e-06
8.49004e-10
2.80383e-06
1.42662e-09
2.80349e-06
1.46158e-09
2.80263e-06
4.28928e-09
2.80141e-06
4.24684e-09
2.80021e-06
4.38913e-09
2.79896e-06
5.02679e-09
2.79758e-06
5.55111e-09
2.79615e-06
5.80629e-09
2.79476e-06
5.7806e-09
2.79349e-06
5.4797e-09
2.79235e-06
4.99187e-09
2.79134e-06
4.57267e-09
2.79044e-06
4.11433e-09
2.7897e-06
3.60892e-09
2.789e-06
3.61392e-09
2.78817e-06
3.81356e-09
2.78741e-06
3.5688e-09