/*--------------------------------*- C++ -*----------------------------------*\
| =========                 |                                                 |
| \\      /  F ield         | OpenFOAM: The Open Source CFD Toolbox           |
|  \\    /   O peration     | Version:  2312                                  |
|   \\  /    A nd           | Website:  www.openfoam.com                      |
|    \\/     M anipulation  |                                                 |
\*---------------------------------------------------------------------------*/
FoamFile
{
    version     2.0;
    format      ascii;
    arch        "LSB;label=32;scalar=64";
    class       volScalarField;
    location    "0.003";
    object      rho;
}
// * * * * * * * * * * * * * * * * * * * * * * * * * * * * * * * * * * * * * //

dimensions      [1 -3 0 0 0 0 0];

internalField   nonuniform List<scalar> 
48128
(
0.0340769
0.0340674
0.033985
0.0338722
0.033854
0.0338115
0.0337737
0.0337167
0.033661
0.0336217
0.0338173
0.0338653
0.0339316
0.0338482
0.0336505
0.0334636
0.0333363
0.0332562
0.0332277
0.0332509
0.0333247
0.0334444
0.0336106
0.0338253
0.0340915
0.0344106
0.0347867
0.0352407
0.0357546
0.0363394
0.0369967
0.0377281
0.0385344
0.0394246
0.0403887
0.0414399
0.0425744
0.0437996
0.0450948
0.046492
0.0479725
0.0495329
0.0511785
0.0529124
0.0547019
0.0566037
0.058525
0.060594
0.0626681
0.0648688
0.0670663
0.0693972
0.0717217
0.0741454
0.0765514
0.0790474
0.0815503
0.0840539
0.0865821
0.0890947
0.0915991
0.0940746
0.0965242
0.0989407
0.10132
0.103658
0.105944
0.108181
0.110376
0.112474
0.114549
0.116508
0.118434
0.120286
0.122032
0.123755
0.125328
0.126908
0.128342
0.129771
0.131081
0.132398
0.13359
0.134777
0.135862
0.136936
0.137914
0.138883
0.139768
0.14064
0.141439
0.142227
0.142948
0.143655
0.14428
0.144856
0.145351
0.145833
0.146315
0.146801
0.147281
0.147754
0.148173
0.148556
0.148913
0.149257
0.149593
0.149919
0.150235
0.150547
0.150858
0.151176
0.151502
0.151837
0.152177
0.152513
0.152852
0.153069
0.153224
0.153258
0.153282
0.153782
0.153911
0.154064
0.154413
0.154723
0.15503
0.155346
0.155625
0.15587
0.156078
0.156262
0.156436
0.156579
0.156703
0.156789
0.156877
0.156968
0.157061
0.157155
0.157252
0.157351
0.157457
0.157567
0.15769
0.157819
0.157948
0.158084
0.158206
0.158329
0.158433
0.158538
0.158645
0.158747
0.158846
0.158917
0.158982
0.158986
0.158968
0.158932
0.158875
0.158799
0.158793
0.158765
0.158757
0.158772
0.158802
0.158858
0.158925
0.159003
0.159081
0.159157
0.159219
0.159273
0.159301
0.159303
0.159283
0.15925
0.159193
0.159126
0.159069
0.159025
0.158991
0.158995
0.15901
0.159035
0.159074
0.159129
0.159189
0.15924
0.159279
0.159293
0.159294
0.159264
0.159225
0.159169
0.159112
0.159056
0.159004
0.158969
0.158949
0.158942
0.158961
0.158992
0.159028
0.159067
0.159096
0.159126
0.159148
0.159092
0.159055
0.159011
0.158959
0.158903
0.15885
0.158801
0.158778
0.158764
0.158761
0.158771
0.158793
0.158816
0.158846
0.158868
0.15885
0.158838
0.158806
0.15876
0.158715
0.158668
0.15862
0.158572
0.158543
0.158522
0.15851
0.158507
0.158514
0.158522
0.158542
0.158535
0.0340196
0.0340419
0.0339899
0.0339031
0.0338991
0.0338645
0.0338304
0.0337932
0.0338363
0.0339702
0.0342156
0.0343074
0.0343517
0.0343049
0.0342233
0.0341898
0.0340984
0.0340278
0.0339941
0.0340051
0.0340605
0.0341562
0.0342929
0.0344729
0.0346994
0.0349771
0.0353125
0.0356947
0.036148
0.0366759
0.0372708
0.0379476
0.0386945
0.0395266
0.0404331
0.0414259
0.0424994
0.0436678
0.0449114
0.0462566
0.0476856
0.049202
0.050805
0.0525037
0.0542711
0.0561547
0.0580713
0.0601357
0.0622214
0.0644422
0.0666818
0.0690609
0.0714555
0.0739575
0.0764683
0.0790849
0.0817313
0.0843994
0.0870962
0.0897962
0.092506
0.0952069
0.0978993
0.100573
0.103222
0.105841
0.108421
0.110964
0.113465
0.115875
0.118271
0.120559
0.122808
0.124982
0.127049
0.129091
0.130986
0.132885
0.134629
0.136373
0.13799
0.139618
0.141107
0.142596
0.143969
0.145336
0.14659
0.14784
0.14899
0.15013
0.151184
0.15223
0.153199
0.154151
0.155011
0.155815
0.156533
0.157239
0.157944
0.158653
0.159352
0.160042
0.16067
0.161259
0.161819
0.162366
0.162903
0.163426
0.163937
0.164441
0.164941
0.165447
0.165956
0.166472
0.16699
0.167495
0.167997
0.168366
0.168664
0.168841
0.169003
0.169677
0.169966
0.170265
0.170755
0.171221
0.171668
0.172116
0.172524
0.172892
0.173219
0.173516
0.173802
0.174051
0.174281
0.174468
0.174659
0.174852
0.175047
0.175239
0.175433
0.175628
0.175826
0.176031
0.176242
0.176464
0.176695
0.176928
0.177149
0.177366
0.177566
0.177763
0.17796
0.178149
0.178332
0.178485
0.178623
0.178695
0.178742
0.17877
0.178772
0.178766
0.178826
0.178858
0.178923
0.178996
0.179099
0.179215
0.179345
0.179486
0.17962
0.179754
0.179863
0.179967
0.180029
0.180064
0.180071
0.180062
0.180025
0.179984
0.179952
0.179931
0.179927
0.17996
0.180004
0.180058
0.180127
0.180211
0.180299
0.180373
0.180431
0.180457
0.180471
0.180448
0.180413
0.18036
0.180303
0.180251
0.180203
0.180174
0.180161
0.180162
0.18019
0.180229
0.180272
0.180314
0.180345
0.180373
0.180388
0.180321
0.180274
0.180221
0.180159
0.180092
0.180029
0.179971
0.179942
0.179922
0.179915
0.179919
0.179937
0.179953
0.179976
0.179984
0.17995
0.179924
0.179872
0.179808
0.179744
0.17968
0.179615
0.179551
0.179508
0.179474
0.17945
0.179434
0.179427
0.179422
0.179424
0.179385
0.0340609
0.0340541
0.0339973
0.0339026
0.0338933
0.0338437
0.0338055
0.0338459
0.0340179
0.0342875
0.0344247
0.0344695
0.0344958
0.0344823
0.0343006
0.0340848
0.0339474
0.0338666
0.0338254
0.0338262
0.0338675
0.033947
0.0340659
0.0342277
0.0344378
0.0346992
0.0350183
0.0353943
0.0358344
0.0363435
0.0369174
0.0375726
0.0382988
0.039113
0.0400035
0.0409823
0.0420414
0.043199
0.0444343
0.0457729
0.0472058
0.0487314
0.0503484
0.0520706
0.0538682
0.0557907
0.0577528
0.059872
0.0620215
0.0643163
0.0666389
0.0691147
0.0716146
0.074236
0.0768724
0.0796164
0.082381
0.0851864
0.0880491
0.0909248
0.0938197
0.0967132
0.0996062
0.102487
0.105347
0.108177
0.11097
0.113726
0.116444
0.119069
0.121678
0.124168
0.126624
0.128992
0.131253
0.133478
0.135554
0.137631
0.139537
0.141447
0.143219
0.145007
0.146636
0.148267
0.149764
0.15126
0.15263
0.153998
0.155257
0.156504
0.157658
0.158806
0.159869
0.160915
0.16186
0.16274
0.16353
0.164307
0.165084
0.165865
0.166639
0.167402
0.168101
0.168757
0.169385
0.169999
0.170604
0.171195
0.171773
0.172344
0.172912
0.173487
0.174065
0.17465
0.175238
0.175812
0.176378
0.176804
0.177148
0.177382
0.177575
0.17828
0.178664
0.179024
0.179558
0.180105
0.180626
0.181137
0.181604
0.182032
0.182415
0.182764
0.183098
0.183394
0.183668
0.183898
0.18413
0.184365
0.184603
0.184838
0.185075
0.185313
0.185555
0.185802
0.186059
0.186326
0.186601
0.186878
0.187143
0.187404
0.187646
0.187884
0.188121
0.188349
0.18857
0.188757
0.188928
0.189028
0.189103
0.189156
0.189183
0.1892
0.189287
0.18935
0.189447
0.189551
0.189688
0.189837
0.190004
0.190176
0.190343
0.190509
0.190644
0.190777
0.190861
0.190917
0.190941
0.190948
0.190925
0.190894
0.190878
0.190871
0.190887
0.190932
0.190993
0.191065
0.191152
0.191255
0.191362
0.191451
0.191524
0.19156
0.191587
0.191567
0.191536
0.191486
0.191437
0.191386
0.191341
0.191318
0.191311
0.191318
0.191353
0.191399
0.19145
0.191497
0.191531
0.19156
0.191575
0.191505
0.191452
0.191395
0.191328
0.191256
0.191188
0.191126
0.191094
0.191072
0.191062
0.191065
0.191083
0.191096
0.191117
0.191123
0.191081
0.191046
0.190986
0.190911
0.190837
0.190761
0.190687
0.190614
0.190564
0.190524
0.190493
0.190471
0.190458
0.190447
0.190441
0.190386
0.0340673
0.0340273
0.0339743
0.0338784
0.0338641
0.0338229
0.0338727
0.0341028
0.0343836
0.034525
0.0345643
0.0345415
0.0344535
0.0342587
0.0341003
0.033944
0.0338174
0.0337283
0.0336753
0.0336616
0.0336882
0.0337522
0.0338551
0.0340023
0.0341965
0.0344401
0.0347383
0.0350947
0.0355148
0.036004
0.0365609
0.0371991
0.0379085
0.0387088
0.0395839
0.0405515
0.0415954
0.0427492
0.0439808
0.0453185
0.0467599
0.0482965
0.0499297
0.0516799
0.053509
0.0554736
0.0574831
0.0596652
0.0618913
0.0642731
0.0666903
0.0692819
0.0719043
0.0746666
0.0774489
0.0803662
0.0833134
0.0863076
0.0893669
0.0924438
0.0955454
0.0986515
0.101764
0.10487
0.107957
0.111014
0.114023
0.117
0.119927
0.122759
0.125571
0.128249
0.130904
0.133442
0.135881
0.138259
0.140488
0.142714
0.144746
0.146784
0.148675
0.150586
0.152314
0.154043
0.155625
0.157204
0.158646
0.160086
0.161407
0.162714
0.163919
0.16512
0.166228
0.167319
0.168297
0.169203
0.170012
0.170806
0.171602
0.172404
0.173198
0.173979
0.174693
0.175365
0.176008
0.176637
0.177258
0.177863
0.178459
0.179046
0.17963
0.180222
0.180819
0.181425
0.182032
0.182628
0.183206
0.183646
0.183992
0.184248
0.184441
0.185092
0.185542
0.18593
0.186463
0.187045
0.187597
0.188125
0.188611
0.189062
0.189466
0.189834
0.190184
0.190494
0.190782
0.191024
0.191268
0.191514
0.191763
0.192011
0.19226
0.192512
0.192768
0.193029
0.193303
0.193586
0.193879
0.194175
0.194458
0.194736
0.194995
0.195251
0.195505
0.195749
0.195984
0.196182
0.196364
0.196472
0.196554
0.196614
0.196648
0.196667
0.19676
0.196836
0.196943
0.197059
0.197208
0.197372
0.197555
0.197743
0.197925
0.198106
0.198254
0.1984
0.198493
0.198559
0.198591
0.198604
0.198586
0.198559
0.198547
0.198547
0.19857
0.198621
0.198689
0.19877
0.198865
0.198977
0.199094
0.199192
0.199273
0.199314
0.199347
0.199329
0.199299
0.19925
0.199203
0.199155
0.19911
0.199089
0.199085
0.199096
0.199134
0.199184
0.199238
0.199287
0.199324
0.199352
0.199367
0.199298
0.199237
0.199176
0.199106
0.199031
0.198958
0.198893
0.198858
0.198834
0.198822
0.198822
0.198839
0.19885
0.198868
0.198873
0.198828
0.198786
0.19872
0.198638
0.198555
0.198472
0.19839
0.19831
0.198254
0.198209
0.198174
0.198148
0.198131
0.198115
0.198105
0.198039
0.0340873
0.0340019
0.0339486
0.0338528
0.0338564
0.0338804
0.0341002
0.0343907
0.0345728
0.0345955
0.0345502
0.0344168
0.0342819
0.0340903
0.0339271
0.0337641
0.0336402
0.0335506
0.033495
0.0334753
0.0334935
0.0335478
0.0336405
0.0337761
0.0339562
0.0341852
0.0344679
0.034809
0.0352142
0.0356894
0.0362327
0.0368585
0.0375559
0.038349
0.0392158
0.0401815
0.0412202
0.0423824
0.0436216
0.0449728
0.0464415
0.0480074
0.0496753
0.0514783
0.0533691
0.0554132
0.0575046
0.0597927
0.0621365
0.0646539
0.0672083
0.0699787
0.0727819
0.0757477
0.0787313
0.0818939
0.0850792
0.0883273
0.0916509
0.0949949
0.0983689
0.101747
0.105142
0.108526
0.111889
0.115212
0.118474
0.121707
0.124857
0.12792
0.130952
0.133827
0.136692
0.139396
0.14201
0.144528
0.146894
0.149251
0.151384
0.153521
0.155502
0.157503
0.15929
0.161075
0.162697
0.164315
0.165784
0.167256
0.168595
0.169922
0.171134
0.172349
0.173454
0.174545
0.175505
0.17639
0.177175
0.177943
0.178717
0.179495
0.180266
0.181022
0.181708
0.182354
0.182971
0.183575
0.184173
0.184755
0.18533
0.185896
0.186463
0.187039
0.187621
0.188214
0.188808
0.189394
0.189951
0.190374
0.19069
0.190945
0.191117
0.191677
0.192167
0.192561
0.193072
0.193647
0.194198
0.194716
0.195194
0.195643
0.196044
0.196409
0.196752
0.197055
0.197334
0.197568
0.197804
0.198042
0.198282
0.198522
0.198764
0.199009
0.19926
0.199516
0.199786
0.200068
0.200359
0.200656
0.200939
0.201219
0.20148
0.201737
0.201992
0.202237
0.20247
0.202666
0.202844
0.202945
0.203023
0.203076
0.203108
0.203117
0.203201
0.203278
0.203381
0.203497
0.203646
0.203811
0.203997
0.204189
0.204374
0.204559
0.20471
0.204857
0.204951
0.205017
0.205048
0.20506
0.205041
0.205012
0.204996
0.204996
0.205017
0.205067
0.205135
0.205218
0.205316
0.20543
0.205548
0.205649
0.205731
0.205773
0.205805
0.205786
0.205754
0.205704
0.205653
0.205603
0.205556
0.205536
0.205532
0.205542
0.20558
0.20563
0.205685
0.205734
0.20577
0.205793
0.205807
0.205737
0.205669
0.205602
0.205528
0.205448
0.205371
0.205302
0.205264
0.205235
0.20522
0.205216
0.205229
0.205239
0.20525
0.205254
0.205207
0.205158
0.205087
0.204999
0.204908
0.204817
0.204727
0.20464
0.204579
0.204528
0.204488
0.204458
0.204437
0.204417
0.204402
0.204328
0.0341093
0.0340025
0.0339479
0.0338571
0.0339064
0.0340697
0.0343535
0.0345641
0.0346182
0.0345635
0.0344349
0.0342831
0.0341068
0.0339104
0.033746
0.0335916
0.0334707
0.033381
0.0333237
0.0332989
0.0333098
0.0333562
0.0334392
0.0335635
0.0337298
0.0339456
0.0342141
0.0345429
0.0349349
0.0353995
0.0359321
0.0365499
0.0372387
0.0380318
0.0388965
0.0398692
0.0409108
0.0420959
0.0433566
0.0447364
0.0462568
0.0478837
0.0496187
0.0515093
0.0534879
0.0556518
0.0578722
0.0603316
0.0628592
0.0655929
0.0683692
0.0714156
0.0744864
0.0777541
0.081042
0.0845857
0.0880873
0.0916971
0.0954108
0.0991128
0.102871
0.106614
0.110391
0.114142
0.117854
0.121512
0.125087
0.128631
0.132042
0.135369
0.138645
0.141725
0.144809
0.147664
0.150437
0.153064
0.155537
0.157983
0.160166
0.162353
0.164362
0.166388
0.16816
0.169944
0.171545
0.173151
0.174591
0.176047
0.177346
0.178642
0.179808
0.180985
0.182031
0.183072
0.18396
0.184777
0.185492
0.186198
0.18691
0.187622
0.188324
0.189006
0.189619
0.190199
0.190753
0.191295
0.191833
0.192355
0.192874
0.193384
0.1939
0.194425
0.19496
0.195507
0.196058
0.1966
0.1971
0.197474
0.197731
0.19796
0.198098
0.198541
0.199034
0.199416
0.199881
0.200415
0.200935
0.201417
0.201864
0.20229
0.202665
0.203007
0.203323
0.203597
0.203848
0.204057
0.204266
0.204477
0.20469
0.204904
0.205121
0.205342
0.205571
0.205804
0.206055
0.206317
0.20659
0.206872
0.207138
0.207405
0.207653
0.207901
0.208142
0.208375
0.208594
0.208773
0.208933
0.209018
0.20908
0.209116
0.209135
0.209124
0.209186
0.209256
0.209345
0.209449
0.209587
0.209743
0.20992
0.210105
0.210284
0.210462
0.210607
0.210746
0.21083
0.21089
0.210912
0.210914
0.210886
0.21085
0.210823
0.210816
0.210827
0.21087
0.21093
0.211011
0.211105
0.211214
0.211326
0.211422
0.2115
0.211537
0.211561
0.211537
0.211499
0.211442
0.211385
0.211329
0.211276
0.211254
0.211245
0.21125
0.211283
0.21133
0.211382
0.211426
0.211458
0.211474
0.211481
0.21141
0.211333
0.211257
0.211176
0.211091
0.211008
0.210933
0.210889
0.210855
0.210834
0.210824
0.210831
0.210836
0.21084
0.21084
0.21079
0.210732
0.210656
0.210561
0.210462
0.210362
0.210265
0.21017
0.210102
0.210045
0.209999
0.209964
0.209938
0.209912
0.209892
0.209808
0.0341523
0.0340201
0.0339756
0.033906
0.0340527
0.034297
0.0345281
0.034619
0.0345863
0.0344698
0.0343187
0.0341251
0.0339319
0.0337397
0.0335758
0.0334281
0.0333104
0.0332212
0.0331626
0.0331339
0.033138
0.0331781
0.0332505
0.0333637
0.0335177
0.0337224
0.0339788
0.034298
0.0346791
0.0351378
0.0356631
0.036279
0.0369647
0.0377674
0.0386396
0.0396338
0.0406916
0.0419216
0.0432259
0.0446535
0.0462641
0.0479935
0.0498427
0.0518768
0.0540055
0.056364
0.0587993
0.0615308
0.0643434
0.0674098
0.0705438
0.0740225
0.0774927
0.0812135
0.0849619
0.0890952
0.0930228
0.0971229
0.101429
0.105619
0.109903
0.11416
0.118446
0.122697
0.126887
0.130989
0.134962
0.138907
0.142643
0.146287
0.149824
0.153114
0.156413
0.15938
0.162282
0.164953
0.167481
0.169936
0.17209
0.174247
0.176193
0.178147
0.179803
0.181496
0.18298
0.184478
0.185796
0.187146
0.188309
0.18948
0.190505
0.191553
0.19245
0.193364
0.194104
0.19479
0.195376
0.195967
0.196559
0.197148
0.197721
0.198272
0.198762
0.19923
0.199678
0.200119
0.200556
0.200976
0.201399
0.201816
0.202246
0.202685
0.20314
0.203605
0.204085
0.204543
0.204947
0.205238
0.205412
0.205591
0.205674
0.205993
0.20643
0.206795
0.207189
0.207645
0.208106
0.208531
0.208923
0.209304
0.209632
0.209929
0.210195
0.210421
0.210624
0.210789
0.210954
0.21112
0.211287
0.211456
0.211631
0.21181
0.212
0.212196
0.212409
0.212635
0.212874
0.213124
0.213359
0.213598
0.213821
0.214046
0.214259
0.214468
0.214657
0.214807
0.214938
0.214994
0.215029
0.215038
0.215037
0.214995
0.215021
0.215074
0.215139
0.215222
0.215336
0.215475
0.215634
0.2158
0.215962
0.216125
0.216253
0.216373
0.21644
0.216484
0.21649
0.216472
0.21643
0.21638
0.216336
0.216313
0.216309
0.216337
0.216385
0.216454
0.216536
0.216633
0.216732
0.216816
0.216884
0.21691
0.216921
0.216883
0.216836
0.216769
0.2167
0.216633
0.216571
0.216541
0.216523
0.216519
0.216543
0.216582
0.216625
0.21666
0.216685
0.21669
0.216686
0.216609
0.216521
0.216433
0.216343
0.216249
0.216157
0.216074
0.216022
0.21598
0.215951
0.215933
0.21593
0.215929
0.215922
0.215916
0.215862
0.215792
0.215708
0.215606
0.215497
0.215388
0.21528
0.215177
0.215101
0.215035
0.214982
0.21494
0.214907
0.214875
0.214848
0.214753
0.0342224
0.034059
0.0340593
0.0340567
0.0342472
0.034483
0.0346067
0.0346077
0.0345166
0.034371
0.0341794
0.0339704
0.0337708
0.0335842
0.0334213
0.0332795
0.0331643
0.0330756
0.0330155
0.0329838
0.0329809
0.033014
0.0330761
0.03318
0.0333235
0.0335194
0.0337658
0.0340788
0.0344526
0.0349107
0.0354338
0.0360558
0.0367477
0.0375758
0.0384665
0.0394947
0.0405912
0.0419015
0.0432933
0.0448112
0.0465609
0.0484571
0.0504986
0.0527676
0.05515
0.0578159
0.060595
0.0637483
0.0669733
0.0705081
0.0741583
0.0782993
0.0823032
0.0866459
0.0910389
0.0959403
0.10049
0.105275
0.110283
0.115176
0.120116
0.125077
0.130004
0.134914
0.139711
0.144372
0.148815
0.153241
0.157344
0.161377
0.165188
0.168728
0.172252
0.175301
0.178325
0.180965
0.183526
0.185893
0.187961
0.189993
0.191825
0.193598
0.195075
0.196547
0.197802
0.199054
0.200129
0.201243
0.202139
0.203069
0.203827
0.204627
0.205253
0.205927
0.206404
0.206874
0.20724
0.207635
0.208001
0.208389
0.208751
0.209104
0.209408
0.20971
0.21
0.210288
0.210571
0.210841
0.211126
0.211409
0.21171
0.212029
0.212362
0.212712
0.213084
0.21341
0.213674
0.213846
0.213917
0.214026
0.214031
0.214216
0.214545
0.214873
0.215181
0.21553
0.215889
0.216237
0.216549
0.216865
0.21712
0.217356
0.217549
0.217707
0.217842
0.217947
0.218053
0.218151
0.218254
0.218362
0.218477
0.2186
0.218733
0.218877
0.219036
0.219212
0.2194
0.219601
0.219789
0.219987
0.220168
0.220359
0.220531
0.2207
0.220846
0.220956
0.221041
0.221061
0.221057
0.221026
0.220988
0.220915
0.2209
0.220917
0.220952
0.221003
0.221083
0.221194
0.221323
0.221463
0.221597
0.221734
0.221835
0.221927
0.22197
0.221989
0.221967
0.221926
0.221864
0.221791
0.221721
0.221677
0.221652
0.221658
0.221686
0.221736
0.221799
0.221877
0.221954
0.22202
0.222069
0.222081
0.22207
0.222016
0.221952
0.221871
0.221785
0.221702
0.221626
0.221583
0.221551
0.221534
0.221543
0.221569
0.221599
0.221621
0.221634
0.221621
0.221605
0.221517
0.221415
0.221313
0.22121
0.221103
0.221001
0.220907
0.220843
0.220789
0.22075
0.220721
0.220705
0.220694
0.220673
0.220657
0.220597
0.220513
0.22042
0.220309
0.220188
0.220066
0.219948
0.219834
0.219748
0.219672
0.219609
0.219558
0.219517
0.219477
0.219441
0.219333
0.0343049
0.0341233
0.0341896
0.0342466
0.0344457
0.0345904
0.0346274
0.0345672
0.0344392
0.0342552
0.0340433
0.0338282
0.0336279
0.033446
0.0332862
0.033148
0.0330345
0.0329464
0.0328846
0.0328489
0.0328387
0.0328661
0.0329197
0.0330158
0.0331506
0.0333408
0.0335799
0.033892
0.0342624
0.034728
0.0352597
0.0358981
0.0365996
0.0374684
0.0384081
0.0395086
0.0406831
0.042115
0.0436576
0.0453529
0.0473296
0.0494809
0.0518108
0.0544054
0.0571682
0.0602756
0.0635597
0.0673426
0.0711119
0.0752717
0.0796007
0.0846234
0.0893172
0.094434
0.0996059
0.105377
0.110888
0.116487
0.122285
0.128059
0.133779
0.139534
0.145177
0.150838
0.156296
0.161537
0.16646
0.171345
0.175802
0.180213
0.184184
0.188031
0.191649
0.194811
0.197906
0.200489
0.203096
0.205303
0.207314
0.209212
0.210889
0.212451
0.213709
0.214958
0.215904
0.216872
0.217621
0.218448
0.219006
0.219626
0.220045
0.220516
0.220777
0.221108
0.221228
0.221354
0.221412
0.221514
0.221557
0.221645
0.221705
0.221766
0.221819
0.221873
0.221937
0.221997
0.222063
0.222128
0.222223
0.222329
0.222456
0.222608
0.222777
0.222967
0.223187
0.223333
0.223407
0.223437
0.223392
0.223367
0.223283
0.223346
0.22354
0.22377
0.223971
0.224184
0.224414
0.224654
0.224866
0.225091
0.225249
0.225407
0.225501
0.225573
0.225621
0.225647
0.225678
0.225691
0.225711
0.22574
0.225779
0.225829
0.225889
0.225965
0.226055
0.226164
0.226287
0.226421
0.226549
0.22669
0.226814
0.226962
0.227077
0.227195
0.227283
0.227339
0.227365
0.227335
0.227281
0.227207
0.227118
0.227004
0.226938
0.22691
0.226901
0.226912
0.226952
0.227023
0.227112
0.227213
0.22731
0.227411
0.227477
0.22753
0.22754
0.227526
0.227468
0.227397
0.227307
0.227205
0.227105
0.227032
0.226979
0.226955
0.226953
0.226979
0.227016
0.227067
0.227116
0.227156
0.227182
0.22717
0.227134
0.227058
0.226972
0.22687
0.226763
0.226658
0.226564
0.226503
0.226452
0.226416
0.226406
0.226414
0.226426
0.22643
0.226427
0.22639
0.226359
0.226254
0.226137
0.226017
0.225896
0.225774
0.225657
0.225549
0.225471
0.225402
0.225348
0.225305
0.225274
0.225248
0.22521
0.225182
0.225111
0.225012
0.224906
0.224784
0.224649
0.224514
0.224382
0.224256
0.224157
0.224068
0.223994
0.223932
0.22388
0.223829
0.223782
0.223659
0.0343888
0.0342247
0.0343286
0.0344351
0.0345813
0.0346448
0.034616
0.0345114
0.0343557
0.0341401
0.0339196
0.0337024
0.0335049
0.0333271
0.0331703
0.033035
0.0329228
0.0328346
0.0327702
0.0327304
0.0327148
0.0327369
0.0327838
0.0328745
0.0330027
0.0331916
0.0334277
0.0337456
0.034122
0.0346008
0.0351435
0.0358203
0.0365603
0.0375033
0.0385335
0.0397611
0.0410791
0.042705
0.0444715
0.0464385
0.0487493
0.0512376
0.0539777
0.0570181
0.0603209
0.0640516
0.0679438
0.0725624
0.0770019
0.0819391
0.0870931
0.0930375
0.0986373
0.104705
0.110652
0.117272
0.124046
0.130452
0.136855
0.143414
0.149812
0.15622
0.162513
0.168777
0.174788
0.180407
0.185713
0.190756
0.195506
0.200087
0.204145
0.20825
0.211844
0.215159
0.218193
0.220813
0.223442
0.225538
0.227524
0.229442
0.2309
0.232329
0.23348
0.234688
0.235336
0.23619
0.23665
0.237329
0.237595
0.237992
0.23814
0.238331
0.238295
0.238318
0.238086
0.237915
0.237678
0.237493
0.237187
0.236937
0.23663
0.236338
0.236069
0.235821
0.235589
0.235352
0.23514
0.234945
0.234793
0.23466
0.234566
0.234498
0.234459
0.23445
0.23447
0.23438
0.234225
0.234071
0.233895
0.233735
0.233544
0.233439
0.233466
0.233574
0.233635
0.233677
0.23376
0.233857
0.233947
0.23405
0.2341
0.234147
0.234132
0.234094
0.234037
0.233966
0.233904
0.233814
0.233735
0.233667
0.233613
0.233571
0.233544
0.233534
0.233542
0.233568
0.233611
0.233662
0.233716
0.233784
0.233842
0.233928
0.233977
0.234025
0.234045
0.234034
0.233988
0.233897
0.233786
0.233654
0.233507
0.233344
0.233217
0.233133
0.233072
0.233033
0.233019
0.23304
0.23308
0.233133
0.233182
0.233236
0.23326
0.233269
0.233231
0.233176
0.233078
0.232968
0.232842
0.232706
0.232569
0.232461
0.232372
0.23231
0.232275
0.232266
0.23227
0.232289
0.2323
0.232309
0.232305
0.23226
0.232196
0.232092
0.231978
0.23185
0.231717
0.231586
0.231468
0.231383
0.231309
0.23125
0.231215
0.2312
0.231189
0.231169
0.231145
0.231082
0.231029
0.230904
0.230768
0.230626
0.230484
0.230343
0.230209
0.230083
0.229987
0.229901
0.229829
0.229768
0.229717
0.229674
0.229615
0.229571
0.229487
0.229369
0.229249
0.229112
0.228962
0.22881
0.228664
0.228522
0.228408
0.228305
0.228216
0.228141
0.228075
0.228011
0.227951
0.227808
0.0344717
0.0343323
0.0344658
0.0345861
0.0346704
0.0346685
0.0345905
0.0344556
0.0342635
0.0340372
0.0338101
0.0335959
0.0334019
0.0332278
0.0330739
0.032941
0.0328296
0.0327403
0.0326728
0.0326308
0.0326115
0.0326284
0.0326709
0.0327594
0.0328843
0.0330784
0.0333192
0.0336473
0.0340306
0.0345431
0.0351221
0.0358742
0.0366996
0.0377681
0.038944
0.0403603
0.0418985
0.0438095
0.0458764
0.0482259
0.0510285
0.053855
0.0571159
0.0608401
0.064769
0.0692964
0.073892
0.0793984
0.0846934
0.0905908
0.0964937
0.103188
0.109738
0.116749
0.123362
0.130648
0.138411
0.145331
0.152309
0.159197
0.166126
0.172831
0.179656
0.185985
0.192305
0.198047
0.203474
0.208474
0.213314
0.217872
0.222016
0.226166
0.229847
0.233235
0.236259
0.238965
0.241557
0.24361
0.24581
0.247904
0.249172
0.25063
0.251829
0.253071
0.253694
0.25455
0.254969
0.255604
0.255832
0.256135
0.256219
0.256301
0.256087
0.255953
0.255544
0.255213
0.254817
0.254481
0.253929
0.253434
0.252818
0.252223
0.251665
0.251146
0.250641
0.250119
0.249623
0.249147
0.248726
0.248326
0.247976
0.247658
0.247383
0.247134
0.246903
0.246538
0.246137
0.245773
0.245431
0.245131
0.244812
0.244549
0.24438
0.244301
0.244195
0.244052
0.243952
0.243877
0.243823
0.243784
0.243697
0.243623
0.243464
0.243311
0.243126
0.242946
0.242772
0.242563
0.242366
0.242185
0.242021
0.241874
0.241745
0.241635
0.241546
0.241471
0.241416
0.241371
0.241337
0.241318
0.2413
0.24131
0.241274
0.241246
0.241178
0.241086
0.240962
0.240798
0.240618
0.240417
0.240208
0.239985
0.239789
0.239638
0.239514
0.239414
0.239342
0.239301
0.23928
0.239273
0.239268
0.239268
0.239234
0.23919
0.239099
0.238997
0.23885
0.238694
0.238526
0.238349
0.23817
0.238019
0.237888
0.237783
0.237704
0.237655
0.23762
0.237597
0.237566
0.237535
0.237493
0.237413
0.237314
0.237177
0.237029
0.236871
0.236706
0.236545
0.236399
0.236284
0.236182
0.236095
0.236031
0.235986
0.235946
0.235899
0.235849
0.235754
0.235675
0.235526
0.235368
0.235201
0.235033
0.234869
0.234715
0.234569
0.234451
0.234343
0.23425
0.234167
0.234094
0.234028
0.233947
0.233882
0.233781
0.233643
0.233504
0.233351
0.233184
0.233014
0.232849
0.23269
0.232559
0.232438
0.232332
0.232241
0.232159
0.232079
0.232004
0.231839
0.0345509
0.0344433
0.034592
0.0346895
0.0347175
0.0346713
0.0345487
0.0344035
0.0341806
0.0339476
0.0337185
0.0335086
0.0333187
0.0331482
0.0329972
0.0328661
0.0327547
0.032664
0.032595
0.0325513
0.0325295
0.0325429
0.0325836
0.032675
0.0328025
0.0330064
0.0332526
0.0336078
0.0340204
0.0346035
0.0352642
0.0361352
0.0370972
0.0383521
0.0397388
0.0414103
0.0432662
0.0455781
0.0480012
0.0507815
0.0542079
0.0574574
0.0613068
0.0659884
0.0705632
0.0759576
0.0813166
0.0876183
0.0937782
0.100513
0.106977
0.114035
0.121329
0.128953
0.136306
0.143864
0.152035
0.159356
0.166625
0.17323
0.180391
0.187111
0.193804
0.2001
0.206158
0.211872
0.217044
0.222114
0.22671
0.231241
0.235316
0.239207
0.242878
0.246349
0.249487
0.252371
0.254985
0.257062
0.259469
0.261396
0.26295
0.264624
0.265916
0.267256
0.268164
0.269178
0.269806
0.270541
0.270989
0.271427
0.271632
0.27181
0.271704
0.271642
0.271313
0.271064
0.270756
0.270503
0.269939
0.269419
0.268691
0.267988
0.267314
0.266691
0.26604
0.265366
0.264695
0.264039
0.263421
0.262819
0.262257
0.261725
0.261221
0.26074
0.260225
0.259588
0.258951
0.258377
0.257869
0.257428
0.257015
0.256562
0.256186
0.255894
0.255605
0.255256
0.254959
0.254696
0.254472
0.254264
0.25403
0.253808
0.253502
0.25321
0.252889
0.252582
0.252281
0.251939
0.251611
0.251302
0.251013
0.250747
0.250502
0.250279
0.250078
0.249891
0.249724
0.249568
0.249432
0.249313
0.249207
0.249125
0.248993
0.248873
0.248706
0.248522
0.248308
0.248061
0.247804
0.247526
0.247246
0.246956
0.246686
0.246456
0.246261
0.246089
0.245949
0.245836
0.245746
0.24567
0.2456
0.245535
0.245435
0.245331
0.245179
0.245021
0.24482
0.24461
0.244393
0.244169
0.243943
0.243744
0.243565
0.243409
0.243282
0.243185
0.243102
0.243031
0.242951
0.242873
0.242787
0.242665
0.242526
0.242351
0.242165
0.241971
0.241771
0.241575
0.241397
0.241247
0.241111
0.240992
0.240894
0.240814
0.24074
0.24066
0.24058
0.240448
0.240336
0.240164
0.239977
0.239783
0.239586
0.239396
0.239218
0.239048
0.238905
0.238772
0.238655
0.238547
0.238447
0.238354
0.238247
0.238159
0.238038
0.237876
0.237716
0.237544
0.237357
0.237166
0.236981
0.236803
0.236651
0.23651
0.236385
0.236275
0.236174
0.236076
0.235982
0.235791
0.0346005
0.0345466
0.0346796
0.0347492
0.0347426
0.0346572
0.034518
0.0343421
0.0341085
0.0338725
0.0336459
0.0334408
0.033255
0.0330882
0.0329396
0.0328097
0.032698
0.0326066
0.0325376
0.0324924
0.0324699
0.0324829
0.0325252
0.032626
0.0327561
0.0329811
0.0332512
0.0336675
0.0341525
0.0348461
0.035636
0.0366785
0.0378365
0.0393466
0.0410131
0.0429996
0.0452685
0.0481207
0.0509179
0.0540945
0.058167
0.0621715
0.0667162
0.0722305
0.077516
0.0836875
0.0897153
0.0965237
0.103263
0.110528
0.117542
0.124758
0.132413
0.139908
0.147798
0.15517
0.163156
0.170481
0.177669
0.184167
0.190725
0.197305
0.203332
0.209328
0.214625
0.220333
0.225203
0.230287
0.234595
0.239121
0.242902
0.24671
0.250138
0.253515
0.256457
0.259636
0.262038
0.264232
0.266875
0.268572
0.270621
0.272655
0.273811
0.275204
0.276384
0.277693
0.278614
0.279579
0.280311
0.281037
0.281498
0.281939
0.282135
0.282334
0.282388
0.282468
0.282513
0.282576
0.282325
0.282082
0.281563
0.281076
0.280597
0.280147
0.279609
0.279073
0.278491
0.277905
0.277308
0.276708
0.276117
0.275551
0.274958
0.27434
0.273613
0.272797
0.27202
0.271319
0.2707
0.270182
0.269687
0.269109
0.268557
0.268059
0.26758
0.267048
0.266563
0.26611
0.265707
0.265334
0.264944
0.264577
0.264122
0.26369
0.263231
0.262795
0.26236
0.26188
0.261413
0.260969
0.260546
0.260152
0.259781
0.259437
0.259113
0.258804
0.258511
0.258237
0.257986
0.257759
0.25755
0.257367
0.257126
0.256903
0.256624
0.256338
0.256026
0.255689
0.255347
0.254983
0.254628
0.254262
0.253914
0.253599
0.253321
0.25307
0.252852
0.252659
0.252491
0.252336
0.252191
0.252053
0.251879
0.251706
0.251487
0.251266
0.251004
0.250734
0.250463
0.250188
0.249911
0.249657
0.249422
0.249212
0.24903
0.248876
0.24874
0.248615
0.248479
0.248349
0.248212
0.248042
0.247858
0.247639
0.247412
0.247176
0.246938
0.246703
0.246488
0.246298
0.246125
0.245969
0.245832
0.245711
0.245598
0.245481
0.245366
0.245195
0.245043
0.244846
0.244627
0.244402
0.244173
0.243953
0.243748
0.243551
0.243379
0.243218
0.243073
0.242936
0.242806
0.242683
0.242547
0.24243
0.242287
0.242099
0.241916
0.241721
0.241512
0.241298
0.241091
0.240891
0.240715
0.240552
0.240406
0.240274
0.240152
0.240032
0.239918
0.239697
0.0346192
0.0346093
0.0347381
0.0347796
0.0347446
0.0346331
0.0344934
0.0342874
0.0340498
0.0338129
0.0335921
0.0333919
0.0332101
0.0330469
0.0329003
0.0327714
0.0326596
0.0325693
0.0325002
0.032455
0.0324341
0.0324515
0.032497
0.0326129
0.0327601
0.0330342
0.0333665
0.033882
0.0344833
0.0353361
0.0363047
0.0375706
0.0389935
0.0408327
0.0428447
0.045172
0.0478707
0.0513812
0.0547097
0.0582622
0.0627666
0.0680326
0.0731023
0.0791768
0.0850978
0.0918291
0.098343
0.105443
0.112522
0.119773
0.127134
0.13424
0.141761
0.148787
0.156444
0.163566
0.170453
0.177446
0.184227
0.190708
0.19679
0.203028
0.208001