/*--------------------------------*- C++ -*----------------------------------*\
| =========                 |                                                 |
| \\      /  F ield         | OpenFOAM: The Open Source CFD Toolbox           |
|  \\    /   O peration     | Version:  2312                                  |
|   \\  /    A nd           | Website:  www.openfoam.com                      |
|    \\/     M anipulation  |                                                 |
\*---------------------------------------------------------------------------*/
FoamFile
{
    version     2.0;
    format      ascii;
    arch        "LSB;label=32;scalar=64";
    class       volScalarField;
    location    "0.003";
    object      T;
}
// * * * * * * * * * * * * * * * * * * * * * * * * * * * * * * * * * * * * * //

dimensions      [0 0 0 1 0 0 0];

internalField   nonuniform List<scalar> 
48128
(
357.524
357.671
357.385
357.321
357.42
357.475
357.607
357.772
357.628
356.855
354.037
352.019
350.853
349.861
349.038
347.507
346.175
344.908
343.722
342.627
341.648
340.717
339.828
339.008
338.269
337.622
337.082
336.679
336.415
336.275
336.234
336.371
336.653
337.063
337.59
338.225
338.972
339.813
340.687
341.647
342.652
343.665
344.672
345.672
346.637
347.539
348.374
349.145
349.84
350.447
350.916
351.317
351.581
351.751
351.763
351.676
351.45
351.111
350.66
350.103
349.447
348.706
347.892
347.007
346.048
345.013
343.917
342.778
341.582
340.359
339.074
337.765
336.432
335.055
333.68
332.253
330.856
329.435
328.022
326.649
325.271
323.968
322.65
321.39
320.12
318.923
317.724
316.593
315.474
314.409
313.352
312.362
311.393
310.459
309.524
308.595
307.672
306.794
305.975
305.225
304.522
303.843
303.164
302.503
301.867
301.266
300.706
300.183
299.689
299.221
298.792
298.395
298.038
297.711
297.413
297.134
296.832
296.503
296.15
295.732
295.108
295.138
294.98
294.622
294.646
294.575
294.474
294.356
294.223
294.077
293.924
293.769
293.616
293.462
293.305
293.146
292.997
292.874
292.767
292.671
292.579
292.503
292.433
292.38
292.332
292.309
292.311
292.32
292.332
292.347
292.364
292.386
292.414
292.447
292.472
292.494
292.49
292.478
292.451
292.419
292.375
292.347
292.359
292.367
292.386
292.428
292.485
292.56
292.643
292.733
292.814
292.893
292.953
293.013
293.039
293.067
293.069
293.069
293.054
293.052
293.06
293.08
293.111
293.166
293.23
293.3
293.378
293.463
293.549
293.619
293.679
293.717
293.762
293.766
293.781
293.783
293.796
293.819
293.852
293.896
293.951
294.017
294.098
294.183
294.269
294.345
294.411
294.471
294.542
294.53
294.541
294.557
294.573
294.595
294.624
294.663
294.712
294.77
294.835
294.906
294.985
295.052
295.122
295.18
295.21
295.245
295.282
295.294
295.315
295.342
295.374
295.414
295.462
295.519
295.583
295.653
295.726
295.8
295.867
295.949
357.03
357.292
357.075
357.02
357.155
357.332
357.648
357.862
357.038
355.03
352.218
349.898
347.929
345.681
343.323
341.431
339.769
338.307
337.063
336.017
335.158
334.427
333.792
333.278
332.894
332.647
332.539
332.524
332.698
333.016
333.472
334.09
334.826
335.684
336.634
337.669
338.769
339.941
341.137
342.341
343.56
344.745
345.87
346.928
347.89
348.743
349.464
350.069
350.541
350.892
351.053
351.077
350.907
350.607
350.141
349.541
348.759
347.839
346.775
345.58
344.262
342.847
341.348
339.768
338.112
336.379
334.59
332.755
330.857
328.967
327.039
325.124
323.213
321.28
319.372
317.429
315.534
313.634
311.765
309.94
308.152
306.425
304.715
303.052
301.42
299.849
298.314
296.842
295.41
294.025
292.669
291.379
290.128
288.915
287.714
286.523
285.339
284.205
283.134
282.132
281.183
280.259
279.34
278.442
277.569
276.733
275.939
275.185
274.463
273.77
273.12
272.504
271.934
271.401
270.9
270.435
269.954
269.451
268.927
268.342
267.544
267.375
267.041
266.521
266.355
266.125
265.87
265.606
265.336
265.059
264.777
264.497
264.222
263.948
263.671
263.391
263.119
262.874
262.644
262.428
262.22
262.027
261.847
261.68
261.528
261.392
261.268
261.157
261.045
260.941
260.835
260.739
260.653
260.574
260.492
260.406
260.309
260.201
260.081
259.955
259.82
259.678
259.598
259.513
259.422
259.377
259.328
259.319
259.312
259.317
259.322
259.324
259.322
259.314
259.293
259.269
259.233
259.192
259.138
259.086
259.049
259.026
259.002
259.012
259.029
259.053
259.087
259.131
259.177
259.218
259.251
259.268
259.291
259.28
259.279
259.267
259.266
259.271
259.285
259.309
259.343
259.388
259.45
259.52
259.592
259.661
259.724
259.784
259.865
259.859
259.873
259.893
259.913
259.937
259.966
260.005
260.052
260.11
260.174
260.245
260.325
260.399
260.476
260.552
260.597
260.647
260.703
260.732
260.768
260.808
260.851
260.902
260.959
261.023
261.096
261.175
261.26
261.347
261.435
261.554
356.766
357.078
356.992
356.992
357.185
357.455
357.757
357.069
354.581
351.35
348.504
346.115
344.123
342.647
341.366
340.108
339.037
338.113
337.29
336.594
336.058
335.6
335.227
334.957
334.796
334.743
334.808
335.006
335.353
335.832
336.432
337.159
337.982
338.908
339.893
340.937
342.014
343.125
344.231
345.308
346.358
347.345
348.236
349.023
349.677
350.197
350.55
350.761
350.793
350.687
350.376
349.913
349.231
348.4
347.407
346.266
344.936
343.483
341.89
340.18
338.359
336.465
334.503
332.48
330.398
328.256
326.091
323.901
321.68
319.486
317.272
315.104
312.951
310.803
308.69
306.566
304.504
302.46
300.454
298.504
296.618
294.787
292.991
291.243
289.549
287.912
286.325
284.803
283.33
281.903
280.511
279.187
277.905
276.662
275.436
274.228
273.029
271.885
270.801
269.783
268.815
267.867
266.925
266.005
265.109
264.25
263.429
262.647
261.893
261.17
260.486
259.835
259.228
258.655
258.114
257.61
257.092
256.56
256.004
255.401
254.617
254.394
254.016
253.501
253.265
252.979
252.674
252.361
252.047
251.73
251.41
251.096
250.788
250.483
250.178
249.869
249.57
249.296
249.035
248.787
248.547
248.322
248.109
247.908
247.718
247.547
247.388
247.241
247.094
246.955
246.814
246.686
246.565
246.454
246.341
246.225
246.1
245.967
245.823
245.673
245.516
245.352
245.242
245.128
245.007
244.93
244.847
244.805
244.762
244.736
244.709
244.681
244.651
244.616
244.573
244.525
244.47
244.411
244.341
244.274
244.217
244.178
244.13
244.126
244.122
244.128
244.142
244.166
244.193
244.216
244.234
244.239
244.244
244.231
244.219
244.201
244.187
244.184
244.19
244.204
244.228
244.263
244.314
244.373
244.436
244.498
244.555
244.612
244.686
244.686
244.699
244.719
244.74
244.763
244.792
244.83
244.876
244.931
244.994
245.063
245.141
245.215
245.291
245.367
245.418
245.473
245.532
245.568
245.611
245.657
245.705
245.76
245.82
245.886
245.961
246.041
246.129
246.219
246.312
246.44
356.613
356.977
357.157
357.148
357.402
357.579
356.94
354.495
350.892
347.862
345.67
344.122
343.005
342.185
341.478
340.62
339.861
339.206
338.637
338.161
337.819
337.527
337.307
337.173
337.128
337.192
337.376
337.68
338.106
338.65
339.294
340.044
340.872
341.785
342.737
343.719
344.706
345.692
346.646
347.531
348.353
349.083
349.683
350.145
350.44
350.573
350.493
350.249
349.78
349.161
348.318
347.309
346.057
344.646
343.086
341.368
339.46
337.46
335.323
333.099
330.784
328.434
326.039
323.613
321.153
318.657
316.184
313.702
311.239
308.831
306.432
304.115
301.824
299.571
297.361
295.17
293.059
290.977
288.949
286.991
285.118
283.294
281.522
279.806
278.157
276.568
275.036
273.575
272.165
270.799
269.472
268.209
266.992
265.814
264.658
263.522
262.398
261.335
260.327
259.38
258.479
257.592
256.711
255.851
255.011
254.207
253.437
252.703
251.992
251.313
250.667
250.052
249.478
248.931
248.419
247.936
247.442
246.937
246.407
245.843
245.132
244.908
244.552
244.104
243.842
243.558
243.259
242.951
242.642
242.332
242.019
241.712
241.412
241.115
240.819
240.521
240.234
239.968
239.714
239.472
239.238
239.017
238.808
238.61
238.42
238.248
238.087
237.936
237.785
237.642
237.497
237.366
237.241
237.126
237.01
236.891
236.765
236.632
236.491
236.344
236.19
236.03
235.917
235.801
235.679
235.596
235.506
235.455
235.403
235.366
235.33
235.293
235.254
235.211
235.161
235.107
235.046
234.983
234.91
234.841
234.781
234.737
234.685
234.675
234.664
234.665
234.672
234.688
234.706
234.722
234.733
234.734
234.733
234.717
234.703
234.682
234.665
234.658
234.662
234.673
234.693
234.723
234.769
234.823
234.881
234.939
234.994
235.049
235.118
235.122
235.137
235.157
235.178
235.203
235.232
235.27
235.316
235.372
235.434
235.503
235.58
235.654
235.73
235.805
235.858
235.915
235.975
236.016
236.063
236.113
236.166
236.223
236.285
236.354
236.429
236.511
236.599
236.69
236.784
236.916
356.517
356.951
357.364
357.42
357.468
356.841
354.627
351.009
347.946
345.878
344.521
343.638
343.066
342.53
342.067
341.5
341.003
340.562
340.177
339.851
339.639
339.462
339.345
339.303
339.35
339.501
339.756
340.122
340.593
341.169
341.83
342.577
343.38
344.248
345.134
346.015
346.863
347.676
348.423
349.054
349.578
349.978
350.201
350.248
350.075
349.716
349.095
348.278
347.179
345.908
344.399
342.706
340.751
338.632
336.388
333.992
331.405
328.787
326.032
323.247
320.407
317.586
314.764
311.957
309.161
306.346
303.622
300.915
298.281
295.738
293.23
290.855
288.514
286.251
284.045
281.882
279.824
277.807
275.854
273.992
272.232
270.52
268.872
267.288
265.777
264.322
262.928
261.604
260.332
259.098
257.904
256.77
255.688
254.642
253.621
252.623
251.634
250.711
249.834
249.011
248.228
247.456
246.689
245.941
245.208
244.508
243.835
243.194
242.571
241.98
241.414
240.877
240.376
239.897
239.451
239.024
238.589
238.148
237.678
237.19
236.587
236.385
236.084
235.735
235.47
235.228
234.967
234.695
234.422
234.145
233.867
233.593
233.324
233.059
232.797
232.531
232.278
232.043
231.817
231.602
231.395
231.201
231.015
230.841
230.671
230.519
230.375
230.239
230.103
229.973
229.842
229.725
229.612
229.508
229.403
229.297
229.185
229.066
228.942
228.81
228.674
228.531
228.429
228.327
228.219
228.142
228.06
228.014
227.966
227.931
227.898
227.864
227.828
227.788
227.742
227.692
227.636
227.578
227.511
227.447
227.393
227.353
227.307
227.298
227.289
227.291
227.3
227.316
227.333
227.349
227.36
227.361
227.362
227.347
227.336
227.318
227.303
227.298
227.302
227.313
227.333
227.363
227.408
227.462
227.519
227.577
227.632
227.689
227.755
227.764
227.782
227.805
227.829
227.856
227.888
227.927
227.975
228.032
228.096
228.166
228.244
228.32
228.398
228.472
228.528
228.586
228.648
228.694
228.745
228.799
228.856
228.917
228.982
229.053
229.13
229.213
229.302
229.394
229.489
229.625
356.462
357.028
357.497
357.391
356.901
355.013
351.604
348.463
346.348
345.057
344.273
343.8
343.446
343.123
342.85
342.499
342.19
341.903
341.65
341.44
341.328
341.244
341.213
341.254
341.377
341.595
341.906
342.315
342.813
343.403
344.058
344.776
345.522
346.302
347.074
347.801
348.443
349.007
349.46
349.747
349.861
349.788
349.492
348.971
348.165
347.128
345.766
344.158
342.207
340.047
337.651
335.052
332.183
329.167
326.023
322.841
319.435
316.074
312.637
309.212
305.841
302.506
299.317
296.166
293.112
290.033
287.155
284.319
281.623
279.062
276.561
274.262
272.002
269.872
267.811
265.818
263.959
262.149
260.416
258.789
257.287
255.82
254.423
253.08
251.814
250.591
249.43
248.331
247.284
246.265
245.285
244.356
243.482
242.635
241.818
241.013
240.217
239.485
238.783
238.133
237.514
236.904
236.299
235.709
235.126
234.571
234.033
233.522
233.024
232.557
232.106
231.683
231.286
230.906
230.555
230.212
229.863
229.518
229.139
228.754
228.288
228.12
227.903
227.668
227.438
227.26
227.062
226.848
226.633
226.411
226.191
225.969
225.752
225.539
225.328
225.114
224.915
224.726
224.545
224.375
224.212
224.06
223.914
223.78
223.646
223.53
223.418
223.311
223.205
223.101
222.998
222.906
222.818
222.737
222.655
222.572
222.485
222.391
222.294
222.189
222.081
221.966
221.884
221.806
221.722
221.663
221.598
221.566
221.532
221.509
221.488
221.466
221.442
221.414
221.379
221.341
221.297
221.253
221.199
221.149
221.107
221.079
221.048
221.044
221.045
221.054
221.069
221.092
221.114
221.135
221.153
221.161
221.171
221.159
221.158
221.146
221.139
221.14
221.149
221.164
221.189
221.223
221.271
221.327
221.388
221.449
221.507
221.568
221.635
221.653
221.677
221.705
221.734
221.766
221.802
221.845
221.897
221.958
222.026
222.099
222.18
222.259
222.34
222.416
222.476
222.538
222.602
222.653
222.709
222.768
222.83
222.896
222.966
223.04
223.12
223.205
223.296
223.39
223.487
223.626
356.453
357.054
357.398
356.9
355.531
352.488
349.25
346.983
345.623
344.86
344.423
344.153
343.985
343.826
343.68
343.485
343.306
343.139
342.996
342.885
342.858
342.858
342.901
343.013
343.198
343.468
343.816
344.25
344.753
345.329
345.946
346.592
347.232
347.864
348.446
348.94
349.283
349.482
349.496
349.27
348.795
348.042
346.991
345.647
343.915
341.866
339.427
336.666
333.499
330.083
326.458
322.675
318.611
314.485
310.145
306.219
301.945
297.659
293.643
289.523
285.719
281.847
278.443
275.012
271.846
268.604
265.708
262.879
260.277
257.877
255.568
253.544
251.549
249.75
248.015
246.387
244.903
243.48
242.138
240.918
239.831
238.766
237.763
236.796
235.899
235.03
234.22
233.463
232.75
232.052
231.389
230.758
230.168
229.593
229.048
228.497
227.954
227.463
226.992
226.564
226.157
225.752
225.349
224.954
224.557
224.179
223.809
223.462
223.121
222.809
222.501
222.219
221.953
221.698
221.465
221.232
220.992
220.767
220.504
220.243
219.936
219.812
219.712
219.589
219.44
219.333
219.215
219.077
218.938
218.788
218.643
218.491
218.344
218.196
218.053
217.906
217.775
217.648
217.526
217.414
217.308
217.211
217.118
217.036
216.952
216.883
216.815
216.75
216.686
216.621
216.556
216.501
216.45
216.399
216.351
216.3
216.248
216.186
216.128
216.058
215.987
215.91
215.857
215.81
215.759
215.725
215.687
215.676
215.664
215.662
215.66
215.657
215.652
215.644
215.627
215.611
215.583
215.562
215.528
215.498
215.476
215.465
215.453
215.461
215.477
215.499
215.527
215.562
215.595
215.627
215.657
215.676
215.701
215.698
215.711
215.709
215.715
215.726
215.745
215.77
215.804
215.845
215.9
215.963
216.029
216.097
216.162
216.231
216.301
216.332
216.365
216.401
216.437
216.476
216.52
216.57
216.628
216.695
216.768
216.847
216.934
217.018
217.104
217.184
217.251
217.317
217.386
217.444
217.506
217.572
217.64
217.712
217.787
217.867
217.951
218.04
218.134
218.231
218.331
218.475
356.47
356.825
356.948
355.877
353.549
350.278
347.797
346.254
345.401
344.968
344.734
344.615
344.577
344.532
344.487
344.403
344.324
344.254
344.202
344.179
344.218
344.29
344.396
344.564
344.792
345.094
345.458
345.889
346.364
346.885
347.412
347.928
348.387
348.783
349.065
349.199
349.074
348.725
348.059
347.03
345.628
343.799
341.601
339.013
335.935
332.42
328.488
324.203
319.479
314.532
309.326
304.329
298.994
293.731
288.114
283.641
278.67
273.446
269.083
264.417
260.386
256.147
252.736
249.189
246.109
242.919
240.17
237.529
235.2
233.091
231.125
229.489
227.889
226.548
225.25
224.118
223.104
222.189
221.33
220.637
220.013
219.469
218.927
218.484
218.036
217.663
217.284
217
216.694
216.434
216.164
215.938
215.696
215.486
215.268
215.048
214.816
214.643
214.455
214.298
214.14
213.979
213.812
213.647
213.469
213.301
213.129
212.974
212.815
212.681
212.54
212.42
212.306
212.198
212.103
212.001
211.887
211.799
211.662
211.557
211.416
211.367
211.385
211.372
211.337
211.316
211.285
211.238
211.187
211.126
211.069
211
210.934
210.865
210.804
210.735
210.684
210.63
210.578
210.535
210.496
210.464
210.435
210.414
210.391
210.379
210.365
210.353
210.337
210.323
210.304
210.298
210.287
210.281
210.272
210.262
210.251
210.228
210.219
210.189
210.165
210.134
210.117
210.107
210.094
210.095
210.092
210.107
210.125
210.147
210.171
210.195
210.216
210.234
210.24
210.255
210.247
210.257
210.245
210.243
210.246
210.258
210.27
210.296
210.331
210.373
210.419
210.47
210.518
210.566
210.612
210.648
210.69
210.704
210.732
210.748
210.769
210.795
210.828
210.867
210.914
210.966
211.031
211.104
211.181
211.258
211.333
211.411
211.488
211.538
211.582
211.628
211.675
211.725
211.778
211.837
211.904
211.979
212.061
212.147
212.241
212.332
212.426
212.513
212.589
212.661
212.736
212.804
212.874
212.947
213.023
213.103
213.185
213.272
213.362
213.457
213.555
213.657
213.761
213.912
356.475
356.394
356.166
354.402
351.504
348.814
347.004
345.969
345.468
345.219
345.127
345.116
345.167
345.202
345.227
345.231
345.234
345.241
345.264
345.309
345.403
345.529
345.682
345.885
346.135
346.441
346.789
347.177
347.576
347.981
348.345
348.648
348.812
348.837
348.623
348.16
347.27
346.02
344.235
341.942
339.133
335.735
332.025
327.748
322.927
317.573
311.806
305.927
299.583
293.131
286.237
280.371
274.046
267.999
261.388
256.598
251.316
245.509
241.023
236.101
232.221
227.984
224.825
221.476
218.71
215.888
213.481
211.273
209.381
207.718
206.273
205.048
203.98
203.051
202.242
201.579
200.986
200.588
200.078
199.924
199.63
199.615
199.401
199.511
199.376
199.545
199.499
199.736
199.751
199.969
200.046
200.273
200.358
200.583
200.669
200.862
200.98
201.178
201.3
201.459
201.57
201.688
201.776
201.88
201.953
202.019
202.068
202.122
202.166
202.227
202.27
202.328
202.384
202.437
202.504
202.534
202.563
202.608
202.627
202.698
202.709
202.773
202.889
203.015
203.093
203.173
203.231
203.292
203.332
203.38
203.413
203.441
203.462
203.484
203.511
203.532
203.568
203.594
203.622
203.656
203.691
203.732
203.774
203.821
203.867
203.919
203.965
204.014
204.053
204.098
204.135
204.181
204.22
204.263
204.301
204.339
204.373
204.399
204.444
204.46
204.492
204.507
204.534
204.568
204.601
204.639
204.676
204.724
204.775
204.83
204.885
204.94
204.992
205.041
205.078
205.125
205.147
205.186
205.208
205.236
205.269
205.309
205.348
205.398
205.457
205.522
205.59
205.661
205.73
205.798
205.863
205.919
205.982
206.018
206.065
206.102
206.143
206.189
206.24
206.296
206.359
206.426
206.504
206.59
206.68
206.77
206.858
206.948
207.034
207.106
207.163
207.223
207.283
207.346
207.412
207.483
207.561
207.646
207.739
207.835
207.939
208.039
208.142
208.238
208.326
208.405
208.488
208.567
208.647
208.729
208.815
208.904
208.996
209.091
209.19
209.291
209.396
209.503
209.613
209.773
356.46
355.854
355.148
352.785
350.053
347.945
346.645
345.985
345.659
345.544
345.541
345.617
345.722
345.813
345.893
345.962
346.027
346.095
346.175
346.271
346.404
346.562
346.739
346.952
347.194
347.47
347.757
348.048
348.301
348.507
348.595
348.538
348.2
347.593
346.532
345.06
342.962
340.313
336.884
332.817
328.198
322.852
317.462
311.188
304.405
297.268
289.583
282.507
274.85
267.288
258.986
252.794
245.856
239.627
232.842
227.763
222.824
217.307
213.101
208.516
205.132
201.446
198.71
196.011
193.689
191.573
189.639
188.113
186.704
185.633
184.693
183.871
183.382
182.679
182.416
182.024
181.816
181.797
181.469
181.765
181.607
181.957
181.949
182.367
182.421
182.884
183.055
183.542
183.798
184.265
184.602
185.069
185.413
185.877
186.227
186.684
187.104
187.575
187.975
188.406
188.779
189.162
189.511
189.877
190.209
190.522
190.799
191.074
191.332
191.596
191.833
192.076
192.306
192.527
192.749
192.927
193.105
193.285
193.476
193.695
193.877
194.068
194.296
194.544
194.74
194.926
195.089
195.255
195.4
195.552
195.684
195.814
195.93
196.048
196.167
196.284
196.411
196.523
196.636
196.752
196.868
196.986
197.104
197.225
197.343
197.464
197.576
197.69
197.791
197.898
197.997
198.101
198.195
198.291
198.38
198.471
198.556
198.639
198.734
198.808
198.894
198.965
199.041
199.124
199.203
199.286
199.365
199.452
199.541
199.631
199.722
199.813
199.899
199.983
200.056
200.137
200.196
200.266
200.326
200.39
200.455
200.527
200.598
200.677
200.762
200.854
200.947
201.043
201.134
201.225
201.314
201.393
201.479
201.541
201.611
201.673
201.738
201.806
201.878
201.954
202.037
202.122
202.216
202.318
202.423
202.529
202.631
202.737
202.835
202.931
203.005
203.08
203.157
203.235
203.316
203.401
203.493
203.591
203.695
203.804
203.919
204.031
204.144
204.251
204.353
204.442
204.535
204.628
204.718
204.811
204.908
205.009
205.112
205.217
205.324
205.434
205.547
205.661
205.779
205.949
356.297
355.257
354.03
351.453
349.124
347.497
346.585
346.109
345.923
345.888
345.957
346.086
346.226
346.357
346.478
346.591
346.701
346.812
346.928
347.057
347.209
347.376
347.551
347.743
347.938
348.134
348.298
348.415
348.418
348.286
347.879
347.188
345.987
344.332
341.955
338.96
335.183
330.639
325.145
318.896
312.519
305.18
297.842
289.782
281.173
272.786
263.427
255.801
247.227
239.414
230.611
224.563
217.69
212.043
206.03
200.836
196.759
192.211
188.456
184.906
181.975
179.449
177.13
175.359
173.486
172.35
170.857
170.169
169.073
168.701
168.05
167.672
167.62
167.029
167.276
166.9
167.111
167.103
167.116
167.558
167.414
167.933
168.005
168.542
168.653
169.21
169.45
170.003
170.339
170.882
171.285
171.838
172.245
172.802
173.258
173.822
174.368
174.961
175.502
176.069
176.591
177.134
177.656
178.2
178.717
179.22
179.688
180.155
180.6
181.048
181.462
181.877
182.267
182.648
183.004
183.325
183.647
183.97
184.319
184.687
185.028
185.347
185.683
186.043
186.358
186.647
186.917
187.192
187.442
187.698
187.93
188.163
188.375
188.591
188.805
189.019
189.239
189.438
189.639
189.84
190.037
190.235
190.431
190.629
190.82
191.013
191.193
191.374
191.542
191.713
191.876
192.043
192.193
192.347
192.491
192.636
192.778
192.918
193.068
193.201
193.344
193.474
193.604
193.738
193.867
193.999
194.123
194.251
194.38
194.51
194.639
194.768
194.892
195.013
195.125
195.243
195.343
195.449
195.549
195.651
195.754
195.86
195.965
196.075
196.191
196.311
196.433
196.555
196.672
196.789
196.903
197.01
197.12
197.211
197.308
197.398
197.488
197.581
197.678
197.777
197.881
197.988
198.1
198.22
198.342
198.466
198.586
198.708
198.823
198.942
199.036
199.13
199.224
199.32
199.419
199.52
199.627
199.739
199.858
199.981
200.108
200.234
200.36
200.479
200.597
200.698
200.803
200.91
201.012
201.118
201.228
201.341
201.457
201.573
201.692
201.812
201.934
202.057
202.183
202.366
356.138
354.687
352.99
350.552
348.606
347.345
346.625
346.308
346.211
346.235
346.351
346.51
346.674
346.829
346.975
347.116
347.252
347.387
347.522
347.663
347.811
347.961
348.1
348.23
348.325
348.377
348.324
348.146
347.692
346.955
345.693
343.949
341.433
338.243
334.083
329.082
323.262
316.573
308.952
300.424
292.707
283.58
274.019
265.031
255.047
246.122
235.899
228.339
219.642
212.584
204.416
198.822
192.458
187.761
182.862
178.47
174.877
171.924
168.636
166.474
164.032
162.728
160.791
160.159
158.482
158.53
157.256
157.507
156.537
156.937
156.306
156.602
156.512
156.529
156.808
156.601
157.131
156.871
157.384
157.797
157.643
158.239
158.252
158.799
158.865
159.425
159.588
160.113
160.357
160.872
161.159
161.672
161.993
162.51
162.892
163.423
163.919
164.476
164.992
165.542
166.056
166.609
167.157
167.737
168.302
168.87
169.419
169.973
170.515
171.058
171.583
172.109
172.614
173.105
173.566
173.999
174.435
174.886
175.362
175.858
176.334
176.772
177.2
177.651
178.071
178.458
178.827
179.202
179.551
179.905
180.231
180.565
180.868
181.182
181.486
181.794
182.106
182.391
182.679
182.961
183.24
183.516
183.79
184.062
184.327
184.59
184.839
185.087
185.322
185.559
185.788
186.018
186.226
186.439
186.639
186.84
187.039
187.238
187.443
187.637
187.838
188.03
188.214
188.401
188.582
188.764
188.935
189.108
189.278
189.449
189.618
189.787
189.95
190.111
190.264
190.421
190.562
190.708
190.85
190.994
191.135
191.278
191.419
191.562
191.71
191.862
192.013
192.164
192.308
192.453
192.596
192.73
192.869
192.989
193.115
193.235
193.354
193.475
193.597
193.722
193.85
193.979
194.113
194.252
194.394
194.537
194.675
194.816
194.951
195.092
195.21
195.324
195.438
195.554
195.671
195.791
195.915
196.044
196.178
196.316
196.458
196.599
196.738
196.872
197.007
197.122
197.24
197.363
197.479
197.599
197.723
197.85
197.979
198.109
198.24
198.372
198.504
198.637
198.773
198.97
355.832
354.117
352.095
349.895
348.266
347.278
346.748
346.537
346.5
346.565
346.711
346.885
347.059
347.226
347.384
347.535
347.68
347.821
347.956
348.085
348.204
348.304
348.365
348.38
348.298
348.104
347.658
346.938
345.693
343.952
341.394
338.12
333.861
328.695
322.416
315.108
307.084
298.61
289.18
278.641
269.663
259.329
247.909
238.802
228.238
219.758
209.869
202.882
194.645
188.823
181.82
177.022
171.591
167.884
164.016
160.993
157.945
156.461
153.628
152.985
150.983
150.874
149.262
149.69
148.386
149.234
148.273
149.185
148.472
149.414
148.913
149.808
149.447
150.342
150.256
150.767
151.293
151.1
151.788
152.004
152.076
152.756
152.65
153.258
153.256
153.814
153.856
154.343
154.437
154.884
154.988
155.411
155.529
155.934
156.137
156.537
156.836
157.244
157.568
157.968
158.305
158.715
159.125
159.582
160.029
160.502
160.984
161.476
161.975
162.481
162.993
163.51
164.021
164.519
165.007
165.473
165.953
166.464
167.002
167.565
168.125
168.644
169.128
169.628
170.117
170.578
171.022
171.471
171.897
172.332
172.739
173.156
173.541
173.938
174.322
174.713
175.105
175.469
175.835
176.192
176.546
176.894
177.241
177.582
177.918
178.245
178.56
178.873
179.174
179.473
179.766
180.057
180.323
180.594
180.849
181.106
181.361
181.617
181.878
182.131
182.39
182.644
182.881
183.121
183.354
183.586
183.805
184.023
184.235
184.448
184.658
184.868
185.071
185.272
185.466
185.664
185.847
186.035
186.22
186.407
186.587
186.767
186.946
187.124
187.306
187.489
187.671
187.852
188.025
188.199
188.371
188.536
188.703
188.855
189.011
189.163
189.311
189.461
189.612
189.763
189.917
190.071
190.227
190.387
190.549
190.712
190.872
191.032
191.189
191.351
191.497
191.632
191.768
191.905
192.042
192.182
192.324
192.471
192.622
192.776
192.934
193.092
193.245
193.395
193.547
193.678
193.812
193.95
194.082
194.218
194.357
194.499
194.643
194.787
194.931
195.076
195.219
195.364
195.511
195.724
355.439
353.504
351.385
349.449
348.108
347.304
346.91
346.777
346.776
346.869
347.029
347.207
347.38
347.546
347.702
347.85
347.989
348.117
348.23
348.322
348.381
348.389
348.312
348.134
347.733
347.087
345.945
344.315
341.858
338.66
334.391
329.163
322.84
315.467
307.071
297.564
287.364
277.708
267.009
255.22
244.459
233.989
222.157
213.417
203.131
195.58
186.728
180.695
173.452
168.828
162.97
159.392
155.035
152.508
149.456
147.885
145.574
144.914
142.887
143.449
142.016
142.729
141.554
142.697
141.787
143.147
142.476
143.92
143.494
144.908
144.548
145.866
145.578
146.849
146.62
147.658
147.978
148.257
149.04
148.846
149.496
150.172
149.998
150.682
150.67
151.245
151.227
151.734
151.752
152.18
152.173
152.555
152.539
152.891
152.949
153.269
153.378
153.67
153.781
154.033
154.158
154.39
154.577
154.835
155.052
155.321
155.6
155.895
156.203
156.525
156.869
157.223
157.584
157.952
158.316
158.671
159.071
159.517
160
160.514
161.05
161.547
162.024
162.498
162.978
163.452
163.913
164.382
164.835
165.302
165.75
166.21
166.644
167.09
167.526
167.969
168.415
168.836
169.26
169.674
170.086
170.491
170.898
171.295
171.689
172.071
172.444
172.811
173.172
173.527
173.877
174.224
174.542
174.866
175.171
175.48
175.788
176.098
176.411
176.719
177.032
177.344
177.635
177.925
178.208
178.487
178.754
179.016
179.269
179.522
179.771
180.021
180.263
180.505
180.74
180.978
181.204
181.433
181.661
181.89
182.111
182.328
182.546
182.759
182.974
183.19
183.402
183.614
183.816
184.02
184.221
184.416
184.613
184.798
184.986
185.17
185.349
185.529
185.708
185.887
186.067
186.247
186.427
186.608
186.791
186.976
187.158
187.338
187.519
187.701
187.875
188.035
188.192
188.351
188.511
188.671
188.832
188.998
189.167
189.339
189.513
189.688
189.857
190.024
190.194
190.341
190.492
190.648
190.796
190.948
191.104
191.262
191.422
191.581
191.738
191.897
192.053
192.21
192.369
192.599
355.092
352.931
350.856
349.145
348.017
347.373
347.082
347.006
347.032
347.141
347.304
347.475
347.638
347.793
347.935
348.065
348.18
348.277
348.344
348.369
348.324
348.181
347.863
347.33
346.356
344.931
342.703
339.727
335.655
330.609
324.325
316.863
308.365
299.01
288.718
277.525
265.298
254.915
243.35
231.554
218.917
209.373
198.185
190.071
180.743
174.303
167.033
162.048
156.237
152.596
148.005
145.726
142.35
140.996
138.542
138.159
136.649
135.673
136.109
136.303
136.087
137.321
136.51
138.206
137.599
139.415
139.002
140.907
140.584
142.363
142.062
143.647
143.423
144.901
144.727
146.046
145.911
146.844
147.703
147.49
148.318
148.921
148.807
149.573
149.543
150.18
150.162
150.744
150.735
151.215
151.162
151.572
151.516
151.877
151.877
152.187
152.217
152.494
152.496
152.71
152.726
152.887
152.944
153.097
153.155
153.3
153.426
153.564
153.703
153.851
154.01
154.175
154.332
154.5
154.635
154.781
154.987
155.241
155.531
155.852
156.203
156.553
156.867
157.197
157.545
157.905
158.272
158.659
159.043
159.458
159.854
160.277
160.687
161.114
161.54
161.976
162.416
162.847
163.28
163.707
164.137
164.564
164.994
165.417
165.84
166.25
166.66
167.06
167.46
167.854
168.244
168.631
168.99
169.355
169.7
170.051
170.402
170.756
171.114
171.469
171.828
172.189
172.528
172.864
173.19
173.511
173.822
174.123
174.413
174.704
174.99
175.277
175.556
175.836
176.109
176.386
176.653
176.922
177.191
177.459
177.72
177.974
178.229
178.476
178.724
178.971
179.213
179.455
179.685
179.919
180.149
180.375
180.601
180.819
181.038
181.253
181.464
181.674
181.883
182.089
182.296
182.503
182.706
182.909
183.114
183.319
183.525
183.726
183.93
184.132
184.336
184.519
184.7
184.882
185.064
185.245
185.427
185.612
185.799
185.99
186.181
186.373
186.558
186.744
186.931
187.097
187.265
187.438
187.604
187.773
187.946
188.121
188.297
188.472
188.644
188.817
188.987
189.156
189.328
189.577
354.728
352.438
350.448
348.934
347.991
347.471
347.258
347.215
347.263
347.38
347.537
347.694
347.838
347.971
348.087
348.186
348.26
348.302
348.292
348.208
347.993
347.581
346.824
345.663
343.766
341.158
337.449
332.745
326.76
319.618
311.211
301.537
290.887
280.112
268.175
255.976
242.207
231.297
218.871
207.741
195.244
186.456
176.603
169.524
161.988
156.518
151.239
146.973
142.762
139.645
136.63
135.132
132.81
132.508
130.918
131.673
130.628
131.244
131.785
131.396
132.867
133.622
133.151
135.2
134.66
136.898
136.522
138.778
138.495
140.569
140.302
142.232
142.05
143.737
143.585
145.123
145.034
146.243
146.808
146.911
147.915
148.21
148.431
149.273
149.194
149.916
149.915