/*--------------------------------*- C++ -*----------------------------------*\
| =========                 |                                                 |
| \\      /  F ield         | OpenFOAM: The Open Source CFD Toolbox           |
|  \\    /   O peration     | Version:  2312                                  |
|   \\  /    A nd           | Website:  www.openfoam.com                      |
|    \\/     M anipulation  |                                                 |
\*---------------------------------------------------------------------------*/
FoamFile
{
    version     2.0;
    format      ascii;
    arch        "LSB;label=32;scalar=64";
    class       volScalarField;
    location    "0.003";
    object      thermo:psiLiqEff;
}
// * * * * * * * * * * * * * * * * * * * * * * * * * * * * * * * * * * * * * //

dimensions      [-2 4 2 0 0 0 0];

internalField   nonuniform List<scalar> 
48128
(
4.03409e-13
4.03242e-13
4.03566e-13
4.03637e-13
4.03525e-13
4.03463e-13
4.03315e-13
4.03128e-13
4.03291e-13
4.04165e-13
4.07382e-13
4.09718e-13
4.1108e-13
4.12245e-13
4.13216e-13
4.15038e-13
4.16634e-13
4.18165e-13
4.19609e-13
4.20949e-13
4.22156e-13
4.23309e-13
4.24417e-13
4.25444e-13
4.26373e-13
4.2719e-13
4.27874e-13
4.28386e-13
4.28723e-13
4.28902e-13
4.28954e-13
4.28779e-13
4.2842e-13
4.27899e-13
4.2723e-13
4.26428e-13
4.25488e-13
4.24435e-13
4.23347e-13
4.22157e-13
4.20919e-13
4.19677e-13
4.18451e-13
4.17241e-13
4.16078e-13
4.14998e-13
4.14004e-13
4.13089e-13
4.12269e-13
4.11554e-13
4.11004e-13
4.10534e-13
4.10226e-13
4.10029e-13
4.10014e-13
4.10116e-13
4.1038e-13
4.10775e-13
4.11304e-13
4.11958e-13
4.12732e-13
4.13608e-13
4.14577e-13
4.15634e-13
4.16785e-13
4.18035e-13
4.19368e-13
4.20761e-13
4.22235e-13
4.23752e-13
4.25358e-13
4.27006e-13
4.28699e-13
4.3046e-13
4.32234e-13
4.3409e-13
4.35923e-13
4.37804e-13
4.3969e-13
4.41539e-13
4.43409e-13
4.45192e-13
4.47011e-13
4.48763e-13
4.50544e-13
4.52236e-13
4.53942e-13
4.55564e-13
4.5718e-13
4.58729e-13
4.60277e-13
4.61735e-13
4.63171e-13
4.64566e-13
4.6597e-13
4.67372e-13
4.68774e-13
4.70116e-13
4.71374e-13
4.72532e-13
4.73623e-13
4.74682e-13
4.75745e-13
4.76785e-13
4.7779e-13
4.78743e-13
4.79634e-13
4.8047e-13
4.81262e-13
4.82014e-13
4.82707e-13
4.8335e-13
4.83928e-13
4.8446e-13
4.84946e-13
4.85401e-13
4.85895e-13
4.86434e-13
4.87014e-13
4.87702e-13
4.88734e-13
4.88684e-13
4.88946e-13
4.8954e-13
4.89501e-13
4.89618e-13
4.89786e-13
4.89982e-13
4.90203e-13
4.90447e-13
4.90703e-13
4.90962e-13
4.91218e-13
4.91476e-13
4.91737e-13
4.92004e-13
4.92256e-13
4.92462e-13
4.92641e-13
4.92804e-13
4.92959e-13
4.93087e-13
4.93205e-13
4.93294e-13
4.93375e-13
4.93413e-13
4.9341e-13
4.93395e-13
4.93374e-13
4.9335e-13
4.93321e-13
4.93284e-13
4.93236e-13
4.93182e-13
4.93139e-13
4.93102e-13
4.93109e-13
4.93129e-13
4.93174e-13
4.93227e-13
4.93303e-13
4.9335e-13
4.93329e-13
4.93315e-13
4.93284e-13
4.93212e-13
4.93117e-13
4.9299e-13
4.92851e-13
4.927e-13
4.92563e-13
4.92429e-13
4.92329e-13
4.92228e-13
4.92184e-13
4.92137e-13
4.92134e-13
4.92134e-13
4.92159e-13
4.92163e-13
4.92149e-13
4.92115e-13
4.92063e-13
4.91972e-13
4.91863e-13
4.91746e-13
4.91615e-13
4.91474e-13
4.9133e-13
4.91211e-13
4.91111e-13
4.91049e-13
4.90972e-13
4.90966e-13
4.90942e-13
4.90937e-13
4.90915e-13
4.90878e-13
4.90822e-13
4.90749e-13
4.90657e-13
4.90547e-13
4.90411e-13
4.9027e-13
4.90126e-13
4.9e-13
4.8989e-13
4.89791e-13
4.89673e-13
4.89692e-13
4.89674e-13
4.89648e-13
4.89621e-13
4.89585e-13
4.89537e-13
4.89472e-13
4.89391e-13
4.89294e-13
4.89185e-13
4.89068e-13
4.88937e-13
4.88827e-13
4.8871e-13
4.88615e-13
4.88564e-13
4.88507e-13
4.88446e-13
4.88425e-13
4.8839e-13
4.88346e-13
4.88294e-13
4.88227e-13
4.88147e-13
4.88053e-13
4.87947e-13
4.87833e-13
4.87712e-13
4.8759e-13
4.87479e-13
4.87345e-13
4.03967e-13
4.0367e-13
4.03916e-13
4.03977e-13
4.03825e-13
4.03625e-13
4.03269e-13
4.03027e-13
4.03957e-13
4.06242e-13
4.09486e-13
4.12202e-13
4.14534e-13
4.1723e-13
4.20096e-13
4.22424e-13
4.2449e-13
4.26325e-13
4.27898e-13
4.29231e-13
4.30331e-13
4.31271e-13
4.32092e-13
4.32759e-13
4.33258e-13
4.3358e-13
4.3372e-13
4.3374e-13
4.33513e-13
4.331e-13
4.32507e-13
4.31706e-13
4.30758e-13
4.29656e-13
4.28444e-13
4.27131e-13
4.25744e-13
4.24275e-13
4.22788e-13
4.213e-13
4.19805e-13
4.18362e-13
4.17002e-13
4.1573e-13
4.1458e-13
4.13566e-13
4.12712e-13
4.11999e-13
4.11444e-13
4.11033e-13
4.10843e-13
4.10816e-13
4.11014e-13
4.11367e-13
4.11913e-13
4.12621e-13
4.13546e-13
4.1464e-13
4.15912e-13
4.17351e-13
4.18948e-13
4.20677e-13
4.22525e-13
4.2449e-13
4.26568e-13
4.28767e-13
4.31059e-13
4.33437e-13
4.35923e-13
4.38427e-13
4.41012e-13
4.43609e-13
4.46232e-13
4.48917e-13
4.51601e-13
4.54365e-13
4.57093e-13
4.59862e-13
4.62619e-13
4.65344e-13
4.68044e-13
4.70682e-13
4.73325e-13
4.75921e-13
4.78498e-13
4.81006e-13
4.83481e-13
4.85879e-13
4.88235e-13
4.90535e-13
4.92807e-13
4.94989e-13
4.97123e-13
4.9921e-13
5.01295e-13
5.03379e-13
5.05467e-13
5.07485e-13
5.09405e-13
5.11214e-13
5.12939e-13
5.14631e-13
5.16325e-13
5.1799e-13
5.19619e-13
5.21188e-13
5.22688e-13
5.2412e-13
5.25499e-13
5.26829e-13
5.28084e-13
5.29278e-13
5.30386e-13
5.31429e-13
5.32412e-13
5.33327e-13
5.34278e-13
5.35274e-13
5.36318e-13
5.37487e-13
5.39091e-13
5.39432e-13
5.40106e-13
5.4116e-13
5.41496e-13
5.41966e-13
5.42485e-13
5.43024e-13
5.43577e-13
5.44145e-13
5.44724e-13
5.45301e-13
5.45868e-13
5.46436e-13
5.4701e-13
5.47591e-13
5.48157e-13
5.48669e-13
5.49148e-13
5.49601e-13
5.50037e-13
5.50442e-13
5.50819e-13
5.51171e-13
5.51492e-13
5.5178e-13
5.52042e-13
5.52276e-13
5.52512e-13
5.52734e-13
5.52959e-13
5.53162e-13
5.53344e-13
5.53512e-13
5.53685e-13
5.53868e-13
5.54076e-13
5.54304e-13
5.5456e-13
5.5483e-13
5.55118e-13
5.55421e-13
5.55592e-13
5.55775e-13
5.5597e-13
5.56067e-13
5.56171e-13
5.5619e-13
5.56205e-13
5.56196e-13
5.56185e-13
5.56179e-13
5.56185e-13
5.56201e-13
5.56245e-13
5.56297e-13
5.56375e-13
5.56464e-13
5.56579e-13
5.56691e-13
5.5677e-13
5.56819e-13
5.56872e-13
5.5685e-13
5.56814e-13
5.56762e-13
5.56689e-13
5.56595e-13
5.56494e-13
5.56407e-13
5.56336e-13
5.563e-13
5.56251e-13
5.56273e-13
5.56276e-13
5.56303e-13
5.56304e-13
5.56294e-13
5.56264e-13
5.56213e-13
5.56139e-13
5.56043e-13
5.55909e-13
5.55761e-13
5.55606e-13
5.55457e-13
5.55322e-13
5.55195e-13
5.55023e-13
5.55034e-13
5.55005e-13
5.54963e-13
5.5492e-13
5.54869e-13
5.54806e-13
5.54723e-13
5.54622e-13
5.545e-13
5.54363e-13
5.54212e-13
5.54042e-13
5.53883e-13
5.53721e-13
5.53559e-13
5.53462e-13
5.53356e-13
5.53238e-13
5.53177e-13
5.53101e-13
5.53016e-13
5.52923e-13
5.52816e-13
5.52696e-13
5.52558e-13
5.52405e-13
5.52238e-13
5.52058e-13
5.51873e-13
5.51688e-13
5.51438e-13
4.04265e-13
4.03912e-13
4.04009e-13
4.0401e-13
4.03791e-13
4.03487e-13
4.03146e-13
4.03922e-13
4.06757e-13
4.10498e-13
4.1385e-13
4.16707e-13
4.19119e-13
4.20925e-13
4.22505e-13
4.24068e-13
4.25407e-13
4.26569e-13
4.27611e-13
4.28496e-13
4.29178e-13
4.29764e-13
4.30242e-13
4.30589e-13
4.30797e-13
4.30865e-13
4.30781e-13
4.30526e-13
4.3008e-13
4.29468e-13
4.28701e-13
4.27777e-13
4.26735e-13
4.25569e-13
4.24336e-13
4.23036e-13
4.21703e-13
4.20339e-13
4.18987e-13
4.17681e-13
4.16414e-13
4.15231e-13
4.14168e-13
4.13234e-13
4.12461e-13
4.11848e-13
4.11434e-13
4.11186e-13
4.11148e-13
4.11273e-13
4.11638e-13
4.12182e-13
4.12987e-13
4.13972e-13
4.15155e-13
4.16524e-13
4.1813e-13
4.19898e-13
4.21855e-13
4.23976e-13
4.26257e-13
4.28657e-13
4.31171e-13
4.33795e-13
4.36529e-13
4.39378e-13
4.42294e-13
4.45286e-13
4.4836e-13
4.51439e-13
4.54589e-13
4.57717e-13
4.60867e-13
4.64053e-13
4.67228e-13
4.70466e-13
4.73652e-13
4.76854e-13
4.80036e-13
4.83174e-13
4.86246e-13
4.89266e-13
4.92265e-13
4.9522e-13
4.98117e-13
5.0095e-13
5.03727e-13
5.06419e-13
5.09053e-13
5.11629e-13
5.14168e-13
5.16607e-13
5.18991e-13
5.21321e-13
5.23642e-13
5.2595e-13
5.2826e-13
5.30483e-13
5.32606e-13
5.34615e-13
5.36541e-13
5.3844e-13
5.4034e-13
5.42209e-13
5.44043e-13
5.45811e-13
5.47512e-13
5.49142e-13
5.50723e-13
5.52248e-13
5.53699e-13
5.55086e-13
5.56385e-13
5.57619e-13
5.58787e-13
5.59881e-13
5.61009e-13
5.62174e-13
5.63393e-13
5.64725e-13
5.66464e-13
5.6696e-13
5.67803e-13
5.68958e-13
5.69486e-13
5.70132e-13
5.7082e-13
5.71527e-13
5.7224e-13
5.7296e-13
5.7369e-13
5.74407e-13
5.75112e-13
5.75813e-13
5.76516e-13
5.77227e-13
5.77919e-13
5.78556e-13
5.79161e-13
5.79739e-13
5.80298e-13
5.80825e-13
5.81324e-13
5.81795e-13
5.8224e-13
5.82642e-13
5.83017e-13
5.83363e-13
5.8371e-13
5.8404e-13
5.84372e-13
5.84678e-13
5.84963e-13
5.85227e-13
5.85496e-13
5.85772e-13
5.86069e-13
5.86387e-13
5.86729e-13
5.87087e-13
5.87462e-13
5.87856e-13
5.88118e-13
5.88394e-13
5.88685e-13
5.8887e-13
5.89068e-13
5.89169e-13
5.89272e-13
5.89336e-13
5.894e-13
5.89467e-13
5.8954e-13
5.89624e-13
5.89729e-13
5.89844e-13
5.89977e-13
5.9012e-13
5.90289e-13
5.9045e-13
5.90587e-13
5.90683e-13
5.90798e-13
5.90808e-13
5.90817e-13
5.90804e-13
5.90769e-13
5.90712e-13
5.90647e-13
5.9059e-13
5.90547e-13
5.90535e-13
5.90523e-13
5.90555e-13
5.90582e-13
5.90628e-13
5.90662e-13
5.90668e-13
5.90653e-13
5.90619e-13
5.9056e-13
5.90477e-13
5.90353e-13
5.90211e-13
5.90059e-13
5.89909e-13
5.89771e-13
5.89635e-13
5.89455e-13
5.89456e-13
5.89424e-13
5.89376e-13
5.89327e-13
5.8927e-13
5.892e-13
5.8911e-13
5.88999e-13
5.88866e-13
5.88715e-13
5.88549e-13
5.88363e-13
5.88184e-13
5.88002e-13
5.87819e-13
5.87698e-13
5.87567e-13
5.87425e-13
5.87338e-13
5.87236e-13
5.87126e-13
5.8701e-13
5.86881e-13
5.86738e-13
5.86578e-13
5.86401e-13
5.86208e-13
5.86e-13
5.85785e-13
5.85565e-13
5.85261e-13
4.04439e-13
4.04026e-13
4.03823e-13
4.03833e-13
4.03546e-13
4.03346e-13
4.04068e-13
4.06856e-13
4.11034e-13
4.14614e-13
4.17243e-13
4.19121e-13
4.20486e-13
4.21493e-13
4.22366e-13
4.2343e-13
4.24375e-13
4.25195e-13
4.25909e-13
4.2651e-13
4.26942e-13
4.27311e-13
4.27589e-13
4.2776e-13
4.27816e-13
4.27735e-13
4.27502e-13
4.27117e-13
4.26578e-13
4.25894e-13
4.25085e-13
4.24147e-13
4.23117e-13
4.21987e-13
4.20814e-13
4.19611e-13
4.1841e-13
4.17217e-13
4.16068e-13
4.15009e-13
4.14029e-13
4.13163e-13
4.12454e-13
4.1191e-13
4.11562e-13
4.11407e-13
4.115e-13
4.11787e-13
4.12339e-13
4.1307e-13
4.1407e-13
4.15273e-13
4.16775e-13
4.18482e-13
4.20385e-13
4.225e-13
4.24875e-13
4.27393e-13
4.30117e-13
4.32989e-13
4.3602e-13
4.39139e-13
4.42366e-13
4.45682e-13
4.49095e-13
4.52614e-13
4.56155e-13
4.59763e-13
4.63401e-13
4.67016e-13
4.70672e-13
4.74258e-13
4.77859e-13
4.81452e-13
4.8503e-13
4.88631e-13
4.92151e-13
4.95673e-13
4.99153e-13
5.02559e-13
5.0586e-13
5.09116e-13
5.12322e-13
5.15464e-13
5.1852e-13
5.21499e-13
5.24404e-13
5.27206e-13
5.29937e-13
5.3261e-13
5.35234e-13
5.37753e-13
5.40205e-13
5.42599e-13
5.44971e-13
5.47319e-13
5.49665e-13
5.51901e-13
5.54037e-13
5.5606e-13
5.58e-13
5.5992e-13
5.61842e-13
5.63731e-13
5.65588e-13
5.67376e-13
5.69101e-13
5.70754e-13
5.72364e-13
5.73911e-13
5.75391e-13
5.76806e-13
5.78133e-13
5.79403e-13
5.80598e-13
5.81729e-13
5.8289e-13
5.84082e-13
5.85338e-13
5.86682e-13
5.88383e-13
5.88922e-13
5.8978e-13
5.90862e-13
5.91497e-13
5.92187e-13
5.92915e-13
5.93667e-13
5.94421e-13
5.95183e-13
5.95953e-13
5.96709e-13
5.97451e-13
5.98188e-13
5.98922e-13
5.99666e-13
6.00382e-13
6.01047e-13
6.01684e-13
6.02292e-13
6.02881e-13
6.03437e-13
6.03967e-13
6.04468e-13
6.0495e-13
6.05386e-13
6.05796e-13
6.0618e-13
6.06564e-13
6.0693e-13
6.07299e-13
6.07636e-13
6.07955e-13
6.08251e-13
6.0855e-13
6.08854e-13
6.09178e-13
6.0952e-13
6.09884e-13
6.10265e-13
6.10661e-13
6.11076e-13
6.11368e-13
6.11669e-13
6.11985e-13
6.12203e-13
6.12436e-13
6.12567e-13
6.12704e-13
6.128e-13
6.12893e-13
6.1299e-13
6.13091e-13
6.13203e-13
6.13335e-13
6.13475e-13
6.13633e-13
6.13799e-13
6.1399e-13
6.1417e-13
6.14328e-13
6.14442e-13
6.14578e-13
6.14605e-13
6.14634e-13
6.14631e-13
6.14611e-13
6.1457e-13
6.14523e-13
6.1448e-13
6.14451e-13
6.14451e-13
6.14453e-13
6.14493e-13
6.1453e-13
6.14585e-13
6.14629e-13
6.14647e-13
6.14637e-13
6.1461e-13
6.14558e-13
6.14479e-13
6.14359e-13
6.14217e-13
6.14066e-13
6.13913e-13
6.13771e-13
6.13626e-13
6.13445e-13
6.13435e-13
6.13398e-13
6.13345e-13
6.13289e-13
6.13225e-13
6.13148e-13
6.1305e-13
6.12929e-13
6.12785e-13
6.12622e-13
6.12444e-13
6.12244e-13
6.12051e-13
6.11853e-13
6.11659e-13
6.11521e-13
6.11375e-13
6.11218e-13
6.11111e-13
6.1099e-13
6.1086e-13
6.10725e-13
6.10576e-13
6.10415e-13
6.10238e-13
6.10044e-13
6.09833e-13
6.09607e-13
6.09372e-13
6.09129e-13
6.08789e-13
4.04548e-13
4.04056e-13
4.03589e-13
4.03526e-13
4.03471e-13
4.04181e-13
4.06704e-13
4.10896e-13
4.14514e-13
4.16992e-13
4.18635e-13
4.19711e-13
4.2041e-13
4.21068e-13
4.21639e-13
4.22339e-13
4.22954e-13
4.23502e-13
4.23982e-13
4.24388e-13
4.24653e-13
4.24874e-13
4.25021e-13
4.25074e-13
4.25015e-13
4.24826e-13
4.24507e-13
4.2405e-13
4.23464e-13
4.22749e-13
4.21931e-13
4.21011e-13
4.20026e-13
4.18967e-13
4.17891e-13
4.16827e-13
4.15807e-13
4.14835e-13
4.13946e-13
4.13198e-13
4.12579e-13
4.12107e-13
4.11844e-13
4.11789e-13
4.11992e-13
4.12415e-13
4.13149e-13
4.14118e-13
4.15428e-13
4.16955e-13
4.18783e-13
4.20851e-13
4.23266e-13
4.25914e-13
4.28756e-13
4.31832e-13
4.35202e-13
4.38668e-13
4.42375e-13
4.46187e-13
4.50143e-13
4.54141e-13
4.58212e-13
4.62336e-13
4.66517e-13
4.70805e-13
4.75029e-13
4.79303e-13
4.83534e-13
4.87694e-13
4.91865e-13
4.95882e-13
4.99906e-13
5.03857e-13
5.07771e-13
5.11669e-13
5.15431e-13
5.19174e-13
5.22849e-13
5.26404e-13
5.29807e-13
5.33161e-13
5.36428e-13
5.39608e-13
5.42676e-13
5.45662e-13
5.48556e-13
5.51333e-13
5.54027e-13
5.56665e-13
5.59243e-13
5.61712e-13
5.64091e-13
5.66409e-13
5.68688e-13
5.70936e-13
5.73179e-13
5.75288e-13
5.77309e-13
5.79216e-13
5.81045e-13
5.82858e-13
5.8467e-13
5.86449e-13
5.88201e-13
5.89885e-13
5.91513e-13
5.93073e-13
5.94596e-13
5.96049e-13
5.97447e-13
5.98777e-13
6.00026e-13
6.01226e-13
6.02344e-13
6.0342e-13
6.04522e-13
6.0564e-13
6.06837e-13
6.08088e-13
6.09637e-13
6.10159e-13
6.10936e-13
6.11841e-13
6.12528e-13
6.1316e-13
6.1384e-13
6.14551e-13
6.15268e-13
6.15995e-13
6.16727e-13
6.17452e-13
6.18163e-13
6.18866e-13
6.19564e-13
6.20273e-13
6.20946e-13
6.21577e-13
6.22183e-13
6.2276e-13
6.23316e-13
6.23841e-13
6.24342e-13
6.24813e-13
6.25274e-13
6.25686e-13
6.26078e-13
6.26448e-13
6.26817e-13
6.27172e-13
6.27529e-13
6.2785e-13
6.28159e-13
6.28443e-13
6.2873e-13
6.29022e-13
6.29329e-13
6.29655e-13
6.29997e-13
6.30359e-13
6.30734e-13
6.31128e-13
6.31411e-13
6.31694e-13
6.31993e-13
6.32205e-13
6.32434e-13
6.32561e-13
6.32694e-13
6.3279e-13
6.32881e-13
6.32976e-13
6.33076e-13
6.33187e-13
6.33316e-13
6.33456e-13
6.33612e-13
6.33774e-13
6.3396e-13
6.34137e-13
6.34289e-13
6.344e-13
6.34528e-13
6.34554e-13
6.3458e-13
6.34572e-13
6.34549e-13
6.34504e-13
6.34457e-13
6.34412e-13
6.34381e-13
6.34377e-13
6.34375e-13
6.34415e-13
6.34446e-13
6.34498e-13
6.34539e-13
6.34554e-13
6.34541e-13
6.34511e-13
6.34455e-13
6.34372e-13
6.34246e-13
6.34097e-13
6.33938e-13
6.33775e-13
6.33623e-13
6.33465e-13
6.3328e-13
6.33254e-13
6.33204e-13
6.33142e-13
6.33074e-13
6.33e-13
6.32912e-13
6.32802e-13
6.32668e-13
6.32511e-13
6.32332e-13
6.32138e-13
6.31923e-13
6.31713e-13
6.31498e-13
6.31292e-13
6.31137e-13
6.30977e-13
6.30806e-13
6.3068e-13
6.30539e-13
6.3039e-13
6.30234e-13
6.30066e-13
6.29886e-13
6.29691e-13
6.29479e-13
6.29252e-13
6.29008e-13
6.28755e-13
6.28493e-13
6.28123e-13
4.04611e-13
4.03968e-13
4.03439e-13
4.03558e-13
4.04113e-13
4.06262e-13
4.10201e-13
4.13899e-13
4.16427e-13
4.17985e-13
4.18936e-13
4.19513e-13
4.19946e-13
4.20341e-13
4.20676e-13
4.21106e-13
4.21487e-13
4.21841e-13
4.22153e-13
4.22413e-13
4.22551e-13
4.22655e-13
4.22694e-13
4.22643e-13
4.22491e-13
4.22221e-13
4.21837e-13
4.21333e-13
4.2072e-13
4.19998e-13
4.19198e-13
4.18326e-13
4.17422e-13
4.16482e-13
4.15556e-13
4.14687e-13
4.13922e-13
4.13254e-13
4.12718e-13
4.12379e-13
4.12245e-13
4.12331e-13
4.12679e-13
4.13296e-13
4.14252e-13
4.15489e-13
4.17126e-13
4.19076e-13
4.21465e-13
4.24142e-13
4.27153e-13
4.30466e-13
4.34183e-13
4.38163e-13
4.42388e-13
4.46749e-13
4.51513e-13
4.56314e-13
4.6133e-13
4.66442e-13
4.71582e-13
4.76782e-13
4.81863e-13
4.8699e-13
4.92063e-13
4.97288e-13
5.02273e-13
5.07282e-13
5.12139e-13
5.1684e-13
5.21514e-13
5.25886e-13
5.30255e-13
5.34442e-13
5.38554e-13
5.42593e-13
5.46414e-13
5.50187e-13
5.53848e-13
5.57331e-13
5.60584e-13
5.638e-13
5.66895e-13
5.69903e-13
5.7277e-13
5.75566e-13
5.78245e-13
5.80803e-13
5.83262e-13
5.85676e-13
5.88018e-13
5.90253e-13
5.92371e-13
5.94439e-13
5.96449e-13
5.98441e-13
6.00423e-13
6.0226e-13
6.04029e-13
6.05679e-13
6.07257e-13
6.08821e-13
6.10381e-13
6.11909e-13
6.13426e-13
6.14878e-13
6.16291e-13
6.1764e-13
6.1896e-13
6.20202e-13
6.21407e-13
6.22543e-13
6.23612e-13
6.24639e-13
6.2559e-13
6.2652e-13
6.27472e-13
6.28416e-13
6.29455e-13
6.30515e-13
6.31801e-13
6.32267e-13
6.32869e-13
6.33523e-13
6.34162e-13
6.34659e-13
6.35213e-13
6.35812e-13
6.36417e-13
6.3704e-13
6.37659e-13
6.38287e-13
6.38899e-13
6.39505e-13
6.40102e-13
6.40712e-13
6.41278e-13
6.41816e-13
6.42334e-13
6.42821e-13
6.43288e-13
6.43726e-13
6.44144e-13
6.44531e-13
6.44917e-13
6.45252e-13
6.45576e-13
6.45885e-13
6.46191e-13
6.46492e-13
6.46791e-13
6.47058e-13
6.47313e-13
6.4755e-13
6.47787e-13
6.48029e-13
6.48283e-13
6.48556e-13
6.4884e-13
6.49145e-13
6.49461e-13
6.49798e-13
6.50037e-13
6.50268e-13
6.50514e-13
6.50687e-13
6.50879e-13
6.50972e-13
6.51072e-13
6.51138e-13
6.512e-13
6.51265e-13
6.51337e-13
6.51419e-13
6.51521e-13
6.51632e-13
6.51763e-13
6.51893e-13
6.5205e-13
6.52198e-13
6.52322e-13
6.52407e-13
6.52498e-13
6.5251e-13
6.52506e-13
6.52479e-13
6.52435e-13
6.52368e-13
6.52303e-13
6.5224e-13
6.52187e-13
6.52165e-13
6.52133e-13
6.52169e-13
6.52171e-13
6.52209e-13
6.52229e-13
6.52226e-13
6.522e-13
6.52154e-13
6.5208e-13
6.51981e-13
6.51839e-13
6.51673e-13
6.51496e-13
6.51316e-13
6.51145e-13
6.50965e-13
6.50769e-13
6.50716e-13
6.50644e-13
6.50564e-13
6.50478e-13
6.50386e-13
6.50279e-13
6.50152e-13
6.49999e-13
6.49822e-13
6.49624e-13
6.49409e-13
6.49173e-13
6.48942e-13
6.48705e-13
6.48483e-13
6.48308e-13
6.48129e-13
6.47941e-13
6.47792e-13
6.47629e-13
6.47458e-13
6.47279e-13
6.47087e-13
6.46885e-13
6.46669e-13
6.46438e-13
6.46191e-13
6.45929e-13
6.45657e-13
6.45375e-13
6.44974e-13
4.04621e-13
4.03939e-13
4.0355e-13
4.04114e-13
4.0567e-13
4.09172e-13
4.12966e-13
4.15664e-13
4.173e-13
4.18223e-13
4.18754e-13
4.19083e-13
4.19288e-13
4.19481e-13
4.19659e-13
4.19897e-13
4.20116e-13
4.20321e-13
4.20497e-13
4.20632e-13
4.20666e-13
4.20666e-13
4.20613e-13
4.20475e-13
4.20249e-13
4.19919e-13
4.19493e-13
4.18965e-13
4.18353e-13
4.17655e-13
4.16911e-13
4.16134e-13
4.15366e-13
4.14612e-13
4.13919e-13
4.13333e-13
4.12927e-13
4.12692e-13
4.12675e-13
4.12942e-13
4.13504e-13
4.14399e-13
4.15654e-13
4.1727e-13
4.19372e-13
4.21886e-13
4.24917e-13
4.28403e-13
4.32471e-13
4.36947e-13
4.41799e-13
4.46979e-13
4.5268e-13
4.5862e-13
4.65038e-13
4.71001e-13
4.77669e-13
4.84548e-13
4.91175e-13
4.98165e-13
5.04798e-13
5.11732e-13
5.17989e-13
5.24452e-13
5.3056e-13
5.36964e-13
5.42818e-13
5.4866e-13
5.54144e-13
5.59303e-13
5.64357e-13
5.68862e-13
5.73375e-13
5.77504e-13
5.81544e-13
5.85388e-13
5.88934e-13
5.92376e-13
5.95661e-13
5.98677e-13
6.01391e-13
6.04073e-13
6.06622e-13
6.09099e-13
6.11415e-13
6.13677e-13
6.15798e-13
6.17796e-13
6.19689e-13
6.21553e-13
6.23335e-13
6.25039e-13
6.2664e-13
6.2821e-13
6.29706e-13
6.31223e-13
6.32727e-13
6.34094e-13
6.3541e-13
6.3661e-13
6.37757e-13
6.38901e-13
6.40043e-13
6.41166e-13
6.423e-13
6.43382e-13
6.44446e-13
6.45449e-13
6.46436e-13
6.47341e-13
6.48235e-13
6.49058e-13
6.49838e-13
6.50583e-13
6.51269e-13
6.51954e-13
6.52663e-13
6.53327e-13
6.54109e-13
6.54882e-13
6.55797e-13
6.56167e-13
6.56467e-13
6.56832e-13
6.57279e-13
6.57599e-13
6.57955e-13
6.58369e-13
6.58787e-13
6.5924e-13
6.59675e-13
6.60136e-13
6.6058e-13
6.61027e-13
6.6146e-13
6.61907e-13
6.62304e-13
6.62692e-13
6.63063e-13
6.63405e-13
6.63728e-13
6.64026e-13
6.64309e-13
6.64562e-13
6.64818e-13
6.65029e-13
6.65237e-13
6.65436e-13
6.65634e-13
6.65834e-13
6.66033e-13
6.66202e-13
6.66361e-13
6.66517e-13
6.66663e-13
6.6682e-13
6.66982e-13
6.67173e-13
6.67353e-13
6.67568e-13
6.67789e-13
6.68027e-13
6.6819e-13
6.68337e-13
6.68495e-13
6.68599e-13
6.68716e-13
6.68751e-13
6.6879e-13
6.68795e-13
6.68802e-13
6.68811e-13
6.68824e-13
6.6885e-13
6.68904e-13
6.68952e-13
6.6904e-13
6.69105e-13
6.6921e-13
6.69304e-13
6.69373e-13
6.69408e-13
6.69442e-13
6.69418e-13
6.6937e-13
6.69299e-13
6.69212e-13
6.69105e-13
6.69003e-13
6.68903e-13
6.68812e-13
6.68752e-13
6.68673e-13
6.68684e-13
6.68643e-13
6.68649e-13
6.68631e-13
6.68597e-13
6.68538e-13
6.6846e-13
6.68355e-13
6.68229e-13
6.68059e-13
6.67863e-13
6.67658e-13
6.67447e-13
6.67247e-13
6.67036e-13
6.6682e-13
6.66723e-13
6.6662e-13
6.66512e-13
6.66399e-13
6.66278e-13
6.66145e-13
6.6599e-13
6.65811e-13
6.65607e-13
6.65381e-13
6.65139e-13
6.64874e-13
6.64617e-13
6.64352e-13
6.64106e-13
6.63903e-13
6.63701e-13
6.63491e-13
6.63313e-13
6.63123e-13
6.62924e-13
6.62717e-13
6.62497e-13
6.62268e-13
6.62026e-13
6.6177e-13
6.615e-13
6.61215e-13
6.60921e-13
6.60617e-13
6.60182e-13
4.04602e-13
4.04199e-13
4.0406e-13
4.05275e-13
4.07944e-13
4.11754e-13
4.14691e-13
4.1654e-13
4.17568e-13
4.18092e-13
4.18377e-13
4.18521e-13
4.18568e-13
4.18622e-13
4.18676e-13
4.18779e-13
4.18874e-13
4.1896e-13
4.19023e-13
4.19051e-13
4.19004e-13
4.18916e-13
4.18787e-13
4.18583e-13
4.18305e-13
4.1794e-13
4.17499e-13
4.16979e-13
4.16407e-13
4.15782e-13
4.15151e-13
4.14535e-13
4.13989e-13
4.13519e-13
4.13184e-13
4.13026e-13
4.13174e-13
4.13587e-13
4.14379e-13
4.15608e-13
4.17293e-13
4.19514e-13
4.22213e-13
4.25437e-13
4.29336e-13
4.33874e-13
4.39069e-13
4.44872e-13
4.51451e-13
4.58551e-13
4.66269e-13
4.73926e-13
4.82383e-13
4.91028e-13
5.00601e-13
5.08497e-13
5.17567e-13
5.27457e-13
5.3601e-13
5.45469e-13
5.53913e-13
5.63081e-13
5.70683e-13
5.78806e-13
5.86049e-13
5.93747e-13
6.00542e-13
6.07222e-13
6.13235e-13
6.18783e-13
6.24048e-13
6.28497e-13
6.32911e-13
6.36657e-13
6.40326e-13
6.43559e-13
6.46486e-13
6.49146e-13
6.51666e-13
6.53713e-13
6.55568e-13
6.57192e-13
6.58822e-13
6.60158e-13
6.61514e-13
6.62648e-13
6.63801e-13
6.64671e-13
6.6561e-13
6.66408e-13
6.67242e-13
6.6794e-13
6.68691e-13
6.69343e-13
6.70021e-13
6.70705e-13
6.71431e-13
6.71972e-13
6.72559e-13
6.73051e-13
6.73548e-13
6.74057e-13
6.74582e-13
6.75102e-13
6.75666e-13
6.762e-13
6.76743e-13
6.77237e-13
6.77744e-13
6.78169e-13
6.78621e-13
6.79004e-13
6.79368e-13
6.79714e-13
6.80018e-13
6.80345e-13
6.80711e-13
6.80996e-13
6.81435e-13
6.81775e-13
6.82228e-13
6.82387e-13
6.8233e-13
6.82369e-13
6.82485e-13
6.82552e-13
6.82651e-13
6.82803e-13
6.82967e-13
6.83166e-13
6.8335e-13
6.83575e-13
6.83787e-13
6.8401e-13
6.8421e-13
6.84432e-13
6.84599e-13
6.84776e-13
6.84943e-13
6.85082e-13
6.85209e-13
6.85314e-13
6.8541e-13
6.85478e-13
6.85552e-13
6.85593e-13
6.85636e-13
6.85677e-13
6.85729e-13
6.85774e-13
6.85837e-13
6.85856e-13
6.8589e-13
6.85912e-13
6.85939e-13
6.85973e-13
6.86008e-13
6.86085e-13
6.86112e-13
6.86211e-13
6.8629e-13
6.8639e-13
6.86448e-13
6.8648e-13
6.8652e-13
6.86519e-13
6.86527e-13
6.8648e-13
6.86421e-13
6.86347e-13
6.8627e-13
6.86193e-13
6.86122e-13
6.86064e-13
6.86046e-13
6.85995e-13
6.86023e-13
6.8599e-13
6.86028e-13
6.86035e-13
6.86025e-13
6.85987e-13
6.85948e-13
6.85862e-13
6.85747e-13
6.85612e-13
6.85462e-13
6.85296e-13
6.85138e-13
6.84982e-13
6.84833e-13
6.84717e-13
6.84579e-13
6.84534e-13
6.84443e-13
6.84392e-13
6.84323e-13
6.84238e-13
6.8413e-13
6.84004e-13
6.83853e-13
6.83683e-13
6.83473e-13
6.83236e-13
6.82989e-13
6.82737e-13
6.82496e-13
6.82243e-13
6.81996e-13
6.81835e-13
6.81694e-13
6.81546e-13
6.81394e-13
6.81234e-13
6.81062e-13
6.80871e-13
6.80656e-13
6.80417e-13
6.80154e-13
6.79876e-13
6.79575e-13
6.79283e-13
6.78984e-13
6.78706e-13
6.78463e-13
6.78234e-13
6.77996e-13
6.77779e-13
6.77556e-13
6.77323e-13
6.77082e-13
6.76828e-13
6.76565e-13
6.76291e-13
6.76004e-13
6.75705e-13
6.75393e-13
6.75073e-13
6.74742e-13
6.74267e-13
4.04596e-13
4.04687e-13
4.04947e-13
4.06962e-13
4.10318e-13
4.13483e-13
4.15639e-13
4.16883e-13
4.17488e-13
4.17789e-13
4.179e-13
4.17914e-13
4.17851e-13
4.17809e-13
4.17779e-13
4.17774e-13
4.1777e-13
4.17761e-13
4.17734e-13
4.17679e-13
4.17566e-13
4.17414e-13
4.1723e-13
4.16984e-13
4.16683e-13
4.16314e-13
4.15897e-13
4.15432e-13
4.14955e-13
4.14472e-13
4.1404e-13
4.13679e-13
4.13484e-13
4.13455e-13
4.13708e-13
4.14259e-13
4.1532e-13
4.16821e-13
4.18983e-13
4.21792e-13
4.25286e-13
4.29591e-13
4.34391e-13
4.4006e-13
4.4663e-13
4.54161e-13
4.62562e-13
4.71451e-13
4.81436e-13
4.92033e-13
5.03885e-13
5.14427e-13
5.26302e-13
5.38179e-13
5.51791e-13
5.62092e-13
5.73908e-13
5.87484e-13
5.9842e-13
6.10896e-13
6.21104e-13
6.32646e-13
6.41538e-13
6.51238e-13
6.59477e-13
6.68099e-13
6.7563e-13
6.82694e-13
6.88864e-13
6.94379e-13
6.99244e-13
7.03421e-13
7.07103e-13
7.1034e-13
7.1318e-13
7.15526e-13
7.1764e-13
7.19063e-13
7.20897e-13
7.21449e-13
7.22511e-13
7.22565e-13
7.23343e-13
7.22945e-13
7.23433e-13
7.22821e-13
7.22985e-13
7.22129e-13
7.22073e-13
7.21286e-13
7.21011e-13
7.20194e-13
7.19885e-13
7.19078e-13
7.1877e-13
7.18081e-13
7.17658e-13
7.16951e-13
7.16519e-13
7.15952e-13
7.15558e-13
7.1514e-13
7.14827e-13
7.1446e-13
7.142e-13
7.13967e-13
7.13794e-13
7.13602e-13
7.13446e-13
7.13234e-13
7.13081e-13
7.12877e-13
7.12677e-13
7.12493e-13
7.12255e-13
7.12152e-13
7.1205e-13
7.11891e-13
7.11824e-13
7.11573e-13
7.11536e-13
7.11311e-13
7.10906e-13
7.10464e-13
7.10191e-13
7.09909e-13
7.09707e-13
7.09495e-13
7.09354e-13
7.09188e-13
7.09074e-13
7.08975e-13
7.08901e-13
7.08824e-13
7.08731e-13
7.08659e-13
7.08533e-13
7.08443e-13
7.08346e-13
7.08227e-13
7.08103e-13
7.07963e-13
7.07816e-13
7.07653e-13
7.07493e-13
7.07313e-13
7.07153e-13
7.06983e-13
7.06849e-13
7.06692e-13
7.06564e-13
7.06406e-13
7.06269e-13
7.06122e-13
7.05992e-13
7.05858e-13
7.05742e-13
7.05651e-13
7.05498e-13
7.05441e-13
7.05329e-13
7.05279e-13
7.05187e-13
7.05068e-13
7.04955e-13
7.04823e-13
7.04696e-13
7.04533e-13
7.04355e-13
7.04168e-13
7.03978e-13
7.03788e-13
7.03609e-13
7.03441e-13
7.03315e-13
7.03154e-13
7.03078e-13
7.02945e-13
7.0287e-13
7.02774e-13
7.02662e-13
7.02524e-13
7.02389e-13
7.02218e-13
7.02017e-13
7.01796e-13
7.01564e-13
7.0132e-13
7.01087e-13
7.00856e-13
7.00632e-13
7.00442e-13
7.00229e-13
7.00105e-13
6.99946e-13
6.99819e-13
6.9968e-13
6.99526e-13
6.99352e-13
6.99163e-13
6.9895e-13
6.98722e-13
6.98458e-13
6.98166e-13
6.97864e-13
6.97558e-13
6.97264e-13
6.96958e-13
6.96669e-13
6.96426e-13
6.96235e-13
6.96035e-13
6.95832e-13
6.95621e-13
6.954e-13
6.95161e-13
6.949e-13
6.94615e-13
6.94306e-13
6.93983e-13
6.93638e-13
6.93303e-13
6.92961e-13
6.92641e-13
6.92348e-13
6.92085e-13
6.91811e-13
6.91547e-13
6.91284e-13
6.9101e-13
6.90727e-13
6.90431e-13
6.90127e-13
6.89814e-13
6.8949e-13
6.89155e-13
6.88811e-13
6.88458e-13
6.88096e-13
6.87573e-13
4.04612e-13
4.05301e-13
4.06107e-13
4.08828e-13
4.12019e-13
4.14515e-13
4.1607e-13
4.16864e-13
4.17257e-13
4.17396e-13
4.17399e-13
4.17308e-13
4.17181e-13
4.17071e-13
4.16974e-13
4.16892e-13
4.16813e-13
4.16731e-13
4.16635e-13
4.16519e-13
4.1636e-13
4.1617e-13
4.15957e-13
4.15701e-13
4.15412e-13
4.15082e-13
4.14739e-13
4.14393e-13
4.14092e-13
4.13847e-13
4.13742e-13
4.1381e-13
4.14211e-13
4.14935e-13
4.16205e-13
4.17981e-13
4.20538e-13
4.23811e-13
4.28126e-13
4.33358e-13
4.39457e-13
4.46735e-13
4.5432e-13
4.63481e-13
4.73809e-13
4.85186e-13
4.98063e-13
5.10539e-13
5.24763e-13
5.3961e-13
5.56911e-13
5.70553e-13
5.86654e-13
6.01907e-13
6.19448e-13
6.33264e-13
6.47301e-13
6.63736e-13
6.76839e-13
6.91723e-13
7.03135e-13
7.16001e-13
7.25862e-13
7.35858e-13
7.44679e-13
7.52907e-13
7.60583e-13
7.66755e-13
7.72543e-13
7.77e-13
7.80954e-13
7.84449e-13
7.86541e-13
7.89567e-13
7.90704e-13
7.92405e-13
7.93314e-13
7.93397e-13
7.94832e-13
7.93536e-13
7.94228e-13
7.92698e-13
7.92732e-13
7.90917e-13
7.9068e-13
7.88679e-13
7.87944e-13
7.85849e-13
7.84758e-13
7.82767e-13
7.81337e-13
7.79368e-13
7.77918e-13
7.75979e-13
7.74518e-13
7.72622e-13
7.7089e-13
7.68952e-13
7.67315e-13
7.65562e-13
7.64048e-13
7.625e-13
7.61096e-13
7.59628e-13
7.58301e-13
7.57058e-13
7.55957e-13
7.54868e-13
7.53853e-13
7.52814e-13
7.5188e-13
7.50931e-13
7.50032e-13
7.49171e-13
7.48308e-13
7.47617e-13
7.46929e-13
7.46234e-13
7.45498e-13
7.44652e-13
7.43954e-13
7.4322e-13
7.42351e-13
7.41403e-13
7.40655e-13
7.39951e-13
7.39331e-13
7.38703e-13
7.38155e-13
7.37579e-13
7.37082e-13
7.36593e-13
7.36156e-13
7.35716e-13
7.35266e-13
7.34828e-13
7.34353e-13
7.33937e-13
7.33513e-13
7.33082e-13
7.3265e-13
7.32211e-13
7.31772e-13
7.31322e-13
7.30885e-13
7.30437e-13
7.30023e-13
7.29604e-13
7.29229e-13
7.28837e-13
7.28473e-13
7.28088e-13
7.27745e-13
7.27393e-13
7.27064e-13
7.2673e-13
7.2642e-13
7.26118e-13
7.25769e-13
7.25499e-13
7.25185e-13
7.24927e-13
7.2465e-13
7.24349e-13
7.24059e-13
7.23758e-13
7.23471e-13
7.23157e-13
7.22835e-13
7.22507e-13
7.22179e-13
7.2185e-13
7.21538e-13
7.21237e-13
7.20974e-13
7.20682e-13
7.20467e-13
7.20216e-13
7.2e-13
7.19772e-13
7.19536e-13
7.19278e-13
7.19023e-13
7.18743e-13
7.18435e-13
7.18109e-13
7.17776e-13
7.17434e-13
7.17108e-13
7.16783e-13
7.16468e-13
7.16185e-13
7.1588e-13
7.1566e-13
7.1541e-13
7.1519e-13
7.14961e-13
7.14721e-13
7.14464e-13
7.14195e-13
7.13904e-13
7.13602e-13
7.13269e-13
7.1291e-13
7.12542e-13
7.12168e-13
7.11808e-13
7.11439e-13
7.11092e-13
7.10756e-13
7.10499e-13
7.10235e-13
7.09968e-13
7.09694e-13
7.09411e-13
7.09113e-13
7.08795e-13
7.08454e-13
7.08091e-13
7.07712e-13
7.07314e-13
7.06926e-13
7.06533e-13
7.06164e-13
7.0581e-13
7.05502e-13
7.05183e-13
7.04864e-13
7.04554e-13
7.04231e-13
7.03898e-13
7.03553e-13
7.032e-13
7.0284e-13
7.02471e-13
7.02094e-13
7.0171e-13
7.01319e-13
7.00919e-13
7.00341e-13
4.04798e-13
4.05983e-13
4.0739e-13
4.10377e-13
4.13115e-13
4.1505e-13
4.16142e-13
4.16714e-13
4.16939e-13
4.1698e-13
4.16897e-13
4.16742e-13
4.16573e-13
4.16416e-13
4.1627e-13
4.16135e-13
4.16003e-13
4.1587e-13
4.1573e-13
4.15576e-13
4.15394e-13
4.15194e-13
4.14985e-13
4.14756e-13
4.14524e-13
4.1429e-13
4.14095e-13
4.13956e-13
4.13952e-13
4.14109e-13
4.14594e-13
4.15419e-13
4.16862e-13
4.18864e-13
4.21777e-13
4.25504e-13
4.30299e-13
4.36213e-13
4.43584e-13
4.52277e-13
4.61506e-13
4.72606e-13
4.8425e-13
4.97721e-13
5.12962e-13
5.28734e-13
5.4752e-13
5.63846e-13
5.83402e-13