/*--------------------------------*- C++ -*----------------------------------*\
| =========                 |                                                 |
| \\      /  F ield         | OpenFOAM: The Open Source CFD Toolbox           |
|  \\    /   O peration     | Version:  2312                                  |
|   \\  /    A nd           | Website:  www.openfoam.com                      |
|    \\/     M anipulation  |                                                 |
\*---------------------------------------------------------------------------*/
FoamFile
{
    version     2.0;
    format      ascii;
    arch        "LSB;label=32;scalar=64";
    class       volScalarField;
    location    "0.003";
    object      thermo:psiGasEff;
}
// * * * * * * * * * * * * * * * * * * * * * * * * * * * * * * * * * * * * * //

dimensions      [-2 4 2 0 0 0 0];

internalField   nonuniform List<scalar> 
48128
(
0.00839254
0.00839373
0.00844126
0.00849908
0.00850586
0.00852597
0.0085419
0.00856687
0.00859872
0.00863748
0.00860582
0.00863061
0.0086255
0.00869265
0.00881582
0.00895384
0.00905706
0.00913416
0.00918143
0.00919792
0.00918348
0.00914276
0.00907626
0.0089831
0.00886267
0.0087157
0.00854194
0.00833321
0.00810173
0.00784637
0.00757094
0.00727729
0.00697009
0.0066508
0.00632715
0.00599895
0.00567095
0.00534487
0.00502934
0.00471829
0.00441855
0.00413233
0.00385956
0.0036003
0.00335922
0.00312913
0.00292005
0.00271802
0.00253604
0.00236278
0.00220753
0.00205937
0.0019266
0.00180183
0.00169029
0.00158563
0.00149075
0.00140462
0.00132549
0.00125377
0.00118838
0.00112905
0.00107498
0.00102572
0.00098083
0.000939884
0.000902629
0.000868567
0.000837289
0.000809244
0.000783145
0.000759964
0.000738357
0.000718742
0.000701197
0.000684737
0.000670477
0.000656701
0.000644882
0.00063341
0.000623433
0.000613558
0.000605112
0.000596836
0.000589674
0.000582637
0.00057657
0.000570581
0.000565379
0.000560278
0.000555839
0.00055144
0.000547583
0.000543842
0.000540766
0.000538092
0.000536039
0.000534025
0.000531928
0.00052971
0.000527481
0.000525281
0.000523481
0.000521923
0.000520523
0.000519153
0.000517786
0.000516437
0.000515113
0.000513783
0.000512403
0.000510928
0.000509343
0.000507658
0.000505898
0.000504139
0.00050242
0.000501552
0.000501134
0.000501617
0.00050252
0.000499208
0.000498642
0.000498256
0.000495963
0.000494096
0.000492308
0.000490506
0.000488971
0.000487675
0.000486629
0.000485742
0.000484912
0.000484283
0.000483772
0.000483507
0.000483211
0.000482852
0.000482456
0.00048204
0.000481596
0.000481117
0.000480582
0.000479996
0.000479326
0.000478583
0.000477796
0.00047696
0.000476205
0.000475444
0.000474791
0.000474127
0.000473443
0.000472783
0.00047215
0.000471693
0.000471317
0.000471309
0.000471463
0.000471725
0.000472137
0.000472633
0.000472646
0.0004728
0.00047282
0.000472664
0.000472391
0.000471939
0.000471408
0.000470803
0.000470211
0.000469632
0.000469173
0.000468755
0.00046855
0.000468495
0.00046861
0.000468801
0.000469163
0.000469563
0.000469881
0.000470109
0.000470261
0.000470152
0.000469959
0.000469701
0.000469343
0.000468884
0.000468396
0.00046798
0.000467656
0.000467516
0.000467435
0.000467607
0.000467811
0.00046814
0.000468453
0.000468747
0.000469001
0.000469137
0.000469165
0.000469101
0.00046886
0.000468544
0.000468196
0.000467847
0.00046757
0.000467299
0.000467053
0.000467402
0.000467603
0.000467838
0.000468117
0.000468411
0.000468681
0.000468905
0.000468964
0.000468953
0.000468865
0.000468698
0.00046844
0.000468198
0.00046791
0.000467693
0.00046775
0.000467762
0.000467892
0.000468145
0.000468377
0.000468615
0.000468847
0.000469065
0.00046916
0.000469193
0.000469164
0.000469071
0.000468917
0.000468749
0.000468527
0.000468439
0.00843247
0.00841526
0.00844613
0.00849074
0.00848954
0.00850268
0.00851231
0.00852598
0.00852386
0.00850463
0.00845003
0.0084606
0.00848656
0.00856508
0.00866509
0.00873014
0.00881994
0.00889486
0.00894537
0.00896743
0.00896122
0.00893052
0.00887633
0.00879742
0.00869298
0.00856183
0.00840269
0.00822406
0.00801491
0.00777844
0.00752178
0.00724246
0.00695026
0.00664367
0.0063312
0.00601287
0.00569442
0.00537517
0.0050638
0.00475675
0.00446006
0.00417498
0.00390294
0.00364334
0.00340047
0.0031684
0.0029566
0.00275232
0.00256744
0.00239113
0.00223219
0.0020809
0.00194471
0.00181691
0.00170182
0.0015938
0.0014956
0.00140625
0.00132456
0.00125041
0.00118274
0.00112119
0.00106503
0.00101384
0.000967183
0.000924654
0.000885881
0.000850416
0.000817994
0.00078884
0.000761661
0.000737343
0.000714787
0.000694284
0.000675892
0.000658685
0.000643607
0.000629136
0.000616617
0.000604479
0.000593821
0.000583328
0.000574283
0.000565437
0.000557712
0.000550136
0.000543543
0.000537046
0.000531346
0.000525778
0.00052087
0.000516011
0.000511701
0.000507523
0.000504003
0.000500889
0.000498362
0.000495869
0.000493308
0.000490647
0.000487992
0.000485392
0.000483186
0.000481212
0.000479391
0.000477604
0.000475826
0.000474078
0.000472368
0.000470663
0.000468929
0.000467119
0.000465228
0.000463263
0.000461244
0.000459252
0.000457324
0.00045617
0.000455451
0.000455485
0.000455966
0.000452641
0.000451665
0.000450956
0.000448654
0.0004466
0.000444701
0.000442828
0.000441188
0.000439768
0.000438578
0.000437539
0.000436557
0.000435759
0.000435066
0.000434594
0.000434094
0.000433541
0.000432955
0.000432361
0.000431749
0.000431107
0.00043043
0.000429705
0.000428926
0.000428068
0.000427155
0.000426212
0.000425331
0.000424457
0.000423675
0.00042289
0.000422098
0.00042133
0.000420594
0.000420016
0.000419523
0.000419359
0.000419329
0.000419401
0.000419611
0.00041987
0.000419715
0.000419705
0.000419546
0.000419275
0.000418875
0.000418346
0.000417748
0.000417087
0.000416454
0.00041583
0.000415335
0.000414864
0.000414611
0.000414487
0.000414516
0.000414623
0.000414877
0.000415151
0.000415359
0.000415491
0.00041555
0.000415381
0.000415153
0.000414862
0.00041449
0.000414036
0.000413557
0.000413154
0.000412835
0.000412687
0.000412589
0.000412707
0.000412873
0.000413135
0.000413394
0.000413627
0.000413826
0.000413921
0.000413923
0.000413848
0.000413619
0.000413331
0.000413018
0.000412715
0.000412476
0.000412252
0.000412056
0.000412371
0.000412562
0.000412775
0.000413029
0.000413295
0.00041354
0.000413744
0.000413803
0.000413802
0.000413735
0.000413602
0.00041339
0.000413202
0.000412971
0.000412815
0.000412898
0.00041294
0.000413089
0.00041334
0.000413574
0.000413809
0.000414039
0.000414255
0.000414361
0.000414413
0.000414412
0.000414358
0.000414257
0.000414142
0.000413992
0.000413987
0.00841827
0.00841425
0.00844445
0.0084917
0.00849176
0.00851022
0.00852226
0.00851831
0.00849156
0.00843545
0.00843662
0.00847281
0.00850887
0.00855224
0.00867548
0.0088182
0.00891777
0.00898486
0.00902878
0.00904701
0.00903933
0.00900934
0.00895653
0.00887917
0.00877541
0.00864507
0.00848655
0.00830228
0.00809125
0.00785495
0.00759902
0.00732051
0.00702835
0.00672039
0.00640591
0.00608489
0.00576393
0.0054415
0.00512663
0.00481609
0.00451442
0.00422416
0.00394705
0.00368195
0.00343388
0.00319655
0.00298004
0.00277115
0.00258215
0.00240191
0.00223938
0.00208457
0.00194537
0.00181472
0.00169722
0.00158746
0.00148842
0.00139789
0.00131457
0.00123892
0.00116991
0.00110715
0.00104989
0.000997741
0.000950254
0.000907051
0.000867689
0.000831737
0.000798844
0.000769255
0.000741764
0.000717205
0.000694398
0.000673767
0.000655206
0.00063793
0.000622727
0.000608164
0.000595611
0.000583417
0.000572686
0.000562127
0.00055307
0.00054422
0.000536515
0.000528948
0.000522372
0.000515874
0.000510181
0.000504622
0.000499729
0.000494871
0.000490561
0.00048638
0.000482858
0.000479751
0.000477215
0.000474704
0.000472128
0.000469452
0.000466777
0.000464168
0.000461943
0.000459941
0.000458083
0.000456258
0.00045444
0.000452653
0.000450903
0.000449159
0.000447386
0.000445542
0.000443621
0.00044163
0.00043959
0.00043758
0.000435653
0.000434458
0.000433708
0.000433588
0.000433977
0.00043093
0.000429716
0.000428863
0.000426712
0.000424602
0.000422665
0.000420807
0.000419167
0.000417722
0.000416499
0.000415429
0.000414421
0.000413589
0.000412859
0.000412337
0.000411789
0.000411192
0.000410564
0.000409928
0.000409276
0.000408596
0.00040788
0.000407124
0.000406311
0.000405429
0.000404494
0.000403533
0.00040263
0.000401738
0.000400932
0.000400124
0.000399311
0.000398523
0.000397773
0.000397173
0.000396655
0.00039645
0.000396369
0.000396386
0.000396529
0.000396723
0.000396534
0.000396456
0.000396246
0.000395935
0.000395498
0.000394946
0.00039432
0.000393649
0.000393001
0.000392362
0.000391852
0.000391365
0.000391089
0.000390934
0.000390925
0.000390991
0.000391198
0.00039143
0.00039159
0.00039168
0.000391693
0.000391512
0.000391271
0.000390965
0.000390585
0.000390129
0.000389651
0.000389249
0.000388926
0.000388772
0.000388655
0.000388754
0.0003889
0.000389133
0.000389355
0.000389564
0.000389738
0.000389812
0.000389801
0.000389715
0.000389491
0.000389209
0.000388904
0.000388614
0.000388385
0.000388178
0.000388
0.000388282
0.000388477
0.000388679
0.000388918
0.000389171
0.000389403
0.000389595
0.000389652
0.000389654
0.000389594
0.000389473
0.000389277
0.000389105
0.000388899
0.000388756
0.000388844
0.0003889
0.000389051
0.0003893
0.000389536
0.00038977
0.000389998
0.000390211
0.00039032
0.000390379
0.000390387
0.000390346
0.000390261
0.000390167
0.000390041
0.000390064
0.00841871
0.00842992
0.00845196
0.00850011
0.00850126
0.00851772
0.00850793
0.00845141
0.00839927
0.00840316
0.00843723
0.00848641
0.00855756
0.0086759
0.00877484
0.00887814
0.00896473
0.00902953
0.00907317
0.00909338
0.0090882
0.0090616
0.00901248
0.00893821
0.00883811
0.00871187
0.0085583
0.00837782
0.00817043
0.00793719
0.00768261
0.0074049
0.00711302
0.00680373
0.00648814
0.00616453
0.00584222
0.00551534
0.00519643
0.00488173
0.00457459
0.00427915
0.00399691
0.00372587
0.00347257
0.00322974
0.00300856
0.00279446
0.00260055
0.00241565
0.00224914
0.00209008
0.00194742
0.00181339
0.00169311
0.00158033
0.00147877
0.00138611
0.00130107
0.00122402
0.00115386
0.00109009
0.00103195
0.000979012
0.000930904
0.000887243
0.000847603
0.000811382
0.00077838
0.000748673
0.00072112
0.000696578
0.000673689
0.000653181
0.000634625
0.000617529
0.000602399
0.000587934
0.000575551
0.000563501
0.000552862
0.000542389
0.000533488
0.000524779
0.000517211
0.000509789
0.00050335
0.000496976
0.00049141
0.000485982
0.000481224
0.000476481
0.000472292
0.000468219
0.000464818
0.000461835
0.000459409
0.000456998
0.000454521
0.000451948
0.000449376
0.000446878
0.000444755
0.000442836
0.000441057
0.000439307
0.000437561
0.000435847
0.000434165
0.000432489
0.000430786
0.000429014
0.000427167
0.00042525
0.00042329
0.000421352
0.000419532
0.000418378
0.000417704
0.000417497
0.000417833
0.000415278
0.000413869
0.000412898
0.000410982
0.000408905
0.000407005
0.000405236
0.000403662
0.000402254
0.000401057
0.000400012
0.000399035
0.000398226
0.000397515
0.000397001
0.000396462
0.00039588
0.000395269
0.000394648
0.000394011
0.000393346
0.000392644
0.000391907
0.000391111
0.000390246
0.000389333
0.000388393
0.000387509
0.000386635
0.000385842
0.000385046
0.000384249
0.000383478
0.000382748
0.000382164
0.00038166
0.000381456
0.000381364
0.000381371
0.000381485
0.00038167
0.000381491
0.000381384
0.000381168
0.000380856
0.000380423
0.000379873
0.000379255
0.000378593
0.000377955
0.000377325
0.000376821
0.000376338
0.000376064
0.000375901
0.000375877
0.000375929
0.000376113
0.000376326
0.000376468
0.000376539
0.000376536
0.000376359
0.000376117
0.000375812
0.000375437
0.00037499
0.000374523
0.000374127
0.000373807
0.000373652
0.000373531
0.000373621
0.000373756
0.000373972
0.000374179
0.00037437
0.000374532
0.000374595
0.000374578
0.000374489
0.000374273
0.000373999
0.000373702
0.000373424
0.0003732
0.000373009
0.000372842
0.000373095
0.0003733
0.000373497
0.000373726
0.00037397
0.000374194
0.00037438
0.000374436
0.000374441
0.000374387
0.000374277
0.000374093
0.000373931
0.000373744
0.000373607
0.000373692
0.00037376
0.00037391
0.000374155
0.000374392
0.000374626
0.000374854
0.000375066
0.000375176
0.00037524
0.000375254
0.000375221
0.000375146
0.000375063
0.000374953
0.00037499
0.0084111
0.00844311
0.00845987
0.00850648
0.00850351
0.00850644
0.00844952
0.00839302
0.00837796
0.00841699
0.00847228
0.00856005
0.00864192
0.00875299
0.0088494
0.00894988
0.00902906
0.00908913
0.00912964
0.00914917
0.00914489
0.00912006
0.00907301
0.00900145
0.00890497
0.00878216
0.00863222
0.00845476
0.00824989
0.00801807
0.0077644
0.00748661
0.00719429
0.00688239
0.00656461
0.00623691
0.00591206
0.00557919
0.00525542
0.00493544
0.00462127
0.00431978
0.00403199
0.00375401
0.00349444
0.00324471
0.00301835
0.00279831
0.00259939
0.00240973
0.00223981
0.00207618
0.00193034
0.00179329
0.00167102
0.00155553
0.00145249
0.00135835
0.00127228
0.00119449
0.00112383
0.00105978
0.00100133
0.000948313
0.000900245
0.000856855
0.000817599
0.000781707
0.000749319
0.000720007
0.00069292
0.000668894
0.000646345
0.000626428
0.000608269
0.000591765
0.000577061
0.000563041
0.000551159
0.000539565
0.000529307
0.000519209
0.000510737
0.000502436
0.000495273
0.000488237
0.000482163
0.000476111
0.000470873
0.000465754
0.000461303
0.000456834
0.000452939
0.000449134
0.000446018
0.0004433
0.000441109
0.000438915
0.000436653
0.000434305
0.000431957
0.000429694
0.000427782
0.000426047
0.000424442
0.00042286
0.00042128
0.000419733
0.000418205
0.000416678
0.000415116
0.000413485
0.000411779
0.000410006
0.00040819
0.000406393
0.00040475
0.000403698
0.000403154
0.000402908
0.000403207
0.000401197
0.000399665
0.000398618
0.000396958
0.000395009
0.000393206
0.000391571
0.000390109
0.000388779
0.00038765
0.000386667
0.000385761
0.000385015
0.000384361
0.000383887
0.00038339
0.000382858
0.000382302
0.000381731
0.000381143
0.000380527
0.000379872
0.000379185
0.000378437
0.000377622
0.00037676
0.000375869
0.000375032
0.000374201
0.000373445
0.000372683
0.000371924
0.000371194
0.000370507
0.000369964
0.000369496
0.000369317
0.000369235
0.000369253
0.000369358
0.000369556
0.000369417
0.000369302
0.0003691
0.000368806
0.000368399
0.000367875
0.000367284
0.000366649
0.000366037
0.000365432
0.00036495
0.000364489
0.000364231
0.000364075
0.000364053
0.000364105
0.000364281
0.000364485
0.000364628
0.000364693
0.000364691
0.000364529
0.0003643
0.000364002
0.00036364
0.000363212
0.000362768
0.000362388
0.000362079
0.00036193
0.000361816
0.000361907
0.000362036
0.000362243
0.000362444
0.000362629
0.000362787
0.000362841
0.000362824
0.00036274
0.000362536
0.000362274
0.000361988
0.000361726
0.000361511
0.000361338
0.000361186
0.000361416
0.000361626
0.000361827
0.00036205
0.000362288
0.000362508
0.00036269
0.000362749
0.000362759
0.000362712
0.000362613
0.000362443
0.00036229
0.000362125
0.000361994
0.000362073
0.000362154
0.000362304
0.000362544
0.000362784
0.00036302
0.000363249
0.000363461
0.000363574
0.000363643
0.000363663
0.000363638
0.000363572
0.000363499
0.0003634
0.00036345
0.00840157
0.00844099
0.00845705
0.008505
0.00849194
0.00845546
0.00839697
0.00836974
0.00839453
0.00845265
0.00853527
0.00862286
0.00872122
0.00883085
0.00892422
0.00901567
0.00908907
0.00914567
0.00918399
0.00920329
0.00920029
0.00917697
0.00913232
0.0090637
0.00897132
0.00885193
0.00870567
0.00853048
0.00832803
0.00809692
0.00784368
0.00756501
0.007272
0.00695617
0.00663552
0.0063025
0.00597463
0.00563384
0.00530408
0.00497786
0.00465448
0.00434447
0.0040494
0.0037632
0.00349801
0.00324093
0.00300881
0.00278144
0.00257686
0.00238158
0.00220765
0.00203901
0.00189054
0.00175088
0.00162723
0.00150847
0.00140575
0.00131105
0.00122428
0.0011471
0.00107656
0.00101334
0.000955255
0.000903013
0.000855849
0.000813637
0.000775496
0.000740659
0.000709623
0.00068136
0.000655423
0.000632502
0.000610881
0.000592126
0.000574885
0.000559486
0.000545647
0.00053254
0.000521569
0.0005108
0.000501302
0.00049197
0.000484303
0.000476705
0.000470201
0.000463773
0.000458274
0.000452719
0.000448002
0.000443354
0.00043937
0.000435319
0.000431876
0.000428471
0.000425777
0.000423428
0.000421562
0.000419654
0.000417687
0.000415653
0.000413636
0.000411715
0.000410101
0.000408626
0.000407264
0.000405917
0.000404571
0.000403258
0.00040195
0.000400634
0.000399277
0.00039785
0.000396348
0.000394783
0.000393164
0.000391582
0.000390191
0.000389297
0.000388927
0.000388685
0.000388934
0.000387484
0.000385936
0.000384856
0.000383451
0.000381712
0.00038007
0.000378607
0.000377293
0.000376074
0.000375046
0.000374151
0.000373347
0.000372696
0.000372127
0.000371717
0.000371284
0.000370829
0.000370356
0.000369864
0.000369349
0.000368808
0.000368224
0.000367611
0.000366938
0.000366197
0.000365411
0.000364592
0.000363828
0.00036306
0.000362361
0.000361646
0.00036095
0.000360277
0.000359653
0.00035917
0.000358758
0.000358621
0.000358564
0.000358608
0.000358717
0.000358941
0.000358861
0.000358748
0.000358579
0.000358317
0.000357953
0.00035747
0.000356923
0.00035633
0.000355758
0.000355191
0.000354744
0.00035432
0.000354092
0.000353953
0.000353949
0.000354011
0.000354192
0.000354395
0.00035455
0.000354621
0.000354634
0.000354495
0.000354291
0.000354005
0.000353666
0.000353266
0.000352856
0.000352502
0.000352213
0.000352076
0.000351979
0.00035208
0.000352207
0.000352417
0.000352618
0.000352805
0.000352965
0.000353014
0.000353005
0.000352934
0.000352746
0.0003525
0.000352233
0.000351989
0.000351788
0.000351638
0.000351508
0.000351717
0.000351936
0.000352144
0.000352367
0.000352603
0.000352822
0.000353004
0.000353069
0.000353087
0.000353049
0.000352963
0.000352813
0.00035267
0.000352529
0.000352407
0.000352479
0.000352577
0.00035273
0.000352965
0.00035321
0.00035345
0.000353681
0.000353895
0.000354012
0.000354089
0.000354117
0.0003541
0.000354044
0.000353981
0.000353896
0.000353958
0.00838063
0.00843163
0.00844562
0.00849215
0.00845158
0.00840351
0.00836827
0.0083788
0.00842767
0.00850347
0.00858944
0.00869397
0.00879758
0.00890221
0.00899313
0.0090779
0.00914698
0.0092006
0.00923703
0.009256
0.00925448
0.00923213
0.00919078
0.00912556
0.00903701
0.0089206
0.0087776
0.00860414
0.00840377
0.00817214
0.00791904
0.00763818
0.00734384
0.00702222
0.00669758
0.00635676
0.00602463
0.00567305
0.00533566
0.00500317
0.00466723
0.00434632
0.00404201
0.00374575
0.00347369
0.00320818
0.00296912
0.0027336
0.00252358
0.002323
0.00214474
0.00197072
0.00182111
0.00167981
0.00155634
0.00143343
0.00133356
0.00124096
0.00115338
0.00107882
0.00100963
0.000948591
0.000891944
0.000841583
0.000796087
0.000756019
0.000719929
0.000686935
0.000657928
0.000631384
0.000607366
0.000586188
0.000566175
0.000549219
0.000533453
0.000519732
0.000507213
0.000495544
0.000485895
0.000476342
0.000467988
0.000459821
0.000453295
0.000446692
0.000441148
0.000435618
0.000430942
0.000426128
0.000422169
0.00041822
0.000414921
0.000411514
0.000408729
0.00040589
0.000403759
0.000401889
0.000400431
0.000398881
0.000397304
0.000395678
0.000394096
0.000392614
0.000391376
0.000390225
0.00038916
0.000388101
0.000387051
0.000386034
0.000385002
0.00038395
0.000382846
0.000381673
0.000380424
0.00037912
0.000377738
0.000376446
0.000375368
0.000374686
0.000374499
0.00037429
0.000374508
0.000373562
0.000372152
0.000371046
0.000369886
0.000368443
0.000367009
0.000365747
0.000364608
0.000363531
0.000362633
0.000361859
0.000361189
0.000360656
0.000360198
0.000359875
0.000359528
0.000359175
0.000358809
0.000358419
0.000358
0.000357554
0.000357067
0.000356544
0.000355967
0.000355322
0.000354634
0.000353912
0.000353236
0.000352551
0.000351924
0.000351272
0.000350656
0.000350058
0.000349516
0.000349111
0.000348771
0.000348688
0.00034867
0.000348752
0.000348871
0.000349131
0.000349134
0.000349036
0.000348907
0.000348694
0.000348384
0.000347955
0.000347462
0.000346929
0.000346413
0.000345895
0.000345495
0.000345123
0.000344937
0.000344822
0.000344848
0.000344938
0.000345126
0.000345334
0.000345512
0.000345601
0.000345635
0.000345532
0.000345353
0.000345095
0.000344789
0.000344427
0.000344061
0.000343741
0.000343481
0.000343366
0.000343292
0.000343415
0.000343546
0.00034376
0.000343969
0.000344166
0.000344333
0.000344386
0.000344391
0.000344338
0.000344174
0.00034395
0.000343707
0.000343487
0.000343305
0.000343183
0.000343081
0.000343275
0.000343504
0.000343725
0.000343953
0.000344192
0.000344413
0.000344599
0.000344673
0.000344702
0.000344678
0.000344608
0.00034448
0.000344352
0.000344237
0.000344129
0.000344195
0.000344314
0.000344473
0.000344705
0.000344956
0.000345203
0.000345439
0.000345657
0.000345781
0.000345867
0.000345904
0.000345897
0.000345854
0.000345803
0.000345732
0.000345809
0.00834592
0.00841783
0.00841478
0.00844137
0.00840269
0.00836558
0.00836513
0.00840192
0.00846716
0.00854977
0.0086518
0.00876158
0.00886644
0.00896641
0.00905519
0.00913478
0.00920048
0.00925172
0.00928684
0.00930538
0.00930595
0.00928535
0.00924763
0.00918535
0.0091004
0.00898644
0.00884647
0.00867388
0.00847505
0.00824169
0.00798801
0.0077033
0.00740622
0.00707531
0.006746
0.00639686
0.00605811
0.00569084
0.00534102
0.0050001
0.00465015
0.00431617
0.00399982
0.0036912
0.00341015
0.00313571
0.00288886
0.00264462
0.00243149
0.00222831
0.00204825
0.00186749
0.00172037
0.00158006
0.00145915
0.00133459
0.00123816
0.00114973
0.00106467
0.000993347
0.000927466
0.000869503
0.000815717
0.000768202
0.000725316
0.00068816
0.000655099
0.000624668
0.000598385
0.000573997
0.000552479
0.000533315
0.00051531
0.000500483
0.000486441
0.000474733
0.000463678
0.000453806
0.000445594
0.000437487
0.000430385
0.000423588
0.00041823
0.000412827
0.00040844
0.00040401
0.000400378
0.000396475
0.000393524
0.000390395
0.000387982
0.000385358
0.000383442
0.000381305
0.000379929
0.000378593
0.000377664
0.000376531
0.000375534
0.00037441
0.000373388
0.000372411
0.000371618
0.000370835
0.00037012
0.000369399
0.000368704
0.000368028
0.000367312
0.000366556
0.000365758
0.000364864
0.000363917
0.000362905
0.000361801
0.000360871
0.000360171
0.000359742
0.000359735
0.000359551
0.000359772
0.000359233
0.000358102
0.000357031
0.00035607
0.000354952
0.000353823
0.000352766
0.000351834
0.000350912
0.000350181
0.000349536
0.000349026
0.000348632
0.000348302
0.000348079
0.000347828
0.000347603
0.000347361
0.000347089
0.000346786
0.000346449
0.000346076
0.000345656
0.000345192
0.000344657
0.000344089
0.000343481
0.000342917
0.000342325
0.000341793
0.00034121
0.000340696
0.000340183
0.000339748
0.000339427
0.000339182
0.000339159
0.000339186
0.000339328
0.000339485
0.000339759
0.000339835
0.000339797
0.000339708
0.000339553
0.000339311
0.000338946
0.000338523
0.000338058
0.000337612
0.000337157
0.000336814
0.000336506
0.000336369
0.000336286
0.000336368
0.000336475
0.00033668
0.000336907
0.000337113
0.000337228
0.000337287
0.000337227
0.000337083
0.000336865
0.0003366
0.000336284
0.000335972
0.000335696
0.000335474
0.000335381
0.000335346
0.000335487
0.000335637
0.000335857
0.000336083
0.000336294
0.000336471
0.000336539
0.000336563
0.000336532
0.000336401
0.000336203
0.00033599
0.0003358
0.000335642
0.000335558
0.000335484
0.000335672
0.000335911
0.000336148
0.000336388
0.000336633
0.00033686
0.000337053
0.00033714
0.000337186
0.000337177
0.000337128
0.000337026
0.000336916
0.000336832
0.000336741
0.000336806
0.000336947
0.000337114
0.000337346
0.000337607
0.000337863
0.000338105
0.000338329
0.000338463
0.000338561
0.000338611
0.000338617
0.000338588
0.000338552
0.000338497
0.000338591
0.00830572
0.00839628
0.00836907
0.00838276
0.00835445
0.00834858
0.00837421
0.00842854
0.00850363
0.00860143
0.00871119
0.00882261
0.00892668
0.0090231
0.0091093
0.00918532
0.00924846
0.0092978
0.00933214
0.00935119
0.0093545
0.00933548
0.00930104
0.0092415
0.00915991
0.00904768
0.00891034
0.00873722
0.00853951
0.00830236
0.0080455
0.00775512
0.00745717
0.00711483
0.00677509
0.00641145
0.00606208
0.00567731
0.0053106
0.00495399
0.00458651
0.00423883
0.00390937
0.00359165
0.00330145
0.0030199
0.00276611
0.00251143
0.00229994
0.00209794
0.00192114
0.00173542
0.00159377
0.00145791
0.00134358
0.00122285
0.00112753
0.00104591
0.000966755
0.000899908
0.00083838
0.000784968
0.000735319
0.000691465
0.000652163
0.000618513
0.000589034
0.000561738
0.000538436
0.000516501
0.000497933
0.000480621
0.000465067
0.000452153
0.000439875
0.00043002
0.000420293
0.000412121
0.000405193
0.000398179
0.000392451
0.000386731
0.0003826
0.000377959
0.000374909
0.000371255
0.000368786
0.000365566
0.000363678
0.000361233
0.000359722
0.000357779
0.000356783
0.000355316
0.000354777
0.000354035
0.00035364
0.000352966
0.000352619
0.00035206
0.000351676
0.000351276
0.000350955
0.000350605
0.000350274
0.00034997
0.000349679
0.000349378
0.000349004
0.000348568
0.000348097
0.000347522
0.000346897
0.000346217
0.000345417
0.000344917
0.000344639
0.000344471
0.000344575
0.000344531
0.000344773
0.00034447
0.000343678
0.000342758
0.000342009
0.000341225
0.000340429
0.000339602
0.000338893
0.000338138
0.000337609
0.00033709
0.000336772
0.000336521
0.000336334
0.000336222
0.00033607
0.00033599
0.000335883
0.00033574
0.000335565
0.000335352
0.000335103
0.000334802
0.00033446
0.000334052
0.000333614
0.000333138
0.000332699
0.000332212
0.000331788
0.000331281
0.000330883
0.000330469
0.000330153
0.000329928
0.000329798
0.000329843
0.000329926
0.000330115
0.000330321
0.000330629
0.000330778
0.000330805
0.000330779
0.000330684
0.000330508
0.000330224
0.000329883
0.000329502
0.000329133
0.000328752
0.000328476
0.000328245
0.000328159
0.000328124
0.000328255
0.000328398
0.000328624
0.000328873
0.000329111
0.000329258
0.000329348
0.000329338
0.00032925
0.000329069
0.000328855
0.000328591
0.000328342
0.000328118
0.000327937
0.000327883
0.000327888
0.00032805
0.000328225
0.000328459
0.000328704
0.000328936
0.000329128
0.000329217
0.000329264
0.00032926
0.000329166
0.000329005
0.000328827
0.000328671
0.000328542
0.000328504
0.000328459
0.000328649
0.000328899
0.000329155
0.000329411
0.000329668
0.000329903
0.000330107
0.000330211
0.000330276
0.000330288
0.000330261
0.000330189
0.000330103
0.000330053
0.000329983
0.000330051
0.000330215
0.000330395
0.00033063
0.000330901
0.000331168
0.00033142
0.000331652
0.000331798
0.00033191
0.000331976
0.000331997
0.000331986
0.000331968
0.000331931
0.000332046
0.00826557
0.00835924
0.00832525
0.00832924
0.0083234
0.00834319
0.00838842
0.00845545
0.00854029
0.00865136
0.00876428
0.0088757
0.00897789
0.00907158
0.00915542
0.00922872
0.00928994
0.00933812
0.00937273
0.00939292
0.00939827
0.00938131
0.0093497
0.00929247
0.00921395
0.00910216
0.00896664
0.00879116
0.00859203
0.00835093
0.00809297
0.00779128
0.00748633
0.00712702
0.00677171
0.00638713
0.00602046
0.00561412
0.00522968
0.00485463
0.0044673
0.0041109
0.00376702
0.00344406
0.0031458
0.002857
0.00260643
0.00234243
0.00213806
0.00194158
0.00177367
0.00159234
0.00145665
0.00132632
0.0012222
0.00111236
0.00101623
0.000942201
0.000872993
0.000812451
0.000756821
0.000708733
0.000663931
0.000624041
0.000588833
0.000558826
0.000532727
0.000509031
0.000488254
0.000468839
0.000452677
0.000436954
0.000423382
0.000412013
0.000401213
0.00039259
0.000383844
0.000376783
0.000370904
0.000364135
0.000359866
0.000354768
0.000351292
0.00034689
0.000344878
0.000341523
0.00033988
0.000337038
0.000335819
0.00033385
0.000332826
0.000331455
0.000330938
0.00033005
0.000330071
0.000329735
0.000329653
0.000329339
0.000329485
0.000329425
0.000329629
0.000329776
0.000329917
0.000329975
0.000330047
0.000330169
0.000330285
0.000330357
0.000330339
0.00033026
0.000330115
0.000329889
0.000329603
0.000329249
0.000328814
0.000328764
0.000328895
0.000329023
0.000329192
0.000329268
0.000329501
0.000329471
0.000329008
0.000328284
0.000327783
0.000327354
0.000326847
0.000326299
0.000325806
0.000325265
0.000324907
0.00032456
0.000324411
0.00032432
0.000324282
0.000324284
0.000324247
0.000324312
0.000324345
0.000324342
0.000324303
0.000324223
0.000324103
0.000323932
0.000323717
0.000323448
0.000323146
0.000322817
0.000322504
0.000322143
0.000321822
0.000321416
0.000321128
0.000320841
0.000320642
0.000320524
0.000320514
0.00032063
0.000320781
0.000321024
0.000321289
0.000321625
0.000321851
0.00032195
0.000321989
0.000321964
0.000321874
0.000321677
0.000321422
0.000321132
0.00032085
0.000320556
0.000320351
0.000320194
0.000320182
0.000320201
0.000320375
0.000320566
0.000320816
0.000321091
0.000321364
0.000321547
0.000321679
0.000321725
0.000321685
0.000321564
0.000321403
0.000321199
0.00032102
0.000320853
0.000320722
0.000320718
0.000320758
0.000320948
0.000321152
0.000321406
0.000321674
0.000321929
0.00032214
0.000322257
0.000322332
0.000322359
0.000322306
0.000322187
0.00032205
0.000321937
0.000321842
0.000321851
0.00032184
0.000322039
0.0003223
0.000322577
0.000322855
0.000323126
0.000323373
0.00032359
0.000323715
0.000323803
0.000323838
0.000323838
0.000323799
0.000323742
0.000323728
0.000323684
0.000323759
0.000323949
0.000324143
0.000324384
0.000324666
0.000324947
0.000325211
0.000325454
0.000325615
0.000325744
0.000325826
0.000325866
0.000325876
0.000325878
0.000325862
0.000326002
0.00822965
0.00832087
0.00828514
0.00828796
0.00830272
0.00834253
0.00840222
0.00847978
0.00857976
0.00869507
0.00881053
0.00891997
0.00902017
0.00911154
0.00919328
0.00926459
0.00932463
0.0093726
0.00940817
0.00942892
0.00943598
0.00942164
0.00939242
0.00933659
0.00926059
0.00914709
0.00901111
0.00883326
0.0086353
0.00838417
0.00811948
0.0077981
0.00747714
0.00709398
0.00671842
0.00631046
0.0059216
0.0054907
0.00509169
0.00469795
0.0042817
0.0039365
0.00358607
0.00324838
0.002954
0.00265996
0.00242249
0.00216069
0.00196482
0.00177337
0.00162271
0.00145722
0.00132911
0.00120556
0.00111129
0.00101641
0.000924385
0.000858266
0.000797005
0.000743522
0.000693793
0.000650027
0.000609456
0.000574433
0.000543092
0.000515429
0.00049257
0.000471127
0.000452905
0.000435108
0.000420642
0.000406261
0.000393473
0.000383478
0.000373173
0.000365589
0.000357334
0.000351353
0.000345064
0.000338365
0.000335221
0.000330305
0.000327028
0.000322795
0.000320999
0.000317795
0.000316303
0.000313709
0.00031253
0.0003108
0.000309867
0.000308673
0.000308457
0.000307787
0.00030796
0.000307758
0.000307748
0.000307516
0.000307902
0.000308109
0.000308698
0.000309206
0.000309666