/*--------------------------------*- C++ -*----------------------------------*\
| =========                 |                                                 |
| \\      /  F ield         | OpenFOAM: The Open Source CFD Toolbox           |
|  \\    /   O peration     | Version:  2312                                  |
|   \\  /    A nd           | Website:  www.openfoam.com                      |
|    \\/     M anipulation  |                                                 |
\*---------------------------------------------------------------------------*/
FoamFile
{
    version     2.0;
    format      ascii;
    arch        "LSB;label=32;scalar=64";
    class       volVectorField;
    location    "0.003";
    object      U;
}
// * * * * * * * * * * * * * * * * * * * * * * * * * * * * * * * * * * * * * //

dimensions      [0 1 -1 0 0 0 0];

internalField   nonuniform List<vector> 
48128
(
(12.3456 -4.84915 0)
(17.3468 -2.61643 0)
(20.4766 -0.340307 0)
(19.9408 0.574115 0)
(18.6779 0.705296 0)
(17.2863 0.743564 0)
(15.6488 0.702454 0)
(13.8344 0.717657 0)
(11.3107 1.21482 0)
(6.24089 3.1535 0)
(-3.30226 5.38591 0)
(-19.1732 7.78534 0)
(-42.9837 10.3401 0)
(-69.212 9.95547 0)
(-91.5689 7.52744 0)
(-109.775 4.67077 0)
(-124.379 3.66038 0)
(-136.12 3.00949 0)
(-145.923 2.61633 0)
(-154.246 2.33541 0)
(-161.291 2.14253 0)
(-167.49 2.00805 0)
(-173 1.89574 0)
(-177.797 1.80159 0)
(-181.893 1.7127 0)
(-185.288 1.63626 0)
(-187.965 1.64703 0)
(-189.824 1.81825 0)
(-190.888 1.66893 0)
(-191.305 1.51221 0)
(-190.99 1.15596 0)
(-189.729 0.919166 0)
(-187.701 0.68458 0)
(-184.891 0.403893 0)
(-181.358 0.218108 0)
(-177.181 -0.0345133 0)
(-172.343 -0.229178 0)
(-166.715 -0.65912 0)
(-160.334 -0.918744 0)
(-153.498 -1.22623 0)
(-145.834 -1.62204 0)
(-137.576 -1.88212 0)
(-128.928 -2.13731 0)
(-119.776 -2.48103 0)
(-110.115 -2.70731 0)
(-100.256 -2.95171 0)
(-90.1018 -3.06311 0)
(-79.9301 -3.35637 0)
(-69.2099 -3.58789 0)
(-58.3455 -3.82966 0)
(-47.4442 -3.83798 0)
(-36.5858 -4.08418 0)
(-25.4785 -4.22098 0)
(-14.1669 -4.4745 0)
(-2.93117 -4.43671 0)
(8.14601 -4.23121 0)
(19.4171 -3.70624 0)
(30.6341 -3.24689 0)
(41.8013 -3.27189 0)
(52.8341 -3.25948 0)
(63.719 -3.25013 0)
(74.3615 -3.19387 0)
(84.7143 -3.12595 0)
(94.7969 -3.05877 0)
(104.642 -2.9946 0)
(114.317 -2.94978 0)
(123.78 -2.87829 0)
(133.007 -2.80714 0)
(142.057 -2.76015 0)
(150.689 -2.71835 0)
(159.174 -2.6372 0)
(167.254 -2.51048 0)
(175.094 -2.4383 0)
(182.767 -2.33536 0)
(190.109 -2.24956 0)
(197.398 -2.16414 0)
(204.249 -2.05192 0)
(211.034 -1.97685 0)
(217.446 -1.87584 0)
(223.725 -1.78135 0)
(229.568 -1.66677 0)
(235.226 -1.59266 0)
(240.611 -1.50635 0)
(245.875 -1.43874 0)
(250.861 -1.35596 0)
(255.687 -1.29411 0)
(260.266 -1.21256 0)
(264.651 -1.15084 0)
(268.81 -1.08155 0)
(272.841 -1.03375 0)
(276.701 -0.966801 0)
(280.354 -0.914395 0)
(283.82 -0.856139 0)
(287.169 -0.814375 0)
(290.43 -0.772926 0)
(293.66 -0.740971 0)
(296.813 -0.695047 0)
(299.778 -0.644254 0)
(302.495 -0.593426 0)
(304.956 -0.547985 0)
(307.219 -0.509614 0)
(309.401 -0.486727 0)
(311.568 -0.462385 0)
(313.674 -0.43696 0)
(315.697 -0.410327 0)
(317.615 -0.382753 0)
(319.404 -0.357272 0)
(321.088 -0.334117 0)
(322.683 -0.314599 0)
(324.199 -0.293185 0)
(325.595 -0.275823 0)
(326.894 -0.256567 0)
(328.072 -0.24064 0)
(329.154 -0.224494 0)
(330.155 -0.212919 0)
(331.082 -0.198341 0)
(332.074 -0.206353 0)
(333.144 -0.189627 0)
(334.28 -0.199879 0)
(335.606 -0.168715 0)
(337.524 -0.176794 0)
(337.508 -0.118866 0)
(338.016 -0.0921441 0)
(339.111 -0.125901 0)
(339.076 -0.0922804 0)
(339.299 -0.0907192 0)
(339.611 -0.101503 0)
(339.975 -0.106827 0)
(340.389 -0.104418 0)
(340.85 -0.102373 0)
(341.346 -0.0978949 0)
(341.854 -0.0929268 0)
(342.367 -0.0881574 0)
(342.886 -0.0826674 0)
(343.416 -0.0768175 0)
(343.952 -0.0705431 0)
(344.473 -0.0624906 0)
(344.896 -0.0545498 0)
(345.285 -0.0486388 0)
(345.626 -0.0453569 0)
(345.957 -0.0409642 0)
(346.237 -0.0384782 0)
(346.483 -0.0335519 0)
(346.7 -0.0347794 0)
(346.879 -0.0279273 0)
(347.001 -0.0231699 0)
(347.076 -0.0191469 0)
(347.109 -0.0134529 0)
(347.144 -0.0108391 0)
(347.173 -0.00971688 0)
(347.211 -0.0071758 0)
(347.221 -0.00384629 0)
(347.212 -0.00222217 0)
(347.191 -0.00115282 0)
(347.192 -0.00250549 0)
(347.209 -0.000689608 0)
(347.262 -0.00155682 0)
(347.345 0.00311623 0)
(347.471 0.0046751 0)
(347.609 0.00606888 0)
(347.768 0.00985171 0)
(347.924 0.0163938 0)
(347.91 0.015208 0)
(347.919 0.0190387 0)
(347.896 0.0203205 0)
(347.806 0.0207667 0)
(347.676 0.0236737 0)
(347.491 0.022396 0)
(347.286 0.0231002 0)
(347.06 0.0200225 0)
(346.857 0.0179517 0)
(346.657 0.0150438 0)
(346.516 0.0106135 0)
(346.369 0.0127961 0)
(346.323 0.00357913 0)
(346.275 0.0110982 0)
(346.29 0.00742639 0)
(346.311 0.00926883 0)
(346.372 0.0107922 0)
(346.419 0.0141561 0)
(346.406 0.0184591 0)
(346.365 0.0172891 0)
(346.292 0.0249739 0)
(346.152 0.0179436 0)
(345.979 0.0206817 0)
(345.787 0.0196873 0)
(345.571 0.0188771 0)
(345.334 0.0186686 0)
(345.091 0.0160964 0)
(344.894 0.0133638 0)
(344.725 0.0113446 0)
(344.627 0.00802913 0)
(344.5 0.0131146 0)
(344.507 0.00638515 0)
(344.483 0.0101732 0)
(344.497 0.00961821 0)
(344.479 0.0129119 0)
(344.438 0.0147309 0)
(344.368 0.017063 0)
(344.266 0.0172035 0)
(344.131 0.0171618 0)
(343.962 0.0179753 0)
(343.743 0.0164745 0)
(343.508 0.0167029 0)
(343.266 0.0142427 0)
(343.049 0.013095 0)
(342.856 0.0102869 0)
(342.682 0.00966175 0)
(342.467 0.00974033 0)
(342.504 0.00588047 0)
(342.472 0.00837656 0)
(342.428 0.00987318 0)
(342.382 0.0106437 0)
(342.322 0.0119497 0)
(342.243 0.0131809 0)
(342.134 0.0149983 0)
(341.995 0.0145944 0)
(341.826 0.0154582 0)
(341.634 0.0140781 0)
(341.423 0.0144782 0)
(341.187 0.0128187 0)
(340.978 0.011774 0)
(340.76 0.0108669 0)
(340.574 0.00833446 0)
(340.475 0.00742337 0)
(340.364 0.00750318 0)
(340.245 0.00867448 0)
(340.203 0.00741882 0)
(340.137 0.00902314 0)
(340.055 0.0103576 0)
(339.957 0.0113997 0)
(339.833 0.0131865 0)
(339.687 0.0130126 0)
(339.517 0.0132447 0)
(339.327 0.012869 0)
(339.124 0.0116002 0)
(338.909 0.0116599 0)
(338.693 0.00991138 0)
(338.49 0.00857605 0)
(338.239 0.0091215 0)
(13.3782 -13.406 0)
(14.7568 -3.95843 0)
(18.8309 -0.730874 0)
(18.7821 0.857778 0)
(17.4215 1.30776 0)
(14.9039 1.82373 0)
(10.4341 2.31187 0)
(3.1674 2.97286 0)
(-8.30452 4.45226 0)
(-25.9062 8.06496 0)
(-51.5033 11.333 0)
(-79.0332 15.7044 0)
(-101.863 18.2114 0)
(-119.707 15.0936 0)
(-133.708 11.7544 0)
(-144.129 10.5771 0)
(-152.604 8.48148 0)
(-160.037 7.06954 0)
(-166.238 6.05829 0)
(-171.364 5.32568 0)
(-175.484 4.75681 0)
(-178.88 4.34621 0)
(-181.728 3.97636 0)
(-183.957 3.64513 0)
(-185.567 3.326 0)
(-186.55 3.02093 0)
(-186.916 2.76617 0)
(-186.712 2.50492 0)
(-185.742 2.17837 0)
(-183.867 1.87173 0)
(-181.262 1.4702 0)
(-177.947 1.10805 0)
(-173.826 0.758945 0)
(-168.978 0.348701 0)
(-163.397 0.0574697 0)
(-157.231 -0.29272 0)
(-150.437 -0.563237 0)
(-142.955 -1.07655 0)
(-134.769 -1.4028 0)
(-126.139 -1.75845 0)
(-116.843 -2.30286 0)
(-107.001 -2.6897 0)
(-96.7863 -3.03554 0)
(-86.2014 -3.5135 0)
(-75.2527 -3.84282 0)
(-64.1216 -4.21772 0)
(-52.6938 -4.38413 0)
(-41.2576 -4.79803 0)
(-29.3445 -5.13091 0)
(-17.3384 -5.49198 0)
(-5.25667 -5.51846 0)
(6.7368 -5.86065 0)
(18.9166 -6.05269 0)
(31.1792 -6.40325 0)
(43.3154 -6.34953 0)
(55.2377 -6.55123 0)
(67.2977 -6.90906 0)
(79.2375 -7.01991 0)
(91.0565 -7.11159 0)
(102.676 -7.09436 0)
(114.084 -7.0848 0)
(125.188 -6.9806 0)
(135.96 -6.86293 0)
(146.43 -6.75328 0)
(156.639 -6.65172 0)
(166.646 -6.57522 0)
(176.381 -6.43568 0)
(185.847 -6.30081 0)
(195.125 -6.1228 0)
(204.02 -5.89613 0)
(212.744 -5.74362 0)
(221.057 -5.48174 0)
(229.089 -5.35145 0)
(236.925 -5.13852 0)
(244.404 -4.9691 0)
(251.799 -4.78781 0)
(258.753 -4.55438 0)
(265.61 -4.41461 0)
(272.113 -4.18864 0)
(278.441 -3.99008 0)
(284.375 -3.76091 0)
(290.097 -3.62827 0)
(295.578 -3.44495 0)
(300.895 -3.30506 0)
(305.976 -3.12111 0)
(310.851 -2.98601 0)
(315.532 -2.80171 0)
(319.976 -2.67179 0)
(324.248 -2.52065 0)
(328.337 -2.41523 0)
(332.315 -2.26777 0)
(336.058 -2.15805 0)
(339.671 -2.03398 0)
(343.129 -1.944 0)
(346.53 -1.84732 0)
(349.85 -1.76191 0)
(353.122 -1.651 0)
(356.214 -1.54356 0)
(359.095 -1.44199 0)
(361.746 -1.3528 0)
(364.222 -1.2779 0)
(366.608 -1.22193 0)
(368.968 -1.15786 0)
(371.26 -1.09647 0)
(373.475 -1.03586 0)
(375.593 -0.977556 0)
(377.599 -0.924764 0)
(379.508 -0.875632 0)
(381.334 -0.831193 0)
(383.084 -0.786085 0)
(384.728 -0.748399 0)
(386.278 -0.708516 0)
(387.722 -0.676259 0)
(389.07 -0.642997 0)
(390.35 -0.614559 0)
(391.54 -0.588052 0)
(392.772 -0.577797 0)
(394.054 -0.532304 0)
(395.386 -0.524962 0)
(396.85 -0.433535 0)
(398.835 -0.594367 0)
(399.23 -0.327853 0)
(400.027 -0.27462 0)
(401.276 -0.428726 0)
(401.633 -0.331363 0)
(402.155 -0.321301 0)
(402.734 -0.348974 0)
(403.34 -0.347905 0)
(403.969 -0.325695 0)
(404.624 -0.310532 0)
(405.298 -0.295546 0)
(405.979 -0.283295 0)
(406.655 -0.268662 0)
(407.332 -0.251701 0)
(408.015 -0.235197 0)
(408.703 -0.219444 0)
(409.376 -0.203772 0)
(409.972 -0.191368 0)
(410.536 -0.178581 0)
(411.057 -0.169047 0)
(411.562 -0.158547 0)
(412.022 -0.15095 0)
(412.446 -0.141951 0)
(412.838 -0.138973 0)
(413.195 -0.12843 0)
(413.507 -0.121319 0)
(413.791 -0.114587 0)
(414.049 -0.105764 0)
(414.309 -0.0989452 0)
(414.564 -0.0943297 0)
(414.825 -0.0855823 0)
(415.067 -0.0807151 0)
(415.292 -0.0763096 0)
(415.505 -0.0715605 0)
(415.724 -0.0696633 0)
(415.954 -0.0593206 0)
(416.208 -0.0528992 0)
(416.482 -0.0382717 0)
(416.783 -0.0289418 0)
(417.094 -0.0238265 0)
(417.418 -0.0138976 0)
(417.755 -0.0167155 0)
(417.939 -0.00251987 0)
(418.138 0.000844776 0)
(418.348 -0.0015329 0)
(418.448 -0.00337093 0)
(418.559 -0.00169078 0)
(418.577 -0.00222777 0)
(418.597 -0.00393169 0)
(418.589 -0.00452582 0)
(418.587 -0.0061021 0)
(418.593 -0.00771261 0)
(418.61 -0.00802248 0)
(418.645 -0.00472895 0)
(418.71 -0.0077359 0)
(418.788 0.00621229 0)
(418.892 0.00216921 0)
(419.008 0.0085082 0)
(419.154 0.0127728 0)
(419.286 0.0161485 0)
(419.391 0.0256363 0)
(419.45 0.0231545 0)
(419.513 0.0240973 0)
(419.487 0.0167812 0)
(419.446 0.0219539 0)
(419.387 0.020193 0)
(419.305 0.0176501 0)
(419.2 0.0154704 0)
(419.088 0.0132062 0)
(418.993 0.0117171 0)
(418.917 0.010631 0)
(418.882 0.00946562 0)
(418.839 0.0195067 0)
(418.865 0.0106998 0)
(418.88 0.020203 0)
(418.918 0.0190195 0)
(418.941 0.0254903 0)
(418.94 0.0281364 0)
(418.92 0.0304262 0)
(418.878 0.0298164 0)
(418.811 0.0293226 0)
(418.718 0.0259337 0)
(418.582 0.0248022 0)
(418.429 0.0248681 0)
(418.267 0.0220413 0)
(418.112 0.0201102 0)
(417.968 0.0187559 0)
(417.83 0.0152878 0)
(417.646 0.0267557 0)
(417.658 0.0143708 0)
(417.626 0.0199268 0)
(417.582 0.0250468 0)
(417.536 0.0276233 0)
(417.482 0.0301492 0)
(417.416 0.0317714 0)
(417.329 0.0333516 0)
(417.22 0.0311249 0)
(417.086 0.0308004 0)
(416.934 0.0277311 0)
(416.764 0.027536 0)
(416.572 0.0260886 0)
(416.389 0.0235408 0)
(416.2 0.0222809 0)
(416.016 0.0258485 0)
(415.904 0.0195768 0)
(415.782 0.0215227 0)
(415.651 0.0267705 0)
(415.582 0.0245393 0)
(415.496 0.0271184 0)
(415.4 0.0294722 0)
(415.294 0.0308909 0)
(415.17 0.033292 0)
(415.029 0.0312651 0)
(414.87 0.0306149 0)
(414.695 0.0291521 0)
(414.506 0.0268895 0)
(414.306 0.026047 0)
(414.102 0.0235619 0)
(413.9 0.0226696 0)
(413.63 0.0254579 0)
(9.42514 -20.5182 0)
(10.7749 -6.61642 0)
(15.174 -1.73055 0)
(14.7941 1.50499 0)
(11.9649 2.8094 0)
(6.99548 4.72417 0)
(-1.82928 7.31673 0)
(-16.1478 11.1363 0)
(-38.1957 16.6138 0)
(-65.0807 22.553 0)
(-87.9895 28.7299 0)
(-105.955 28.9597 0)
(-118.516 27.6786 0)
(-127.131 23.7311 0)
(-134.135 19.1353 0)
(-142.083 15.8776 0)
(-148.56 12.9713 0)
(-153.811 10.7091 0)
(-158.232 9.07232 0)
(-161.913 7.90706 0)
(-164.778 6.95937 0)
(-167.17 6.28401 0)
(-169.054 5.67043 0)
(-170.399 5.12086 0)
(-171.187 4.62817 0)
(-171.418 4.15448 0)
(-170.948 3.62087 0)
(-169.755 3.01531 0)
(-167.887 2.44869 0)
(-165.208 1.81854 0)
(-161.806 1.18012 0)
(-157.702 0.566056 0)
(-152.791 -0.0941329 0)
(-147.159 -0.837381 0)
(-140.751 -1.45644 0)
(-133.729 -2.14543 0)
(-126.045 -2.77778 0)
(-117.713 -3.70321 0)
(-108.647 -4.38552 0)
(-99.1382 -5.09987 0)
(-89.021 -6.05524 0)
(-78.3118 -6.78816 0)
(-67.2107 -7.41655 0)
(-55.7776 -8.21928 0)
(-43.9976 -8.78989 0)
(-32.0572 -9.46396 0)
(-19.8071 -9.79264 0)
(-7.56808 -10.5222 0)
(5.11624 -11.1067 0)
(17.8628 -11.7512 0)
(30.6862 -11.8249 0)
(43.3716 -12.4057 0)
(56.2235 -12.7238 0)
(69.0654 -13.2921 0)
(81.6943 -13.1735 0)
(94.115 -13.3835 0)
(106.61 -13.6671 0)
(118.851 -13.6021 0)
(130.927 -13.6995 0)
(142.747 -13.6208 0)
(154.309 -13.5583 0)
(165.497 -13.3205 0)
(176.31 -13.0718 0)
(186.785 -12.8339 0)
(196.972 -12.6148 0)
(206.924 -12.4371 0)
(216.542 -12.1316 0)
(225.857 -11.8608 0)
(234.933 -11.5429 0)
(243.539 -11.1486 0)
(251.953 -10.8591 0)
(259.916 -10.3778 0)
(267.594 -10.0965 0)
(275.059 -9.69411 0)
(282.164 -9.36475 0)
(289.17 -9.01943 0)
(295.738 -8.59835 0)
(302.187 -8.31118 0)
(308.324 -7.90609 0)
(314.245 -7.54923 0)
(319.812 -7.13603 0)
(325.155 -6.87379 0)
(330.303 -6.5351 0)
(335.253 -6.27216 0)
(340.003 -5.94069 0)
(344.518 -5.68833 0)
(348.88 -5.36147 0)
(352.985 -5.12039 0)
(356.955 -4.84493 0)
(360.74 -4.64347 0)
(364.438 -4.38539 0)
(367.906 -4.18692 0)
(371.267 -3.96382 0)
(374.481 -3.78982 0)
(377.651 -3.60239 0)
(380.732 -3.43412 0)
(383.776 -3.2377 0)
(386.637 -3.05266 0)
(389.317 -2.87976 0)
(391.793 -2.72716 0)
(394.116 -2.59058 0)
(396.361 -2.47519 0)
(398.58 -2.34931 0)
(400.732 -2.23141 0)
(402.816 -2.11885 0)
(404.809 -2.01362 0)
(406.706 -1.91809 0)
(408.515 -1.82748 0)
(410.256 -1.74382 0)
(411.925 -1.66079 0)
(413.501 -1.5911 0)
(414.996 -1.51834 0)
(416.393 -1.45961 0)
(417.713 -1.39879 0)
(418.963 -1.34377 0)
(420.14 -1.29109 0)
(421.351 -1.24949 0)
(422.602 -1.15163 0)
(423.904 -1.12997 0)
(425.303 -0.93428 0)
(427.13 -1.2095 0)
(427.607 -0.860155 0)
(428.436 -0.717122 0)
(429.584 -0.923798 0)
(430.047 -0.831085 0)
(430.631 -0.79183 0)
(431.256 -0.802888 0)
(431.901 -0.789924 0)
(432.559 -0.745813 0)
(433.233 -0.708167 0)
(433.92 -0.671566 0)
(434.611 -0.6418 0)
(435.296 -0.610017 0)
(435.981 -0.574708 0)
(436.669 -0.540045 0)
(437.362 -0.507115 0)
(438.038 -0.47744 0)
(438.648 -0.456996 0)
(439.23 -0.433911 0)
(439.776 -0.413933 0)
(440.305 -0.393342 0)
(440.793 -0.377556 0)
(441.251 -0.360603 0)
(441.675 -0.350541 0)
(442.072 -0.333836 0)
(442.426 -0.322692 0)
(442.752 -0.31036 0)
(443.056 -0.29887 0)
(443.361 -0.284177 0)
(443.659 -0.273474 0)
(443.962 -0.256213 0)
(444.245 -0.246034 0)
(444.515 -0.237145 0)
(444.773 -0.226815 0)
(445.036 -0.216419 0)
(445.306 -0.197182 0)
(445.595 -0.17654 0)
(445.901 -0.150126 0)
(446.227 -0.123485 0)
(446.561 -0.111202 0)
(446.905 -0.0850761 0)
(447.262 -0.104048 0)
(447.488 -0.0695367 0)
(447.724 -0.0655639 0)
(447.971 -0.0708889 0)
(448.122 -0.0758464 0)
(448.284 -0.0761337 0)
(448.361 -0.0768547 0)
(448.443 -0.0796866 0)
(448.492 -0.0781394 0)
(448.544 -0.0761204 0)
(448.601 -0.0735649 0)
(448.667 -0.0682262 0)
(448.745 -0.0587228 0)
(448.845 -0.0517008 0)
(448.957 -0.0323563 0)
(449.087 -0.0229856 0)
(449.225 -0.010564 0)
(449.39 -0.00211177 0)
(449.54 0.00391895 0)
(449.672 0.0126448 0)
(449.76 0.0136656 0)
(449.865 0.00436172 0)
(449.869 0.000407166 0)
(449.866 0.0027015 0)
(449.848 -0.000827053 0)
(449.809 -0.00431375 0)
(449.749 -0.0080074 0)
(449.683 -0.00812168 0)
(449.623 -0.00506211 0)
(449.58 -0.000543878 0)
(449.564 0.0036422 0)
(449.553 0.0181047 0)
(449.581 0.016313 0)
(449.607 0.0301202 0)
(449.653 0.0332075 0)
(449.684 0.0395466 0)
(449.703 0.0441893 0)
(449.695 0.0449442 0)
(449.672 0.0419148 0)
(449.627 0.0388857 0)
(449.56 0.0304525 0)
(449.456 0.0283006 0)
(449.334 0.0278315 0)
(449.204 0.0248313 0)
(449.074 0.0235944 0)
(448.952 0.0264401 0)
(448.829 0.020281 0)
(448.666 0.0517481 0)
(448.667 0.0348023 0)
(448.636 0.0404654 0)
(448.592 0.0491267 0)
(448.545 0.0536142 0)
(448.493 0.0564621 0)
(448.431 0.0578131 0)
(448.351 0.0578138 0)
(448.252 0.0536214 0)
(448.133 0.0509737 0)
(447.996 0.0459741 0)
(447.842 0.0432537 0)
(447.67 0.0421033 0)
(447.499 0.0399117 0)
(447.325 0.036961 0)
(447.148 0.0525997 0)
(447.032 0.0412702 0)
(446.909 0.0440217 0)
(446.778 0.0550113 0)
(446.699 0.053643 0)
(446.606 0.0557887 0)
(446.505 0.0592462 0)
(446.395 0.0609285 0)
(446.271 0.0633514 0)
(446.133 0.0596544 0)
(445.979 0.0572032 0)
(445.81 0.0541935 0)
(445.628 0.0506605 0)
(445.435 0.0480833 0)
(445.239 0.0457905 0)
(445.041 0.0447207 0)
(444.771 0.0507258 0)
(5.80918 -25.2469 0)
(6.80172 -8.36559 0)
(10.3155 -2.1576 0)
(8.45449 2.57642 0)
(2.98364 5.41626 0)
(-5.90307 9.47609 0)
(-20.4466 15.1776 0)
(-42.2054 22.3459 0)
(-66.1838 30.1093 0)
(-85.9756 35.5433 0)
(-100.766 37.052 0)
(-111.003 35.7474 0)
(-118.211 33.1308 0)
(-123.574 27.4902 0)
(-129.017 22.5346 0)
(-134.03 17.96 0)
(-138.579 14.6277 0)
(-142.475 12.209 0)
(-145.85 10.419 0)
(-148.719 9.13946 0)
(-150.883 8.0548 0)
(-152.697 7.24377 0)
(-154.03 6.4993 0)
(-154.861 5.82315 0)
(-155.157 5.15829 0)
(-154.814 4.42989 0)
(-153.805 3.72669 0)
(-152.062 2.94221 0)
(-149.607 2.1725 0)
(-146.366 1.34383 0)
(-142.337 0.492768 0)
(-137.561 -0.393652 0)
(-131.956 -1.31495 0)
(-125.593 -2.35314 0)
(-118.374 -3.23078 0)
(-110.503 -4.17941 0)
(-101.941 -5.04128 0)
(-92.7748 -6.3426 0)
(-82.7927 -7.33955 0)
(-72.3621 -8.31977 0)
(-61.3631 -9.64645 0)
(-49.72 -10.7117 0)
(-37.6635 -11.572 0)
(-25.3077 -12.6614 0)
(-12.6095 -13.4415 0)
(0.213746 -14.4061 0)
(13.3611 -14.8693 0)
(26.4668 -15.8939 0)
(40.0233 -16.6809 0)
(53.6052 -17.5832 0)
(67.2316 -17.6481 0)
(80.6519 -18.461 0)
(94.2275 -18.8493 0)
(107.683 -19.5631 0)
(120.8 -19.3004 0)
(133.651 -19.6695 0)
(146.521 -20.0861 0)
(159.02 -19.9907 0)
(171.306 -20.0907 0)
(183.24 -19.8991 0)
(194.86 -19.7519 0)
(206.009 -19.3254 0)
(216.743 -18.9401 0)
(227.086 -18.5489 0)
(237.108 -18.1992 0)
(246.852 -17.8708 0)
(256.191 -17.3586 0)
(265.197 -16.9373 0)
(273.904 -16.3715 0)
(282.072 -15.7643 0)
(290.039 -15.2822 0)
(297.511 -14.5745 0)
(304.7 -14.1443 0)
(311.657 -13.5346 0)
(318.25 -13.0528 0)
(324.726 -12.5173 0)
(330.767 -11.9234 0)
(336.664 -11.4863 0)
(342.295 -10.9054 0)
(347.667 -10.3969 0)
(352.714 -9.82913 0)
(357.547 -9.45168 0)
(362.21 -8.97105 0)
(366.649 -8.59714 0)
(370.901 -8.13677 0)
(374.923 -7.78098 0)
(378.807 -7.33187 0)
(382.442 -7.00383 0)
(385.958 -6.6282 0)
(389.313 -6.35066 0)
(392.591 -6.00295 0)
(395.661 -5.74235 0)
(398.637 -5.43911 0)
(401.481 -5.20021 0)
(404.29 -4.93285 0)
(407.007 -4.69354 0)
(409.702 -4.42444 0)
(412.212 -4.18802 0)
(414.572 -3.97105 0)
(416.754 -3.78033 0)
(418.807 -3.60231 0)
(420.797 -3.43817 0)
(422.764 -3.26005 0)
(424.665 -3.09898 0)
(426.511 -2.94827 0)
(428.273 -2.81221 0)
(429.955 -2.68853 0)
(431.561 -2.56945 0)
(433.114 -2.45765 0)
(434.598 -2.35032 0)
(436.008 -2.26208 0)
(437.347 -2.16997 0)
(438.596 -2.09945 0)
(439.79 -2.02002 0)
(440.91 -1.94833 0)
(441.982 -1.87861 0)
(443.084 -1.7953 0)
(444.217 -1.65469 0)
(445.409 -1.59908 0)
(446.665 -1.35049 0)
(448.259 -1.69428 0)
(448.734 -1.29983 0)
(449.493 -1.12192 0)
(450.451 -1.33184 0)
(450.961 -1.2843 0)
(451.517 -1.23084 0)
(452.104 -1.21903 0)
(452.708 -1.18565 0)
(453.319 -1.1173 0)
(453.943 -1.05757 0)
(454.58 -1.00136 0)
(455.22 -0.956985 0)
(455.857 -0.909208 0)
(456.494 -0.856667 0)
(457.132 -0.804936 0)
(457.777 -0.758386 0)
(458.402 -0.722817 0)
(458.971 -0.698609 0)
(459.519 -0.667687 0)
(460.034 -0.640015 0)
(460.534 -0.612226 0)
(460.996 -0.59126 0)
(461.435 -0.568235 0)
(461.839 -0.555098 0)
(462.226 -0.53224 0)
(462.566 -0.519599 0)
(462.882 -0.502049 0)
(463.177 -0.486511 0)
(463.472 -0.463289 0)
(463.759 -0.44583 0)
(464.051 -0.420575 0)
(464.319 -0.407611 0)
(464.581 -0.394889 0)
(464.831 -0.378173 0)
(465.086 -0.358809 0)
(465.348 -0.328825 0)
(465.625 -0.293405 0)
(465.918 -0.253052 0)
(466.225 -0.211594 0)
(466.542 -0.191109 0)
(466.866 -0.156879 0)
(467.202 -0.187374 0)
(467.425 -0.140218 0)
(467.651 -0.137593 0)
(467.888 -0.146892 0)
(468.041 -0.158014 0)
(468.207 -0.16214 0)
(468.294 -0.163428 0)
(468.385 -0.16502 0)
(468.448 -0.162167 0)
(468.512 -0.155727 0)
(468.581 -0.146993 0)
(468.657 -0.135095 0)
(468.743 -0.118407 0)
(468.849 -0.0987395 0)
(468.964 -0.0722381 0)
(469.096 -0.05423 0)
(469.234 -0.0321206 0)
(469.396 -0.0161954 0)
(469.545 -0.0121296 0)
(469.678 -0.0051266 0)
(469.77 -0.00438586 0)
(469.878 -0.0194085 0)
(469.897 -0.0242794 0)
(469.909 -0.0238392 0)
(469.9 -0.0290864 0)
(469.875 -0.034581 0)
(469.831 -0.0402634 0)
(469.783 -0.0361337 0)
(469.739 -0.0281267 0)
(469.709 -0.0171277 0)
(469.701 -0.00652093 0)
(469.698 0.0119626 0)
(469.728 0.0198145 0)
(469.756 0.0373591 0)
(469.802 0.0439203 0)
(469.833 0.0504744 0)
(469.858 0.054782 0)
(469.854 0.0564021 0)
(469.837 0.0499805 0)
(469.802 0.0425125 0)
(469.745 0.0303102 0)
(469.656 0.0266536 0)
(469.548 0.0252072 0)
(469.433 0.0222282 0)
(469.317 0.0229521 0)
(469.206 0.0297176 0)
(469.092 0.0241578 0)
(468.947 0.0711778 0)
(468.939 0.0567086 0)
(468.906 0.0602387 0)
(468.861 0.0719923 0)
(468.814 0.0790064 0)
(468.761 0.0827022 0)
(468.699 0.0832144 0)
(468.622 0.0803704 0)
(468.527 0.0736868 0)
(468.414 0.0684404 0)
(468.284 0.0614601 0)
(468.139 0.055632 0)
(467.977 0.0552794 0)
(467.814 0.0546109 0)
(467.646 0.0503503 0)
(467.478 0.0777462 0)
(467.36 0.0633538 0)
(467.237 0.0673269 0)
(467.107 0.0846946 0)
(467.023 0.0839021 0)
(466.926 0.085635 0)
(466.822 0.0899196 0)
(466.71 0.0916038 0)
(466.584 0.0929032 0)
(466.446 0.0872505 0)
(466.294 0.0828526 0)
(466.128 0.0780889 0)
(465.95 0.073165 0)
(465.761 0.0690457 0)
(465.569 0.0675202 0)
(465.375 0.0668344 0)
(465.106 0.0765316 0)
(2.90265 -28.104 0)
(3.38209 -9.85978 0)
(5.07743 -2.42426 0)
(1.73184 5.79083 0)
(-7.37981 10.814 0)
(-21.2221 17.6495 0)
(-41.2467 26.6343 0)
(-62.3643 35.9869 0)
(-79.8311 41.5921 0)
(-92.9372 43.3 0)
(-102.17 43.0603 0)
(-108.844 40.0877 0)
(-113.516 35.2874 0)
(-116.636 29.383 0)
(-120.326 24.3063 0)
(-123.775 19.848 0)
(-127.153 16.465 0)
(-130.146 13.8687 0)
(-132.777 11.8968 0)
(-135.023 10.4345 0)
(-136.613 9.17892 0)
(-137.931 8.18992 0)
(-138.765 7.27797 0)
(-139.108 6.40725 0)
(-138.859 5.51188 0)
(-137.966 4.58222 0)
(-136.375 3.6401 0)
(-134.063 2.59916 0)
(-130.968 1.54574 0)
(-127.057 0.386545 0)
(-122.293 -0.760407 0)
(-116.74 -1.98119 0)
(-110.316 -3.22167 0)
(-103.103 -4.64783 0)
(-94.942 -5.88499 0)
(-86.0877 -7.18588 0)
(-76.4911 -8.34701 0)
(-66.3224 -10.0555 0)
(-55.2328 -11.4257 0)
(-43.6934 -12.6784 0)
(-31.6222 -14.4182 0)
(-18.8429 -15.8871 0)
(-5.62105 -17.0264 0)
(7.85583 -18.4275 0)
(21.6601 -19.3745 0)
(35.5429 -20.6162 0)
(49.7828 -21.1919 0)
(63.952 -22.5361 0)
(78.5677 -23.4815 0)
(93.1519 -24.6422 0)
(107.738 -24.6672 0)
(122.022 -25.7142 0)
(136.435 -26.1018 0)
(150.604 -26.9232 0)
(164.343 -26.4308 0)
(177.71 -26.948 0)
(191.068 -27.3129 0)
(203.824 -26.9596 0)
(216.337 -27.0647 0)
(228.345 -26.6267 0)
(239.948 -26.3697 0)
(250.945 -25.6467 0)
(261.42 -25.0929 0)
(271.433 -24.4951 0)
(281.037 -23.966 0)
(290.362 -23.4353 0)
(299.172 -22.69 0)
(307.612 -22.0869 0)
(315.717 -21.2761 0)
(323.251 -20.4734 0)
(330.596 -19.7734 0)
(337.406 -18.8461 0)
(343.942 -18.2386 0)
(350.227 -17.4135 0)
(356.148 -16.7577 0)
(361.937 -16.0231 0)
(367.293 -15.2546 0)
(372.494 -14.655 0)
(377.46 -13.892 0)
(382.144 -13.2393 0)
(386.52 -12.522 0)
(390.713 -12.0131 0)
(394.725 -11.3651 0)
(398.502 -10.8614 0)
(402.099 -10.2623 0)
(405.492 -9.80291 0)
(408.763 -9.22824 0)
(411.81 -8.81956 0)
(414.756 -8.3418 0)
(417.575 -7.98899 0)
(420.328 -7.55117 0)
(422.905 -7.23428 0)
(425.391 -6.84969 0)
(427.763 -6.5452 0)
(430.104 -6.19206 0)
(432.359 -5.88126 0)
(434.609 -5.53805 0)
(436.674 -5.25846 0)
(438.629 -5.00428 0)
(440.433 -4.78251 0)
(442.136 -4.56627 0)
(443.786 -4.35343 0)
(445.417 -4.12261 0)
(446.987 -3.91884 0)
(448.515 -3.73072 0)
(449.968 -3.56711 0)
(451.364 -3.41835 0)
(452.694 -3.27462 0)
(453.988 -3.13717 0)
(455.216 -3.00862 0)
(456.39 -2.90314 0)
(457.503 -2.79241 0)
(458.538 -2.71215 0)
(459.539 -2.61291 0)
(460.464 -2.52954 0)
(461.37 -2.43967 0)
(462.301 -2.32055 0)
(463.252 -2.13451 0)
(464.272 -2.04155 0)
(465.325 -1.75346 0)
(466.634 -2.08557 0)
(467.056 -1.74976 0)
(467.682 -1.54877 0)
(468.404 -1.72075 0)
(468.919 -1.72053 0)
(469.375 -1.65879 0)
(469.863 -1.6234 0)
(470.37 -1.57041 0)
(470.883 -1.48089 0)
(471.409 -1.4019 0)
(471.945 -1.32396 0)
(472.489 -1.26312 0)
(473.033 -1.19942 0)
(473.578 -1.12999 0)
(474.125 -1.0616 0)
(474.68 -0.997799 0)
(475.212 -0.955396 0)
(475.701 -0.927936 0)
(476.176 -0.890511 0)
(476.619 -0.856889 0)
(477.05 -0.82309 0)
(477.448 -0.799144 0)
(477.828 -0.770423 0)
(478.174 -0.755018 0)
(478.512 -0.729121 0)
(478.803 -0.715517 0)
(479.075 -0.692015 0)
(479.33 -0.673791 0)
(479.584 -0.641416 0)
(479.831 -0.618185 0)
(480.083 -0.583027 0)
(480.312 -0.569022 0)
(480.538 -0.550509 0)
(480.755 -0.52882 0)
(480.978 -0.500117 0)
(481.206 -0.459464 0)
(481.449 -0.408424 0)
(481.705 -0.353682 0)
(481.972 -0.297484 0)
(482.25 -0.268061 0)
(482.532 -0.223436 0)
(482.826 -0.261299 0)
(483.027 -0.208512 0)
(483.22 -0.208524 0)
(483.422 -0.218904 0)
(483.557 -0.233799 0)
(483.704 -0.244355 0)
(483.778 -0.250271 0)
(483.857 -0.252875 0)
(483.911 -0.248206 0)
(483.967 -0.237021 0)
(484.027 -0.222123 0)
(484.093 -0.203874 0)
(484.17 -0.178444 0)
(484.263 -0.146472 0)
(484.366 -0.113512 0)
(484.483 -0.0843802 0)
(484.606 -0.0538713 0)
(484.749 -0.029163 0)
(484.882 -0.0265068 0)
(485 -0.0241591 0)
(485.082 -0.0223108 0)
(485.176 -0.0426922 0)
(485.194 -0.0480839 0)
(485.202 -0.0520523 0)
(485.192 -0.0589756 0)
(485.168 -0.0666465 0)
(485.126 -0.0751615 0)
(485.082 -0.0677131 0)
(485.04 -0.0538273 0)
(485.009 -0.0353257 0)
(485 -0.0181621 0)
(484.991 0.00665829 0)
(485.018 0.0240474 0)
(485.039 0.0447648 0)
(485.077 0.0561633 0)
(485.102 0.0625238 0)
(485.119 0.066151 0)
(485.112 0.0680464 0)
(485.094 0.0574608 0)
(485.058 0.0453803 0)
(485.003 0.0299148 0)
(484.918 0.0240767 0)
(484.816 0.0204036 0)
(484.707 0.0185301 0)
(484.596 0.0203186 0)
(484.49 0.0315132 0)
(484.378 0.0289686 0)
(484.246 0.0868583 0)
(484.226 0.0810872 0)
(484.187 0.0832223 0)
(484.139 0.0965444 0)
(484.086 0.105974 0)
(484.029 0.110261 0)
(483.964 0.109604 0)
(483.884 0.104045 0)
(483.789 0.0945612 0)
(483.677 0.086511 0)
(483.549 0.0775636 0)
(483.408 0.0679086 0)
(483.251 0.0677872 0)
(483.091 0.0699064 0)
(482.927 0.0643087 0)
(482.764 0.102211 0)
(482.643 0.0869757 0)
(482.519 0.0924467 0)
(482.389 0.115845 0)
(482.298 0.115798 0)
(482.197 0.117765 0)
(482.088 0.122579 0)
(481.973 0.124194 0)
(481.844 0.124043 0)
(481.705 0.116499 0)
(481.552 0.110017 0)
(481.386 0.103274 0)
(481.209 0.096871 0)
(481.022 0.0910923 0)
(480.832 0.0901946 0)
(480.64 0.0899454 0)
(480.372 0.103655 0)
(0.394859 -29.4886 0)
(0.743553 -9.6779 0)
(-2.36101 -1.52851 0)
(-7.45291 9.86405 0)
(-19.9391 18.308 0)
(-37.7165 28.1992 0)
(-56.6016 38.8718 0)
(-72.487 45.6434 0)
(-84.4286 48.6606 0)
(-93.0789 48.8263 0)
(-99.3487 46.649 0)
(-103.458 41.9808 0)
(-105.979 36.5475 0)
(-107.992 30.7254 0)
(-110.386 25.6544 0)
(-112.849 21.2273 0)
(-115.325 17.7697 0)
(-117.562 15.0564 0)
(-119.513 12.9442 0)
(-121.155 11.336 0)
(-122.163 9.94243 0)
(-122.959 8.78367 0)
(-123.243 7.68758 0)
(-123.008 6.59418 0)
(-122.131 5.50368 0)
(-120.623 4.33 0)
(-118.371 3.12073 0)
(-115.36 1.7759 0)
(-111.496 0.409953 0)
(-106.776 -1.10906 0)
(-101.122 -2.59129 0)
(-94.629 -4.18413 0)
(-87.2043 -5.76665 0)
(-78.9677 -7.63294 0)
(-69.6668 -9.27029 0)
(-59.6313 -10.9696 0)
(-48.7671 -12.4353 0)
(-37.3612 -14.6321 0)
(-24.8953 -16.4348 0)
(-11.9894 -17.9202 0)
(1.40381 -20.0909 0)
(15.571 -21.9663 0)
(30.2411 -23.364 0)
(45.141 -25.0999 0)
(60.4706 -26.2581 0)
(75.9035 -27.8596 0)
(91.7465 -28.5237 0)
(107.491 -30.2382 0)
(123.692 -31.281 0)
(139.775 -32.6615 0)
(155.697 -32.4854 0)
(171.161 -33.8033 0)
(186.713 -34.0785 0)
(201.788 -34.9148 0)
(216.428 -34.0514 0)
(230.193 -34.6444 0)
(244.054 -34.9336 0)
(257.056 -34.1762 0)
(269.624 -34.2202 0)
(281.648 -33.4561 0)
(292.964 -32.9593 0)
(303.72 -31.9075 0)
(313.589 -31.0737 0)
(323.034 -30.2009 0)
(331.867 -29.414 0)
(340.545 -28.665 0)
(348.517 -27.6315 0)
(356.094 -26.7924 0)
(363.314 -25.6927 0)
(369.888 -24.677 0)
(376.325 -23.7361 0)
(382.118 -22.5901 0)
(387.702 -21.8002 0)
(392.972 -20.7503 0)
(397.906 -19.9245 0)
(402.694 -18.9837 0)
(407.041 -18.0561 0)
(411.254 -17.2969 0)
(415.241 -16.3545 0)
(418.959 -15.5815 0)
(422.36 -14.7316 0)
(425.643 -14.1127 0)
(428.773 -13.3241 0)
(431.728 -12.7314 0)
(434.535 -12.0122 0)
(437.191 -11.466 0)
(439.741 -10.7826 0)
(442.108 -10.3108 0)
(444.392 -9.74449 0)
(446.59 -9.32755 0)
(448.732 -8.8117 0)
(450.732 -8.44044 0)
(452.631 -7.96852 0)
(454.438 -7.59709 0)
(456.214 -7.16224 0)
(457.927 -6.78792 0)
(459.647 -6.38022 0)
(461.197 -6.07893 0)
(462.688 -5.80122 0)
(464.051 -5.56372 0)
(465.343 -5.31939 0)
(466.591 -5.06422 0)
(467.823 -4.78747 0)
(469 -4.54835 0)
(470.154 -4.33138 0)
(471.244 -4.15007 0)
(472.301 -3.98352 0)
(473.305 -3.82165 0)
(474.288 -3.66537 0)
(475.208 -3.52423 0)
(476.098 -3.40902 0)
(476.933 -3.28911 0)
(477.712 -3.20674 0)
(478.468 -3.09193 0)
(479.159 -3.00817 0)
(479.855 -2.90043 0)
(480.57 -2.73685 0)
(481.292 -2.50471 0)
(482.089 -2.36779 0)
(482.895 -2.08207 0)
(483.879 -2.363 0)
(484.224 -2.12352 0)
(484.673 -1.92036 0)
(485.145 -2.03099 0)
(485.598 -2.08084 0)
(485.913 -2.02808 0)
(486.265 -1.96765 0)
(486.641 -1.89245 0)
(487.019 -1.78299 0)
(487.412 -1.68672 0)
(487.814 -1.58963 0)
(488.227 -1.51533 0)
(488.645 -1.43614 0)
(489.066 -1.35142 0)
(489.491 -1.26803 0)
(489.924 -1.19203 0)
(490.331 -1.14748 0)
(490.712 -1.11745 0)
(491.084 -1.07544 0)
(491.427 -1.03867 0)
(491.761 -0.999898 0)
(492.066 -0.974456 0)
(492.359 -0.940712 0)
(492.62 -0.924422 0)
(492.88 -0.899224 0)
(493.095 -0.885222 0)
(493.298 -0.859144 0)
(493.488 -0.835176 0)
(493.675 -0.797717 0)
(493.86 -0.768153 0)
(494.047 -0.725667 0)
(494.215 -0.710355 0)
(494.382 -0.688027 0)
(494.546 -0.661121 0)
(494.715 -0.622632 0)
(494.89 -0.571103 0)