/*--------------------------------*- C++ -*----------------------------------*\
| =========                 |                                                 |
| \\      /  F ield         | OpenFOAM: The Open Source CFD Toolbox           |
|  \\    /   O peration     | Version:  2312                                  |
|   \\  /    A nd           | Website:  www.openfoam.com                      |
|    \\/     M anipulation  |                                                 |
\*---------------------------------------------------------------------------*/
FoamFile
{
    version     2.0;
    format      ascii;
    arch        "LSB;label=32;scalar=64";
    class       volScalarField;
    location    "0.1";
    object      cSound;
}
// * * * * * * * * * * * * * * * * * * * * * * * * * * * * * * * * * * * * * //

dimensions      [0 1 -1 0 0 0 0];

internalField   nonuniform List<scalar> 
100
(
446.576
446.383
446.316
446.267
446.207
446.146
446.082
446.015
445.944
445.87
445.792
445.711
445.624
445.534
445.438
445.337
445.23
445.116
444.997
444.869
444.734
444.59
444.437
444.273
444.099
443.911
443.71
443.494
443.262
443.011
442.739
442.444
442.123
441.772
441.388
440.965
440.498
439.98
439.402
438.753
438.019
437.183
436.22
435.098
433.77
432.168
430.178
427.605
424.082
419.138
403.881
390.99
383.92
378.533
373.625
369.302
365.257
361.636
358.148
355.067
351.941
349.227
346.402
343.978
341.395
339.2
336.823
334.811
332.613
330.754
328.71
326.985
325.081
323.439
321.074
321.699
369.928
428.444
436.89
437.097
437.552
438.15
438.593
439.015
439.399
439.768
440.1
440.423
440.714
440.999
441.255
441.509
441.736
441.963
442.165
442.372
442.541
442.736
442.813
443.124
)
;

boundaryField
{
    inlet
    {
        type            calculated;
        value           uniform 446.443;
    }
    outlet
    {
        type            calculated;
        value           uniform 443.124;
    }
    upperWall
    {
        type            calculated;
        value           nonuniform List<scalar> 
100
(
446.576
446.383
446.316
446.267
446.207
446.146
446.082
446.015
445.944
445.87
445.792
445.711
445.624
445.534
445.438
445.337
445.23
445.116
444.997
444.869
444.734
444.59
444.437
444.273
444.099
443.911
443.71
443.494
443.262
443.011
442.739
442.444
442.123
441.772
441.388
440.965
440.498
439.98
439.402
438.753
438.019
437.183
436.22
435.098
433.77
432.168
430.178
427.605
424.082
419.138
403.881
390.99
383.92
378.533
373.625
369.302
365.257
361.636
358.148
355.067
351.941
349.227
346.402
343.978
341.395
339.2
336.823
334.811
332.613
330.754
328.71
326.985
325.081
323.439
321.074
321.699
369.928
428.444
436.89
437.097
437.552
438.15
438.593
439.015
439.399
439.768
440.1
440.423
440.714
440.999
441.255
441.509
441.736
441.963
442.165
442.372
442.541
442.736
442.813
443.124
)
;
    }
    lowerWall
    {
        type            calculated;
        value           nonuniform List<scalar> 
100
(
446.576
446.383
446.316
446.267
446.207
446.146
446.082
446.015
445.944
445.87
445.792
445.711
445.624
445.534
445.438
445.337
445.23
445.116
444.997
444.869
444.734
444.59
444.437
444.273
444.099
443.911
443.71
443.494
443.262
443.011
442.739
442.444
442.123
441.772
441.388
440.965
440.498
439.98
439.402
438.753
438.019
437.183
436.22
435.098
433.77
432.168
430.178
427.605
424.082
419.138
403.881
390.99
383.92
378.533
373.625
369.302
365.257
361.636
358.148
355.067
351.941
349.227
346.402
343.978
341.395
339.2
336.823
334.811
332.613
330.754
328.71
326.985
325.081
323.439
321.074
321.699
369.928
428.444
436.89
437.097
437.552
438.15
438.593
439.015
439.399
439.768
440.1
440.423
440.714
440.999
441.255
441.509
441.736
441.963
442.165
442.372
442.541
442.736
442.813
443.124
)
;
    }
    frontAndBack
    {
        type            empty;
    }
}


// ************************************************************************* //
