/*--------------------------------*- C++ -*----------------------------------*\
| =========                 |                                                 |
| \\      /  F ield         | OpenFOAM: The Open Source CFD Toolbox           |
|  \\    /   O peration     | Version:  2312                                  |
|   \\  /    A nd           | Website:  www.openfoam.com                      |
|    \\/     M anipulation  |                                                 |
\*---------------------------------------------------------------------------*/
FoamFile
{
    version     2.0;
    format      ascii;
    arch        "LSB;label=32;scalar=64";
    class       volScalarField;
    location    "0.1";
    object      p;
}
// * * * * * * * * * * * * * * * * * * * * * * * * * * * * * * * * * * * * * //

dimensions      [1 -1 -2 0 0 0 0];

internalField   nonuniform List<scalar> 
100
(
300674
299708
299391
299164
298880
298592
298294
297978
297648
297302
296939
296557
296155
295732
295287
294817
294321
293797
293243
292656
292033
291372
290669
289920
289121
288267
287354
286375
285324
284192
282972
281653
280223
278668
276973
275119
273083
270838
268352
265584
262485
258988
255012
250444
245128
238837
231216
221660
209091
192288
147941
117955
103799
93988.3
85797.8
79058.8
73216.2
68255.2
63805
60031.5
56457.3
53447.7
50526.3
48068.2
45632.6
43582
41525
39782.2
38026
36527.4
35011.1
33709.9
32393.9
31232.5
29678.6
30068.5
60488.6
137910
158522
159032
160180
161727
162889
163971
164993
165949
166843
167686
168477
169225
169930
170598
171229
171829
172394
172932
173435
173853
174257
173706
)
;

boundaryField
{
    inlet
    {
        type            fixedValue;
        value           uniform 300000;
    }
    outlet
    {
        type            fixedValue;
        value           uniform 175000;
    }
    upperWall
    {
        type            zeroGradient;
    }
    lowerWall
    {
        type            zeroGradient;
    }
    frontAndBack
    {
        type            empty;
    }
}


// ************************************************************************* //
