/*--------------------------------*- C++ -*----------------------------------*\
| =========                 |                                                 |
| \\      /  F ield         | OpenFOAM: The Open Source CFD Toolbox           |
|  \\    /   O peration     | Version:  2312                                  |
|   \\  /    A nd           | Website:  www.openfoam.com                      |
|    \\/     M anipulation  |                                                 |
\*---------------------------------------------------------------------------*/
FoamFile
{
    version     2.0;
    format      ascii;
    arch        "LSB;label=32;scalar=64";
    class       surfaceScalarField;
    location    "0.1";
    object      phi;
}
// * * * * * * * * * * * * * * * * * * * * * * * * * * * * * * * * * * * * * //

dimensions      [1 0 -1 0 0 0 0];

oriented        oriented;

internalField   nonuniform List<scalar> 
99
(
0.0084415
0.0084415
0.0084415
0.0084415
0.0084415
0.0084415
0.0084415
0.0084415
0.0084415
0.0084415
0.0084415
0.0084415
0.0084415
0.0084415
0.0084415
0.0084415
0.0084415
0.0084415
0.0084415
0.0084415
0.0084415
0.0084415
0.0084415
0.0084415
0.0084415
0.0084415
0.0084415
0.0084415
0.0084415
0.0084415
0.0084415
0.0084415
0.0084415
0.0084415
0.0084415
0.0084415
0.0084415
0.0084415
0.0084415
0.0084415
0.0084415
0.0084415
0.0084415
0.0084415
0.0084415
0.0084415
0.0084415
0.0084415
0.0084415
0.0084415
0.0084415
0.0084415
0.0084415
0.0084415
0.0084415
0.0084415
0.0084415
0.0084415
0.0084415
0.0084415
0.0084415
0.0084415
0.0084415
0.0084415
0.0084415
0.0084415
0.0084415
0.0084415
0.0084415
0.0084415
0.0084415
0.0084415
0.0084415
0.0084415
0.0084415
0.0084415
0.0084415
0.0084415
0.0084415
0.0084415
0.0084415
0.0084415
0.0084415
0.0084415
0.0084415
0.0084415
0.0084415
0.0084415
0.0084415
0.0084415
0.0084415
0.0084415
0.0084415
0.0084415
0.0084415
0.0084415
0.0084415
0.0084415
0.0084415
)
;

boundaryField
{
    inlet
    {
        type            calculated;
        value           uniform -0.0084415;
    }
    outlet
    {
        type            calculated;
        value           uniform 0.0084415;
    }
    upperWall
    {
        type            calculated;
        value           nonuniform List<scalar> 
100
(
7.15142e-21
7.13461e-21
2.13877e-20
-3.5422e-35
7.12054e-21
7.11563e-21
5.72018e-36
1.42104e-20
1.41991e-20
-4.51921e-35
0
1.41619e-20
1.41482e-20
0
5.03022e-36
1.41025e-20
1.40855e-20
1.61769e-51
1.40486e-20
1.40285e-20
-5.42981e-35
-1.39845e-20
1.39603e-20
8.49675e-36
1.39072e-20
1.38778e-20
0
2.76253e-20
2.75528e-20
0
1.36951e-20
2.7299e-20
-2.71998e-20
1.3546e-20
-7.29964e-35
-1.34224e-20
1.33513e-20
1.32728e-20
-8.09406e-35
-2.61765e-20
2.59577e-20
-8.81132e-35
-5.08544e-20
2.51007e-20
-4.9437e-20
-2.4263e-20
-2.37066e-20
0
-1.10421e-34
-8.10847e-67
2.51487e-35
1.09438e-34
0
2.48911e-20
2.33229e-20
1.19441e-34
-4.59659e-35
6.76313e-35
6.49451e-35
-4.62233e-35
-1.72966e-20
4.98899e-20
-1.59785e-20
-2.34459e-35
1.21813e-34
-9.45945e-35
-2.77788e-20
1.3467e-20
6.79148e-35
-2.53405e-20
1.22958e-20
-1.19641e-20
-1.16321e-20
2.26584e-20
-1.09247e-20
-1.10253e-20
-3.35465e-20
-2.85093e-20
-1.57577e-20
-7.01867e-51
-1.58744e-20
-1.5984e-20
4.88076e-35
-1.61421e-20
-1.62142e-20
0
-8.17188e-21
-8.20115e-21
-1.64579e-20
-8.25484e-21
-1.65591e-20
-8.30261e-21
-1.66494e-20
-1.66906e-20
-8.36511e-21
-2.97102e-51
8.40132e-21
-1.68283e-20
-7.38513e-36
-1.67846e-20
)
;
    }
    lowerWall
    {
        type            calculated;
        value           nonuniform List<scalar> 
100
(
1.43028e-20
-7.13461e-21
0
-7.12537e-21
7.12054e-21
7.11563e-21
5.72018e-36
-4.38544e-35
-4.45134e-35
-7.09365e-21
0
1.41619e-20
1.41482e-20
0
2.8237e-20
-4.97428e-35
2.8171e-20
1.61769e-51
1.40486e-20
1.40285e-20
1.45204e-51
-1.39845e-20
1.39603e-20
-4.18039e-20
1.39072e-20
1.38778e-20
-3.98567e-36
2.76253e-20
-4.13292e-20
0
1.36951e-20
2.7299e-20
0
-2.70919e-20
0
1.34224e-20
1.33513e-20
1.32728e-20
-3.95568e-20
-1.30882e-20
2.59577e-20
-5.14201e-20
-5.08544e-20
2.51007e-20
-4.9437e-20
-2.4263e-20
-2.37066e-20
0
-1.10421e-34
-8.10847e-67
2.51487e-35
1.09438e-34
0
2.48911e-20
2.33229e-20
2.29936e-35
-4.59659e-35
3.96097e-20
3.77518e-20
-4.62233e-35
3.45931e-20
4.98899e-20
-1.59785e-20
-2.34459e-35
2.97146e-20
-9.45945e-35
4.16682e-20
1.3467e-20
-1.76212e-49
-2.53405e-20
-2.42008e-35
3.58924e-20
-1.16321e-20
2.26584e-20
-1.09247e-20
-1.10253e-20
1.67732e-20
-2.85093e-20
1.57577e-20
-7.01867e-51
3.2027e-35
-1.5984e-20
-2.80573e-36
-1.61421e-20
1.62142e-20
-1.62808e-20
-8.17188e-21
-8.20115e-21
-8.22895e-21
-8.25484e-21
-8.27956e-21
-8.30261e-21
-8.32471e-21
0
-8.36511e-21
-8.38338e-21
1.68026e-20
-8.41414e-21
-8.43078e-21
1.67846e-20
)
;
    }
    frontAndBack
    {
        type            empty;
        value           nonuniform List<scalar> 0();
    }
}


// ************************************************************************* //
