/*--------------------------------*- C++ -*----------------------------------*\
| =========                 |                                                 |
| \\      /  F ield         | OpenFOAM: The Open Source CFD Toolbox           |
|  \\    /   O peration     | Version:  2312                                  |
|   \\  /    A nd           | Website:  www.openfoam.com                      |
|    \\/     M anipulation  |                                                 |
\*---------------------------------------------------------------------------*/
FoamFile
{
    version     2.0;
    format      ascii;
    arch        "LSB;label=32;scalar=64";
    class       volScalarField;
    location    "0.1";
    object      thermo:psiLiqEff;
}
// * * * * * * * * * * * * * * * * * * * * * * * * * * * * * * * * * * * * * //

dimensions      [-2 4 2 0 0 0 0];

internalField   nonuniform List<scalar> 
100
(
2.72261e-13
2.72496e-13
2.72579e-13
2.72638e-13
2.72712e-13
2.72787e-13
2.72865e-13
2.72947e-13
2.73034e-13
2.73124e-13
2.7322e-13
2.7332e-13
2.73426e-13
2.73537e-13
2.73655e-13
2.73779e-13
2.73911e-13
2.7405e-13
2.74198e-13
2.74355e-13
2.74522e-13
2.747e-13
2.74889e-13
2.75092e-13
2.75309e-13
2.75541e-13
2.75791e-13
2.7606e-13
2.7635e-13
2.76663e-13
2.77003e-13
2.77373e-13
2.77776e-13
2.78218e-13
2.78703e-13
2.79237e-13
2.7983e-13
2.8049e-13
2.81229e-13
2.82061e-13
2.83008e-13
2.84092e-13
2.85348e-13
2.86822e-13
2.88581e-13
2.90726e-13
2.93423e-13
2.96966e-13
3.01923e-13
3.0909e-13
3.32893e-13
3.55212e-13
3.68419e-13
3.78982e-13
3.89008e-13
3.9817e-13
4.07041e-13
4.15235e-13
4.23364e-13
4.30744e-13
4.38433e-13
4.45275e-13
4.52569e-13
4.58972e-13
4.65945e-13
4.71995e-13
4.78681e-13
4.84455e-13
4.90879e-13
4.96412e-13
5.02608e-13
5.07927e-13
5.13895e-13
5.19125e-13
5.26802e-13
5.24758e-13
3.9683e-13
2.9582e-13
2.8449e-13
2.8422e-13
2.83629e-13
2.82855e-13
2.82283e-13
2.81742e-13
2.81249e-13
2.80777e-13
2.80353e-13
2.79942e-13
2.79573e-13
2.79211e-13
2.78887e-13
2.78567e-13
2.7828e-13
2.77994e-13
2.7774e-13
2.7748e-13
2.77268e-13
2.77024e-13
2.76928e-13
2.76539e-13
)
;

boundaryField
{
    inlet
    {
        type            calculated;
        value           uniform 2.72423e-13;
    }
    outlet
    {
        type            calculated;
        value           uniform 2.76539e-13;
    }
    upperWall
    {
        type            calculated;
        value           nonuniform List<scalar> 
100
(
2.72261e-13
2.72496e-13
2.72579e-13
2.72638e-13
2.72712e-13
2.72787e-13
2.72865e-13
2.72947e-13
2.73034e-13
2.73124e-13
2.7322e-13
2.7332e-13
2.73426e-13
2.73537e-13
2.73655e-13
2.73779e-13
2.73911e-13
2.7405e-13
2.74198e-13
2.74355e-13
2.74522e-13
2.747e-13
2.74889e-13
2.75092e-13
2.75309e-13
2.75541e-13
2.75791e-13
2.7606e-13
2.7635e-13
2.76663e-13
2.77003e-13
2.77373e-13
2.77776e-13
2.78218e-13
2.78703e-13
2.79237e-13
2.7983e-13
2.8049e-13
2.81229e-13
2.82061e-13
2.83008e-13
2.84092e-13
2.85348e-13
2.86822e-13
2.88581e-13
2.90726e-13
2.93423e-13
2.96966e-13
3.01923e-13
3.0909e-13
3.32893e-13
3.55212e-13
3.68419e-13
3.78982e-13
3.89008e-13
3.9817e-13
4.07041e-13
4.15235e-13
4.23364e-13
4.30744e-13
4.38433e-13
4.45275e-13
4.52569e-13
4.58972e-13
4.65945e-13
4.71995e-13
4.78681e-13
4.84455e-13
4.90879e-13
4.96412e-13
5.02608e-13
5.07927e-13
5.13895e-13
5.19125e-13
5.26802e-13
5.24758e-13
3.9683e-13
2.9582e-13
2.8449e-13
2.8422e-13
2.83629e-13
2.82855e-13
2.82283e-13
2.81742e-13
2.81249e-13
2.80777e-13
2.80353e-13
2.79942e-13
2.79573e-13
2.79211e-13
2.78887e-13
2.78567e-13
2.7828e-13
2.77994e-13
2.7774e-13
2.7748e-13
2.77268e-13
2.77024e-13
2.76928e-13
2.76539e-13
)
;
    }
    lowerWall
    {
        type            calculated;
        value           nonuniform List<scalar> 
100
(
2.72261e-13
2.72496e-13
2.72579e-13
2.72638e-13
2.72712e-13
2.72787e-13
2.72865e-13
2.72947e-13
2.73034e-13
2.73124e-13
2.7322e-13
2.7332e-13
2.73426e-13
2.73537e-13
2.73655e-13
2.73779e-13
2.73911e-13
2.7405e-13
2.74198e-13
2.74355e-13
2.74522e-13
2.747e-13
2.74889e-13
2.75092e-13
2.75309e-13
2.75541e-13
2.75791e-13
2.7606e-13
2.7635e-13
2.76663e-13
2.77003e-13
2.77373e-13
2.77776e-13
2.78218e-13
2.78703e-13
2.79237e-13
2.7983e-13
2.8049e-13
2.81229e-13
2.82061e-13
2.83008e-13
2.84092e-13
2.85348e-13
2.86822e-13
2.88581e-13
2.90726e-13
2.93423e-13
2.96966e-13
3.01923e-13
3.0909e-13
3.32893e-13
3.55212e-13
3.68419e-13
3.78982e-13
3.89008e-13
3.9817e-13
4.07041e-13
4.15235e-13
4.23364e-13
4.30744e-13
4.38433e-13
4.45275e-13
4.52569e-13
4.58972e-13
4.65945e-13
4.71995e-13
4.78681e-13
4.84455e-13
4.90879e-13
4.96412e-13
5.02608e-13
5.07927e-13
5.13895e-13
5.19125e-13
5.26802e-13
5.24758e-13
3.9683e-13
2.9582e-13
2.8449e-13
2.8422e-13
2.83629e-13
2.82855e-13
2.82283e-13
2.81742e-13
2.81249e-13
2.80777e-13
2.80353e-13
2.79942e-13
2.79573e-13
2.79211e-13
2.78887e-13
2.78567e-13
2.7828e-13
2.77994e-13
2.7774e-13
2.7748e-13
2.77268e-13
2.77024e-13
2.76928e-13
2.76539e-13
)
;
    }
    frontAndBack
    {
        type            empty;
    }
}


// ************************************************************************* //
