/*--------------------------------*- C++ -*----------------------------------*\
| =========                 |                                                 |
| \\      /  F ield         | OpenFOAM: The Open Source CFD Toolbox           |
|  \\    /   O peration     | Version:  2312                                  |
|   \\  /    A nd           | Website:  www.openfoam.com                      |
|    \\/     M anipulation  |                                                 |
\*---------------------------------------------------------------------------*/
FoamFile
{
    version     2.0;
    format      ascii;
    arch        "LSB;label=32;scalar=64";
    class       volScalarField;
    location    "0.1";
    object      thermo:psiGasEff;
}
// * * * * * * * * * * * * * * * * * * * * * * * * * * * * * * * * * * * * * //

dimensions      [-2 4 2 0 0 0 0];

internalField   nonuniform List<scalar> 
100
(
1.5757e-06
1.5845e-06
1.58738e-06
1.58944e-06
1.59203e-06
1.59466e-06
1.59739e-06
1.6003e-06
1.60334e-06
1.60654e-06
1.60992e-06
1.61347e-06
1.61723e-06
1.62119e-06
1.62539e-06
1.62983e-06
1.63454e-06
1.63954e-06
1.64486e-06
1.65053e-06
1.65657e-06
1.66302e-06
1.66992e-06
1.67733e-06
1.68528e-06
1.69384e-06
1.70308e-06
1.71308e-06
1.72392e-06
1.7357e-06
1.74856e-06
1.76262e-06
1.77808e-06
1.79512e-06
1.814e-06
1.83501e-06
1.85854e-06
1.88503e-06
1.91507e-06
1.94942e-06
1.98907e-06
2.03534e-06
2.09007e-06
2.15588e-06
2.23669e-06
2.33869e-06
2.47248e-06
2.65818e-06
2.93834e-06
3.39378e-06
5.32358e-06
7.84824e-06
9.77163e-06
1.1586e-05
1.35454e-05
1.5586e-05
1.77768e-05
2.00513e-05
2.25054e-05
2.49882e-05
2.77569e-05
3.04951e-05
3.35736e-05
3.65778e-05
3.99793e-05
4.32683e-05
4.69956e-05
5.05931e-05
5.46498e-05
5.8566e-05
6.29632e-05
6.72065e-05
7.1933e-05
7.66027e-05
8.35979e-05
8.17611e-05
2.67153e-05
6.89397e-06
5.4255e-06
5.39587e-06
5.32983e-06
5.24268e-06
5.17863e-06
5.12028e-06
5.06596e-06
5.01615e-06
4.97006e-06
4.92742e-06
4.88772e-06
4.85083e-06
4.8163e-06
4.7841e-06
4.75384e-06
4.72554e-06
4.6989e-06
4.67407e-06
4.65057e-06
4.63232e-06
4.61247e-06
4.6483e-06
)
;

boundaryField
{
    inlet
    {
        type            calculated;
        value           uniform 1.58184e-06;
    }
    outlet
    {
        type            calculated;
        value           uniform 4.5798e-06;
    }
    upperWall
    {
        type            calculated;
        value           nonuniform List<scalar> 
100
(
1.5757e-06
1.5845e-06
1.58738e-06
1.58944e-06
1.59203e-06
1.59466e-06
1.59739e-06
1.6003e-06
1.60334e-06
1.60654e-06
1.60992e-06
1.61347e-06
1.61723e-06
1.62119e-06
1.62539e-06
1.62983e-06
1.63454e-06
1.63954e-06
1.64486e-06
1.65053e-06
1.65657e-06
1.66302e-06
1.66992e-06
1.67733e-06
1.68528e-06
1.69384e-06
1.70308e-06
1.71308e-06
1.72392e-06
1.7357e-06
1.74856e-06
1.76262e-06
1.77808e-06
1.79512e-06
1.814e-06
1.83501e-06
1.85854e-06
1.88503e-06
1.91507e-06
1.94942e-06
1.98907e-06
2.03534e-06
2.09007e-06
2.15588e-06
2.23669e-06
2.33869e-06
2.47248e-06
2.65818e-06
2.93834e-06
3.39378e-06
5.32358e-06
7.84824e-06
9.77163e-06
1.1586e-05
1.35454e-05
1.5586e-05
1.77768e-05
2.00513e-05
2.25054e-05
2.49882e-05
2.77569e-05
3.04951e-05
3.35736e-05
3.65778e-05
3.99793e-05
4.32683e-05
4.69956e-05
5.05931e-05
5.46498e-05
5.8566e-05
6.29632e-05
6.72065e-05
7.1933e-05
7.66027e-05
8.35979e-05
8.17611e-05
2.67153e-05
6.89397e-06
5.4255e-06
5.39587e-06
5.32983e-06
5.24268e-06
5.17863e-06
5.12028e-06
5.06596e-06
5.01615e-06
4.97006e-06
4.92742e-06
4.88772e-06
4.85083e-06
4.8163e-06
4.7841e-06
4.75384e-06
4.72554e-06
4.6989e-06
4.67407e-06
4.65057e-06
4.63232e-06
4.61247e-06
4.6483e-06
)
;
    }
    lowerWall
    {
        type            calculated;
        value           nonuniform List<scalar> 
100
(
1.5757e-06
1.5845e-06
1.58738e-06
1.58944e-06
1.59203e-06
1.59466e-06
1.59739e-06
1.6003e-06
1.60334e-06
1.60654e-06
1.60992e-06
1.61347e-06
1.61723e-06
1.62119e-06
1.62539e-06
1.62983e-06
1.63454e-06
1.63954e-06
1.64486e-06
1.65053e-06
1.65657e-06
1.66302e-06
1.66992e-06
1.67733e-06
1.68528e-06
1.69384e-06
1.70308e-06
1.71308e-06
1.72392e-06
1.7357e-06
1.74856e-06
1.76262e-06
1.77808e-06
1.79512e-06
1.814e-06
1.83501e-06
1.85854e-06
1.88503e-06
1.91507e-06
1.94942e-06
1.98907e-06
2.03534e-06
2.09007e-06
2.15588e-06
2.23669e-06
2.33869e-06
2.47248e-06
2.65818e-06
2.93834e-06
3.39378e-06
5.32358e-06
7.84824e-06
9.77163e-06
1.1586e-05
1.35454e-05
1.5586e-05
1.77768e-05
2.00513e-05
2.25054e-05
2.49882e-05
2.77569e-05
3.04951e-05
3.35736e-05
3.65778e-05
3.99793e-05
4.32683e-05
4.69956e-05
5.05931e-05
5.46498e-05
5.8566e-05
6.29632e-05
6.72065e-05
7.1933e-05
7.66027e-05
8.35979e-05
8.17611e-05
2.67153e-05
6.89397e-06
5.4255e-06
5.39587e-06
5.32983e-06
5.24268e-06
5.17863e-06
5.12028e-06
5.06596e-06
5.01615e-06
4.97006e-06
4.92742e-06
4.88772e-06
4.85083e-06
4.8163e-06
4.7841e-06
4.75384e-06
4.72554e-06
4.6989e-06
4.67407e-06
4.65057e-06
4.63232e-06
4.61247e-06
4.6483e-06
)
;
    }
    frontAndBack
    {
        type            empty;
    }
}


// ************************************************************************* //
