/*--------------------------------*- C++ -*----------------------------------*\
| =========                 |                                                 |
| \\      /  F ield         | OpenFOAM: The Open Source CFD Toolbox           |
|  \\    /   O peration     | Version:  2312                                  |
|   \\  /    A nd           | Website:  www.openfoam.com                      |
|    \\/     M anipulation  |                                                 |
\*---------------------------------------------------------------------------*/
FoamFile
{
    version     2.0;
    format      ascii;
    arch        "LSB;label=32;scalar=64";
    class       volVectorField;
    location    "0.1";
    object      U;
}
// * * * * * * * * * * * * * * * * * * * * * * * * * * * * * * * * * * * * * //

dimensions      [0 1 -1 0 0 0 0];

internalField   nonuniform List<vector> 
100
(
(89.1161 2.29357e-14 0)
(90.9032 -1.50979e-16 2.28172e-15)
(92.2408 4.49512e-14 0)
(93.5644 -1.9526e-15 -2.38347e-15)
(94.972 2.08039e-14 0)
(96.4065 -3.61787e-15 -2.45068e-15)
(97.8822 2.18044e-14 0)
(99.4093 -1.01188e-14 -2.5207e-15)
(100.985 2.78016e-14 -2.55778e-15)
(102.612 -1.64374e-14 -2.59573e-15)
(104.295 3.25827e-15 0)
(106.035 -1.7231e-14 -2.67518e-15)
(107.837 8.01403e-15 0)
(109.703 -2.13431e-14 0)
(111.637 9.89962e-15 -2.8037e-15)
(113.643 -2.28179e-14 0)
(115.725 -1.72733e-14 -5.79262e-15)
(117.889 -2.39181e-14 0)
(120.138 -1.5809e-14 -2.99508e-15)
(122.479 -2.46304e-14 -3.04696e-15)
(124.917 -1.49033e-14 -3.10062e-15)
(127.46 -2.63122e-14 0)
(130.113 -1.26962e-14 -3.21361e-15)
(132.886 -2.8004e-14 0)
(135.786 -4.35839e-15 -3.33482e-15)
(138.823 -3.44672e-14 0)
(142.008 4.76493e-15 0)
(145.353 -7.0571e-15 0)
(148.872 3.83655e-15 -3.60547e-15)
(152.578 -9.7408e-15 0)
(156.488 6.67806e-15 -3.75696e-15)
(160.622 -1.3904e-14 0)
(165.002 1.10772e-14 0)
(169.653 1.55697e-14 0)
(174.603 9.51144e-15 -4.09799e-15)
(179.886 1.52976e-14 -4.1921e-15)
(185.542 7.51906e-15 0)
(191.618 1.69657e-14 0)
(198.17 5.51733e-15 0)
(205.269 -9.40189e-15 0)
(212.998 9.25691e-15 0)
(221.468 -1.40615e-14 0)
(230.818 -1.25844e-14 0)
(241.237 -1.26426e-14 0)
(252.986 -1.16955e-14 5.21114e-15)
(266.447 -1.25963e-14 0)
(282.221 -1.03996e-14 -5.45108e-15)
(301.352 -1.14547e-14 0)
(325.838 -1.0354e-14 0)
(358.503 -1.32673e-14 0)
(434.753 -6.42473e-15 0)
(489.921 -1.70485e-14 0)
(517.337 -5.97157e-15 0)
(536.609 -7.04317e-15 4.3074e-15)
(553.748 -7.05819e-15 0)
(567.858 -6.41694e-15 3.83109e-15)
(580.994 -7.13776e-15 0)
(592.013 -7.18481e-15 0)
(602.718 -1.21862e-14 0)
(611.568 -1.25944e-14 0)
(620.732 -1.43913e-14 0)
(628.158 -1.9108e-14 0)
(636.118 -1.41759e-14 0)
(642.477 -1.92584e-14 0)
(649.511 -1.39665e-14 2.52838e-15)
(655.056 -1.40191e-14 0)
(661.336 -1.42329e-14 2.34173e-15)
(666.254 -1.33118e-14 0)
(671.905 -1.02538e-14 2.17736e-15)
(676.309 -1.33219e-14 0)
(681.44 -9.14551e-15 0)
(685.415 -8.93203e-15 0)
(690.088 -9.27462e-15 1.90398e-15)
(693.776 -8.84432e-15 0)
(699.325 -8.72852e-15 1.50983e-15)
(697.835 -8.74015e-15 0)
(538.795 -1.38894e-14 2.01367e-15)
(265.705 1.89309e-15 0)
(224.342 -2.16241e-14 -3.05979e-15)
(221.44 -1.38007e-14 0)
(216.605 -2.55091e-14 5.76319e-15)
(211.129 -4.86894e-15 0)
(206.425 -3.08798e-14 2.86931e-15)
(201.947 -1.09949e-15 2.82571e-15)
(197.668 -3.25888e-14 -2.78311e-15)
(193.604 -1.706e-14 2.74173e-15)
(189.721 -2.84668e-14 0)
(186.018 -2.14151e-14 0)
(182.469 -2.84302e-14 2.62351e-15)
(179.075 -1.23726e-14 0)
(175.814 -3.40148e-14 2.54969e-15)
(172.689 -3.51651e-14 2.51426e-15)
(169.679 -3.47825e-14 2.47957e-15)
(166.788 -3.20367e-14 0)
(164.001 -2.9684e-14 2.41277e-15)
(161.326 -3.57639e-14 2.38093e-15)
(158.766 -4.06944e-14 2.34854e-15)
(156.275 -3.92132e-14 0)
(154.156 -3.43389e-14 -2.25777e-15)
(150.683 -3.23041e-14 0)
)
;

boundaryField
{
    inlet
    {
        type            zeroGradient;
    }
    outlet
    {
        type            zeroGradient;
    }
    upperWall
    {
        type            slip;
    }
    lowerWall
    {
        type            slip;
    }
    frontAndBack
    {
        type            empty;
    }
}


// ************************************************************************* //
