/*--------------------------------*- C++ -*----------------------------------*\
| =========                 |                                                 |
| \\      /  F ield         | OpenFOAM: The Open Source CFD Toolbox           |
|  \\    /   O peration     | Version:  2312                                  |
|   \\  /    A nd           | Website:  www.openfoam.com                      |
|    \\/     M anipulation  |                                                 |
\*---------------------------------------------------------------------------*/
FoamFile
{
    version     2.0;
    format      ascii;
    arch        "LSB;label=32;scalar=64";
    class       volScalarField;
    location    "0.25";
    object      cSound;
}
// * * * * * * * * * * * * * * * * * * * * * * * * * * * * * * * * * * * * * //

dimensions      [0 1 -1 0 0 0 0];

internalField   nonuniform List<scalar> 
400
(
1.18322
1.18322
1.18322
1.18322
1.18322
1.18322
1.18322
1.18322
1.18322
1.18322
1.18322
1.18322
1.18322
1.18322
1.18322
1.18322
1.18322
1.18322
1.18322
1.18322
1.18322
1.18322
1.18322
1.18322
1.18322
1.18322
1.18322
1.18322
1.18322
1.18322
1.18322
1.18322
1.18322
1.18322
1.18322
1.18322
1.18322
1.18322
1.18322
1.18322
1.18322
1.18322
1.18322
1.18322
1.18322
1.18322
1.18322
1.18322
1.18322
1.18322
1.18322
1.18322
1.18322
1.18322
1.18322
1.18322
1.18322
1.18322
1.18321
1.18321
1.1832
1.1832
1.18318
1.18317
1.18314
1.18311
1.18307
1.18301
1.18292
1.18281
1.18267
1.18249
1.18226
1.18198
1.18164
1.18123
1.18075
1.18019
1.17955
1.17884
1.17804
1.17717
1.17623
1.17521
1.17414
1.173
1.17181
1.17056
1.16928
1.16795
1.16659
1.1652
1.16378
1.16233
1.16085
1.15936
1.15785
1.15633
1.1548
1.15325
1.1517
1.15014
1.14858
1.147
1.14542
1.14384
1.14225
1.14066
1.13906
1.13746
1.13585
1.13425
1.13264
1.13102
1.12941
1.12779
1.12617
1.12455
1.12292
1.1213
1.11967
1.11804
1.11641
1.11478
1.11315
1.11151
1.10988
1.10824
1.10661
1.10497
1.10333
1.10169
1.10004
1.0984
1.09676
1.09511
1.09347
1.09182
1.09018
1.08853
1.08688
1.08523
1.08358
1.08193
1.08028
1.07863
1.07698
1.07532
1.07367
1.07201
1.07036
1.0687
1.06705
1.06539
1.06373
1.06207
1.06041
1.05876
1.0571
1.05544
1.05378
1.05212
1.05046
1.0488
1.04714
1.04548
1.04382
1.04217
1.04051
1.03886
1.0372
1.03556
1.03391
1.03227
1.03063
1.02899
1.02737
1.02575
1.02413
1.02253
1.02094
1.01935
1.01778
1.01623
1.01469
1.01318
1.01169
1.01023
1.0088
1.00743
1.0061
1.00483
1.00363
1.00254
1.00153
1.00062
0.999861
0.999257
0.99877
0.998396
0.998167
0.998037
0.997951
0.99791
0.997905
0.997908
0.997916
0.997932
0.997952
0.997967
0.997984
0.998002
0.998018
0.998033
0.998046
0.998054
0.998062
0.998071
0.998078
0.998083
0.998088
0.998097
0.998104
0.998112
0.998118
0.998122
0.998128
0.998136
0.998142
0.998149
0.998157
0.998161
0.998167
0.998175
0.998181
0.998185
0.998193
0.998198
0.998205
0.998214
0.99822
0.998228
0.998236
0.998244
0.998253
0.998263
0.998272
0.998281
0.99829
0.998301
0.998311
0.998324
0.998337
0.998351
0.998365
0.99838
0.998394
0.998414
0.998432
0.99845
0.998471
0.998493
0.998516
0.998543
0.998571
0.998603
0.998639
0.998677
0.99872
0.998767
0.998822
0.998884
0.998961
0.999055
0.999182
0.999352
0.999591
0.999932
1.00042
1.00113
1.00214
1.00357
1.00558
1.00837
1.01215
1.0172
1.02383
1.03234
1.04306
1.05626
1.07217
1.09089
1.11236
1.13636
1.16229
1.18821
1.20923
1.22554
1.23778
1.24668
1.25296
1.25726
1.26013
1.26198
1.26315
1.26386
1.26427
1.2645
1.26461
1.26466
1.26468
1.26468
1.26468
1.26466
1.26464
1.26462
1.26459
1.26457
1.26456
1.26455
1.26454
1.26453
1.26452
1.26452
1.26452
1.26451
1.26451
1.26451
1.2645
1.2645
1.2645
1.2645
1.2645
1.2645
1.2645
1.2645
1.2645
1.2645
1.2645
1.2645
1.2645
1.2645
1.2645
1.2645
1.2645
1.2645
1.2645
1.2645
1.2645
1.2645
1.26451
1.26451
1.26451
1.2645
1.2645
1.2645
1.2645
1.2645
1.26451
1.26451
1.26451
1.26451
1.2645
1.2645
1.2645
1.26449
1.26447
1.26442
1.26431
1.26406
1.26348
1.26218
1.25921
1.25249
1.23719
1.20253
1.1347
1.08099
1.06362
1.05949
1.05856
1.05836
1.05831
1.0583
1.0583
1.0583
1.0583
1.0583
1.0583
1.0583
1.0583
1.0583
1.0583
1.0583
1.0583
1.0583
1.0583
1.0583
1.0583
1.0583
)
;

boundaryField
{
    sides
    {
        type            calculated;
        value           nonuniform List<scalar> 2(1.0583 1.18322);
    }
    empty1
    {
        type            empty;
    }
    empty2
    {
        type            empty;
    }
}


// ************************************************************************* //
