/*--------------------------------*- C++ -*----------------------------------*\
| =========                 |                                                 |
| \\      /  F ield         | OpenFOAM: The Open Source CFD Toolbox           |
|  \\    /   O peration     | Version:  2312                                  |
|   \\  /    A nd           | Website:  www.openfoam.com                      |
|    \\/     M anipulation  |                                                 |
\*---------------------------------------------------------------------------*/
FoamFile
{
    version     2.0;
    format      ascii;
    arch        "LSB;label=32;scalar=64";
    class       volScalarField;
    location    "0.25";
    object      p;
}
// * * * * * * * * * * * * * * * * * * * * * * * * * * * * * * * * * * * * * //

dimensions      [1 -1 -2 0 0 0 0];

internalField   nonuniform List<scalar> 
400
(
1
1
1
1
1
1
1
1
1
1
1
1
1
1
1
1
1
1
1
1
1
1
1
1
1
1
1
1
1
1
1
1
1
1
1
1
1
1
1
1
1
1
1
1
1
1
1
1
1
1
1
1
1
1
1
0.999999
0.999997
0.999991
0.999977
0.999959
0.999926
0.999877
0.999809
0.999711
0.999575
0.999384
0.999119
0.998757
0.99827
0.997626
0.99679
0.99572
0.994376
0.992717
0.990702
0.988299
0.985479
0.982221
0.978517
0.974365
0.969774
0.964762
0.959353
0.953575
0.947462
0.941048
0.934368
0.927454
0.92034
0.913053
0.905621
0.898068
0.890413
0.882675
0.874867
0.867016
0.859141
0.851257
0.843375
0.835507
0.827658
0.819833
0.812036
0.804272
0.796543
0.788854
0.781204
0.773598
0.766037
0.758522
0.751055
0.743637
0.736269
0.728951
0.721685
0.714471
0.707309
0.7002
0.693145
0.686143
0.679194
0.6723
0.665459
0.658672
0.65194
0.645261
0.638636
0.632064
0.625547
0.619083
0.612672
0.606314
0.60001
0.593758
0.587558
0.581412
0.575317
0.569274
0.563282
0.557342
0.551452
0.545615
0.539826
0.534089
0.5284
0.522763
0.517172
0.511634
0.506141
0.500699
0.495302
0.489957
0.484655
0.479403
0.474196
0.469036
0.463923
0.458854
0.453834
0.448858
0.44393
0.439045
0.434211
0.42942
0.424678
0.419982
0.415331
0.410731
0.406175
0.40167
0.397211
0.392802
0.388446
0.384134
0.379883
0.375675
0.371532
0.367434
0.363402
0.35943
0.355517
0.35167
0.34789
0.344181
0.340548
0.336998
0.333538
0.330178
0.326928
0.323802
0.320816
0.317989
0.315343
0.312905
0.310703
0.308764
0.307113
0.305765
0.304722
0.303962
0.303448
0.303134
0.302961
0.30288
0.302852
0.302848
0.302856
0.30288
0.302913
0.302942
0.302968
0.302993
0.303016
0.303038
0.303058
0.303073
0.303085
0.303093
0.303099
0.303102
0.303108
0.303119
0.303131
0.303138
0.303142
0.303142
0.303145
0.303152
0.303152
0.303155
0.303161
0.303159
0.303162
0.303167
0.303167
0.303168
0.303174
0.303171
0.303174
0.303179
0.303178
0.30318
0.30318
0.303181
0.303184
0.303184
0.303184
0.303185
0.303187
0.303187
0.303187
0.303188
0.303188
0.303189
0.303189
0.30319
0.30319
0.303191
0.303192
0.303191
0.303192
0.303192
0.303192
0.303192
0.303193
0.303192
0.303194
0.303192
0.303194
0.303191
0.303196
0.30319
0.303197
0.303191
0.303196
0.303194
0.303194
0.303194
0.303194
0.303194
0.303194
0.303195
0.303195
0.303195
0.303195
0.303195
0.303196
0.303197
0.303199
0.3032
0.3032
0.3032
0.303207
0.303206
0.303034
0.303188
0.303209
0.303201
0.303198
0.303196
0.303195
0.303195
0.303195
0.303195
0.303195
0.303195
0.303195
0.303195
0.303194
0.303193
0.303193
0.303192
0.303193
0.303194
0.303194
0.303194
0.303194
0.303193
0.303193
0.303191
0.303191
0.303191
0.303192
0.303193
0.303193
0.303193
0.303192
0.30319
0.303189
0.303188
0.303189
0.30319
0.303192
0.303193
0.303193
0.303192
0.30319
0.303189
0.303189
0.303191
0.303193
0.303195
0.303195
0.303196
0.303194
0.303192
0.303191
0.303191
0.303193
0.303196
0.303199
0.3032
0.303199
0.303198
0.303196
0.303195
0.303195
0.303198
0.303203
0.303206
0.303208
0.303204
0.303202
0.303196
0.303187
0.303173
0.30314
0.303061
0.302875
0.302451
0.301495
0.299347
0.294551
0.284014
0.261685
0.218213
0.153443
0.115269
0.103634
0.100819
0.100182
0.100041
0.100009
0.100002
0.1
0.1
0.1
0.1
0.1
0.1
0.1
0.1
0.1
0.1
0.1
0.1
0.1
0.1
0.1
0.1
)
;

boundaryField
{
    sides
    {
        type            zeroGradient;
    }
    empty1
    {
        type            empty;
    }
    empty2
    {
        type            empty;
    }
}


// ************************************************************************* //
