/*--------------------------------*- C++ -*----------------------------------*\
| =========                 |                                                 |
| \\      /  F ield         | OpenFOAM: The Open Source CFD Toolbox           |
|  \\    /   O peration     | Version:  2312                                  |
|   \\  /    A nd           | Website:  www.openfoam.com                      |
|    \\/     M anipulation  |                                                 |
\*---------------------------------------------------------------------------*/
FoamFile
{
    version     2.0;
    format      ascii;
    arch        "LSB;label=32;scalar=64";
    class       surfaceScalarField;
    location    "0.25";
    object      phi;
}
// * * * * * * * * * * * * * * * * * * * * * * * * * * * * * * * * * * * * * //

dimensions      [1 0 -1 0 0 0 0];

oriented        oriented;

internalField   nonuniform List<scalar> 
399
(
1.35525e-20
4.74338e-19
1.25361e-18
1.3146e-18
1.6263e-18
1.91091e-18
1.78893e-18
1.13841e-18
1.26039e-18
1.49755e-18
1.49078e-18
1.42979e-18
1.27394e-18
1.11131e-18
9.41901e-19
8.74138e-19
6.30193e-19
7.31836e-19
5.28549e-19
6.50521e-19
6.50521e-19
7.7927e-19
5.69206e-19
2.03288e-19
1.21973e-19
1.96512e-19
1.0842e-19
2.77827e-19
2.30393e-19
8.80914e-20
-3.78475e-19
-5.45307e-19
-3.86725e-19
-3.21156e-19
-5.23919e-20
6.57298e-19
3.99122e-18
1.44944e-17
4.32393e-17
1.22101e-16
3.39579e-16
9.36195e-16
2.56581e-15
7.00402e-15
1.90507e-14
5.16485e-14
1.3959e-13
3.76137e-13
1.01059e-12
2.7076e-12
7.23474e-12
1.92812e-11
5.12608e-11
1.35991e-10
3.60053e-10
9.4864e-10
2.45349e-09
6.21294e-09
1.13533e-08
2.09151e-08
3.44838e-08
5.41198e-08
8.30028e-08
1.22966e-07
1.79296e-07
2.57486e-07
3.65063e-07
5.10537e-07
7.03917e-07
9.56822e-07
1.28217e-06
1.69352e-06
2.20461e-06
2.82865e-06
3.57751e-06
4.46108e-06
5.48662e-06
6.65815e-06
7.97644e-06
9.43885e-06
1.10397e-05
1.27709e-05
1.4622e-05
1.65816e-05
1.86372e-05
2.07765e-05
2.2987e-05
2.5257e-05
2.75757e-05
2.99332e-05
3.23206e-05
3.47302e-05
3.71552e-05
3.95902e-05
4.20299e-05
4.4464e-05
4.68886e-05
4.92986e-05
5.16906e-05
5.40619e-05
5.64108e-05
5.87359e-05
6.10358e-05
6.33096e-05
6.55564e-05
6.77753e-05
6.99659e-05
7.21275e-05
7.42597e-05
7.63622e-05
7.84348e-05
8.04773e-05
8.24895e-05
8.44713e-05
8.64226e-05
8.83434e-05
9.02336e-05
9.20934e-05
9.39227e-05
9.57217e-05
9.74904e-05
9.92289e-05
0.000100937
0.000102616
0.000104265
0.000105884
0.000107474
0.000109034
0.000110566
0.000112069
0.000113542
0.000114988
0.000116405
0.000117794
0.000119156
0.000120489
0.000121796
0.000123075
0.000124327
0.000125552
0.000126751
0.000127924
0.00012907
0.000130191
0.000131286
0.000132356
0.0001334
0.00013442
0.000135414
0.000136385
0.000137331
0.000138253
0.000139151
0.000140026
0.000140877
0.000141705
0.00014251
0.000143292
0.000144052
0.000144789
0.000145504
0.000146197
0.000146868
0.000147517
0.000148146
0.000148752
0.000149339
0.000149902
0.000150447
0.00015097
0.000151473
0.000151955
0.000152418
0.00015286
0.000153283
0.000153686
0.000154069
0.000154434
0.00015478
0.000155107
0.000155415
0.000155705
0.000155977
0.000156231
0.000156467
0.000156685
0.000156887
0.000157072
0.000157238
0.000157386
0.000157521
0.00015764
0.000157739
0.000157823
0.000157896
0.000157955
0.000157994
0.000158022
0.000158047
0.000158062
0.000158065
0.000158067
0.00015807
0.000158069
0.000158067
0.000158065
0.000158063
0.000158061
0.000158059
0.000158058
0.000158056
0.000158054
0.000158051
0.000158049
0.000158048
0.000158047
0.000158046
0.000158044
0.000158043
0.000158042
0.000158041
0.00015804
0.00015804
0.000158038
0.000158037
0.000158035
0.000158034
0.000158032
0.000158031
0.000158029
0.000158028
0.000158026
0.000158025
0.000158023
0.000158022
0.00015802
0.000158019
0.000158017
0.000158015
0.000158013
0.000158011
0.000158009
0.000158007
0.000158004
0.000158001
0.000157999
0.000157996
0.000157994
0.000157991
0.000157988
0.000157984
0.00015798
0.000157976
0.000157972
0.000157968
0.000157963
0.000157958
0.000157953
0.000157947
0.000157941
0.000157934
0.000157927
0.00015792
0.000157911
0.000157902
0.000157891
0.00015788
0.000157867
0.000157853
0.000157837
0.00015782
0.000157798
0.000157772
0.00015774
0.000157695
0.000157634
0.000157548
0.000157425
0.000157247
0.000156992
0.000156628
0.000156116
0.000155403
0.000154431
0.00015313
0.000151428
0.000149253
0.000146545
0.000143263
0.0001394
0.000134988
0.000130104
0.000124872
0.000119438
0.000113995
0.00010958
0.000106246
0.000103797
0.000102039
0.000100804
9.99557e-05
9.9387e-05
9.9015e-05
9.87781e-05
9.86316e-05
9.85442e-05
9.84944e-05
9.84676e-05
9.84545e-05
9.84491e-05
9.84478e-05
9.84476e-05
9.84485e-05
9.84509e-05
9.84546e-05
9.84591e-05
9.84621e-05
9.84648e-05
9.84669e-05
9.84682e-05
9.84695e-05
9.84701e-05
9.8471e-05
9.84715e-05
9.8472e-05
9.84723e-05
9.84728e-05
9.84731e-05
9.84733e-05
9.84733e-05
9.84732e-05
9.84731e-05
9.8473e-05
9.84731e-05
9.84732e-05
9.84735e-05
9.84738e-05
9.8474e-05
9.8474e-05
9.84739e-05
9.84738e-05
9.8474e-05
9.84743e-05
9.84747e-05
9.8475e-05
9.84754e-05
9.84756e-05
9.84758e-05
9.84759e-05
9.84759e-05
9.84761e-05
9.84765e-05
9.84768e-05
9.84774e-05
9.84779e-05
9.84784e-05
9.84787e-05
9.8479e-05
9.84793e-05
9.84798e-05
9.84804e-05
9.84806e-05
9.84801e-05
9.84784e-05
9.84737e-05
9.84627e-05
9.84377e-05
9.83813e-05
9.82542e-05
9.79671e-05
9.73217e-05
9.58739e-05
9.26531e-05
8.56287e-05
7.10411e-05
4.35635e-05
1.50915e-05
3.91289e-06
9.03621e-07
2.02092e-07
4.47906e-08
9.91427e-09
2.1363e-09
4.35801e-10
6.81402e-11
1.10511e-11
1.82185e-12
3.00929e-13
4.96841e-14
8.19606e-15
1.35096e-15
2.22505e-16
3.66151e-17
6.00038e-18
9.11831e-19
6.3104e-20
-3.19156e-20
-4.03259e-20
-2.51391e-21
)
;

boundaryField
{
    sides
    {
        type            calculated;
        value           uniform 0;
    }
    empty1
    {
        type            empty;
        value           nonuniform List<scalar> 0();
    }
    empty2
    {
        type            empty;
        value           nonuniform List<scalar> 0();
    }
}


// ************************************************************************* //
