/*--------------------------------*- C++ -*----------------------------------*\
| =========                 |                                                 |
| \\      /  F ield         | OpenFOAM: The Open Source CFD Toolbox           |
|  \\    /   O peration     | Version:  2312                                  |
|   \\  /    A nd           | Website:  www.openfoam.com                      |
|    \\/     M anipulation  |                                                 |
\*---------------------------------------------------------------------------*/
FoamFile
{
    version     2.0;
    format      ascii;
    arch        "LSB;label=32;scalar=64";
    class       surfaceScalarField;
    location    "0.25";
    object      phiByRho;
}
// * * * * * * * * * * * * * * * * * * * * * * * * * * * * * * * * * * * * * //

dimensions      [0 3 -1 0 0 0 0];

oriented        oriented;

internalField   nonuniform List<scalar> 
399
(
1.35525e-20
4.74338e-19
1.25361e-18
1.3146e-18
1.6263e-18
1.91091e-18
1.78893e-18
1.13841e-18
1.26039e-18
1.49755e-18
1.49078e-18
1.42979e-18
1.27394e-18
1.11131e-18
9.41901e-19
8.74138e-19
6.30193e-19
7.31836e-19
5.28549e-19
6.50521e-19
6.50521e-19
7.7927e-19
5.69206e-19
2.03288e-19
1.21973e-19
1.96512e-19
1.0842e-19
2.77827e-19
2.30393e-19
8.80914e-20
-3.78475e-19
-5.45307e-19
-3.86725e-19
-3.21156e-19
-5.23919e-20
6.57298e-19
3.99122e-18
1.44944e-17
4.32393e-17
1.22101e-16
3.39579e-16
9.36195e-16
2.56581e-15
7.00402e-15
1.90507e-14
5.16485e-14
1.3959e-13
3.76137e-13
1.01059e-12
2.7076e-12
7.23474e-12
1.92812e-11
5.12608e-11
1.35991e-10
3.60054e-10
9.48642e-10
2.45351e-09
6.21302e-09
1.13536e-08
2.0916e-08
3.44863e-08
5.4126e-08
8.30171e-08
1.22998e-07
1.79363e-07
2.57624e-07
3.65341e-07
5.1108e-07
7.04951e-07
9.58735e-07
1.28561e-06
1.69953e-06
2.21483e-06
2.84553e-06
3.6046e-06
4.50335e-06
5.55082e-06
6.75314e-06
8.11348e-06
9.63185e-06
1.13054e-05
1.31287e-05
1.50945e-05
1.71939e-05
1.94169e-05
2.17536e-05
2.41935e-05
2.67267e-05
2.9344e-05
3.20366e-05
3.47969e-05
3.7618e-05
4.04941e-05
4.34202e-05
4.63917e-05
4.93976e-05
5.24338e-05
5.54947e-05
5.85769e-05
6.16774e-05
6.47942e-05
6.79257e-05
7.10705e-05
7.42272e-05
7.73949e-05
8.05724e-05
8.37589e-05
8.69537e-05
9.0156e-05
9.33653e-05
9.65809e-05
9.98025e-05
0.00010303
0.000106262
0.000109499
0.00011274
0.000115986
0.000119235
0.000122488
0.000125744
0.000129004
0.000132266
0.000135532
0.0001388
0.00014207
0.000145344
0.000148619
0.000151897
0.000155177
0.000158459
0.000161743
0.00016503
0.000168318
0.000171607
0.000174899
0.000178192
0.000181487
0.000184784
0.000188082
0.000191382
0.000194683
0.000197986
0.00020129
0.000204596
0.000207903
0.000211212
0.000214522
0.000217834
0.000221147
0.000224461
0.000227777
0.000231094
0.000234412
0.000237732
0.000241053
0.000244376
0.0002477
0.000251025
0.000254351
0.000257677
0.000261004
0.00026433
0.000267656
0.000270981
0.000274306
0.000277627
0.00028095
0.000284266
0.000287583
0.000290893
0.000294201
0.000297501
0.000300796
0.000304082
0.00030736
0.000310626
0.00031388
0.000317121
0.000320343
0.000323547
0.000326729
0.000329885
0.000333012
0.000336107
0.000339162
0.000342171
0.000345125
0.000348011
0.000350818
0.00035353
0.00035613
0.000358594
0.000360899
0.000363016
0.000364914
0.000366565
0.000367948
0.000369051
0.000369884
0.00037047
0.000370849
0.000371072
0.000371186
0.000371235
0.00037125
0.000371246
0.000371231
0.000371204
0.000371175
0.00037115
0.000371127
0.000371104
0.000371083
0.000371064
0.000371048
0.000371034
0.000371025
0.000371019
0.000371016
0.000371012
0.000371004
0.000370994
0.000370986
0.000370981
0.000370979
0.000370978
0.000370974
0.000370971
0.00037097
0.000370966
0.000370965
0.000370965
0.000370961
0.000370959
0.000370959
0.000370956
0.000370956
0.000370956
0.000370953
0.000370951
0.000370951
0.000370951
0.00037095
0.000370948
0.000370947
0.000370948
0.000370948
0.000370947
0.000370947
0.000370947
0.000370947
0.000370947
0.000370947
0.000370947
0.000370946
0.000370946
0.000370946
0.000370946
0.000370946
0.000370946
0.000370947
0.000370947
0.000370948
0.000370947
0.000370948
0.000370947
0.000370948
0.000370948
0.000370949
0.000370949
0.000370952
0.000370952
0.000370954
0.00037096
0.000370964
0.000370974
0.000370986
0.000371004
0.000371029
0.000371062
0.000371105
0.000371161
0.000371231
0.000371315
0.000371412
0.000371517
0.000371625
0.000371727
0.000371814
0.000371873
0.000371891
0.000371853
0.00037176
0.000371635
0.000370902
0.000370863
0.00037089
0.000370916
0.000370935
0.000370945
0.00037095
0.000370953
0.000370953
0.000370953
0.000370953
0.000370952
0.000370952
0.000370953
0.000370953
0.000370953
0.000370954
0.000370952
0.00037095
0.000370949
0.000370949
0.000370951
0.00037095
0.000370952
0.000370953
0.000370952
0.000370952
0.00037095
0.000370949
0.000370948
0.000370948
0.000370948
0.00037095
0.000370951
0.000370951
0.000370951
0.000370949
0.000370947
0.000370946
0.000370946
0.000370947
0.000370949
0.000370951
0.000370952
0.000370951
0.000370949
0.000370947
0.000370947
0.000370948
0.00037095
0.000370952
0.000370955
0.000370957
0.000370956
0.000370954
0.000370951
0.00037095
0.000370952
0.000370954
0.000370958
0.000370961
0.000370963
0.000370962
0.00037096
0.000370957
0.000370956
0.000370959
0.000370963
0.000370964
0.000370964
0.000370957
0.000370936
0.000370891
0.000370794
0.000370582
0.0003701
0.000369013
0.000366535
0.000360842
0.000347504
0.000315321
0.000230426
9.89717e-05
2.93824e-05
7.11548e-06
1.6109e-06
3.58036e-07
7.93e-08
1.70898e-08
3.48638e-09
5.45121e-10
8.84088e-11
1.45748e-11
2.40743e-12
3.97472e-13
6.55685e-14
1.08077e-14
1.78004e-15
2.92921e-16
4.80031e-17
7.29465e-18
5.04832e-19
-2.55325e-19
-3.22607e-19
-2.01113e-20
)
;

boundaryField
{
    sides
    {
        type            calculated;
        value           uniform 0;
    }
    empty1
    {
        type            empty;
        value           nonuniform List<scalar> 0();
    }
    empty2
    {
        type            empty;
        value           nonuniform List<scalar> 0();
    }
}


// ************************************************************************* //
