/*--------------------------------*- C++ -*----------------------------------*\
| =========                 |                                                 |
| \\      /  F ield         | OpenFOAM: The Open Source CFD Toolbox           |
|  \\    /   O peration     | Version:  2312                                  |
|   \\  /    A nd           | Website:  www.openfoam.com                      |
|    \\/     M anipulation  |                                                 |
\*---------------------------------------------------------------------------*/
FoamFile
{
    version     2.0;
    format      ascii;
    arch        "LSB;label=32;scalar=64";
    class       volScalarField;
    location    "0.25";
    object      rho;
}
// * * * * * * * * * * * * * * * * * * * * * * * * * * * * * * * * * * * * * //

dimensions      [1 -3 0 0 0 0 0];

internalField   nonuniform List<scalar> 
400
(
1
1
1
1
1
1
1
1
1
1
1
1
1
1
1
1
1
1
1
1
1
1
1
1
1
1
1
1
1
1
1
1
1
1
1
1
1
1
1
1
1
1
1
1
1
1
1
1
1
1
1
1
1
1
1
0.999999
0.999997
0.999991
0.999983
0.999968
0.999945
0.999911
0.999862
0.999793
0.999695
0.999559
0.99937
0.999111
0.998763
0.998303
0.997705
0.99694
0.995979
0.99479
0.993346
0.991624
0.989603
0.987264
0.984603
0.981616
0.978309
0.974694
0.970786
0.966604
0.962172
0.957515
0.952653
0.94761
0.94241
0.937073
0.931615
0.926056
0.920409
0.914685
0.908896
0.90306
0.897191
0.8913
0.885395
0.879483
0.873571
0.867661
0.861756
0.855859
0.849974
0.844101
0.838244
0.832404
0.826581
0.820778
0.814995
0.809234
0.803496
0.797781
0.79209
0.786423
0.780782
0.775165
0.769575
0.764011
0.758474
0.752963
0.74748
0.742024
0.736596
0.731195
0.725822
0.720476
0.715159
0.709869
0.704608
0.699375
0.69417
0.688993
0.683844
0.678723
0.673631
0.668566
0.663529
0.658521
0.65354
0.648587
0.643662
0.638766
0.633896
0.629055
0.62424
0.619454
0.614693
0.609963
0.605257
0.600581
0.595929
0.591307
0.586709
0.582138
0.577594
0.573075
0.568584
0.564119
0.559684
0.555273
0.550897
0.546543
0.542224
0.537929
0.533666
0.529432
0.525229
0.521057
0.516917
0.512807
0.508736
0.504694
0.500693
0.496724
0.492799
0.488909
0.485068
0.481271
0.47752
0.473821
0.470175
0.466587
0.463061
0.459603
0.456224
0.452936
0.449746
0.446661
0.443709
0.440918
0.438293
0.435853
0.433655
0.431734
0.430078
0.428708
0.427662
0.426916
0.426389
0.426058
0.425889
0.425811
0.425775
0.425767
0.425771
0.425791
0.425821
0.425848
0.42587
0.425891
0.42591
0.425927
0.425943
0.425958
0.425968
0.425973
0.425974
0.425974
0.425978
0.425987
0.425997
0.426001
0.426001
0.425997
0.425996
0.425999
0.425995
0.425993
0.425994
0.425988
0.425986
0.425987
0.425982
0.425981
0.425981
0.425973
0.425971
0.425971
0.425964
0.42596
0.425954
0.425949
0.425945
0.425936
0.425929
0.425923
0.425917
0.425908
0.425899
0.425889
0.425879
0.425868
0.425856
0.425844
0.425832
0.425817
0.425803
0.425786
0.42577
0.425751
0.425732
0.425708
0.425686
0.425657
0.425629
0.425594
0.425561
0.425516
0.425476
0.425415
0.425359
0.42527
0.42517
0.425022
0.424819
0.424529
0.424113
0.423516
0.422663
0.421456
0.419771
0.417459
0.414345
0.410239
0.404948
0.398298
0.390155
0.380462
0.369257
0.356697
0.343063
0.328727
0.314045
0.300644
0.290303
0.282622
0.277056
0.273114
0.270382
0.268534
0.267313
0.266527
0.266036
0.265739
0.265566
0.26547
0.265421
0.265398
0.265391
0.265391
0.265393
0.265399
0.265408
0.265419
0.265428
0.265436
0.265441
0.265445
0.265449
0.265452
0.265455
0.265458
0.26546
0.265461
0.265461
0.265461
0.265461
0.265461
0.265462
0.265463
0.265464
0.265465
0.265465
0.265464
0.265463
0.265463
0.265463
0.265464
0.265465
0.265466
0.265467
0.265467
0.265466
0.265465
0.265464
0.265464
0.265465
0.265468
0.26547
0.26547
0.26547
0.265469
0.265467
0.265466
0.265467
0.26547
0.265472
0.265475
0.265476
0.265474
0.265472
0.265469
0.265463
0.265454
0.265433
0.265384
0.265268
0.265003
0.264406
0.263065
0.260071
0.253467
0.239349
0.211259
0.166846
0.138101
0.128251
0.125741
0.125165
0.125037
0.125008
0.125002
0.125
0.125
0.125
0.125
0.125
0.125
0.125
0.125
0.125
0.125
0.125
0.125
0.125
0.125
0.125
0.125
)
;

boundaryField
{
    sides
    {
        type            calculated;
        value           nonuniform List<scalar> 2(0.125 1);
    }
    empty1
    {
        type            empty;
    }
    empty2
    {
        type            empty;
    }
}


// ************************************************************************* //
