/*--------------------------------*- C++ -*----------------------------------*\
| =========                 |                                                 |
| \\      /  F ield         | OpenFOAM: The Open Source CFD Toolbox           |
|  \\    /   O peration     | Version:  2312                                  |
|   \\  /    A nd           | Website:  www.openfoam.com                      |
|    \\/     M anipulation  |                                                 |
\*---------------------------------------------------------------------------*/
FoamFile
{
    version     2.0;
    format      ascii;
    arch        "LSB;label=32;scalar=64";
    class       volScalarField;
    location    "0.25";
    object      T;
}
// * * * * * * * * * * * * * * * * * * * * * * * * * * * * * * * * * * * * * //

dimensions      [0 0 0 1 0 0 0];

internalField   nonuniform List<scalar> 
400
(
2.5
2.5
2.5
2.5
2.5
2.5
2.5
2.5
2.5
2.5
2.5
2.5
2.5
2.5
2.5
2.5
2.5
2.5
2.5
2.5
2.5
2.5
2.5
2.5
2.5
2.5
2.5
2.5
2.5
2.5
2.5
2.5
2.5
2.5
2.5
2.5
2.5
2.5
2.5
2.5
2.5
2.5
2.5
2.5
2.5
2.5
2.5
2.5
2.5
2.5
2.5
2.5
2.5
2.5
2.5
2.5
2.5
2.5
2.49999
2.49998
2.49995
2.49991
2.49987
2.4998
2.4997
2.49956
2.49937
2.49911
2.49876
2.4983
2.49771
2.49694
2.49598
2.49479
2.49335
2.49162
2.48958
2.48723
2.48455
2.48153
2.47819
2.47453
2.47056
2.4663
2.46178
2.45701
2.45202
2.44682
2.44145
2.43592
2.43024
2.42444
2.41853
2.41251
2.4064
2.40022
2.39397
2.38768
2.38135
2.37499
2.3686
2.36219
2.35576
2.34931
2.34285
2.33637
2.32988
2.32339
2.31688
2.31038
2.30386
2.29735
2.29083
2.28431
2.27779
2.27127
2.26475
2.25823
2.25171
2.2452
2.23869
2.23218
2.22568
2.21917
2.21268
2.20619
2.1997
2.19322
2.18674
2.18027
2.1738
2.16734
2.16089
2.15444
2.148
2.14156
2.13513
2.12871
2.1223
2.11589
2.10948
2.10309
2.0967
2.09032
2.08394
2.07757
2.07121
2.06486
2.05851
2.05217
2.04584
2.03951
2.03319
2.02688
2.02058
2.01428
2.008
2.00172
1.99546
1.9892
1.98295
1.9767
1.97048
1.96425
1.95804
1.95185
1.94565
1.93949
1.93332
1.92719
1.92106
1.91496
1.90888
1.90281
1.89679
1.89076
1.8848
1.87885
1.87294
1.86708
1.86127
1.8555
1.84979
1.84414
1.83857
1.83309
1.82771
1.82243
1.81729
1.81235
1.80758
1.80299
1.7987
1.79478
1.79118
1.78793
1.78522
1.78306
1.78132
1.77999
1.77917
1.77871
1.7784
1.77826
1.77824
1.77825
1.77828
1.77834
1.77841
1.77846
1.77852
1.77858
1.77864
1.77869
1.77874
1.77877
1.7788
1.77883
1.77886
1.77888
1.77889
1.77892
1.77895
1.77898
1.779
1.77902
1.77903
1.77906
1.77909
1.77911
1.77914
1.77915
1.77918
1.7792
1.77922
1.77924
1.77927
1.77928
1.77931
1.77934
1.77936
1.77939
1.77942
1.77945
1.77948
1.77952
1.77955
1.77958
1.77961
1.77965
1.77969
1.77973
1.77978
1.77983
1.77988
1.77993
1.77998
1.78005
1.78012
1.78018
1.78026
1.78034
1.78042
1.78051
1.78061
1.78073
1.78086
1.78099
1.78115
1.78131
1.78151
1.78173
1.78201
1.78234
1.78279
1.7834
1.78426
1.78547
1.78722
1.78974
1.79336
1.7985
1.80571
1.81572
1.82936
1.84767
1.87182
1.90308
1.94281
1.99231
2.05277
2.12506
2.20955
2.30591
2.41235
2.52115
2.61115
2.68204
2.73589
2.77537
2.80339
2.82269
2.83558
2.84394
2.84919
2.85238
2.85424
2.85527
2.85579
2.85602
2.8561
2.8561
2.85608
2.85602
2.85593
2.85581
2.8557
2.85562
2.85556
2.8555
2.85546
2.85542
2.8554
2.85538
2.85536
2.85534
2.85533
2.85531
2.85531
2.8553
2.85529
2.8553
2.8553
2.8553
2.8553
2.8553
2.85529
2.85529
2.85528
2.85529
2.8553
2.85531
2.8553
2.85531
2.8553
2.8553
2.85529
2.85529
2.8553
2.8553
2.85531
2.85531
2.85531
2.85531
2.85531
2.8553
2.8553
2.8553
2.85531
2.85532
2.85533
2.85531
2.85531
2.85529
2.85526
2.85523
2.85514
2.85493
2.85443
2.85328
2.85069
2.8448
2.83145
2.80129
2.73329
2.58228
2.29917
2.08667
2.02015
2.0045
2.001
2.00023
2.00005
2.00001
2
2
2
2
2
2
2
2
2
2
2
2
2
2
2
2
)
;

boundaryField
{
    sides
    {
        type            zeroGradient;
    }
    empty1
    {
        type            empty;
    }
    empty2
    {
        type            empty;
    }
}


// ************************************************************************* //
