/*--------------------------------*- C++ -*----------------------------------*\
| =========                 |                                                 |
| \\      /  F ield         | OpenFOAM: The Open Source CFD Toolbox           |
|  \\    /   O peration     | Version:  2312                                  |
|   \\  /    A nd           | Website:  www.openfoam.com                      |
|    \\/     M anipulation  |                                                 |
\*---------------------------------------------------------------------------*/
FoamFile
{
    version     2.0;
    format      ascii;
    arch        "LSB;label=32;scalar=64";
    class       volScalarField;
    location    "0.25";
    object      thermo:psiLiqEff;
}
// * * * * * * * * * * * * * * * * * * * * * * * * * * * * * * * * * * * * * //

dimensions      [-2 4 2 0 0 0 0];

internalField   nonuniform List<scalar> 
400
(
5.78597e-11
5.78597e-11
5.78597e-11
5.78597e-11
5.78597e-11
5.78597e-11
5.78597e-11
5.78597e-11
5.78597e-11
5.78597e-11
5.78597e-11
5.78597e-11
5.78597e-11
5.78597e-11
5.78597e-11
5.78597e-11
5.78597e-11
5.78597e-11
5.78597e-11
5.78597e-11
5.78597e-11
5.78597e-11
5.78597e-11
5.78597e-11
5.78597e-11
5.78597e-11
5.78597e-11
5.78597e-11
5.78597e-11
5.78597e-11
5.78597e-11
5.78597e-11
5.78597e-11
5.78597e-11
5.78597e-11
5.78597e-11
5.78597e-11
5.78597e-11
5.78597e-11
5.78597e-11
5.78597e-11
5.78597e-11
5.78597e-11
5.78597e-11
5.78597e-11
5.78597e-11
5.78597e-11
5.78597e-11
5.78597e-11
5.78597e-11
5.78597e-11
5.78597e-11
5.78597e-11
5.78597e-11
5.78597e-11
5.78597e-11
5.78597e-11
5.78597e-11
5.78601e-11
5.78603e-11
5.78608e-11
5.78617e-11
5.78628e-11
5.78645e-11
5.78668e-11
5.787e-11
5.78744e-11
5.78805e-11
5.78887e-11
5.78994e-11
5.79135e-11
5.79314e-11
5.7954e-11
5.7982e-11
5.80159e-11
5.80566e-11
5.81047e-11
5.81602e-11
5.82237e-11
5.82953e-11
5.83748e-11
5.84623e-11
5.85573e-11
5.86595e-11
5.87685e-11
5.8884e-11
5.90053e-11
5.91319e-11
5.92636e-11
5.93998e-11
5.95401e-11
5.96843e-11
5.9832e-11
5.99831e-11
6.01372e-11
6.02939e-11
6.04531e-11
6.06142e-11
6.07773e-11
6.0942e-11
6.11084e-11
6.12763e-11
6.14456e-11
6.16164e-11
6.17885e-11
6.19619e-11
6.21365e-11
6.23124e-11
6.24895e-11
6.26677e-11
6.2847e-11
6.30275e-11
6.32091e-11
6.33918e-11
6.35756e-11
6.37604e-11
6.39463e-11
6.41332e-11
6.43212e-11
6.45102e-11
6.47003e-11
6.48913e-11
6.50834e-11
6.52766e-11
6.54707e-11
6.56659e-11
6.5862e-11
6.60592e-11
6.62575e-11
6.64567e-11
6.6657e-11
6.68583e-11
6.70607e-11
6.72641e-11
6.74685e-11
6.7674e-11
6.78805e-11
6.80881e-11
6.82967e-11
6.85064e-11
6.87172e-11
6.8929e-11
6.9142e-11
6.93559e-11
6.95712e-11
6.97873e-11
7.00047e-11
7.0223e-11
7.04427e-11
7.06632e-11
7.08851e-11
7.1108e-11
7.13323e-11
7.15575e-11
7.17839e-11
7.20115e-11
7.22399e-11
7.24698e-11
7.27006e-11
7.29326e-11
7.31658e-11
7.34003e-11
7.36357e-11
7.38724e-11
7.41103e-11
7.43489e-11
7.45892e-11
7.48296e-11
7.50719e-11
7.53143e-11
7.55583e-11
7.58027e-11
7.60478e-11
7.6294e-11
7.65399e-11
7.67874e-11
7.70339e-11
7.72818e-11
7.75293e-11
7.77763e-11
7.80232e-11
7.82695e-11
7.85148e-11
7.8759e-11
7.90014e-11
7.92412e-11
7.94782e-11
7.97122e-11
7.9941e-11
8.01627e-11
8.03774e-11
8.05852e-11
8.07806e-11
8.09597e-11
8.1125e-11
8.12751e-11
8.14006e-11
8.15005e-11
8.15814e-11
8.16435e-11
8.16816e-11
8.17032e-11
8.17175e-11
8.17243e-11
8.17252e-11
8.17245e-11
8.17232e-11
8.17206e-11
8.17173e-11
8.17147e-11
8.17119e-11
8.1709e-11
8.17064e-11
8.17039e-11
8.17016e-11
8.17003e-11
8.16989e-11
8.16975e-11
8.16963e-11
8.16955e-11
8.16947e-11
8.16933e-11
8.16919e-11
8.16908e-11
8.16897e-11
8.16889e-11
8.1688e-11
8.16867e-11
8.16857e-11
8.16846e-11
8.16831e-11
8.16825e-11
8.16815e-11
8.16802e-11
8.16793e-11
8.16785e-11
8.16772e-11
8.16764e-11
8.16752e-11
8.16737e-11
8.16727e-11
8.16713e-11
8.16701e-11
8.16688e-11
8.16672e-11
8.16656e-11
8.16641e-11
8.16626e-11
8.16611e-11
8.16593e-11
8.16575e-11
8.16555e-11
8.16533e-11
8.16509e-11
8.16487e-11
8.16462e-11
8.16437e-11
8.16405e-11
8.16375e-11
8.16344e-11
8.1631e-11
8.16273e-11
8.16236e-11
8.16191e-11
8.16144e-11
8.16091e-11
8.16032e-11
8.15968e-11
8.15896e-11
8.15818e-11
8.15727e-11
8.15625e-11
8.15496e-11
8.1534e-11
8.1513e-11
8.14848e-11
8.14451e-11
8.13887e-11
8.13077e-11
8.11913e-11
8.10251e-11
8.07899e-11
8.04618e-11
8.00116e-11
7.94053e-11
7.86061e-11
7.75766e-11
7.62828e-11
7.46999e-11
7.28169e-11
7.06424e-11
6.82068e-11
6.55645e-11
6.27905e-11
5.99872e-11
5.73688e-11
5.53698e-11
5.38905e-11
5.28187e-11
5.20595e-11
5.15338e-11
5.1178e-11
5.0943e-11
5.07917e-11
5.06971e-11
5.06398e-11
5.06065e-11
5.05881e-11
5.05787e-11
5.05746e-11
5.05732e-11
5.05733e-11
5.05736e-11
5.05746e-11
5.05762e-11
5.05784e-11
5.05804e-11
5.05818e-11
5.05829e-11
5.0584e-11
5.05847e-11
5.05854e-11
5.05858e-11
5.05862e-11
5.05865e-11
5.05868e-11
5.0587e-11
5.05873e-11
5.05874e-11
5.05876e-11
5.05877e-11
5.05876e-11
5.05875e-11
5.05875e-11
5.05875e-11
5.05876e-11
5.05877e-11
5.05878e-11
5.05878e-11
5.05877e-11
5.05876e-11
5.05874e-11
5.05875e-11
5.05874e-11
5.05875e-11
5.05876e-11
5.05877e-11
5.05877e-11
5.05875e-11
5.05875e-11
5.05873e-11
5.05873e-11
5.05873e-11
5.05874e-11
5.05874e-11
5.05875e-11
5.05875e-11
5.05875e-11
5.05873e-11
5.05872e-11
5.05871e-11
5.05873e-11
5.05874e-11
5.05877e-11
5.05882e-11
5.05888e-11
5.05904e-11
5.05941e-11
5.06031e-11
5.06237e-11
5.06702e-11
5.07762e-11
5.1018e-11
5.15729e-11
5.28694e-11
5.59956e-11
6.2977e-11
6.94788e-11
7.17994e-11
7.23679e-11
7.24964e-11
7.25247e-11
7.25313e-11
7.25328e-11
7.25331e-11
7.25331e-11
7.25331e-11
7.25331e-11
7.25331e-11
7.25331e-11
7.25331e-11
7.25331e-11
7.25331e-11
7.25331e-11
7.25331e-11
7.25331e-11
7.25331e-11
7.25331e-11
7.25331e-11
7.25331e-11
)
;

boundaryField
{
    sides
    {
        type            calculated;
        value           nonuniform List<scalar> 2(7.25331e-11 5.78597e-11);
    }
    empty1
    {
        type            empty;
    }
    empty2
    {
        type            empty;
    }
}


// ************************************************************************* //
