/*--------------------------------*- C++ -*----------------------------------*\
| =========                 |                                                 |
| \\      /  F ield         | OpenFOAM: The Open Source CFD Toolbox           |
|  \\    /   O peration     | Version:  2312                                  |
|   \\  /    A nd           | Website:  www.openfoam.com                      |
|    \\/     M anipulation  |                                                 |
\*---------------------------------------------------------------------------*/
FoamFile
{
    version     2.0;
    format      ascii;
    arch        "LSB;label=32;scalar=64";
    class       volScalarField;
    location    "0.25";
    object      thermo:psiGasEff;
}
// * * * * * * * * * * * * * * * * * * * * * * * * * * * * * * * * * * * * * //

dimensions      [-2 4 2 0 0 0 0];

internalField   nonuniform List<scalar> 
400
(
1
1
1
1
1
1
1
1
1
1
1
1
1
1
1
1
1
1
1
1
1
1
1
1
1
1
1
1
1
1
1
1
1
1
1
1
1
1
1
1
1
1
1
1
1
1
1
1
1
1
1
1
1
1
1
1
1.00001
1.00002
1.00004
1.00007
1.00013
1.00021
1.00033
1.0005
1.00073
1.00106
1.00151
1.00214
1.00297
1.00408
1.00553
1.00738
1.00972
1.01261
1.01615
1.02039
1.0254
1.03123
1.03794
1.04553
1.05403
1.06344
1.07374
1.08492
1.09695
1.10979
1.12343
1.13783
1.15295
1.16877
1.18527
1.20241
1.22019
1.23859
1.2576
1.27719
1.29733
1.318
1.33919
1.36089
1.38309
1.4058
1.42903
1.45276
1.47702
1.50179
1.52709
1.55292
1.5793
1.60622
1.6337
1.66175
1.69036
1.71956
1.74935
1.77975
1.81076
1.8424
1.87467
1.90759
1.94118
1.97544
2.01038
2.04603
2.0824
2.11949
2.15733
2.19593
2.23531
2.27548
2.31646
2.35826
2.40091
2.44442
2.48881
2.5341
2.58031
2.62745
2.67556
2.72464
2.77473
2.82583
2.87798
2.93119
2.98552
3.04093
3.09752
3.15523
3.21418
3.27431
3.33572
3.39837
3.46236
3.52766
3.59434
3.66242
3.73191
3.80289
3.87532
3.94931
4.02479
4.10189
4.1805
4.26082
4.34272
4.42633
4.51166
4.59866
4.68747
4.77799
4.87032
4.96446
5.06031
5.15809
5.25748
5.35886
5.46177
5.56663
5.67296
5.78091
5.89046
6.00138
6.11363
6.22701
6.34136
6.45639
6.57169
6.68675
6.80113
6.91421
7.02499
7.13232
7.23522
7.33241
7.42183
7.50167
7.57104
7.62871
7.67355
7.70617
7.72875
7.74277
7.75027
7.75377
7.75513
7.75538
7.75511
7.75414
7.75274
7.7515
7.75045
7.74941
7.74847
7.74762
7.74681
7.74617
7.74567
7.74536
7.74521
7.74511
7.74491
7.74445
7.74397
7.7437
7.7436
7.74366
7.74362
7.7434
7.74346
7.74341
7.74326
7.74341
7.74337
7.74321
7.74332
7.7433
7.74315
7.74339
7.74335
7.74322
7.74336
7.74339
7.7435
7.74356
7.74356
7.74371
7.74383
7.74392
7.744
7.74417
7.7443
7.74448
7.74465
7.74483
7.74503
7.74524
7.74545
7.74569
7.74594
7.74625
7.74653
7.74689
7.74722
7.74766
7.74804
7.74859
7.74905
7.74975
7.75028
7.75118
7.7518
7.75306
7.75388
7.75566
7.75737
7.76013
7.76382
7.76913
7.77675
7.78771
7.80342
7.82575
7.85715
7.90068
7.96005
8.03972
8.14474
8.2807
8.45347
8.66883
8.93186
9.24635
9.61362
10.0329
10.5079
10.9706
11.3607
11.6698
11.9044
12.0763
12.1983
12.2823
12.3384
12.3747
12.3976
12.4115
12.4195
12.424
12.4264
12.4274
12.4278
12.4279
12.4277
12.4274
12.427
12.4265
12.426
12.4257
12.4255
12.4254
12.4252
12.425
12.4248
12.4247
12.4246
12.4245
12.4245
12.4246
12.4247
12.4247
12.4246
12.4245
12.4244
12.4244
12.4244
12.4244
12.4246
12.4246
12.4246
12.4245
12.4243
12.4242
12.4242
12.4242
12.4243
12.4244
12.4245
12.4245
12.4243
12.4241
12.4239
12.4238
12.4239
12.424
12.4241
12.4242
12.4241
12.4239
12.4236
12.4234
12.4232
12.4235
12.4237
12.424
12.4247
12.4257
12.428
12.4335
12.4466
12.4766
12.5443
12.6986
13.0536
13.8897
15.961
21.6797
39.1143
62.9116
75.2759
78.892
79.7516
79.9448
79.9878
79.9975
79.9996
79.9999
80
80
80
80
80
80
80
80
80
80
80
80
80
80
)
;

boundaryField
{
    sides
    {
        type            calculated;
        value           nonuniform List<scalar> 2(80 1);
    }
    empty1
    {
        type            empty;
    }
    empty2
    {
        type            empty;
    }
}


// ************************************************************************* //
