/*--------------------------------*- C++ -*----------------------------------*\
| =========                 |                                                 |
| \\      /  F ield         | OpenFOAM: The Open Source CFD Toolbox           |
|  \\    /   O peration     | Version:  2312                                  |
|   \\  /    A nd           | Website:  www.openfoam.com                      |
|    \\/     M anipulation  |                                                 |
\*---------------------------------------------------------------------------*/
FoamFile
{
    version     2.0;
    format      ascii;
    arch        "LSB;label=32;scalar=64";
    class       volVectorField;
    location    "0.25";
    object      U;
}
// * * * * * * * * * * * * * * * * * * * * * * * * * * * * * * * * * * * * * //

dimensions      [0 1 -1 0 0 0 0];

internalField   nonuniform List<vector> 
400
(
(2.49775e-16 0 0)
(6.28694e-16 0 0)
(2.17852e-15 0 0)
(3.29298e-15 0 0)
(3.71209e-15 0 0)
(4.24091e-15 0 0)
(4.76127e-15 0 0)
(3.62368e-15 0 0)
(2.94037e-15 0 0)
(3.47033e-15 0 0)
(3.64528e-15 0 0)
(3.63824e-15 0 0)
(3.25166e-15 0 0)
(2.97286e-15 0 0)
(2.56284e-15 0 0)
(2.11295e-15 0 0)
(1.957e-15 0 0)
(1.69054e-15 0 0)
(1.4557e-15 0 0)
(1.60785e-15 0 0)
(1.64474e-15 0 0)
(1.59288e-15 0 0)
(1.60926e-15 0 0)
(5.70763e-16 0 0)
(2.65928e-16 0 0)
(3.46258e-16 0 0)
(4.28689e-16 0 0)
(5.46932e-16 0 0)
(6.19833e-16 0 0)
(4.43654e-16 0 0)
(-3.08451e-16 0 0)
(-1.19596e-15 0 0)
(-1.10974e-15 0 0)
(-7.99379e-16 0 0)
(-5.96055e-16 0 0)
(1.50533e-16 0 0)
(3.05923e-15 0 0)
(1.57316e-14 0 0)
(5.26286e-14 0 0)
(1.52026e-13 0 0)
(4.27792e-13 0 0)
(1.18565e-12 0 0)
(3.26318e-12 0 0)
(8.93211e-12 0 0)
(2.43604e-11 0 0)
(6.62031e-11 0 0)
(1.79343e-10 0 0)
(4.84344e-10 0 0)
(1.30414e-09 0 0)
(3.50143e-09 0 0)
(9.37474e-09 0 0)
(2.50328e-08 0 0)
(6.66723e-08 0 0)
(1.77151e-07 0 0)
(4.69727e-07 0 0)
(1.24292e-06 0 0)
(3.26802e-06 0 0)
(8.40978e-06 0 0)
(1.91301e-05 0 0)
(3.61364e-05 0 0)
(6.21403e-05 0 0)
(0.000101881 0 0)
(0.000158774 0 0)
(0.000239974 0 0)
(0.000353438 0 0)
(0.000512291 0 0)
(0.000733028 0 0)
(0.00103522 0 0)
(0.00144169 0 0)
(0.00197939 0 0)
(0.00267953 0 0)
(0.00357628 0 0)
(0.00470501 0 0)
(0.0061019 0 0)
(0.00780127 0 0)
(0.00983429 0 0)
(0.0122273 0 0)
(0.0150003 0 0)
(0.0181656 0 0)
(0.0217279 0 0)
(0.0256842 0 0)
(0.0300245 0 0)
(0.034733 0 0)
(0.0397894 0 0)
(0.0451702 0 0)
(0.0508502 0 0)
(0.0568035 0 0)
(0.0630047 0 0)
(0.0694295 0 0)
(0.0760551 0 0)
(0.0828608 0 0)
(0.0898282 0 0)
(0.096941 0 0)
(0.104186 0 0)
(0.111551 0 0)
(0.11902 0 0)
(0.12657 0 0)
(0.13419 0 0)
(0.141864 0 0)
(0.149588 0 0)
(0.157356 0 0)
(0.165163 0 0)
(0.173006 0 0)
(0.18088 0 0)
(0.188784 0 0)
(0.196714 0 0)
(0.204667 0 0)
(0.212643 0 0)
(0.220639 0 0)
(0.228652 0 0)
(0.236683 0 0)
(0.244729 0 0)
(0.25279 0 0)
(0.260864 0 0)
(0.26895 0 0)
(0.277048 0 0)
(0.285157 0 0)
(0.293276 0 0)
(0.301404 0 0)
(0.309541 0 0)
(0.317686 0 0)
(0.32584 0 0)
(0.334 0 0)
(0.342168 0 0)
(0.350342 0 0)
(0.358523 0 0)
(0.36671 0 0)
(0.374903 0 0)
(0.383101 0 0)
(0.391304 0 0)
(0.399513 0 0)
(0.407727 0 0)
(0.415945 0 0)
(0.424169 0 0)
(0.432396 0 0)
(0.440629 0 0)
(0.448865 0 0)
(0.457106 0 0)
(0.46535 0 0)
(0.473599 0 0)
(0.481851 0 0)
(0.490108 0 0)
(0.498368 0 0)
(0.506632 0 0)
(0.514899 0 0)
(0.523171 0 0)
(0.531444 0 0)
(0.539724 0 0)
(0.548004 0 0)
(0.556291 0 0)
(0.564579 0 0)
(0.572872 0 0)
(0.581167 0 0)
(0.589466 0 0)
(0.597769 0 0)
(0.606074 0 0)
(0.614384 0 0)
(0.622696 0 0)
(0.631011 0 0)
(0.639327 0 0)
(0.647647 0 0)
(0.655962 0 0)
(0.664282 0 0)
(0.672595 0 0)
(0.680909 0 0)
(0.68922 0 0)
(0.697526 0 0)
(0.705826 0 0)
(0.714122 0 0)
(0.722403 0 0)
(0.730685 0 0)
(0.738939 0 0)
(0.747193 0 0)
(0.755418 0 0)
(0.76363 0 0)
(0.771815 0 0)
(0.779967 0 0)
(0.788092 0 0)
(0.796172 0 0)
(0.804211 0 0)
(0.812203 0 0)
(0.820133 0 0)
(0.827995 0 0)
(0.835782 0 0)
(0.843482 0 0)
(0.851078 0 0)
(0.858548 0 0)
(0.865867 0 0)
(0.873008 0 0)
(0.879935 0 0)
(0.886608 0 0)
(0.892978 0 0)
(0.898987 0 0)
(0.904567 0 0)
(0.909647 0 0)
(0.914149 0 0)
(0.918007 0 0)
(0.921175 0 0)
(0.923645 0 0)
(0.925452 0 0)
(0.926674 0 0)
(0.927435 0 0)
(0.92785 0 0)
(0.928047 0 0)
(0.928114 0 0)
(0.928128 0 0)
(0.92811 0 0)
(0.928054 0 0)
(0.927978 0 0)
(0.927908 0 0)
(0.92785 0 0)
(0.927792 0 0)
(0.927736 0 0)
(0.927686 0 0)
(0.927641 0 0)
(0.927603 0 0)
(0.927572 0 0)
(0.927553 0 0)
(0.927543 0 0)
(0.927537 0 0)
(0.927526 0 0)
(0.9275 0 0)
(0.927473 0 0)
(0.927456 0 0)
(0.927451 0 0)
(0.927452 0 0)
(0.927445 0 0)
(0.92743 0 0)
(0.927431 0 0)
(0.927424 0 0)
(0.927413 0 0)
(0.927417 0 0)
(0.927411 0 0)
(0.9274 0 0)
(0.927405 0 0)
(0.927399 0 0)
(0.927387 0 0)
(0.927396 0 0)
(0.927391 0 0)
(0.927381 0 0)
(0.927382 0 0)
(0.927378 0 0)
(0.927378 0 0)
(0.927375 0 0)
(0.927369 0 0)
(0.927372 0 0)
(0.927371 0 0)
(0.92737 0 0)
(0.927367 0 0)
(0.927369 0 0)
(0.927367 0 0)
(0.927367 0 0)
(0.927366 0 0)
(0.927366 0 0)
(0.927366 0 0)
(0.927366 0 0)
(0.927364 0 0)
(0.927365 0 0)
(0.927365 0 0)
(0.927366 0 0)
(0.927365 0 0)
(0.927367 0 0)
(0.927365 0 0)
(0.927368 0 0)
(0.927365 0 0)
(0.927369 0 0)
(0.927365 0 0)
(0.927371 0 0)
(0.927365 0 0)
(0.927375 0 0)
(0.927364 0 0)
(0.927379 0 0)
(0.927363 0 0)
(0.927375 0 0)
(0.927366 0 0)
(0.927371 0 0)
(0.927371 0 0)
(0.927372 0 0)
(0.927373 0 0)
(0.927374 0 0)
(0.927374 0 0)
(0.927376 0 0)
(0.927381 0 0)
(0.92739 0 0)
(0.927405 0 0)
(0.927431 0 0)
(0.927471 0 0)
(0.927532 0 0)
(0.927622 0 0)
(0.927747 0 0)
(0.927909 0 0)
(0.928108 0 0)
(0.928328 0 0)
(0.928414 0 0)
(0.928118 0 0)
(0.927159 0 0)
(0.927155 0 0)
(0.927255 0 0)
(0.927321 0 0)
(0.927354 0 0)
(0.927371 0 0)
(0.92738 0 0)
(0.927383 0 0)
(0.927384 0 0)
(0.927383 0 0)
(0.927382 0 0)
(0.92738 0 0)
(0.92738 0 0)
(0.927382 0 0)
(0.927383 0 0)
(0.927384 0 0)
(0.927385 0 0)
(0.927382 0 0)
(0.92738 0 0)
(0.927377 0 0)
(0.927375 0 0)
(0.927375 0 0)
(0.927377 0 0)
(0.927379 0 0)
(0.927382 0 0)
(0.927382 0 0)
(0.927379 0 0)
(0.927375 0 0)
(0.927371 0 0)
(0.927369 0 0)
(0.927369 0 0)
(0.927371 0 0)
(0.927375 0 0)
(0.927378 0 0)
(0.927378 0 0)
(0.927377 0 0)
(0.927371 0 0)
(0.927367 0 0)
(0.927364 0 0)
(0.927365 0 0)
(0.92737 0 0)
(0.927375 0 0)
(0.92738 0 0)
(0.927382 0 0)
(0.927377 0 0)
(0.927371 0 0)
(0.927368 0 0)
(0.927369 0 0)
(0.927371 0 0)
(0.927377 0 0)
(0.927385 0 0)
(0.927391 0 0)
(0.927393 0 0)
(0.92739 0 0)
(0.927383 0 0)
(0.927376 0 0)
(0.927377 0 0)
(0.92738 0 0)
(0.927389 0 0)
(0.9274 0 0)
(0.927407 0 0)
(0.927409 0 0)
(0.927404 0 0)
(0.927397 0 0)
(0.927392 0 0)
(0.92739 0 0)
(0.927404 0 0)
(0.927405 0 0)
(0.927404 0 0)
(0.927389 0 0)
(0.927338 0 0)
(0.927212 0 0)
(0.926939 0 0)
(0.926346 0 0)
(0.925013 0 0)
(0.922006 0 0)
(0.915224 0 0)
(0.899958 0 0)
(0.865758 0 0)
(0.790156 0 0)
(0.629536 0 0)
(0.336556 0 0)
(0.105156 0 0)
(0.025857 0 0)
(0.00586489 0 0)
(0.00130602 0 0)
(0.000289348 0 0)
(6.31277e-05 0 0)
(1.26113e-05 0 0)
(2.19006e-06 0 0)
(3.63371e-07 0 0)
(5.96756e-08 0 0)
(9.85292e-09 0 0)
(1.62667e-09 0 0)
(2.68367e-10 0 0)
(4.42407e-11 0 0)
(7.28761e-12 0 0)
(1.19966e-12 0 0)
(1.9703e-13 0 0)
(3.12339e-14 0 0)
(3.61169e-15 0 0)
(-8.35303e-16 0 0)
(-8.52186e-16 0 0)
(-9.97996e-17 0 0)
(9.48279e-17 0 0)
)
;

boundaryField
{
    sides
    {
        type            fixedValue;
        value           uniform (0 0 0);
    }
    empty1
    {
        type            empty;
    }
    empty2
    {
        type            empty;
    }
}


// ************************************************************************* //
