/*--------------------------------*- C++ -*----------------------------------*\
| =========                 |                                                 |
| \\      /  F ield         | OpenFOAM: The Open Source CFD Toolbox           |
|  \\    /   O peration     | Version:  2312                                  |
|   \\  /    A nd           | Website:  www.openfoam.com                      |
|    \\/     M anipulation  |                                                 |
\*---------------------------------------------------------------------------*/
FoamFile
{
    version     2.0;
    format      ascii;
    arch        "LSB;label=32;scalar=64";
    class       volScalarField;
    location    "0.0008";
    object      cSound;
}
// * * * * * * * * * * * * * * * * * * * * * * * * * * * * * * * * * * * * * //

dimensions      [0 1 -1 0 0 0 0];

internalField   nonuniform List<scalar> 
5000
(
347.6722595
347.6722595
347.6722595
347.6722595
347.6722595
347.6722595
347.6722595
347.6722595
347.6722595
347.6722595
347.6722595
347.6722595
347.6722595
347.6722595
347.6722595
347.6722595
347.6722595
347.6722595
347.6722595
347.6722595
347.6722595
347.6722595
347.6722595
347.6722595
347.6722595
347.6722595
347.6722595
347.6722595
347.6722595
347.6722595
347.6722595
347.6722595
347.6722595
347.6722595
347.6722595
347.6722595
347.6722595
347.6722595
347.6722595
347.6722595
347.6722595
347.6722595
347.6722595
347.6722595
347.6722595
347.6722595
347.6722595
347.6722595
347.6722595
347.6722595
347.6722595
347.6722595
347.6722595
347.6722595
347.6722595
347.6722595
347.6722595
347.6722595
347.6722595
347.6722595
347.6722595
347.6722595
347.6722595
347.6722595
347.6722595
347.6722595
347.6722595
347.6722595
347.6722595
347.6722595
347.6722595
347.6722595
347.6722595
347.6722595
347.6722595
347.6722594
347.6722594
347.6722594
347.6722592
347.672259
347.6722585
347.6722576
347.6722558
347.6722523
347.6722457
347.6722331
347.6722099
347.6721672
347.67209
347.6719519
347.6717088
347.6712869
347.6705663
347.6693549
347.6673526
347.6641004
347.6589135
347.6507986
347.6383563
347.6196797
347.5922666
347.5529725
347.4980438
347.4232809
347.3243901
347.1976169
347.0409038
346.8555492
346.6450759
346.4124634
346.1599378
345.8895339
345.603261
345.3030667
344.9907758
344.6680464
344.3363477
343.9969579
343.6509749
343.2993344
342.9428308
342.5821384
342.2178311
341.8504
341.4802685
341.1078047
340.7333327
340.3571408
339.9794901
339.6006203
339.220756
338.8401117
338.4588965
338.0773165
337.69563
337.3141283
336.9331344
336.5529379
336.1738441
335.7962266
335.4205231
335.047248
334.677016
334.3105684
333.948808
333.5928446
333.2440474
332.9041349
332.5750929
332.2594917
331.9603521
331.6808623
331.4233135
331.1892411
330.8579046
330.4243252
329.8993325
329.329712
328.7531683
328.2102982
327.6847962
327.1978766
326.716166
326.2671184
325.814746
325.3771734
324.9384102
324.5114906
324.0839178
323.6592053
323.234204
322.811453
322.3899424
321.9716722
321.5525303
321.134033
320.7158074
320.2988099
319.8822208
319.4670469
319.0511579
318.635305
318.2197426
317.8049639
317.3901449
316.9762238
316.5616595
316.1473921
315.7330654
315.3195336
314.9056445
314.4922974
314.078525
313.6646749
313.2512222
312.8373151
312.4237904
312.0096946
311.5957652
311.1811925
310.7668335
310.3518843
309.93693
309.5214158
309.105608
308.6891832
308.2724097
307.8550665
307.4369373
307.0200074
306.6020122
306.1946194
305.784209
305.381386
304.9804085
304.5895749
304.2052026
303.8464524
303.5214084
303.2251365
302.9907189
302.8277276
302.7226898
302.6747069
302.6643536
302.6663773
302.6697362
302.6733662
302.6768732
302.6761561
302.6733629
302.6659461
302.6522226
302.6317484
302.6050246
302.5733507
302.5396512
302.5085994
302.4911105
302.4797017
302.4689747
302.4582317
302.4480388
302.4388651
302.4303863
302.4224494
302.4151562
302.4085033
302.4023637
302.3964129
302.3904135
302.3845218
302.3791942
302.3744599
302.3699637
302.3654814
302.3609421
302.3566035
302.3526752
302.3490778
302.3455733
302.3420497
302.3384413
302.3350964
302.3322122
302.3296941
302.3272862
302.3249676
302.3226463
302.3204132
302.3181959
302.3161054
302.3141522
302.3124187
302.3107876
302.3092901
302.3078397
302.3063654
302.3048795
302.3033277
302.3018268
302.3007819
302.2998938
302.2992709
302.2987816
302.2983278
302.2978856
302.2974756
302.2970199
302.2964301
302.2956499
302.2952691
302.2952687
302.2953388
302.2955258
302.2958865
302.2964284
302.2970925
302.2978489
302.2987206
302.2997201
302.3008142
302.3020322
302.303453
302.3050791
302.3069084
302.3089553
302.3112012
302.3136419
302.3162801
302.3190969
302.3221223
302.3254609
302.3292104
302.3335141
302.338614
302.3448151
302.3525893
302.3627197
302.376526
302.3963766
302.4263644
302.4734953
302.5494685
302.6732798
302.8749989
303.200912
303.7203294
304.5341322
305.7848851
307.6679648
310.4426312
314.4415087
320.0767783
327.841381
338.3061878
352.1149176
369.9907333
392.7565074
421.3221738
457.007081
501.2766738
556.3643238
625.2872678
711.0720733
820.0012867
956.5197207
1107.252908
1236.949485
1341.389861
1419.851773
1475.394836
1512.784106
1536.933694
1552.010888
1561.161998
1566.582174
1569.722616
1571.503578
1572.49229
1573.029542
1573.315228
1573.46392
1573.539619
1573.576722
1573.593349
1573.600778
1573.602754
1573.601117
1573.597639
1573.594581
1573.592345
1573.590467
1573.588647
1573.586845
1573.58506
1573.583271
1573.581472
1573.57965
1573.577757
1573.575714
1573.57351
1573.571161
1573.568676
1573.566068
1573.563357
1573.560555
1573.557668
1573.554697
1573.551658
1573.548567
1573.545438
1573.542279
1573.539098
1573.535908
1573.532745
1573.529616
1573.526523
1573.523468
1573.520467
1573.517534
1573.514692
1573.511937
1573.509257
1573.506658
1573.504152
1573.501724
1573.499392
1573.497166
1573.495043
1573.493034
1573.491118
1573.489303
1573.487602
1573.486018
1573.484554
1573.483192
1573.481913
1573.480721
1573.479615
1573.478601
1573.477694
1573.476882
1573.476153
1573.475507
1573.474933
1573.47444
1573.474021
1573.473675
1573.473386
1573.473162
1573.473016
1573.472931
1573.472897
1573.472899
1573.472933
1573.473024
1573.473182
1573.473404
1573.473676
1573.473985
1573.474321
1573.474681
1573.475066
1573.475475
1573.475908
1573.476361
1573.47683
1573.47731
1573.477797
1573.478288
1573.478781
1573.479277
1573.479775
1573.480277
1573.480784
1573.481296
1573.481814
1573.482336
1573.482862
1573.483391
1573.483923
1573.484458
1573.484989
1573.485503
1573.485997
1573.486475
1573.486937
1573.487385
1573.487817
1573.488234
1573.488633
1573.489016
1573.489382
1573.489735
1573.490079
1573.490417
1573.490753
1573.491091
1573.49143
1573.491767
1573.492087
1573.492386
1573.492664
1573.49292
1573.493157
1573.493378
1573.493582
1573.493771
1573.493943
1573.4941
1573.494245
1573.494379
1573.494507
1573.494632
1573.494758
1573.494885
1573.495016
1573.495152
1573.495293
1573.495427
1573.495546
1573.495648
1573.495735
1573.495809
1573.495873
1573.49593
1573.495984
1573.496036
1573.496088
1573.496141
1573.496196
1573.496254
1573.496316
1573.496385
1573.496464
1573.496552
1573.496651
1573.496758
1573.496859
1573.496945
1573.49702
1573.497088
1573.497152
1573.497217
1573.497286
1573.497363
1573.497455
1573.497566
1573.497698
1573.497851
1573.498024
1573.498212
1573.498409
1573.498598
1573.498779
1573.498956
1573.499134
1573.499315
1573.499504
1573.499706
1573.499923
1573.500161
1573.50042
1573.5007
1573.500999
1573.501312
1573.501637
1573.501967
1573.502299
1573.502636
1573.50298
1573.503335
1573.503705
1573.504094
1573.504506
1573.50494
1573.505394
1573.505865
1573.506345
1573.506831
1573.507316
1573.507801
1573.508288
1573.508785
1573.509297
1573.509833
1573.510397
1573.510989
1573.511608
1573.512245
1573.512891
1573.513538
1573.514184
1573.514833
1573.515491
1573.516165
1573.516861
1573.517582
1573.518329
1573.519094
1573.519866
1573.520628
1573.521382
1573.522136
1573.522893
1573.52366
1573.524445
1573.525252
1573.526081
1573.526931
1573.527796
1573.528667
1573.529526
1573.530369
1573.531202
1573.532034
1573.532874
1573.53373
1573.534605
1573.5355
1573.536413
1573.537335
1573.538248
1573.539145
1573.540031
1573.540915
1573.541805
1573.542706
1573.543624
1573.544559
1573.545507
1573.54646
1573.547391
1573.548302
1573.549198
1573.550089
1573.550988
1573.551902
1573.552837
1573.553794
1573.554763
1573.555736
1573.556703
1573.557659
1573.558609
1573.55956
1573.560519
1573.561492
1573.562484
1573.563493
1573.564514
1573.565537
1573.566557
1573.567574
1573.56859
1573.56961
1573.570644
1573.571699
1573.57278
1573.573886
1573.575008
1573.576134
1573.577257
1573.578375
1573.579489
1573.580606
1573.581732
1573.582875
1573.584041
1573.585233
1573.586443
1573.587661
1573.588881
1573.590102
1573.591325
1573.592553
1573.593788
1573.595035
1573.596301
1573.597589
1573.598888
1573.60019
1573.60149
1573.602785
1573.604072
1573.605348
1573.606617
1573.607888
1573.609173
1573.610479
1573.611798
1573.613125
1573.614455
1573.615788
1573.61712
1573.618445
1573.619761
1573.621069
1573.622373
1573.623683
1573.625004
1573.626336
1573.627679
1573.629037
1573.630404
1573.631775
1573.633141
1573.634497
1573.635839
1573.637187
1573.638555
1573.639948
1573.641368
1573.642815
1573.64428
1573.645747
1573.647192
1573.648591
1573.649949
1573.651293
1573.652669
1573.654093
1573.65557
1573.657093
1573.658648
1573.660208
1573.661735
1573.663209
1573.664642
1573.666062
1573.667515
1573.669028
1573.670603
1573.672225
1573.673866
1573.675492
1573.677072
1573.678598
1573.680084
1573.681556
1573.683069
1573.684657
1573.686321
1573.688036
1573.689762
1573.69147
1573.693139
1573.694758
1573.69633
1573.697873
1573.699422
1573.701028
1573.702706
1573.704435
1573.706187
1573.707941
1573.709692
1573.711429
1573.713139
1573.714817
1573.716472
1573.718135
1573.719851
1573.721631
1573.723471
1573.72536
1573.727287
1573.72922
1573.731117
1573.732937
1573.734677
1573.736378
1573.738147
1573.740027
1573.742031
1573.744135
1573.746301
1573.748483
1573.750619
1573.75265
1573.754571
1573.756421
1573.758289
1573.76028
1573.762409
1573.764648
1573.766947
1573.769272
1573.771587
1573.77385
1573.776031
1573.778139
1573.780217
1573.782361
1573.784593
1573.786914
1573.78932
1573.791803
1573.794349
1573.796903
1573.799382
1573.801728
1573.803943
1573.806106
1573.808364
1573.810766
1573.813338
1573.816062
1573.818892
1573.821747
1573.824523
1573.827157
1573.829665
1573.832107
1573.834614
1573.837316
1573.840231
1573.84331
1573.84648
1573.849683
1573.852868
1573.855995
1573.859049
1573.862026
1573.864982
1573.868123
1573.87151
1573.875107
1573.878842
1573.882685
1573.88659
1573.890481
1573.894216
1573.89766
1573.90091
1573.904305
1573.908065
1573.912183
1573.916535
1573.921008
1573.925553
1573.930068
1573.934357
1573.938286
1573.941944
1573.945598
1573.949571
1573.953794
1573.958192
1573.962754
1573.967487
1573.97235
1573.977137
1573.981565
1573.98562
1573.98949
1573.99341
1573.99749
1574.001826
1574.006523
1574.011612
1574.016914
1574.0221
1574.026821
1574.031147
1574.035263
1574.039312
1574.04346
1574.047947
1574.052976
1574.058545
1574.064291
1574.069896
1574.075224
1574.080374
1574.085419
1574.090094
1574.094153
1574.098539
1574.103666
1574.109676
1574.11607
1574.122397
1574.128538
1574.134637
1574.140676
1574.145845
1574.149967
1574.154324
1574.159716
1574.166255
1574.173043
1574.17959
1574.18612
1574.193011
1574.200126
1574.206194
1574.210655
1574.214806
1574.220195
1574.226776
1574.233383
1574.239978
1574.247029
1574.255186
1574.264133
1574.271104
1574.275805
1574.279719
1574.28501
1574.292575
1574.299545
1574.306434
1574.314222
1574.323287
1574.334268
1574.34245
1574.348246
1574.354056
1574.360674
1574.369474
1574.377243
1574.383526
1574.393657
1574.411519
1574.438675
1574.453645
1574.437938
1574.240395
1573.188769
1569.034171
1556.280209
1526.473089
1475.929285
1433.208861
1410.022132
1398.724053
1393.572541
1391.291476
1390.294403
1389.861019
1389.673107
1389.591718
1389.55648
1389.541232
1389.534598
1389.531713
1389.530095
1389.529372
1389.529773
1389.528845
1389.528788
1389.529611
1389.529482
1389.529478
1389.529598
1389.50431
1389.522909
1389.529597
1389.529597
1389.529597
1389.528746
1389.529597
1389.529597
1389.529232
1389.529232
1389.528989
1389.528989
1389.528745
1389.528867
1389.529597
1389.529475
1389.529597
1389.529475
1389.529597
1389.529597
1389.529597
1389.529475
1389.529597
1389.529475
1389.529597
1389.508439
1389.529597
1389.529597
1389.528867
1389.529597
1389.529597
1389.52911
1389.528745
1389.52911
1389.529597
1389.528624
1389.528867
1389.529597
1389.529597
1389.529597
1389.528867
1389.529597
1389.529475
1389.529597
1389.529475
1389.529597
1389.529353
1389.529597
1389.529597
1389.515248
1389.529475
1389.529597
1389.529597
1389.529597
1389.528989
1389.529597
1389.529597
1389.528989
1389.529475
1389.529597
1389.52911
1389.529475
1389.528989
1389.519018
1389.529475
1389.498225
1389.529597
1389.51537
1389.528745
1389.528989
1389.528867
1389.515005
1389.528867
1389.500779
1389.529475
1389.528624
1389.528989
1389.520599
1389.529597
1389.50698
1389.529475
1389.500536
1389.529597
1389.529597
1389.529475
1389.529597
1389.529475
1389.504183
1389.528989
1389.505521
1389.529597
1389.511601
1389.529597
1389.528989
1389.528624
1389.511236
1389.529597
1389.49701
1389.529597
1389.51075
1389.529475
1389.529597
1389.529232
1389.515127
1389.529475
1389.521815
1389.529475
1389.518775
1389.529597
1389.529597
1389.529597
1389.512817
1389.529232
1389.513789
1389.529597
1389.508318
1389.528867
1389.529597
1389.529597
1389.510263
1389.528989
1389.490444
1389.529597
1389.529597
1389.529597
1389.529597
1389.528745
1389.529354
1389.529597
1389.510385
1389.529232
1389.528989
1389.529597
1389.528624
1389.528867
1389.517072
1389.528746
1389.502238
1389.528989
1389.514884
1389.529475
1389.529475
1389.52911
1389.528746
1389.529597
1389.503819
1389.529597
1389.528867
1389.529597
1389.529597
1389.529475
1389.529232
1389.529597
1389.514032
1389.528745
1389.51306
1389.529597
1389.520842
1389.529475
1389.509898
1389.529597
1389.518045
1389.529232
1389.514032
1389.529597
1389.528867
1389.529232
1389.529475
1389.529232
1389.507102
1389.528624
1389.529232
1389.528745
1389.529597
1389.529597
1389.505886
1389.529475
1389.512452
1389.527043
1389.528746
1389.529475
1389.510993
1389.529353
1389.499441
1389.529597
1389.493119
1389.529475
1389.510628
1389.513546
1389.52911
1389.505034
1389.528502
1389.528989
1389.529353
1389.514154
1389.528989
1389.512817
1389.529353
1389.508926
1389.529232
1389.515127
1389.529597
1389.504305
1389.529475
1389.520355
1389.528989
1389.508561
1389.529475
1389.529597
1389.528989
1389.529475
1389.529475
1389.520477
1389.529353
1389.501995
1389.529597
1389.529597
1389.529597
1389.511722
1389.529475
1389.514519
1389.529475
1389.498469
1389.529597
1389.507102
1389.529597
1389.529232
1389.529232
1389.513668
1389.529475
1389.499928
1389.529475
1389.529475
1389.529597
1389.521571
1389.528989
1389.520964
1389.529475
1389.512573
1389.529597
1389.529597
1389.528624
1389.509777
1389.528867
1389.513668
1389.529475
1389.497375
1389.521936
1389.512087
1389.529475
1389.529475
1389.529597
1389.512087
1389.528624
1389.518775
1389.529475
1389.514762
1389.529353
1389.517072
1389.529232
1389.520477
1389.529597
1389.499806
1389.528867
1389.529597
1389.529353
1389.528989
1389.529597
1389.516343
1389.529597
1389.510263
1389.528745
1389.511479
1389.528867
1389.529475
1389.529475
1389.509047
1389.529597
1389.500536
1389.529597
1389.521936
1389.529597
1389.529597
1389.529597
1389.503575
1389.529597
1389.515978
1389.528989
1389.528989
1389.529597
1389.528746
1389.529475
1389.518045
1389.529353
1389.503819
1389.529597
1389.517072
1389.529475
1389.529353
1389.528745
1389.529597
1389.529597
1389.483878
1389.529597
1389.520599
1389.529354
1389.528746
1389.529597
1389.529597
1389.529597
1389.514762
1389.528624
1389.529597
1389.511357
1389.529354
1389.520599
1389.529597
1389.505034
1389.529475
1389.529597
1389.529354
1389.529597
1389.528867
1389.505521
1389.529597
1389.50394
1389.529475
1389.528867
1389.529597
1389.52911
1389.528745
1389.529232
1389.529475
1389.504305
1389.528867
1389.519018
1389.529597
1389.515127
1389.529597
1389.509898
1389.529597
1389.529597
1389.529475
1389.528624
1389.529597
1389.496645
1389.529597
1389.501387
1389.529597
1389.517316
1389.529597
1389.529475
1389.528502
1389.528381
1389.528989
1389.529597
1389.529354
1389.515492
1389.528745
1389.517194
1389.528989
1389.512087
1389.529597
1389.51537
1389.529475
1389.529475
1389.529597
1389.528746
1389.529475
1389.49628
1389.529597
1389.502967
1389.529475
1389.529597
1389.528745
1389.529475
1389.528624
1389.528989
1389.529353
1389.513546
1389.529597
1389.515492
1389.528989
1389.510141
1389.529597
1389.500657
1389.529597
1389.495429
1389.529597
1389.529597
1389.529597
1389.520355
1389.529597
1389.508075
1389.529475
1389.511722
1389.529597
1389.528624
1389.528989
1389.528989
1389.529232
1389.518045
1389.529597
1389.500779
1389.529475
1389.52911
1389.528624
1389.529475
1389.529475
1389.529475
1389.528989
1389.495551
1389.529597
1389.509777
1389.529597
1389.520355
1389.529597
1389.505156
1389.529597
1389.500414
1389.529597
1389.528624
1389.529475
1389.529597
1389.529475
1389.529597
1389.529475
1389.502116
1389.529597
1389.512209
1389.528745
1389.528867
1389.528745
1389.500535
1389.528989
1389.494942
1389.529597
1389.529597
1389.517559
1389.529597
1389.529475
1389.529475
1389.529597
1389.528624
1389.528867
1389.52911
1389.500535
1389.528989
1389.502238
1389.528989
1389.529597
1389.529475
1389.52911
1389.528624
1389.529475
1389.529597
1389.510385
1389.529597
1389.493483
1389.528989
1389.528624
1389.529597
1389.529597
1389.528381
1389.529597
1389.529597
1389.529232
1389.529597
1389.50698
1389.529353
1389.520477
1389.529232
1389.497131
1389.529597
1389.529597
1389.529475
1389.528624
1389.528989
1389.522058
1389.529597
1389.506859
1389.529475
1389.528989
1389.529597
1389.528989
1389.529475
1389.529475
1389.529475
1389.529353
1389.529597
1389.515856
1389.528745
1389.520599
1389.529597
1389.502116
1389.52911
1389.496766
1389.529597
1389.529475
1389.528989
1389.529232
1389.529597
1389.529597
1389.528867
1389.489228
1389.529597
1389.517802
1389.529597
1389.529232
1389.529475
1389.52911
1389.529353
1389.529597
1389.529597
1389.502238
1389.529597
1389.507223
1389.528989
1389.529597
1389.529353
1389.529475
1389.528867
1389.529597
1389.529597
1389.529354
1389.52911
1389.49555
1389.529232
1389.498104
1389.529475
1389.52911
1389.529597
1389.52911
1389.529232
1389.529232
1389.529475
1389.528989
1389.52911
1389.528867
1389.529597
1389.51464
1389.529597
1389.518896
1389.529597
1389.512087
1389.529597
1389.529354
1389.529475
1389.528989
1389.529475
1389.510384
1389.52911
1389.504305
1389.528867
1389.520234
1389.529232
1389.529475
1389.529597
1389.515127
1389.528624
1389.516829
1389.529597
1389.511114
1389.529232
1389.52911
1389.49251
1389.529597
1389.500657
1389.528989
1389.528867
1389.529597
1389.507588
1389.529597
1389.512695
1389.529475
1389.529597
1389.528624
1389.529597
1389.527286
1389.510263
1389.529597
1389.501022
1389.52911
1389.513789
1389.529597
1389.52911
1389.529475
1389.496888
1389.528989
1389.495672
1389.528624
1389.529597
1389.529475
1389.528624
1389.529597
1389.529597
1389.529353
1389.510263
1389.529597
1389.529597
1389.529597
1389.528989
1389.52911
1389.495429
1389.529597
1389.520112
1389.529475
1389.510263
1389.529597
1389.529475
1389.528989
1389.528867
1389.529597
1389.498712
1389.52911
1389.507102
1389.529597
1389.528745
1389.52911
1389.521936
1389.529597
1389.517194
1389.529353
1389.529597
1389.52911
1389.512695
1389.528989
1389.509899
1389.529475
1389.491903
1389.529597
1389.529597
1389.529354
1389.529597
1389.529475
1389.51537
1389.529597
1389.500536
1389.529475
1389.520599
1389.528867
1389.528624
1389.529597
1389.529597
1389.528867
1389.529232
1389.529597
1389.51537
1389.529597
1389.510385
1389.528745
1389.508682
1389.529597
1389.496402
1389.529475
1389.529475
1389.529475
1389.529232
1389.529232
1389.529597
1389.52911
1389.499077
1389.529475
1389.501752
1389.528867
1389.529475
1389.529597
1389.529475
1389.528745
1389.529475
1389.52911
1389.528867
1389.529597
1389.517194
1389.529354
1389.513911
1389.529597
1389.5161
1389.529475
1389.528746
1389.528746
1389.529597
1389.529597
1389.502846
1389.527651
1389.497009
1389.529597
1389.528746
1389.529597
1389.529475
1389.498833
1389.529597
1389.493119
1389.529597
1389.508317
1389.529597
1389.512452
1389.529475
1389.529232
1389.528745
1389.529475
1389.529597
1389.529353
1389.528867
1389.529597
1389.529597
1389.516586
1389.528989
1389.514884
1389.529597
1389.529475
1389.529597
1389.528502
1389.529597
1389.518045
1389.529353
1389.529475
1389.529475
1389.528989
1389.528745
1389.529597
1389.517194
1389.508682
1389.529597
1389.498955
1389.529597
1389.518896
1389.528867
1389.503089
1389.529597
1389.497374
1389.528989
1389.529597
1389.52911
1389.528624
1389.52911
1389.529597
1389.529353
1389.510506
1389.528867
1389.509533
1389.529597
1389.513789
1389.529597
1389.517072
1389.529597
1389.518167
1389.515491
1389.52911
1389.529475
1389.529475
1389.528989
1389.528746
1389.507101
1389.52911
1389.529353
1389.529475
1389.529232
1389.529475
1389.528381
1389.49932
1389.527408
1389.511722
1389.529597
1389.529597
1389.518774
1389.528502
1389.528989
1389.529597
1389.528745
1389.517072
1389.529597
1389.504913
1389.529475
1389.513911
1389.529475
1389.500658
1389.529597
1389.513789
1389.529597
1389.528624
1389.529475
1389.528381
1389.529597
1389.513668
1389.529597
1389.502846
1389.529475
1389.51233
1389.529597
1389.517194
1389.529475
1389.507831
1389.529597
1389.494578
1389.528989
1389.529597
1389.529475
1389.529597
1389.528867
1389.529597
1389.50394
1389.529475
1389.529475
1389.529475
1389.528989
1389.516829
1389.529475
1389.505156
1389.528867
1389.50163
1389.529232
1389.528624
1389.508682
1389.529475
1389.491416
1389.529597
1389.503819
1389.528867
1389.528867
1389.52911
1389.52911
1389.528989
1389.528746
1389.529475
1389.529354
1389.529475
1389.529232
1389.529475
1389.529354
1389.529597
1389.500779
1389.529597
1389.516586
1389.529597
1389.529475
1389.528989
1389.500293
1389.529475
1389.496888
1389.528624
1389.513789
1389.529475
1389.529475
1389.529597
1389.529232
1389.529475
1389.498226
1389.529597
1389.495916
1389.529232
1389.518288
1389.529475
1389.503697
1389.529597
1389.529597
1389.529475
1389.528745
1389.529597
1389.529597
1389.528502
1389.528867
1389.529597
1389.493362
1389.528989
1389.5161
1389.529597
1389.529354
1389.52911
1389.529475
1389.529475
1389.517315
1389.528624
1389.529475
1389.528745
1389.529597
1389.529475
1389.52911
1389.516586
1389.525341
1389.529475
1389.498469
1389.529475
1389.49701
1389.529597
1389.50005
1389.529597
1389.501509
1389.529475
1389.529475
1389.529475
1389.529475
1389.529353
1389.528989
1389.529354
1389.499563
1389.529232
1389.510142
1389.528989
1389.511844
1389.52911
1389.521815
1389.529597
1389.51537
1389.51841
1389.529475
1389.529475
1389.528746
1389.528381
1389.528746
1389.529475
1389.51841
1389.529597
1389.529597
1389.529475
1389.528502
1389.529597
1389.512938
1389.529475
1389.510628
1389.528867
1389.529597
1389.521693
1389.529475
1389.529475
1389.529597
1389.529475
1389.511965
1389.529597
1389.519383
1389.529597
1389.506615
1389.52911
1389.49555
1389.528867
1389.513668
1389.528746
1389.529597
1389.50929
1389.529475
1389.500657
1389.529597
1389.529597
1389.523517
1389.529475
1389.529475
1389.512087
1389.528867
1389.494335
1389.529597
1389.512817
1389.529353
1389.512452
1389.52911
1389.518653
1389.529597
1389.496888
1389.529597
1389.502725
1389.529475
1389.516465
1389.529475
1389.515005
1389.529597
1389.500658
1389.52911
1389.529475
1389.528989
1389.528867
1389.529597
1389.505278
1389.529232
1389.499442
1389.529232
1389.494092
1389.529597
1389.529354
1389.529597
1389.52911
1389.529475
1389.529475
1389.529597
1389.528867
1389.529475
1389.529597
1389.529597
1389.52911
1389.529475
1389.507345
1389.528867
1389.513303
1389.529353
1389.528867
1389.529597
1389.503697
1389.529597
1389.502238
1389.52911
1389.512209
1389.529475
1389.52911
1389.528989
1389.513911
1389.529597
1389.501752
1389.529597
1389.514154
1389.528867
1389.521815
1389.529597
1389.498591
1389.52911
1389.529475
1389.529597
1389.529597
1389.529597
1389.529597
1389.510141
1389.528867
1389.529597
1389.488742
1389.529597
1389.5009
1389.529354
1389.529475
1389.52911
1389.529475
1389.529597
1389.529475
1389.529232
1389.529597
1389.529597
1389.529597
1389.528746
1389.529597
1389.529597
1389.495673
1389.529597
1389.499685
1389.529597
1389.518896
1389.529597
1389.497496
1389.529597
1389.508804
1389.529597
1389.529597
1389.529597
1389.529475
1389.529475
1389.528746
1389.529475
1389.502968
1389.528989
1389.49093
1389.529597
1389.520234
1389.529597
1389.516951
1389.529597
1389.529354
1389.518896
1389.529475
1389.516707
1389.510263
1389.528746
1389.529597
1389.505156
1389.494456
1389.528746
1389.501752
1389.529597
1389.510628
1389.527165
1389.528746
1389.520355
1389.528624
1389.529475
1389.529597
1389.529597
1389.508196
1389.529597
1389.529232
1389.51695
1389.500657
1389.527043
1389.510506
1389.528989
1389.499077
1389.528745
1389.529597
1389.518045
1389.528989
1389.528989
1389.508926
1389.528867
1389.522666
1389.528381
1389.529597
1389.516099
1389.500657
1389.528867
1389.525462
1389.498833
1389.529597
1389.52911
1389.502724
1389.529475
1389.529475
1389.529597
1389.528624
1389.529597
1389.520477
1389.528502
1389.528989
1389.514032
1389.489228
1389.529475
1389.508804
1389.529597
1389.501022
1389.529475
1389.52376
1389.528745
1389.529597
1389.529597
1389.528867
1389.529475
1389.510385
1389.524003
1389.529597
1389.493604
1389.490201
1389.525584
1389.517072
1389.529354
1389.519383
1389.528989
1389.485094
1389.529232
1389.511236
1389.529475
1389.510628
1389.52911
1389.509412
1389.529475
1389.515492
1389.501873
1389.528867
1389.52911
1389.510385
1389.502238
1389.529475
1389.525462
1389.500171
1389.528624
1389.529597
1389.529597
1389.529597
1389.529475
1389.513789
1389.529597
1389.529597
1389.501508
1389.529597
1389.525584
1389.520355
1389.529475
1389.496766
1389.528989
1389.49932
1389.529475
1389.525098
1389.529597
1389.528989
1389.515005
1389.513424
1389.528989
1389.529597
1389.499563
1389.502481
1389.52911
1389.508804
1389.529232
1389.515613
1389.529597
1389.496645
1389.529597
1389.529475
1389.500292
1389.528989
1389.528867
1389.519383
1389.500536
1389.529597
1389.502724
1389.529597
1389.50771
1389.528867
1389.528867
1389.515248
1389.529475
1389.529597
1389.529475
1389.529597
1389.518896
1389.528989
1389.528989
1389.515856
1389.500171
1389.52911
1389.512573
1389.499684
1389.529475
1389.529597
1389.52911
1389.496888
1389.529597
1389.529597
1389.528989
1389.529597
1389.515735
1389.52911
1389.529597
1389.518653
1389.500657
1389.528502
1389.495307
1389.505278
1389.528989
1389.529597
1389.529232
1389.521206
1389.529475
1389.528502
1389.528989
1389.529597
1389.518775
1389.529597
1389.529475
1389.517072
1389.498955
1389.528746
1389.495916
1389.529475
1389.500901
1389.528746
1389.529232
1389.517437
1389.529597
1389.529597
1389.523882
1389.529597
1389.519504
1389.529597
1389.529597
1389.509047
1389.490201
1389.52911
1389.500049
1389.513911
1389.528745
1389.528989
1389.529475
1389.510384
1389.510263
1389.528989
1389.529475
1389.509047
1389.51306
1389.528989
1389.529597
1389.517194
1389.492389
1389.528624
1389.518167
1389.529597
1389.499442
1389.529354
1389.529353
1389.52911
1389.529475
1389.529232
1389.529475
1389.529475
1389.510628
1389.529597
1389.529475
1389.511114
1389.486796
1389.527165
1389.502724
1389.528746
1389.519626
1389.528867
1389.495429
1389.529354
1389.529232
1389.528989
1389.51306
1389.529475
1389.507102
1389.529597
1389.529597
1389.500171
1389.528745
1389.529232
1389.512938
1389.505156
1389.528502
1389.528624
1389.499441
1389.528624
1389.529597
1389.493727
1389.529597
1389.529597
1389.512087
1389.529597
1389.528989
1389.507709
1389.529597
1389.529597
1389.529597
1389.528746
1389.499928
1389.529597
1389.529597
1389.528624
1389.529597
1389.513303
1389.529597
1389.513668
1389.512816
1389.529597
1389.527286
1389.505643
1389.506615
1389.529232
1389.529354
1389.528624
1389.520234
1389.529475
1389.529597
1389.528989
1389.528624
1389.493119
1389.528989
1389.511236
1389.512208
1389.489958
1389.529597
1389.502117
1389.529597
1389.516951
1389.529597
1389.498955
1389.529475
1389.529597
1389.527286
1389.528989
1389.529597
1389.518653
1389.529475
1389.528746
1389.510871
1389.520355
1389.529597
1389.515491
1389.494699
1389.529475
1389.528867
1389.529597
1389.49859
1389.528867
1389.517315
1389.528624
1389.529597
1389.512816
1389.529597
1389.529597
1389.510384
1389.520963
1389.528624
1389.500657
1389.500292
1389.528746
1389.528624
1389.529597
1389.511722
1389.529353
1389.529597
1389.528989
1389.529597
1389.516829
1389.529597
1389.529597
1389.507102
1389.500049
1389.528989
1389.505885
1389.529597
1389.529597
1389.528867
1389.529597
1389.507345
1389.529475
1389.528867
1389.52911
1389.528624
1389.515613
1389.529597
1389.529597
1389.510384
1389.490687
1389.528746
1389.49701
1389.500657
1389.528989
1389.528259
1389.529475
1389.514762
1389.528989
1389.529597
1389.528746
1389.517315
1389.511722
1389.529597
1389.528746
1389.510628
1389.502116
1389.527408
1389.510385
1389.529597
1389.498469
1389.52911
1389.52911
1389.510384
1389.529475
1389.500657
1389.529232
1389.521814
1389.509898
1389.529597
1389.529597
1389.513303
1389.517923
1389.529597
1389.529475
1389.529597
1389.500171
1389.529597
1389.52911
1389.515127
1389.529353
1389.497131
1389.52911
1389.528381
1389.515491
1389.529597
1389.529597
1389.517072
1389.500171
1389.528746
1389.529597
1389.500171
1389.529232
1389.529232
1389.529475
1389.528989
1389.52911
1389.507223
1389.529597
1389.528867
1389.509777
1389.529597
1389.528746
1389.500049
1389.529475
1389.529475
1389.526192
1389.52911
1389.499076
1389.529597
1389.529597
1389.529597
1389.529354
1389.495551
1389.525827
1389.528867
1389.51306
1389.528867
1389.528746
1389.494578
1389.500657
1389.52911
1389.529232
1389.528989
1389.511965
1389.529475
1389.529475
1389.529475
1389.517194