/*--------------------------------*- C++ -*----------------------------------*\
| =========                 |                                                 |
| \\      /  F ield         | OpenFOAM: The Open Source CFD Toolbox           |
|  \\    /   O peration     | Version:  2312                                  |
|   \\  /    A nd           | Website:  www.openfoam.com                      |
|    \\/     M anipulation  |                                                 |
\*---------------------------------------------------------------------------*/
FoamFile
{
    version     2.0;
    format      ascii;
    arch        "LSB;label=32;scalar=64";
    class       surfaceScalarField;
    location    "0.0008";
    object      phi;
}
// * * * * * * * * * * * * * * * * * * * * * * * * * * * * * * * * * * * * * //

dimensions      [1 0 -1 0 0 0 0];

oriented        oriented;

internalField   nonuniform List<scalar> 
4999
(
-2.787513549e-13
-3.729907283e-12
-1.339840737e-12
-4.660695788e-12
-4.90826502e-12
-1.144773166e-12
-4.590119632e-12
-6.816089422e-12
-3.568016112e-12
-1.981493166e-13
-2.331779426e-12
-4.110750114e-12
-7.416841894e-12
-3.40166389e-12
2.88054625e-13
2.766328385e-13
1.224821815e-12
-2.642911799e-12
-6.399586536e-12
-2.558001673e-12
-6.376272077e-15
-3.627509816e-12
-5.345220871e-12
-5.299609807e-12
-5.034184407e-12
-7.650548778e-12
-9.191426461e-12
-8.705527822e-12
-6.801173181e-12
-6.715148859e-12
-9.435269e-12
-6.522756224e-12
-2.763901226e-12
-2.868751599e-12
4.571591453e-13
1.011770186e-12
-1.021345767e-12
-1.954213712e-13
2.587845704e-13
2.351805564e-12
-1.552926939e-12
-2.026255731e-12
-2.329430025e-12
-2.964923288e-12
-5.646770185e-12
-5.294296831e-12
-3.43019876e-12
-4.358190578e-12
-4.850895333e-12
-8.517706869e-12
-1.212830704e-11
-1.490677028e-11
-1.426319255e-11
-1.234412466e-11
-9.492196744e-12
-8.340212139e-12
-4.940416256e-12
-2.095291788e-12
1.773945914e-12
4.633003489e-12
6.434877521e-12
3.413356534e-12
6.113328346e-12
8.511809705e-12
1.108361521e-11
1.446019286e-11
1.544198338e-11
3.657408821e-11
1.193501827e-10
4.43821939e-10
1.685658376e-09
6.394477233e-09
2.403541566e-08
9.047290276e-08
3.000871497e-07
7.645213813e-07
1.744344599e-06
3.726951516e-06
7.695927036e-06
1.563136138e-05
3.136810062e-05
6.225572189e-05
0.0001221865384
0.0002370136685
0.0004541996128
0.0008598983835
0.00160830937
0.002971728956
0.005421729919
0.009762128841
0.01733907598
0.03036570877
0.05240999036
0.08910550489
0.1491511251
0.2456597002
0.3978877422
0.6333141349
0.9899224241
1.518369746
2.283501129
3.364417775
4.852077778
6.843221204
9.42912127
12.67641191
16.5912715
21.09597776
26.09998361
31.53708694
37.35193965
43.49112019
49.90278017
56.53813943
63.35274028
70.3071342
77.36703754
84.50310352
91.69046789
98.90819341
106.1386983
113.3672188
120.5813307
127.7705372
134.9259222
142.0398613
149.1057828
156.1179697
163.0713939
169.9615764
176.7844663
183.5363327
190.213635
196.81259
203.3290822
209.7583488
216.0959725
222.3382738
228.4808251
234.5183822
240.444933
246.2534126
251.9353958
257.4807252
262.8770106
268.1090069
273.1579891
278.0020694
282.6134318
286.9573742
290.9961053
294.6907822
298.0639077
300.7977334
306.3655516
312.760216
319.819672
327.2160011
334.2893594
340.770497
346.7632399
352.404309
357.7921772
362.9413769
367.8525243
372.6044662
377.2258167
381.7797107
386.2094008
390.5213618
394.7292812
398.8754848
402.9385762
406.9302695
410.8296475
414.6367789
418.36496
422.0407529
425.6440996
429.1765438
432.6312381
436.012664
439.325612
442.5848156
445.7767139
448.9005145
451.9546581
454.9451697
457.872379
460.7447445
463.5537682
466.3002809
468.9838387
471.6094773
474.1760628
476.6900757
479.145059
481.5433992
483.8840297
486.1705816
488.4019958
490.5825897
492.7086841
494.7826098
496.8028569
498.7722601
500.6900616
502.5585864
504.375271
506.1409937
507.8279285
509.4544939
511.026695
512.5390927
513.9787184
515.3507305
516.6249817
517.7717153
518.7835352
519.62816
520.2400084
520.6354195
520.851318
520.9199577
520.9247997
520.9159567
520.9016595
520.8920712
520.889083
520.9032864
520.9223178
520.9541498
521.0061021
521.0764669
521.1610582
521.2566029
521.3533015
521.4197201
521.4589057
521.4910671
521.5223101
521.5523326
521.5799289
521.6064018
521.6315933
521.6546521
521.6749352
521.6928249
521.7098719
521.7268092
521.744249
521.7605838
521.7743378
521.7868949
521.799346
521.8121508
521.8253151
521.838228
521.8495254
521.8597159
521.869634
521.8794028
521.8889862
521.8973507
521.9047244
521.9117087
521.9186173
521.9254743
521.9320076
521.938021
521.9436466
521.9488651
521.9534452
521.9575678
521.9615073
521.9652964
521.9693384
521.9738332
521.9782988
521.9834073
521.9872996
521.989814
521.9913509
521.9921184
521.9926013
521.9929196
521.9930942
521.9930857
521.9933733
521.9940841
521.994882
521.9943637
521.993164
521.9919262
521.9905183
521.9884585
521.9857868
521.9829529
521.9798739
521.9762159
521.9719252
521.9674055
521.9625027
521.9567199
521.9503946
521.943435
521.935801
521.9275635
521.9186418
521.9088351
521.8982712
521.8868829
521.8740285
521.859663
521.8432345
521.8239554
521.8009232
521.7726278
521.7365809
521.6887022
521.6213945
521.5218772
521.3683093
521.1244162
520.7320103
520.0997814
519.0892579
517.4974561
515.0378503
511.3235789
505.8595846
498.0543327
487.2639393
472.8755207
454.4377956
431.8029993
405.2354009
375.5939594
343.5874688
311.1057379
278.9317887
248.2519166
219.9576172
194.1037888
171.2446844
151.3177942
134.8006747
123.8500621
116.914614
112.5050336
109.7127406
107.9556277
106.8615041
106.1894814
105.7849533
105.5469076
105.4101802
105.3328136
105.2889458
105.2641064
105.2501928
105.2429264
105.2396255
105.2385827
105.2382948
105.2382026
105.2382124
105.2383439
105.2385883
105.2389439
105.2393852
105.239887
105.2403106
105.2406726
105.241007
105.2413383
105.2416833
105.2420582
105.2424638
105.2428648
105.2432472
105.2436218
105.2439953
105.2443728
105.2447604
105.2451602
105.2455691
105.2459757
105.2463773
105.2467762
105.2471744
105.2475727
105.2479723
105.2483742
105.2487748
105.2491723
105.2495677
105.2499621
105.2503565
105.2507512
105.2511469
105.2515436
105.2519411
105.2523387
105.2527356
105.2531323
105.2535286
105.2539244
105.2543192
105.2547126
105.2551043
105.2554943
105.2558827
105.2562696
105.2566552
105.2570401
105.2574249
105.2578099
105.2581955
105.2585818
105.258969
105.2593572
105.2597468
105.2601381
105.2605312
105.2609262
105.2613227
105.2617206
105.2621198
105.26252
105.2629207
105.2633214
105.2637221
105.2641228
105.2645237
105.2649244
105.2653244
105.2657239
105.2661233
105.266523
105.2669238
105.267326
105.2677297
105.2681351
105.2685421
105.2689506
105.2693606
105.2697719
105.2701844
105.2705979
105.2710121
105.2714265
105.2718407
105.2722543
105.272667
105.2730786
105.2734892
105.2738989
105.2743078
105.2747165
105.275125
105.2755338
105.2759433
105.2763538
105.2767653
105.2771779
105.2775915
105.2780061
105.2784217
105.2788384
105.2792562
105.279675
105.280095
105.2805158
105.2809375
105.2813599
105.281783
105.282207
105.2826322
105.2830589
105.2834877
105.2839192
105.2843534
105.2847903
105.2852298
105.2856717
105.2861157
105.2865618
105.28701
105.2874602
105.2879126
105.2883672
105.288824
105.289283
105.2897438
105.2902066
105.2906713
105.291138
105.2916069
105.2920785
105.2925534
105.2930317
105.2935135
105.2939986
105.2944865
105.2949766
105.2954685
105.2959619
105.2964566
105.2969526
105.29745
105.2979488
105.2984491
105.2989508
105.2994537
105.2999575
105.3004622
105.3009677
105.3014744
105.301983
105.3024938
105.303007
105.3035224
105.3040398
105.3045586
105.3050783
105.3055984
105.3061183
105.3066382
105.3071581
105.3076786
105.3082002
105.3087233
105.3092483
105.3097756
105.3103048
105.3108358
105.3113685
105.3119033
105.3124403
105.3129798
105.3135221
105.314067
105.3146142
105.3151632
105.3157133
105.3162639
105.3168145
105.3173651
105.3179163
105.3184687
105.3190228
105.3195795
105.3201389
105.3207008
105.3212651
105.3218318
105.3224008
105.3229725
105.3235473
105.3241256
105.3247082
105.3252952
105.3258864
105.3264812
105.3270786
105.3276775
105.3282772
105.3288777
105.3294797
105.3300844
105.3306929
105.3313059
105.3319236
105.3325457
105.3331717
105.3338006
105.3344315
105.3350638
105.3356973
105.3363328
105.3369715
105.3376138
105.3382596
105.3389087
105.3395601
105.3402125
105.3408646
105.3415165
105.3421685
105.3428214
105.3434759
105.3441333
105.3447949
105.3454605
105.3461294
105.3467993
105.347467
105.3481324
105.3487952
105.3494558
105.3501151
105.3507741
105.3514334
105.3520939
105.3527557
105.3534181
105.3540791
105.3547385
105.3553963
105.3560534
105.3567108
105.3573705
105.3580351
105.3587049
105.3593792
105.3600561
105.3607331
105.3614074
105.3620788
105.3627481
105.3634171
105.3640873
105.3647613
105.3654416
105.3661287
105.3668212
105.367518
105.3682173
105.368918
105.36962
105.3703245
105.3710336
105.3717499
105.3724753
105.3732106
105.3739547
105.3747054
105.3754602
105.3762173
105.3769763
105.377739
105.3785084
105.379288
105.3800804
105.3808866
105.3817055
105.382535
105.3833717
105.384212
105.3850535
105.3858963
105.386743
105.3875965
105.3884587
105.3893307
105.3902127
105.3911033
105.3919995
105.392897
105.3937932
105.3946897
105.3955889
105.3964934
105.3974061
105.3983302
105.3992668
105.4002135
105.4011656
105.4021134
105.4030551
105.4039921
105.4049274
105.4058628
105.4068016
105.4077481
105.4087063
105.4096766
105.410656
105.4116395
105.4126178
105.413591
105.414561
105.4155307
105.4165026
105.4174811
105.4184711
105.4194742
105.4204878
105.4215065
105.4225188
105.4235247
105.4245266
105.4255283
105.4265331
105.4275477
105.4285795
105.429633
105.4307071
105.4317957
105.4328865
105.4339668
105.435038
105.4361042
105.4371699
105.4382393
105.4393194
105.440418
105.4415376
105.4426745
105.4438209
105.4449584
105.4460849
105.4472033
105.4483197
105.4494376
105.4505651
105.451711
105.4528802
105.4540709
105.4552745
105.4564664
105.4576409
105.4587994
105.4599489
105.4610975
105.4622508
105.4634203
105.4646166
105.4658433
105.4670956
105.4683579
105.4696018
105.4708254
105.472033
105.4732334
105.4744337
105.4756428
105.4768732
105.478135
105.4794282
105.4807429
105.4820505
105.4833362
105.4846022
105.4858575
105.4871116
105.4883734
105.4896594
105.4909857
105.4923572
105.4937649
105.4951852
105.496578
105.497942
105.4992844
105.5006192
105.5019557
105.5033108
105.5047056
105.5061549
105.5076586
105.5092014
105.5107407
105.5122453
105.5137177
105.5151699
105.5166186
105.5180729
105.519554
105.5210841
105.522673
105.5243122
105.5259695
105.5275877
105.529164
105.5307059
105.5322308
105.5337544
105.5352956
105.5368852
105.5385478
105.5402844
105.5420721
105.5438443
105.5455638
105.5472311
105.5488628
105.5504862
105.5521152
105.5537885
105.5555447
105.5574012
105.5593447
105.5613406
105.5633088
105.5652219
105.5670914
105.5689467
105.5708066
105.5727073
105.5746905
105.576789
105.5790055
105.5813098
105.5836365
105.585897
105.5880998
105.590272
105.5924423
105.5946384
105.5969052
105.5992935
105.6018296
105.6044972
105.6072421
105.6099216
105.6125051
105.6150047
105.6174604
105.619911
105.6223878
105.6249494
105.627652
105.6305121
105.6334997
105.6364942
105.639369
105.6421201
105.6447725
105.6473723
105.6499653
105.6525937
105.6553353
105.6582447
105.6613193
105.6644968
105.6675773
105.6705129
105.6733039
105.675993
105.6786469
105.6813076
105.6840705
105.6870236
105.6902035
105.6935806
105.6970245
105.7003003
105.7033907
105.7063188
105.7091535
105.7119779
105.7148622
105.7179151
105.7212274
105.7248277
105.728655
105.7324559
105.73604
105.7393933
105.7425684
105.7456926
105.7488286
105.7520828
105.7555686
105.7593674
105.7634704
105.7677391
105.7718073
105.775589
105.7790912
105.7824507
105.785777
105.7891318
105.7926482
105.7964919
105.8007535
105.8053566
105.8099648
105.8142267
105.8181346
105.8217957
105.8252829
105.8287327
105.8322137
105.8359548
105.84027
105.8452113
105.8505445
105.8555062
105.8600131
105.8642546
105.8683627
105.8723408
105.8763404
105.880417
105.8850456
105.890472
105.8965909
105.9026608
105.9082679
105.9137723
105.9194916
105.9260598
105.9361295
105.9476646
105.9487156
105.9132032
105.6373526
104.3808196
100.0460199
88.3874487
64.71667486
35.37955533
17.33158445
7.941062556
3.526733546
1.543789135
0.6714606566
0.2912249368
0.1261534541
0.05461750949
0.02364050675
0.01023128021
0.00442767326
0.001916034659
0.0008291192507
0.0003587689788
0.0001552338601
6.716132193e-05
2.905233075e-05
1.256354673e-05
5.428495021e-06
2.342071836e-06
1.005849741e-06
4.258700119e-07
1.779452706e-07
7.122492029e-08
2.530550154e-08
4.42214076e-09
-3.021866853e-09
-6.522991501e-09
-1.004498689e-08
-1.084630992e-08
-1.114559549e-08
-1.210214411e-08
-1.130354425e-08
-1.026749432e-08
-9.951913168e-09
-9.954938848e-09
-1.031552053e-08
-1.052361497e-08
-1.072651312e-08
-1.097369815e-08
-1.115140118e-08
-1.131090981e-08
-1.136999013e-08
-1.099337745e-08
-9.950695632e-09
-1.001228545e-08
-9.970614797e-09
-8.25033145e-09
-8.135384989e-09
-8.525333829e-09
-9.284175285e-09
-1.122742274e-08
-1.136018302e-08
-1.099798835e-08
-1.096190968e-08
-1.08301277e-08
-1.002822073e-08
-8.693038706e-09
-7.861611517e-09
-7.134730412e-09
-6.835362779e-09
-6.587454973e-09
-6.042198118e-09
-6.342735826e-09
-7.143970263e-09
-7.960797285e-09
-8.219111535e-09
-8.584452698e-09
-9.849501891e-09
-1.051291811e-08
-1.034231342e-08
-1.009944251e-08
-1.014022347e-08
-1.043233875e-08
-1.091688806e-08
-1.164040462e-08
-1.211902133e-08
-1.212876488e-08
-1.185311913e-08
-1.189724706e-08
-1.18749458e-08
-1.176967741e-08
-1.235306094e-08
-1.344838643e-08
-1.316759011e-08
-1.276089054e-08
-1.289478427e-08
-1.238995548e-08
-1.290471406e-08
-1.331464395e-08
-1.249668781e-08
-1.184154925e-08
-1.199608269e-08
-1.215372774e-08
-1.176294897e-08
-1.153564337e-08
-1.154856275e-08
-1.081615265e-08
-1.076995304e-08
-1.231765796e-08
-1.3294201e-08
-1.069303961e-08
-9.49675736e-09
-8.343288588e-09
-7.890434652e-09
-8.183743975e-09
-8.602837107e-09
-9.223614507e-09
-9.843046848e-09
-1.016974386e-08
-1.027480097e-08
-1.034595158e-08
-1.042292158e-08
-1.049404539e-08
-1.042550651e-08
-9.842736709e-09
-9.395393382e-09
-8.672890254e-09
-8.45707437e-09
-7.960092662e-09
-7.737565321e-09
-8.074600226e-09
-8.836879128e-09
-9.408245445e-09
-9.189550796e-09
-8.575390023e-09
-8.709113216e-09
-9.738636726e-09
-9.674453498e-09
-8.286915573e-09
-8.295009978e-09
-1.024263898e-08
-1.071885162e-08
-9.957212054e-09
-8.181447635e-09
-5.39044972e-09
-5.276590888e-09
-5.726158948e-09
-4.651086946e-09
-4.215497297e-09
-4.00188654e-09
-3.397963457e-09
-3.259829843e-09
-2.406627204e-09
-1.888768995e-09
-2.073999782e-09
-2.53430575e-09
-4.557301854e-09
-5.204021719e-09
-5.832797218e-09
-7.340002006e-09
-7.848854496e-09
-7.7715754e-09
-8.113383154e-09
-8.411647523e-09
-6.831667677e-09
-5.90346851e-09
-5.402222382e-09
-4.768782405e-09
-4.817616288e-09
-5.533081537e-09
-5.763929235e-09
-5.171855389e-09
-5.475532796e-09
-5.892807756e-09
-5.951202958e-09
-6.76342313e-09
-6.971995539e-09
-6.666057131e-09
-6.518068867e-09
-6.010144567e-09
-5.535205511e-09
-5.097621117e-09
-5.350103742e-09
-5.881337682e-09
-6.51739502e-09
-6.603468136e-09
-6.035485549e-09
-6.273350439e-09
-7.348176617e-09
-7.809399038e-09
-7.53621649e-09
-7.46001914e-09
-5.625063731e-09
-6.252068005e-09
-7.183865127e-09
-7.070268247e-09
-6.389977717e-09
-6.58725856e-09
-8.071012951e-09
-7.812909127e-09
-5.3641092e-09
-5.763766868e-09
-6.545543717e-09
-6.054183887e-09
-6.474708796e-09
-7.027776321e-09
-6.323640935e-09
-6.280108921e-09
-6.626260599e-09
-8.019953005e-09
-7.616399388e-09
-6.842096064e-09
-6.157506589e-09
-6.117748092e-09
-6.165484059e-09
-6.344410355e-09
-6.07181975e-09
-6.385804854e-09
-5.314563805e-09
-4.710070221e-09
-5.433650599e-09
-5.501633818e-09
-5.856776604e-09
-6.468126937e-09
-7.061681219e-09
-6.313627445e-09
-5.17835134e-09
-4.133018255e-09
-4.695832681e-09
-5.10660141e-09
-5.002517126e-09
-5.001563123e-09
-5.223847281e-09
-4.143409493e-09
-3.612786496e-09
-2.795867071e-09
-1.868389199e-09
-9.639424902e-10
-5.690180589e-10
-5.354115171e-10
-6.346462889e-10
-2.088970453e-09
-2.400441026e-09
-4.069570478e-09
-5.451706712e-09
-4.597820655e-09
-4.620125087e-09
-5.764568427e-09
-5.680952814e-09
-3.907106923e-09
-3.811481699e-09
-4.594377648e-09
-4.649478607e-09
-3.701409737e-09
-3.482915398e-09
-3.928696303e-09
-4.634350002e-09
-5.268162464e-09
-4.84372767e-09
-2.425157825e-09
-6.673146316e-10
1.010175807e-09
1.443311547e-09
8.489005563e-11
-6.161656321e-10
-7.266144754e-10
-5.743206928e-10
-8.373856249e-11
-6.175008851e-11
-5.279980176e-10
-1.082283221e-09
-1.98896306e-09
-2.737851313e-09
-2.571396605e-09
-2.166526379e-09
-3.435509515e-09
-4.386302394e-09
-4.005289791e-09
-5.840608643e-09
-6.649216922e-09
-7.150365726e-09
-8.214328775e-09
-8.034764644e-09
-6.293485003e-09
-5.703857994e-09
-6.094120101e-09
-6.117943827e-09
-4.781277679e-09
-3.521203034e-09
-3.141623939e-09
-3.184227935e-09
-2.745984049e-09
-2.325041769e-09
-1.899448412e-09
-1.468745879e-09
-2.614228767e-09
-3.104887601e-09
-3.321539234e-09
-4.01429704e-09
-3.943216022e-09
-4.374424365e-09
-4.937689365e-09
-5.684480104e-09
-6.92143066e-09
-6.147438749e-09
-5.535868794e-09
-5.01876013e-09
-2.980585002e-09
-3.634576923e-09
-4.447508937e-09
-4.62230018e-09
-4.73637212e-09
-4.608608324e-09
-4.76335128e-09
-5.008956072e-09
-5.454847203e-09
-5.261855077e-09
-2.577262594e-09
-1.83705369e-09
-2.247557097e-09
-1.609154963e-09
1.27694168e-10
1.423220096e-10
-1.72738067e-09
-1.990128311e-09
-2.08581118e-09
-2.457928465e-09
-1.955578705e-09
-2.266052422e-09
-2.763601509e-09
-2.702115468e-09
-2.880387095e-09
-2.747997437e-09
-2.411757382e-09
-2.441763106e-09
-1.947921486e-09
-1.217667749e-09
2.932429662e-11
-1.756031134e-10
-9.671908512e-10
-1.364972063e-09
-8.8030199e-10
-2.269002289e-10
-4.758614592e-10
1.226981794e-09
2.877428959e-09
2.293700436e-09
1.228145631e-09
1.902502887e-09
2.398622799e-09
2.381476152e-09
1.80527977e-09
1.004919832e-09
1.165621207e-09
2.494932279e-10
-7.956153639e-11
3.397119852e-09
3.71136248e-09
2.631798136e-09
2.5245049e-09
2.514694048e-09
2.657902443e-09
1.838345377e-09
9.330115255e-10
2.232618733e-09
2.399418036e-09
1.444983548e-09
1.554472176e-09
2.260062234e-09
2.602348887e-09
3.354145441e-09
3.534343279e-09
3.576897502e-09
3.478178194e-09
2.228964882e-09
9.701227296e-10
5.490896753e-11
-4.485919976e-10
-3.010522185e-10
-6.384858175e-10
-1.511015234e-09
-2.327427622e-09
-2.43083178e-09
-9.087379826e-10
-8.104047349e-10
-1.455315494e-09
-2.777248311e-09
-4.125166852e-09
-4.982962814e-09
-5.138103899e-09
-4.515499333e-09
-4.309805267e-09
-4.351817969e-09
-4.324694255e-09
-4.750822883e-09
-5.410231972e-09
-5.836277689e-09
-5.897344456e-09
-5.041515029e-09
-4.019564288e-09
-2.40764058e-09
-1.769797602e-09
-9.498728921e-10
-8.02997818e-10
-9.230081525e-10
-8.583372155e-10
-1.347987318e-09
-1.300191059e-09
-1.631254043e-09
-2.097116965e-09
-2.373196151e-09
-2.752930796e-09
-3.504377656e-09
-2.659858019e-09
-1.06465787e-09
-1.646532525e-09
-2.207270356e-09
-2.219664464e-09
-2.265096989e-09
-2.165897386e-09
-2.219912266e-09
-2.986931476e-09
-4.433722107e-09
-5.00414808e-09
-4.111270399e-09
-4.72461514e-09
-4.566632243e-09
-4.43182055e-09
-5.066660296e-09
-4.867792919e-09
-5.442077103e-09
-6.026490273e-09
-5.487785258e-09
-4.776434734e-09
-4.156923747e-09
-3.791894252e-09
-3.765107094e-09
-2.950044587e-09
-2.407132921e-09
-2.064678338e-09
-2.24620388e-09
-1.710740409e-09
-8.911402434e-10
-7.972003088e-10
-6.491727897e-10
-1.282133781e-09
-1.724841389e-09
-1.541521329e-09
-1.043094638e-09
-8.24826339e-10
-1.047031612e-09
-5.407663393e-10
1.194889884e-09
1.37025395e-09
5.053603684e-10
-1.462296249e-10
-1.309278686e-09
-1.451933039e-09
-1.08107001e-09
-1.298816245e-09
-1.044571735e-09
-5.397632448e-10
-3.942028074e-10
4.820584184e-12
7.849065923e-10
6.674912017e-10
1.083954471e-09
1.105948945e-09
1.403735462e-09
3.15535633e-09
3.875306392e-09
3.580061673e-09
2.556095311e-09
2.320686814e-09
3.149985659e-09
2.911133949e-09
2.101482207e-09
2.866466645e-09
3.678607445e-09
3.400245632e-09
3.00619879e-09
3.059532408e-09
2.43557571e-09
1.701991747e-09
2.208098496e-09
2.176972046e-09
2.094095703e-09
2.867412429e-09
2.220536082e-09
1.789028963e-09
1.821130772e-09
1.987794664e-09
2.078873894e-09
1.916635387e-09
1.953283132e-09
1.50748157e-09
1.445189166e-09
1.459409231e-09
1.660497596e-09
3.158321528e-09
3.012642633e-09
2.662598878e-09
2.103747869e-09
1.44015673e-09
6.583027743e-10
-3.160232783e-11
-1.273526717e-10
-5.841866958e-10
-4.621181071e-10
-2.121006456e-10
8.92585987e-11
3.237854659e-10
-8.834843931e-10
-1.824152144e-09
-2.17674557e-09
-2.39696268e-09
-2.61014581e-09
-4.256201386e-09
-4.830717579e-09
-5.475621352e-09
-5.616787363e-09
-5.051402553e-09
-5.531318748e-09
-7.042217659e-09
-6.85878722e-09
-5.423014583e-09
-5.700824919e-09
-6.150392533e-09
-6.420753134e-09
-6.457779604e-09
-5.095525521e-09
-5.255231758e-09
-5.073402142e-09
-4.45864462e-09
-4.50902691e-09
-5.320334929e-09
-5.254198317e-09
-1.628734447e-09
-1.047793496e-09
-1.518065574e-09
-2.064601878e-09
-2.33687298e-09
-2.063018507e-09
-2.080284076e-09
-2.100390263e-09
-1.625091179e-09
-1.363753358e-09
7.248997177e-10
1.579486148e-09
7.360795209e-10
2.427122657e-10
2.194952746e-10
1.525030036e-10
-1.956620251e-10
-3.14603867e-10
-1.469092907e-09
-2.425540926e-09
-2.419140554e-09
-1.714983774e-09
-1.612378808e-09
-1.832549399e-09
-2.134929545e-09
-2.102082214e-09
-1.7039993e-09
-1.597060039e-09
-1.823795864e-09
-2.531699559e-09
-3.785507268e-09
-3.993706418e-09
-4.052995722e-09
-3.978241572e-09
-4.034516475e-09
-4.307456266e-09
-3.225461567e-09
-3.070838399e-09
-2.890412285e-09
-3.148497867e-09
-4.028266423e-09
-3.923206323e-09
-2.719294253e-09
-1.608643006e-09
-1.572774556e-09
-2.524035047e-09
-1.817595735e-09
-7.07262577e-10
-4.442225664e-10
-3.758325023e-10
-7.095473063e-10
-1.63719676e-09
-1.391455151e-09
-3.321005049e-10
4.012375774e-10
-4.684480187e-10
-5.923958196e-10
-8.085030056e-10
-3.360165222e-10
2.786340418e-10
-2.395059015e-10
-8.011739898e-10
-2.130869644e-09
-3.307396133e-09
-3.608280711e-09
-2.624671369e-09
-3.157535488e-09
-3.744806976e-09
-4.195899766e-09
-4.859252127e-09
-4.843028006e-09
-5.012415598e-09
-5.465453246e-09
-6.014613651e-09
-5.780514165e-09
-1.864688427e-09
-1.510713862e-09
-1.317864166e-09
-7.939507753e-10
-7.986600151e-10
-1.171731702e-09
-1.144474308e-09
-1.122566589e-09
-1.112749906e-09
-3.020959916e-10
-3.873539378e-10
-7.527650975e-11
1.865952943e-10
-1.650551101e-09
-2.825575519e-09
-2.489175664e-09
-2.188641957e-09
-2.189378213e-09
-2.254474507e-09
-2.454617933e-09
-2.284227609e-09
-1.166766582e-09
-6.024595637e-10
-3.673188194e-10
4.512932915e-11
5.795113441e-11
-4.005328948e-10
-1.195266838e-09
-1.506231548e-09
-1.141409201e-09
-9.6094664e-10
-1.962413454e-09
-3.617461875e-09
-4.460356941e-09
-3.753921181e-09
-3.597838676e-09
-3.938124339e-09
-3.430526232e-09
-2.465827042e-09
-2.08197158e-09
-2.154286849e-09
-2.764059741e-09
-3.485389123e-09
-3.370279697e-09
-3.536057369e-09
-3.4557983e-09
-3.014163672e-09
-3.683345054e-09
-3.18695655e-09
-2.878761072e-09
-2.571714227e-09
-2.097870635e-09
-2.751106586e-09
-3.239736395e-09
-3.113014034e-09
-3.58396177e-09
-4.887749952e-09
-5.92989365e-09
-7.12132111e-09
-7.559157074e-09
-8.029475228e-09
-8.51441054e-09
-8.550634995e-09
-8.463579497e-09
-9.098157157e-09
-8.973145571e-09
-7.151830585e-09
-6.308924835e-09
-5.281260097e-09
-5.271822144e-09
-5.245214172e-09
-4.256179417e-09
-2.716319204e-09
-2.28866351e-09
-2.335085803e-09
-2.983234466e-09
-4.907833175e-09
-5.710380257e-09
-6.598980704e-09
-6.080874794e-09
-3.994250352e-09
-3.591248966e-09
-2.029470369e-09
-1.372653853e-09
-3.758213891e-09
-4.310855275e-09
-3.692289562e-09
-1.382881644e-09
-1.601077287e-09
-2.2714736e-09
-2.008541573e-09
-1.540216385e-09
-1.225526182e-09
-1.11327977e-09
-1.557260689e-09
-1.752591726e-09
-2.35906624e-10
1.222747663e-10
-6.614156555e-11
-3.948754862e-11
-1.015155668e-09
-1.488295511e-09
-1.298671232e-09
-2.050668903e-09
-2.309014773e-09
-4.023978352e-09
-5.162171539e-09
-6.078858114e-09
-6.029091868e-09
-4.270586207e-09
-3.8595891e-09
-2.977277051e-09
-3.009984879e-09
-2.525615038e-09
-2.303691849e-09
-2.618286021e-09
-3.483550254e-09
-3.741616365e-09
-2.923724676e-09
-2.844310233e-09
-2.964010014e-09
-3.062281114e-09
-3.236467644e-09
-3.558652193e-09
-2.951950215e-09
-9.511460923e-10
-9.84979812e-10
-5.476966783e-10
-3.942370861e-10
-1.483158307e-09
-1.918570228e-09
-2.455614518e-09
-2.543525278e-09
-2.274008097e-09
-2.565647344e-09
-3.474058479e-09
-3.531231857e-09
-3.6559015e-09
-3.791023649e-09
-3.564477415e-09
-2.608265934e-09
-2.819016251e-09
-3.502699861e-09
-3.318294357e-09
-3.107320925e-09
-3.186018115e-09
-3.184894218e-09
-2.796509074e-09
-3.680795313e-09
-4.003674057e-09
-3.11243506e-09
-2.763639776e-09
-2.066024378e-09
-1.659502327e-09
-1.396573091e-09
-1.699807183e-09
-3.861398576e-09
-5.786730269e-09
-5.239291758e-09
-4.47143716e-09
-4.505327419e-09
-3.471309186e-09
-3.227680245e-09
-2.612761842e-09
-2.937660407e-09
-3.010851881e-09
-1.868325757e-09
-2.557070785e-09
-4.465142343e-09
-5.513284201e-09
-6.200415449e-09
-6.59254903e-09
-4.933366552e-09
-4.409158575e-09
-4.821377263e-09
-5.071193393e-09
-4.632026837e-09
-4.723190438e-09
-4.102933759e-09
-2.97265166e-09
-3.811485876e-09
-4.714487607e-09
-6.039460345e-09
-7.612319896e-09
-6.623182495e-09
-5.514385748e-09
-5.275698841e-09
-5.965697226e-09
-5.582991285e-09
-4.340652962e-09
-3.316721768e-09
-2.063585958e-09
-1.89930763e-09
-1.774410767e-09
-1.829722752e-09
-1.983652154e-09
-1.592849043e-09
1.221878736e-09
1.494832463e-09
1.452046965e-10
8.244607032e-11
5.40537447e-11
1.619493711e-10
2.137858719e-09
2.092467602e-09
7.01916557e-10
-7.997383729e-10
-2.189696945e-09
-2.105182621e-09
-4.065652178e-10
-9.513841899e-10
-2.53866973e-09
-3.543506968e-09
-2.272274537e-09
-1.964953214e-09
-2.902908017e-09
-3.573796002e-09
-4.280600548e-09
-4.706541672e-09
-4.752874252e-09
-3.795118e-09
-3.619069636e-09
-3.075894112e-09
-2.756407104e-09
-2.250713709e-09
-2.10161738e-09
-2.784136711e-09
-2.401807713e-09
-2.343405701e-09
-1.978094234e-09
-1.306181178e-09
-1.469686146e-09
-2.511706524e-09
-2.867033551e-09
-9.415921095e-10
-5.808553841e-10
-7.383925269e-10
-4.890647328e-10
-3.559501132e-10
-3.390335525e-10
1.301977961e-10
5.71835597e-10
8.275643186e-10
8.017772526e-10
-6.324525484e-11
-5.642768419e-10
-5.083868043e-10
-5.915885438e-10
-8.603681719e-10
-1.115245515e-09
-1.59296466e-09
-1.837000825e-09
-1.800217075e-09
-2.342482482e-09
-2.808899776e-09
-2.744829843e-09
-3.283256143e-09
-3.656041553e-09
-1.42754293e-09
-9.59728388e-10
-1.140916775e-10
5.738052591e-11
-1.01106147e-09
-1.507468377e-09
-2.170468114e-09
-1.987924945e-09
-1.448171372e-09
-1.434164053e-09
-7.503741912e-10
2.501601877e-10
1.195217121e-09
1.406928937e-09
1.090563114e-09
4.529627233e-10
-1.063786998e-10
6.154460189e-10
1.456708185e-09
1.804530328e-09
1.727005466e-09
1.275115252e-09
1.554906115e-10
-2.392420434e-09
-2.890492091e-09
-3.134523911e-09
-2.98689309e-09
-3.515912178e-09
-4.104377359e-09
-4.542164726e-09
-5.327807299e-09
-6.00715985e-09
-6.891930786e-09
-7.62604226e-09
-7.968440226e-09
-7.545433721e-09
-7.944145292e-09
-8.526298969e-09
-8.591163285e-09
-7.822176937e-09
-7.884325494e-09
-7.743638488e-09
-7.445080437e-09
-8.079045361e-09
-7.101530897e-09
-6.075544221e-09
-4.761462209e-09
-4.726548352e-09
-4.52748431e-09
-4.323082996e-09
-4.343294082e-09
-4.363941381e-09
-5.497178727e-09
-5.6329856e-09
-5.250768816e-09
-4.643304313e-09
-5.018906041e-09
-5.536418423e-09
-4.632665619e-09
-4.900354515e-09
-6.38473428e-09
-6.807089699e-09
-6.383232844e-09
-6.359324459e-09
-6.355120707e-09
-6.276987898e-09
-6.251897919e-09
-5.901437656e-09
-5.843615455e-09
-4.680793359e-09
-4.427292594e-09
-4.525192957e-09
-4.959598844e-09
-5.162950803e-09
-5.008439751e-09
-4.398446288e-09
-4.044912285e-09
-3.779279576e-09
-2.647479863e-09
-2.451904349e-09
-1.330303886e-09
-4.80617484e-10
3.087142314e-10
2.129911005e-09
2.942252215e-09
4.035421455e-09
4.209298904e-09
3.142967272e-09
1.486695992e-09
9.392513783e-10
1.141693246e-09
6.3497672e-10
4.844531197e-10
8.781388395e-10
1.544698871e-09
5.53666725e-10
1.090947474e-10
-3.259457347e-10
-7.75542861e-10
8.444589174e-12
-4.761932509e-10
-1.520085105e-09
-2.32374417e-09
-2.928565256e-09
-2.688513615e-09
-3.151274283e-09
-3.568218019e-09
-3.43692071e-09
-3.519706531e-09
-2.616279295e-09
-2.662211371e-09
-1.650891149e-09
-1.387118438e-09
-2.585000073e-09
-5.441410422e-09
-6.607643457e-09
-6.969171614e-09
-6.959888291e-09
-7.549988636e-09
-9.069569845e-09
-8.52568077e-09
-6.836078595e-09
-6.682008558e-09
-5.678234196e-09
-5.628556637e-09
-6.513889681e-09
-7.088522533e-09
-7.622907201e-09
-6.613483326e-09
-6.765105264e-09
-6.865349985e-09
-6.557205433e-09
-5.992918232e-09
-3.598656898e-09
-3.545382046e-09
-3.625966604e-09
-3.859834137e-09
-3.30479755e-09
-2.145735066e-09
-1.671634396e-09
4.039878562e-10
1.263426682e-09
1.545410547e-09
1.209616105e-09
2.733944402e-10
-3.084255758e-10
-8.570203856e-10
-2.634763055e-09
-3.572398726e-09
-3.072267525e-09
-2.822535367e-09
-2.531295127e-09
-2.393521692e-09
-2.300827357e-09
-1.895023656e-09
-1.544699791e-09
-1.666702073e-09
-2.504111049e-09
-1.981483273e-09
-1.072030044e-09
-1.810569665e-09
-2.544751373e-09
-2.261443409e-09
-1.680616235e-09
-9.038052082e-10
1.669818492e-10
-2.91251812e-10
-1.733702055e-09
-1.583066364e-09
7.092419769e-10
4.888875175e-10
9.014218377e-10
9.944238767e-10
-7.830006096e-10
-2.062311542e-09
-3.118310816e-09
-3.702451113e-09
-4.827474261e-09
-5.269123472e-09
-5.752920827e-09
-5.568823173e-09
-5.419401069e-09
-5.502602637e-09
-4.770259066e-09
-3.916648617e-09
-3.262991055e-09
-2.804276922e-09
-2.78678941e-09
-2.442426167e-09
-2.366435136e-09
-3.380812201e-09
-4.930903282e-09
-5.458140727e-09
-5.498375882e-09
-5.099981769e-09
-5.711257567e-09
-6.061015827e-09
-4.564060836e-09
-3.834842707e-09
-2.175986499e-09
-3.957760562e-10
1.375709492e-09
1.589301931e-09
1.963994467e-09