/*--------------------------------*- C++ -*----------------------------------*\
| =========                 |                                                 |
| \\      /  F ield         | OpenFOAM: The Open Source CFD Toolbox           |
|  \\    /   O peration     | Version:  2312                                  |
|   \\  /    A nd           | Website:  www.openfoam.com                      |
|    \\/     M anipulation  |                                                 |
\*---------------------------------------------------------------------------*/
FoamFile
{
    version     2.0;
    format      ascii;
    arch        "LSB;label=32;scalar=64";
    class       volScalarField;
    location    "0.0008";
    object      rho;
}
// * * * * * * * * * * * * * * * * * * * * * * * * * * * * * * * * * * * * * //

dimensions      [1 -3 0 0 0 0 0];

internalField   nonuniform List<scalar> 
5000
(
11582.11721
11582.11721
11582.11721
11582.11721
11582.11721
11582.11721
11582.11721
11582.11721
11582.11721
11582.11721
11582.11721
11582.11721
11582.11721
11582.11721
11582.11721
11582.11721
11582.11721
11582.11721
11582.11721
11582.11721
11582.11721
11582.11721
11582.11721
11582.11721
11582.11721
11582.11721
11582.11721
11582.11721
11582.11721
11582.11721
11582.11721
11582.11721
11582.11721
11582.11721
11582.11721
11582.11721
11582.11721
11582.11721
11582.11721
11582.11721
11582.11721
11582.11721
11582.11721
11582.11721
11582.11721
11582.11721
11582.11721
11582.11721
11582.11721
11582.11721
11582.11721
11582.11721
11582.11721
11582.11721
11582.11721
11582.11721
11582.11721
11582.11721
11582.11721
11582.11721
11582.11721
11582.11721
11582.11721
11582.11721
11582.11721
11582.11721
11582.11721
11582.11721
11582.11721
11582.11721
11582.11721
11582.11721
11582.11721
11582.11721
11582.11721
11582.11721
11582.1172
11582.11719
11582.11717
11582.11713
11582.11706
11582.1169
11582.1166
11582.11602
11582.11492
11582.11284
11582.10898
11582.10189
11582.08904
11582.06609
11582.02566
11581.95553
11581.83573
11581.63438
11581.30157
11580.76107
11579.89916
11578.5509
11576.48407
11573.38249
11568.83172
11562.31178
11553.20355
11540.81693
11524.45063
11503.49835
11477.6403
11447.11573
11412.53334
11374.41105
11333.13992
11289.07793
11242.57719
11193.97738
11143.59523
11091.71732
11038.5967
10984.45279
10929.47351
10873.81853
10817.62299
10761.00129
10704.05043
10646.85308
10589.48013
10531.99289
10474.4449
10416.88343
10359.35078
10301.88535
10244.52258
10187.29582
10130.23717
10073.37973
10016.76038
9960.421379
9904.408573
9848.762385
9793.525063
9738.747935
9684.490608
9630.822687
9577.826899
9525.602598
9474.270383
9423.978073
9374.907724
9327.278491
9281.354488
9237.477522
9196.043779
9157.467353
9122.037841
9090.239112
9047.818416
8987.317419
8915.780933
8838.475929
8760.682767
8689.406144
8619.83104
8556.737655
8493.60216
8436.39721
8377.211789
8322.416203
8265.526415
8212.723083
8157.682566
8105.707332
8051.738815
8000.422516
7947.521285
7897.201705
7845.177852
7795.309543
7744.015441
7694.777114
7644.243603
7595.682238
7545.785193
7497.623876
7448.322396
7400.743108
7352.064244
7305.045415
7256.920979
7210.335679
7162.765592
7116.716931
7069.705089
7024.142176
6977.643526
6932.502603
6886.518103
6841.837209
6796.347432
6752.087473
6707.050505
6663.191704
6618.597223
6575.146684
6530.979086
6487.910919
6444.138633
6401.419201
6358.024786
6315.662613
6272.638352
6230.647211
6188.618128
6147.606957
6106.663685
6066.539732
6026.969598
5988.536929
5951.509405
5916.341713
5884.018877
5856.349131
5833.943912
5817.513542
5807.864975
5803.397626
5802.195861
5802.259867
5802.438899
5802.859684
5803.276694
5803.290421
5803.012852
5802.263469
5800.967703
5799.04066
5796.452797
5793.289443
5789.785896
5786.764802
5785.077827
5783.959042
5782.894587
5781.805574
5780.745608
5779.834979
5779.034434
5778.280967
5777.543827
5776.820913
5776.125955
5775.472823
5774.865467
5774.301715
5773.749944
5773.205348
5772.676568
5772.168268
5771.682109
5771.220252
5770.772037
5770.335552
5769.919668
5769.525248
5769.152437
5768.790723
5768.431757
5768.078698
5767.73678
5767.407634
5767.091921
5766.786057
5766.490939
5766.203833
5765.919841
5765.636593
5765.357595
5765.086577
5764.8306
5764.580748
5764.34668
5764.126522
5763.900195
5763.682804
5763.445977
5763.210915
5762.975213
5762.743139
5762.514845
5762.296232
5762.091568
5761.890531
5761.696913
5761.497798
5761.300693
5761.10035
5760.89528
5760.687082
5760.484503
5760.279736
5760.069445
5759.856533
5759.649878
5759.439421
5759.2224
5759.004515
5758.78864
5758.562304
5758.331816
5758.097202
5757.854337
5757.611317
5757.360612
5757.100747
5756.831896
5756.554564
5756.254265
5755.926794
5755.569023
5755.156668
5754.677556
5754.084142
5753.312943
5752.248653
5750.687673
5748.300899
5744.545227
5738.570581
5729.071984
5714.116874
5690.942885
5655.76075
5603.620897
5528.440492
5423.326449
5281.299829
5096.50042
4865.750374
4589.932559
4275.746087
3932.207383
3573.60563
3216.054053
2869.735969
2546.236225
2251.094207
1985.366536
1754.348087
1554.74035
1406.837515
1312.479773
1252.684883
1214.761646
1190.87378
1175.987536
1166.836469
1161.297463
1158.001437
1156.074124
1154.966742
1154.340243
1153.990952
1153.799418
1153.696613
1153.643149
1153.616613
1153.604101
1153.59808
1153.595486
1153.59453
1153.594726
1153.595674
1153.596784
1153.597905
1153.59897
1153.599907
1153.600776
1153.601631
1153.6025
1153.60341
1153.604371
1153.605369
1153.606361
1153.607358
1153.608373
1153.609413
1153.610486
1153.611592
1153.61273
1153.613889
1153.615055
1153.616227
1153.617407
1153.618597
1153.619795
1153.621003
1153.622216
1153.623422
1153.624618
1153.625807
1153.626988
1153.62816
1153.62932
1153.630463
1153.631591
1153.632705
1153.633802
1153.63488
1153.635943
1153.636989
1153.638015
1153.639021
1153.640007
1153.640976
1153.641927
1153.642859
1153.64377
1153.644661
1153.645536
1153.646398
1153.647247
1153.648081
1153.648899
1153.649699
1153.650481
1153.651249
1153.652003
1153.652746
1153.653475
1153.654192
1153.654899
1153.655598
1153.656287
1153.656965
1153.657635
1153.658299
1153.658961
1153.659619
1153.66027
1153.66091
1153.66154
1153.662162
1153.662778
1153.663389
1153.663995
1153.664597
1153.665194
1153.665787
1153.666376
1153.666963
1153.667549
1153.668135
1153.668721
1153.669309
1153.669898
1153.670489
1153.671081
1153.671675
1153.672268
1153.672862
1153.673456
1153.674049
1153.67464
1153.67523
1153.675818
1153.676404
1153.676993
1153.677584
1153.678179
1153.678776
1153.679376
1153.679981
1153.68059
1153.681204
1153.681823
1153.682448
1153.683079
1153.683715
1153.684357
1153.685002
1153.685651
1153.686303
1153.686957
1153.687616
1153.688281
1153.688951
1153.689627
1153.690308
1153.690995
1153.691688
1153.692387
1153.693093
1153.693805
1153.694522
1153.695244
1153.695972
1153.696704
1153.69744
1153.698182
1153.698927
1153.699677
1153.70043
1153.701187
1153.701951
1153.70272
1153.703495
1153.704275
1153.70506
1153.70585
1153.706645
1153.707444
1153.708247
1153.709052
1153.709859
1153.710668
1153.711478
1153.712288
1153.713099
1153.71391
1153.714721
1153.715534
1153.716349
1153.717169
1153.717991
1153.718814
1153.719638
1153.720463
1153.72129
1153.722118
1153.722948
1153.723778
1153.724609
1153.725439
1153.726268
1153.727097
1153.727925
1153.728756
1153.729592
1153.73043
1153.731271
1153.732115
1153.732958
1153.7338
1153.734639
1153.735475
1153.736306
1153.737134
1153.737962
1153.738791
1153.739624
1153.740464
1153.741309
1153.74216
1153.743014
1153.743869
1153.744722
1153.745574
1153.746424
1153.747273
1153.748122
1153.748971
1153.749823
1153.750676
1153.751533
1153.752391
1153.75325
1153.75411
1153.754971
1153.755834
1153.756701
1153.757571
1153.758446
1153.759324
1153.760206
1153.761091
1153.761978
1153.762866
1153.763756
1153.764646
1153.765537
1153.766429
1153.767325
1153.768223
1153.769124
1153.770029
1153.770938
1153.771847
1153.772758
1153.773671
1153.774586
1153.775503
1153.776422
1153.77734
1153.778257
1153.779172
1153.780086
1153.780998
1153.781907
1153.782814
1153.783723
1153.784636
1153.78555
1153.786466
1153.787381
1153.788296
1153.789215
1153.790134
1153.791053
1153.791971
1153.792888
1153.793806
1153.794723
1153.795639
1153.796553
1153.797466
1153.798377
1153.799283
1153.800184
1153.801081
1153.801979
1153.80288
1153.803788
1153.804703
1153.805624
1153.806553
1153.807488
1153.808423
1153.809355
1153.810286
1153.811218
1153.812152
1153.813095
1153.814047
1153.815011
1153.815987
1153.816971
1153.817959
1153.818947
1153.819937
1153.820931
1153.821934
1153.82295
1153.823983
1153.825035
1153.826103
1153.827182
1153.828265
1153.829347
1153.830428
1153.831509
1153.832595
1153.833692
1153.834806
1153.835943
1153.8371
1153.838271
1153.83945
1153.840633
1153.841816
1153.842999
1153.844184
1153.845378
1153.84659
1153.84782
1153.849064
1153.850318
1153.851574
1153.852825
1153.854065
1153.855295
1153.856518
1153.857749
1153.859001
1153.860272
1153.86156
1153.86286
1153.864167
1153.865473
1153.866769
1153.86805
1153.869319
1153.870585
1153.871864
1153.873165
1153.874487
1153.875823
1153.877169
1153.878518
1153.879861
1153.881192
1153.882514
1153.883837
1153.88518
1153.886552
1153.887949
1153.889364
1153.89079
1153.892219
1153.893639
1153.89504
1153.896423
1153.897797
1153.899176
1153.900582
1153.902021
1153.903486
1153.904967
1153.90646
1153.907959
1153.909454
1153.910935
1153.912403
1153.913862
1153.915335
1153.916837
1153.918365
1153.919913
1153.921477
1153.923052
1153.924625
1153.926179
1153.927709
1153.929217
1153.930733
1153.932281
1153.933865
1153.935481
1153.937122
1153.938784
1153.940448
1153.942091
1153.943695
1153.945257
1153.94679
1153.948341
1153.949934
1153.951575
1153.953256
1153.954964
1153.956688
1153.958402
1153.960083
1153.96172
1153.963324
1153.964931
1153.96659
1153.968308
1153.970075
1153.971873
1153.973692
1153.975506
1153.977288
1153.979024
1153.980718
1153.982397
1153.984124
1153.985924
1153.987792
1153.98971
1153.991662
1153.993634
1153.995595
1153.997512
1153.999372
1154.00118
1154.002979
1154.004846
1154.006794
1154.008816
1154.01089
1154.013
1154.015116
1154.017197
1154.019207
1154.021143
1154.023033
1154.024978
1154.027026
1154.029174
1154.031397
1154.033656
1154.035926
1154.03816
1154.040308
1154.042355
1154.044329
1154.046311
1154.048412
1154.050645
1154.052991
1154.055411
1154.057878
1154.060357
1154.062784
1154.065107
1154.067323
1154.06948
1154.071682
1154.074044
1154.076568
1154.079227
1154.081993
1154.084826
1154.087648
1154.09038
1154.092985
1154.095499
1154.098007
1154.100683
1154.103571
1154.10665
1154.10987
1154.113186
1154.116515
1154.119764
1154.122868
1154.125834
1154.128716
1154.131673
1154.134848
1154.138243
1154.141829
1154.145537
1154.149308
1154.153048
1154.156656
1154.160068
1154.163272
1154.166357
1154.169584
1154.173063
1154.176805
1154.180725
1154.184712
1154.188691
1154.192564
1154.196226
1154.199622
1154.202784
1154.205969
1154.209454
1154.213258
1154.217303
1154.221473
1154.225683
1154.229894
1154.233945
1154.237687
1154.241073
1154.244232
1154.247623
1154.251423
1154.255598
1154.260037
1154.26465
1154.26941
1154.274096
1154.278467
1154.282374
1154.285892
1154.289384
1154.293291
1154.297653
1154.302348
1154.307339
1154.312548
1154.317797
1154.322789
1154.327315
1154.331407
1154.335258
1154.339234
1154.343632
1154.34839
1154.353703
1154.35941
1154.365242
1154.370874
1154.376031
1154.380623
1154.384738
1154.38856
1154.392694
1154.397286
1154.402783
1154.408888
1154.415265
1154.421546
1154.427556
1154.433182
1154.43804
1154.442028
1154.445889
1154.450481
1154.456167
1154.462928
1154.469797
1154.476876
1154.483692
1154.490923
1154.497379
1154.502522
1154.506873
1154.512011
1154.518302
1154.526325
1154.535081
1154.547625
1154.567283
1154.580753
1154.571501
1154.417539
1153.571435
1150.241566
1139.995604
1115.853752
1073.726822
1036.086143
1014.513598
1003.735342
998.7566155
996.5381874
995.5657306
995.1425155
994.9589122
994.8793697
994.8449304
994.8300235
994.8235719
994.8207799
994.8195717
994.8190489
994.8188226
994.8187247
994.8186824
994.8186641
994.8186561
994.8186527
994.8186512
994.8186504
994.8186502
994.8186502
994.8186501
994.8186501
994.8186501
994.8186501
994.8186501
994.8186501
994.8186501
994.8186501
994.8186501
994.8186501
994.8186501
994.8186501
994.8186501
994.8186501
994.8186501
994.8186501
994.8186501
994.8186501
994.8186501
994.8186501
994.8186501
994.8186501
994.8186499
994.8186501
994.8186501
994.8186501
994.8186501
994.8186501
994.8186501
994.8186501
994.8186501
994.8186501
994.8186501
994.8186501
994.8186501
994.8186501
994.8186501
994.8186501
994.8186501
994.8186501
994.8186501
994.8186501
994.8186501
994.8186501
994.8186501
994.8186501
994.81865
994.8186501
994.8186501
994.8186501
994.8186501
994.8186501
994.8186501
994.8186501
994.8186501
994.8186501
994.8186501
994.8186501
994.8186501
994.8186501
994.81865
994.8186501
994.8186499
994.8186501
994.81865
994.81865
994.8186501
994.81865
994.81865
994.81865
994.8186499
994.81865
994.8186501
994.81865
994.8186501
994.81865
994.81865
994.81865
994.8186499
994.81865
994.8186501
994.81865
994.8186501
994.81865
994.8186499
994.81865
994.81865
994.81865
994.81865
994.81865
994.8186501
994.81865
994.81865
994.81865
994.8186499
994.8186501
994.81865
994.8186501
994.8186502
994.8186501
994.81865
994.8186501
994.8186501
994.8186501
994.8186501
994.8186501
994.8186502
994.8186501
994.81865
994.8186501
994.81865
994.8186501
994.81865
994.8186501
994.8186501
994.8186501
994.81865
994.8186501
994.8186498
994.8186501
994.8186501
994.8186501
994.8186501
994.8186501
994.8186501
994.8186501
994.81865
994.8186501
994.8186501
994.8186501
994.8186501
994.8186501
994.81865
994.8186501
994.8186499
994.8186501
994.81865
994.8186501
994.8186501
994.8186501
994.8186501
994.8186501
994.8186499
994.8186501
994.8186501
994.8186501
994.8186501
994.8186501
994.8186501
994.8186501
994.81865
994.8186501
994.81865
994.8186501
994.8186501
994.8186501
994.81865
994.8186501
994.8186501
994.8186501
994.81865
994.8186501
994.8186501
994.8186501
994.8186501
994.8186501
994.81865
994.8186501
994.8186501
994.8186501
994.8186501
994.8186501
994.81865
994.8186501
994.81865
994.81865
994.8186501
994.8186501
994.81865
994.8186501
994.8186499
994.8186501
994.8186498
994.8186501
994.81865
994.81865
994.8186501
994.8186499
994.8186501
994.8186501
994.8186501
994.81865
994.8186501
994.81865
994.8186501
994.81865
994.8186501
994.81865
994.8186501
994.8186499
994.8186501
994.8186501
994.8186501
994.81865
994.8186501
994.8186501
994.8186501
994.8186501
994.8186501
994.8186501
994.8186501
994.8186499
994.8186501
994.8186502
994.8186501
994.81865
994.8186501
994.81865
994.8186501
994.8186499
994.8186501
994.81865
994.8186501
994.8186501
994.8186501
994.81865
994.8186501
994.8186499
994.8186501
994.8186501
994.8186501
994.8186501
994.8186501
994.8186501
994.8186501
994.81865
994.81865
994.8186501
994.81865
994.81865
994.81865
994.81865
994.81865
994.8186499
994.81865
994.81865
994.81865
994.8186501
994.81865
994.81865
994.81865
994.8186501
994.8186501
994.81865
994.8186501
994.8186501
994.8186501
994.8186501
994.8186501
994.8186499
994.8186501
994.8186501
994.8186501
994.8186501
994.8186501
994.81865
994.8186501
994.81865
994.8186501
994.81865
994.8186501
994.8186501
994.8186501
994.81865
994.8186501
994.8186499
994.8186501
994.8186501
994.8186501
994.8186501
994.8186501
994.8186499
994.8186501
994.81865
994.8186501
994.8186501
994.8186501
994.8186501
994.8186501
994.81865
994.8186501
994.8186499
994.8186501
994.81865
994.8186501
994.8186501
994.8186501
994.8186501
994.8186501
994.8186498
994.8186501
994.8186501
994.8186501
994.8186501
994.8186501
994.8186501
994.8186501
994.81865
994.8186501
994.8186501
994.81865
994.8186501
994.8186501
994.8186501
994.8186499
994.8186501
994.8186501
994.8186501
994.8186501
994.8186501
994.8186499
994.8186501
994.8186499
994.8186501
994.8186501
994.8186501
994.8186501
994.8186501
994.8186501
994.8186501
994.8186499
994.8186501
994.8186501
994.8186501
994.81865
994.8186501
994.81865
994.8186501
994.8186501
994.8186501
994.8186501
994.8186501
994.8186499
994.8186501
994.8186499
994.8186501
994.81865
994.8186501
994.8186501
994.8186501
994.8186501
994.8186501
994.8186501
994.8186501
994.81865
994.8186501
994.81865
994.8186501
994.81865
994.8186501
994.81865
994.81865
994.8186501
994.81865
994.8186501
994.81865
994.8186499
994.81865
994.8186499
994.81865
994.8186501
994.81865
994.8186501
994.81865
994.8186501
994.81865
994.81865
994.81865
994.81865
994.81865
994.81865
994.81865
994.8186499
994.81865
994.8186499
994.81865
994.8186501
994.81865
994.8186501
994.81865
994.81865
994.81865
994.81865
994.81865
994.8186501
994.8186501
994.8186501
994.8186501
994.8186501
994.8186501
994.8186499
994.8186501
994.8186501
994.81865
994.8186501
994.8186501
994.8186501
994.81865
994.8186499
994.81865
994.81865
994.81865
994.8186501
994.81865
994.8186499
994.8186501
994.8186499
994.8186501
994.8186501
994.8186501
994.8186501
994.8186501
994.8186501
994.8186501
994.8186499
994.8186501
994.81865
994.8186501
994.8186501
994.8186501
994.8186499
994.8186501
994.8186498
994.8186501
994.8186501
994.81865
994.8186501
994.8186501
994.8186501
994.8186501
994.8186501
994.8186501
994.8186501
994.8186499
994.8186501
994.8186499
994.8186501
994.8186501
994.8186501
994.8186501
994.8186501
994.8186501
994.8186501
994.81865
994.8186501
994.8186499
994.8186501
994.8186501
994.8186501
994.8186501
994.8186501
994.8186501
994.8186501
994.8186501
994.8186501
994.81865
994.8186501
994.8186501
994.8186501
994.8186499
994.8186501
994.8186501
994.8186501
994.8186501
994.8186501
994.8186501
994.8186501
994.81865
994.8186501
994.8186501
994.8186501
994.8186501
994.8186501
994.8186501
994.8186501
994.8186501
994.8186501
994.81865
994.8186501
994.8186501
994.8186501
994.8186499
994.8186501
994.8186499
994.8186501
994.8186501
994.8186501
994.8186501
994.8186501
994.8186501
994.8186501
994.8186498
994.8186501
994.81865
994.8186501
994.8186501
994.8186501
994.8186501
994.8186501
994.8186501
994.8186501
994.8186499
994.8186501
994.81865
994.8186501
994.8186501
994.8186501
994.8186501
994.8186501
994.8186501
994.8186501
994.8186501
994.8186501
994.8186499
994.8186501
994.8186499
994.8186501
994.8186501
994.8186501
994.8186501
994.8186501
994.8186501
994.8186501
994.8186501
994.8186501
994.8186501
994.8186501
994.81865
994.8186501
994.8186501
994.8186501
994.81865
994.8186501
994.8186501
994.8186501
994.8186501
994.8186501
994.81865
994.8186501
994.8186499
994.8186501
994.81865
994.8186501
994.8186501
994.8186501
994.81865
994.8186501
994.81865
994.8186501
994.81865
994.8186501
994.8186501
994.8186498
994.8186501
994.8186499
994.8186501
994.8186501
994.8186501
994.81865
994.8186501
994.81865
994.8186501
994.8186501
994.81865
994.8186501
994.81865
994.81865
994.8186501
994.8186499
994.81865
994.81865
994.81865
994.8186501
994.81865
994.8186499
994.81865
994.8186499
994.81865
994.8186501
994.8186501
994.8186501
994.81865
994.8186501
994.81865
994.81865
994.81865
994.8186501
994.81865
994.8186501
994.81865
994.8186499
994.81865
994.8186501
994.81865
994.81865
994.81865
994.8186501
994.81865
994.8186501
994.81865
994.8186499
994.81865
994.81865
994.81865
994.8186501
994.81865
994.8186501
994.81865
994.81865
994.81865
994.8186501
994.81865
994.81865
994.81865
994.81865
994.81865
994.8186499
994.81865
994.8186501
994.8186501
994.8186501
994.8186501
994.81865
994.8186501
994.8186499
994.8186501
994.8186501
994.8186501
994.8186501
994.8186501
994.8186501
994.8186501
994.8186501
994.8186501
994.81865
994.8186501
994.81865
994.8186501
994.81865
994.8186501
994.8186499
994.8186501
994.8186501
994.8186501
994.8186501
994.8186501
994.8186501
994.8186501
994.8186499
994.8186501
994.8186499
994.8186501
994.8186501
994.8186501
994.8186501
994.8186501
994.8186501
994.8186501
994.8186501
994.8186501
994.81865
994.8186501
994.81865
994.8186501
994.81865
994.8186501
994.8186501
994.8186501
994.8186501
994.8186501
994.8186499
994.8186501
994.8186499
994.8186501
994.8186501
994.8186501
994.8186501
994.8186499
994.8186501
994.8186498
994.8186501
994.81865
994.8186501
994.81865
994.8186501
994.8186501
994.8186501
994.8186501
994.8186501
994.8186501
994.8186501
994.8186501
994.8186501
994.81865
994.8186501
994.81865
994.8186501
994.8186501
994.8186501
994.8186501
994.8186501
994.81865
994.8186501
994.8186501
994.8186501
994.8186501
994.8186501
994.8186501
994.81865
994.81865
994.8186501
994.8186499
994.8186501
994.81865
994.8186501
994.8186499
994.8186501
994.8186499
994.8186501
994.8186501
994.8186501
994.8186501
994.8186501
994.8186501
994.8186501
994.81865
994.8186501
994.81865
994.8186501
994.81865
994.8186501
994.81865
994.8186501
994.81865
994.81865
994.8186501
994.8186501
994.8186501
994.8186501
994.8186501
994.8186499
994.8186501
994.8186501
994.8186501
994.8186501
994.8186501
994.8186501
994.8186499
994.8186501
994.81865
994.8186501
994.8186501
994.81865
994.8186501
994.8186501
994.8186501
994.8186501
994.81865
994.8186501
994.81865
994.8186501
994.81865
994.8186501
994.8186499
994.8186501
994.81865
994.8186501
994.8186501
994.8186501
994.8186501
994.8186501
994.81865
994.8186501
994.8186499
994.8186501
994.81865
994.8186501
994.8186501
994.8186501
994.81865
994.8186501
994.8186499
994.8186501
994.8186501
994.8186501
994.8186501
994.8186501
994.8186501
994.8186499
994.8186501
994.8186501
994.8186501
994.8186501
994.81865
994.8186501
994.8186499
994.8186501
994.8186499
994.8186501
994.8186501
994.81865
994.8186501
994.8186498
994.8186501
994.8186499
994.8186501
994.8186501
994.8186501
994.8186501
994.8186501
994.8186501
994.8186501
994.8186501
994.8186501
994.8186501
994.8186501
994.8186501
994.8186501
994.8186499
994.8186501
994.81865
994.8186501
994.8186501
994.8186501
994.8186499
994.8186501
994.8186499
994.8186501
994.81865
994.8186501
994.8186502
994.8186501
994.8186502
994.8186501
994.8186499
994.8186501
994.8186499
994.8186501
994.8186501
994.8186501
994.81865
994.8186501
994.8186501
994.8186501
994.8186501
994.8186501
994.8186501
994.8186501
994.8186501
994.8186501
994.8186499
994.8186501
994.81865
994.8186501
994.8186501
994.8186501
994.8186501
994.8186501
994.81865
994.8186501
994.8186501
994.8186501
994.8186501
994.8186501
994.8186501
994.81865
994.8186501
994.8186501
994.8186499
994.8186501
994.8186499
994.8186501
994.8186499
994.8186501
994.8186499
994.8186501
994.8186502
994.8186501
994.8186502
994.8186501
994.8186502
994.8186501
994.8186499
994.8186501
994.81865
994.8186501
994.81865
994.8186501
994.8186501
994.8186501
994.81865
994.81865
994.8186501
994.8186501
994.8186501
994.8186501
994.8186501
994.8186501
994.81865
994.8186501
994.8186501
994.8186501
994.8186501
994.8186501
994.81865
994.8186501
994.81865
994.8186501
994.8186501
994.81865
994.8186501
994.8186501
994.8186501
994.8186501
994.81865
994.8186501
994.81865
994.8186501
994.8186499
994.8186501
994.8186499
994.8186501
994.81865
994.8186501
994.8186501
994.81865
994.8186501
994.8186499
994.8186501
994.8186501
994.81865
994.8186501
994.8186501
994.81865
994.8186501
994.8186499
994.8186501
994.81865
994.8186501
994.81865
994.8186501
994.8186501
994.8186501
994.8186499
994.8186501
994.81865
994.8186501
994.8186501
994.8186501
994.8186501
994.8186501
994.8186499
994.8186501
994.8186502
994.8186501
994.8186502
994.8186501
994.81865
994.8186501
994.8186499
994.8186501
994.8186499
994.8186501
994.8186502
994.8186501
994.8186501
994.8186501
994.8186502
994.8186501
994.8186501
994.8186501
994.8186502
994.8186501
994.8186502
994.8186501
994.81865
994.8186501
994.81865
994.8186501
994.8186502
994.8186501
994.81865
994.8186501
994.81865
994.8186501
994.81865
994.8186501
994.8186502
994.8186501
994.8186501
994.8186501
994.81865
994.8186501
994.81865
994.8186501
994.8186501
994.8186501
994.8186499
994.8186501
994.8186501
994.8186501
994.8186501
994.8186501
994.8186501
994.8186499
994.8186501
994.8186501
994.8186498
994.8186501
994.8186499
994.8186501
994.8186501
994.8186501
994.8186501
994.8186501
994.8186501
994.8186501
994.8186501
994.8186501
994.8186502
994.8186501
994.8186502
994.8186501
994.8186499
994.8186501
994.8186499
994.8186501
994.8186501
994.8186501
994.8186499
994.8186501
994.81865
994.8186501
994.8186502
994.8186501
994.8186502
994.8186501
994.8186501
994.8186501
994.8186499
994.8186501
994.8186499
994.8186501
994.8186501
994.8186501
994.8186501
994.8186501
994.8186501
994.81865
994.8186501
994.81865
994.81865
994.8186501
994.8186501
994.8186499
994.8186499
994.8186501
994.8186499
994.8186501
994.81865
994.8186501
994.8186501
994.81865
994.8186501
994.8186501
994.8186501
994.8186501
994.81865
994.8186501
994.8186501
994.81865
994.8186499
994.8186501
994.81865
994.8186501
994.8186499
994.8186501
994.8186501
994.81865
994.8186501
994.8186501
994.81865
994.8186501
994.8186501
994.8186501
994.8186501
994.81865
994.8186499
994.8186501
994.8186501
994.8186499
994.8186501
994.8186501
994.8186499
994.8186501
994.8186501
994.8186501
994.8186501
994.8186501
994.8186501
994.8186501
994.8186501
994.81865
994.8186498
994.8186501
994.81865
994.8186501
994.8186499
994.8186501
994.8186501
994.8186501
994.8186501
994.8186501
994.8186501
994.8186501
994.81865
994.81865
994.8186502
994.8186498
994.8186499
994.81865
994.8186501
994.8186501
994.8186501
994.8186501
994.8186498
994.8186501
994.81865
994.8186501
994.81865
994.8186501
994.81865
994.8186501
994.8186501
994.8186499
994.8186501
994.8186501
994.81865
994.8186499
994.8186501
994.8186501
994.8186499
994.8186501
994.8186501
994.8186501
994.8186501
994.8186501
994.81865
994.8186501
994.8186501
994.8186499
994.8186501
994.8186501
994.8186501
994.8186501
994.8186499
994.8186501
994.8186499
994.8186501
994.8186501
994.8186501
994.8186501
994.81865
994.81865
994.8186501
994.8186501
994.8186499
994.8186499
994.8186501
994.81865
994.8186501
994.81865
994.8186501
994.8186499
994.8186501
994.8186501
994.8186499
994.8186501
994.8186501
994.81865
994.8186499
994.8186501
994.8186499
994.8186501
994.81865
994.8186501
994.8186501
994.81865
994.8186501
994.8186501
994.8186501
994.8186501
994.81865
994.8186501
994.8186501
994.81865
994.8186499
994.8186501
994.81865
994.8186499
994.8186501
994.8186501
994.8186501
994.8186499
994.8186501
994.8186501
994.8186501
994.8186501
994.81865
994.8186501
994.8186501
994.81865
994.8186499
994.8186501
994.8186499
994.8186499
994.8186501
994.8186501
994.8186501
994.81865
994.8186501
994.8186501
994.8186501
994.8186501
994.8186501
994.8186501
994.8186501
994.81865
994.8186499
994.8186501
994.8186499
994.8186501
994.8186499
994.8186501
994.8186501
994.81865
994.8186501
994.8186501
994.8186501
994.8186501
994.8186501
994.8186501
994.8186501
994.8186499
994.8186498
994.8186501
994.8186499
994.81865
994.8186501
994.8186501
994.8186501
994.81865
994.81865
994.8186501
994.8186501
994.8186499
994.81865
994.8186501
994.8186501
994.81865
994.8186499
994.8186501
994.8186501
994.8186501
994.8186499
994.8186501
994.8186501
994.8186501
994.8186502
994.8186501
994.8186502
994.8186501
994.81865
994.8186501
994.8186502
994.8186499
994.8186498
994.8186501
994.8186499
994.8186501
994.8186501
994.8186501
994.8186499
994.8186501
994.8186502
994.8186501
994.81865
994.8186501
994.81865
994.8186501
994.8186501
994.8186499
994.8186501
994.8186501
994.81865
994.8186499
994.8186501
994.8186501
994.8186499
994.8186501
994.8186501
994.8186498
994.8186501
994.8186501
994.81865
994.8186501
994.8186501
994.8186499
994.8186501
994.8186501
994.8186501
994.8186501
994.8186499
994.8186501
994.8186501
994.8186501
994.8186501
994.81865
994.8186501
994.81865
994.81865
994.8186501
994.8186501
994.81865
994.8186499
994.8186501
994.8186501
994.8186501
994.81865
994.8186501
994.8186501
994.8186501
994.8186501
994.8186499
994.8186501
994.81865
994.81865
994.8186499
994.8186501
994.8186499
994.8186501
994.8186501
994.8186501
994.8186499
994.8186501
994.8186501
994.8186501
994.8186501
994.8186501
994.8186501
994.8186501
994.8186501
994.81865
994.8186501
994.8186501
994.81865
994.8186498
994.8186501
994.8186501
994.8186501
994.8186499
994.8186501
994.81865
994.8186501
994.8186501
994.81865
994.8186501
994.8186501
994.81865
994.81865
994.8186501
994.8186499
994.8186499
994.8186501
994.8186501
994.8186501
994.81865
994.8186501
994.8186501
994.8186501
994.8186501
994.81865
994.8186501
994.8186501
994.8186499
994.8186499
994.8186501
994.8186499
994.8186501
994.8186501
994.8186501
994.8186501
994.8186499
994.8186501
994.8186501
994.8186501
994.8186501
994.81865
994.8186501
994.8186501
994.81865
994.8186498
994.8186501
994.8186499
994.8186499
994.8186501
994.8186501
994.8186501
994.81865
994.8186501
994.8186501
994.8186501
994.81865
994.81865
994.8186501
994.8186501
994.81865
994.8186499
994.8186501
994.81865
994.8186501
994.8186499
994.8186501
994.8186501
994.81865
994.8186501
994.8186499
994.8186501
994.8186501
994.81865
994.8186501
994.8186501
994.81865
994.81865
994.8186501
994.8186501
994.8186501
994.8186499
994.8186501
994.8186501
994.81865
994.8186501
994.8186499
994.8186501
994.8186501
994.81865
994.8186501
994.8186501
994.81865
994.8186499
994.8186501
994.8186501
994.8186499
994.8186501
994.8186501
994.8186501
994.8186501
994.8186501
994.81865
994.8186501
994.8186501
994.81865
994.8186501
994.8186501
994.8186499
994.8186501
994.8186501
994.8186501
994.8186501
994.8186499
994.8186501
994.8186501
994.8186501
994.8186501
994.8186499
994.8186501
994.8186501
994.81865
994.8186501
994.8186501
994.8186499
994.8186499
994.8186501
994.8186501
994.8186501
994.81865
994.8186501
994.8186501
994.8186501
994.81865
994.81865
994.8186501
994.81865
994.8186499
994.8186502
994.8186501
994.8186499
994.8186501
994.81865
994.8186501
994.8186502
994.8186501
994.8186502
994.8186501
994.8186502
994.8186501
994.8186499
994.8186501
994.8186502
994.81865
994.81865
994.8186501
994.8186499
994.8186501
994.8186502
994.8186501
994.8186499
994.8186501
994.8186502
994.8186501
994.8186501
994.8186501
994.81865
994.8186501
994.8186501
994.81865
994.8186499
994.8186501
994.8186499
994.8186499
994.8186501
994.8186501
994.8186501
994.81865