/*--------------------------------*- C++ -*----------------------------------*\
| =========                 |                                                 |
| \\      /  F ield         | OpenFOAM: The Open Source CFD Toolbox           |
|  \\    /   O peration     | Version:  2312                                  |
|   \\  /    A nd           | Website:  www.openfoam.com                      |
|    \\/     M anipulation  |                                                 |
\*---------------------------------------------------------------------------*/
FoamFile
{
    version     2.0;
    format      ascii;
    arch        "LSB;label=32;scalar=64";
    class       volScalarField;
    location    "0.0008";
    object      T;
}
// * * * * * * * * * * * * * * * * * * * * * * * * * * * * * * * * * * * * * //

dimensions      [0 0 0 1 0 0 0];

internalField   nonuniform List<scalar> 
5000
(
300
300
300
300
300
300
300
300
300
300
300
300
300
300
300
300
300
300
300
300
300
300
300
300
300
300
300
300
300
300
300
300
300
300
300
300
300
300
300
300
300
300
300
300
300
300
300
300
300
300
300
300
300
300
300
300
300
300
300
300
300
300
300
300
300
300
300
300
300
300
300
300
300
300
300
300
299.9999999
299.9999998
299.9999996
299.9999992
299.9999984
299.9999968
299.9999937
299.9999877
299.9999762
299.9999546
299.9999144
299.9998409
299.9997075
299.9994692
299.9990496
299.9983216
299.9970779
299.9949875
299.991532
299.9859195
299.9769685
299.9629649
299.941494
299.9092666
299.8619672
299.7941742
299.6994203
299.5704759
299.3999603
299.1814385
298.9114188
298.5922069
298.2299431
297.8298292
297.3957672
296.9313255
296.4400229
295.9252652
295.3902398
294.8378393
294.2706253
293.6908245
293.1003488
292.5008265
291.8936395
291.2799602
290.6607861
290.0369701
289.409247
288.7782549
288.1445547
287.5086452
286.8709761
286.23196
285.5919818
284.9514079
284.3105942
283.6698896
283.0297293
282.3906016
281.7530454
281.1175419
280.4845961
279.8548243
279.2289469
278.607809
277.992418
277.3839873
276.7839928
276.1942469
275.6169838
275.0550061
274.5115467
273.9907917
273.4976555
273.0373137
272.6134536
272.2285154
271.6840887
270.9724876
270.1121055
269.180133
268.2384734
267.3533204
266.4978796
265.7064689
264.9246827
264.1969438
263.4648285
262.7576317
262.0494649
261.3613311
260.6730512
259.990274
259.3079287
258.6300859
257.955115
257.2862049
256.6167719
255.9492385
255.2830069
254.619596
253.9576967
253.2989032
252.6398326
251.9816778
251.3248402
250.670096
250.0161424
249.3644556
248.7126087
248.0620806
247.4123116
246.7646388
246.1172564
245.4715703
244.8260694
244.1812972
243.5379932
242.894832
242.2531142
241.6113609
240.970716
240.329928
239.6903227
239.0506604
238.411845
237.7730239
237.1346096
236.4961079
235.8579336
235.2197508
234.581233
233.9454108
233.3088303
232.6892311
232.0658753
231.4548568
230.8474376
230.2561529
229.6753829
229.1339885
228.6440122
228.1978642
227.8451697
227.6001007
227.442239
227.3701434
227.3545888
227.3576292
227.3626755
227.3681292
227.3733981
227.3723207
227.3681242
227.3569813
227.3363641
227.3056069
227.2654644
227.2178908
227.1672802
227.1206511
227.0943908
227.0772608
227.0611551
227.045026
227.0297234
227.0159514
227.0032229
226.9913083
226.9803602
226.9703735
226.9611575
226.9522252
226.9432199
226.9343765
226.9263802
226.9192743
226.9125259
226.9057986
226.8989857
226.8924742
226.8865784
226.8811794
226.8759199
226.8706319
226.8652166
226.8601969
226.8558684
226.8520896
226.848476
226.8449966
226.8415131
226.838162
226.8348347
226.8316976
226.8287665
226.8261652
226.8237176
226.8214704
226.819294
226.8170817
226.814852
226.8125234
226.8102713
226.8087033
226.8073706
226.806436
226.8057017
226.8050209
226.8043573
226.8037421
226.8030583
226.8021733
226.8010025
226.8004312
226.8004305
226.8005358
226.8008164
226.8013576
226.8021708
226.8031673
226.8043023
226.8056102
226.80711
226.8087518
226.8105794
226.8127115
226.8151515
226.8178963
226.8209676
226.8243373
226.8279984
226.8319539
226.836173
226.8406951
226.845665
226.8512046
226.8574771
226.8647427
226.8732574
226.8833431
226.8954533
226.9102518
226.9289447
226.9535858
226.9877419
227.0374476
227.1125696
227.2288306
227.4104965
227.693926
228.1319509
228.7988904
229.7957262
231.2545166
233.3406297
236.2509845
240.2053739
245.4294074
252.126473
260.4311003
270.4203942
281.9114349
294.6999306
308.3077973
322.1354438
335.7229913
348.2834864
359.6273184
369.0779971
375.2622009
378.8192652
381.085079
382.5184848
383.4208335
383.9795227
384.3189804
384.5211729
384.6395957
384.7070035
384.7434639
384.7607736
384.7667942
384.766841
384.7643083
384.7611658
384.7583231
384.7558185
384.7534018
384.75172
384.7500433
384.7479456
384.7456165
384.7438204
384.7425846
384.7415999
384.740679
384.7397842
384.7389047
384.7380274
384.7371463
384.7362546
384.735329
384.7343296
384.7332519
384.7321034
384.730888
384.729613
384.7282871
384.7269169
384.7255055
384.7240527
384.7225666
384.7210553
384.719525
384.7179805
384.716425
384.714865
384.7133186
384.7117883
384.7102759
384.708782
384.7073148
384.7058806
384.7044909
384.7031439
384.7018332
384.7005624
384.6993372
384.6981499
384.6970097
384.695921
384.6948832
384.6939007
384.6929638
384.6920766
384.6912445
384.6904702
384.6897542
384.6890886
384.6884629
384.6878801
384.6873394
384.6868436
384.6863998
384.686003
384.6856467
384.6853306
384.6850498
384.684809
384.684604
384.6844351
384.6842934
384.684184
384.6841127
384.6840712
384.6840544
384.6840554
384.6840721
384.6841167
384.6841941
384.6843023
384.6844354
384.6845863
384.6847508
384.684927
384.685115
384.6853151
384.6855267
384.6857484
384.6859777
384.6862123
384.6864503
384.6866904
384.6869315
384.6871739
384.6874176
384.6876633
384.6879111
384.6881615
384.6884144
384.6886697
384.6889269
384.6891856
384.6894456
384.6897072
384.6899671
384.6902182
384.69046
384.6906936
384.6909195
384.6911385
384.6913499
384.6915538
384.6917489
384.6919359
384.6921151
384.6922879
384.6924558
384.6926209
384.6927856
384.6929505
384.6931166
384.6932811
384.6934377
384.6935839
384.6937196
384.6938449
384.6939611
384.694069
384.6941689
384.694261
384.6943451
384.6944221
384.6944928
384.6945586
384.6946212
384.6946823
384.6947436
384.6948057
384.6948697
384.6949362
384.6950052
384.6950709
384.6951288
384.6951789
384.6952215
384.6952576
384.695289
384.6953169
384.695343
384.6953684
384.695394
384.6954199
384.6954467
384.695475
384.6955056
384.6955395
384.6955778
384.695621
384.6956692
384.6957216
384.6957711
384.6958133
384.6958497
384.6958829
384.6959144
384.6959461
384.6959798
384.6960177
384.6960627
384.6961168
384.6961813
384.6962564
384.6963409
384.6964328
384.6965288
384.6966215
384.6967097
384.6967963
384.6968833
384.6969721
384.6970645
384.697163
384.6972695
384.6973856
384.6975122
384.6976491
384.6977952
384.6979486
384.6981074
384.6982686
384.6984313
384.698596
384.6987641
384.6989375
384.6991185
384.6993089
384.6995102
384.6997224
384.6999445
384.7001746
384.7004096
384.7006469
384.7008842
384.7011212
384.7013596
384.7016024
384.7018531
384.7021151
384.7023907
384.7026805
384.7029828
384.7032943
384.7036101
384.7039265
384.7042424
384.7045598
384.7048815
384.7052111
384.7055513
384.7059041
384.7062691
384.7066435
384.707021
384.7073933
384.7077622
384.7081307
384.708501
384.708876
384.7092598
384.7096544
384.71006
384.7104755
384.7108983
384.7113246
384.7117444
384.7121566
384.7125642
384.7129706
384.7133817
384.7138001
384.7142279
384.7146654
384.715112
384.715563
384.7160091
384.7164477
384.7168813
384.7173135
384.7177484
384.718189
384.7186379
384.7190951
384.7195587
384.7200246
384.72048
384.7209253
384.7213636
384.7217995
384.7222387
384.7226858
384.7231433
384.7236109
384.724085
384.7245609
384.7250335
384.7255011
384.7259654
384.7264304
384.7268993
384.7273754
384.7278603
384.728354
384.728853
384.7293532
384.729852
384.7303492
384.7308459
384.731345
384.7318506
384.7323665
384.7328949
384.7334357
384.7339843
384.7345351
384.7350843
384.7356309
384.7361759
384.736722
384.7372727
384.7378315
384.7384017
384.7389845
384.739576
384.7401717
384.7407683
384.7413653
384.7419634
384.7425637
384.7431677
384.7437778
384.7443969
384.7450265
384.7456618
384.7462985
384.7469343
384.7475675
384.7481965
384.7488205
384.7494412
384.7500626
384.7506913
384.7513298
384.751975
384.7526237
384.7532741
384.7539259
384.7545772
384.7552253
384.7558687
384.7565084
384.7571462
384.7577867
384.7584324
384.7590838
384.7597409
384.7604047
384.7610734
384.7617436
384.7624115
384.7630746
384.7637311
384.7643903
384.7650591
384.7657405
384.7664348
384.7671425
384.767859
384.7685763
384.7692829
384.7699671
384.7706311
384.7712881
384.7719611
384.7726576
384.7733798
384.7741244
384.7748849
384.7756478
384.7763946
384.7771154
384.7778162
384.7785104
384.779221
384.7799609
384.7807311
384.7815243
384.7823269
384.7831223
384.7838945
384.7846412
384.7853676
384.7860878
384.7868277
384.7876039
384.7884175
384.7892563
384.7901006
384.7909359
384.7917517
384.7925436
384.7933126
384.7940672
384.7948244
384.7956101
384.7964306
384.7972763
384.7981328
384.7989905
384.799847
384.8006963
384.8015324
384.8023531
384.8031625
384.8039758
384.8048153
384.8056855
384.8065854
384.8075092
384.8084514
384.8093968
384.8103245
384.8112148
384.8120656
384.8128977
384.8137623
384.8146821
384.815662
384.8166909
384.8177501
384.8188172
384.8198617
384.8208553
384.8217947
384.8226992
384.8236128
384.8245867
384.8256279
384.8267226
384.827847
384.8289842
384.8301166
384.8312231
384.8322899
384.8333205
384.8343368
384.8353854
384.836477
384.8376121
384.8387887
384.8400029
384.8412483
384.8424972
384.8437099
384.844857
384.8459405
384.8469984
384.8481024
384.8492774
384.8505353
384.8518673
384.8532516
384.8546477
384.8560056
384.8572937
384.8585202
384.8597147
384.8609405
384.8622619
384.8636878
384.8651937
384.866744
384.8683104
384.8698681
384.8713978
384.872891
384.8743474
384.8757929
384.877329
384.8789856
384.8807451
384.8825718
384.8844512
384.8863612
384.8882641
384.8900908
384.8917753
384.8933647
384.8950252
384.8968642
384.8988783
384.9010072
384.9031949
384.9054178
384.9076261
384.9097237
384.9116454
384.9134349
384.9152219
384.917165
384.9192306
384.9213819
384.923613
384.925928
384.9283066
384.9306482
384.9328139
384.9347975
384.9366903
384.9386078
384.9406034
384.9427242
384.9450215
384.9475105
384.950104
384.9526405
384.9549499
384.9570659
384.9590791
384.9610598
384.9630884
384.9652833
384.9677434
384.9704675
384.9732781
384.9760198
384.9786256
384.9811447
384.9836127
384.9858992
384.9878848
384.9900306
384.9925383
384.9954783
384.9986059
385.0017006
385.0047044
385.0076881
385.010642
385.0131709
385.0151869
385.0173184
385.0199559
385.0231546
385.0264751
385.029678
385.0328723
385.0362432
385.0397236
385.0426921
385.0448743
385.0469054
385.0495416
385.052761
385.0559931
385.0592193
385.0626687
385.0666588
385.071036
385.0744464
385.0767462
385.0786609
385.0812492
385.08495
385.08836
385.0917303
385.0955404
385.0999749
385.1053471
385.1093502
385.1121858
385.1150282
385.118266
385.1225711
385.1263724
385.1294463
385.1344025
385.1431418
385.1564279
385.1637522
385.1560676
385.0594231
384.5451392
382.5167486
376.3234147
362.046169
338.467327
319.1571811
308.9139428
303.983309
301.7482864
300.7612635
300.3303347
300.1431256
300.0619715
300.0268247
300.0116097
300.0050243
300.0021742
300.0009409
300.0004071
300.0001762
300.0000762
300.000033
300.0000142
300.0000062
300.0000027
300.0000012
300.0000005
300.0000002
300.0000001
300
300
300
300
300
300
300
300.0000001
300
300
300
300
300
300
300
300
300
300
300
300
300
300
300
300
300
300.0000001
300
300
300
300
300
300
300
300
300
300
300
300
300
300
300
300
300
300
300
300
300
300
300
300.0000001
300
300
300
300
300
300
300
300
300
300
300
300
300
300
300
300.0000001
300
300
300
300
300
300
300
300
300
300.0000001
300
300
300
300
300
300.0000001
300
300
300
300
300
300.0000001
300
300
300
300.0000001
300
300.0000001
300
300
300
300
299.9999999
300
300
300
300
300.0000001
300
300
300
300
300
300.0000001
300
300
300
300
300
300.0000001
300
300
300
300
300
300
300
300
300
300
300
300
300
300.0000001
300
300
300
300
300
300
300
300
300
300
300
300
300
300.0000001
300
300
300
300
300
300
300
300
300
300
300
300
300
300.0000001
300
300.0000001
300
300
300
300
300
300
300
300
300
300
300
300.0000001
300
300
300
300.0000001
299.9999999
300.0000001
300
300
300
300
300
300
300
300
300
300
300
299.9999999
300
300
300.0000001
300
300
300
300
300
300.0000001
300
300
300
300
300
300
300
300
300
300
300
300
300
300
300
300.0000001
300
300
300
300
300
300
300
300
300
300.0000001
300
300
300
300
300
300
300
300
300
300.0000001
300
300
300
300.0000001
300
300
300
300
300
300
300
300
300
300
300
300
300
300
300
300
300
300.0000001
300
300.0000001
300
300
300
300.0000001
300
300
300
300
300
300
300
300
300
300.0000001
300
300
300
300.0000001
300
300
300
300
300
300
300
300
300
300
300
300.0000001
300
300
300
300
299.9999999
300
300
300
300
300
300
300
300
300
300
300
300
300.0000001
300
300.0000001
299.9999999
300
300
300
300.0000001
300
300
300
300
300
300.0000001
300
300
300
300
300
300
300
300
300
300
300.0000001
300
300
300.0000001
300
300
300
300
300
300.0000001
300
300.0000001
300
300
300
300
300
300
300
300
300
300
300
300
300
300.0000001
300
300
300
300
300
300
300
300
300
300
300
300
300
300
300
300
300
300
300
300
300
300
300.0000001
300.0000001
300
300
300
300
300
300
300
300.0000001
300
300
300
300.0000001
300
300
300
300
300
300.0000001
300
300.0000001
300
300.0000001
300
300
300
300
300
300
300
300
300
300
300
300.0000001
300
300
300
300
300
300
300
300
300.0000001
300
300
300
300
300.0000001
299.9999999
300
300
300
300
300
300
300
300
300
300.0000001
300
300
300
300
300
300
300
300
300
300
300
300
300
300.0000001
300.0000001
300
300
300
300
300
300
300.0000001
300
300
300
300
300
300
300
300
300
300
300
300
300
300
300
300
300
300.0000001
300
300
300
300
300
300.0000001
300
300
300
300.0000001
300
300
300
300
300
300
300
300.0000001
300
300
300
300.0000001
300
300
300
300.0000001
300
300
300
300
300
300
300.0000001
300
300
300
300
300
300
300
300
300
300
300
300
300
300
300
300
300
300
300.0000001
300
300
300
300.0000001
300
300
300
300.0000001
300
300.0000001
300
300
300
300
300
300
300
300
300.0000001
300
300
300
300
300.0000001
300
300
300
300.0000001
300
300
300
300
300
300
300
300
300
300
300
300
300
300
300.0000001
299.9999999
300
299.9999999
300
300
300
300
300
300
300
300
300
300
300
300
300
300
300
300
300
300
300
300
300
300
300
300
300
300
300
300
300
300
300.0000001
300
300
300
300
300
300
300
300
300
300
300
300.0000001
300
300
300
300
300
300.0000001
300
300
300
300
300
300.0000001
300
300
300
300
299.9999999
300
300
300
300
300
299.9999999
300.0000001
300
300
300
300
300
300
300
300
300
300
300
300
300
300
300
300
300
300
300
300
300
300.0000001
300
300
300
300
300.0000001
300
300
300
300
300.0000001
300
300
300
300
300
300
300
300
300
300
300
300
300
300
300
300
300
300
300
300
300.0000001
300
300
300
300
300
300
300
300
300
300
300.0000001
300
300
300.0000001
299.9999999
300.0000001
300
300.0000001
300
300
300
300
300.0000001
300
300
300
300
300
300
300
300
300
300
300
300
300
300
300
300
300
300
300
300
300
300
300
300
300
300
300.0000001
300
300
300
300
300
300
300
300.0000001
300
300
300
300
300
300
300
300
300
300
300
300.0000001
300
300.0000001
300
300
300
300
300
300.0000001
300
300.0000001
300
300
300
300
300
300
300
300
300
300
300
300
300
300.0000001
300
300
300
300
300
300.0000001
300
300
300
300
300
300.0000001
300
300
300
300
300
300
300
300
300
300
300
300
300
300
300.0000001
300
300
300
300
300
300
300
300
300
300.0000001
300
300
300
300
300
300.0000001
300
300
300
300
300
300.0000001
300.0000001
300
300
300
300
300
300
300
300
300.0000001
300
300
300
300.0000001
300.0000001
300
300
300
300
300.0000001
300
300
300
300
300
300.0000001
300
300
300
300
300
300
300
300
300
300
300
300.0000001
300
300
300
300
300
300
300
300
300
300.0000001
300
300.0000001
300
300
300
300
300
300.0000001
300
300
300
300.0000001
300
300.0000001
300
300
300.0000001
300.0000001
300
300
300
300
300
300.0000001
300
300
300
300
300
300
300
300.0000001
300
300
300
300.0000001
300
300
300
300
300
300
300
300
300
300
300
300
300
300
300
300.0000001
300.0000001
300
300
300
300
300
300
300
300
300
300.0000001
300
300
300
300
300
300
300
300.0000001
300
300.0000001
300
300.0000001
300
300
300
300
300
300
300
300.0000001
300
300
300
300.0000001
300
300
300
300
300
300.0000001
300
300
300
300.0000001
300
300
300
300.0000001
300
300.0000001
300
300.0000001
300
300
300
300
300
300.0000001
300
300.0000001
300
300
300
300
300
300.0000001
300
300.0000001
300
300.0000001
300
300
300
300.0000001
300
300
300
300
300
300
300
300
300
300
300
300.0000001
300
300.0000001
300
300.0000001
300
300
300.0000001
300.0000001
300
300.0000001
300
300.0000001
300
300
300
300
300
300.0000001
300
300
300
300.0000001
300
300.0000001
300
300
300
300
300
300.0000001
300
300.0000001
300.0000001
300
300
300
300.0000001
300.0000001
300
300
300
300
300
300.0000001
300
300.0000001
300
300
300
300
300
300
300
300
300
300
300
300
300
300
300
300.0000001
300
300.0000001
300
300.0000001
300
300.0000001
300
300
300
300.0000001
300
300.0000001
300
300.0000001
300
300
300.0000001
300
300.0000001
300
300
300
300
300
300
300.0000001
300.0000001
300
300
300
300
300.0000001
300
300.0000001
300
300
300
300
300
300.0000001
300
300
300
300
300
300.0000001
300
300
300
300
300
300
300
300
300.0000001
300
300
300
300
300
300
300
300
300
300
300
300.0000001
300
300
300
300
300.0000001
300
300
300
300
300
300
300
300
300
300.0000001
300
300
300
300.0000001
300.0000001
300
300
300
300
300
300
300
300
300
300
300.0000001
300
300
300
300
300
300.0000001
300
300
300
300
300
300
300
300
300
300
300.0000001
300
300
300
300
300
300
300
300.0000001
300
300
300
300
300.0000001
300
300.0000001
300.0000001
300
300
300.0000001
300
300
300
300
300
300
300
300
300.0000001
300
300
300
300
300.0000001
300.0000001
300.0000001
300
300
300.0000001
300
300
300
300
300.0000001
300
300
300
300
300
300.0000001
300
300
300
300
300
300
300
300
300.0000001
300
300
300
300
300
300
300
300.0000001
300
300
300
300.0000001
300
300
300.0000001
300
300
300
300.0000001
300.0000001
300
300
300
300
300
300
300
300
300
300
300
300
300.0000001
300
300.0000001
300
300.0000001
300.0000001
300
300.0000001
300
300
300
300
300
300
300
300.0000001
300
300
300
300
300.0000001
300
300
300
300
300
300.0000001
300.0000001
300
300
300
300
300
300
300.0000001
300
300
300
300
300
300
300
300.0000001
300.0000001
300
300
300
299.9999999
300
300
300
300
300
300
300
300
300
300
300
300
300
300
300
300
300.0000001
300.0000001
300
300.0000001
300
300
300
300
300
300
300
300
300
300.0000001
300
299.9999999
300.0000001
300.0000001
300
300
300.0000001
300
300
300.0000001
300
300
300.0000001
300.0000001
300
300
300
300
300
300
300
300
300
300
300
300
300
300.0000001
300
300.0000001
300
300
300
300
300
300
300
300.0000001
300
300
300
300
300
300
300
300
300.0000001
300
300
300
300
300
300
300
300.0000001
300
300
300.0000001
300
300
300.0000001
300
300
300
300
300
300
300
300
300.0000001
300
300
300
300.0000001
300
300
300
300
300
300
300
300
300
300
300
300
300
300
300
300.0000001
300
300
300.0000001
300
300
300
300.0000001
300
300
300
300
300.0000001
300
300.0000001
300
300.0000001
300
300
300
300
300
300.0000001
300
300
300
300
300
300
300.0000001
300
300
300
300.0000001
300.0000001
300
300
300
300
300.0000001
300
300
300
300
300
300
300.0000001
300
300.0000001
300
300.0000001
300
300
300.0000001
300
300
300.0000001
300
300.0000001
300.0000001
300.0000001
300
300
300
300.0000001
300
300.0000001
300
300
300
300
300
300.0000001
300.0000001
300
300
300
300
300
300
300.0000001
300
300
300.0000001
300
300.0000001
300
300
300
300
300
300
300.0000001
300
300
300.0000001
300
300
300
300.0000001
300
300
300
300
300
300.0000001
300
300
300
300.0000001
300
300
300
300
300
300
300
300
300
300
300
300.0000001
300
300.0000001
300
300
300
300
300
300.0000001
300
300
300
300
300
300
300
300
300
300
300
300
300.0000001
300
300
300
300.0000001
300
300.0000001
300
300
300.0000001
300
300.0000001
300
300
300
300
300
300
300
300.0000001
300.0000001
300
300
299.9999999
300
300
300
300
300
300
300
300
300
300.0000001
300
300
300
300.0000001
300
300
300
300
300
300.0000001
300
300
300
300.0000001
300
300
300
300.0000001
300
300.0000001
300
300
300
300
300
300
300.0000001
300
300
300
300
300
300.0000001
300
300.0000001
300
300
300.0000001
300.0000001
300
300.0000001
300
300
300.0000001
300
300
300
300.0000001
300
300
300
300
300
300
300
300
300
300.0000001
300
300
300
300
300.0000001
300
300.0000001
300
300
300
300
300.0000001
300
300
300.0000001
300
300
300
300
300
300
300
300
300
300
300
300
300
300.0000001
300
300
300
300
300
300
300
300.0000001
300
300
300
300
300
300
300
300.0000001
300
300
300
300
300
300
300
300
300
300
299.9999999
300.0000001
300
300
300
300
300
300
300.0000001
300.0000001
300
300.0000001
300
300
300
300
300
300
300
300.0000001
300
300
300
300.0000001
300
300.0000001
300
300.0000001
300
300
300
300
300
300
300.0000001
300
300
300
300
300.0000001
300
300
300
300
300
300.0000001
300
300
300
300
300.0000001
300.0000001
300
300
300.0000001
300
300
300.0000001
300
300
300.0000001
300
300
300
300.0000001
300
300.0000001
300
300
300
300.0000001
300
300
300
300.0000001
300
300
300.0000001
300
300
300.0000001
300
300
300
300
300
300
300.0000001
300
300.0000001
300
300.0000001
300
300
300
300
300.0000001
300
300.0000001
300
300
300
300
300
300
300
300.0000001
300
300
300
300.0000001
300
300
300
300
300
300
300
300.0000001
300
300
300
300
300.0000001
300
300
300
300
300
300
300.0000001
300
300
300
300.0000001
300
300
300
300
300.0000001
300.0000001
300
300
300
300.0000001
300
300
300
300.0000001
300
300
300
300
300
300.0000001
300
300.0000001
300
300
300.0000001
300
300
300.0000001
300
300
300
300.0000001
300
300
300
300
300.0000001
300
300
300.0000001
300
300
300
300
300
300
300
300
300
300.0000001
300
300
300.0000001
300
300
300
300
300
300
300
300.0000001
300
300
300
300
300.0000001
300.0000001
300
300.0000001
300
300
300
300
300
300
300
300
300
300
300
300.0000001
300
300.0000001
300
300.0000001
300
300
300
300.0000001
300
300
300
300
300
300.0000001
300
300
300
300
300.0000001
300.0000001
300
300
300
300
300
300.0000001
300
300
300
300
300
300.0000001
300
300
300
300
300
300.0000001
300
300
300
300
300
300
300
300
300
300
300
300.0000001
300
300
300
300
300
300
300
300
300
300
300
300.0000001
300
300.0000001
300
300
300
300
300
300
300
300
300
300
300
300
300
300
300
300
300
300.0000001
300.0000001
300
300
300
300.0000001
300.0000001
300
300.0000001
300
300
300
300.0000001
300
300
300
300
300
300
300
300
300
300
300
300.0000001
300
300
300.0000001
300.0000001
300
300.0000001
300
300
300
300
300
300.0000001
300.0000001
300
300.0000001
300
300
300
300.0000001
300
300
300
300.0000001
300.0000001
300
300
300.0000001
300.0000001
300
300.0000001
300
300
300
300
300.0000001
300
300
300
300
300
300.0000001
300
300
300
300
300
300
300
300
300
300.0000001
300.0000001
300
300
300.0000001
300
300.0000001
300.0000001
300
300
300
300.0000001
300.0000001
299.9999999
300.0000001
300
300.0000001
300
300.0000001
300
300.0000001
300.0000001
300
300
300.0000001
300
300
300
300.0000001
300
300.0000001
300
300
300.0000001
300.0000001
300
300
300
300.0000001
300
300
300
300.0000001
300
300
300
300
300
300
299.9999999
300
300
300
300
300.0000001
300
300.0000001
300
300
300
300
300
300
300
300
300
300
300
300
300.0000001
300
300
300
300
300
300
300.0000001
300
300.0000001
300
300
300
300
300
300
300
300
300
300
300
300
300.0000001
300
300
300
300.0000001
300
300
300
300.0000001
300
300
300
300
300
300
300
300
300
300.0000001
300
300.0000001
300
300
300.0000001
300
300
300.0000001
300
300.0000001
300
300
300.0000001
300
300
300.0000001
300
300.0000001
300
300
300
300
300
300
300.0000001
300
300
300.0000001
300
300.0000001
300
300
300
300
300
300
300
300
300
300
300
300
300
300
300
300
300
300
300
300
300
300.0000001
300
300
300
300
300
300
300
300.0000001
300
300
300
300
300
300.0000001
300
300.0000001
300
300
300
300.0000001
300
300
300
300
300
300.0000001
300
300
300
300
300
300
300
300
300.0000001
300
300.0000001
300
300
300
300
300
300.0000001
300
300
300.0000001
300
300
300.0000001
300
300
300
300
300
300.0000001
300
300
300
300
300
300.0000001
300
300
300.0000001
300
300
300
300
300
300
300.0000001
300
300
300
300
300
300
300
300
300
300.0000001
300
300
300
300
300
300.0000001
300
300.0000001
300
300
300
300.0000001
300
300.0000001
300
300
300
300
300
300.0000001
300
300
300
300
300
300.0000001
300.0000001
300
300
300.0000001
300
300
300
300
300
300
300
300
300
300.0000001
300
300
300
300
300
300.0000001
300
300
300
300
300
300.0000001
300
300
300.0000001
300
300
300.0000001
300
300.0000001
300.0000001
300
300.0000001
300
300
300
300
300
300
300
300.0000001
300
300.0000001
300
300.0000001
300
300
300
300
300.0000001
300
300
300.0000001
300
300.0000001
300
300
300
300
300
300.0000001
300
300
300
300
300
300
300
300
300
300.0000001
300
300.0000001
300
300
300
300.0000001
300
300
300
300
300
300
300
300
300
300
300.0000001
300
300
300.0000001
300
300.0000001
299.9999999
300
300
300
300
300.0000001
300
300
300
300.0000001
300
300
300
300
300
300.0000001
300
300
300
300
300
300
300
300.0000001
300
300.0000001
300
300.0000001
300
300.0000001
300
300.0000001
300
300
300
300
300
300
300.0000001
300.0000001
300
300
300.0000001
300.0000001
300
300
300
300
300
300
300
300
300
300.0000001
300
300
300.0000001
300.0000001
300
300
300
300.0000001
300
300.0000001
300
300.0000001
300
300
300
300
300
300
300
300
300
300
300.0000001
300
300.0000001
300
300
300
300
300
300.0000001
300
300.0000001
300
300
300
300
300
300.0000001
300
300
300
300
300
300
300
300
300.0000001
300
300
300
300.0000001
300
300
300.0000001
300
300.0000001
300
300
300
300
300.0000001
300
300
300
300
300.0000001
300
300
300
300.0000001
300
300.0000001
300.0000001
300.0000001
300
300
300.0000001
300.0000001
300
300
300
300
300
300
300
300.0000001
300
300
300
300.0000001
300
300
300.0000001
300.0000001
300.0000001
300
300
300
300
300
300
300
300.0000001
300
300
300.0000001
300.0000001
300
300
300.0000001
300
300
300
300
300
300.0000001
300
300.0000001
300
300.0000001
300.0000001
300
300
300.0000001
300
300
300
300
300
300
300.0000001
300
300
300.0000001
300
300
300
300
300
300
300
300.0000001
300
300
300
300
300
300.0000001
300
300
300
300
300
300
300
300.0000001
300
300
300.0000001
300
300.0000001
300
300
300
300.0000001
300
300
300.0000001
300
300
300
300
300
300
300
300
300
300
300.0000001
300
300.0000001
300
300
300
300.0000001
300.0000001
300
300
300
300
300.0000001
300
300.0000001
300
300
300
300
300
300
300
300
300
300
300
299.9999999
300
300
300
300
300
300
300
300
300
300.0000001
300
300.0000001
300
300
300
300
300
300
300
300
300
300
300
300
300
300.0000001
300
300
300
300
300
300
300
300.0000001
300
300
300
300
300.0000001
300
300
300.0000001
300
300
300
300
300
300
300
300.0000001
300
300
300
300
300
300
300
300
300
300.0000001
300
300.0000001
300
300
300
300
300
300
300.0000001
300
300
300
300
300
300
300
300
300
300
300
300
300
300
299.9999999
300
300
300.0000001
300
300
300
300
300
300.0000001
300
300
300
300
300.0000001
300
300
300
300
300.0000001
300
300
300
300
300
300
300
300
300
300
300
300
300
300
300
300
300
300
300.0000001
300
300.0000001
300
300
300
300
300
300
300
300
300
300
300
300
300
300
300
300
300
300
300
300
300.0000001
300
300
300
300
300
300.0000001
300
300.0000001
300
300
300
300
300.0000001
300
300
300
300
300
300.0000001
300
300
300
300
300
300
300.0000001
300
300
300
300
300
300
300
300.0000001
300
300
300
300.0000001
300
300.0000001
300
300
300
300.0000001
300
300
300
300
300
300
300
300
300.0000001
300
300
300
300
300
300.0000001
300
300.0000001
300
300
300
300.0000001
300
300
300
300.0000001
300
300
300
300
300
300
300
300
300
300.0000001
300
300
300
300
300
300
300
300
300
300
300
300
300
300
300
300
300
300
299.9999999
300
300
300.0000001
300
300.0000001
300
300.0000001
300
300
300.0000001
300
300
300
300
300
300
300
300
300
300
300.0000001
300
300
300.0000001
300
300
300
300
300
300
300
300
300
300.0000001
300
300.0000001
300
300
300
300
300
300
300
300.0000001
300
300
300
300.0000001
300.0000001
300
300
300
300
300
300
300.0000001
300
300.0000001
300
300
300.0000001
300
300
300
300
300
300
300
300.0000001
300.0000001
300
300
300
300
300
300
300
300.0000001
300
300
300
300
300
300
300.0000001
300
300
300.0000001
300
300
300
300
300
300
300
300
300.0000001
300.0000001
300
300
300
300
300
300
300
300.0000001
299.9999999
300
300
300
300
300
300
300
300
300
300.0000001
300
300
300
300
300
300
300
300
300
300
300
300
300.0000001
300
300
300
300
300
300
300
299.9999999
300
300
300
300
300
300
300
300
300
300
300
300
299.9999999
300
300.0000001
300
300
300
300
300
300
300
300
300.0000001
300
300.0000001
300
300
300
300.0000001
300
300
300
300
300
300
300
300
300.0000001
300
300
300
300
300
300
300
300
300
300.0000001
300
300
300
300
300
300
300
300
300
300
300
300
300
300
300
300
300
300
300
300.0000001
300
300
300
300
300
300
300
300
300.0000001
300.0000001
300
300
300
300
300
300.0000001
300
300
300
300
300
300
300
300
300
300
300.0000001
300
300
300
300
300
300
300
300.0000001
300
300
300.0000001
300
300
300
300
300
300
300
299.9999999
300
300
300
300
300.0000001
300
300
300
300
300
299.9999999
300
300
300
300
300
300
300
300
300
300.0000001
300
300
300.0000001
300
300.0000001
300
300.0000001
300
300
300.0000001
300.0000001
300
300
300.0000001
300
300
300
300
300
300
299.9999999
300
300
300
300
300
300
300
300.0000001
300
300
300
300
300
300
300
300.0000001
300
300
300.0000001
300
300
300
300
300
300
300
300
300.0000001
300
300
300
300
300
300
300
300
300
300
300
300
300
300
300
300
300
300
300
300
300
300
300
300
300
300
300
300
300
300
300
300
300
300
300
300
300
300
300
300
300
300
300
300
300
300
300
300
300
299.9999999
300
300.0000001
300
300
300
300
300
300
300
300
300
300
300
300
300
300
300
300
300