/*--------------------------------*- C++ -*----------------------------------*\
| =========                 |                                                 |
| \\      /  F ield         | OpenFOAM: The Open Source CFD Toolbox           |
|  \\    /   O peration     | Version:  2312                                  |
|   \\  /    A nd           | Website:  www.openfoam.com                      |
|    \\/     M anipulation  |                                                 |
\*---------------------------------------------------------------------------*/
FoamFile
{
    version     2.0;
    format      ascii;
    arch        "LSB;label=32;scalar=64";
    class       volScalarField;
    location    "0.0008";
    object      thermo:psiGasEff;
}
// * * * * * * * * * * * * * * * * * * * * * * * * * * * * * * * * * * * * * //

dimensions      [-2 4 2 0 0 0 0];

internalField   nonuniform List<scalar> 
5000
(
8.634e-14
8.634e-14
8.634e-14
8.634e-14
8.634e-14
8.634e-14
8.634e-14
8.634e-14
8.634e-14
8.634e-14
8.634e-14
8.634e-14
8.634e-14
8.634e-14
8.634e-14
8.634e-14
8.634e-14
8.634e-14
8.634e-14
8.634e-14
8.634e-14
8.634e-14
8.634e-14
8.634e-14
8.634e-14
8.634e-14
8.634e-14
8.634e-14
8.634e-14
8.634e-14
8.634e-14
8.634e-14
8.634e-14
8.634e-14
8.634e-14
8.634e-14
8.634e-14
8.634e-14
8.634e-14
8.634e-14
8.634e-14
8.634e-14
8.634e-14
8.634e-14
8.634e-14
8.634e-14
8.634e-14
8.634e-14
8.634e-14
8.634e-14
8.634e-14
8.634e-14
8.634e-14
8.634e-14
8.634e-14
8.634e-14
8.634e-14
8.634e-14
8.634e-14
8.634e-14
8.634e-14
8.634e-14
8.634e-14
8.634e-14
8.634e-14
8.634e-14
8.634e-14
8.634e-14
8.634e-14
8.634e-14
8.634e-14
8.634e-14
8.634e-14
8.634000001e-14
8.634000002e-14
8.634000006e-14
8.634000014e-14
8.634000032e-14
8.634000067e-14
8.634000136e-14
8.634000275e-14
8.63400055e-14
8.634001087e-14
8.634002124e-14
8.634004101e-14
8.634007821e-14
8.634014733e-14
8.634027423e-14
8.634050417e-14
8.634091499e-14
8.63416385e-14
8.634289371e-14
8.634503784e-14
8.634864188e-14
8.635459925e-14
8.636427608e-14
8.637971041e-14
8.640386201e-14
8.644090463e-14
8.649653546e-14
8.657825268e-14
8.669552263e-14
8.685972643e-14
8.708374489e-14
8.738099952e-14
8.776365376e-14
8.823918408e-14
8.880524046e-14
8.945278087e-14
9.017438316e-14
9.096491665e-14
9.181978081e-14
9.273434648e-14
9.370403985e-14
9.472451963e-14
9.579181566e-14
9.690240718e-14
9.805324669e-14
9.924174482e-14
1.004657316e-13
1.017234065e-13
1.03013285e-13
1.043341479e-13
1.056849944e-13
1.070650016e-13
1.084734888e-13
1.099098869e-13
1.113737118e-13
1.128645413e-13
1.143819935e-13
1.159257067e-13
1.174953199e-13
1.190904513e-13
1.20710642e-13
1.223552434e-13
1.240233758e-13
1.25713957e-13
1.274259689e-13
1.291582396e-13
1.309091979e-13
1.326768669e-13
1.344587753e-13
1.362518137e-13
1.380520645e-13
1.398545792e-13
1.416530887e-13
1.434396548e-13
1.452043974e-13
1.469352084e-13
1.486163031e-13
1.50228919e-13
1.51752708e-13
1.531715781e-13
1.544631834e-13
1.562274175e-13
1.587536981e-13
1.618252863e-13
1.652385746e-13
1.687765997e-13
1.721247945e-13
1.75476089e-13
1.78603781e-13
1.818038007e-13
1.847852842e-13
1.879263043e-13
1.909215755e-13
1.940818382e-13
1.971031287e-13
2.002993183e-13
2.034090497e-13
2.066874261e-13
2.09896076e-13
2.132562004e-13
2.165440465e-13
2.199979256e-13
2.234028135e-13
2.269629059e-13
2.304757816e-13
2.341417144e-13
2.377619343e-13
2.415452546e-13
2.452974013e-13
2.492050635e-13
2.530789502e-13
2.571121344e-13
2.611131961e-13
2.652812893e-13
2.694249809e-13
2.737325393e-13
2.7801415e-13
2.824649398e-13
2.868939714e-13
2.914969356e-13
2.960852217e-13
3.008452095e-13
3.0559445e-13
3.105193708e-13
3.154392555e-13
3.205396726e-13
3.256392436e-13
3.309228872e-13
3.362082537e-13
3.416841205e-13
3.4716575e-13
3.528454466e-13
3.585359233e-13
3.644301399e-13
3.703374071e-13
3.764570612e-13
3.825853685e-13
3.888576648e-13
3.951124724e-13
4.015040423e-13
4.079066818e-13
4.143679441e-13
4.207813689e-13
4.271107602e-13
4.332246863e-13
4.389360623e-13
4.439598703e-13
4.480689872e-13
4.510887069e-13
4.529028633e-13
4.537442339e-13
4.539632707e-13
4.539471846e-13
4.539090977e-13
4.538323852e-13
4.537566497e-13
4.537566532e-13
4.538084381e-13
4.539479146e-13
4.541919217e-13
4.545553296e-13
4.550416594e-13
4.556341131e-13
4.56287345e-13
4.568576731e-13
4.571770188e-13
4.573883995e-13
4.575892527e-13
4.577941634e-13
4.579929307e-13
4.581650512e-13
4.583176928e-13
4.584612895e-13
4.586004033e-13
4.587353729e-13
4.588643974e-13
4.589862507e-13
4.591010178e-13
4.592085614e-13
4.593125192e-13
4.594135645e-13
4.595113989e-13
4.59605958e-13
4.596971908e-13
4.597839654e-13
4.598673404e-13
4.599478593e-13
4.600248302e-13
4.600984533e-13
4.601689038e-13
4.602367958e-13
4.603028607e-13
4.603668802e-13
4.604287983e-13
4.604884163e-13
4.605459078e-13
4.606015673e-13
4.606554707e-13
4.607077165e-13
4.607590545e-13
4.608096116e-13
4.608591847e-13
4.609070824e-13
4.609524376e-13
4.609968928e-13
4.610388642e-13
4.610788169e-13
4.611196061e-13
4.611575793e-13
4.611981889e-13
4.612377119e-13
4.612769346e-13
4.613154727e-13
4.613533753e-13
4.613896335e-13
4.614238015e-13
4.614578015e-13
4.614911983e-13
4.615242593e-13
4.615558405e-13
4.615877282e-13
4.616200199e-13
4.616522857e-13
4.61683101e-13
4.617138968e-13
4.617452994e-13
4.617767739e-13
4.618068575e-13
4.61837265e-13
4.6186835e-13
4.618989573e-13
4.619286181e-13
4.619593397e-13
4.619900657e-13
4.620208488e-13
4.62052364e-13
4.620833033e-13
4.621149318e-13
4.62147392e-13
4.621803313e-13
4.622133571e-13
4.622483335e-13
4.622851459e-13
4.623232665e-13
4.623649662e-13
4.624094558e-13
4.624596994e-13
4.625175166e-13
4.625869476e-13
4.626759573e-13
4.627962078e-13
4.629682735e-13
4.632237527e-13
4.636121142e-13
4.642073515e-13
4.651169533e-13
4.664920416e-13
4.685378463e-13
4.715227959e-13
4.757822902e-13
4.817168559e-13
4.897763866e-13
5.004204328e-13
5.140875431e-13
5.308792275e-13
5.512651475e-13
5.750884918e-13
6.008295277e-13
6.288595003e-13
6.56902281e-13
6.835941273e-13
7.115725031e-13
7.332017389e-13
7.547278512e-13
7.638398365e-13
7.725134295e-13
7.772026187e-13
7.800193359e-13
7.817530696e-13
7.828828696e-13
7.836252945e-13
7.840928275e-13
7.843489409e-13
7.844651481e-13
7.845022258e-13
7.845149605e-13
7.845256264e-13
7.845342387e-13
7.845357874e-13
7.845269916e-13
7.845094447e-13
7.844902783e-13
7.844791403e-13
7.844701332e-13
7.844640683e-13
7.844571085e-13
7.844479878e-13
7.844385311e-13
7.844289548e-13
7.844199647e-13
7.844123626e-13
7.84405507e-13
7.843988079e-13
7.843919834e-13
7.843847825e-13
7.843771045e-13
7.843691305e-13
7.843613627e-13
7.843537172e-13
7.843460293e-13
7.843382276e-13
7.843302362e-13
7.843220063e-13
7.8431356e-13
7.843049892e-13
7.842964394e-13
7.842878893e-13
7.842793104e-13
7.842706819e-13
7.84261993e-13
7.842532337e-13
7.842444327e-13
7.84235677e-13
7.842269788e-13
7.842183235e-13
7.842097011e-13
7.842011203e-13
7.841925926e-13
7.841841305e-13
7.841757377e-13
7.841674116e-13
7.841591701e-13
7.84151019e-13
7.841429409e-13
7.841349437e-13
7.84127033e-13
7.841192086e-13
7.841114792e-13
7.841038217e-13
7.840962389e-13
7.840887373e-13
7.840813168e-13
7.840739765e-13
7.840666954e-13
7.840594583e-13
7.840522711e-13
7.840451393e-13
7.840380721e-13
7.840310818e-13
7.840241647e-13
7.840173084e-13
7.840105066e-13
7.840037529e-13
7.839970452e-13
7.83990379e-13
7.839837468e-13
7.839771392e-13
7.839705581e-13
7.839640097e-13
7.839574808e-13
7.839509585e-13
7.839444309e-13
7.839378967e-13
7.839313843e-13
7.839249084e-13
7.839184705e-13
7.839120591e-13
7.839056727e-13
7.838993076e-13
7.838929622e-13
7.83886639e-13
7.83880339e-13
7.838740591e-13
7.838677927e-13
7.83861532e-13
7.838552707e-13
7.838490042e-13
7.838427278e-13
7.838364375e-13
7.838301257e-13
7.83823798e-13
7.838174541e-13
7.838110957e-13
7.838047257e-13
7.837983493e-13
7.837919719e-13
7.837855992e-13
7.837792356e-13
7.83772884e-13
7.837665504e-13
7.83760235e-13
7.837539162e-13
7.837475881e-13
7.8374125e-13
7.837348959e-13
7.837285246e-13
7.837221298e-13
7.837157082e-13
7.837092538e-13
7.837027628e-13
7.836962306e-13
7.836896541e-13
7.836830325e-13
7.836763668e-13
7.836696624e-13
7.836629242e-13
7.836561597e-13
7.836493706e-13
7.836425496e-13
7.836356958e-13
7.836288093e-13
7.836218881e-13
7.836149305e-13
7.83607933e-13
7.836008922e-13
7.835938063e-13
7.835866745e-13
7.835794984e-13
7.835722799e-13
7.835650201e-13
7.835577184e-13
7.835503734e-13
7.835429831e-13
7.835355451e-13
7.835280606e-13
7.835205335e-13
7.835129691e-13
7.835053633e-13
7.834977138e-13
7.834900249e-13
7.834822983e-13
7.834745331e-13
7.834667275e-13
7.834588784e-13
7.834509865e-13
7.834430545e-13
7.834350878e-13
7.834270927e-13
7.83419076e-13
7.834110431e-13
7.834029977e-13
7.833949404e-13
7.833868696e-13
7.833787837e-13
7.833706821e-13
7.833625652e-13
7.833544249e-13
7.8334626e-13
7.83338081e-13
7.833298964e-13
7.833217063e-13
7.833135059e-13
7.833052876e-13
7.832970458e-13
7.832887761e-13
7.83280479e-13
7.8327216e-13
7.832638236e-13
7.832554769e-13
7.83247124e-13
7.832387637e-13
7.832303799e-13
7.832219665e-13
7.832135245e-13
7.832050551e-13
7.831965631e-13
7.831880612e-13
7.831795612e-13
7.831710739e-13
7.831626059e-13
7.831541558e-13
7.831457126e-13
7.831372598e-13
7.83128777e-13
7.831202413e-13
7.831116392e-13
7.831029718e-13
7.830942511e-13
7.83085494e-13
7.830767201e-13
7.83067942e-13
7.830591614e-13
7.830503751e-13
7.830415771e-13
7.830327619e-13
7.830239226e-13
7.830150556e-13
7.830061604e-13
7.829972408e-13
7.829883039e-13
7.829793545e-13
7.829703885e-13
7.829613935e-13
7.82952355e-13
7.829432579e-13
7.829340919e-13
7.829248586e-13
7.829155709e-13
7.829062431e-13
7.828968852e-13
7.828875036e-13
7.828781034e-13
7.828686873e-13
7.828592504e-13
7.828497823e-13
7.828402711e-13
7.828307103e-13
7.82821104e-13
7.828114611e-13
7.828017847e-13
7.827920874e-13
7.827823762e-13
7.827726505e-13
7.827629026e-13
7.827531121e-13
7.827432721e-13
7.827334032e-13
7.827235171e-13
7.827136269e-13
7.827037464e-13
7.826938908e-13
7.826840719e-13
7.826742899e-13
7.826645324e-13
7.82654742e-13
7.826449061e-13
7.826350313e-13
7.826251284e-13
7.826152041e-13
7.826052785e-13
7.825953313e-13
7.825853832e-13
7.825754529e-13
7.825655429e-13
7.825556272e-13
7.825456977e-13
7.825357548e-13
7.825258071e-13
7.825158623e-13
7.825059289e-13
7.824960379e-13
7.824862161e-13
7.824764554e-13
7.824667325e-13
7.824570078e-13
7.824472243e-13
7.824373592e-13
7.824274053e-13
7.82417373e-13
7.824072597e-13
7.823971025e-13
7.823869483e-13
7.823768254e-13
7.823667192e-13
7.823565995e-13
7.82346432e-13
7.82336175e-13
7.823257987e-13
7.823152956e-13
7.823046791e-13
7.822939832e-13
7.822832509e-13
7.822725103e-13
7.822617562e-13
7.822509503e-13
7.822400376e-13
7.822289656e-13
7.822177006e-13
7.822062374e-13
7.821946079e-13
7.82182876e-13
7.821711099e-13
7.821593557e-13
7.82147614e-13
7.821358574e-13
7.821240408e-13
7.821120945e-13
7.820999476e-13
7.820875638e-13
7.820749706e-13
7.820622389e-13
7.820494311e-13
7.820365835e-13
7.820237268e-13
7.820108659e-13
7.819979679e-13
7.819849664e-13
7.819717706e-13
7.819583842e-13
7.819448524e-13
7.819312347e-13
7.819175947e-13
7.819040136e-13
7.818905495e-13
7.818772019e-13
7.818639099e-13
7.818505267e-13
7.818369281e-13
7.81823118e-13
7.818091355e-13
7.817950325e-13
7.817808579e-13
7.81766697e-13
7.817526424e-13
7.817387423e-13
7.817249672e-13
7.81711228e-13
7.816973543e-13
7.81683253e-13
7.816689424e-13
7.816544759e-13
7.816398945e-13
7.816252791e-13
7.816107217e-13
7.815962852e-13
7.815819447e-13
7.815676101e-13
7.815530759e-13
7.815382381e-13
7.815231277e-13
7.81507816e-13
7.814923588e-13
7.814768644e-13
7.814614629e-13
7.81446264e-13
7.814312827e-13
7.814164321e-13
7.81401559e-13
7.813863742e-13
7.813708255e-13
7.813549742e-13
7.813389116e-13
7.813226962e-13
7.813064276e-13
7.812902319e-13
7.812742155e-13
7.812583809e-13
7.812426414e-13
7.812267356e-13
7.812104825e-13
7.811939103e-13
7.811771022e-13
7.811601156e-13
7.811430359e-13
7.811260231e-13
7.811092429e-13
7.810927508e-13
7.810764793e-13
7.810600995e-13
7.810433219e-13
7.81026121e-13
7.81008554e-13
7.80990731e-13
7.809727277e-13
7.809547355e-13
7.809370034e-13
7.809196981e-13
7.809028382e-13
7.808862524e-13
7.808694396e-13
7.808521382e-13
7.80834322e-13
7.808160862e-13
7.807975821e-13
7.807789343e-13
7.807603913e-13
7.807422022e-13
7.807244743e-13
7.807070958e-13
7.806896822e-13
7.806716992e-13
7.80653082e-13
7.806339222e-13
7.806144068e-13
7.805946602e-13
7.805749469e-13
7.805555806e-13
7.805367554e-13
7.805184114e-13
7.805002608e-13
7.804815729e-13
7.804620546e-13
7.804417499e-13
7.804208547e-13
7.803995641e-13
7.803780652e-13
7.803567193e-13
7.803359031e-13
7.803157722e-13
7.80296204e-13
7.802767156e-13
7.802564389e-13
7.802352356e-13
7.802132009e-13
7.801905882e-13
7.801675989e-13
7.801445637e-13
7.801219322e-13
7.801000655e-13
7.800790116e-13
7.800584264e-13
7.800372438e-13
7.800149668e-13
7.799916133e-13
7.799674538e-13
7.799428563e-13
7.799180969e-13
7.79893684e-13
7.79870176e-13
7.798477996e-13
7.798262721e-13
7.798047188e-13
7.797819011e-13
7.797576503e-13
7.797321253e-13
7.797057287e-13
7.796787654e-13
7.796516632e-13
7.796251476e-13
7.795997929e-13
7.795756132e-13
7.795520805e-13
7.795280362e-13
7.795022372e-13
7.794746451e-13
7.794455643e-13
7.794153525e-13
7.793844536e-13
7.793536844e-13
7.793238573e-13
7.792953351e-13
7.792677937e-13
7.792403183e-13
7.792110355e-13
7.791794214e-13
7.791457381e-13
7.791105439e-13
7.79074302e-13
7.7903788e-13
7.790022503e-13
7.78968191e-13
7.78935782e-13
7.789043837e-13
7.788721103e-13
7.788373421e-13
7.788000813e-13
7.787607196e-13
7.787200417e-13
7.786786825e-13
7.786376689e-13
7.785981578e-13
7.785609364e-13
7.785260074e-13
7.784922502e-13
7.784567911e-13
7.784186261e-13
7.783777161e-13
7.783349123e-13
7.782912902e-13
7.782476237e-13
7.782050656e-13
7.781649266e-13
7.781277563e-13
7.780930522e-13
7.780580884e-13
7.780200282e-13
7.779786077e-13
7.77934479e-13
7.778887539e-13
7.778424287e-13
7.777962061e-13
7.777520131e-13
7.77711225e-13
7.776741247e-13
7.776393135e-13
7.776021284e-13
7.775606317e-13
7.775149455e-13
7.774661502e-13
7.774154871e-13
7.773635401e-13
7.773125974e-13
7.772648978e-13
7.772218296e-13
7.771829171e-13
7.771448789e-13
7.771024695e-13
7.77054902e-13
7.770032129e-13
7.769482772e-13
7.768912816e-13
7.768340879e-13
7.767794465e-13
7.76729408e-13
7.76684458e-13
7.766428942e-13
7.765998819e-13
7.765517441e-13
7.764989736e-13
7.764405596e-13
7.763785583e-13
7.763153593e-13
7.762537566e-13
7.761965696e-13
7.761459133e-13
7.761014843e-13
7.760602121e-13
7.760146886e-13
7.759635402e-13
7.759035793e-13
7.75837715e-13
7.757687701e-13
7.756996768e-13
7.756324442e-13
7.755709027e-13
7.755190617e-13
7.754764594e-13
7.754337331e-13
7.75381668e-13
7.753195777e-13
7.752471243e-13
7.751727428e-13
7.750950813e-13
7.750180957e-13
7.749398497e-13
7.7487149e-13
7.748158621e-13
7.747671207e-13
7.747086144e-13
7.746399315e-13
7.745559287e-13
7.744610406e-13
7.743218322e-13
7.741045827e-13
7.73959343e-13
7.740644249e-13
7.757532032e-13
7.850925829e-13
8.234357258e-13
9.592935638e-13
1.434547802e-12
3.610107879e-12
1.399605672e-11
6.346793349e-11
3.144527918e-10
1.621650542e-09
8.502799364e-09
4.474326494e-08
2.338120523e-07
1.194858826e-06
5.797708069e-06
2.523900656e-05
8.993505908e-05
0.0002371449236
0.0004449709538
0.0006306753965
0.0007491002262
0.0008109363964
0.0008400862542
0.0008531921026
0.0008589524161
0.0008614690118
0.0008625536822
0.0008630316911
0.0008632329176
0.0008633242935
0.0008633604373
0.0008633784466
0.0008633846003
0.0008633878598
0.0008633906727
0.0008633915264
0.0008633901451
0.000863393409
0.0008633907852
0.0008633916342
0.0008633915272
0.0008633911904
0.0008633928702
0.0008633907166
0.0008633929232
0.0008633908166
0.000863393246
0.0008633907338
0.000863392791
0.0008633901753
0.0008633931482
0.0008633905278
0.0008633940537
0.0008633901999
0.0008633945822
0.0008633903147
0.0008633945088
0.0008633912435
0.0008633943094
0.0008633911931
0.0008633944987
0.0008633915925
0.0008633948312
0.000863391498
0.0008633938173
0.0008633902599
0.0008633933152
0.0008633906579
0.0008633941391
0.000863391162
0.0008633940696
0.000863390325
0.0008633946704
0.0008633895861
0.0008633951142
0.0008633889347
0.0008633957514
0.0008633886946
0.0008633959962
0.0008633882169
0.00086339599
0.0008633875684
0.0008633970224
0.0008633871548
0.0008633960465
0.0008633858973
0.0008633972038
0.000863384797
0.0008633979433
0.0008633833514
0.0008633974526
0.0008633806711
0.0008634005186
0.0008633795709
0.0008634009334
0.0008633805848
0.0008634003737
0.0008633782504
0.0008634018336
0.0008633786898
0.0008634023323
0.0008633770527
0.0008634028452
0.0008633767956
0.0008634036625
0.000863375886
0.00086340405
0.0008633728739
0.0008634032664
0.0008633730231
0.000863402864
0.0008633736015
0.0008634029766
0.000863373728
0.0008634043817
0.0008633743062
0.0008634050693
0.0008633733475
0.0008634051995
0.0008633722135
0.00086340411
0.0008633707256
0.0008634029441
0.0008633697468
0.0008634021013
0.0008633684119
0.0008634007999
0.0008633682978
0.0008634000184
0.0008633691438
0.000863399363
0.000863368188
0.0008633997325
0.0008633689832
0.0008634002766
0.0008633703875
0.0008634003122
0.0008633693386
0.0008633987165
0.0008633669132
0.0008633987636
0.0008633676931
0.0008633972239
0.0008633689591
0.0008633962402
0.0008633696423
0.0008633975365
0.0008633705799
0.0008633986582
0.0008633719064
0.000863396202
0.0008633728672
0.0008633939933
0.0008633739913
0.0008633932692
0.0008633739942
0.0008633933636
0.0008633734501
0.00086339156
0.0008633721341
0.0008633920895
0.0008633720217
0.0008633927772
0.0008633748435
0.000863392766
0.0008633769383
0.0008633939147
0.0008633768977
0.0008633935554
0.0008633774382
0.0008633946377
0.0008633764597
0.0008633941975
0.0008633764835
0.000863394687
0.000863377687
0.000863394984
0.0008633763292
0.0008633951685
0.0008633762253
0.0008633959168
0.0008633748206
0.0008633966669
0.0008633719801
0.0008633975565
0.0008633723658
0.0008633983206
0.0008633692454
0.0008633983621
0.0008633684177
0.0008633984307
0.0008633702214
0.0008633969341
0.0008633690721
0.0008633956705
0.0008633696334
0.000863394828
0.0008633693218
0.0008633956078
0.0008633716771
0.0008633950322
0.0008633714027
0.0008633967867
0.0008633702711
0.0008633971007
0.0008633706885
0.0008633977402
0.0008633704327
0.0008633958047
0.000863373227
0.0008633942751
0.0008633749578
0.000863392126
0.000863377268
0.000863389109
0.0008633803352
0.0008633830096
0.0008633853408
0.0008633788842
0.0008633889457
0.0008633758971
0.000863392403
0.0008633734637
0.000863394396
0.0008633716023
0.0008633985618
0.0008633724919
0.0008633994714
0.0008633718431
0.0008634003708
0.0008633708973
0.0008633993884
0.0008633707036
0.0008633980164
0.0008633710585
0.0008633982021
0.0008633723997
0.0008633983251
0.0008633729972
0.0008633982838
0.000863372304
0.0008633990963
0.0008633692302
0.0008633988566
0.0008633689487
0.0008633991056
0.000863369416
0.0008633996519
0.0008633687157
0.0008633998499
0.0008633696783
0.0008633990782
0.0008633699408
0.0008633981002
0.0008633708613
0.0008633976375
0.0008633712568
0.0008633970057
0.0008633711393
0.0008633969927
0.0008633728521
0.0008633985588
0.0008633722989
0.0008633991758
0.0008633717842
0.0008634002016
0.0008633733337
0.0008634020613
0.000863373114
0.0008634015623
0.0008633711214
0.0008634011317
0.0008633706174
0.0008634027616
0.0008633678664
0.0008634034932
0.0008633689883
0.0008634022377
0.000863371179
0.0008634014924
0.0008633709036
0.0008633999982
0.0008633707165
0.0008634004205
0.0008633700792
0.0008633985194
0.0008633701607
0.0008633993439
0.0008633691057
0.0008633980339
0.00086337158
0.0008633981821
0.0008633719086
0.0008633988293
0.0008633710416
0.0008633983073
0.0008633705206
0.0008633984992
0.0008633712873
0.0008633974872
0.0008633736137
0.0008633970142
0.0008633712115
0.0008633979928
0.0008633710392
0.0008633990673
0.0008633715308
0.0008633978289
0.0008633718264
0.0008633969905
0.0008633721347
0.0008633964134
0.0008633715799
0.0008633971867
0.0008633710153
0.0008633956058
0.0008633730039
0.0008633941977
0.0008633722036
0.0008633942376
0.0008633748618
0.0008633938954
0.0008633731864
0.0008633929821
0.0008633724119
0.0008633917653
0.0008633727733
0.0008633892402
0.0008633744992
0.0008633897774
0.0008633747365
0.000863389193
0.0008633750276
0.0008633877017
0.0008633767805
0.0008633861001
0.0008633808017
0.0008633838599
0.0008633834681
0.0008633804241
0.0008633870183
0.0008633796902
0.0008633892815
0.0008633786829
0.0008633917575
0.0008633776877
0.0008633918598
0.0008633765108
0.0008633909291
0.0008633756344
0.0008633914316
0.0008633743474
0.0008633930231
0.0008633714584
0.0008633946009
0.0008633736846
0.0008633957885
0.0008633739336
0.0008633961534
0.0008633735398
0.0008633982606
0.0008633715399
0.0008633984487
0.0008633726284
0.000863398917
0.0008633720962
0.0008633998156
0.0008633729914
0.0008633997223
0.000863373161
0.0008633995431
0.0008633748725
0.0008634009561
0.0008633749483
0.0008634003316
0.0008633744531
0.0008633999497
0.0008633756085
0.0008633979359
0.0008633742503
0.000863396003
0.000863373522
0.0008633953717
0.0008633732017
0.0008633963263
0.0008633727134
0.0008633979231
0.0008633733644
0.0008633991906
0.0008633753781
0.0008634007409
0.000863376533
0.0008634018514
0.0008633760188
0.0008634021636
0.0008633757018
0.0008634018814
0.0008633754221
0.0008634015351
0.0008633750172
0.0008634020086
0.0008633772659
0.0008634015797
0.0008633776341
0.0008634015242
0.0008633774257
0.000863401981
0.0008633772368
0.0008634027531
0.0008633757613
0.0008634021613
0.0008633724911
0.000863403442
0.0008633718494
0.0008634023378
0.0008633720909
0.0008634022806
0.0008633715079
0.0008634020283
0.0008633702239
0.0008634023943
0.0008633690772
0.0008634024988
0.0008633709425
0.0008634014807
0.0008633733307
0.0008633997645
0.0008633730762
0.0008634001498
0.0008633717601
0.0008634003636
0.0008633745726
0.0008634002326
0.0008633747153
0.0008633993499
0.0008633745611
0.0008634004437
0.0008633742574
0.0008634014488
0.0008633741406
0.0008634031806
0.000863373339
0.00086340348
0.0008633759751
0.0008634022082
0.0008633742913
0.0008634013339
0.0008633758095
0.0008634009133
0.0008633757854
0.000863399107
0.0008633761155
0.0008633982888
0.0008633770317
0.0008633983082
0.0008633770082
0.0008633978473
0.0008633781423
0.0008633963852
0.0008633782683
0.0008633942146
0.0008633791508
0.0008633937115
0.0008633806401
0.0008633894997
0.0008633830272
0.0008633861131
0.0008633851402
0.0008633850435
0.0008633870931
0.000863383862
0.0008633866697
0.0008633816578
0.000863388429
0.0008633796422
0.0008633885373
0.0008633786129
0.0008633895588
0.0008633771074
0.0008633904765
0.0008633774115
0.0008633907282
0.0008633755014
0.0008633919668
0.0008633729612
0.0008633934442
0.0008633747142
0.0008633932904
0.0008633740992
0.0008633927028
0.0008633740569
0.0008633921773
0.0008633734697
0.0008633925379
0.0008633721315
0.0008633938841
0.0008633722852
0.0008633934688
0.0008633711578
0.0008633937535
0.0008633730146
0.0008633939788
0.0008633749282
0.0008633946362
0.000863374689
0.0008633933228
0.0008633740762
0.0008633940899
0.0008633735261
0.0008633948227
0.0008633752847
0.0008633943782
0.0008633756632
0.0008633942604
0.0008633756844
0.0008633946178
0.0008633751219
0.0008633955731
0.0008633726406
0.0008633972826
0.0008633746472
0.0008633970969
0.0008633742593
0.0008633971716
0.0008633743611
0.0008633966224
0.0008633746099
0.0008633949126
0.0008633745574
0.0008633959307
0.0008633737342
0.0008633973335
0.0008633747234
0.0008633982702
0.0008633732633
0.0008633970729
0.0008633739749
0.0008633985668
0.000863374917
0.0008633969924
0.0008633739258
0.0008633981978
0.0008633741165
0.0008633984032
0.0008633733713
0.00086339579
0.0008633761747
0.0008633950426
0.00086337618
0.000863394531
0.0008633777794
0.0008633942362
0.0008633780381
0.0008633948584
0.000863378409
0.0008633941539
0.0008633788972
0.0008633941562
0.0008633782363
0.0008633934522
0.0008633784072
0.0008633930079
0.0008633773498
0.0008633926957
0.0008633783126
0.0008633948976
0.0008633786497
0.0008633950743
0.0008633764303
0.0008633950206
0.0008633741993
0.0008633946873
0.0008633754804
0.0008633941532
0.0008633769179
0.0008633943904
0.0008633773084
0.0008633943376
0.0008633777904
0.0008633951409
0.0008633782054
0.0008633941242
0.0008633810655
0.0008633938577
0.0008633811896
0.0008633943789
0.000863382148
0.0008633920332
0.000863383331
0.0008633909323
0.0008633858468
0.0008633878087
0.0008633899859
0.0008633832828
0.0008633943521
0.0008633807236
0.0008633976346
0.0008633780274
0.0008633989147
0.0008633744282
0.0008633996663
0.0008633734766
0.0008633993617
0.0008633732776
0.0008633989572
0.0008633734606
0.0008634008802
0.0008633725452
0.0008634011653
0.0008633709418
0.0008634016593
0.0008633722564
0.0008634014498
0.000863374291
0.0008634020445
0.0008633741368
0.000863401585
0.0008633755342
0.0008634004532
0.000863374957
0.0008634007495
0.0008633743415
0.0008634023014
0.0008633751248
0.0008634014614
0.0008633751749
0.0008634022102
0.0008633744872
0.0008634020389
0.0008633738492
0.0008634010542
0.0008633723725
0.000863401497
0.0008633725426
0.0008634012493
0.0008633729386
0.0008634015491
0.0008633728563
0.0008634010942
0.0008633730757
0.0008634026675
0.0008633713401
0.0008634031962
0.0008633710421
0.0008634018387
0.0008633711038
0.0008634012139
0.000863371397
0.0008634022518
0.0008633738926
0.0008634020577
0.0008633722732
0.0008634013842
0.0008633712539
0.0008634021872
0.0008633698706
0.0008634025621
0.0008633695485
0.0008634016247
0.0008633711595
0.0008634001148
0.0008633717641
0.0008633986022
0.0008633704109
0.0008633981447
0.000863372817
0.0008633972391
0.0008633732932
0.0008633957169
0.0008633713533
0.000863395811
0.0008633712357
0.0008633950748
0.0008633715789
0.0008633957807
0.000863369896
0.0008633975125
0.000863370555
0.0008633971025
0.0008633703191
0.000863396958
0.0008633718444
0.0008633954329
0.0008633721111
0.0008633940079
0.0008633732395
0.0008633930379
0.0008633729904
0.0008633921642
0.0008633712244
0.0008633939944
0.0008633732488
0.0008633926208
0.0008633769855
0.0008633928037
0.0008633766548
0.0008633925802
0.0008633790327
0.0008633953448
0.000863377711
0.0008633944856
0.0008633793004
0.0008633942268
0.0008633780903
0.0008633941909
0.0008633765643
0.0008633929613
0.0008633776256
0.0008633911418
0.0008633777893
0.0008633904624
0.0008633771706
0.0008633893047
0.0008633793844
0.0008633875945
0.0008633826625
0.0008633834865
0.0008633869988
0.0008633772285
0.0008633907342
0.0008633765856
0.0008633923292
0.0008633763756
0.0008633925192
0.0008633770899
0.0008633927529
0.0008633773828
0.0008633923214
0.0008633776933
0.0008633936218
0.0008633775711
0.0008633923802
0.0008633771038
0.0008633928693
0.0008633750303
0.000863391546
0.0008633741128
0.000863390969
0.0008633777428
0.0008633908261
0.0008633765534
0.0008633902791
0.0008633762355
0.0008633907803
0.0008633776045
0.00086339097
0.0008633774597
0.0008633914591
0.0008633759674
0.0008633886937
0.000863375124
0.0008633917153
0.0008633746921
0.0008633935762
0.0008633760402
0.0008633946614
0.0008633738148
0.0008633948405
0.0008633756794
0.0008633926398
0.000863376222
0.0008633938829
0.0008633756735
0.0008633931545
0.000863376551
0.0008633955812
0.0008633776537
0.0008633955717
0.0008633750324
0.0008633961995
0.0008633737069
0.0008633946106
0.0008633751772
0.0008633935138
0.0008633787808
0.0008633896689
0.0008633805448
0.0008633899558
0.0008633805983
0.0008633874254
0.000863379814
0.00086338692
0.0008633792641
0.0008633864461
0.0008633779079
0.0008633868095
0.000863377031
0.0008633881558
0.0008633754008
0.000863390426
0.0008633742695
0.0008633892619
0.0008633750954
0.0008633912204
0.000863373661
0.0008633925036
0.0008633728055
0.0008633940292
0.0008633704155
0.0008633961003
0.0008633685291
0.0008633975082
0.0008633682336
0.0008633981363
0.0008633684252
0.000863397424
0.0008633673931
0.0008633968508
0.0008633682975
0.0008633971616
0.0008633680116
0.0008633975278
0.0008633678608
0.0008633971637
0.0008633688076
0.0008633968999
0.0008633705552
0.0008633962392
0.0008633703174
0.0008633954129
0.0008633713427
0.000863393894
0.0008633722384
0.0008633911916
0.0008633766514
0.0008633881214
0.0008633796428
0.0008633877562
0.0008633809512
0.000863384556
0.0008633820595
0.000863382728
0.0008633813888
0.000863383726
0.0008633815097
0.0008633848118
0.0008633824768
0.00086338138
0.000863384173
0.0008633801354
0.000863386086
0.0008633798456
0.0008633878759
0.000863375844
0.0008633884526
0.0008633758924
0.0008633893451
0.000863374994
0.0008633904842
0.0008633751404
0.0008633910582
0.0008633745601
0.0008633908393
0.0008633742375
0.0008633924594
0.0008633740381
0.0008633935507
0.0008633727643
0.0008633946884
0.0008633721064
0.0008633954731
0.0008633693849
0.0008633963988
0.000863369613
0.0008633968855
0.000863367966
0.0008633981966
0.0008633661589
0.0008633987269
0.0008633665005
0.000863397907
0.0008633684172
0.000863397737
0.0008633680332
0.0008633978424
0.0008633670229
0.0008633980877
0.0008633672346
0.0008633969401
0.0008633690172
0.0008633965044
0.0008633681683
0.0008633951468
0.0008633708752
0.0008633951351
0.0008633714354
0.0008633949083
0.000863372496
0.0008633956469
0.0008633729659
0.0008633955346
0.0008633715038
0.0008633953981
0.0008633717108
0.0008633937153
0.0008633716229
0.0008633920742
0.0008633723568
0.0008633910094
0.0008633722096
0.0008633888103
0.0008633716593
0.0008633882336
0.0008633717111
0.0008633897123
0.0008633710793
0.0008633903618
0.0008633698822
0.0008633924136
0.0008633666845
0.0008633933863
0.0008633646167
0.0008633941538
0.0008633663113
0.0008633940662
0.0008633661051
0.0008633942579
0.0008633672876
0.0008633925655
0.0008633673291
0.0008633925569
0.0008633666361
0.0008633924774
0.0008633679263
0.0008633936074
0.0008633670173
0.0008633936134
0.0008633699757
0.0008633919082
0.0008633706151
0.0008633921613
0.000863373612
0.0008633913448
0.0008633751688
0.0008633907548
0.0008633762413
0.0008633912849
0.0008633760975
0.0008633911371
0.0008633776532
0.0008633925731
0.0008633766427
0.000863393236
0.0008633763805
0.0008633939045
0.0008633754518
0.0008633941925
0.0008633759912