/*--------------------------------*- C++ -*----------------------------------*\
| =========                 |                                                 |
| \\      /  F ield         | OpenFOAM: The Open Source CFD Toolbox           |
|  \\    /   O peration     | Version:  2312                                  |
|   \\  /    A nd           | Website:  www.openfoam.com                      |
|    \\/     M anipulation  |                                                 |
\*---------------------------------------------------------------------------*/
FoamFile
{
    version     2.0;
    format      ascii;
    arch        "LSB;label=32;scalar=64";
    class       volScalarField;
    location    "0.0008";
    object      thermo:psiLiqEff;
}
// * * * * * * * * * * * * * * * * * * * * * * * * * * * * * * * * * * * * * //

dimensions      [-2 4 2 0 0 0 0];

internalField   nonuniform List<scalar> 
5000
(
2.294871566e-13
2.294871566e-13
2.294871566e-13
2.294871566e-13
2.294871566e-13
2.294871566e-13
2.294871566e-13
2.294871566e-13
2.294871566e-13
2.294871566e-13
2.294871566e-13
2.294871566e-13
2.294871566e-13
2.294871566e-13
2.294871566e-13
2.294871566e-13
2.294871566e-13
2.294871566e-13
2.294871566e-13
2.294871566e-13
2.294871566e-13
2.294871566e-13
2.294871566e-13
2.294871566e-13
2.294871566e-13
2.294871566e-13
2.294871566e-13
2.294871566e-13
2.294871566e-13
2.294871566e-13
2.294871566e-13
2.294871566e-13
2.294871566e-13
2.294871566e-13
2.294871566e-13
2.294871566e-13
2.294871566e-13
2.294871566e-13
2.294871566e-13
2.294871566e-13
2.294871566e-13
2.294871566e-13
2.294871566e-13
2.294871566e-13
2.294871566e-13
2.294871566e-13
2.294871566e-13
2.294871566e-13
2.294871566e-13
2.294871566e-13
2.294871566e-13
2.294871566e-13
2.294871566e-13
2.294871566e-13
2.294871566e-13
2.294871566e-13
2.294871566e-13
2.294871566e-13
2.294871566e-13
2.294871566e-13
2.294871566e-13
2.294871566e-13
2.294871566e-13
2.294871566e-13
2.294871566e-13
2.294871566e-13
2.294871566e-13
2.294871566e-13
2.294871566e-13
2.294871566e-13
2.294871566e-13
2.294871566e-13
2.294871566e-13
2.294871566e-13
2.294871566e-13
2.294871567e-13
2.294871568e-13
2.29487157e-13
2.294871574e-13
2.294871583e-13
2.2948716e-13
2.294871633e-13
2.294871699e-13
2.294871826e-13
2.294872068e-13
2.294872524e-13
2.294873371e-13
2.294874925e-13
2.29487774e-13
2.294882771e-13
2.294891631e-13
2.294907003e-13
2.294933259e-13
2.294977394e-13
2.295050344e-13
2.295168836e-13
2.29535781e-13
2.295653473e-13
2.296106841e-13
2.296787464e-13
2.2977867e-13
2.299219532e-13
2.301223538e-13
2.303953258e-13
2.307567739e-13
2.312207832e-13
2.317954123e-13
2.32476559e-13
2.332519693e-13
2.341113611e-13
2.350472193e-13
2.360526997e-13
2.371209923e-13
2.382454461e-13
2.394197923e-13
2.406383098e-13
2.418959117e-13
2.431881615e-13
2.445112423e-13
2.458618974e-13
2.472373599e-13
2.486352793e-13
2.500536536e-13
2.51490768e-13
2.529451419e-13
2.544154837e-13
2.559006527e-13
2.573996266e-13
2.589114735e-13
2.604353281e-13
2.619703694e-13
2.635158004e-13
2.65070828e-13
2.666346214e-13
2.682061758e-13
2.697843095e-13
2.71367692e-13
2.729551015e-13
2.745452235e-13
2.761364313e-13
2.777267978e-13
2.793140333e-13
2.808953793e-13
2.824674841e-13
2.840262417e-13
2.855665809e-13
2.87082217e-13
2.885654109e-13
2.900069292e-13
2.913948332e-13
2.927151097e-13
2.939528582e-13
2.950969812e-13
2.961338536e-13
2.975585423e-13
2.995347123e-13
3.019153019e-13
3.045189553e-13
3.071738793e-13
3.096596331e-13
3.121021057e-13
3.143579642e-13
3.166251663e-13
3.187217809e-13
3.208853078e-13
3.229420824e-13
3.250639388e-13
3.270887488e-13
3.291808155e-13
3.312147192e-13
3.333103517e-13
3.353571942e-13
3.374538662e-13
3.395000685e-13
3.416037226e-13
3.436713951e-13
3.457882055e-13
3.478693404e-13
3.49996684e-13
3.520891293e-13
3.542317252e-13
3.563476059e-13
3.585071798e-13
3.60638073e-13
3.628128458e-13
3.649596008e-13
3.671522607e-13
3.69320834e-13
3.715313664e-13
3.73716547e-13
3.7594427e-13
3.7814861e-13
3.80395405e-13
3.826222843e-13
3.848876084e-13
3.87134963e-13
3.894202741e-13
3.916895446e-13
3.939968669e-13
3.962894281e-13
3.986192016e-13
4.009347162e-13
4.032879134e-13
4.05627746e-13
4.080061055e-13
4.103723423e-13
4.127768842e-13
4.151695345e-13
4.176017801e-13
4.200170257e-13
4.224538733e-13
4.248474444e-13
4.27264316e-13
4.296512895e-13
4.320321972e-13
4.343644235e-13
4.366487624e-13
4.388140446e-13
4.40802413e-13
4.42566099e-13
4.439846142e-13
4.45002267e-13
4.456286793e-13
4.459171696e-13
4.459872878e-13
4.459792139e-13
4.459634146e-13
4.459388491e-13
4.459147721e-13
4.459164327e-13
4.459338108e-13
4.459803661e-13
4.4606353e-13
4.461874368e-13
4.463516258e-13
4.465494997e-13
4.467647036e-13
4.46956266e-13
4.470637213e-13
4.471344416e-13
4.472013629e-13
4.472691563e-13
4.473343742e-13
4.473916463e-13
4.47443228e-13
4.474916548e-13
4.475376425e-13
4.475812698e-13
4.476224571e-13
4.476617047e-13
4.476995847e-13
4.477357051e-13
4.477697614e-13
4.47801826e-13
4.478326643e-13
4.478627851e-13
4.478923439e-13
4.479205048e-13
4.479470003e-13
4.479721282e-13
4.479962996e-13
4.480198175e-13
4.480428721e-13
4.480647789e-13
4.480852308e-13
4.481044022e-13
4.481228789e-13
4.481406681e-13
4.481580207e-13
4.48174786e-13
4.481911486e-13
4.482068703e-13
4.482220826e-13
4.48236619e-13
4.482507114e-13
4.482641436e-13
4.482769373e-13
4.482895995e-13
4.483017725e-13
4.483136801e-13
4.483256416e-13
4.483359546e-13
4.483464477e-13
4.483560959e-13
4.483653693e-13
4.48374417e-13
4.483833055e-13
4.483917771e-13
4.483999218e-13
4.484083438e-13
4.484170851e-13
4.484248237e-13
4.484313675e-13
4.484378095e-13
4.484440619e-13
4.484499029e-13
4.484550197e-13
4.484598468e-13
4.484645835e-13
4.484690655e-13
4.484729605e-13
4.48476701e-13
4.484802919e-13
4.484833099e-13
4.484856523e-13
4.484877393e-13
4.484893188e-13
4.484904452e-13
4.484912691e-13
4.484915152e-13
4.484914932e-13
4.484911711e-13
4.484902508e-13
4.484884614e-13
4.484859345e-13
4.484822416e-13
4.484768752e-13
4.484698042e-13
4.484601597e-13
4.484475223e-13
4.484303921e-13
4.484064103e-13
4.483716769e-13
4.483192218e-13
4.48237966e-13
4.481100293e-13
4.479080067e-13
4.475909287e-13
4.470995389e-13
4.463511005e-13
4.452345471e-13
4.436074495e-13
4.412967347e-13
4.381064187e-13
4.338352654e-13
4.283038191e-13
4.213973522e-13
4.13082735e-13
4.034949753e-13
3.930031626e-13
3.818143616e-13
3.706099773e-13
3.597989768e-13
3.496745292e-13
3.410298852e-13
3.333128371e-13
3.273574033e-13
3.232699807e-13
3.211657539e-13
3.197903083e-13
3.189175167e-13
3.18368243e-13
3.18032246e-13
3.178315571e-13
3.177135458e-13
3.176434768e-13
3.176019576e-13
3.175780683e-13
3.17566457e-13
3.17562766e-13
3.175632125e-13
3.175651014e-13
3.175668481e-13
3.175678939e-13
3.175686087e-13
3.175697083e-13
3.175704035e-13
3.17571259e-13
3.175723644e-13
3.17573514e-13
3.175742655e-13
3.175746115e-13
3.175748115e-13
3.175750433e-13
3.175752982e-13
3.175755509e-13
3.175757951e-13
3.17576021e-13
3.175762278e-13
3.175764423e-13
3.175767208e-13
3.175770618e-13
3.175774508e-13
3.175778812e-13
3.175783434e-13
3.175788285e-13
3.17579333e-13
3.1757986e-13
3.175804176e-13
3.175809989e-13
3.175815965e-13
3.175822049e-13
3.1758282e-13
3.17583439e-13
3.175840589e-13
3.175846716e-13
3.17585276e-13
3.175858702e-13
3.175864529e-13
3.175870191e-13
3.175875646e-13
3.175880821e-13
3.175885731e-13
3.175890419e-13
3.175894871e-13
3.175899049e-13
3.175902996e-13
3.175906654e-13
3.175909994e-13
3.175913019e-13
3.175915703e-13
3.175918103e-13
3.175920191e-13
3.175921931e-13
3.175923305e-13
3.175924309e-13
3.175924988e-13
3.175925406e-13
3.175925547e-13
3.175925419e-13
3.175925007e-13
3.175924268e-13
3.175923235e-13
3.175921947e-13
3.175920404e-13
3.175918637e-13
3.17591661e-13
3.175914351e-13
3.175911855e-13
3.175909178e-13
3.175906286e-13
3.175903141e-13
3.175899795e-13
3.175896276e-13
3.175892628e-13
3.175888864e-13
3.175884914e-13
3.175880751e-13
3.175876389e-13
3.175871865e-13
3.175867228e-13
3.175862506e-13
3.175857712e-13
3.175852847e-13
3.175847908e-13
3.175842898e-13
3.175837824e-13
3.175832699e-13
3.175827535e-13
3.175822345e-13
3.175817135e-13
3.175811909e-13
3.175806663e-13
3.175801397e-13
3.175796109e-13
3.175790797e-13
3.175785461e-13
3.175780103e-13
3.175774728e-13
3.175769341e-13
3.175763949e-13
3.175758554e-13
3.175753158e-13
3.175747784e-13
3.175742471e-13
3.175737219e-13
3.17573202e-13
3.175726866e-13
3.175721752e-13
3.175716679e-13
3.175711645e-13
3.175706654e-13
3.175701701e-13
3.17569678e-13
3.175691881e-13
3.17568699e-13
3.175682095e-13
3.175677182e-13
3.175672247e-13
3.175667291e-13
3.175662331e-13
3.175657409e-13
3.175652544e-13
3.175647735e-13
3.175642981e-13
3.17563827e-13
3.175633597e-13
3.175628957e-13
3.175624347e-13
3.175619767e-13
3.175615215e-13
3.175610682e-13
3.175606162e-13
3.175601641e-13
3.175597106e-13
3.175592545e-13
3.175587952e-13
3.175583319e-13
3.175578644e-13
3.175573931e-13
3.175569218e-13
3.175564535e-13
3.175559887e-13
3.175555271e-13
3.175550679e-13
3.175546099e-13
3.175541518e-13
3.175536927e-13
3.175532318e-13
3.175527689e-13
3.175523041e-13
3.175518375e-13
3.175513689e-13
3.17550898e-13
3.17550424e-13
3.175499462e-13
3.17549464e-13
3.175489774e-13
3.175484869e-13
3.175479972e-13
3.175475113e-13
3.175470288e-13
3.175465481e-13
3.175460684e-13
3.175455879e-13
3.175451051e-13
3.175446179e-13
3.175441242e-13
3.175436223e-13
3.175431119e-13
3.17542593e-13
3.175420667e-13
3.175415349e-13
3.175409997e-13
3.175404655e-13
3.175399329e-13
3.175393998e-13
3.175388649e-13
3.175383275e-13
3.175377869e-13
3.175372421e-13
3.175366923e-13
3.175361367e-13
3.175355747e-13
3.175350057e-13
3.175344297e-13
3.175338466e-13
3.175332569e-13
3.175326617e-13
3.175320618e-13
3.175314575e-13
3.175308487e-13
3.175302352e-13
3.175296161e-13
3.175289901e-13
3.175283561e-13
3.175277136e-13
3.175270631e-13
3.175264056e-13
3.17525743e-13
3.175250772e-13
3.175244101e-13
3.175237421e-13
3.175230725e-13
3.175223988e-13
3.175217178e-13
3.175210264e-13
3.175203221e-13
3.175196038e-13
3.175188727e-13
3.175181321e-13
3.175173862e-13
3.175166383e-13
3.175158892e-13
3.175151382e-13
3.175143831e-13
3.175136212e-13
3.175128501e-13
3.175120675e-13
3.175112736e-13
3.175104703e-13
3.175096629e-13
3.175088572e-13
3.175080528e-13
3.175072479e-13
3.175064409e-13
3.175056292e-13
3.17504809e-13
3.175039783e-13
3.175031381e-13
3.1750229e-13
3.175014363e-13
3.175005808e-13
3.174997313e-13
3.174988891e-13
3.174980524e-13
3.174972178e-13
3.174963781e-13
3.174955306e-13
3.174946743e-13
3.174938094e-13
3.174929369e-13
3.174920611e-13
3.174911877e-13
3.174903196e-13
3.174894559e-13
3.174885944e-13
3.174877307e-13
3.174868621e-13
3.174859869e-13
3.174851054e-13
3.174842196e-13
3.174833327e-13
3.174824558e-13
3.174815898e-13
3.174807322e-13
3.174798785e-13
3.174790223e-13
3.174781572e-13
3.174772801e-13
3.174763909e-13
3.174754926e-13
3.174745886e-13
3.174736844e-13
3.174727839e-13
3.174718875e-13
3.174709916e-13
3.174700921e-13
3.174691848e-13
3.174682662e-13
3.174673348e-13
3.174663924e-13
3.174654428e-13
3.174644898e-13
3.174635359e-13
3.174625818e-13
3.174616253e-13
3.174606613e-13
3.174596839e-13
3.174586888e-13
3.17457674e-13
3.174566426e-13
3.174556003e-13
3.174545533e-13
3.174535064e-13
3.174524612e-13
3.174514159e-13
3.174503665e-13
3.17449308e-13
3.174482341e-13
3.174471401e-13
3.174460265e-13
3.174448983e-13
3.174437616e-13
3.174426204e-13
3.174414762e-13
3.174403299e-13
3.174391807e-13
3.174380251e-13
3.174368572e-13
3.174356711e-13
3.174344702e-13
3.174332601e-13
3.17432046e-13
3.174308323e-13
3.17429625e-13
3.174284277e-13
3.174272393e-13
3.174260535e-13
3.174248574e-13
3.174236422e-13
3.174224104e-13
3.174211665e-13
3.174199146e-13
3.174186577e-13
3.174174019e-13
3.174161543e-13
3.174149188e-13
3.174136928e-13
3.174124701e-13
3.17411238e-13
3.174099894e-13
3.17408725e-13
3.174074479e-13
3.174061596e-13
3.174048659e-13
3.174035743e-13
3.174022911e-13
3.174010167e-13
3.173997472e-13
3.173984647e-13
3.173971583e-13
3.173958278e-13
3.173944767e-13
3.173931079e-13
3.173917308e-13
3.173903583e-13
3.173890048e-13
3.173876793e-13
3.173863756e-13
3.173850754e-13
3.173837465e-13
3.173823805e-13
3.173809792e-13
3.173795501e-13
3.173781012e-13
3.173766475e-13
3.173752094e-13
3.173737998e-13
3.173724146e-13
3.173710393e-13
3.173696431e-13
3.173682066e-13
3.173667306e-13
3.17365225e-13
3.173637028e-13
3.173621805e-13
3.173606783e-13
3.173592073e-13
3.173577668e-13
3.173563432e-13
3.173548994e-13
3.173534074e-13
3.173518652e-13
3.173502845e-13
3.173486855e-13
3.173470829e-13
3.173454946e-13
3.173439379e-13
3.173424214e-13
3.173409401e-13
3.173394723e-13
3.173379714e-13
3.173364184e-13
3.173348187e-13
3.173331877e-13
3.173315408e-13
3.173298867e-13
3.173282435e-13
3.173266296e-13
3.173250524e-13
3.173235027e-13
3.173219484e-13
3.173203436e-13
3.173186812e-13
3.173169673e-13
3.173152165e-13
3.173134397e-13
3.173116623e-13
3.17309917e-13
3.173082286e-13
3.173065952e-13
3.17304986e-13
3.173033234e-13
3.173015751e-13
3.172997399e-13
3.172978368e-13
3.172958899e-13
3.172939257e-13
3.17291986e-13
3.172901122e-13
3.172883154e-13
3.17286575e-13
3.172848324e-13
3.172830028e-13
3.172810734e-13
3.172790593e-13
3.172769916e-13
3.172748936e-13
3.172727965e-13
3.172707403e-13
3.172687553e-13
3.172668415e-13
3.172649642e-13
3.172630304e-13
3.172610046e-13
3.172588874e-13
3.172566954e-13
3.172544522e-13
3.172521776e-13
3.1724992e-13
3.172477388e-13
3.172456677e-13
3.172436894e-13
3.172417278e-13
3.172396625e-13
3.172374663e-13
3.172351395e-13
3.172327112e-13
3.172302138e-13
3.172277001e-13
3.172252466e-13
3.172229077e-13
3.172206785e-13
3.172185084e-13
3.172162873e-13
3.172138997e-13
3.17211337e-13
3.172086339e-13
3.172058357e-13
3.172029874e-13
3.172001525e-13
3.171973903e-13
3.171947273e-13
3.171921455e-13
3.171895751e-13
3.171868388e-13
3.171838858e-13
3.171807433e-13
3.171774682e-13
3.171740967e-13
3.171706932e-13
3.171673392e-13
3.171641276e-13
3.171611096e-13
3.171582159e-13
3.171552225e-13
3.171519619e-13
3.171484368e-13
3.17144712e-13
3.171408713e-13
3.171369672e-13
3.171330928e-13
3.171293814e-13
3.171259236e-13
3.171226885e-13
3.171195209e-13
3.171161468e-13
3.171125333e-13
3.171087045e-13
3.171047125e-13
3.171006147e-13
3.17096469e-13
3.17092412e-13
3.170886158e-13
3.170851158e-13
3.170818191e-13
3.170784901e-13
3.170749312e-13
3.170710943e-13
3.170669796e-13
3.170626387e-13
3.170581898e-13
3.170537869e-13
3.170496595e-13
3.170458609e-13
3.170423428e-13
3.170389765e-13
3.170354426e-13
3.170315477e-13
3.170272285e-13
3.170225466e-13
3.17017698e-13
3.170128258e-13
3.170081064e-13
3.170036312e-13
3.16999453e-13
3.169956377e-13
3.169920851e-13
3.169881724e-13
3.16983712e-13
3.169787124e-13
3.169733966e-13
3.169679877e-13
3.16962632e-13
3.169574343e-13
3.16952517e-13
3.169481881e-13
3.169444139e-13
3.169404759e-13
3.169358898e-13
3.169306441e-13
3.169249934e-13
3.169192235e-13
3.16913392e-13
3.169075249e-13
3.169018293e-13
3.16896865e-13
3.168928097e-13
3.168890397e-13
3.168846004e-13
3.168794298e-13
3.168737526e-13
3.16867746e-13
3.168614068e-13
3.168546756e-13
3.168477746e-13
3.168418804e-13
3.168373214e-13
3.168335571e-13
3.168293082e-13
3.168237427e-13
3.168178169e-13
3.168113332e-13
3.168044284e-13
3.167968953e-13
3.167887353e-13
3.167814741e-13
3.167755991e-13
3.167704389e-13
3.167653877e-13
3.167590277e-13
3.16752449e-13
3.167455187e-13
3.167366382e-13
3.167225684e-13
3.167008585e-13
3.166874468e-13
3.166988405e-13
3.168628292e-13
3.17752204e-13
3.212893377e-13
3.324736952e-13
3.607001904e-13
4.166971483e-13
4.746008733e-13
5.114128411e-13
5.309293251e-13
5.402076547e-13
5.443962094e-13
5.462429015e-13
5.470486131e-13
5.473985376e-13
5.475502077e-13
5.47615889e-13
5.476443217e-13
5.476566276e-13
5.476619531e-13
5.476642578e-13
5.47665255e-13
5.476656866e-13
5.476658733e-13
5.476659542e-13
5.47665989e-13
5.476660042e-13
5.476660106e-13
5.476660136e-13
5.476660148e-13
5.476660153e-13
5.476660156e-13
5.476660157e-13
5.476660157e-13
5.476660157e-13
5.476660158e-13
5.476660157e-13
5.476660157e-13
5.476660156e-13
5.476660157e-13
5.476660157e-13
5.476660158e-13
5.476660158e-13
5.476660157e-13
5.476660157e-13
5.476660158e-13
5.476660157e-13
5.476660157e-13
5.476660157e-13
5.476660158e-13
5.476660157e-13
5.476660157e-13
5.476660157e-13
5.476660157e-13
5.476660157e-13
5.476660158e-13
5.476660156e-13
5.476660157e-13
5.476660157e-13
5.476660158e-13
5.476660157e-13
5.476660158e-13
5.476660157e-13
5.476660158e-13
5.476660157e-13
5.476660157e-13
5.476660157e-13
5.476660157e-13
5.476660157e-13
5.476660157e-13
5.476660157e-13
5.476660157e-13
5.476660157e-13
5.476660157e-13
5.476660157e-13
5.476660158e-13
5.476660157e-13
5.476660158e-13
5.476660157e-13
5.476660158e-13
5.476660156e-13
5.476660158e-13
5.476660157e-13
5.476660157e-13
5.476660157e-13
5.476660158e-13
5.476660157e-13
5.476660157e-13
5.476660157e-13
5.476660157e-13
5.476660157e-13
5.476660157e-13
5.476660157e-13
5.476660158e-13
5.476660157e-13
5.476660158e-13
5.476660156e-13
5.476660158e-13
5.476660157e-13
5.476660158e-13
5.476660157e-13
5.476660157e-13
5.476660157e-13
5.476660158e-13
5.476660156e-13
5.476660158e-13
5.476660155e-13
5.476660158e-13
5.476660156e-13
5.476660159e-13
5.476660156e-13
5.476660158e-13
5.476660156e-13
5.476660158e-13
5.476660156e-13
5.476660158e-13
5.476660156e-13
5.476660158e-13
5.476660156e-13
5.476660158e-13
5.476660156e-13
5.476660158e-13
5.476660155e-13
5.476660158e-13
5.476660156e-13
5.476660158e-13
5.476660156e-13
5.476660158e-13
5.476660156e-13
5.476660159e-13
5.476660156e-13
5.476660158e-13
5.476660156e-13
5.476660157e-13
5.476660155e-13
5.476660157e-13
5.476660156e-13
5.476660157e-13
5.476660157e-13
5.476660158e-13
5.476660156e-13
5.476660158e-13
5.476660157e-13
5.476660157e-13
5.476660156e-13
5.476660157e-13
5.476660156e-13
5.476660157e-13
5.476660156e-13
5.476660157e-13
5.476660157e-13
5.476660157e-13
5.476660156e-13
5.476660157e-13
5.476660156e-13
5.476660157e-13
5.476660156e-13
5.476660158e-13
5.476660157e-13
5.476660157e-13
5.476660156e-13
5.476660157e-13
5.476660157e-13
5.476660157e-13
5.476660156e-13
5.476660157e-13
5.476660156e-13
5.476660158e-13
5.476660157e-13
5.476660157e-13
5.476660158e-13
5.476660157e-13
5.476660156e-13
5.476660157e-13
5.476660156e-13
5.476660157e-13
5.476660156e-13
5.476660158e-13
5.476660156e-13
5.476660157e-13
5.476660158e-13
5.476660157e-13
5.476660156e-13
5.476660158e-13
5.476660156e-13
5.476660158e-13
5.476660156e-13
5.476660158e-13
5.476660155e-13
5.476660158e-13
5.476660155e-13
5.476660158e-13
5.476660157e-13
5.476660157e-13
5.476660157e-13
5.476660157e-13
5.476660156e-13
5.476660157e-13
5.476660156e-13
5.476660157e-13
5.476660156e-13
5.476660157e-13
5.476660155e-13
5.476660158e-13
5.476660156e-13
5.476660158e-13
5.476660156e-13
5.476660159e-13
5.476660156e-13
5.476660157e-13
5.476660156e-13
5.476660157e-13
5.476660157e-13
5.476660157e-13
5.476660157e-13
5.476660157e-13
5.476660157e-13
5.476660156e-13
5.476660157e-13
5.476660156e-13
5.476660158e-13
5.476660156e-13
5.476660157e-13
5.476660155e-13
5.476660157e-13
5.476660157e-13
5.476660157e-13
5.476660156e-13
5.476660158e-13
5.476660155e-13
5.476660158e-13
5.476660156e-13
5.476660157e-13
5.476660156e-13
5.476660158e-13
5.476660156e-13
5.476660157e-13
5.476660157e-13
5.476660157e-13
5.476660156e-13
5.476660158e-13
5.476660156e-13
5.476660158e-13
5.476660156e-13
5.476660158e-13
5.476660155e-13
5.476660157e-13
5.476660156e-13
5.476660157e-13
5.476660156e-13
5.476660158e-13
5.476660156e-13
5.476660158e-13
5.476660156e-13
5.476660157e-13
5.476660155e-13
5.476660158e-13
5.476660156e-13
5.476660157e-13
5.476660157e-13
5.476660157e-13
5.476660157e-13
5.476660157e-13
5.476660156e-13
5.476660158e-13
5.476660154e-13
5.476660158e-13
5.476660156e-13
5.476660158e-13
5.476660156e-13
5.476660157e-13
5.476660156e-13
5.476660158e-13
5.476660156e-13
5.476660157e-13
5.476660156e-13
5.476660158e-13
5.476660156e-13
5.476660158e-13
5.476660156e-13
5.476660157e-13
5.476660156e-13
5.476660158e-13
5.476660156e-13
5.476660158e-13
5.476660156e-13
5.476660157e-13
5.476660156e-13
5.476660158e-13
5.476660155e-13
5.476660157e-13
5.476660156e-13
5.476660158e-13
5.476660156e-13
5.476660158e-13
5.476660156e-13
5.476660157e-13
5.476660156e-13
5.476660158e-13
5.476660157e-13
5.476660157e-13
5.476660156e-13
5.476660158e-13
5.476660156e-13
5.476660158e-13
5.476660156e-13
5.476660157e-13
5.476660155e-13
5.476660157e-13
5.476660156e-13
5.476660157e-13
5.476660156e-13
5.476660157e-13
5.476660157e-13
5.476660157e-13
5.476660156e-13
5.476660158e-13
5.476660156e-13
5.476660158e-13
5.476660155e-13
5.476660158e-13
5.476660156e-13
5.476660158e-13
5.476660156e-13
5.476660158e-13
5.476660156e-13
5.476660158e-13
5.476660157e-13
5.476660157e-13
5.476660157e-13
5.476660157e-13
5.476660157e-13
5.476660157e-13
5.476660156e-13
5.476660156e-13
5.476660156e-13
5.476660157e-13
5.476660156e-13
5.476660156e-13
5.476660156e-13
5.476660158e-13
5.476660157e-13
5.476660158e-13
5.476660157e-13
5.476660156e-13
5.476660158e-13
5.476660157e-13
5.476660157e-13
5.476660156e-13
5.476660157e-13
5.476660155e-13
5.476660158e-13
5.476660156e-13
5.476660157e-13
5.476660157e-13
5.476660157e-13
5.476660157e-13
5.476660157e-13
5.476660157e-13
5.476660158e-13
5.476660156e-13
5.476660157e-13
5.476660156e-13
5.476660158e-13
5.476660155e-13
5.476660157e-13
5.476660156e-13
5.476660158e-13
5.476660156e-13
5.476660157e-13
5.476660156e-13
5.476660158e-13
5.476660156e-13
5.476660157e-13
5.476660156e-13
5.476660158e-13
5.476660157e-13
5.476660157e-13
5.476660156e-13
5.476660158e-13
5.476660156e-13
5.476660157e-13
5.476660156e-13
5.476660157e-13
5.476660156e-13
5.476660157e-13
5.476660156e-13
5.476660157e-13
5.476660157e-13
5.476660157e-13
5.476660156e-13
5.476660158e-13
5.476660157e-13
5.476660158e-13
5.476660157e-13
5.476660158e-13
5.476660156e-13
5.476660158e-13
5.476660156e-13
5.476660157e-13
5.476660157e-13
5.476660157e-13
5.476660156e-13
5.476660158e-13
5.476660156e-13
5.476660157e-13
5.476660156e-13
5.476660158e-13
5.476660156e-13
5.476660157e-13
5.476660156e-13
5.476660158e-13
5.476660157e-13
5.476660158e-13
5.476660156e-13
5.476660158e-13
5.476660156e-13
5.476660158e-13
5.476660155e-13
5.476660157e-13
5.476660156e-13
5.476660158e-13
5.476660156e-13
5.476660158e-13
5.476660156e-13
5.476660157e-13
5.476660157e-13
5.476660157e-13
5.476660156e-13
5.476660158e-13
5.476660156e-13
5.476660157e-13
5.476660156e-13
5.476660158e-13
5.476660156e-13
5.476660158e-13
5.476660156e-13
5.476660157e-13
5.476660157e-13
5.476660158e-13
5.476660156e-13
5.476660158e-13
5.476660157e-13
5.476660158e-13
5.476660156e-13
5.476660158e-13
5.476660157e-13
5.476660158e-13
5.476660156e-13
5.476660158e-13
5.476660156e-13
5.476660157e-13
5.476660157e-13
5.476660156e-13
5.476660157e-13
5.476660157e-13
5.476660157e-13
5.476660158e-13
5.476660156e-13
5.476660159e-13
5.476660156e-13
5.476660157e-13
5.476660157e-13
5.476660157e-13
5.476660157e-13
5.476660157e-13
5.476660157e-13
5.476660156e-13
5.476660157e-13
5.476660156e-13
5.476660157e-13
5.476660157e-13
5.476660156e-13
5.476660157e-13
5.476660157e-13
5.476660157e-13
5.476660157e-13
5.476660157e-13
5.476660157e-13
5.476660157e-13
5.476660157e-13
5.476660157e-13
5.476660158e-13
5.476660156e-13
5.476660156e-13
5.476660156e-13
5.476660158e-13
5.476660157e-13
5.476660157e-13
5.476660157e-13
5.476660157e-13
5.476660155e-13
5.476660157e-13
5.476660156e-13
5.476660157e-13
5.476660156e-13
5.476660157e-13
5.476660156e-13
5.476660158e-13
5.476660156e-13
5.476660157e-13
5.476660157e-13
5.476660158e-13
5.476660156e-13
5.476660157e-13
5.476660156e-13
5.476660157e-13
5.476660156e-13
5.476660157e-13
5.476660155e-13
5.476660157e-13
5.476660157e-13
5.476660157e-13
5.476660156e-13
5.476660157e-13
5.476660156e-13
5.476660157e-13
5.476660157e-13
5.476660157e-13
5.476660156e-13
5.476660158e-13
5.476660156e-13
5.476660157e-13
5.476660156e-13
5.476660157e-13
5.476660157e-13
5.476660157e-13
5.476660156e-13
5.476660157e-13
5.476660156e-13
5.476660158e-13
5.476660156e-13
5.476660158e-13
5.476660157e-13
5.476660158e-13
5.476660155e-13
5.476660158e-13
5.476660156e-13
5.476660157e-13
5.476660156e-13
5.476660158e-13
5.476660157e-13
5.476660157e-13
5.476660156e-13
5.476660157e-13
5.476660156e-13
5.476660158e-13
5.476660157e-13
5.476660157e-13
5.476660156e-13
5.476660158e-13
5.476660156e-13
5.476660157e-13
5.476660156e-13
5.476660158e-13
5.476660158e-13
5.476660157e-13
5.476660157e-13
5.476660157e-13
5.476660157e-13
5.476660157e-13
5.476660156e-13
5.476660157e-13
5.476660156e-13
5.476660157e-13
5.476660156e-13
5.476660157e-13
5.476660157e-13
5.476660157e-13
5.476660156e-13
5.476660158e-13
5.476660156e-13
5.476660157e-13
5.476660156e-13
5.476660157e-13
5.476660156e-13
5.476660158e-13
5.476660157e-13
5.476660157e-13
5.476660157e-13
5.476660156e-13
5.476660156e-13
5.476660157e-13
5.476660157e-13
5.476660157e-13
5.476660156e-13
5.476660157e-13
5.476660157e-13
5.476660157e-13
5.476660156e-13
5.476660157e-13
5.476660156e-13
5.476660156e-13
5.476660158e-13
5.476660157e-13
5.476660157e-13
5.476660156e-13
5.476660158e-13
5.476660156e-13
5.476660157e-13
5.476660156e-13
5.476660158e-13
5.476660157e-13
5.476660157e-13
5.476660156e-13
5.476660159e-13
5.476660156e-13
5.476660159e-13
5.476660156e-13
5.476660157e-13
5.476660156e-13
5.476660158e-13
5.476660156e-13
5.476660158e-13
5.476660156e-13
5.476660158e-13
5.476660157e-13
5.476660158e-13
5.476660157e-13
5.476660158e-13
5.476660156e-13
5.476660158e-13
5.476660156e-13
5.476660158e-13
5.476660157e-13
5.476660158e-13
5.476660156e-13
5.476660157e-13
5.476660157e-13
5.476660158e-13
5.476660156e-13
5.476660158e-13
5.476660156e-13
5.476660158e-13
5.476660157e-13
5.476660158e-13
5.476660157e-13
5.476660158e-13
5.476660156e-13
5.476660158e-13
5.476660156e-13
5.476660158e-13
5.476660156e-13
5.476660157e-13
5.476660156e-13
5.476660158e-13
5.476660157e-13
5.476660158e-13
5.476660156e-13
5.476660158e-13
5.476660156e-13
5.476660158e-13
5.476660156e-13
5.476660158e-13
5.476660156e-13
5.476660157e-13
5.476660155e-13
5.476660157e-13
5.476660156e-13
5.476660158e-13
5.476660156e-13
5.476660157e-13
5.476660155e-13
5.476660158e-13
5.476660156e-13
5.476660157e-13
5.476660156e-13
5.476660159e-13
5.476660157e-13
5.476660158e-13
5.476660157e-13
5.476660157e-13
5.476660156e-13
5.476660158e-13
5.476660155e-13
5.476660158e-13
5.476660156e-13
5.476660157e-13
5.476660156e-13
5.476660158e-13
5.476660156e-13
5.476660157e-13
5.476660157e-13
5.476660157e-13
5.476660156e-13
5.476660158e-13
5.476660157e-13
5.476660157e-13
5.476660156e-13
5.476660157e-13
5.476660157e-13
5.476660157e-13
5.476660157e-13
5.476660157e-13
5.476660157e-13
5.476660157e-13
5.476660155e-13
5.476660157e-13
5.476660157e-13
5.476660157e-13
5.476660156e-13
5.476660156e-13
5.476660156e-13
5.476660157e-13
5.476660156e-13
5.476660157e-13
5.476660156e-13
5.476660158e-13
5.476660156e-13
5.476660157e-13
5.476660156e-13
5.476660157e-13
5.476660156e-13
5.476660158e-13
5.476660157e-13
5.476660157e-13
5.476660157e-13
5.476660156e-13
5.476660158e-13
5.476660156e-13
5.476660158e-13
5.476660157e-13
5.476660157e-13
5.476660157e-13
5.476660157e-13
5.476660156e-13
5.476660157e-13
5.476660156e-13
5.476660158e-13
5.476660156e-13
5.476660158e-13
5.476660157e-13
5.476660157e-13
5.476660156e-13
5.476660157e-13
5.476660157e-13
5.476660158e-13
5.476660157e-13
5.476660156e-13
5.476660157e-13
5.476660158e-13
5.476660156e-13
5.476660158e-13
5.476660156e-13
5.476660158e-13
5.476660155e-13
5.476660157e-13
5.476660157e-13
5.476660157e-13
5.476660157e-13
5.476660156e-13
5.476660156e-13
5.476660157e-13
5.476660156e-13
5.476660157e-13
5.476660156e-13
5.476660158e-13
5.476660157e-13
5.476660157e-13
5.476660156e-13
5.476660157e-13
5.476660156e-13
5.476660157e-13
5.476660156e-13
5.476660157e-13
5.476660156e-13
5.476660158e-13
5.476660156e-13
5.476660157e-13
5.476660156e-13
5.476660158e-13
5.476660156e-13
5.476660157e-13
5.476660157e-13
5.476660157e-13
5.476660157e-13
5.476660157e-13
5.476660156e-13
5.476660157e-13
5.476660156e-13
5.476660157e-13
5.476660156e-13
5.476660158e-13
5.476660156e-13
5.476660158e-13
5.476660156e-13
5.476660158e-13
5.476660156e-13
5.476660157e-13
5.476660157e-13
5.476660157e-13
5.476660156e-13
5.476660156e-13
5.476660156e-13
5.476660158e-13
5.476660156e-13
5.476660157e-13
5.476660156e-13
5.476660158e-13
5.476660156e-13
5.476660157e-13
5.476660157e-13
5.476660157e-13
5.476660156e-13
5.476660158e-13
5.476660156e-13
5.476660157e-13
5.476660155e-13
5.476660157e-13
5.476660157e-13
5.476660158e-13
5.476660156e-13
5.476660157e-13
5.476660156e-13
5.476660157e-13
5.476660156e-13
5.476660158e-13
5.476660156e-13
5.476660157e-13
5.476660156e-13
5.476660157e-13
5.476660155e-13
5.476660157e-13
5.476660157e-13
5.476660158e-13
5.476660156e-13
5.476660157e-13
5.476660156e-13
5.476660156e-13
5.476660156e-13
5.476660157e-13
5.476660156e-13
5.476660156e-13
5.476660156e-13
5.476660157e-13
5.476660156e-13
5.476660157e-13
5.476660156e-13
5.476660157e-13
5.476660157e-13
5.476660156e-13
5.476660157e-13
5.476660157e-13
5.476660157e-13
5.476660157e-13
5.476660156e-13
5.476660157e-13
5.476660157e-13
5.476660156e-13
5.476660157e-13
5.476660157e-13
5.476660157e-13
5.476660156e-13
5.476660157e-13
5.476660156e-13
5.476660157e-13
5.476660157e-13
5.476660157e-13
5.476660155e-13
5.476660157e-13
5.476660156e-13
5.476660157e-13
5.476660157e-13
5.476660157e-13
5.476660155e-13
5.476660157e-13
5.476660156e-13
5.476660157e-13
5.476660156e-13
5.476660158e-13
5.476660155e-13
5.476660157e-13
5.476660156e-13
5.476660157e-13
5.476660156e-13
5.476660158e-13
5.476660156e-13
5.476660157e-13
5.476660156e-13
5.476660157e-13
5.476660155e-13
5.476660157e-13
5.476660157e-13
5.476660157e-13
5.476660156e-13
5.476660157e-13
5.476660157e-13
5.476660157e-13
5.476660156e-13
5.476660157e-13
5.476660156e-13
5.476660158e-13
5.476660156e-13
5.476660157e-13
5.476660157e-13
5.476660157e-13
5.476660156e-13
5.476660157e-13
5.476660156e-13
5.476660157e-13
5.476660157e-13
5.476660157e-13
5.476660156e-13
5.476660157e-13
5.476660157e-13
5.476660157e-13
5.476660156e-13
5.476660157e-13
5.476660155e-13
5.476660157e-13
5.476660156e-13
5.476660158e-13
5.476660156e-13
5.476660157e-13
5.476660156e-13