/*--------------------------------*- C++ -*----------------------------------*\
| =========                 |                                                 |
| \\      /  F ield         | OpenFOAM: The Open Source CFD Toolbox           |
|  \\    /   O peration     | Version:  2312                                  |
|   \\  /    A nd           | Website:  www.openfoam.com                      |
|    \\/     M anipulation  |                                                 |
\*---------------------------------------------------------------------------*/
FoamFile
{
    version     2.0;
    format      ascii;
    arch        "LSB;label=32;scalar=64";
    class       volVectorField;
    location    "0.0008";
    object      U;
}
// * * * * * * * * * * * * * * * * * * * * * * * * * * * * * * * * * * * * * //

dimensions      [0 1 -1 0 0 0 0];

internalField   nonuniform List<vector> 
5000
(
(3.598123772e-13 0 0)
(-4.984810158e-13 0 0)
(-1.12179449e-12 0 0)
(5.918831713e-13 0 0)
(-2.559966256e-12 0 0)
(4.703938045e-13 0 0)
(-1.016801188e-12 0 0)
(-1.054210742e-12 0 0)
(-1.633190788e-12 0 0)
(-1.354468877e-13 0 0)
(1.033804173e-13 0 0)
(-1.278120063e-12 0 0)
(-5.073724837e-13 0 0)
(-2.447357047e-12 0 0)
(8.54994821e-13 0 0)
(-7.726736615e-13 0 0)
(9.480953161e-13 0 0)
(-5.080698463e-13 0 0)
(-8.113319679e-13 0 0)
(-1.725805321e-12 0 0)
(8.571236532e-13 0 0)
(-9.521204981e-13 0 0)
(-2.882409098e-13 0 0)
(-2.230337687e-12 0 0)
(-2.918051555e-13 0 0)
(-1.526873159e-12 0 0)
(-2.146146415e-12 0 0)
(-1.770686413e-12 0 0)
(-1.970854153e-12 0 0)
(-1.087984666e-12 0 0)
(-1.876225982e-12 0 0)
(-1.920609138e-12 0 0)
(-8.66004575e-13 0 0)
(-4.529335499e-13 0 0)
(-8.116772375e-13 0 0)
(1.128583546e-12 0 0)
(-8.812090158e-13 0 0)
(6.113128834e-13 0 0)
(-7.568764698e-13 0 0)
(9.316618838e-13 0 0)
(-1.02420262e-13 0 0)
(-4.179083158e-13 0 0)
(-6.127750841e-13 0 0)
(-2.706850638e-13 0 0)
(-1.085250559e-12 0 0)
(-1.241677802e-12 0 0)
(-1.237709603e-12 0 0)
(-8.254023004e-14 0 0)
(-1.838459495e-12 0 0)
(-4.922045827e-13 0 0)
(-2.845869492e-12 0 0)
(-2.731426282e-12 0 0)
(-3.275594475e-12 0 0)
(-3.321832743e-12 0 0)
(-1.751690981e-12 0 0)
(-2.217577063e-12 0 0)
(-1.381351548e-12 0 0)
(-1.038157371e-12 0 0)
(4.056168522e-13 0 0)
(1.412386693e-13 0 0)
(2.013287143e-12 0 0)
(7.979035388e-13 0 0)
(7.680606899e-13 0 0)
(1.729314559e-12 0 0)
(1.859352764e-12 0 0)
(3.100514932e-12 0 0)
(3.112544605e-12 0 0)
(4.167581355e-12 0 0)
(1.344095508e-11 0 0)
(4.471135076e-11 0 0)
(1.717005773e-10 0 0)
(6.495169211e-10 0 0)
(2.466690804e-09 0 0)
(9.139746294e-09 0 0)
(3.471510747e-08 0 0)
(1.017268931e-07 0 0)
(2.466639224e-07 0 0)
(5.442675119e-07 0 0)
(1.142768557e-06 0 0)
(2.340031092e-06 0 0)
(4.725100847e-06 0 0)
(9.43513118e-06 0 0)
(1.863379741e-05 0 0)
(3.638361479e-05 0 0)
(7.019488529e-05 0 0)
(0.0001337894413 0 0)
(0.000251907104 0 0)
(0.0004685860584 0 0)
(0.0008608879727 0 0)
(0.001561312304 0 0)
(0.002793870162 0 0)
(0.004930536782 0 0)
(0.008577344665 0 0)
(0.01470192149 0 0)
(0.02481631242 0 0)
(0.04122925025 0 0)
(0.06737878815 0 0)
(0.1082467842 0 0)
(0.1708381287 0 0)
(0.2646772575 0 0)
(0.4022316839 0 0)
(0.5991199618 0 0)
(0.8739064884 0 0)
(1.247233286 0 0)
(1.73996916 0 0)
(2.369824193 0 0)
(3.145422173 0 0)
(4.061235481 0 0)
(5.102395913 0 0)
(6.254421383 0 0)
(7.5058672 0 0)
(8.846500428 0 0)
(10.26634527 0 0)
(11.75574738 0 0)
(13.30565368 0 0)
(14.90782943 0 0)
(16.55496748 0 0)
(18.24070331 0 0)
(19.95956473 0 0)
(21.70688439 0 0)
(23.47869659 0 0)
(25.27163292 0 0)
(27.08282469 0 0)
(28.90981626 0 0)
(30.75049027 0 0)
(32.60300428 0 0)
(34.46573743 0 0)
(36.33724567 0 0)
(38.21622371 0 0)
(40.10147228 0 0)
(41.99186913 0 0)
(43.88634238 0 0)
(45.78384055 0 0)
(47.68325681 0 0)
(49.58335243 0 0)
(51.48276415 0 0)
(53.37990406 0 0)
(55.27329523 0 0)
(57.16139066 0 0)
(59.04235327 0 0)
(60.91401743 0 0)
(62.77383446 0 0)
(64.61876301 0 0)
(66.44513449 0 0)
(68.24848091 0 0)
(70.02331396 0 0)
(71.76286888 0 0)
(73.45895185 0 0)
(75.10151455 0 0)
(76.67798733 0 0)
(78.17373246 0 0)
(79.57297206 0 0)
(80.86881493 0 0)
(82.14304982 0 0)
(83.88709854 0 0)
(86.11251439 0 0)
(88.69666336 0 0)
(91.5158757 0 0)
(94.37285647 0 0)
(97.12670228 0 0)
(99.69781251 0 0)
(102.1486479 0 0)
(104.507983 0 0)
(106.799277 0 0)
(109.0369242 0 0)
(111.2209175 0 0)
(113.3856315 0 0)
(115.5285625 0 0)
(117.6691228 0 0)
(119.7880772 0 0)
(121.8979221 0 0)
(123.9996849 0 0)
(126.1016641 0 0)
(128.1963119 0 0)
(130.288699 0 0)
(132.3723287 0 0)
(134.4515176 0 0)
(136.5285496 0 0)
(138.6074885 0 0)
(140.6827753 0 0)
(142.7566962 0 0)
(144.8268448 0 0)
(146.8955676 0 0)
(148.963735 0 0)
(151.0331916 0 0)
(153.1002233 0 0)
(155.1660523 0 0)
(157.2298557 0 0)
(159.2934692 0 0)
(161.3565192 0 0)
(163.4206455 0 0)
(165.4829691 0 0)
(167.5454275 0 0)
(169.6067976 0 0)
(171.6690565 0 0)
(173.7316515 0 0)
(175.7954177 0 0)
(177.8593994 0 0)
(179.9240445 0 0)
(181.9893144 0 0)
(184.056033 0 0)
(186.1241763 0 0)
(188.1942761 0 0)
(190.2658861 0 0)
(192.3395523 0 0)
(194.415185 0 0)
(196.4933975 0 0)
(198.5742526 0 0)
(200.6570178 0 0)
(202.7386761 0 0)
(204.806124 0 0)
(206.8495256 0 0)
(208.8887472 0 0)
(210.9048302 0 0)
(212.9013929 0 0)
(214.8531387 0 0)
(216.7479192 0 0)
(218.546196 0 0)
(220.2004119 0 0)
(221.6421262 0 0)
(222.8096091 0 0)
(223.6494114 0 0)
(224.1595097 0 0)
(224.39353 0 0)
(224.4528442 0 0)
(224.4470862 0 0)
(224.4346404 0 0)
(224.4148555 0 0)
(224.3941686 0 0)
(224.3971331 0 0)
(224.4141892 0 0)
(224.4542094 0 0)
(224.5227982 0 0)
(224.6237971 0 0)
(224.757463 0 0)
(224.918615 0 0)
(225.0940019 0 0)
(225.2506216 0 0)
(225.3394778 0 0)
(225.3972244 0 0)
(225.4523077 0 0)
(225.5078262 0 0)
(225.5615766 0 0)
(225.608905 0 0)
(225.6515351 0 0)
(225.6914779 0 0)
(225.7296849 0 0)
(225.7660679 0 0)
(225.8006102 0 0)
(225.8335096 0 0)
(225.8647321 0 0)
(225.8943704 0 0)
(225.922451 0 0)
(225.9492518 0 0)
(225.9753262 0 0)
(226.0007431 0 0)
(226.0253891 0 0)
(226.0492335 0 0)
(226.0720671 0 0)
(226.0937008 0 0)
(226.1143168 0 0)
(226.1340759 0 0)
(226.1529611 0 0)
(226.171063 0 0)
(226.188485 0 0)
(226.2053808 0 0)
(226.2217884 0 0)
(226.237686 0 0)
(226.2530233 0 0)
(226.2677345 0 0)
(226.2818348 0 0)
(226.2954764 0 0)
(226.3087704 0 0)
(226.3217217 0 0)
(226.3343999 0 0)
(226.3467041 0 0)
(226.3584664 0 0)
(226.3701528 0 0)
(226.381276 0 0)
(226.3921968 0 0)
(226.402867 0 0)
(226.4129667 0 0)
(226.4230456 0 0)
(226.4327371 0 0)
(226.4422277 0 0)
(226.451512 0 0)
(226.4605676 0 0)
(226.4692122 0 0)
(226.4773681 0 0)
(226.485553 0 0)
(226.493661 0 0)
(226.5012771 0 0)
(226.5085927 0 0)
(226.5159697 0 0)
(226.5234111 0 0)
(226.5307633 0 0)
(226.5377279 0 0)
(226.5446566 0 0)
(226.551637 0 0)
(226.5584957 0 0)
(226.5649317 0 0)
(226.5713387 0 0)
(226.5777523 0 0)
(226.5839287 0 0)
(226.5898852 0 0)
(226.5958865 0 0)
(226.6017845 0 0)
(226.6076212 0 0)
(226.613376 0 0)
(226.6189223 0 0)
(226.6243922 0 0)
(226.629832 0 0)
(226.6350428 0 0)
(226.6400872 0 0)
(226.6451902 0 0)
(226.6501763 0 0)
(226.6550531 0 0)
(226.6599275 0 0)
(226.6646684 0 0)
(226.6694438 0 0)
(226.6741156 0 0)
(226.6786872 0 0)
(226.6832165 0 0)
(226.6876487 0 0)
(226.6920489 0 0)
(226.6964553 0 0)
(226.7009789 0 0)
(226.7058704 0 0)
(226.7116771 0 0)
(226.7195703 0 0)
(226.7319164 0 0)
(226.753109 0 0)
(226.7909055 0 0)
(226.8574785 0 0)
(226.9693517 0 0)
(227.1472864 0 0)
(227.4042843 0 0)
(227.8221703 0 0)
(228.4207336 0 0)
(228.8938427 0 0)
(229.1259484 0 0)
(229.1716907 0 0)
(229.2086428 0 0)
(229.2272105 0 0)
(228.6932134 0 0)
(227.8271912 0 0)
(227.3960559 0 0)
(227.477605 0 0)
(227.8244273 0 0)
(227.9383964 0 0)
(228.0086553 0 0)
(228.046824 0 0)
(228.0602531 0 0)
(228.0596311 0 0)
(228.0553469 0 0)
(228.0536738 0 0)
(228.0558152 0 0)
(228.0597045 0 0)
(228.0624161 0 0)
(228.0628579 0 0)
(228.0620448 0 0)
(228.0612989 0 0)
(228.0615091 0 0)
(228.0626984 0 0)
(228.0641984 0 0)
(228.0650981 0 0)
(228.0655726 0 0)
(228.0660084 0 0)
(228.0663916 0 0)
(228.0668549 0 0)
(228.0675011 0 0)
(228.0683007 0 0)
(228.0690879 0 0)
(228.069751 0 0)
(228.0703251 0 0)
(228.0708716 0 0)
(228.0714326 0 0)
(228.0720375 0 0)
(228.0726956 0 0)
(228.0733741 0 0)
(228.074026 0 0)
(228.0746464 0 0)
(228.0752537 0 0)
(228.0758611 0 0)
(228.0764792 0 0)
(228.077115 0 0)
(228.0777662 0 0)
(228.0784205 0 0)
(228.0790654 0 0)
(228.0797004 0 0)
(228.0803299 0 0)
(228.0809575 0 0)
(228.0815852 0 0)
(228.0822149 0 0)
(228.082845 0 0)
(228.0834715 0 0)
(228.084094 0 0)
(228.0847145 0 0)
(228.0853356 0 0)
(228.0859591 0 0)
(228.0865866 0 0)
(228.0872191 0 0)
(228.0878566 0 0)
(228.0884979 0 0)
(228.0891418 0 0)
(228.0897883 0 0)
(228.0904375 0 0)
(228.0910892 0 0)
(228.0917431 0 0)
(228.0923983 0 0)
(228.0930539 0 0)
(228.0937094 0 0)
(228.094365 0 0)
(228.095021 0 0)
(228.0956778 0 0)
(228.0963362 0 0)
(228.0969969 0 0)
(228.0976606 0 0)
(228.0983278 0 0)
(228.0989994 0 0)
(228.0996757 0 0)
(228.1003575 0 0)
(228.1010455 0 0)
(228.1017398 0 0)
(228.1024407 0 0)
(228.103148 0 0)
(228.1038613 0 0)
(228.1045801 0 0)
(228.105304 0 0)
(228.1060322 0 0)
(228.1067636 0 0)
(228.1074976 0 0)
(228.1082334 0 0)
(228.1089702 0 0)
(228.1097077 0 0)
(228.1104458 0 0)
(228.1111844 0 0)
(228.111924 0 0)
(228.1126649 0 0)
(228.1134078 0 0)
(228.1141536 0 0)
(228.114903 0 0)
(228.1156563 0 0)
(228.1164139 0 0)
(228.1171761 0 0)
(228.1179426 0 0)
(228.118713 0 0)
(228.1194869 0 0)
(228.1202637 0 0)
(228.1210429 0 0)
(228.1218238 0 0)
(228.1226052 0 0)
(228.1233863 0 0)
(228.1241665 0 0)
(228.1249448 0 0)
(228.1257207 0 0)
(228.1264941 0 0)
(228.1272654 0 0)
(228.128035 0 0)
(228.1288036 0 0)
(228.129572 0 0)
(228.1303409 0 0)
(228.1311113 0 0)
(228.1318837 0 0)
(228.132658 0 0)
(228.133434 0 0)
(228.1342117 0 0)
(228.1349909 0 0)
(228.1357716 0 0)
(228.1365538 0 0)
(228.1373376 0 0)
(228.1381227 0 0)
(228.1389091 0 0)
(228.1396965 0 0)
(228.1404847 0 0)
(228.1412734 0 0)
(228.1420626 0 0)
(228.1428528 0 0)
(228.1436445 0 0)
(228.1444386 0 0)
(228.1452361 0 0)
(228.1460379 0 0)
(228.1468444 0 0)
(228.1476558 0 0)
(228.1484718 0 0)
(228.1492921 0 0)
(228.1501161 0 0)
(228.1509435 0 0)
(228.151774 0 0)
(228.1526078 0 0)
(228.1534451 0 0)
(228.1542861 0 0)
(228.1551308 0 0)
(228.1559792 0 0)
(228.156831 0 0)
(228.1576861 0 0)
(228.1585443 0 0)
(228.1594059 0 0)
(228.1602714 0 0)
(228.1611415 0 0)
(228.1620171 0 0)
(228.1628989 0 0)
(228.1637871 0 0)
(228.1646815 0 0)
(228.1655815 0 0)
(228.1664859 0 0)
(228.1673936 0 0)
(228.1683039 0 0)
(228.1692164 0 0)
(228.1701309 0 0)
(228.1710479 0 0)
(228.1719676 0 0)
(228.1728902 0 0)
(228.1738158 0 0)
(228.1747439 0 0)
(228.1756743 0 0)
(228.1766064 0 0)
(228.1775403 0 0)
(228.1784763 0 0)
(228.1794151 0 0)
(228.1803575 0 0)
(228.1813045 0 0)
(228.1822562 0 0)
(228.1832123 0 0)
(228.1841718 0 0)
(228.1851335 0 0)
(228.1860961 0 0)
(228.1870587 0 0)
(228.188021 0 0)
(228.1889832 0 0)
(228.1899461 0 0)
(228.1909111 0 0)
(228.1918792 0 0)
(228.192851 0 0)
(228.1938268 0 0)
(228.1948063 0 0)
(228.1957891 0 0)
(228.1967752 0 0)
(228.197765 0 0)
(228.1987593 0 0)
(228.199759 0 0)
(228.200765 0 0)
(228.2017777 0 0)
(228.2027966 0 0)
(228.2038205 0 0)
(228.2048478 0 0)
(228.2058764 0 0)
(228.2069046 0 0)
(228.2079315 0 0)
(228.2089579 0 0)
(228.2099852 0 0)
(228.2110151 0 0)
(228.2120496 0 0)
(228.21309 0 0)
(228.2141363 0 0)
(228.2151884 0 0)
(228.2162458 0 0)
(228.2173084 0 0)
(228.2183763 0 0)
(228.21945 0 0)
(228.2205304 0 0)
(228.2216189 0 0)
(228.2227163 0 0)
(228.2238231 0 0)
(228.224938 0 0)
(228.2260593 0 0)
(228.2271845 0 0)
(228.2283116 0 0)
(228.2294395 0 0)
(228.2305692 0 0)
(228.2317027 0 0)
(228.2328428 0 0)
(228.2339914 0 0)
(228.2351493 0 0)
(228.2363168 0 0)
(228.2374931 0 0)
(228.2386767 0 0)
(228.2398653 0 0)
(228.2410571 0 0)
(228.2422511 0 0)
(228.2434483 0 0)
(228.2446505 0 0)
(228.2458593 0 0)
(228.2470754 0 0)
(228.2482984 0 0)
(228.2495271 0 0)
(228.2507592 0 0)
(228.2519914 0 0)
(228.2532224 0 0)
(228.2544532 0 0)
(228.2556852 0 0)
(228.2569201 0 0)
(228.2581605 0 0)
(228.259409 0 0)
(228.2606667 0 0)
(228.2619328 0 0)
(228.2632034 0 0)
(228.2644726 0 0)
(228.2657365 0 0)
(228.2669946 0 0)
(228.2682471 0 0)
(228.269496 0 0)
(228.2707428 0 0)
(228.2719892 0 0)
(228.2732373 0 0)
(228.2744882 0 0)
(228.2757412 0 0)
(228.2769935 0 0)
(228.2782426 0 0)
(228.2794881 0 0)
(228.2807313 0 0)
(228.2819741 0 0)
(228.2832203 0 0)
(228.2844753 0 0)
(228.2857423 0 0)
(228.2870204 0 0)
(228.2883064 0 0)
(228.2895952 0 0)
(228.290881 0 0)
(228.2921596 0 0)
(228.2934312 0 0)
(228.2946983 0 0)
(228.2959647 0 0)
(228.2972361 0 0)
(228.2985188 0 0)
(228.299816 0 0)
(228.3011266 0 0)
(228.3024475 0 0)
(228.303775 0 0)
(228.3051051 0 0)
(228.306436 0 0)
(228.3077688 0 0)
(228.3091071 0 0)
(228.3104567 0 0)
(228.3118233 0 0)
(228.3132105 0 0)
(228.3146178 0 0)
(228.3160408 0 0)
(228.3174734 0 0)
(228.31891 0 0)
(228.3203477 0 0)
(228.3217877 0 0)
(228.3232358 0 0)
(228.3247004 0 0)
(228.3261895 0 0)
(228.3277077 0 0)
(228.3292547 0 0)
(228.3308268 0 0)
(228.3324173 0 0)
(228.334017 0 0)
(228.335618 0 0)
(228.3372169 0 0)
(228.3388178 0 0)
(228.3404279 0 0)
(228.3420535 0 0)
(228.3436984 0 0)
(228.3453647 0 0)
(228.3470514 0 0)
(228.3487529 0 0)
(228.3504596 0 0)
(228.3521624 0 0)
(228.3538603 0 0)
(228.3555592 0 0)
(228.357265 0 0)
(228.3589851 0 0)
(228.3607281 0 0)
(228.3624991 0 0)
(228.3642964 0 0)
(228.3661106 0 0)
(228.367925 0 0)
(228.369725 0 0)
(228.3715086 0 0)
(228.3732812 0 0)
(228.3750494 0 0)
(228.3768208 0 0)
(228.378605 0 0)
(228.3804127 0 0)
(228.382249 0 0)
(228.3841103 0 0)
(228.3859854 0 0)
(228.3878577 0 0)
(228.3897148 0 0)
(228.391558 0 0)
(228.3933937 0 0)
(228.3952297 0 0)
(228.3970756 0 0)
(228.3989432 0 0)
(228.4008397 0 0)
(228.4027633 0 0)
(228.4047024 0 0)
(228.4066372 0 0)
(228.4085526 0 0)
(228.4104505 0 0)
(228.4123395 0 0)
(228.4142297 0 0)
(228.4161345 0 0)
(228.4180712 0 0)
(228.4200542 0 0)
(228.4220862 0 0)
(228.4241571 0 0)
(228.4262441 0 0)
(228.4283183 0 0)
(228.4303645 0 0)
(228.4323892 0 0)
(228.4344037 0 0)
(228.4364198 0 0)
(228.4384516 0 0)
(228.4405172 0 0)
(228.4426282 0 0)
(228.4447833 0 0)
(228.4469666 0 0)
(228.449149 0 0)
(228.4513053 0 0)
(228.4534343 0 0)
(228.455547 0 0)
(228.4576559 0 0)
(228.4597763 0 0)
(228.4619289 0 0)
(228.4641307 0 0)
(228.4663857 0 0)
(228.4686789 0 0)
(228.4709736 0 0)
(228.4732325 0 0)
(228.4754467 0 0)
(228.4776257 0 0)
(228.4797873 0 0)
(228.4819503 0 0)
(228.4841378 0 0)
(228.4863774 0 0)
(228.4886866 0 0)
(228.4910637 0 0)
(228.4934811 0 0)
(228.4958894 0 0)
(228.4982493 0 0)
(228.500558 0 0)
(228.5028313 0 0)
(228.5050907 0 0)
(228.5073584 0 0)
(228.5096626 0 0)
(228.5120317 0 0)
(228.5144772 0 0)
(228.5169835 0 0)
(228.5195048 0 0)
(228.521988 0 0)
(228.5244126 0 0)
(228.5267921 0 0)
(228.5291504 0 0)
(228.5315134 0 0)
(228.5339146 0 0)
(228.5363942 0 0)
(228.5389759 0 0)
(228.5416524 0 0)
(228.5443799 0 0)
(228.5470864 0 0)
(228.5497191 0 0)
(228.5522802 0 0)
(228.5547964 0 0)
(228.5572991 0 0)
(228.5598231 0 0)
(228.5624155 0 0)
(228.5651205 0 0)
(228.5679543 0 0)
(228.570895 0 0)
(228.5738742 0 0)
(228.576805 0 0)
(228.5796455 0 0)
(228.5824114 0 0)
(228.5851374 0 0)
(228.5878598 0 0)
(228.5906209 0 0)
(228.5934742 0 0)
(228.5964586 0 0)
(228.5995742 0 0)
(228.6027655 0 0)
(228.60593 0 0)
(228.6089889 0 0)
(228.6119406 0 0)
(228.6148181 0 0)
(228.6176662 0 0)
(228.620534 0 0)
(228.623485 0 0)
(228.6265874 0 0)
(228.6298687 0 0)
(228.6332924 0 0)
(228.6367528 0 0)
(228.6401247 0 0)
(228.6433532 0 0)
(228.64646 0 0)
(228.649498 0 0)
(228.6525245 0 0)
(228.6556108 0 0)
(228.6588506 0 0)
(228.6623105 0 0)
(228.665992 0 0)
(228.6698271 0 0)
(228.6736827 0 0)
(228.6774253 0 0)
(228.6810223 0 0)
(228.6845218 0 0)
(228.6879885 0 0)
(228.6914984 0 0)
(228.69515 0 0)
(228.6990372 0 0)
(228.7032005 0 0)
(228.7076012 0 0)
(228.7121135 0 0)
(228.7165568 0 0)
(228.7208229 0 0)
(228.7249454 0 0)
(228.7289991 0 0)
(228.7330652 0 0)
(228.7372402 0 0)
(228.7416449 0 0)
(228.7463723 0 0)
(228.7514294 0 0)
(228.7567111 0 0)
(228.7619983 0 0)
(228.7670801 0 0)
(228.7719139 0 0)
(228.7765628 0 0)
(228.781127 0 0)
(228.7857085 0 0)
(228.790427 0 0)
(228.7954244 0 0)
(228.8007845 0 0)
(228.8064832 0 0)
(228.8123375 0 0)
(228.8180637 0 0)
(228.8234773 0 0)
(228.8285871 0 0)
(228.8334878 0 0)
(228.838304 0 0)
(228.843163 0 0)
(228.8482183 0 0)
(228.8536274 0 0)
(228.8594461 0 0)
(228.865575 0 0)
(228.8717196 0 0)
(228.8775628 0 0)
(228.8830154 0 0)
(228.888142 0 0)
(228.8930832 0 0)
(228.8979842 0 0)
(228.9030261 0 0)
(228.9084304 0 0)
(228.9143462 0 0)
(228.9207826 0 0)
(228.9275219 0 0)
(228.9341362 0 0)
(228.9402945 0 0)
(228.9459862 0 0)
(228.9513338 0 0)
(228.9565176 0 0)
(228.9617462 0 0)
(228.9672582 0 0)
(228.9733018 0 0)
(228.9800258 0 0)
(228.9873692 0 0)
(228.9949283 0 0)
(229.0021641 0 0)
(229.0088285 0 0)
(229.0149639 0 0)
(229.0207633 0 0)
(229.0264819 0 0)
(229.0323652 0 0)
(229.0386854 0 0)
(229.0456915 0 0)
(229.0534612 0 0)
(229.0617386 0 0)
(229.0699625 0 0)
(229.0776358 0 0)
(229.0845897 0 0)
(229.0909486 0 0)
(229.0970223 0 0)
(229.1030749 0 0)
(229.1093942 0 0)
(229.116359 0 0)
(229.1242646 0 0)
(229.1330577 0 0)
(229.1422254 0 0)
(229.151051 0 0)
(229.1590076 0 0)
(229.1661118 0 0)
(229.1726259 0 0)
(229.1788275 0 0)
(229.1850367 0 0)
(229.1916581 0 0)
(229.199332 0 0)
(229.2084577 0 0)
(229.2187464 0 0)
(229.2291151 0 0)
(229.2385391 0 0)
(229.2468241 0 0)
(229.2545118 0 0)
(229.2618824 0 0)
(229.2690732 0 0)
(229.2763834 0 0)
(229.2844488 0 0)
(229.2941459 0 0)
(229.3056572 0 0)
(229.3179623 0 0)
(229.3296438 0 0)
(229.3402876 0 0)
(229.3507901 0 0)
(229.3620689 0 0)
(229.3777304 0 0)
(229.3981447 0 0)
(229.413784 0 0)
(229.3971443 0 0)
(229.1518934 0 0)
(227.8123594 0 0)
(222.6099115 0 0)
(206.9566943 0 0)
(170.9103487 0 0)
(114.9230614 0 0)
(62.18992887 0 0)
(30.02363107 0 0)
(13.68280159 0 0)
(6.060893261 0 0)
(2.650104612 0 0)
(1.152068366 0 0)
(0.4995623039 0 0)
(0.2163795681 0 0)
(0.09367587518 0 0)
(0.04054536618 0 0)
(0.01754717215 0 0)
(0.007593588256 0 0)
(0.003286014539 0 0)
(0.001421926047 0 0)
(0.0006152698672 0 0)
(0.0002662078683 0 0)
(0.00011516709 0 0)
(4.981280208e-05 0 0)
(2.153530015e-05 0 0)
(9.299058036e-06 0 0)
(4.006487918e-06 0 0)
(1.713480774e-06 0 0)
(7.192680175e-07 0 0)
(2.972337377e-07 0 0)
(1.141607889e-07 0 0)
(3.518445337e-08 0 0)
(-7.213046488e-10 0 0)
(-1.242567675e-08 0 0)
(-1.988477181e-08 0 0)
(-2.713177204e-08 0 0)
(-2.788542001e-08 0 0)
(-2.881443378e-08 0 0)
(-3.045728878e-08 0 0)
(-2.609047521e-08 0 0)
(-2.565517944e-08 0 0)
(-2.456177661e-08 0 0)
(-2.566933542e-08 0 0)
(-2.593879373e-08 0 0)
(-2.695100919e-08 0 0)
(-2.72165052e-08 0 0)
(-2.797081306e-08 0 0)
(-2.796081775e-08 0 0)
(-2.880777944e-08 0 0)
(-2.795823152e-08 0 0)
(-2.64871914e-08 0 0)
(-2.451220257e-08 0 0)
(-2.597457254e-08 0 0)
(-2.264293868e-08 0 0)
(-2.01488141e-08 0 0)
(-2.12482421e-08 0 0)
(-2.161617186e-08 0 0)
(-2.595329884e-08 0 0)
(-2.906484999e-08 0 0)
(-2.803319107e-08 0 0)
(-2.75433076e-08 0 0)
(-2.746534772e-08 0 0)
(-2.659304319e-08 0 0)
(-2.379469593e-08 0 0)
(-2.00602135e-08 0 0)
(-1.902070666e-08 0 0)
(-1.739287326e-08 0 0)
(-1.682380077e-08 0 0)
(-1.595738206e-08 0 0)
(-1.488679609e-08 0 0)
(-1.745657699e-08 0 0)
(-1.858995567e-08 0 0)
(-2.104563798e-08 0 0)
(-2.012842625e-08 0 0)
(-2.373347163e-08 0 0)
(-2.563967035e-08 0 0)
(-2.682557088e-08 0 0)
(-2.525525794e-08 0 0)
(-2.539317205e-08 0 0)
(-2.54604782e-08 0 0)
(-2.709894945e-08 0 0)
(-2.757493737e-08 0 0)
(-3.073479841e-08 0 0)
(-3.004112015e-08 0 0)
(-3.054476778e-08 0 0)
(-2.934822321e-08 0 0)
(-3.099627042e-08 0 0)
(-2.873674312e-08 0 0)
(-3.066186174e-08 0 0)
(-3.135961813e-08 0 0)
(-3.594315763e-08 0 0)
(-3.050928652e-08 0 0)
(-3.413953664e-08 0 0)
(-3.073664783e-08 0 0)
(-3.130295331e-08 0 0)
(-3.326455093e-08 0 0)
(-3.338460439e-08 0 0)
(-2.937853355e-08 0 0)
(-3.020199644e-08 0 0)
(-2.9938504e-08 0 0)
(-3.101833787e-08 0 0)
(-2.813176678e-08 0 0)
(-3.002604654e-08 0 0)
(-2.770890994e-08 0 0)
(-2.707300553e-08 0 0)
(-2.729916514e-08 0 0)
(-3.46646047e-08 0 0)
(-3.035113504e-08 0 0)
(-2.441518226e-08 0 0)
(-2.287037722e-08 0 0)
(-1.973833639e-08 0 0)
(-1.968520337e-08 0 0)
(-2.148286666e-08 0 0)
(-2.203434016e-08 0 0)
(-2.476274413e-08 0 0)
(-2.479250279e-08 0 0)
(-2.596123765e-08 0 0)
(-2.55853584e-08 0 0)
(-2.653848564e-08 0 0)
(-2.588725545e-08 0 0)
(-2.639407588e-08 0 0)
(-2.52661463e-08 0 0)
(-2.499841394e-08 0 0)
(-2.269765187e-08 0 0)
(-2.093596936e-08 0 0)
(-2.109865017e-08 0 0)
(-1.872751333e-08 0 0)
(-2.006224807e-08 0 0)
(-2.085430452e-08 0 0)
(-2.35708294e-08 0 0)
(-2.317487804e-08 0 0)
(-2.251006535e-08 0 0)
(-2.131282858e-08 0 0)
(-2.322746717e-08 0 0)
(-2.524801806e-08 0 0)
(-2.253073128e-08 0 0)
(-2.002004231e-08 0 0)
(-2.287699782e-08 0 0)
(-2.718307159e-08 0 0)
(-2.623981667e-08 0 0)
(-2.261187091e-08 0 0)
(-1.764625004e-08 0 0)
(-1.197135738e-08 0 0)
(-1.50225956e-08 0 0)
(-1.298715431e-08 0 0)
(-1.066276053e-08 0 0)
(-1.042802795e-08 0 0)
(-9.915401794e-09 0 0)
(-7.482252868e-09 0 0)
(-8.811647428e-09 0 0)
(-3.218754645e-09 0 0)
(-6.104047032e-09 0 0)
(-4.205305282e-09 0 0)
(-9.852827214e-09 0 0)
(-1.253799964e-08 0 0)
(-1.385234691e-08 0 0)
(-1.600038922e-08 0 0)
(-1.951393751e-08 0 0)
(-1.965521261e-08 0 0)
(-1.930429793e-08 0 0)
(-2.157042314e-08 0 0)
(-2.059302074e-08 0 0)
(-1.486210468e-08 0 0)
(-1.428394879e-08 0 0)
(-1.230914488e-08 0 0)
(-1.213036328e-08 0 0)
(-1.276360797e-08 0 0)
(-1.472368899e-08 0 0)
(-1.385506078e-08 0 0)
(-1.262043514e-08 0 0)
(-1.480008465e-08 0 0)
(-1.453529559e-08 0 0)
(-1.571172294e-08 0 0)
(-1.761135468e-08 0 0)
(-1.737764996e-08 0 0)
(-1.639782315e-08 0 0)
(-1.618302928e-08 0 0)
(-1.393631666e-08 0 0)
(-1.404973323e-08 0 0)
(-1.148195413e-08 0 0)
(-1.514391703e-08 0 0)
(-1.457874599e-08 0 0)
(-1.838064388e-08 0 0)
(-1.49719527e-08 0 0)
(-1.565224338e-08 0 0)
(-1.605319367e-08 0 0)
(-2.070585254e-08 0 0)
(-1.82398642e-08 0 0)
(-1.940809145e-08 0 0)
(-1.639999467e-08 0 0)
(-1.340594853e-08 0 0)
(-1.823047613e-08 0 0)
(-1.793204669e-08 0 0)
(-1.765366613e-08 0 0)
(-1.513506488e-08 0 0)
(-1.86618769e-08 0 0)
(-2.075649091e-08 0 0)
(-1.650738319e-08 0 0)
(-1.281983035e-08 0 0)
(-1.626217507e-08 0 0)
(-1.595679419e-08 0 0)
(-1.436990404e-08 0 0)
(-1.829313917e-08 0 0)
(-1.655658162e-08 0 0)
(-1.578273347e-08 0 0)
(-1.61491556e-08 0 0)
(-1.74478832e-08 0 0)
(-2.187817787e-08 0 0)
(-1.674040086e-08 0 0)
(-1.780462787e-08 0 0)
(-1.276512538e-08 0 0)
(-1.753535832e-08 0 0)
(-1.36634079e-08 0 0)
(-1.822522331e-08 0 0)
(-1.210834825e-08 0 0)
(-2.008836457e-08 0 0)
(-6.791564008e-09 0 0)
(-1.731849787e-08 0 0)
(-1.002900823e-08 0 0)
(-1.749716867e-08 0 0)
(-1.205110467e-08 0 0)
(-2.059420139e-08 0 0)
(-1.475276958e-08 0 0)
(-1.659757634e-08 0 0)
(-9.440697438e-09 0 0)
(-1.164435625e-08 0 0)
(-1.190027571e-08 0 0)
(-1.39370364e-08 0 0)
(-1.155989713e-08 0 0)
(-1.346765732e-08 0 0)
(-1.208802401e-08 0 0)
(-9.223448407e-09 0 0)
(-8.607421035e-09 0 0)
(-5.196545053e-09 0 0)
(-4.34038719e-09 0 0)
(-9.764353258e-10 0 0)
(-1.683194954e-09 0 0)
(-9.9688373e-10 0 0)
(-3.609280542e-09 0 0)
(-5.80653291e-09 0 0)
(-6.103257727e-09 0 0)
(-1.420813538e-08 0 0)
(-1.247673029e-08 0 0)
(-1.108734547e-08 0 0)
(-1.274067885e-08 0 0)
(-1.570424349e-08 0 0)
(-1.19199564e-08 0 0)
(-8.994543597e-09 0 0)
(-1.063514456e-08 0 0)
(-1.198802352e-08 0 0)
(-1.09653953e-08 0 0)
(-7.668031399e-09 0 0)
(-9.867746524e-09 0 0)
(-9.651560366e-09 0 0)
(-1.325512378e-08 0 0)
(-1.345529664e-08 0 0)
(-9.53254525e-09 0 0)
(-3.041038363e-09 0 0)
(-3.953412021e-10 0 0)
(3.826141323e-09 0 0)
(2.902864834e-09 0 0)
(-1.590585283e-09 0 0)
(-1.454921287e-09 0 0)
(-2.255695354e-09 0 0)
(-4.623786545e-10 0 0)
(-1.239575458e-10 0 0)
(-3.405336868e-11 0 0)
(-2.665135941e-09 0 0)
(-3.014023774e-09 0 0)
(-6.898102043e-09 0 0)
(-6.56276182e-09 0 0)
(-6.383645619e-09 0 0)
(-4.849723409e-09 0 0)
(-1.231971823e-08 0 0)
(-9.932084194e-09 0 0)
(-1.097821164e-08 0 0)
(-1.759015275e-08 0 0)
(-1.594433255e-08 0 0)
(-2.021815468e-08 0 0)
(-2.053617174e-08 0 0)
(-1.860925094e-08 0 0)
(-1.443596144e-08 0 0)
(-1.468250679e-08 0 0)
(-1.556765241e-08 0 0)
(-1.386540148e-08 0 0)
(-1.001010168e-08 0 0)
(-8.516705143e-09 0 0)
(-8.009686207e-09 0 0)
(-8.086775369e-09 0 0)
(-5.32931482e-09 0 0)
(-6.366824009e-09 0 0)
(-3.246900051e-09 0 0)
(-4.427773524e-09 0 0)
(-8.217971493e-09 0 0)
(-7.454770908e-09 0 0)
(-9.557090789e-09 0 0)
(-1.030940687e-08 0 0)
(-9.573589008e-09 0 0)
(-1.247544377e-08 0 0)
(-1.222123752e-08 0 0)
(-1.663324598e-08 0 0)
(-1.783975074e-08 0 0)
(-1.311737699e-08 0 0)
(-1.46061238e-08 0 0)
(-9.528381533e-09 0 0)
(-6.788972945e-09 0 0)
(-1.145093315e-08 0 0)
(-1.096664551e-08 0 0)
(-1.226615548e-08 0 0)
(-1.140192638e-08 0 0)
(-1.147262983e-08 0 0)
(-1.208340101e-08 0 0)
(-1.345952607e-08 0 0)
(-1.373527764e-08 0 0)
(-1.100399736e-08 0 0)
(-3.851212427e-09 0 0)
(-5.745503365e-09 0 0)
(-4.815176249e-09 0 0)
(-2.528856105e-09 0 0)
(1.7153234e-09 0 0)
(-2.29991397e-09 0 0)
(-5.218249484e-09 0 0)
(-4.84594433e-09 0 0)
(-5.688298439e-09 0 0)
(-6.432762363e-09 0 0)
(-3.392242745e-09 0 0)
(-7.635394123e-09 0 0)
(-6.104201398e-09 0 0)
(-7.607304844e-09 0 0)
(-6.926999473e-09 0 0)
(-7.001305661e-09 0 0)
(-4.893137973e-09 0 0)
(-7.112610337e-09 0 0)
(-3.092448735e-09 0 0)
(-3.300995208e-09 0 0)
(3.545605177e-09 0 0)
(-4.407871901e-09 0 0)
(-5.819104468e-10 0 0)
(-6.376720663e-09 0 0)
(2.197773177e-09 0 0)
(-3.19548423e-09 0 0)
(2.189607177e-09 0 0)
(4.29259294e-09 0 0)
(8.607160178e-09 0 0)
(2.623115793e-09 0 0)
(4.253127295e-09 0 0)
(5.295800138e-09 0 0)
(6.278264215e-09 0 0)
(5.128307338e-09 0 0)
(3.507693749e-09 0 0)
(1.577009831e-09 0 0)
(4.517644544e-09 0 0)
(-2.81169644e-09 0 0)
(4.799728478e-09 0 0)
(9.621304521e-09 0 0)
(8.172255319e-09 0 0)
(6.107959868e-09 0 0)
(6.803702e-09 0 0)
(5.849080107e-09 0 0)
(7.187838157e-09 0 0)
(2.394294323e-09 0 0)
(3.915922411e-09 0 0)
(5.970272269e-09 0 0)
(5.015823601e-09 0 0)
(2.886095411e-09 0 0)
(5.317501342e-09 0 0)
(6.152361368e-09 0 0)
(7.214410303e-09 0 0)
(8.999204149e-09 0 0)
(8.797668863e-09 0 0)
(8.952925237e-09 0 0)
(7.000721346e-09 0 0)
(4.205843476e-09 0 0)
(1.226859947e-09 0 0)
(-5.262402037e-10 0 0)
(-1.310277422e-09 0 0)
(-1.450525339e-10 0 0)
(-3.358728182e-09 0 0)
(-4.254605435e-09 0 0)
(-7.064349122e-09 0 0)
(-4.174605427e-09 0 0)
(-1.733436314e-09 0 0)
(-2.64070545e-09 0 0)
(-4.443147954e-09 0 0)
(-9.68232379e-09 0 0)
(-1.129857705e-08 0 0)
(-1.306090904e-08 0 0)
(-1.23795576e-08 0 0)
(-1.060861489e-08 0 0)
(-1.09200202e-08 0 0)
(-1.08464484e-08 0 0)
(-1.080037655e-08 0 0)
(-1.331229997e-08 0 0)
(-1.383030199e-08 0 0)
(-1.536952495e-08 0 0)
(-1.37080996e-08 0 0)
(-1.146167895e-08 0 0)
(-8.149589936e-09 0 0)
(-5.03657749e-09 0 0)
(-4.046553242e-09 0 0)
(-1.192769045e-09 0 0)
(-2.593742e-09 0 0)
(-2.107282402e-09 0 0)
(-2.59066165e-09 0 0)
(-3.704815653e-09 0 0)
(-2.81858522e-09 0 0)
(-5.809286506e-09 0 0)
(-5.236745109e-09 0 0)
(-6.42866732e-09 0 0)
(-6.58356607e-09 0 0)
(-1.092297096e-08 0 0)
(-3.136949334e-09 0 0)
(-2.329310991e-09 0 0)
(-5.6080284e-09 0 0)
(-5.364289917e-09 0 0)
(-5.719154156e-09 0 0)
(-5.553089653e-09 0 0)
(-5.218315022e-09 0 0)
(-6.903645746e-09 0 0)
(-8.419265857e-09 0 0)
(-1.306260951e-08 0 0)
(-1.146002134e-08 0 0)
(-9.886313731e-09 0 0)
(-1.367611131e-08 0 0)
(-9.321240058e-09 0 0)
(-1.271018577e-08 0 0)
(-1.210259312e-08 0 0)
(-1.291618435e-08 0 0)
(-1.507115164e-08 0 0)
(-1.475338284e-08 0 0)
(-1.230736787e-08 0 0)
(-1.179198694e-08 0 0)
(-9.313129828e-09 0 0)
(-9.719904806e-09 0 0)
(-8.930712485e-09 0 0)
(-6.460587116e-09 0 0)
(-5.292478854e-09 0 0)
(-5.250667951e-09 0 0)
(-6.790542776e-09 0 0)
(-1.841558633e-09 0 0)
(-1.997530163e-09 0 0)
(-1.687923579e-09 0 0)
(-1.724963185e-09 0 0)
(-4.821548067e-09 0 0)
(-3.79018812e-09 0 0)
(-3.97124739e-09 0 0)
(-1.391709831e-09 0 0)
(-2.768463529e-09 0 0)
(-2.201078764e-09 0 0)
(-1.233434558e-10 0 0)
(5.252531338e-09 0 0)
(1.563584381e-09 0 0)
(9.609242767e-10 0 0)
(-2.150766345e-09 0 0)
(-3.784527227e-09 0 0)
(-3.44041621e-09 0 0)
(-2.037878293e-09 0 0)
(-5.099791551e-09 0 0)
(-4.541370481e-10 0 0)
(-1.535225309e-09 0 0)
(9.908384494e-11 0 0)
(-2.471928129e-10 0 0)
(4.032839212e-09 0 0)
(-5.113298346e-10 0 0)
(6.363648318e-09 0 0)
(-7.213070397e-10 0 0)
(7.559744094e-09 0 0)
(8.003142086e-09 0 0)
(1.105912409e-08 0 0)
(6.733961639e-09 0 0)
(6.483698943e-09 0 0)
(5.564404924e-09 0 0)
(1.017631611e-08 0 0)
(4.442398461e-09 0 0)
(6.605584671e-09 0 0)
(7.719024428e-09 0 0)
(1.039271809e-08 0 0)
(7.017011261e-09 0 0)
(8.655058699e-09 0 0)
(6.250078554e-09 0 0)
(5.016003654e-09 0 0)
(3.277919365e-09 0 0)
(8.096859752e-09 0 0)
(3.266089985e-09 0 0)
(7.282212066e-09 0 0)
(7.027926588e-09 0 0)
(4.24080153e-09 0 0)
(4.58176284e-09 0 0)
(4.513088124e-09 0 0)
(5.671506592e-09 0 0)
(4.587089178e-09 0 0)
(5.035607616e-09 0 0)
(5.434746232e-09 0 0)
(2.233470372e-09 0 0)
(4.664305746e-09 0 0)
(2.474273926e-09 0 0)
(6.784920431e-09 0 0)
(8.48641593e-09 0 0)
(6.196178413e-09 0 0)
(6.591050289e-09 0 0)
(4.286571002e-09 0 0)
(3.491094664e-09 0 0)
(-2.253557628e-10 0 0)
(-1.957922394e-10 0 0)
(-5.892135214e-10 0 0)
(-1.652376247e-09 0 0)
(-6.369023696e-10 0 0)
(-7.797150152e-10 0 0)
(1.019090892e-09 0 0)
(3.697111012e-10 0 0)
(-4.373706635e-09 0 0)
(-4.774473087e-09 0 0)
(-6.002882339e-09 0 0)
(-6.142735409e-09 0 0)
(-8.047210819e-09 0 0)
(-1.247948788e-08 0 0)
(-1.195697295e-08 0 0)
(-1.536093799e-08 0 0)
(-1.303651086e-08 0 0)
(-1.280582119e-08 0 0)
(-1.54875018e-08 0 0)
(-1.850220228e-08 0 0)
(-1.517295062e-08 0 0)
(-1.296603087e-08 0 0)
(-1.568373856e-08 0 0)
(-1.552186116e-08 0 0)
(-1.69145355e-08 0 0)
(-1.450656258e-08 0 0)
(-1.215404703e-08 0 0)
(-1.399789702e-08 0 0)
(-1.132850873e-08 0 0)
(-1.10797792e-08 0 0)
(-1.178150964e-08 0 0)
(-1.519488199e-08 0 0)
(-8.763702312e-09 0 0)
(-1.53226338e-09 0 0)
(-3.662266766e-09 0 0)
(-4.421911694e-09 0 0)
(-5.924353572e-09 0 0)
(-5.671899248e-09 0 0)
(-4.366722789e-09 0 0)
(-5.996589179e-09 0 0)
(-4.321306202e-09 0 0)
(-3.934879285e-09 0 0)
(-2.583544286e-09 0 0)
(5.831267169e-09 0 0)
(1.828481219e-09 0 0)
(1.779518204e-09 0 0)
(-4.092552922e-10 0 0)
(1.4187422e-09 0 0)