/*--------------------------------*- C++ -*----------------------------------*\
| =========                 |                                                 |
| \\      /  F ield         | OpenFOAM: The Open Source CFD Toolbox           |
|  \\    /   O peration     | Version:  2312                                  |
|   \\  /    A nd           | Website:  www.openfoam.com                      |
|    \\/     M anipulation  |                                                 |
\*---------------------------------------------------------------------------*/
FoamFile
{
    version     2.0;
    format      ascii;
    arch        "LSB;label=32;scalar=64";
    class       volScalarField;
    location    "0.0001";
    object      alphat;
}
// * * * * * * * * * * * * * * * * * * * * * * * * * * * * * * * * * * * * * //

dimensions      [1 -1 -1 0 0 0 0];

internalField   nonuniform List<scalar> 
109340
(
0.47631564426391
0.32666435341545
0.17628750427239
0.14732202029158
0.14270932760828
0.14562738965728
0.15105454514059
0.1605249860464
0.13990739577966
0.12444158986513
0.11220115179186
0.10221632821987
0.093897108930336
0.086851282375294
0.080803989127848
0.075555459726652
0.070956431593442
0.066892883491679
0.06327608868646
0.060035893509861
0.057116038146961
0.054470816689232
0.052062644871037
0.049860260032216
0.047837366416638
0.045971593662593
0.044243669343855
0.042636734801032
0.041135737735027
0.039726827535089
0.038396649005731
0.037131337889128
0.035914777460316
0.034725068504345
0.033526378568742
0.032250003879354
0.47078149583146
0.22830156798799
0.16724913615644
0.15299590626452
0.15196800037737
0.15499470186767
0.13876351599129
0.12070779205507
0.10667883766057
0.09557229040655
0.086580251910901
0.079155945108892
0.072924044371956
0.067619698857426
0.063050901522794
0.059075087350999
0.055584187306208
0.052494779596178
0.049741425177471
0.047272019530539
0.045044472069902
0.043024337753394
0.041183113766658
0.039496992850191
0.037945908026475
0.036512774899075
0.035182877787954
0.033943340901136
0.032782635337667
0.031690079321923
0.030655230538908
0.029666989303326
0.028712019668809
0.027771574133326
0.026813975487277
0.025775175418492
0.27650246056395
0.19485086897754
0.16794970143891
0.15763572059471
0.12610543790201
0.10513216379911
0.089923727622407
0.078462320920691
0.069554655874209
0.062462469717751
0.056699102850069
0.051932003535107
0.04792829226824
0.044521071237061
0.041588073083133
0.039037903232039
0.036800977214672
0.03482341250886
0.033062705313694
0.031484568202996
0.030060910449754
0.028768628886093
0.02758875504856
0.026505707852731
0.025506548470228
0.024580448529304
0.023718258439334
0.022912002085795
0.02215461934439
0.021439563251395
0.020760374992854
0.020110145986548
0.019480370705858
0.018859127674497
0.018226766431786
0.017539724054046
0.15890294625105
0.16051071238183
0.10073421647271
0.073332750859517
0.057686698550508
0.047583536756875
0.04054210330397
0.035365375093485
0.031407198622394
0.028288355196427
0.025771747767151
0.02370137828472
0.021970420685192
0.02050336209096
0.019245457776176
0.018156122455987
0.017204564686396
0.0163666519357
0.015620799863804
0.01494850942241
0.014336006555001
0.013773519245889
0.013253960518394
0.012772051949485
0.012323683295327
0.011905480112452
0.011514284046464
0.011147681279318
0.010803357069385
0.010479040343748
0.010172143541641
0.0098787848625081
0.0095926618772102
0.0093059515505968
0.0090093136850717
0.0086816590052695
0.095697379657808
0.031283090346631
0.019022162694153
0.013794719829803
0.010914146080203
0.0091058679468452
0.0078758072345218
0.0069919279445458
0.0063308516144032
0.005821525815915
0.0054204337793924
0.005099976794704
0.0048418756215328
0.0046338162600435
0.00446742241223
0.0043368276814963
0.0042368486702683
0.0041588410673042
0.0040885668730167
0.0040183762552162
0.0039475672571749
0.0038783938203384
0.0038132560915478
0.0037537867766407
0.0037008653319712
0.0036548836522922
0.0036158649764808
0.0035835934734877
0.0035581225411844
0.0035390046295583
0.0035251783038085
0.0035154594832146
0.0035081376925549
0.003499972934929
0.0034826928816816
0.0034322872614216
0.00024098591672655
0.00035968029758501
0.00046277157416602
0.00054320343891754
0.00060069002086702
0.00063859403962752
0.00066137468237416
0.00067320747096801
0.00067741527103965
0.00067675444106944
0.00067281999788422
0.00066686859399805
0.00065976412644119
0.00065208936656421
0.00064423505995563
0.0006364788627772
0.00062900078540069
0.00062192055083953
0.00061536034681262
0.00060947014558328
0.00060411177016414
0.00059919279486019
0.00059466127502516
0.00059048135492719
0.00058661807774732
0.00058303122259825
0.00057967199492124
0.00057647940344684
0.0005733733772109
0.00057024345039736
0.00056692985107024
0.00056317702310963
0.0005585517677563
0.00055215975385347
0.00054137244470764
0.00051452208058803
0.028510709875721
0.015335136614097
0.0082624814173355
0.0050944912208178
0.0034049133551098
0.0022971411990581
0.0015530857171786
0.0010362256427606
0.0006995612207556
0.00051151320103451
0.00041887541646903
0.00041595375128363
0.00038055956639233
0.00034130880149058
0.00029487626284483
0.00024820551540694
0.00020767446989322
0.00017281758519974
0.00014429873026142
0.00012188508127259
0.00010339386620906
8.7988372963473e-05
7.3882661640837e-05
5.9728844057684e-05
4.882228299489e-05
4.0382165970414e-05
3.3651720649677e-05
2.8212051369665e-05
2.4030412795732e-05
2.0416701221333e-05
1.7662111969323e-05
1.5236092824191e-05
1.3309761660173e-05
1.164138531337e-05
1.0261970502335e-05
9.0747628789303e-06
8.072126819492e-06
7.1996040404138e-06
6.4623590053087e-06
5.802500056669e-06
5.2524208753527e-06
4.7427721352484e-06
4.3244758845738e-06
3.9265469563662e-06
3.6011976055785e-06
3.2892399377639e-06
3.0297569813542e-06
2.7861229892222e-06
2.5735225279373e-06
2.3816889072901e-06
2.2058974675611e-06
2.0486558901246e-06
1.9058423966834e-06
1.7763726484324e-06
1.6583713676874e-06
1.5506969702876e-06
1.4521571954939e-06
1.3618693469994e-06
1.278990294695e-06
1.2027885760539e-06
1.1325728969328e-06
1.0677556141622e-06
1.0078281457351e-06
9.5234405925605e-07
9.0089257411794e-07
8.5309582334158e-07
8.0862800707736e-07
2.2207431381359e-06
0.00021394685140152
0.00096791257433783
0.00092490833323043
0.00082575949034143
0.00075014793061854
0.00069251537087982
0.00064523266567537
0.00060022758325645
0.00055037608063135
0.00049105250659819
0.00042489026956861
0.00037095336375007
0.00036100355735735
0.00038988217504527
0.0004128309023323
0.00041114517450057
0.00039364547940356
0.00037799853186715
0.00036616736492419
0.00035777132486497
0.00035157729965179
0.00034687518125874
0.00034278474827178
0.00033893939659513
0.00033481159302017
0.00033018599044702
0.00032485770679736
0.00031871788258209
0.00031170688226407
0.00030379167641132
0.00029499681827487
0.00028542415060046
0.00027521556492932
0.00026454193839052
0.00025358534260176
0.00024251488482249
0.00022880532905126
0.00021808835360849
0.00020770642203524
0.00019787954738803
0.00018875317225152
0.00018044549337639
0.0001730316571591
0.00016652126167866
0.00016083719599372
0.00015586203254152
0.00015147619004848
0.00014765275053452
0.00014432029083304
0.00014139531721548
0.00013878585636491
0.00013643351518724
0.00013429252484992
0.00013233626976615
0.0001305511431933
0.00012890899418859
0.0001273548294668
0.00012591311594357
0.00012458440209327
0.00012337386639287
0.00012223506122055
0.00012110057915867
0.00011992237104178
0.00011866505249122
0.00011731993701212
0.00011597049545284
0.00011456670624773
0.00011323130786876
0.0001116924245091
0.00011042687424312
0.00010704994937206
9.5450049487036e-05
0.021853899486965
0.011844777174277
0.0069709582394049
0.0045436776235881
0.0030358899058368
0.0020533265197453
0.0013777227465038
0.00091674539118291
0.00060996656403305
0.00041358684274608
0.00029275885557918
0.00022379996032272
0.00018346246713209
0.00015469172321761
0.00013427113977752
0.00011882053512763
0.00010652609878078
9.6578177844213e-05
8.7538062694817e-05
7.933656505162e-05
7.2066973663511e-05
6.5627350610879e-05
5.9815458841393e-05
5.4618883858131e-05
4.5604707335371e-05
3.7743398445984e-05
3.1538074631209e-05
2.6580486143594e-05
2.2588076720861e-05
1.934033881713e-05
1.6670065005485e-05
1.4469577788862e-05
1.2627186425417e-05
1.1086960872347e-05
9.7782591596996e-06
8.6699676885601e-06
7.717021061282e-06
6.9016432764593e-06
6.1935079822558e-06
5.5815118757423e-06
5.0451939671223e-06
4.5774636348219e-06
4.1640502366922e-06
3.8002086312015e-06
3.4767996990085e-06
3.1894428734498e-06
2.9329799309709e-06
2.7032111231255e-06
2.4975012238272e-06
2.3120455846605e-06
2.1448954555212e-06
1.9933074678804e-06
1.8559162049704e-06
1.730937984597e-06
1.6170546582426e-06
1.5130126671235e-06
1.4177820841423e-06
1.3304509730038e-06
1.2502139737795e-06
1.1763594020847e-06
1.1082589015048e-06
1.0453560123847e-06
9.8715617060312e-07
9.3322340913393e-07
8.8317396837405e-07
8.3667419610112e-07
7.9285642012902e-07
9.7770535780844e-06
0.00047284349502467
0.00098396257209896
0.0008971185233291
0.00080383826215928
0.0007336545006838
0.00067951393538809
0.00063365078355909
0.00058819343314749
0.00053646482665344
0.00047499711713349
0.00040948774079446
0.00036364990091633
0.00036592706102473
0.00039733647975305
0.0004147976663433
0.00040873778982836
0.00039421738540875
0.00037864525987602
0.00036691103850034
0.00035861332861657
0.00035251858347702
0.00034789399502339
0.00034390656736867
0.00034012104320973
0.00033607282440043
0.00033152108480036
0.00032625801411824
0.00032017354351256
0.00031321349770351
0.00030534323988719
0.00029658823110799
0.00028704984584526
0.00027686886651649
0.00026621524947896
0.00025527577953034
0.00024422054205448
0.00023052248001123
0.00021980920926538
0.00020943535990006
0.00019961894109421
0.00019050183565042
0.00018219639985246
0.00017477234421905
0.0001682430408932
0.00016253137391835
0.00015751347507197
0.00015307544293134
0.00014919239264888
0.00014579759568433
0.00014280484899096
0.00014012308266313
0.00013769586393548
0.00013548093647552
0.00013345353556168
0.00013159458521476
0.00012987672326735
0.00012824714751935
0.00012673825016824
0.00012534615881884
0.00012406184462348
0.00012285612360267
0.00012165571064406
0.00012041404157012
0.00011910011337362
0.00011770441560439
0.00011629346231774
0.00011482826487511
0.00011342893435237
0.00011187433393557
0.00011045657794749
0.00010651627310299
9.4977950064556e-05
0.015925827018023
0.0079274907208026
0.0047702814648017
0.0031983379034843
0.0021384170504667
0.0014583994599947
0.00099358253049567
0.00068679450891389
0.00048411985414635
0.00035027907990822
0.00026886928954546
0.00021240591947386
0.0001743194212624
0.00014689601598493
0.00012575118640243
0.00010885034628161
9.5327797848684e-05
8.4043177936544e-05
7.3959447895936e-05
6.5355075396462e-05
5.8334261147703e-05
5.2386406642579e-05
4.7307091867976e-05
4.3115540152103e-05
3.9560423685344e-05
3.644935159235e-05
3.0854591281987e-05
2.6012892139248e-05
2.2106906552317e-05
1.8931799881772e-05
1.6322894896097e-05
1.4166852468565e-05
1.2371242706305e-05
1.0862672354439e-05
9.5889654476129e-06
8.5041056277341e-06
7.5767529111394e-06
6.777731617306e-06
6.0877001789275e-06
5.4876395856581e-06
4.9643129084921e-06
4.5053541245812e-06
4.1010287218623e-06
3.7441524827593e-06
3.4270116346744e-06
3.1453926761319e-06
2.8932888120456e-06
2.6682528133631e-06
2.4657022426902e-06
2.2837105947022e-06
2.1191894504168e-06
1.9703666181366e-06
1.8351746492217e-06
1.7120927129933e-06
1.5999067548949e-06
1.497395538689e-06
1.4035670226098e-06
1.3174889177312e-06
1.2383744327028e-06
1.1655249136805e-06
1.0983342536277e-06
1.036252601486e-06
9.7879177353953e-07
9.2552394153346e-07
8.7607692037399e-07
8.3013764071192e-07
7.8645938899342e-07
1.0161559523578e-05
0.00048028959128571
0.00098436362088736
0.00089672218447941
0.00080356969503332
0.00073349762645581
0.00067941873724127
0.00063366636086231
0.00058844507596108
0.00053708583208932
0.00047605809106265
0.00041083770483246
0.0003646697985942
0.00036611277228094
0.00039746416203947
0.00041573920731501
0.00041049237236213
0.00039608847785537
0.00038062753263584
0.00036894711505683
0.00036071793116304
0.00035473670550303
0.00035019029554087
0.00034633169057927
0.00034263764189157
0.00033870747971429
0.00033427269900407
0.00032912775786208
0.00032314880015152
0.0003162884912013
0.00030850787943153
0.00029983764216363
0.00029037549524425
0.00028026167699439
0.00026966170606765
0.00025876939338983
0.0002477598314294
0.00023410267829914
0.00022340361452407
0.00021304763845265
0.00020324628718517
0.00019414133943512
0.00018584149794133
0.00017841135178683
0.00017185651342181
0.00016610010455533
0.00016101794314571
0.00015651779415594
0.0001525618865328
0.00014908512810061
0.00014599570182055
0.00014321536315725
0.00014068605232307
0.00013836067116795
0.00013620827834125
0.00013421068061478
0.00013234840770532
0.00013057424882962
0.00012892668354218
0.00012739250492226
0.00012595042217963
0.00012460013792947
0.00012325853672947
0.00012187827783418
0.00012043634382066
0.00011891452163284
0.00011737300812255
0.00011576931363092
0.00011424332874936
0.00011264778266422
0.00011092546306263
0.00010657577835086
9.5124295275131e-05
0.0082841830817368
0.0044225737386699
0.002701825780171
0.0017597044805111
0.0012110994466977
0.00087035146552587
0.00064776960705801
0.00049800818114632
0.00039241951308773
0.00031754437561587
0.00025931893027902
0.00021222510519697
0.00017499945613145
0.00014609329802198
0.00012363546200869
0.00010629615960623
9.2241251706046e-05
8.0601203978116e-05
7.0637676789816e-05
6.189741329598e-05
5.4264358565087e-05
4.8028945981802e-05
4.2920276887901e-05
3.8557935379037e-05
3.4901030676104e-05
3.1910159909032e-05
2.9340656881412e-05
2.5445903275382e-05
2.1639611821679e-05
1.8538015865917e-05
1.599132038588e-05
1.3879587084735e-05
1.2121515023534e-05
1.0643236994009e-05
9.3950284863801e-06
8.3317091997738e-06
7.4231337742459e-06
6.6407385468911e-06
5.9659672935713e-06
5.3788568495326e-06
4.8675411710706e-06
4.4187251843943e-06
4.0244276779422e-06
3.6755635949467e-06
3.3664197482682e-06
3.0908424136184e-06
2.8447910696211e-06
2.6244368930587e-06
2.4263570177435e-06
2.2481530468477e-06
2.0870100432249e-06
1.9412576718775e-06
1.8087469041034e-06
1.6881242093006e-06
1.578027786664e-06
1.4774163893101e-06
1.3852920131821e-06
1.3007590941238e-06
1.2230480466362e-06
1.1514683331706e-06
1.0854183750102e-06
1.0243620303027e-06
9.6783020600854e-07
9.1540832484121e-07
8.6673697314023e-07
8.215076397718e-07
7.7791784647724e-07
1.0669448227457e-05
0.00049118375163277
0.00098487991126287
0.00089619435269356
0.0008031815145288
0.0007332661500673
0.00067928611373866
0.00063369384443083
0.00058880901091137
0.00053797962777044
0.00047759058742428
0.00041279982558953
0.00036617879208419
0.00036640189222648
0.00039760444380232
0.00041701277121863
0.00041294642893618
0.00039887423988437
0.00038357294345392
0.00037194492911328
0.00036378455455327
0.00035792444323637
0.00035349596137791
0.0003497993255009
0.00034628051893779
0.00034252429403023
0.00033825345263951
0.00033326683460226
0.00032742667310457
0.00032069594146879
0.00031303234053491
0.00030446658245532
0.00029509460191773
0.00028505321756833
0.00027450555280435
0.00026364846674384
0.00025267190979378
0.0002390372963812
0.00022834133327051
0.00021798526796424
0.00020818632791194
0.00019907924877523
0.00019076664541567
0.00018330945937684
0.0001767107964038
0.00017089130746488
0.00016572247604325
0.00016113479954065
0.00015707929156758
0.00015348968094402
0.00015027393761669
0.0001473593982606
0.00014468527335784
0.00014220620791046
0.00013988635857319
0.00013770536595337
0.0001356481958376
0.00013367939693757
0.00013183527173089
0.00013010444049525
0.00012845950838679
0.00012691926650478
0.0001253915132963
0.0001238277817154
0.00012220800688936
0.00012051090653742
0.00011879252636071
0.00011700827679784
0.00011529608968936
0.00011354057970692
0.00011163210023496
0.00010708793735865
9.5309521920839e-05
0.0032087340479275
0.0022662847219775
0.0015953626582781
0.0012077551504144
0.00092660761579828
0.00071749341297628
0.00057105449656343
0.00046719653693268
0.00038671269710517
0.00031583363350349
0.00026187605757811
0.0002174919955066
0.00018096074180203
0.00015131144089016
0.0001267917607498
0.00010716219855687
9.1977496421872e-05
7.9427952612677e-05
6.8814881873647e-05
6.0023382984224e-05
5.2744390276037e-05
4.6444301619631e-05
4.1130929877695e-05
3.6787564694793e-05
3.3105175785035e-05
2.9949986325933e-05
2.7316033986408e-05
2.4840273158278e-05
2.1156325519407e-05
1.8143870561358e-05
1.5663180239105e-05
1.3604925206393e-05
1.1884886729909e-05
1.0439325439194e-05
9.216320657023e-06
8.1755836353714e-06
7.2838667650646e-06
6.5174593629411e-06
5.854872269086e-06
5.2795587659996e-06
4.7774518910693e-06
4.3373560370196e-06
3.950037177037e-06
3.6075691243964e-06
3.3040536339255e-06
3.0337166996407e-06
2.7926636337435e-06
2.5765829176239e-06
2.3827158968283e-06
2.2081412656138e-06
2.0505794577747e-06
1.9079386972107e-06
1.7784303790436e-06
1.6605226399132e-06
1.552799961396e-06
1.4542981191639e-06
1.3640544520116e-06
1.2812506375558e-06
1.2051166777264e-06
1.1349665840046e-06
1.0702058464467e-06
1.0103192128509e-06
9.5485487894903e-07
9.0340779311836e-07
8.5562983946917e-07
8.1121191709901e-07
7.684513259707e-07
1.1331539411883e-05
0.00050551069024312
0.00098571531127344
0.000895565170945
0.00080267211542809
0.00073295158602046
0.00067911256949594
0.00063373491316717
0.00058928054839789
0.00053913165025401
0.00047957005975609
0.00041535175071379
0.00036817879055389
0.00036678877310171
0.00039768665600213
0.00041849490783183
0.00041596047022984
0.00040243571442852
0.00038734825982007
0.00037576529269967
0.00036766379856076
0.00036192684941229
0.00035763774942929
0.00035411927266716
0.00035079698092706
0.0003472361075473
0.00034314903188584
0.00033833504574802
0.0003326404111239
0.00032603841361541
0.00031848475986695
0.00031001233608668
0.00030071677421559
0.00029073238649523
0.00028021674876705
0.00026936913329754
0.00025839851551942
0.00024475811897462
0.00023403948260403
0.0002236561658591
0.00021383065840893
0.00020469193995376
0.00019633563606709
0.0001888228630358
0.00018215393245788
0.00017624421578995
0.00017096165646766
0.00016626160279039
0.00016208359099242
0.00015835851475071
0.00015499724745901
0.00015192617281509
0.0001490840819286
0.00014642826436098
0.00014391756303465
0.00014152950436691
0.00013925476993528
0.00013706635148109
0.00013499437708916
0.00013303726572725
0.00013116503149451
0.00012941254970577
0.00012767477830956
0.00012589980762092
0.00012407690392127
0.0001221815912894
0.00012026622134811
0.00011828349142058
0.00011636949538332
0.00011440349397021
0.00011228060030781
0.00010742369479507
9.5362372962987e-05
0.0010987187616205
0.00095864191633756
0.00098986199345374
0.0010347044954989
0.0010780958110166
0.00093820803922302
0.0007105872031751
0.00054282632096561
0.00042120891952708
0.00033884986998765
0.00027619870754543
0.00022754363526039
0.00018890715684054
0.0001573674784392
0.00013166292810007
0.00011077866268465
9.3672731039589e-05
7.9700796072863e-05
6.8397371698457e-05
5.9167793484036e-05
5.1591119846485e-05
4.5431816546773e-05
4.0255528759386e-05
3.5859545079273e-05
3.2200356470504e-05
2.9074528594701e-05
2.6376341724381e-05
2.4070692228167e-05
2.0638157290872e-05
1.7730361498495e-05
1.5327816569631e-05
1.3326951247115e-05
1.1652290985601e-05
1.0242640782814e-05
9.0469567630014e-06
8.0284392521983e-06
7.1555052299559e-06
6.4041126452733e-06
5.7536004371408e-06
5.1889595891903e-06
4.6957436013176e-06
4.2634283910127e-06
3.8825126035786e-06
3.5461338282499e-06
3.2476485704409e-06
2.9820323645853e-06
2.744912039417e-06
2.5326443786455e-06
2.3421614788095e-06
2.1705352243977e-06
2.0156651577646e-06
1.8754085815684e-06
1.7481513482092e-06
1.6322987746438e-06
1.5265860599135e-06
1.4299410197989e-06
1.3414206082109e-06
1.2602297608829e-06
1.1856100229779e-06
1.1168816765114e-06
1.0534626770852e-06
9.9482893983502e-07
9.4050662359551e-07
8.9009218692524e-07
8.4325978566014e-07
7.9970808805636e-07
7.5814656230991e-07
1.217528120852e-05
0.00052311798674641
0.00098689741144176
0.00089484811866679
0.00080204006188391
0.00073254267993277
0.00067889145214079
0.00063378406020079
0.00058984978803489
0.00054052197624096
0.00048197027608141
0.00041847172163298
0.00037067427483071
0.00036727935381139
0.00039763670248876
0.00042004189412784
0.00041937555012619
0.00040662237613443
0.00039180790681688
0.00038025139570505
0.00037217922385606
0.00036655045203792
0.00036240287071676
0.00035906417774065
0.00035594795057517
0.00035259125131922
0.00034869243368056
0.00034404661358408
0.00033849010044817
0.00033199912567781
0.00032452969005285
0.00031611626650993
0.00030685592213585
0.00029688452150145
0.00028635447864403
0.00027546375077191
0.00026444259995335
0.00025073141957339
0.00023994626661275
0.00022949275679834
0.00021959446300928
0.00021037911649916
0.00020193443381243
0.00019432415729453
0.00018754722608057
0.00018151033443589
0.00017607863761348
0.00017123335567263
0.0001669040896008
0.00016301225183333
0.00015947738303673
0.00015622508989384
0.00015319254262046
0.00015034155211619
0.00014762496576611
0.00014502165530819
0.00014252600184056
0.00014011703074058
0.0001378166272669
0.00013563379914646
0.00013353491528385
0.00013156404278864
0.0001296156449611
0.00012762756045085
0.00012559998102016
0.00012350720225538
0.00012139654644561
0.00011921400128234
0.00011709971887628
0.00011492997560088
0.00011261316940467
0.00010744361669796
9.5096706338969e-05
1.5038731157759e-05
0.00019816793483407
0.00028260286727608
0.0003791274138822
0.0004655124280896
0.00054072383810141
0.00061192232934194
0.00066213675837025
0.00050955883245614
0.00039549113501646
0.0003141766940356
0.00025475357013106
0.00020874201860484
0.00017236138625372
0.00014310609724277
0.00011938398591621
9.9976014337574e-05
8.4255346585972e-05
7.1573234016262e-05
6.1298189269434e-05
5.3005872118414e-05
4.6274915069235e-05
4.07971829372e-05
3.6284648306227e-05
3.2368840954973e-05
2.9209148267437e-05
2.6476947294065e-05
2.4125496180307e-05
2.0881869484007e-05
1.7941206891588e-05
1.5513214706282e-05
1.3492584454253e-05
1.1796049826166e-05
1.0365200919964e-05
9.1531015823528e-06
8.1199692299641e-06
7.2333765307202e-06
6.4703066447253e-06
5.810179738831e-06
5.2366083380875e-06
4.7356036683684e-06
4.2968392735481e-06
3.9105844326007e-06
3.5694087150175e-06
3.2667148391657e-06
2.9976998524821e-06
2.7576511075342e-06
2.5429011691024e-06
2.3501599337125e-06
2.1767419610606e-06
2.0203477442999e-06
1.8788275142851e-06
1.7504789544792e-06
1.6337172900037e-06
1.5273272039289e-06
1.4301377592146e-06
1.3411650565887e-06
1.2595708264365e-06
1.1846167445587e-06
1.1156408352493e-06
1.0520269777437e-06
9.9324120614654e-07
9.3882246674521e-07
8.883712946454e-07
8.4151896174708e-07
7.9795820542434e-07
7.5742599756929e-07
3.4183206434367e-06
0.00028364092286259
0.00098090406796464
0.0009207999501506
0.00082194137960754
0.00074756907864969
0.00069086713234827
0.00064461664082226
0.00060157500212125
0.00055498588605426
0.00049994904297756
0.00043756286225142
0.00038271857435304
0.0003647203836866
0.00038901657110152
0.00041754377116629
0.00042447134332554
0.00041128019198312
0.00039681080720319
0.00038525812920946
0.00037717055024938
0.00037161750432532
0.00036759433529262
0.00036441928343254
0.00036149888876547
0.00035833756972431
0.0003546156628204
0.00035011882710922
0.0003446760092912
0.00033826207187359
0.00033083541989688
0.00032243252009601
0.00031315136384858
0.00030312963140511
0.00029251999532348
0.00028151792456457
0.00027035257784329
0.00025941415154417
0.00024840764927954
0.00023773785895525
0.00022762136242209
0.00021818193216473
0.00020949931217991
0.00020163633816395
0.00019459186602299
0.00018825742398986
0.00018250381926365
0.0001773410963367
0.00017269608790758
0.00016847427871475
0.00016461120133566
0.00016103285887662
0.00015767291801784
0.00015449735276748
0.00015144957141416
0.00014851802112866
0.00014569238635298
0.00014296630925972
0.00014033965319657
0.0001378427457489
0.00013544722306328
0.00013318500812752
0.00013096153280148
0.00012869773677753
0.00012641136926601
0.00012407654572119
0.00012174106150367
0.00011934492055201
0.00011702817986894
0.00011464642599941
0.00011212487211858
0.00010663415037907
9.3964508127529e-05
3.3486586805916e-06
2.2994799390092e-05
4.8895478528765e-05
7.8944684961053e-05
0.00011444056566875
0.00015607640976403
0.0001983888249971
0.00024205728885517
0.0002827891117842
0.0003098687410009
0.00031647738782488
0.0002630986799371
0.0002120957951282
0.00017278938538745
0.00014227605722293
0.00011821160060709
9.8603086320787e-05
8.2717358801962e-05
6.9967171341068e-05
5.9688430113027e-05
5.1369592101369e-05
4.4610663807107e-05
3.907191925844e-05
3.4528627271265e-05
3.0825732489019e-05
2.7751703871789e-05
2.5019255516675e-05
2.2072231371691e-05
1.8954720676051e-05
1.6375837397594e-05
1.4231085618649e-05
1.2430338873616e-05
1.0914999843028e-05
9.6304712683287e-06
8.5350578984649e-06
7.594093224171e-06
6.7844557990171e-06
6.0842435422633e-06
5.4758901124361e-06
4.9445191314527e-06
4.4792520420188e-06
4.0703304413754e-06
3.7094916963201e-06
3.3896069703839e-06
3.1053948638159e-06
2.852190268373e-06
2.6259473962756e-06
2.4230969451019e-06
2.2407398502383e-06
2.0765020501098e-06
1.9281475951201e-06
1.7938202022383e-06
1.6718135621523e-06
1.5608061397175e-06
1.4595803863522e-06
1.3670974086743e-06
1.2824314015267e-06
1.2047502059387e-06
1.1333666608627e-06
1.0676435406574e-06
1.0070256475821e-06
9.5100977091244e-07
8.9915933558605e-07
8.5109652480725e-07
8.064713647753e-07
7.6498217342934e-07
7.2583554657375e-07
1.6125252646001e-05
0.00059161239842249
0.00099007154162657
0.00089166163529974
0.00079926266051258
0.00073057960653609
0.00067778271129781
0.00063384820163301
0.00059197548740822
0.00054586879211766
0.00049135472127159
0.0004309521360547
0.00038120178095217
0.00036964476583699
0.00039605992641645
0.00042349541784498
0.00043020503591234
0.00042134998674125
0.00040788491265332
0.00039629876673581
0.00038801021549422
0.00038246087479006
0.0003785802908197
0.00037564812227086
0.00037305415574182
0.00037022815134426
0.00036680107066727
0.00036252670652423
0.00035721713822968
0.00035083781152814
0.00034335016472257
0.00033478953115115
0.00032525840818795
0.00031490500141729
0.0003038952157624
0.00029243170389141
0.00028074283863685
0.00026828716060134
0.00025668009374588
0.00024544480491329
0.00023478004815181
0.00022480627736285
0.00021560005170643
0.00020721731152196
0.00019965152203503
0.00019277253421132
0.00018648374181307
0.0001808229282642
0.00017571198781446
0.00017104298937807
0.00016675907532629
0.00016278047253219
0.00015903644317251
0.00015549434658725
0.00015209203409115
0.00014883142590482
0.0001456859927286
0.00014266426171469
0.00013975432774959
0.00013699566101293
0.00013437213497778
0.00013188392612855
0.00012943843385997
0.00012695929544147
0.00012449036036816
0.00012199844322705
0.00011952139291714
0.00011698412106725
0.00011450722292824
0.00011194096035067
0.00010922827833809
0.00010340394945894
9.0383523863469e-05
3.0560262617318e-06
7.7296751618979e-06
1.4897419499751e-05
2.4881919450326e-05
3.8103491353506e-05
5.4478831529262e-05
7.4279909241987e-05
9.6515006027166e-05
0.00012097625838827
0.00014609114186738
0.00016692633966819
0.00017744566563351
0.00017662283753657
0.0001645887696992
0.00014245735450348
0.00011788111399963
9.8569632365785e-05
8.3024965153813e-05
7.0333693495354e-05
5.9968255114051e-05
5.1563025612402e-05
4.4703783669959e-05
3.9079974976708e-05
3.4447970544107e-05
3.0608099771066e-05
2.7403261050348e-05
2.3882591755723e-05
2.0565857042496e-05
1.77893253589e-05
1.5453140794474e-05
1.3483361586409e-05
1.1820141814956e-05
1.0408484416201e-05
9.2069746258148e-06
8.1761391381386e-06
7.290416799186e-06
6.5270873437061e-06
5.8656324774292e-06
5.288451322412e-06
4.7829515628662e-06
4.3392383260902e-06
3.9480156841135e-06
3.6017017105535e-06
3.2939589564037e-06
3.0202757282852e-06
2.7759561826628e-06
2.5572572838284e-06
2.3607709023589e-06
2.1839525897466e-06
2.0244831549519e-06
1.8802836806251e-06
1.749531067062e-06
1.6306820916466e-06
1.5225030818476e-06
1.4238004453742e-06
1.3335712734414e-06
1.2509125018759e-06
1.1750654819688e-06
1.1053699654292e-06
1.0411904738906e-06
9.8197630055086e-07
9.2725078226981e-07
8.7659588832883e-07
8.2964540618635e-07
7.8606657595209e-07
7.4556239700393e-07
7.0774501029933e-07
2.1220258051609e-05
0.00065125610772942
0.00098871622320213
0.00088766967123023
0.00079640313682475
0.0007284934465124
0.00067648033983196
0.00063361457709718
0.00059349257881772
0.00055007508353124
0.00049899973614673
0.00044148022794528
0.00039082407853248
0.00037254020951679
0.00039356848266047
0.0004233285504597
0.00043597112756557
0.00043126020016695
0.00041950573746527
0.00040799376404522
0.00039932677876789
0.00039352735663267
0.00038960176861922
0.00038677390371068
0.00038439822798104
0.0003818289218844
0.00037862736139996
0.00037449860624281
0.00036922409100066
0.00036274872776314
0.00035502633484447
0.00034609102434446
0.00033605192981588
0.00032507200803523
0.00031333353536205
0.00030105781128415
0.00028849382709793
0.00027400694077251
0.00026141547432208
0.00024923725264171
0.00023766873335202
0.00022690695417791
0.00021706303357944
0.0002080967990084
0.00019995592538925
0.0001924974985882
0.00018567537801473
0.00017952156558127
0.0001739278995425
0.00016881086019917
0.00016410068383545
0.00015971508620654
0.00015558321343408
0.00015167589777344
0.00014792889964808
0.00014435735751536
0.00014093101158309
0.00013765926250395
0.00013453894802739
0.00013158622002438
0.00012878681450017
0.00012609290334464
0.00012340552797506
0.00012070862264655
0.00011804397053247
0.00011540150294586
0.00011280443675131
0.00011017067629761
0.0001075909702053
0.00010492077459444
0.00010210910446875
9.612910983026e-05
8.3064859490817e-05
2.7335308124103e-06
4.8796385325429e-06
6.8384961821383e-06
1.0914975084313e-05