/*--------------------------------*- C++ -*----------------------------------*\
| =========                 |                                                 |
| \\      /  F ield         | OpenFOAM: The Open Source CFD Toolbox           |
|  \\    /   O peration     | Version:  2312                                  |
|   \\  /    A nd           | Website:  www.openfoam.com                      |
|    \\/     M anipulation  |                                                 |
\*---------------------------------------------------------------------------*/
FoamFile
{
    version     2.0;
    format      ascii;
    arch        "LSB;label=32;scalar=64";
    class       volScalarField;
    location    "0.0001";
    object      cSound;
}
// * * * * * * * * * * * * * * * * * * * * * * * * * * * * * * * * * * * * * //

dimensions      [0 1 -1 0 0 0 0];

internalField   nonuniform List<scalar> 
109340
(
555.85952809473
554.80049324287
552.77511117887
550.31243363382
547.57819925217
544.71329772376
541.77270993384
538.78429870393
535.78048068702
532.69165423611
529.38393824437
525.73479818499
521.60399362271
516.83078206717
511.23870727537
504.64199266822
496.85125976668
487.68266474911
476.96771216927
464.56529547632
450.37263701949
434.34051960858
416.48474169121
396.89382816508
375.72863089774
353.21608616984
329.63374636953
305.28786366253
280.48673312419
255.51256914568
230.59488375037
205.88659631528
181.44691358687
157.24720964682
133.22943685574
109.44644517011
556.01956218851
554.65892473965
552.38462332344
549.75330320911
546.93683111698
544.05865484283
541.15511618351
538.22380158733
535.22185166137
532.07998678696
528.69362006088
524.93739099271
520.66461271823
515.70915092784
509.89058062239
503.01963577558
494.90775717705
485.37352019715
474.25338481514
461.41387971195
446.76397057515
430.2693451017
411.96329191927
391.95283450019
370.41669868663
347.59667817126
323.78052280988
299.27838278296
274.39531112837
249.40309395174
224.51346055707
199.85292717106
175.43920264781
151.18235643235
126.88869339467
102.60869730637
556.61164511532
555.03789736229
552.5354767226
549.84231533458
547.04990185679
544.21300065462
541.32517765507
538.38574434932
535.37391812308
532.22354627459
528.83309366739
525.07633056358
520.80538812025
515.85336872077
510.03954777737
503.1753188342
495.07136702849
485.54600507542
474.43494755803
461.60404913297
446.96098364347
430.47044932901
412.16495266852
392.1508226852
370.60656659104
347.77404766328
323.94159528632
299.42040239678
274.51687859402
249.50376523698
224.59275712245
199.9062286541
175.43882468869
151.03183016014
126.32704186497
100.92804467855
557.4345792834
555.53985108691
552.9134744322
550.1462501124
547.30129310812
544.40623743517
541.47069823678
538.49816598261
535.4640211503
532.30105418734
528.90791259058
525.15709179693
520.89885283406
515.9646032123
510.17156331566
503.32890318753
495.24536619414
485.73719870677
474.63734850512
461.80982815951
447.15861842137
430.64651014556
412.30467706587
392.23885536233
370.62896738154
347.71912029944
323.80140951966
299.19179142117
274.20194995576
249.10944768044
224.12943367757
199.38465744478
174.84353015235
150.26345421745
125.02655386763
97.881989393466
558.72943309478
556.27082194649
553.26362327877
550.30867263791
547.38686690257
544.46370479971
541.51927910712
538.55044933837
535.52616645901
532.37645714509
529.00116987028
525.2718314473
521.03562814217
516.11946282649
510.33434995064
503.4814504382
495.36025481463
485.77694047726
474.54538155168
461.52554858253
446.60718334965
429.74849975774
410.9817812343
390.4199469358
368.2603610148
344.77078933822
320.27342768352
295.11763682765
269.64856953232
244.17415937374
218.93160962555
194.07295120354
169.55020871547
145.06306903491
119.71877417986
90.841355622818
561.13552870428
556.65922775528
553.34754764332
550.33107701615
547.40563180655
544.48848188318
541.55119166218
538.57727460168
535.51788530564
532.27465969221
528.7093797679
524.64551781579
519.87373090052
514.15811800111
507.24504014907
498.87561080015
488.80248997666
476.81678318366
462.78261699462
446.53296781816
428.05371298196
407.43525023073
384.88437542103
360.72005244072
335.35246140489
309.24721599105
282.88337164069
256.7102987533
231.11049170189
206.37170388517
182.66213531287
160.07155892885
138.45007411447
117.44907597124
96.145369519938
70.942513522255
86.926031230182
68.044301213324
54.112550664061
44.679320703596
38.463888407839
34.286965093561
31.49049033246
29.67160291108
28.593839388171
28.0993751615
28.035022439025
28.399440327934
29.010410812243
29.807153940652
30.721506491924
31.690298805052
32.670796836214
33.633536558633
34.559999557443
35.440667179485
36.270419729055
37.046763536402
37.77113933111
38.446174917735
39.074948553229
39.661353432218
40.20750476685
40.716732892941
41.194782327108
41.64043181128
42.060964258456
42.454438279309
42.826203287999
43.176206265665
43.507396542255
43.82067763598
44.117893644343
44.399984003608
44.668539798926
44.923977461203
45.168095317335
45.40064198506
45.623707974901
45.836541507825
46.041281394025
46.237077245602
46.425734894868
46.606745370906
46.781196808645
46.949232337806
47.111135822667
47.267468160552
47.418445084505
47.564393049071
47.705569966251
47.842236983556
47.974624965265
48.102956372776
48.227434041976
48.348247760041
48.465571662233
48.579571548134
48.690404388414
48.798216590819
48.903143893659
49.005311371909
49.104836399094
49.20147002196
49.843119529134
50.709082681968
51.176840441463
51.614528090276
52.041891528795
52.461934288594
52.887696997898
53.344276013916
53.86485751334
54.478959889603
55.184343896149
55.892056534003
56.41631004646
56.678736905722
56.779247011807
56.810109679472
56.813341265227
56.8073599911
56.799608987289
56.79263628317
56.786951501281
56.782719950294
56.779740629194
56.777944341951
56.777128464223
56.777237430422
56.778187865211
56.779843043571
56.782063404884
56.784710988698
56.787639542799
56.790721443678
56.793838718565
56.796871218884
56.799705186968
56.802250544151
56.804990148608
56.806655282169
56.807866350422
56.808566447781
56.80870360293
56.808310180834
56.807463217123
56.806311930694
56.80491136153
56.803172029827
56.801064789148
56.798683647222
56.796116467342
56.793381819397
56.790492038143
56.787484797459
56.784422392662
56.781380735625
56.77841163632
56.775540052277
56.772795370875
56.770218632775
56.767886155782
56.765801074186
56.763915162877
56.762146627278
56.760369877784
56.758477695697
56.756503819031
56.754460616492
56.75236099461
56.750257255173
56.749686537046
56.771554624535
57.037687692818
60.17479715817
79.501948612467
61.196167229688
48.753207902821
40.856181590351
35.769496231128
32.389830197224
30.209581530721
28.876876110198
28.178642494799
27.962851127987
28.125249646582
28.570746100196
29.269493037252
30.104625632323
31.024327048275
31.987303748432
32.953416000681
33.898790930541
34.807406411982
35.669640729359
36.481197306426
37.241147800451
37.950483496461
38.611537617135
39.227368421862
39.801576623924
40.33743373037
40.83810299826
41.30672392194
41.746006150058
42.158478425473
42.546596414778
42.912260773205
43.257550277854
43.583967259771
43.89322431795
44.186533506901
44.465300032188
44.730489891632
44.983256969694
45.224392930846
45.454843512797
45.675252377802
45.886390644948
46.088813442927
46.283124562765
46.469822576588
46.649383023815
46.822263507749
46.988843396063
47.149507707828
47.304574801682
47.454381452879
47.599206947581
47.739327789914
47.874989374694
48.006425461042
48.133849645732
48.257461794163
48.377447504402
48.493981006984
48.607225923423
48.717336532901
48.824456964881
48.928722557309
49.0302614648
49.12919939158
49.23154220829
50.161868757718
50.836387296997
51.288790678943
51.723402032391
52.147788982402
52.566815518483
52.996480305085
53.464355201322
54.004119433664
54.64108727031
55.358225461089
56.038699631664
56.498277422272
56.711368022831
56.78961284464
56.811641130279
56.812800431066
56.806791707487
56.79894373115
56.791845915864
56.786036383204
56.781676010832
56.778586414268
56.77667790478
56.775783689081
56.77581739624
56.776709303976
56.778323516647
56.780521975184
56.783166324601
56.786110244863
56.789224059555
56.792386807206
56.795474230533
56.798369940612
56.800978796351
56.803796899181
56.805527580086
56.806802624349
56.80755954967
56.807746001595
56.807389037384
56.806560921109
56.805411099066
56.803995749356
56.802226472014
56.800081000842
56.797653607933
56.795030370635
56.792230130304
56.789271817491
56.786197563269
56.783069482967
56.779966525118
56.776932245252
56.773991793745
56.77117350844
56.768533737431
56.766142957522
56.76399239142
56.762032799934
56.760193744098
56.758345182667
56.756388272609
56.754358079868
56.752249809663
56.750086573748
56.74789097262
56.747219257997
56.768961713706
57.03553142245
60.190574771736
75.616345939742
56.191405421756
44.644515359702
37.462085253493
33.278022288953
30.684090495834
29.086389062788
28.207190867936
27.845935185151
27.843434981475
28.194011421757
28.744978095491
29.465623247079
30.303420873452
31.210789303908
32.150812195283
33.09361984527
34.017541689651
34.906814696378
35.75219004349
36.549966807466
37.298737659039
37.998822739011
38.652393367859
39.262311432443
39.831503208674
40.362991436714
40.860104548089
41.325632302146
41.762322340366
42.17256686957
42.558722933102
42.922793410452
43.266598968256
43.591847399435
43.899985969854
44.192430397007
44.470347058619
44.734880540173
44.987005988868
45.22765119952
45.457622332161
45.677657357654
45.888449364937
46.090579226797
46.284646171716
46.47111152519
46.650504551794
46.823205100819
46.989658638699
47.150195942294
47.305177272037
47.454896546148
47.599648344204
47.739706020253
47.875314869422
48.006707458233
48.13409497164
48.257676576101
48.377637403955
48.494151760167
48.607381990799
48.717481041827
48.824592269165
48.928850367684
49.030384970668
49.129319816334
49.232164731404
50.169402221536
50.83960770037
51.291362894894
51.725285169276
52.14875129035
52.566604088139
52.994687408221
53.460317021357
53.996984502431
54.630204900764
55.344212077305
56.025071277379
56.489315050999
56.706753123258
56.787274300772
56.810267176282
56.811815439918
56.805738080373
56.797651085188
56.790249825096
56.784143982244
56.779476679725
56.776114931438
56.773948391569
56.772860098616
56.772711292065
56.77346237869
56.77497869654
56.777122106343
56.779752345714
56.782725840444
56.785907242948
56.789171076683
56.792383751239
56.795422230534
56.798181748221
56.801182576389
56.803064309547
56.804484469175
56.805364466663
56.805654744084
56.805377989576
56.804600102418
56.803458480364
56.802013831886
56.800186236854
56.79797704196
56.795472962436
56.792747512674
56.789823619627
56.786739760693
56.783542548206
56.780287569695
56.777050626024
56.77387294873
56.770785911283
56.76781325836
56.765030754237
56.762501863217
56.760199951108
56.75807925541
56.756091907484
56.754084090592
56.751984722129
56.749829606246
56.747584382108
56.745287848109
56.742927817876
56.742129935652
56.763732069957
57.03356026034
60.246324282839
68.481993265817
48.232884465588
38.439607313898
33.062067364773
30.18201660441
28.654465634243
27.853037824927
27.549644296893
27.583083205661
27.852094599162
28.369745728832
29.002488441148
29.742710874859
30.570702622358
31.451632751523
32.362722726415
33.276612421529
34.1722976259
35.037050398805
35.862359875792
36.642822775014
37.376594928308
38.064907313915
38.70886309835
39.310654701588
39.873202951224
40.399417349992
40.891915887674
41.353535651599
41.786878900419
42.194327030201
42.577988435917
42.939937997988
43.281878202076
43.605497491719
43.912211564436
44.20339262949
44.480181864408
44.743719096372
44.994943648792
45.234792569116
45.464031171622
45.683439848412
45.893638259676
46.095267396953
46.288852220076
46.474916476015
46.653921233628
46.826290871874
46.99243588272
47.152701524781
47.307441170241
47.456943976205
47.601506833012
47.741389792472
47.876843886226
48.008096653379
48.135359386341
48.258829709838
48.378691619381
48.495117573849
48.608268875204
48.718297867012
48.825346911513
48.929549183834
49.031034930011
49.129924659822
49.233503066829
50.180201641645
50.844356329438
51.295101115148
51.728001285303
52.150140708405
52.566312068713
52.99212911851
53.454540379519
53.986760587494
54.614573414982
55.323990391442
56.005219166206
56.476107929236
56.699917812918
56.783826369982
56.808281044123
56.81036419875
56.804207043218
56.79578056817
56.787932775977
56.781376207807
56.776258312239
56.772487251542
56.769956904846
56.76856856325
56.768160071539
56.768698384656
56.770065805977
56.772125398737
56.774736906203
56.777755719496
56.781040836925
56.784458031582
56.787862892047
56.791118524577
56.794106836834
56.797387223309
56.799505361528
56.801147124892
56.802220968835
56.802673109765
56.802517316869
56.801811218978
56.800685387398
56.799213103954
56.797318639208
56.795018051994
56.792399535742
56.789523183591
56.786422729548
56.783150759876
56.779758071559
56.776303134629
56.772858609256
56.769463431872
56.766152664801
56.76294955942
56.759939478524
56.757179869452
56.754640870832
56.752283017071
56.750068840556
56.74784118129
56.74552755004
56.743182905782
56.740738702267
56.738258888894
56.73568017016
56.734725467447
56.756264077718
57.028098510942
60.276330298029
53.625020336388
36.700769330846
30.655147475527
28.255846715171
27.278336583058
26.943301764242
26.974645019175
27.225749802824
27.609168189176
28.112240262645
28.696866606382
29.36143404037
30.102688619229
30.907516428626
31.755801670608
32.626269577065
33.501328502586
34.363316470958
35.198408924203
35.997970024958
36.75722461453
37.474046531031
38.147434887088
38.779224831469
39.371213927361
39.925634028308
40.444905784643
40.931760921957
41.388606280296
41.817876994372
42.221844613468
42.602565860444
42.9619271028
43.301665266788
43.623338955934
43.928378257654
44.218040043785
44.493523672129
44.755865585041
45.006042042526
45.24492480923
45.473315870949
45.691936610355
45.901433312646
46.102418086912
46.295417396871
46.480952057205
46.659461908388
46.831392805761
46.997120303187
47.157015256177
47.311404896679
47.460596367097
47.604875552362
47.744498176015
47.879712810506
48.010744374715
48.137805802893
48.261092059167
48.380785702756
48.497057493765
48.610068338342
48.719969780007
48.826902049962
48.930998727326
49.032388479314
49.131190243556
49.235766866813
50.194266155305
50.850588408013
51.299981550789
51.731537322046
52.151959238646
52.565960442426
52.988852341485
53.447105448798
53.973565885966
54.594333144195
55.29765037354
55.979036787
56.458416564504
56.690692894303
56.779196847082
56.805680550934
56.808488460932
56.802282853018
56.793446763259
56.785030563562
56.777886875916
56.772186603913
56.767877607725
56.76486696666
56.76306401806
56.762325170229
56.762578327806
56.763743237442
56.765685846839
56.768266515211
56.771340045463
56.774760199427
56.778382441379
56.782047518273
56.785602090203
56.788908841056
56.792573507225
56.795020779941
56.796967731666
56.798308253655
56.798981004217
56.798988089416
56.798381575126
56.797284020223
56.795788418784
56.793820858767
56.791407243826
56.788642652076
56.785577500752
56.782257325977
56.778744789106
56.775097249202
56.771378332094
56.767655791328
56.763969227773
56.760356808811
56.756843101772
56.753520439646
56.75044095303
56.747580933297
56.74491467759
56.742400394221
56.73988622626
56.737297535801
56.734723838533
56.73204987871
56.729357672304
56.726513348063
56.725351142268
56.746690080748
57.019402115173
60.301201789288
26.704120059788
24.532996988705
24.764959448724
25.318849677609
25.854681131785
26.367550703595
26.8752818586
27.411036674312
27.953591583687
28.528247765124
29.147455406245
29.818310738872
30.539413322958
31.307209921452
32.111720029696
32.936840791282
33.767357579551
34.588568045918
35.388727633939
36.158867020875
36.893376575919
37.589370241012
38.246163372286
38.863688974307
39.443810777721
39.988387648744
40.499603590623
40.979540792696
41.430588144221
41.855004500721
42.254841970902
42.63200012582
42.988317238125
43.325438609847
43.644821392839
43.947859783562
44.235775028989
44.509709314906
44.770671917509
45.019632125085
45.257420692386
45.484831644295
45.70255813932
45.911261171467
46.11151017685
46.303848606527
46.488767145993
46.666723818429
46.838140568103
47.003393745491
47.162851309665
47.316834310833
47.465655803453
47.609589501911
47.7488964899
47.883816527494
48.014575061405
48.141382369298
48.264431518622
48.383905570691
48.499974838044
48.612798951012
48.722527062827
48.829298265386
48.933248278296
49.034502051745
49.133177240136
49.23894722071
50.211516073674
50.858288078586
51.305968979999
51.735874673242
52.154209570575
52.565576930782
52.984916269166
53.438113775917
53.957551338232
54.569667660884
55.265317244525
55.94641925528
56.435924943113
56.678840750443
56.773274719195
56.802446813626
56.806228349544
56.800053357888
56.790773664384
56.781689956998
56.773838861369
56.767436060678
56.762469755463
56.758869373768
56.756551541516
56.755404186084
56.755299252802
56.756206382728
56.757996443372
56.760530709169
56.763663017889
56.767241831313
56.771112732068
56.775099694649
56.779030885737
56.782748881555
56.786890786391
56.789767789511
56.792106240684
56.79378659963
56.794739368591
56.794954718103
56.794479460795
56.793423939387
56.791910096885
56.789863430114
56.787319641914
56.784379202565
56.781082360458
56.777494707091
56.773684916832
56.769714483636
56.765656627603
56.761575501289
56.757515111353
56.753516811799
56.749614193377
56.745904113604
56.742434159346
56.739190232927
56.736161982475
56.733298596667
56.730462957244
56.727568932279
56.724738726791
56.721806130862
56.718883911727
56.715739144923
56.714361069727
56.735384978545
57.008526574857
60.332394450578
26.010401901984
22.922607357838
24.120573102502
25.116758722633
25.947759203077
26.643645067294
27.247383764032
27.817227015417
28.381036403231
28.953492619277
29.55431923742
30.190683511807
30.863797166752
31.575105566787
32.320741120204
33.090614620517
33.871504036892
34.651346291326
35.417717164628
36.161426287625
36.87605162553
37.557538246095
38.203713776541
38.814423957636
39.389786357996
39.931199708605
40.440665568031
40.920001380657
41.371081075358
41.795947012169
42.196684984722
42.575069759418
42.932738589044
43.271293592641
43.59221631198
43.896818687877
44.18628243597
44.461753660773
44.724239711548
44.97466911518
45.213876597244
45.442659915063
45.661711305225
45.871679584751
46.073138840189
46.266642451253
46.452673402886
46.631693141578
46.804117842806
46.970339951308
47.130720846824
47.285586235967
47.435247175402
47.579983095789
47.720062421287
47.855722531611
47.987187881675
48.114669166178
48.238364654276
48.358459857713
48.475125769356
48.58852275007
48.698802101243
48.806104308906
48.910558881686
49.012287088336
49.111410158038
49.208034625278
49.942237335636
50.745385454625
51.204114592971
51.635134053058
52.053959640692
52.463234407994
52.874734138858
53.311158042593
53.803377334736
54.381193557585
55.050640415504
55.747120522945
56.307284598238
56.61894538598
56.749324789653
56.794108095414
56.803616216942
56.797608323007
56.787895216147
56.778074142184
56.769412717607
56.762197666823
56.756461212659
56.752162733855
56.7492294625
56.747568772655
56.747052629587
56.747639108757
56.749232370046
56.751695470602
56.754881593213
56.758633552984
56.762787293575
56.767151466975
56.771533782045
56.775762364159
56.77700699374
56.780707173114
56.783779455821
56.786098696193
56.787576964508
56.788186290341
56.787959377023
56.786984479289
56.785442064928
56.783254983439
56.780473011448
56.777193489705
56.773457206143
56.769357802057
56.764973766001
56.760373423071
56.755646449867
56.750859484701
56.746075015379
56.74133777511
56.736712539076
56.732324850439
56.728214542675
56.724372022552
56.720797688664
56.717413181703
56.714123965855
56.710812320263
56.707642548581
56.704385554486
56.701206546668
56.697663558448
56.696095164571
56.716462464284
56.989911515827
60.398888917903
34.29215719202
28.756036259958
28.461784879692
28.487257901758
28.65925158772
28.919227639913
29.255346382168
29.665014004606
30.082002737443
30.544545888405
31.048990139798
31.587121787672
32.159221304035
32.765665443066
33.403462367043
34.065915431051
34.743459817919
35.426150368932
36.104886033419
36.770111061209
37.415162771853
38.035690515667
38.628924004721
39.193496142588
39.72922241731
40.236568476987
40.716358963877
41.169672197773
41.59819909905
42.003440120285
42.386888130223
42.749908167972
43.094027377814
43.42057139731
43.730770277046
44.025737803163
44.306597487431
44.574332521949
44.829839808145
45.073940751761
45.307414986561
45.530972481569
45.745252874122
45.950835471358
46.148272150886
46.338065199393
46.520674959895
46.696522662576
46.866006581015
47.029499414381
47.187337121127
47.339833506866
47.487274035435
47.629932799477
47.768058943714
47.901885398308
48.031626032838
48.157480661429
48.279640055777
48.398281924711
48.513573859221
48.625670636293
48.734719062579
48.84085572623
48.944206978019
49.044892539392
49.143029667187
49.255640836309
50.279677667133
50.890163595107
51.330541800053
51.753630551962
52.163663848915
52.564644909218
52.969967208639
53.403169726965
53.89464031301
54.471684980222
55.13437661676
55.809106899429
56.335468116448
56.623921761433
56.745823266986
56.788256690443
56.797348263619
56.792351461453
56.782012225993
56.770656278616
56.760146963076
56.75102401951
56.74343820331
56.737427036609
56.732956548037
56.729971139325
56.728409088838
56.728137923984
56.72916306413
56.731363746036
56.734592606912
56.738683042544
56.743452024864
56.748681564541
56.754137426827
56.759583456266
56.761867101875
56.766939716207
56.771290685564
56.774743053355
56.777160040089
56.778470156582
56.778672862008
56.777841295634
56.77621799921
56.773776405958
56.770557520917
56.76664398121
56.762109380132
56.757072103106
56.751626802996
56.745865362417
56.7399281366
56.733942550925
56.728035753774
56.722308823517
56.716832959775
56.711696435858
56.706904430041
56.702481670991
56.698415156579
56.694612999385
56.690983627614
56.687411635315
56.684033421661
56.680647925144
56.677409838991
56.673673772103
56.672096976934
56.691187304255
56.964072806682
60.548094432838
37.746625534104
32.601078518022
31.922247669915
31.618357186532
31.471571269295
31.425203217687
31.483526478264
31.630161026166
31.859883875433
32.163623069368
32.507067728213
32.90124659621
33.348862643669
33.837634303531
34.359950472047
34.91163155788
35.485323995667
36.072489577
36.664647841893
37.254316719142
37.834267519826
38.398818701894
38.944150458864
39.467817044675
39.968555651266
40.446054713417
40.900361320929
41.332058861047
41.742065119088
42.131317714262
42.500947792391
42.852145171881
43.185986538136
43.503584529585
43.805897849559
44.093960888595
44.368727848485
44.63106139434
44.881760585011
45.12158762709
45.351265447131
45.571417147598
45.782632286209
45.985454078305
46.180416845259
46.367974160578
46.54855804685
46.722563110615
46.890374157397
47.052344350861
47.208792733799
47.360013390235
47.506281290306
47.647858966394
47.78498556796
47.917885500724
48.046767231399
48.171828070472
48.2932530784
48.411212774349
48.525867455802
48.637368632077
48.745857958552
48.851469614992
48.954331210664
49.054553680883
49.152242054793
49.27517391825
50.337583219527
50.918897918967
51.352762044424
51.769640455298
52.172539449932
52.564821379466
52.958478502387
53.375021429339
53.84298693191
54.389844622702
55.021966624715
55.68457877607
56.23606927101
56.56587957884
56.716168069659
56.773425869913
56.789243162252
56.786728212249
56.776562722966
56.763905596177
56.751421640239
56.74011005838
56.730314840853
56.722183852784
56.715754938931
56.711030444297
56.707994590277
56.706578383269
56.706715860342
56.708396753831
56.711480341675
56.715799691702
56.721160167355
56.727317487672
56.733991449929
56.74088242783
56.744673884037
56.751447620327
56.757419285923
56.762314845536
56.765927898068
56.768128558592
56.768884959277
56.768227600358
56.766441773744
56.763609134547
56.759740285764
56.754913472939
56.749259765977
56.742917677844
56.736077404937
56.728995688926
56.721882079316
56.714892308547
56.708163769623
56.701799749336
56.69587284539
56.690400062093
56.685462742825
56.681024968231
56.67700126052
56.673313206824
56.669837260817
56.666512161666
56.663362136082
56.660272127392
56.657224944685
56.653846458742
56.651638644352
56.66886494161
56.937882441448
60.794886453913
40.271707648524
35.191078465359
34.397465626042
34.000224013392
33.744134468902
33.584225980213
33.495128412205
33.497881921555
33.581403269765
33.726157856086
33.952849721489
34.224663093313
34.539323593318
34.910498390168
35.32583421836
35.775898550118
36.253214051604
36.751268322194
37.26152174275
37.776820403674
38.290721041167
38.797870029643
39.293450295781
39.774254702604
40.2381164951
40.683748331988
41.110611695143
41.518654569868
41.908168945609
42.279662364536
42.633875714148
42.971614782531
43.29366792143
43.6009061922
43.894200935708
44.174337458747
44.442107280106
44.698195819923
44.94334223274
45.178236031735
45.403478609165
45.61964469142
45.827247098938
46.026822281173
46.218834867564
46.403722029656
46.581874451592
46.753672007989
46.919478529582
47.079612039514
47.234379132437
47.384056046294
47.528911216364
47.6691906371
47.805119583793
47.936912171535
48.064769140147
48.188883929168
48.309433663635
48.426582401704
48.540484105473
48.651282585907
48.759115844624
48.864116432464
48.966400070862
49.066076218876
49.163215976518
49.311131906045
50.403031989953
50.95318204594
51.379712901745
51.789290260564
52.183964833766
52.566435402297
52.947079204514
53.345060860631
53.786664978139
54.29896302748
54.893864132928
55.535321506851
56.106595719762
56.4838346926
56.672403468583
56.751293500531
56.777866604326
56.780235785107
56.771682544986
56.758451835389
56.744201977835
56.73060007685
56.718333466035
56.707719992955
56.698917960902
56.692017824887
56.687066227299
56.6840741497
56.682959326842
56.68375858268
56.686392961271
56.690708167987
56.696511030338
56.703540262073
56.711473640084
56.719944612639
56.725569687971
56.734375052977
56.742337167359
56.749036966997
56.75414813181
56.757456015475
56.758874520638
56.758374983034
56.756293018711
56.752865646335
56.748059735684
56.741980094329
56.734884180331
56.727124857713
56.718988646155
56.710778174557
56.70289710544
56.695435075694
56.688622888222
56.68241915383
56.676878836989
56.671953800205
56.66748167974
56.663364291936
56.659608892798
56.656210084979
56.653051957752
56.650124370805
56.647406904756
56.644862392332
56.642417157512
56.640032701069
56.637424509227
56.652405151802
56.908109709266
61.100014599707
42.514193874533
37.105220206238
36.266006746297
35.831607318347
35.541389934225
35.33303871843
35.18907459574
35.111379422996
35.103999942943
35.159024279288
35.271114196914
35.456401785421
35.68698037777
35.951395634995
36.269001431164
36.628985308245
37.021289297512
37.437679300073
37.872456707848
38.319038422167
38.770405134047
39.221252982387
39.667355279465
40.10468957491
40.530654997941
40.943407474641
41.341724570499
41.724930148871
42.092778846761
42.445366722733
42.783010451597
43.106180202224
43.415454956109
43.711441557805
43.994747977687
44.265993280503
44.525868449175
44.774982996502
45.013913791977
45.243246453806
45.463466744336
45.675114398706
45.878683806928
46.074601147982
46.263299037294
46.445148333964
46.620540634908
46.78982949796
46.953330489883
47.111353570691
47.264170020663
47.41205474582
47.555263009764
47.694022234015
47.828548523467
47.959042031251
48.085703979597
48.208713813281
48.328238197952
48.44443451836
48.557448598637
48.667423510853
48.774492969838
48.878771705196
48.980375903793
49.079409608161
49.175928779461
49.369449290219
50.473624649051
50.992438429884
51.411143528215
51.812767208179
52.198466089965
52.570339391947
52.937101070188
53.315347511962
53.728759222132
54.20335596203
54.755272935817
55.365241457608
55.945307645801
56.370792603634
56.607852400261
56.717263209563
56.76029564761
56.771362291112
56.766496001011
56.754081704671
56.738778455144
56.723090167555
56.708270145277
56.694923682686
56.683393862468
56.673906015675
56.666598326961
56.661555459028
56.658797170574
56.658289305825
56.660087584979
56.664061513033
56.670031282965
56.677742460626
56.686857223893
56.696959030398
56.704621833666
56.715755783786
56.726096872959
56.73501090809
56.741985081069
56.746664607101
56.748859026483
56.748463202083
56.745893520465
56.741592385151
56.735512757187
56.727983962092
56.719465295079
56.710414667408
56.701411521479
56.692940803255
56.685273076148
56.678485555292
56.672276112701
56.666544813143
56.661681103082
56.657508683488
56.654228068318
56.651859806969
56.650359789575
56.649567918003
56.649345628474
56.649622439481
56.650301965071
56.651351289183
56.652568368645
56.653967377985
56.653813777858
56.66906886047
56.896943504468
61.289072504988
44.859708538727
38.598030398694
37.752562929612
37.292212486673
36.990897074524
36.7650993816
36.60096220432
36.483330838642
36.422703650931
36.422074779068
36.468485193318
36.568619180753
36.731602025516
36.93788647639
37.169958389153
37.450312294627
37.768753827653
38.114896200495
38.482883205962
38.866160806234
39.259998392843
39.658535910663
40.057024848572
40.452105919103
40.840526539022
41.220076845143
41.589190195096
41.946844526885
42.292343338537
42.6253182488
42.945701721106
43.253637067105
43.54940810424
43.833401206759
44.106058675209
44.367858345048
44.619279537674
44.860793226751
45.092887273258
45.316082886573
45.530802782372
45.737489864182
45.936571542238
46.128410142979
46.313393555268
46.491900420886
46.664246630216
46.830751641415
46.991691821686
47.147350963035
47.298012951215
47.443914020856
47.585284527347
47.722339227155
47.855280541549
47.984314840371
48.109620300919
48.231370558312
48.349724451441
48.464828525865
48.576829197654
48.685858827068
48.792038768554
48.895485750381
48.996311860851
49.094626802865
49.190461106153
49.465777029079
50.548879534867
51.037068101419
51.447296564999
51.840399281735
52.216643446753
52.577473037601