/*--------------------------------*- C++ -*----------------------------------*\
| =========                 |                                                 |
| \\      /  F ield         | OpenFOAM: The Open Source CFD Toolbox           |
|  \\    /   O peration     | Version:  2312                                  |
|   \\  /    A nd           | Website:  www.openfoam.com                      |
|    \\/     M anipulation  |                                                 |
\*---------------------------------------------------------------------------*/
FoamFile
{
    version     2.0;
    format      ascii;
    arch        "LSB;label=32;scalar=64";
    class       volScalarField;
    location    "0.0001";
    object      dydt;
}
// * * * * * * * * * * * * * * * * * * * * * * * * * * * * * * * * * * * * * //

dimensions      [0 0 -1 0 0 0 0];

internalField   nonuniform List<scalar> 
109340
(
0
0
0
0
0
0
6.0554775475376e-07
0.0015512271216482
0.0094537377421569
0.027525315571541
0.059313286080883
0.10815509149922
0.17730038075307
0.27012871777113
0.39036997791855
0.54235054174703
0.7313956093097
0.96426661279935
1.249752617119
1.5993404084226
2.0282540080857
2.5564022686385
3.2098848131611
4.0231122143268
5.0421972136188
6.3297016953978
7.9723167054933
10.093223143156
12.87319015849
16.588201343012
21.680158388818
28.898630807994
39.601076200913
56.412314211977
84.719344325708
136.20256589161
0
0
0
0
0
0
3.5203677342749e-05
0.0024163449411896
0.011900077575644
0.032394717318615
0.067409700846397
0.12025734964062
0.19421238141345
0.29272659571287
0.41966210166566
0.57961506676772
0.77818951691141
1.0225840204311
1.3222029561028
1.6893940206536
2.1404452266524
2.6966557004565
3.3859656426957
4.2453172669144
5.3243486984546
6.6907427077991
8.4387887162569
10.703463409747
13.684726677952
17.691440970289
23.225709613484
31.156953753736
43.10980712173
62.361705438229
96.276717142181
161.5417889181
0
0
0
0
0
0
1.7994724521075e-05
0.0021378508021137
0.01119894323083
0.031234653843892
0.065813200054603
0.11829313582502
0.19199160123458
0.29038901085935
0.41734843653082
0.57739784331029
0.77610851197814
1.0206139624775
1.3202771507822
1.6873993309627
2.1382723768829
2.6941583882725
3.3829525746902
4.2415581841593
5.3195608955119
6.6846130150086
8.4309458137878
10.693454079074
13.672000854589
17.675616374089
23.20759744072
31.144646085237
43.157837211437
62.752471333514
98.345676704198
172.60909076254
0
0
0
0
0
0
8.3806719921101e-06
0.0019516387079614
0.010794288682153
0.030670332962522
0.065163929468856
0.11760958996108
0.19128929569652
0.28964008263273
0.41649331871071
0.57635928001797
0.77478314895882
1.0188786626548
1.3180469203009
1.6845688041311
2.1349123571056
2.6903818013459
3.3789534075818
4.2377101708576
5.3163744671406
6.6829462740453
8.4321130172877
10.699461101634
13.685979810858
17.702930317656
23.258302561696
31.241236991256
43.391472575326
63.526993153226
101.75463772685
192.44732655431
0
0
0
0
0
0
5.4821360370369e-06
0.0018444302533771
0.010460550719761
0.030021193822643
0.064136219604183
0.1161582624473
0.18938926824662
0.28728879390899
0.41371423822316
0.57320508684732
0.77132245309016
1.0151873914239
1.3148837838761
1.6825565526667
2.135668357101
2.6962371323276
3.3933711346187
4.2659656099181
5.365977992376
6.7648941399954
8.5623018775764
10.900949036677
13.992634361793
18.16581320578
23.960203080718
32.307672252817
45.103451940385
66.652087710594
109.60371205451
231.70434735183
0
0
0
0
0
0
9.6668977380698e-05
0.0034432744302935
0.015448292713712
0.040480672034878
0.082372225791623
0.14474303508564
0.23127519857182
0.34601484605217
0.49372436212444
0.68029277749682
0.91320127852319
1.2016504404848
1.5563959768875
2.000101331567
2.5551486380867
3.2522636239525
4.1323107230911
5.249482105221
6.6764305288453
8.5119296702507
10.892924818333
14.014282366119
18.16310016097
23.782077904949
31.604605087563
42.843336120897
60.066285507372
89.109603763242
148.01958236918
347.00406792724
231.64597683645
388.21018345366
601.78123769937
853.50468735951
1132.4252847446
1451.2207838174
1815.3111159136
2230.7479774785
2693.5229999504
3190.3773339548
3729.1546203763
4203.3220187522
4640.5851175377
5009.4763694123
5284.2819481323
5473.0530379276
5581.3683485196
5620.8285896746
5605.6677814611
5545.9205809396
5452.2054170287
5337.4116577988
5208.5136244323
5070.6188679626
4928.4468036867
4783.2096701777
4640.5522059857
4504.6602001703
4364.8274784011
4237.4804652914
4108.1802822866
3988.3457063436
3872.0872899132
3760.6131521104
3655.3404888804
3553.2064573918
3457.4107995009
3364.402832744
3276.874783974
3192.4235718073
3112.0251575067
3035.5519058888
2961.6565290889
2892.1372860496
2824.247727277
2760.6838191169
2698.3197462258
2639.8462600828
2582.6259496763
2528.2255061465
2475.9882279012
2425.7253523348
2377.4188277699
2330.9095296712
2286.133133258
2242.9937846351
2201.4141265435
2161.3116017995
2122.6110540406
2085.241087778
2049.1380210347
2014.2407510064
1980.4906416304
1947.8326803121
1916.2184879222
1885.6038612055
1855.941749213
1825.3212910102
1913.1922791938
1412.3011002316
1265.6679429039
1163.6838487701
1067.1634979772
974.12517553124
883.41213158387
793.49368008082
702.98092893976
611.38008666951
519.92724653124
434.20407689853
367.10251317208
327.13108466574
307.56281735313
299.13722180568
296.27696004369
296.2778676812
297.02016993193
297.84022499211
298.49586163565
298.82303908478
298.94870515514
298.80394284166
298.46720955078
297.94955362219
297.28201341122
296.495084612
295.61865806334
294.67858799095
293.704155662
292.71147713376
291.71888773002
290.74011935444
289.79044690492
288.87913014631
287.76335387128
286.95685086124
286.20258413764
285.51059335573
284.89149090368
284.34036543174
283.83995024059
283.36108530934
282.91367278933
282.53347984843
282.25307293762
282.05734285145
281.91868650447
281.83420348849
281.80554852572
281.82469479689
281.87290007856
281.92328077941
281.95227588551
281.9469381717
281.89764727458
281.7903775751
281.60319628649
281.30143816167
280.92420835235
280.48936507846
280.05029070369
279.6467444415
279.28669591791
278.92974758061
278.61821696011
278.31638632472
278.47678352182
283.36879611955
347.82984821693
3321.0936592822
291.64743880713
497.75268872244
755.67974779599
1036.9506156088
1346.0268676241
1702.5449090951
2099.2778586516
2535.4296949974
3001.7430505986
3487.5539298228
3973.4080422064
4445.9721549532
4821.7433839015
5134.1793686658
5371.3610929324
5524.4151342913
5605.7313463547
5624.1190052488
5591.0962615135
5519.0787140091
5418.6714098624
5298.3804682957
5165.6155855821
5026.0391539927
4883.3563611678
4740.2560195766
4598.9299518613
4460.7464683517
4326.5890005691
4196.9365061652
4072.5002796849
3952.7490844307
3838.4473101914
3728.8977676508
3624.5266428135
3524.6809689324
3429.5710853632
3338.6075009354
3251.9265470704
3168.9957886824
3089.9007598686
3014.1530093169
2941.8538978127
2872.5520832399
2806.3146874002
2742.7822140681
2681.961385848
2623.5961322122
2567.6025389125
2513.8271411383
2462.1602215505
2412.5028420881
2364.7308828177
2318.7523325819
2274.4647068063
2231.78950778
2190.643448144
2150.9501389488
2112.6369573751
2075.6357528014
2039.8820472859
2005.3154472121
1971.8794830388
1939.521190942
1908.1898615201
1877.8376401259
1848.4189075994
1819.3174251603
1772.6395514716
1361.5031643753
1239.1224006152
1139.220430348
1043.754529515
951.57012913741
861.406745017
771.67541348563
681.13299699619
589.58220754481
498.92274445725
416.44746555814
355.7208911793
321.53107603408
305.25119573529
298.49195429054
296.54171156905
296.51178069034
297.23323972505
298.04117611827
298.68707981328
299.01583049587
299.13022286138
298.99109101239
298.64858581644
298.12640965043
297.45586754277
296.66630378427
295.78710530322
294.8447813914
293.86815866984
292.87357935333
291.87936514253
290.8998958792
289.94927473724
289.0377947378
287.92271702891
287.11536040296
286.3588628485
285.66352472385
285.04028533386
284.48572958091
283.98390894942
283.5058233373
283.06211673295
282.68933287305
282.41703180642
282.22867599719
282.09747086506
282.02156033602
282.00175286204
282.02801704638
282.08033507818
282.12845886684
282.15299196627
282.14334035793
282.0915979399
281.97196642469
281.77102349153
281.46201861437
281.07623559873
280.63539381831
280.19008675567
279.77613606115
279.40512290181
279.03948644715
278.71784388676
278.40528263117
278.60119568248
283.46940638477
348.36488479858
3353.6924591763
344.00015659963
629.29088160906
936.06743748384
1302.3972479945
1662.3221525248
2045.5544549461
2463.708427853
2898.9524769369
3342.347689162
3807.7657607529
4206.8396760705
4593.4752521547
4928.9987697775
5200.0866526572
5404.4037255248
5539.6156340158
5608.2914880173
5617.654474237
5579.9751513785
5506.9398593612
5406.3386495508
5286.164382121
5154.1407856155
5015.3419715271
4873.1458282055
4730.7898358398
4590.3982232607
4452.8372121867
4319.3427824366
4190.3874166674
4066.3998791741
3947.3861977195
3833.3461796446
3724.4124364434
3620.2414958819
3520.888758647
3425.9306344039
3335.3645106761
3248.8162910437
3166.2100489952
3087.2190132153
3011.7488645318
2939.5515304383
2870.4720530381
2804.3417054651
2740.9835305365
2680.2810602076
2622.0316082594
2566.1569286701
2512.4750354714
2460.9109602234
2411.3218930225
2363.6299485336
2317.7232295479
2273.5064472261
2230.8939655272
2189.8034856241
2150.1617035267
2111.8966347411
2074.9404080559
2039.2279522916
2004.6994040646
1971.2990436364
1938.9743301061
1907.6735273904
1877.3477424208
1847.9511666816
1819.0768611419
1768.1037495196
1360.1591159625
1238.3409165113
1138.6773291127
1043.490979727
951.62602463945
861.80415710535
772.43133576553
682.25860639758
591.07102635322
500.70689988148
418.27514033357
357.19145072273
322.54649385791
305.95192482123
299.00449208549
296.91027256829
296.83883204781
297.55387927722
298.37262523026
299.02658316275
299.3883763695
299.51428941704
299.40496167561
299.07728334515
298.56639882047
297.90394065788
297.12080478866
296.24688836919
295.30925947682
294.33371569236
293.33851616448
292.34085369788
291.35759697735
290.4010066092
289.48166227715
288.36070194522
287.54562150282
286.77900216787
286.07447565703
285.44153727978
284.87573300213
284.36219216065
283.88054778269
283.44154446481
283.07581069401
282.80432173464
282.61397613062
282.48333840568
282.41239815757
282.39331817406
282.41372337092
282.45654881266
282.49479496164
282.509911927
282.48952702302
282.42812251685
282.28260895608
282.05930477597
281.73796894431
281.3322220503
280.87788053079
280.41517247653
279.97534312141
279.57963934897
279.19190940012
278.8468793622
278.50105251702
278.69913976251
283.47610202615
349.47311124851
3469.3658458889
465.70883659042
923.08523139213
1350.306515699
1816.739389219
2259.2482309574
2665.3723369258
3070.9965929672
3459.6385401911
3835.9613721548
4211.4887900952
4502.4644295963
4797.5674626664
5067.4476953372
5287.9161499188
5458.4047121795
5565.8979959798
5615.230218217
5614.9484843148
5571.4605141302
5493.1854522082
5390.6650643903
5271.8482633611
5140.1645839338
5001.7103917429
4860.7956474386
4719.51394779
4579.6891248346
4443.082203659
4310.4379030913
4182.2850755016
4058.8920290154
3940.5919570908
3827.1489711388
3718.7139622787
3615.0403841426
3516.0603407085
3421.5016012786
3331.2568291928
3245.0235196636
3162.6750442101
3083.9466017187
3008.7143188859
2936.7139983689
2867.8458121585
2801.8781509117
2738.7071800854
2678.1327123762
2620.0435166575
2564.2856651724
2510.7355434091
2459.279410578
2409.7943991562
2362.194577982
2316.371666126
2272.2401465048
2229.7037316617
2188.684959388
2149.1086826917
2110.9037836548
2074.0028856273
2038.342281442
2003.8626146322
1970.5081188472
1938.2255880164
1906.9619406913
1876.6724305065
1847.3100317857
1818.8354134224
1761.4540828467
1358.3222884248
1237.2332671648
1137.9059471639
1043.115722616
951.70473359405
862.37298050894
773.51566265972
683.87502964102
593.21065599048
503.27729372677
420.92381348644
359.3398026036
324.03633156407
306.98102863659
299.75549926771
297.46853652871
297.33709784605
298.04169520496
298.87696439687
299.55287116619
299.95208252265
300.10008601953
300.01036785725
299.69964131808
299.20291293611
298.55171529034
297.7769222823
296.90864305434
295.97392526922
294.99817643131
294.00001401483
292.9972389639
292.00781608321
291.0446456513
290.11681815287
288.98723996345
288.15923764286
287.37886806907
286.6593536385
286.01104668629
285.43165394201
284.90805130735
284.4221887897
283.98548174187
283.6262905367
283.35970537761
283.17187743704
283.04765432261
282.98487563129
282.97037489583
282.99101530919
283.02851529503
283.05717393645
283.06113753075
283.02637347392
282.94773141163
282.77736577611
282.52974177361
282.18452599171
281.7522926236
281.27016462456
280.77507555748
280.29879151182
279.86745407022
279.44750887398
279.07280302831
278.68746283212
278.85899095574
283.58095148849
349.90686734928
3541.0287423403
886.06148391469
1720.2328792987
2410.8922074862
2934.8374543668
3334.1223844791
3659.6850214669
3925.206569187
4153.7310889347
4379.0445417249
4589.475596091
4809.9114838048
5028.0467314471
5226.1737326552
5391.190135391
5515.0692362519
5594.5761599809
5625.5901094406
5611.4062022039
5560.0461061671
5479.0190412452
5374.7674250014
5253.7287756911
5123.4830345693
4986.438414681
4846.2907776001
4705.8763136575
4567.4800613157
4431.8763617905
4300.1358992249
4172.8568486405
4050.3116004201
3932.6515878809
3819.9575052727
3712.0856535483
3608.9676496612
3510.4149540748
3416.3336240374
3326.4299943109
3240.5706976588
3158.5192535719
3080.1077391779
3005.1162763779
2933.3838759352
2864.730222439
2798.9825774794
2735.9960014683
2675.601904651
2617.6789742265
2562.0669820419
2508.6610894256
2457.3282831525
2407.9699442493
2360.4766999043
2314.7536492038
2270.7134289519
2228.2658179924
2187.3311880234
2147.8314996788
2109.6968121544
2072.8608326235
2037.2613390366
2002.8390142433
1969.5377311054
1937.302983294
1906.0846518971
1875.8387599941
1846.5208276617
1818.6021821851
1752.7728837862
1355.9734327034
1235.8201028435
1136.9179380827
1042.6332814114
951.80422276926
863.10420521567
774.9159329785
685.96767202134
595.98708088008
506.62262100181
424.39497627079
362.18454738624
326.01987340447
308.35210349163
300.75480438296
298.2232206154
298.00421349414
298.68976894835
299.54235957471
300.24758863691
300.68809298047
300.86727003574
300.80437196576
300.51631296021
300.03748487329
299.4000403606
298.63563011758
297.77424347171
296.84253118576
295.86495518633
294.86034424994
293.84745247607
292.84594455907
291.86924191423
290.92618367422
289.78053027761
288.93309149707
288.13360589285
287.39490423382
286.72828004348
286.13419804974
285.59885461956
285.10589648765
284.66898823335
284.31334432098
284.05073715518
283.86561884664
283.74611063828
283.68669160089
283.67304731002
283.68963671048
283.71684826739
283.73164505059
283.71926049506
283.6642885433
283.56148370033
283.36285935293
283.0821728797
282.70091114145
282.23073291679
281.7089152771
281.1733420952
280.65194582484
280.17673636948
279.71466650132
279.29775901563
278.85560189121
279.00782885707
283.68889520431
350.21561679495
3609.4411495792
4224.0067438117
5008.6711402591
5053.6186486809
4916.4727458275
4827.3725441789
4792.1831104625
4801.5004917773
4826.1891208711
4900.5171547434
5006.4304248988
5130.8745191747
5259.9883116336
5385.9797635599
5495.7883753771
5576.4465177716
5622.9278660086
5632.4565134385
5605.7685381739
5546.6590275705
5461.06926694
5355.1643648007
5234.6002533676
5103.6083593994
4967.9251137262
4829.3365402181
4690.4323268919
4552.962146708
4418.8264670016
4288.3450804924
4162.0663645927
4040.4299496428
3923.6898954985
3811.7385781436
3704.5245571754
3602.0358040545
3504.0510144556
3410.4259838198
3320.9664880998
3235.5156048975
3153.8192393902
3075.7303800047
3001.0417395804
2929.5971921803
2861.1886184845
2795.6810596727
2732.903843261
2672.7195709355
2614.9714583508
2559.5314604781
2506.2803014008
2455.0955213425
2405.8733375532
2358.5025586321
2312.8945070219
2268.9572584584
2226.6090605413
2185.7660963245
2146.3519242827
2108.2973990263
2071.5363841823
2036.0063477523
2001.6478255746
1968.4053621118
1936.2243124267
1905.0588848199
1874.8635673319
1845.6062263782
1818.1905459725
1742.0574024279
1353.1014031989
1234.1162358862
1135.7245107609
1042.0480777768
951.9208739767
863.98843497547
776.61752626913
688.51883823032
599.38019083828
510.72580675688
428.6885235688
365.74921666642
328.52346341045
310.08451427324
302.01519233625
299.1842241798
298.84426376711
299.49842834891
300.36703389376
301.10569958003
301.58976835737
301.80543266063
301.7719418568
301.50787063848
301.04753337386
300.42304155051
299.66731635887
298.81045507989
297.87910374395
296.89723521311
295.88343573093
294.85654486687
293.83806140959
292.84221569028
291.87690711969
290.71109927328
289.83458088939
289.00967607079
288.24744571572
287.55843429885
286.94613209887
286.39617151962
285.89322480493
285.45379082494
285.09949272826
284.83931554401
284.65528370076
284.53995607416
284.4828759679
284.46750701915
284.47674778207
284.48864377296
284.48188073302
284.44202748394
284.35386858374
284.21219760829
283.97086392596
283.64235078917
283.21448567457
282.69889897171
282.13285743159
281.55581589208
280.98863645004
280.46390024279
279.94905900392
279.48174512949
278.97016517402
279.0862904051
283.67940928429
350.25485651941
3694.9948338439
17938.301093304
10797.657973113
8409.1089242727
7125.4437671014
6335.4578724523
5875.4916596588
5625.3782947198
5485.1408379402
5417.5543247996
5403.9822570093
5424.4709396676
5467.8187135689
5524.290339186
5581.0443472776
5625.1540704494
5647.1137250178
5642.8581339192
5609.4529582056
5548.587279752
5464.0835621895
5360.4839418519
5242.5371223469
5114.8333548819
4980.3485398012
4843.6174022199
4706.6131786016
4570.3984892095
4436.577956025
4306.4595362243
4180.5902950554
4058.945724716
3941.863504052
3829.6477612145
3722.1523375744
3619.2092759773
3520.7368592288
3426.6539420359
3336.7017599485
3250.7174633651
3168.5230736016
3089.9531967214
3014.7814752201
2942.852505707
2873.9922697358
2808.0528359006
2744.850288655
2684.2537042907
2626.1128467644
2570.3048287649
2516.6941117997
2465.16567487
2415.6115843248
2367.9288273044
2322.0228854573
2277.7950183261
2235.165065327
2194.0535793972
2154.386821208
2116.0903921138
2079.0955611849
2043.3402888818
2008.7663089333
1975.320278039
1942.9499134428
1911.6044022628
1881.2285450205
1851.7859317919
1821.0343832412
1879.5771230154
1395.8695574369
1258.0117946891
1158.2800132085
1064.2203053223
974.10663363107
886.64883030259
800.23092037828
713.38475775466
625.46488542835
537.28364302223
453.08973653302
383.64822598631
339.03216110115
315.7701833442
305.04036024286
300.36112043944
299.86023103908
300.46524525278
301.34454779797
302.1182677485
302.64713731599
302.90377641993
302.90250952034
302.66341874226
302.22124554053
301.60813103769
300.85831785756
300.00242469918
299.06713332492
298.07616840374
297.04821128262
296.00169292839
294.95920197885
293.93637218653
292.9426565133
292.30863833946
291.37968214043
290.50914640363
289.70482583424
288.97729385203
288.33218855253
287.75643296472
287.23454095605
286.78734195008
286.43141303919
286.16782272
285.97690843839
285.85634093834
285.78745536548
285.75122792248
285.72808638648
285.69426675237
285.63147301279
285.52607748328
285.36515480574
285.13955914374
284.82313561112
284.41629760835
283.91262766003
283.3270865314
282.69392682593
282.04596393766
281.39280034181
280.77935277681
280.16700204087
279.60544106203
278.96704836234
279.00839710154
283.41496208829
349.86401301435
3867.8564674637
11145.967118956
12575.141462203
10537.33976218
9124.8494359461
8130.8899063245
7416.4925315031
6892.2451861458
6487.8353713984
6249.2870413013
6067.1230559534
5934.3790707781
5848.822603255
5792.9521542309
5754.4804234783
5721.3438829428
5682.789759588
5632.4499889105
5566.9221163262
5484.3903271719
5386.3112892539
5275.4943043302
5154.7672236518
5027.2090228175
4895.6830598707
4762.271122378
4628.5412123016
4496.5719498338
4367.6380172071
4241.8172568069
4119.8037585858
4001.9359874872
3888.7169413252
3779.8421155367
3675.398601037
3575.3223793433
3479.6141584885
3387.9740965949
3300.2893399026
3216.3961637864
3136.1683353988
3059.3856566717
2985.8774016713
2915.482339123
2848.0631703991
2783.447237714
2721.4803053265
2662.0248343981
2604.9568034447
2550.1488132431
2497.472456839
2446.8189271606
2398.0836216813
2351.1726428427
2305.9879213323
2262.4406939606
2220.448070071
2179.9349531785
2140.8315276838
2103.0677986139
2066.5778378467
2031.299477867
1997.1747844218
1964.1515280932
1932.1807851298
1901.2168799355
1871.21046461
1842.1202203667
1817.8518355236
1697.2602555033
1341.6004286348
1227.3480028037
1131.0133700877
1039.7209375671
952.33173082233
867.43066511188
783.3320981369
698.67111055281
612.97761569863
527.32684751433
446.45067082232
381.0415749052
339.51973677123
317.73402663945
307.56140024523
303.41983994425
302.45232403612
302.88256712315
303.75054003687
304.58710372274
305.20322051014
305.54539199112
305.60973535897
305.41772722818
305.00435285723
304.40306210865
303.6495978526
302.77739006172
301.81394829654
300.78457720364
299.70961326006
298.60718702329
297.49885867612
296.40072863326
295.32961973291
294.65222591416
293.63815457397
292.68671469526
291.80557408601
291.00782664797
290.30130633867
289.67453777139
289.10938292638
288.63148205873
288.24866426162
287.95308577847
287.7296214103
287.57007207633
287.44281226191
287.33058745607
287.21131989194
287.06443256567
286.8813825516
286.65482877443
286.37102704681
286.00695883172
285.55608524543
285.00071356456
284.34410948832
283.60942733051
282.82649057152
282.03026379586
281.20872671418
280.43099741438
279.6414401237
278.91496419075
278.08070222457
277.91887592927
281.91139153215
347.54833382578
4223.2717878883
8604.7632849813
10988.535033844
10274.992811528
9350.6101267589
8577.9956807554
7965.1899580184
7466.1928810032
7060.9911112049
6715.3784695335
6445.7389615484
6245.7580075122
6085.8225751583
5955.0989646884
5849.8411166918
5763.1715233095
5684.1464833667
5603.993949849
5518.0096190521
5423.4640028836
5319.3289090305
5206.3461987109
5086.3952212999
4961.4740652437
4833.6247806559
4704.5639441726
4575.6924663371
4448.3066957613
4323.2551447693
4201.2462253007
4082.9897661471
3968.5925580158
3858.2437719434
3752.0550312503
3649.9852843003
3552.1891291165
3458.4226268296
3368.562612532
3282.4582424554
3200.036892342
3121.1030020776
3045.4715322177
2973.0062543818
2903.5688086933
2837.0197101731
2773.1733118294
2711.9115459322
2653.0972079709
2596.6203025754
2542.3475808398
2490.1617016342
2439.9578831664
2391.6383770149
2345.1111146178
2300.2773716061
2257.0547289363
2215.3628062381
2175.1289624023
2136.2835860383
2098.7563730235
2062.4863549008
2027.4140795267
1993.4834182191
1960.6421218445
1928.8408687728
1898.0381428812
1868.1806197656
1839.2254347992
1819.3937595876
1657.2893752236
1332.2590214169
1221.5452140395
1126.9630071822
1037.6880676179
952.57620614867
870.21029092257
788.88781337875
707.18641635404
624.50661804025
541.59975324656
462.19544384634
395.33249015875
350.22890175696
325.2816246169
313.02728058108
307.56979836181
305.88618151651
305.99348601375
306.77212192822
307.63778476682
308.32606369664
308.74534787953
308.86898912527
308.71357806769
308.31187031393
307.6994534388
306.91357225026
305.99155528998
304.96519934327
303.86232499471
302.70588435686
301.51489059057
300.31178915173
299.11353642286
297.93976127861
297.15905824017
296.04410437729
294.99644047495
294.02589057476
293.14216326123
292.3535143323
291.64875924667
291.01717055776
290.47858369473
290.03241697533
289.66335342684
289.35735930465
289.08658331576
288.82466421908
288.5660819069
288.30447083726
288.00611930871
287.65077340936
287.22206280109
286.7154786349
286.10707244897
285.39990904415
284.58797165822
283.67957101543
282.70297466373
281.68032692361
280.64684441845
279.57441833738
278.55288940185
277.50546596946
276.54870080603
275.52972045487
274.85120957528
278.21689371219
341.64394588276
4799.451332243
7491.0668623507
9240.3181918736
9363.6620545674
8880.804227007
8348.4935490026
7883.1396922156
7478.4356757236
7125.7357757233
6817.9613388442
6550.7917189328
6324.5205286858
6146.1973373882
6000.0178873736
5865.8799770737
5750.5272766638
5646.9317651748
5547.5863866288
5448.0300877993
5345.4947513054
5237.8601561818
5124.8798070601
5006.985457978
4885.6558473413
4762.1873212812
4637.9704033369
4514.1722771977
4391.6976901623
4271.4275835179
4153.9858619036
4039.7968238285
3929.1463652992
3822.2580226534
3719.2677045233
3620.1445496974
3524.8715910105
3433.3487916268
3345.5157645459
3261.366506251
3180.6508341247
3103.2360079754
3028.9886327813
2957.7844888814
2889.5125279081
2823.9741368737
2761.0639871102
2700.6411106458
2642.6102592515
2586.8375144138
2533.202834021
2481.6057599766
2431.938439847
2384.1188261936
2338.0449710861
2293.6289886199
2250.7903129498
2209.4538568137
2169.5517037861
2131.0102737996
2093.7646719716
2057.7541416473
2022.9217361411
1989.216438546
1956.5866891404
1924.9880093716
1894.3689488345
1864.6876158856
1835.8736172956
1826.7460403028
1610.1895790974
1321.5082628892
1214.7032227625
1122.1685159755
1035.2055097401
952.66749210053
873.16209168934
794.99682689234
716.70150061597
637.53721521538
557.95530764129
480.72050720636
413.0279497208
364.15096178735
335.3005176154
320.31058556039
313.07866180841
310.34920822238
309.92113045886
310.48203371203
311.30654882381
312.03073685733
312.50231135705
312.67166250991
312.53410794365
312.11978190237
311.46574157636
310.6122835542
309.59982222235
308.46664409876
307.24496855661
305.96206526011
304.63973380647
303.30378233562
301.97500159046
300.67474361603
299.75036043334
298.51286147833
297.35155138699
296.2767708946
295.29601825465
294.41060121179
293.60222093166
292.87240199752
292.23267693995
291.67312565476
291.16637522756
290.69036857129
290.22722868354
289.77974104755
289.3222646992
288.8137652823
288.21781755752
287.52365427783
286.72688702977
285.83146200264
284.81705469441
283.69027243302
282.47037172109
281.16233170185
279.79848507201
278.3852781907
276.96719070749
275.50843118032
274.10460583161
272.65362596661
271.30427699476
269.89500778664
268.51474142825
270.87394905591
329.07835395108
5533.6929300288
7027.5864354839
7912.6942076976
8360.5022955401
8233.6565843992
7903.8462761498
7567.8317531776
7255.407263217
6974.2848959446
6713.1358167582
6484.0146568499
6271.1029540655
6095.3947524982
5939.3940003042
5804.7229387335
5680.8398715823
5567.3785784495
5460.1280725823
5355.7512269118
5250.2447660097
5142.3712945079
5031.3689590595
4917.2563980043
4800.6075578414
4682.4242902344
4563.7311179793
4445.4554244086
4328.4135648596
4213.2910631971
4100.6878585226
3991.0328572455
3884.5947974094
3781.5366053076
3681.9640916679
3585.9635095902
3493.570743294
3404.7070889987
3319.2649983644
3237.2010465449
3158.3625531779
3082.6711812336
3010.0472751129
2940.291082114
2873.2921296828
2808.9315931187
2747.0804317714
2687.6630725897
2630.5218668986
2575.5597870794
2522.6697616693
2471.7495545268
2422.7214836628
2375.4756234187
2329.9282394743
2285.9957965364
2243.6041635808
2202.6870348268
2163.1653780968
2124.976365533
2088.0571732837
2052.3488085437
2017.800842416
1984.3583713843
1951.9779611051
1920.6056872106
1890.2007033234
1860.7133385181
1832.0397960743
1844.042883862
1559.0599643783
1309.4841800458
1206.8586164804
1116.6315661365
1032.1954441332
952.45413173463
876.0544946424
801.33862909568
726.80861666154
651.58589151309
575.84844593352
501.52603382087
433.98441716377
381.66289046445
348.33864568269
329.88638285997
320.31977418237
316.1265590305
314.87369951685
315.02617778482
315.69264161214
316.38507450639
316.86955159374
317.05410767237
316.90858294369
316.45142058843
315.72041961009
314.75872734208
313.61072486255
312.32085385247
310.92799584049
309.46542685089
307.96376168151
306.45271620867
304.95595457558
303.49577011864
302.3986070745
301.01425843856
299.71474963008
298.51358084498
297.41392602162
296.40495879146
295.46322335948
294.59946020224
293.80997790487
293.06824583005
292.33600718067
291.6206749188
290.90043743615
290.12848916248
289.27476416655
288.30554632586
287.18949298984
285.92196183934
284.52535530855
282.99951918866
281.32423749974
279.5213219916
277.6056708288
275.57931981062
273.51171751291
271.38680598121
269.28266612014
267.14866777447
265.07140182101
262.94079491433
260.93384187539
258.85557040102
256.520141303
257.46571421102
306.3338539422
5934.4587314848
6947.4942787466
6947.0479111862
7448.1407500656
7560.2529688403
7402.1159937815
7171.3319207783
6938.217102062
6718.3798983941
6508.7893199192
6311.7701866171
6133.7289078039
5970.0595268763
5826.5645515597
5688.5759701516
5574.6562863837
5458.7050455628
5349.4726112327
5244.3379709987
5140.2262822551
5035.2597128799
4928.1694851031
4818.9271574464
4708.009839719
4595.8489757805
4483.193904533
4370.8918140215
4259.6761723655
4150.100425691
4042.6460612949
3937.7347841824
3835.668814052
3736.6577537883
3640.8190169073
3548.2102676941
3458.8645052383
3372.7630502913
3289.8742912897
3210.1311126784
3133.4375976725
3059.7019772712
2988.7926920489
2920.5918442303
2855.0266959845
2792.0019413941
2731.3651050341
2673.0222667859
2616.8697991344
2562.8056549911
2510.7605830624
2460.6234443661
2412.2921347184
2365.6960588104
2320.7405336893
2277.3604704303
2235.4852020613
2195.0338685617
2155.9476236786
2118.1581036378
2081.6106750364
2046.2522434016
2012.0256698767
1978.8849478263
1946.7788709745
1915.6554776098
1885.4789413177
1856.2077006987
1827.6706840302
1871.4797056284
1507.8459701109
1296.8005990483
1198.090191662
1110.3301427213
1028.5639387679
951.76569405344
878.63052524375
807.56013608005
737.04342726564
666.1013513296
594.63983299454
523.92030457031
457.7141100672
402.91223213053
364.94177819976
342.3281287468
329.77389004055
323.60743248113
321.15035476981
320.63074049892
320.96347473649
321.5129854988
321.94276421011
322.09235831102
321.89998643952
321.36426238329
320.51699917961
319.40335757672
318.07214316705
316.57288227264