/*--------------------------------*- C++ -*----------------------------------*\
| =========                 |                                                 |
| \\      /  F ield         | OpenFOAM: The Open Source CFD Toolbox           |
|  \\    /   O peration     | Version:  2312                                  |
|   \\  /    A nd           | Website:  www.openfoam.com                      |
|    \\/     M anipulation  |                                                 |
\*---------------------------------------------------------------------------*/
FoamFile
{
    version     2.0;
    format      ascii;
    arch        "LSB;label=32;scalar=64";
    class       volScalarField;
    location    "0.0001";
    object      k;
}
// * * * * * * * * * * * * * * * * * * * * * * * * * * * * * * * * * * * * * //

dimensions      [0 2 -2 0 0 0 0];

internalField   nonuniform List<scalar> 
109340
(
6.9123122393007
6.9087182489714
6.9104109276508
6.913295596361
6.9136933013225
6.9100832648717
6.9019341496165
6.8897850070132
6.8744687466586
6.8556938218961
6.8335934856056
6.8083768477728
6.7802532158933
6.7494217956904
6.7160707118342
6.680381592319
6.6425312948338
6.6026922060055
6.5610335818172
6.5177200443964
6.4729095745254
6.4267509560712
6.3793821217429
6.3309282944665
6.2814996712164
6.2311879759892
6.1800610931711
6.1281559269972
6.0754683238719
6.0219364557839
5.9674122331557
5.9116069577926
5.8539719055132
5.7933893890151
5.7272663034816
5.64905049466
6.9077660793931
6.9066765315833
6.9080679300978
6.9082682736982
6.9051359087901
6.8980279322854
6.8868183378897
6.8711826728922
6.8513783832438
6.8278160554466
6.8007562155433
6.7704320190905
6.7370785585274
6.7009298760306
6.6622174256211
6.6211682342333
6.5780060046099
6.5329515864127
6.486223185045
6.4380340930388
6.3885889810135
6.3380782842338
6.2866747715648
6.2345309975541
6.181776246617
6.1285116793742
6.074805595512
6.0206869749871
5.966133626721
5.9110541998916
5.8552538885293
5.7983675179685
5.7397068293019
5.677853611727
5.6095233424809
5.5264002408433
6.9023744069901
6.902636517063
6.9028150039525
6.8999996191712
6.8927349257929
6.8804761812648
6.8630156622899
6.8404722379518
6.8131042428241
6.7812949102773
6.7454309551625
6.7058797081864
6.6630062828872
6.6171759097053
6.5687520072438
6.5180945386136
6.4655578183115
6.4114964627042
6.3562663319864
6.3002066846847
6.2436318737616
6.186811541751
6.1299765494653
6.073321288114
6.0169859789671
5.9610652544078
5.9056185850589
5.8506407125927
5.7960783036271
5.7418020335655
5.6875660801338
5.6329552324432
5.5771903563373
5.5186680202959
5.4536627434893
5.3722078127796
6.891283717182
6.8968503631144
6.8953370359562
6.8860339568319
6.868763257426
6.8435736903174
6.810771305677
6.7708193066781
6.7243432119936
6.6721068074384
6.6149536240616
6.553755048497
6.4893837606731
6.4226923298515
6.3545205174175
6.2856827551541
6.2169717658048
6.1493325020516
6.0834764672868
6.020016596161
5.9594241809566
5.901972061689
5.8477594236651
5.7967937638731
5.7490230894272
5.7043463405742
5.6624943600637
5.6233811088267
5.5868476781366
5.5526969338749
5.5206129263357
5.4900612381789
5.4599752595771
5.427954442226
5.3877471395726
5.3201540309731
6.8789095818337
6.9060161392745
6.9130481436947
6.8997782524537
6.8655959675931
6.8119879842318
6.7421653308094
6.6602136927202
6.5705653710377
6.4776260909288
6.3854550234861
6.2979204273666
6.2183659902154
6.1497891410735
6.0949381063253
6.05640727945
6.0367493788559
6.0392385724039
6.0641652246193
6.1089264698955
6.1698734513487
6.2439499749405
6.3287675347155
6.4225019545658
6.5237349695692
6.63132968401
6.7443253726269
6.8618759349005
6.9840238415799
7.1099878579915
7.2379673775356
7.3655998381729
7.4895605357251
7.6027655809572
7.685325502617
7.6640040225921
8.3393916600787
12.372889748603
15.812142630518
18.430262914623
20.236600874371
21.36210137515
21.970090127645
22.209693634727
22.1976177935
22.028914472712
21.758542687289
21.429140330966
21.069696459411
20.699542591125
20.331485660786
19.974496777485
19.634310564962
19.314678307039
19.019209888359
18.75149935115
18.507038232465
18.282925137464
18.077681715775
17.890497525314
17.720811275781
17.568198303777
17.432373936475
17.313233789617
17.210918687488
17.125919403737
17.059319564786
17.013322107373
16.991282737117
17.001004577731
17.050802650261
17.131792787588
5.5452348413866
5.4057100392386
5.2290120317209
5.0155012288512
4.7653085025108
4.4790408614213
4.1607618986048
3.8166079498685
3.4566813650855
3.0972495758992
2.7542308155821
2.4665161351491
2.2228519366051
1.9954288622202
1.787584687097
1.5992357453911
1.4319791776115
1.2854769863572
1.1579371143291
1.0475498327012
0.95215393713711
0.86899614380999
0.79657005628767
0.73353441361974
0.67838648974391
0.63035982719359
0.5872796674487
0.5481124833059
0.51516271475878
0.48320753045164
0.45690949298427
0.43125820975756
0.40928614408299
0.38851647954191
0.36998727817745
0.35274559914953
0.3370784138215
0.32242050191299
0.30920810903542
0.29653781767371
0.28538166601178
0.27428576644065
0.26473770806753
0.2549546142073
0.24661682056595
0.23802451381845
0.23060495579085
0.22319560890453
0.21645852985657
0.21008834902974
0.20395649106149
0.19823316419282
0.19280592322647
0.18766853678097
0.18277973865995
0.1781265145846
0.17369111796956
0.16946649405122
0.16544229598122
0.16160689206132
0.15794390652926
0.15443752884711
0.15107403016283
0.14784254260637
0.14473438208547
0.14174283687544
0.13886393097693
0.61499565538958
3328.8185087624
3508.9076901416
2237.9033239755
1509.2802107115
1071.5072128507
793.90648428564
608.50853036561
476.75021094734
375.89805158376
292.37370276962
219.21456569995
157.21024189206
113.9354379104
89.744001407739
75.916877234929
66.951944470753
60.565630956579
57.278405488877
55.366440075684
54.29264171516
53.673053264927
53.275653800646
52.94417933105
52.560719318464
52.043731181169
51.346994937084
50.441777254079
49.315209203412
47.968113992737
46.413951035531
44.677166696277
42.792070692258
40.800238576652
38.746062816989
36.674195718372
34.621913043357
32.131852298638
30.244387519167
28.456519428151
26.808297545506
25.322558917936
24.010902834289
22.874758421018
21.901869977507
21.076526409959
20.385141003908
19.811848500494
19.339406603529
18.951712099746
18.632353574237
18.365551035651
18.139529386589
17.943126837171
17.766371003485
17.601789685538
17.443136145576
17.281849412372
17.117981669878
16.946958777348
16.7620186557
16.561914366462
16.347585262605
16.11973361792
15.880343881134
15.629281793573
15.378145019755
15.123480147024
14.878746727199
14.58934859169
14.404052610641
13.699341004922
13.89738927212
5.4113541859817
5.2511667175672
5.0407194470863
4.7848862600511
4.4887471594246
4.1581730848737
3.8019762143689
3.4310179856151
3.0578168241001
2.6935101238684
2.3492412033922
2.0335547080754
1.7630588525698
1.5308827861058
1.3368741213147
1.1790278751152
1.0524673937687
0.95155687114938
0.86766592388885
0.7972310337103
0.73738521420464
0.68567845317051
0.64048164430244
0.60056731079806
0.56484949812668
0.5325491794425
0.5031365680848
0.47601895048181
0.45112540308659
0.42829637520714
0.40726949185338
0.38810350665008
0.37034047083165
0.35406872001235
0.33888688896161
0.32488849689868
0.31176611906937
0.29963940827362
0.28827328723567
0.27775568444388
0.26787159101719
0.25867598297788
0.24997766539176
0.2418289647526
0.23410890834792
0.22683592589374
0.21996475954288
0.21347442813261
0.20736257523655
0.20157827375767
0.19611009500136
0.19091075863884
0.18597522372344
0.18127228775307
0.17678785882657
0.17250506306628
0.16841566440649
0.16451122723075
0.1607830419513
0.15721942549025
0.15380711776145
0.1505323364423
0.14738263174611
0.14434813237865
0.14142207021959
0.13860129925604
0.13578269680985
14.335169420696
4466.8335302248
3119.271107664
2014.5899881176
1377.6567279709
989.52136338919
740.27560053143
571.42775195573
449.33255535589
354.03366806681
273.69167753869
203.04168970346
144.98009559413
106.90221890025
86.023693499308
73.684744392864
65.559570825776
60.757261369267
57.456608623385
55.549073394988
54.485526007708
53.878521702959
53.493785913799
53.175249480819
52.802786493494
52.295781852967
51.608246611751
50.710752662002
49.590334992732
48.24800266062
46.697268526896
44.962605642551
43.078372851567
41.085936204794
39.029874372623
36.95544293198
34.900532670662
32.40601474757
30.51411156282
28.723198104815
27.072806442125
25.585102524001
24.270935276689
23.130890297481
22.153669903497
21.323855804683
20.626475524307
20.045680542081
19.564542843602
19.168090486259
18.839995327266
18.564246760712
18.328937543415
18.123201279595
17.937054249871
17.762422985204
17.593521565676
17.422475211733
17.248940332592
17.067095679676
16.871980491817
16.662391462589
16.439068224961
16.202977861611
15.956039658375
15.698561090257
15.438931858738
15.175432819214
14.921732227442
14.641694075957
14.42661118078
13.632565551417
13.866638835727
5.2521311503926
5.0738548929883
4.8384504370578
4.5570413217846
4.2419640423779
3.9038488923784
3.5530011155185
3.2000088150085
2.8533812150406
2.5169681086382
2.2107194489228
1.9285273672209
1.6786782077705
1.4622906617792
1.2779117608392
1.1238960644814
0.99724799773402
0.89342904482253
0.80551857137162
0.73088978086099
0.66782161065709
0.61447903507688
0.56899338316414
0.53004536360286
0.49655908115776
0.46738441444167
0.44160858389138
0.41870806342244
0.39814628007026
0.37961513518767
0.36279485465374
0.34751661146855
0.33356758961238
0.32065886700394
0.30868745701181
0.29742301118322
0.28683745675692
0.2768369792332
0.26747011859924
0.25865001048045
0.25037070860238
0.24254195606293
0.23512913370218
0.22810138158795
0.22140993316161
0.21506966940589
0.20902796509512
0.20332196504428
0.19788996121075
0.19275335952047
0.18786067318047
0.18320926605878
0.17876344876025
0.17450844375677
0.17043514254232
0.16653219473015
0.16279504871004
0.15921685877881
0.15579125645336
0.15250839439901
0.14935719777165
0.14632531304965
0.14340157512122
0.14057740496216
0.13784763334133
0.13521129731364
0.13250424613073
15.697572586618
4476.3719602632
3111.5909638911
2010.171445881
1375.1152689226
988.07891526106
739.51382355654
571.13335212688
449.42240929581
354.47769619842
274.46895401379
204.08069129905
146.05772333451
107.77067019022
86.717682391039
74.300656140118
66.126787260541
61.220481389899
57.891567267425
55.97637159367
54.919667386303
54.329679342004
53.966191977561
53.671820899129
53.323721358985
52.839775461665
52.173906304493
51.295963859916
50.192317249344
48.863779224684
47.32363810347
45.596124739172
43.715818190473
41.723582364366
39.664377758082
37.584478088603
35.523139363325
33.01925565842
31.116428658116
29.316517578799
27.658560766582
26.164268089602
24.843661020026
23.696572117238
22.712425323479
21.87606574048
21.171231631754
20.582379377273
20.09220058661
19.686727381978
19.349273802572
19.064425919702
18.819268080446
18.602098549784
18.401932649169
18.210594970444
18.023585101866
17.834488528147
17.641079023923
17.436008112736
17.218477141651
16.98697370281
16.742746040627
16.486487429655
16.219872514074
15.943141153084
15.66351548745
15.378117729406
15.104168386855
14.827310867249
14.543911853825
13.698541847551
13.987243807895
5.1696357012097
4.9085267521263
4.5673174411356
4.2012443500585
3.8498902535419
3.5136638678123
3.1911933376716
2.8839579081704
2.5909732292818
2.3096921426139
2.0559935986574
1.8161445329607
1.5969810277547
1.4030920118967
1.2333367471492
1.0886338773732
0.96764667672107
0.86631362598258
0.77952888282983
0.70532194632174
0.64161351334471
0.58672913509557
0.53977355476993
0.49937393998912
0.46442724810781
0.43416746872017
0.40784033094707
0.38471015312301
0.36427483708343
0.34614277424946
0.33000382572376
0.31551410818229
0.30249542273922
0.29068046259006
0.2799177423363
0.27000570371881
0.26085304661002
0.25234478435114
0.24446182686376
0.23710569380238
0.23025217974811
0.22378475608496
0.21767316191548
0.21183345156511
0.20625841914988
0.20090735995484
0.19579962066399
0.19092501364512
0.18627677203176
0.1818512951865
0.17762050664856
0.173581289754
0.16970181806422
0.16597420285594
0.16238423010331
0.15893078709301
0.15561084286767
0.15242195944165
0.14936005227195
0.14641693773482
0.14358261772047
0.14084646653941
0.13819929647458
0.13563419698312
0.13314774395954
0.13074011605818
0.12816142694458
17.694109829574
4479.8863960608
3098.7197398256
2003.4123783998
1371.3547730004
985.98083039247
738.4167486699
570.71188828257
449.55215700752
355.11652335735
275.59006859224
205.58615056483
147.63079479396
109.04432889745
87.731203199846
75.19532783605
66.949173531337
61.923873946294
58.549829547938
56.615262393856
55.561505945662
54.990523770394
54.654828244796
54.392369025819
54.078464289237
53.627695040017
52.992149471086
52.140909236891
51.059647611406
49.748782966742
48.22134732801
46.501442289616
44.623573363898
42.628319942474
40.560865414792
38.468738051311
36.394048566791
33.870714947196
31.949810938912
30.133113594657
28.460808190191
26.953564835332
25.62099602271
24.462672119131
23.468172642899
22.622210725227
21.907634898293
21.308638908018
20.807964879991
20.391964997221
20.043775379899
19.747697439193
19.489716379073
19.257741197006
19.039825471628
18.827212726959
18.616078901762
18.401686723688
18.181253525578
17.947492070588
17.701225373185
17.441106803802
17.168688783573
16.884303741798
16.589893114458
16.28583601464
15.978832891481
15.665180915401
15.361826008699
15.058934182947
14.740430535855
13.848925623445
14.132618654078
7.099534296828
5.8923565214487
4.7949888631222
4.0496186753638
3.495921241773
3.0613817865602
2.7473042605197
2.5217828350674
2.3160799768484
2.1063293348014
1.8987660943193
1.6988731370869
1.5140732318464
1.3452756675192
1.1937957839418
1.0608192719722
0.9465910195815
0.84801693614376
0.76288775460385
0.68954004006937
0.62648591292615
0.57227259149191
0.52519250509695
0.48442213459569
0.44897613504516
0.41804329660727
0.39088108674485
0.36701385011795
0.3459530010204
0.32729997065924
0.31074587649638
0.29599868646291
0.28279118927424
0.27093396749853
0.26022324776714
0.25049741240133
0.24159235354925
0.23343951963596
0.22594596362764
0.21905285361362
0.21267629576856
0.20674931536021
0.20120155111083
0.19597764523593
0.19104643692606
0.18637114008773
0.18194765617721
0.17774638512619
0.17376798187767
0.16998652047387
0.16638574280132
0.16293878600665
0.15962651822418
0.15643017487695
0.15333427976617
0.15034122283156
0.14745156501036
0.14466817410453
0.14198800472047
0.13940396677377
0.13690703224103
0.13448838581433
0.13214043150294
0.12985744298842
0.12763704337676
0.12547924984002
0.12314912639009
20.529712152124
4481.3873779092
3081.224720252
1994.3097825628
1366.3508619337
983.21955370495
736.98343165141
570.1614712243
449.71438027386
355.93664154695
277.03718306117
207.53941986572
149.69009180945
110.72050909592
89.058181716138
76.35874668306
68.013734663127
62.850724570647
59.410139627294
57.441563541998
56.383575740939
55.830719162014
55.52593406828
55.300155631154
55.025824322735
54.613392126263
54.012377448035
53.190530732753
52.132599655701
50.838480092932
49.320932242211
47.604213299307
45.722975026345
43.717891252988
41.63405988764
39.520149951731
37.422311329992
34.868349813462
32.920769078824
31.07900262476
29.384363745727
27.856796269478
26.50553168651
25.330284078746
24.320505346507
23.460607242722
22.732751369014
22.120726203117
21.607782384708
21.179730865357
20.819518784469
20.510532541269
20.237751458426
19.988918270628
19.75124831592
19.515222841338
19.277872428583
19.035323293247
18.784457876948
18.51933428801
18.241370315526
17.949199782738
17.644734502026
17.328206425394
17.002110569052
16.66682506771
16.328717380454
15.983736700243
15.64851255714
15.313129157751
14.960511168138
14.015043634412
14.281906061594
11.408131610907
7.5820139823461
5.7971989656
4.5752033181629
3.7241120172622
3.1257574673811
2.6743239809038
2.3472541689844
2.0873276045804
1.900507081008
1.7538486155785
1.6000207098579
1.4421063350151
1.2915942072717
1.1558751939638
1.0355787338219
0.92864621355024
0.83379696497405
0.75079916502171
0.67869690567522
0.6162741112413
0.56233793444908
0.51579906956344
0.47519511925012
0.4397691620489
0.40872070567436
0.38141322889473
0.35718874712202
0.33573402325807
0.31669352998974
0.29973650864694
0.28457117489728
0.27099125603051
0.25880145806758
0.24779903701803
0.23784523462658
0.22879406047575
0.22054457615318
0.21300276101533
0.20611397447688
0.19978501243797
0.19394987262134
0.18853013961621
0.1834834871256
0.1787542768165
0.17431708191821
0.17014682089973
0.16622851995093
0.16254436580229
0.15906795253844
0.15578501242501
0.15266853948889
0.14970191228003
0.14686015698528
0.14412894368607
0.14149927597466
0.13896887233751
0.13653716437772
0.13420031773144
0.13194921823734
0.12977310640983
0.12766199885042
0.12560634238853
0.12360001572755
0.12164207263082
0.11973368691021
0.11767269561387
24.488597623432
4481.5268723855
3059.6935293795
1982.966937726
1360.1154143311
979.79366676838
735.2118733174
569.4777963042
449.89915944604
356.92179995579
278.78929796631
209.91958735097
152.22472120838
112.79958430295
90.694653865889
77.781741648905
69.308532479213
63.986919848507
60.454604413572
58.432892238619
57.359203746992
56.8192898016
56.544374309754
56.356159494407
56.123189192847
55.750668645311
55.184714473404
54.391268831194
53.353990378587
52.072202924256
50.558472776528
48.837244508423
46.943503236116
44.918533195942
42.807459010465
40.659505212982
38.525276784327
35.925731736332
33.940732454413
32.064268565213
30.337706747475
28.780841262553
27.402640377017
26.203232886854
25.172011450794
24.292794145839
23.546914004961
22.917650833189
22.389337058268
21.946370273755
21.571547218227
21.247289428017
20.95762779337
20.690285961842
20.431746385252
20.172037910544
19.90889728496
19.6386747291
19.357883102504
19.06229718775
18.753005181979
18.4287502313
18.09201562941
17.743315466775
17.385617819336
17.019272308743
16.650012860578
16.273420948694
15.906322705352
15.538690191201
15.154249841199
14.153550624293
14.398784090311
6.3628232017403
6.8214906867486
5.13698473783
4.4033762976248
3.7673812788732
3.2384176796917
2.8268816178827
2.4995105751023
2.1772078834302
1.9127364582941
1.7045667327321
1.5385388470594
1.4108252373573
1.2857222742736
1.1588757126533
1.0411918661209
0.9355344254597
0.84193320081433
0.75954558356504
0.6869897048372
0.62343305383702
0.56808266582107
0.51999977427299
0.47833150881233
0.441854940364
0.40979695985296
0.38162225370182
0.35670666681195
0.33453346886586
0.31473908899094
0.29710023193525
0.28131513521085
0.26710070946312
0.25429038961092
0.2427374812618
0.23227942465002
0.22276572557111
0.21410964937121
0.20621556984359
0.19900406959606
0.19239520155383
0.18633160617044
0.18073597711382
0.17555132378169
0.17072325106298
0.16622752191491
0.1620298613312
0.15811144923109
0.15444705460234
0.15101745503901
0.14780128731792
0.14477291023941
0.14191194467573
0.13919459979319
0.13660656180726
0.13413278392291
0.13176640016238
0.12950417648453
0.12734273988422
0.12527497482057
0.12328957839946
0.12137497055978
0.11952101291821
0.11772041673859
0.11596758212302
0.11425992694931
0.11259629557834
1.3391342016507
3906.1617953217
3407.9170444445
2182.2924233466
1478.571699599
1054.3643048912
784.75904693554
604.48010744883
476.64795133918
379.31993982578
299.1594440587
228.93882325899
168.21125623854
123.40631616508
97.112297440414
82.212061686369
72.672241548757
65.319973165473
61.667327755249
59.568902350042
58.463459153811
57.92702170317
57.677040266256
57.52389297299
57.330772189451
56.996608199386
56.463323021818
55.694474005067
54.672347648041
53.395669160022
51.877001158892
50.141163838792
48.223469550824
46.165784321701
44.013975685305
41.817772552625
39.62967946014
37.505720431492
35.442133036257
33.493173805161
31.698844000577
30.079011355426
28.642606699989
27.389994497818
26.310642425649
25.387511428588
24.600702162198
23.932610167205
23.369957915564
22.894857542171
22.489866312636
22.136269466418
21.816588531884
21.518309411586
21.22701819308
20.932532078892
20.632502611999
20.323569141627
20.001334860389
19.664214019614
19.312617236744
18.945363122617
18.565441716496
18.174207577276
17.774945051047
17.368709129315
16.960462842933
16.546289160295
16.14273996378
15.738005658595
15.316134136525
14.249150664183
14.466821321837
4.16394161187
3.4206875770054
3.1649956563377
2.9341071666017
2.7954083331496
2.6379836004216
2.4601519725334
2.2865221937702
2.1154909039514
1.9416416510905
1.7411669533271
1.5071201699205
1.3310706316838
1.1877433060018
1.0741938954454
0.97815264531951
0.88476437989347
0.79910861610682
0.72254633067755
0.65544695240069
0.59684897935006
0.54547439560939
0.50028039801242
0.46046198371805
0.4254114564219
0.39457545038643
0.3672897555021
0.34301986756332
0.32149725062292
0.302315281213
0.28514702008732
0.26964231889621
0.25565527658795
0.24298616137043
0.2314789296264
0.22097536692416
0.21140443076862
0.20265825081012
0.19464581192757
0.18727990128536
0.18050987439463
0.17427569083081
0.16851746542722
0.16317577448546
0.15821670682846
0.15360993303235
0.149329299958
0.14534626199068
0.1416374238376
0.13818208136944
0.13495542369558
0.13193600048719
0.12910023021252
0.12643130658732
0.12391160725051
0.12152902892086
0.11927434378017
0.11714006973798
0.11512022000757
0.11320544331977
0.11138504825514
0.10964711580825
0.10798130035176
0.10637989199572
0.10483682997184
0.10334820243286
0.10179435980789
47.83557711059
4465.7846984582
2973.1825248778
1936.2716264461
1334.3085434764
965.56409591454
727.81025799491
566.52797954853
450.43443410324
360.64812205507
285.60104278497
219.34456782275
162.5283759654
121.47631371292
97.448617369931
83.533521163249
74.475205370739
68.538352943861
64.551047970558
62.214410594488
60.9807330861
60.407306566582
60.179196141398
60.078174897455
59.951455029654
59.682293641753
59.201040596857
58.464531206157
57.451277018841
56.158470998234
54.59857757546
52.797344569386
50.791702013682
48.625663339792
46.347708171893
44.01000365936
41.669603190418
39.238610636911
37.018606860313
34.927248554968
33.001155334189
31.260729520845
29.715717776686
28.365814574139
27.199498504466
26.198424621936
25.341737574991
24.613278833328
24.000821057967
23.483116965049
23.040768416936
22.653576318977
22.302031321621
21.972752477287
21.651149712005
21.325863840665
20.99419759256
20.651551664346
20.294065439675
19.92117484742
19.532848335778
19.128063219163
18.710529249574
18.282119974741
17.846500680602
17.406555111802
16.964143348826
16.51545987271
16.074131733079
15.629282796013
15.164880656555
14.020115176833
14.184905664727
3.6636642917707
2.0364444569728
2.0928986022705
2.0240341676164
1.9992198033026
1.9822298410754
1.9666884913181
1.9229904896879
1.8717935368095
1.7917939772428
1.6976461232238
1.5759151788578
1.3947955938369
1.2045028934548
1.0631428297734
0.9490651876309
0.85631114061862
0.78108244749243
0.71014825431906
0.64573237195597
0.58835912910334
0.53778217374686
0.4934615895734
0.45463565364406
0.42040004541614
0.39002232527429
0.36294331214156
0.33878303410166
0.31723305264668
0.29794832359115
0.2806751744374
0.26516382768117
0.25115964711078
0.23847742696416
0.22690571596749
0.21635098917877
0.2067080158724
0.19787463622285
0.18974215895592
0.18224265478101
0.1753250183815
0.1689258625497
0.16298944663749
0.15746658354057
0.1523345229405
0.14755657985572
0.14310745104846
0.13895738713649
0.13508750072287
0.13147515013758
0.12809753149196
0.12493292024405
0.12196272877041
0.1191729180413
0.11654666138324
0.11407141020903
0.11173636418715
0.1095341139792
0.10745762188864
0.10549648074582
0.10363989066358
0.10187735808028
0.10019922126267
0.098597418203723
0.097065649318012
0.095600043497523
0.094148400639488
88.23529918253
4429.9362616027
2897.5646396907
1894.7505219626
1311.3680978554
952.81643030794
721.03920299626
563.64369794485
450.54712911048
363.48009581484
291.08201798518
227.16346291528
171.42561039647
129.31445364656
103.51870614942
88.563709784441
78.926332263113
72.459682598062
68.013089584078
65.312823099382
63.843639820691
63.153555260969
62.893013677333
62.808408876255
62.72255072867
62.498680319061
62.050169172074
61.323853759192
60.292318064193
58.949685634951
57.307804387094
55.393831587949
53.247451754128
50.91615576061
48.452141958151
45.912291137894
43.360180247886
40.53258275396
38.094002759332
35.799653441933
33.687273524553
31.788131724348
30.116609425154
28.658547921963
27.397775095423
26.314590155871
25.387942698085
24.601318747392
23.938712992481
23.378402237338
22.899025190258
22.478647759785
22.095507856709
21.735565240484
21.384206049979
21.029211451459
20.665556630772
20.287692755809
19.893424227005
19.481189075534
19.051428189564
18.603929859291
18.142155095205
17.668802161107
17.187749932336
16.708849881525
16.230749025531
15.751371969019
15.278012014039
14.800384236568
14.30324102104
13.117108391845
13.215404615082
3.4063969979724
1.5539050362277
1.4758895252135
1.4823900875332
1.4897549194371
1.5105448002159
1.531677498781
1.5494521179797
1.551675455114
1.5521477050248
1.5243405186183
1.467777719603
1.3955583183761
1.2727260651431
1.1026342479114
0.96163404625523
0.85422342958713
0.7675529009045
0.6958287574097
0.63687211261256
0.58242143775755
0.53336175576727
0.48963058203365
0.45093803415209
0.41681333500688
0.38667639893853
0.35995367340646
0.33611989088026
0.3147670794285
0.29557956142976
0.27830771774003
0.26272288243048
0.2486058504083
0.23579786767311
0.2241597007428
0.21355919172962
0.20388105380327
0.19498810141427
0.18681575826925
0.17928691960185
0.17232340083677
0.16586179211719
0.15984226489192
0.15424377029513
0.14902404214853
0.14415705611417
0.13960777353437
0.13535649592278
0.13138297059194
0.12766044213876
0.12416958843643
0.12088761931778
0.11780304164516
0.11490115111334
0.11216714308395
0.10958804797177
0.10715276074273
0.10485495638292
0.10268592574413
0.10063648943124
0.098696504453924
0.096855393023659
0.09510478295674
0.093437524783548
0.091848095485255
0.090331879890322
0.089127852262165
202.66113685614
4371.2221423134
2808.3072099782
1845.273305988
1283.8931056427
937.42013131069
712.66051854577
559.80658567799
450.18051654876
366.23558934891
296.89189696026
235.76501554807
181.62056546863
138.74287992571
110.91887583443
94.561173207473
84.164559189359
77.082134869209
72.072900871023
68.888694827782
67.064192790667
66.158748280755
65.794973722864
65.680916267325
65.605120018686
65.407051754319
64.976693863614
64.245926936338
63.178062608945
61.762150474085
60.008091395611
57.9435656433
55.610829264687
53.06157543627
50.353345037694
47.549038738573
44.718178145729
41.438854360762
38.711741695852
36.153453158193
33.823794804471
31.731544595434
29.878386334217
28.258487664788
26.855147347495
25.646994176048
24.613480947686
23.738914856698
23.003369633485
22.381920828969
21.849895899418
21.382749683221
20.955227657385
20.551087824276
20.15552472284
19.756569973603
19.3470413088
18.920416544242
18.476058719562
18.012209052227
17.529952646677
17.030577430191
16.517366653367
15.996269505184
15.466242447979
14.951898274208
14.439796142178
13.947142162928
13.458568163138
12.971603721459
12.468585108708
11.315595567026
11.322194588554
3.509353645088
1.3613660101187
1.1441362977111
1.1391737952927
1.1586125099536
1.1872218619507
1.2196111453351
1.2533266293925
1.2820797366768
1.2996335369659
1.3196880701416
1.3125615740499
1.2758369577346
1.2330064199685
1.1431900747081
1.0165544618863
0.87843418956962
0.77648763758796
0.6963189701836
0.63068013024717
0.57549047092147
0.52931298242921
0.48722878303729
0.44930181928537
0.4153343338633
0.38509357729478
0.35826678595028
0.33442176469642
0.3131307339453
0.29404525175804
0.27687212627153
0.2613461233138
0.24724692806303
0.23440504690396
0.22268388537959
0.21197137603896
0.20218558686764
0.19322050369575
0.18498652852763
0.17740573750071
0.1703831036796
0.16387554994236
0.15783111400905
0.15219989138093
0.14694982086047
0.14203599619034
0.13744510955805
0.13314995220717
0.12912255173132
0.12534055275804
0.12177871578747
0.11842718567544
0.11527102572119
0.11229561649729
0.10948695393133
0.10683168957787
0.10432382909921
0.10195215088628
0.099707631963197
0.097581460950161
0.095563870009181
0.093648151590816
0.091825616936853
0.090088791535117
0.088432600888441
0.08685303995335
0.086314870497069
425.9111943833
4252.1236063134
2704.4195717165
1788.0911857925
1251.8797602525
919.25161655629
702.49977932986
554.78567285621
449.04041612859
368.55278676532
302.59552688669
244.6743650726
192.70123698367
149.61204654329
119.72060962312
101.58301405091
90.203337069638
82.426619994375
76.787473259159
73.027900916716
70.735023581379
69.50552885871
68.952757738881
68.750465753255
68.647259242904
68.453885954658
68.031015127979
67.289142415457
66.177554960373
64.676924008436
62.792836395618
60.552732369328
58.000175285218
55.190179722871
52.186377599522
49.05828256724
45.881545451814
42.110768646593
39.01245515309
36.121626347154
33.470075685001
31.088629716023
28.986077247147
27.151210018278
25.562699250735
24.196206168993
23.032003441395
22.05277510942
21.232594982144
20.54257472188
19.950089662077
19.425671698767
18.939780538685
18.471572931225
18.005182489512
17.532115237808
17.042823170312
16.530833719778
15.997362919309
15.439459099382
14.86511014944
14.284402643002
13.696898370785
13.130225631271
12.557692104416
12.029347609513
11.503639244982
11.030586879904
10.554258415411
10.123280173777
9.6885659923427
8.758471438469
8.677233232829
4.2007961465935
1.2290250979358
0.98134062797024
0.91782084984188
0.933052682508
0.96174521789666
0.99623363986374
1.0311394030239
1.0665631698109
1.0959389739228
1.1229066367786
1.1469365817751
1.1447295010129
1.1203766481676
1.0913639916205
1.0268385162285
0.92966646342545
0.8077729963283
0.71125702012381
0.63666890369759
0.57646917449428
0.52664482659397
0.48430088780671
0.44784428150407
0.41470374294744
0.38480701396081
0.35800480060934
0.33404916305389
0.3126052417858
0.29335088902943
0.27605571852461
0.26051005876825
0.24643320340081
0.23360146870677
0.22187920526072
0.21116243123277