/*--------------------------------*- C++ -*----------------------------------*\
| =========                 |                                                 |
| \\      /  F ield         | OpenFOAM: The Open Source CFD Toolbox           |
|  \\    /   O peration     | Version:  2312                                  |
|   \\  /    A nd           | Website:  www.openfoam.com                      |
|    \\/     M anipulation  |                                                 |
\*---------------------------------------------------------------------------*/
FoamFile
{
    version     2.0;
    format      ascii;
    arch        "LSB;label=32;scalar=64";
    class       volScalarField;
    location    "0.0001";
    object      nut;
}
// * * * * * * * * * * * * * * * * * * * * * * * * * * * * * * * * * * * * * //

dimensions      [0 2 -1 0 0 0 0];

internalField   nonuniform List<scalar> 
109340
(
0.00071898595690244
0.00049309500859679
0.0002661072319371
0.00022238752472474
0.00021542867746796
0.00021983810582046
0.00022803559420919
0.00024233744167287
0.00021121637712357
0.00018787185823383
0.00016939609924599
0.00015432536972116
0.00014176915816309
0.00013113553129513
0.000122009701081
0.00011409023293497
0.00010715194351406
0.00010102286292776
9.5569227832623e-05
9.0685344602568e-05
8.628653919463e-05
8.2304128847698e-05
7.8681769806304e-05
7.5372765488079e-05
7.2338057987737e-05
6.9544705864244e-05
6.6964709577094e-05
6.4574091861098e-05
6.2352161021287e-05
6.0280898360683e-05
5.8344418274745e-05
5.6528432536031e-05
5.4819560549684e-05
5.3204041605851e-05
5.1664212147827e-05
5.0169907090857e-05
0.00071063148749407
0.00034461818822591
0.00025246445385135
0.00023095336095216
0.0002294062616609
0.00023398000976698
0.00020948166160892
0.00018222790113892
0.00016105227658613
0.0001442879311397
0.00013071547503776
0.00011950965486017
0.00011010401267902
0.00010209884903979
9.5204422749747e-05
8.9205630341661e-05
8.3939448259851e-05
7.9280073283576e-05
7.5128868848369e-05
7.1407356545152e-05
6.805221412556e-05
6.5011712406842e-05
6.2243160614729e-05
5.9711046762063e-05
5.7385627485566e-05
5.5241828787042e-05
5.3258385755904e-05
5.141714649583e-05
4.9702492410774e-05
4.810086129232e-05
4.6600325347363e-05
4.5190182624878e-05
4.3860522547788e-05
4.2601687937975e-05
4.1403379848527e-05
4.0249167007442e-05
0.00041737094570177
0.00029412400261972
0.00025352169208109
0.00023795719348679
0.00019036477371312
0.0001587073479325
0.00013575145735773
0.00011845140841427
0.00010500605487799
9.4301094383569e-05
8.5602003073354e-05
7.8406868611135e-05
7.2364226071298e-05
6.7222206923082e-05
6.2796312319093e-05
5.8948648968964e-05
5.5574252374526e-05
5.2591870539843e-05
4.9937442736583e-05
4.7559330874051e-05
4.5415277963012e-05
4.3470590802441e-05
4.1696864039415e-05
4.0070867508487e-05
3.8573442961667e-05
3.718873185731e-05
3.590356908578e-05
3.4706789460865e-05
3.3588951412259e-05
3.2541918402963e-05
3.15585561838e-05
3.0632575034265e-05
2.975819347706e-05
2.8930611754679e-05
2.814811919445e-05
2.7412494655461e-05
0.00023985710512999
0.00024228725976146
0.00015205885980808
0.00011069837390608
8.708185792832e-05
7.1831934220933e-05
6.1203468256284e-05
5.3389641813731e-05
4.7415143028982e-05
4.2707587827578e-05
3.8909117748835e-05
3.5784288173431e-05
3.31718768166e-05
3.0957927798236e-05
2.905983545911e-05
2.7416369961505e-05
2.5981088956404e-05
2.4717607264681e-05
2.3593392133044e-05
2.2580576144073e-05
2.1658438161991e-05
2.0812316106377e-05
2.0031624870734e-05
1.9308541112786e-05
1.8637047365393e-05
1.8012295126007e-05
1.7429842186444e-05
1.6886488354939e-05
1.637935725512e-05
1.5905910421357e-05
1.5463576241071e-05
1.5048599111879e-05
1.4655063639898e-05
1.4278065408283e-05
1.3919219595929e-05
1.3591994688522e-05
0.00014444969282548
4.7220863283607e-05
2.8713988422525e-05
2.0823592008216e-05
1.647560984175e-05
1.3746179533522e-05
1.1889529943e-05
1.0555420077725e-05
9.557621075295e-06
8.7888882773822e-06
8.183541123333e-06
7.6999273505687e-06
7.3104628590906e-06
6.9965690197848e-06
6.7456126960829e-06
6.5487516063305e-06
6.3981768262783e-06
6.2808554995648e-06
6.1753083220307e-06
6.0700045451519e-06
5.9639108802572e-06
5.8604660800343e-06
5.763341388513e-06
5.6750643845888e-06
5.5970451776074e-06
5.5299855144118e-06
5.4740693540667e-06
5.4291759408844e-06
5.3956779494741e-06
5.3733228562433e-06
5.3611440242521e-06
5.3583611058463e-06
5.3641444324277e-06
5.3770083496911e-06
5.3925282418469e-06
5.4025621542471e-06
3.6374804107515e-07
5.4292487063401e-07
6.9855417768384e-07
8.1998380802769e-07
9.0678053703253e-07
9.6401892856251e-07
9.9842904226838e-07
1.01631320349e-06
1.0226872480051e-06
1.021712519876e-06
1.0157976550564e-06
1.0068409075316e-06
9.9614796322587e-07
9.8460043973631e-07
9.7279041637665e-07
9.6113966644526e-07
9.4992306439645e-07
9.3932508514167e-07
9.2953467204816e-07
9.2078480872127e-07
9.1287451963232e-07
9.0567411498244e-07
8.9911797719599e-07
8.9316872285542e-07
8.8779563787192e-07
8.8296734369639e-07
8.7864966492128e-07
8.7480451698908e-07
8.713864171301e-07
8.6833697206909e-07
8.6557752137454e-07
8.6297380299414e-07
8.6031000881952e-07
8.5708054468884e-07
8.5133634573393e-07
8.3349250810093e-07
4.5090429804884e-05
2.4948205399162e-05
1.406050817888e-05
9.247196368112e-06
6.7266535042874e-06
5.0465852105598e-06
3.8815796859328e-06
3.0176695861585e-06
2.4323142119987e-06
2.173348133284e-06
2.2284436825547e-06
2.8060888807676e-06
3.2894039028864e-06
3.8030150032271e-06
4.2282508717076e-06
4.560961819915e-06
4.8545819264967e-06
5.0917801561755e-06
5.3059090594954e-06
5.5318603084717e-06
5.7257129332333e-06
5.8848596626734e-06
5.9093298646414e-06
5.6582164932047e-06
5.4289731411343e-06
5.2215027934881e-06
5.0287120187769e-06
4.8470818233897e-06
4.6899668797326e-06
4.5326331351e-06
4.3996916713433e-06
4.2661427985375e-06
4.1487609224775e-06
4.0349507234494e-06
3.9309310895394e-06
3.832031751446e-06
3.7401865394837e-06
3.6525628180639e-06
3.5720298767483e-06
3.4932115747992e-06
3.4225715389645e-06
3.3508417899574e-06
3.2882238878731e-06
3.2228245654867e-06
3.1664377285285e-06
3.1072807770035e-06
3.0556151966925e-06
3.0031329784775e-06
2.9547920838268e-06
2.9083615926251e-06
2.8630211354251e-06
2.8201196872345e-06
2.7788920839236e-06
2.7393919282937e-06
2.7013613140034e-06
2.6647605531539e-06
2.6294940057855e-06
2.5955351425011e-06
2.5628220802581e-06
2.5312860824686e-06
2.5008268647804e-06
2.4713567143278e-06
2.4428077548719e-06
2.4151311033081e-06
2.3882853865574e-06
2.3622311749079e-06
2.3369371138123e-06
6.6917652643281e-06
0.00037635504912279
0.00047366841710319
0.00041624540947517
0.00037340572763923
0.00034164436894036
0.00031758009080394
0.00029819068992766
0.00028023197487977
0.00026065037878555
0.00023715816646028
0.00021039087195109
0.00018882064494648
0.00018829300450402
0.00020696471946808
0.0002219341850409
0.00022326731368743
0.00021595262227481
0.00020903318320411
0.00020394248433333
0.00020046477875446
0.00019793023217302
0.00019582604110627
0.00019384421279706
0.00019171845707199
0.00018925140121583
0.00018634208061181
0.00018292299590335
0.0001789799531867
0.00017452357206118
0.00016957092200733
0.00016417066626963
0.00015839381140916
0.00015232907964413
0.00014607427625534
0.00013973180553879
0.00013338904398689
0.00012557248047466
0.000119535265121
0.00011371766946653
0.00010823567215934
0.0001031694267731
9.856998945275e-05
9.4460013805794e-05
9.0823783009235e-05
8.7630455824857e-05
8.4845653138922e-05
8.24263459503e-05
8.0344841499363e-05
7.8546995268408e-05
7.6989679057851e-05
7.562640336997e-05
7.4421682746836e-05
7.333989551725e-05
7.2351370946265e-05
7.1437241283111e-05
7.057672000054e-05
6.9736184616569e-05
6.8921106576671e-05
6.8119142675814e-05
6.7320079659058e-05
6.652108338213e-05
6.5698742435977e-05
6.4859710656787e-05
6.4005816695806e-05
6.3134696050129e-05
6.2273286910964e-05
6.1410073237478e-05
6.059189762951e-05
5.968578676215e-05
5.9012192531313e-05
5.7080313330579e-05
5.7371088267517e-05
3.4844275007397e-05
1.9590080111341e-05
1.220463210483e-05
8.5991767896577e-06
6.3422166204416e-06
4.8414071066169e-06
3.747384135394e-06
2.9399685353336e-06
2.3549529124285e-06
1.960274782473e-06
1.7336362569982e-06
1.6814513305509e-06
1.7544378430036e-06
1.8910786805042e-06
2.0988760616079e-06
2.3641203946622e-06
2.680324548353e-06
3.0465831512759e-06
3.4277909521543e-06
3.8165742209877e-06
4.2149026218691e-06
4.6185123181145e-06
5.0159941299678e-06
5.4085113643076e-06
5.2868137134008e-06
5.0813585329959e-06
4.894670502805e-06
4.7236617929608e-06
4.566709962921e-06
4.4223845683699e-06
4.2886993811384e-06
4.1657028069331e-06
4.0507069472506e-06
3.9443177451809e-06
3.8441395153123e-06
3.7508522050505e-06
3.6626132900484e-06
3.5802618652668e-06
3.5022310956812e-06
3.4291299347699e-06
3.3595813965532e-06
3.2941119488676e-06
3.2315251245824e-06
3.1723033270309e-06
3.1156594302973e-06
3.0617634125917e-06
3.0103151545643e-06
2.9611702930741e-06
2.9143562594802e-06
2.8695252605898e-06
2.8266595662304e-06
2.7854510284227e-06
2.7459281675007e-06
2.7078996654675e-06
2.6713056930694e-06
2.6360502129272e-06
2.6020892485283e-06
2.5693625139542e-06
2.5378059702201e-06
2.5073404731459e-06
2.4778851479168e-06
2.4493617623829e-06
2.4217032223081e-06
2.3948574427377e-06
2.3687854632027e-06
2.3434729297122e-06
2.3171873065659e-06
2.9609168660735e-05
0.00048292262123404
0.00045785552157182
0.00040401633095769
0.00036443852401606
0.00033494524319559
0.00031239303763709
0.00029371466595527
0.00027569503251082
0.00025539840365078
0.0002309458134523
0.0002043330968601
0.00018650778184409
0.00019200628299596
0.00021188043949726
0.00022381456810362
0.0002226793974968
0.00021643092335709
0.00020953509775917
0.0002044706854022
0.00020102351825135
0.00019852083445046
0.00019645027236061
0.0001945027875661
0.00019240832770074
0.00018997105624933
0.00018709054700848
0.00018369835434575
0.00017977842667602
0.00017534366201361
0.00017041077003366
0.0001650283556447
0.00015926743463598
0.00015321612425041
0.00014697239296996
0.00014063972138558
0.00013430655258119
0.00012649827392215
0.00012046353450108
0.00011464932535989
0.00010917085073152
0.00010410642815472
9.9505265398943e-05
9.538803917998e-05
9.1740972427654e-05
8.8533860799493e-05
8.5729162169776e-05
8.3285004494481e-05
8.11746073833e-05
7.9346878049736e-05
7.7757693393577e-05
7.6360146542795e-05
7.511873327599e-05
7.3999299188755e-05
7.2971657445954e-05
7.2016451082168e-05
7.1114144153527e-05
7.0233146713224e-05
6.9377244251121e-05
6.8535503934281e-05
6.7694012096185e-05
6.6857033661806e-05
6.5998024400028e-05
6.512434152681e-05
6.4237952185753e-05
6.3337774491938e-05
6.2442909761391e-05
6.1546607549906e-05
6.0696335895039e-05
5.9798482846139e-05
5.904637463447e-05
5.6905561999127e-05
5.7273491069396e-05
2.5505996913766e-05
1.3302150980771e-05
8.5922490763074e-06
6.3450370268363e-06
4.7641261692582e-06
3.7217815686655e-06
2.9604696168817e-06
2.430386702409e-06
2.0667494784961e-06
1.8350228234793e-06
1.7413984902651e-06
1.7218108842533e-06
1.7815413982615e-06
1.8994674018221e-06
2.0591274728451e-06
2.2516634110869e-06
2.4774324613432e-06
2.722526376562e-06
2.9602456944697e-06
3.2028313554571e-06
3.4660186317785e-06
3.7365261796555e-06
4.0134329452393e-06
4.3127926800093e-06
4.6264254826502e-06
4.9451651952053e-06
4.8218588564714e-06
4.6505798509359e-06
4.4937102932479e-06
4.349973169234e-06
4.2175295132755e-06
4.0952947451646e-06
3.9825894274467e-06
3.8779230431807e-06
3.7807585410364e-06
3.6899090265116e-06
3.604815244919e-06
3.5246819346811e-06
3.4495152509877e-06
3.3785002458377e-06
3.3115194952844e-06
3.2479566327539e-06
3.1875843918161e-06
3.1302064940524e-06
3.0754280467004e-06
3.0233356943681e-06
2.9734630362062e-06
2.9260618604265e-06
2.8806138017348e-06
2.8372976209498e-06
2.7957269686015e-06
2.7559168787302e-06
2.7176094492505e-06
2.6807147556663e-06
2.6451913368146e-06
2.61096482321e-06
2.5779980890513e-06
2.546219274779e-06
2.515564257314e-06
2.4859539781392e-06
2.4573147543083e-06
2.4295697627237e-06
2.4026520516799e-06
2.376509809966e-06
2.3511100713756e-06
2.3264538752892e-06
2.2997023263983e-06
3.0778485244606e-05
0.00048433722651103
0.00045745060577801
0.00040368131024254
0.00036422275980799
0.00033483408785517
0.00031235585518365
0.00029375613926909
0.00027585436390255
0.00025572635295785
0.00023147769672444
0.00020501007065789
0.00018703860633262
0.00019214025419163
0.00021202019584382
0.00022441717979987
0.00022373579438244
0.00021754198201555
0.0002107053378345
0.00020566812607614
0.00020225707772528
0.00019980446450543
0.00019779389081748
0.00019591193615263
0.00019388467927074
0.00019151289616709
0.00018869575939226
0.00018536514612149
0.00018149918911159
0.0001771153229516
0.00017222871450012
0.00016688731247009
0.00016116236323313
0.0001551406868046
0.00014892058715049
0.00014260719486315
0.00013629148759683
0.00012849972417244
0.00012246637555083
0.00011665356169263
0.00011117575774871
0.00010610939293103
0.00010150140058274
9.737052755375e-05
9.3704383180724e-05
9.0473334694668e-05
8.7635860786338e-05
8.5156195924016e-05
8.3003647698009e-05
8.1131782562837e-05
7.9493726765765e-05
7.8044314836249e-05
7.6746092954336e-05
7.5564226497158e-05
7.4466545055057e-05
7.3434667555003e-05
7.2452070764607e-05
7.1491790203082e-05
7.0552144043461e-05
6.9625471575646e-05
6.8695082979689e-05
6.7775385534969e-05
6.683692401205e-05
6.588642099942e-05
6.4925568131848e-05
6.3953245933875e-05
6.2985974907299e-05
6.2014325026276e-05
6.109521800812e-05
6.0180947804209e-05
5.9253227499263e-05
5.6973644167051e-05
5.7444302665987e-05
1.3401432988502e-05
7.6741308350975e-06
5.1901609219336e-06
3.8437526320476e-06
3.0568753649841e-06
2.5656047005254e-06
2.2539816210423e-06
2.062271296833e-06
1.9509994888312e-06
1.9159092374792e-06
1.9012501974267e-06
1.9132059325852e-06
1.9574123985374e-06
2.0378457391017e-06
2.1578708352565e-06
2.3182165213687e-06
2.5041942276547e-06
2.7086428792525e-06
2.9162379944864e-06
3.112017852936e-06
3.2939799001156e-06
3.4908747845121e-06
3.700819245995e-06
3.9108090410702e-06
4.1320609350331e-06
4.3769696476249e-06
4.62940653321e-06
4.5884714675482e-06
4.4327589844183e-06
4.2894915412391e-06
4.157575553639e-06
4.0354652943705e-06
3.9226898992821e-06
3.8179838220205e-06
3.7207476387255e-06
3.6298328895127e-06
3.544934950681e-06
3.4654445367816e-06
3.3912421384492e-06
3.321284447e-06
3.2556653755945e-06
3.1936659879216e-06
3.1351774179869e-06
3.0796995725723e-06
3.0270601998584e-06
2.9767406340411e-06
2.9287750219696e-06
2.8829767484392e-06
2.8392065979162e-06
2.7974049011485e-06
2.7573227507232e-06
2.7189439848042e-06
2.6819986632668e-06
2.6464281635842e-06
2.6121226167742e-06
2.5790766753566e-06
2.5472411980003e-06
2.5165555584731e-06
2.4869527002183e-06
2.4583499502042e-06
2.4306694887692e-06
2.4038380854773e-06
2.3777947664532e-06
2.352490288757e-06
2.3279026087672e-06
2.3040358364376e-06
2.2764445562161e-06
3.232156390207e-05
0.00048613096775433
0.00045695154428036
0.00040323712423444
0.00036392198204889
0.0003346755488895
0.00031230351377098
0.00029381708797397
0.00027608417686336
0.00025619829609719
0.0002322443461269
0.0002059915150811
0.00018782129446191
0.00019234277893381
0.00021219785681475
0.00022524239161754
0.00022521918353126
0.000219194976333
0.00021244923539903
0.00020743899040838
0.00020406495470065
0.0002016732393283
0.00019974023512104
0.00019794449947693
0.00019600956726764
0.00019372915222565
0.00019099846204385
0.00018775043473364
0.00018395528400062
0.00017963654636304
0.00017480745487487
0.00016951542003496
0.00016383128777369
0.00015784088603016
0.0001516424069447
0.00014534293984755
0.00013903925142785
0.0001312535342785
0.00012521305081907
0.00011939061834236
0.00011390305242471
0.0001088233410707
0.00010419684389009
0.0001000415289691
9.6345304339333e-05
9.3078141047476e-05
9.0194571421511e-05
8.7667469993885e-05
8.5460308937879e-05
8.3530579523562e-05
8.182949241564e-05
8.0311541141381e-05
7.8937364550643e-05
7.7672428074462e-05
7.6482784478618e-05
7.5350169511114e-05
7.4259546868265e-05
7.3190897000108e-05
7.2137808980942e-05
7.1098162921369e-05
7.0052058658825e-05
6.9023944352914e-05
6.7978517012859e-05
6.6922457199813e-05
6.5858515411126e-05
6.4786009628826e-05
6.372026207478e-05
6.265058219354e-05
6.163158648957e-05
6.0628255344491e-05
5.9590347854725e-05
5.7174192624334e-05
5.7604964768604e-05
5.3722449943928e-06
4.354650053864e-06
3.6368908951344e-06
3.2721707350437e-06
2.9630442350641e-06
2.6940028641057e-06
2.508638252004e-06
2.4003011532984e-06
2.3352534733129e-06
2.2540229092537e-06
2.2312717174735e-06
2.235301573091e-06
2.2637815170154e-06
2.3202408007286e-06
2.3938855520356e-06
2.4959465740618e-06
2.6386230416443e-06
2.7946278478167e-06
2.9525152083625e-06
3.1188870873848e-06
3.293223736194e-06
3.4557007192863e-06
3.6202903456485e-06
3.7997700174985e-06
3.9819330983733e-06
4.1650318382817e-06
4.3637303789143e-06
4.529306109715e-06
4.3769418402512e-06
4.2360128111768e-06
4.1055800945295e-06
3.9846732762718e-06
3.8723731630147e-06
3.7681162867493e-06
3.6710282746631e-06
3.5804168006031e-06
3.495528448011e-06
3.4162242969505e-06
3.3419652974487e-06
3.272364609957e-06
3.2068628964628e-06
3.1451048606135e-06
3.0867295845078e-06
3.0314201461074e-06
2.9789870109425e-06
2.9291606083283e-06
2.8819101056368e-06
2.8368731880112e-06
2.7940232965561e-06
2.7532334038655e-06
2.7143702088365e-06
2.6772296748677e-06
2.6416783258912e-06
2.6074604169581e-06
2.574408053047e-06
2.5425481811159e-06
2.5118520053789e-06
2.4822874205216e-06
2.4537751989362e-06
2.4262234251836e-06
2.3995505428385e-06
2.3736894646611e-06
2.3485818937876e-06
2.3241804248131e-06
2.3004684696605e-06
2.2774349847594e-06
2.2509575195946e-06
3.4329942917878e-05
0.00048838605021091
0.0004564139346607
0.00040271011497191
0.00036354363825432
0.00033446952308464
0.00031223510237996
0.00029389616330533
0.0002763808004512
0.00025680710438652
0.0002332354434516
0.00020726729016517
0.00018885588422544
0.00019260847103577
0.00021237285195385
0.00022622162694823
0.00022705478095642
0.00022131863401599
0.00021469221674744
0.00020970330133769
0.00020635792038164
0.00020402847306121
0.00020218016188112
0.00020048141403888
0.00019865133865514
0.00019647446834868
0.00019384046127901
0.00019068216031578
0.00018696141160644
0.00018270742030751
0.00017793175433525
0.00017268175176051
0.00016702822737057
0.00016105676610725
0.00015486472804809
0.00014856084458548
0.00014225083528013
0.00013445107472938
0.00012838647531884
0.00012253758514461
0.00011702294293864
0.00011191285260481
0.00010725115113588
0.00010305550303595
9.9313347637816e-05
9.5994102632088e-05
9.3048370388952e-05
9.0460535133568e-05
8.8186882096267e-05
8.6186722218371e-05
8.4410513974876e-05
8.2811042456259e-05
8.1347420674298e-05
7.9985717528814e-05
7.8690924254883e-05
7.7444161504089e-05
7.6232775911545e-05
7.5041644248546e-05
7.3859422846267e-05
7.2690892343626e-05
7.1514618185403e-05
7.0364522625422e-05
6.9198242553013e-05
6.8021917089397e-05
6.6840732084567e-05
6.5654193661042e-05
6.4476613298048e-05
6.329688867053e-05
6.2167524493007e-05
6.1054040014062e-05
5.9903990417523e-05
5.7330162220079e-05
5.768626830334e-05
2.447045634307e-06
2.9489080506389e-06
3.6281973096469e-06
4.2946897615123e-06
5.0222706971845e-06
4.8997123053138e-06
4.1724631000305e-06
3.5946857302247e-06
3.1777261743981e-06
2.945056625237e-06
2.7976467771054e-06
2.7160398778305e-06
2.6866723399672e-06
2.6920096493321e-06
2.7266553142689e-06
2.787835328197e-06
2.8672540075582e-06
2.961909548098e-06
3.0735744663963e-06
3.1974438218538e-06
3.3312476444789e-06
3.480841453178e-06
3.6322622224739e-06
3.7853235824399e-06
3.9483695752182e-06
4.1131087420077e-06
4.27699440855e-06
4.4485105307895e-06
4.3221578297047e-06
4.1850938637042e-06
4.0576312030766e-06
3.938804228882e-06
3.8281538960087e-06
3.7250905627969e-06
3.6287533928724e-06
3.5386719811148e-06
3.4542423291615e-06
3.3751202080874e-06
3.3008708674403e-06
3.2312792970913e-06
3.1657588389772e-06
3.103990515579e-06
3.0455571076768e-06
2.9903149295502e-06
2.9379220468879e-06
2.8882348918351e-06
2.84106390607e-06
2.7962741337668e-06
2.7537067058726e-06
2.713145163289e-06
2.674514297809e-06
2.6376184808574e-06
2.6023356928533e-06
2.5684705018227e-06
2.535938263372e-06
2.5046806643266e-06
2.4746374190887e-06
2.4457888792082e-06
2.4180802686167e-06
2.391390691161e-06
2.3656421363024e-06
2.3407324630751e-06
2.3165486700699e-06
2.2930204693119e-06
2.2701476792519e-06
2.2479355207661e-06
2.2234820760707e-06
3.6891397326451e-05
0.00049088107893808
0.00045583733901856
0.00040211810649718
0.00036309495467278
0.0003342151878598
0.0003121484385287
0.00029399071526906
0.00027673922395998
0.00025754398334089
0.00023443856159755
0.0002088259998356
0.00019014296633895
0.00019293709953287
0.00021250204633666
0.00022727504404296
0.00022915566412639
0.00022383561014489
0.00021735881677106
0.00021237934721805
0.00020904374348013
0.00020676632334665
0.00020499800472986
0.0002033954871137
0.00020167183714315
0.00019959979877557
0.00019706175439576
0.00019398777131883
0.00019033470035752
0.00018613350349243
0.00018139568454736
0.00017616852612777
0.00017052311656369
0.00016454586373968
0.00015833350618707
0.0001519950662018
0.00014564623459239
0.00013779609404675
0.00013167964315504
0.00012577950024822
0.00012021260265163
0.00011504766905685
0.00011032648008943
0.0001060676496361
0.00010225863476226
9.8867180972867e-05
9.5840019859477e-05
9.3173813417626e-05
9.081841402049e-05
8.8732195859301e-05
8.6866311010203e-05
8.5172159557598e-05
8.3607439126087e-05
8.2139055011012e-05
8.0730390886415e-05
7.9363432943114e-05
7.8027424550954e-05
7.6710332108673e-05
7.5396231465963e-05
7.4096880939492e-05
7.2790202875243e-05
7.151545792478e-05
7.0229917756772e-05
6.8933836354627e-05
6.7635891534239e-05
6.6336331936583e-05
6.5046915427445e-05
6.3756560286837e-05
6.2517050343771e-05
6.1294807538213e-05
6.0038469474837e-05
5.7306978330956e-05
5.757687939262e-05
9.8427569040243e-07
1.9092557860019e-06
2.2157476356552e-06
2.777730403348e-06
3.3706709852094e-06
4.0344936475625e-06
4.8458270547263e-06
5.6700953585726e-06
4.7909765487855e-06
4.1419691359965e-06
3.7175954284834e-06
3.4540662153844e-06
3.2866137206151e-06
3.18980515289e-06
3.1433224062891e-06
3.1331981249403e-06
3.1474537473396e-06
3.184722053367e-06
3.2430360393735e-06
3.3179808116603e-06
3.4109952519259e-06
3.5199364887113e-06
3.6457605187649e-06
3.7835142972456e-06
3.9145585664631e-06
4.072428074413e-06
4.2289035806239e-06
4.3883983386349e-06
4.3027941236528e-06
4.1671205582914e-06
4.0409942099897e-06
3.9233721253121e-06
3.8132325699241e-06
3.7102142876834e-06
3.6138996634753e-06
3.5236207688397e-06
3.4387170126183e-06
3.3589837764548e-06
3.2840427726316e-06
3.2135663413427e-06
3.1471361986901e-06
3.0845143970024e-06
3.0252906066699e-06
2.9692221044926e-06
2.9160225149673e-06
2.8656150897309e-06
2.8177651490341e-06
2.772344580284e-06
2.7291569740289e-06
2.6880795309823e-06
2.6489873086396e-06
2.6117088955732e-06
2.576107828077e-06
2.5420049285214e-06
2.509321037151e-06
2.4779613364522e-06
2.4478758351354e-06
2.4190109974327e-06
2.3913005243832e-06
2.3646585005871e-06
2.3389841869721e-06
2.314189244338e-06
2.2902050742519e-06
2.2669843851745e-06
2.2444659969965e-06
2.2226173543562e-06
2.2014359717017e-06
1.0352692019346e-05
0.00042673070790975
0.00047094369404025
0.00041332396577249
0.00037118008687723
0.00034032695993129
0.00031702716061395
0.00029837399070269
0.00028145404123601
0.00026339284348497
0.00024186296972701
0.00021689031475628
0.00019499157944467
0.00019062771209002
0.0002072703326041
0.0002255324019624
0.00023168461458642
0.00022666135432534
0.00022037131044915
0.00021538621796921
0.00021203195579098
0.00020978579181582
0.0002080821345688
0.00020656517217673
0.00020493990183095
0.00020296490762471
0.00020051343080721
0.00019751053055436
0.00019390920781708
0.00018974003991071
0.00018501553949186
0.00017978328998284
0.00017411461498893
0.00016809611528872
0.00016182552660094
0.00015541222338108
0.00014897464787207
0.00014266842329426
0.00013641123853941
0.00013037503537497
0.00012467130484695
0.00011936644267041
0.00011449932886474
0.00011008934459876
0.00010612406677145
0.00010256778908302
9.9366882082535e-05
9.6528929543215e-05
9.4003497790678e-05
9.1744215676617e-05
8.970511467953e-05
8.7837115794e-05
8.6095377984011e-05
8.4447610505463e-05
8.2854522963135e-05
8.1302697796943e-05
7.977934999692e-05
7.8277753647371e-05
7.6775001811016e-05
7.5292499808531e-05
7.3813041976366e-05
7.2372181434347e-05
7.0933319888928e-05
6.9484870433019e-05
6.8039277654664e-05
6.66016328378e-05
6.5181775501206e-05
6.3770921953279e-05
6.2417046313149e-05
6.1083112610115e-05
5.9716277788253e-05
5.6825070651924e-05
5.6998743441679e-05
4.9062772896337e-07
1.2606787473154e-06
1.5026876512924e-06
1.7753500899884e-06
2.1391988799761e-06
2.6212544637149e-06
3.1655370812824e-06
3.812505469036e-06
4.578560076892e-06
5.2725542783644e-06
5.7773851030073e-06
5.2564909371107e-06
4.7183026774543e-06
4.3484426207558e-06
4.1054143877219e-06
3.9512133506902e-06
3.8454696611775e-06
3.7805759666328e-06
3.7534065847979e-06
3.755629718742e-06
3.7822520783577e-06
3.829988287344e-06
3.8946171151503e-06
3.9771640276002e-06
4.0821998759434e-06
4.2027463947202e-06
4.3113677043575e-06
4.3082196996222e-06
4.1697312721784e-06
4.0411280431779e-06
3.9220211427627e-06
3.8111564740469e-06
3.7080786919254e-06
3.6115773744105e-06
3.5208752647951e-06
3.4352102970688e-06
3.354533219882e-06
3.2784091575669e-06
3.2064957510681e-06
3.1384228773014e-06
3.0740644464924e-06
3.0131361564191e-06
2.9553396851813e-06
2.9003687386145e-06
2.8481190835132e-06
2.7984554605653e-06
2.7512352385086e-06
2.706271236917e-06
2.6634354672885e-06
2.6226397919508e-06
2.5837500454166e-06
2.5466474752978e-06
2.5111678013039e-06
2.4772136241004e-06
2.4446795460105e-06
2.4135073783954e-06
2.3836408404359e-06
2.3550125601475e-06
2.3275607632994e-06
2.3011965049731e-06
2.2758361211953e-06
2.2513963844922e-06
2.2278117617448e-06
2.2050394595457e-06
2.1830324049992e-06
2.161756252464e-06
2.1396435448265e-06
4.8845951299632e-05
0.0004953573532753
0.00045305639214882
0.00039984147140058
0.00036135915377946
0.0003331500914585
0.00031173994301415
0.00029431727177922
0.00027810977796922
0.00026040523143346
0.0002391585660742
0.0002150507708084
0.00019553434405765
0.00019440020555268
0.00021222544497082
0.00022998972338491
0.00023604188693832
0.00023287178879448
0.00022712869270705
0.00022210170430447
0.00021860342905354
0.00021632575478643
0.00021467376184151
0.00021326743581664
0.00021179029150244
0.00020996633635337
0.00020764241417465
0.00020472803927812
0.00020116704756437
0.00019698558787259
0.00019219792011104
0.00018685173428775
0.00018102116974546
0.00017479674875877
0.00016828049901586
0.00016158511545648
0.0001548359430281
0.00014765825341232
0.00014105255982024
0.00013468998748242
0.00012866884880047
0.00012305425000584
0.00011788547523264
0.0001131807558514
0.0001089236459114
0.00010507091654891
0.00010158189791645
9.8474221631125e-05
9.57014426283e-05
9.3205774468564e-05
9.0940105877726e-05
8.8854741394742e-05
8.6900854002319e-05
8.5046109606493e-05
8.3249395753951e-05
8.1505111572781e-05
7.9794901047658e-05
7.8113698811816e-05
7.6442791819609e-05
7.480697513229e-05
7.3196842978879e-05
7.1632954897971e-05
7.007700066039e-05
6.8515566532848e-05
6.6964863777433e-05
6.5436737153551e-05
6.3931606729317e-05
6.2439800183572e-05
6.0993227378069e-05
5.9561868619249e-05
5.8089039957086e-05
5.5026992129825e-05
5.5047042313596e-05
5.6194585064221e-07
9.62438399024e-07
1.1474410264743e-06
1.310740266717e-06
1.5478371755296e-06
1.8513632327023e-06
2.2399795985728e-06
2.7016069232065e-06
3.2537896897631e-06
3.9069285853209e-06
4.5701648681091e-06
5.0862003831353e-06
5.4115609282069e-06
5.4918534265085e-06
5.2638553802749e-06
4.8909025025291e-06
4.6406904807348e-06
4.4693278922746e-06
4.350120547121e-06
4.2715490268613e-06
4.2311992495234e-06
4.2207507550031e-06
4.2354066261034e-06
4.2721769032694e-06
4.3282731910028e-06
4.4008795536341e-06
4.3381065054209e-06
4.2076968325119e-06
4.0825567865089e-06
3.9628152533529e-06
3.8489592929548e-06
3.7417581700198e-06
3.6407906777622e-06
3.5461497476874e-06
3.4570756560274e-06
3.3736488210389e-06
3.2957627448967e-06
3.2226358036081e-06
3.1533756751285e-06
3.0876258475365e-06
3.025233803888e-06
2.9658993113183e-06
2.909367307108e-06
2.8554306942491e-06
2.8040989447094e-06
2.7551707146041e-06
2.7085110282919e-06
2.6639289545185e-06
2.6213609223667e-06
2.5807098253823e-06
2.5418636395201e-06
2.5046961122035e-06
2.4690947042577e-06
2.4349894307956e-06
2.4022747963408e-06
2.3708852672061e-06
2.3407598324438e-06
2.3118590229876e-06
2.2841357842107e-06
2.2575029182222e-06
2.2318778551191e-06
2.2071914521697e-06
2.183386694601e-06
2.1604173568693e-06
2.1382421574385e-06
2.1168308445044e-06
2.0958276810529e-06
6.4055993376602e-05
0.0004955228130395
0.00044940423949982
0.00039753090543611
0.00035981058749952
0.0003321647400078
0.00031129428049787
0.00029449731708782
0.00027916374562774
0.00026270126405365
0.00024302615231015
0.00022029421051394
0.00020041904604481
0.00019602409980949
0.00021128606968182
0.00023056549623998
0.00024002251013192
0.00023917324513915
0.00023437638428421
0.0002293592996493
0.0002256014892204
0.00022313091451413
0.00022140085238083
0.00022000136743998
0.00021859101506432
0.00021685419164911
0.00021459809169805
0.00021170819382587
0.00020811289818845
0.00020382834357536
0.0001988673164266
0.00019327777763225
0.00018713784319976
0.00018054423500132
0.00017360627423497
0.0001664458388254
0.00015919985656655
0.00015087240104311
0.00014372551520724
0.00013684722749939
0.00013033356336988
0.00012428625758729
0.00011876274721916
0.0001137309050344
0.00010915879836912
0.00010499222062199
0.00010121491158507
9.783875660451e-05
9.4806674570657e-05
9.2062529609239e-05
8.9558710559556e-05
8.7245330264833e-05
8.5071871344529e-05
8.3006617913662e-05
8.1007307452283e-05
7.9077804304713e-05
7.7200826853162e-05
7.5366917654563e-05
7.3570656690835e-05
7.1825373145485e-05
7.0123534846601e-05
6.8458485838095e-05