/*--------------------------------*- C++ -*----------------------------------*\
| =========                 |                                                 |
| \\      /  F ield         | OpenFOAM: The Open Source CFD Toolbox           |
|  \\    /   O peration     | Version:  2312                                  |
|   \\  /    A nd           | Website:  www.openfoam.com                      |
|    \\/     M anipulation  |                                                 |
\*---------------------------------------------------------------------------*/
FoamFile
{
    version     2.0;
    format      ascii;
    arch        "LSB;label=32;scalar=64";
    class       volScalarField;
    location    "0.0001";
    object      omega;
}
// * * * * * * * * * * * * * * * * * * * * * * * * * * * * * * * * * * * * * //

dimensions      [0 0 -1 0 0 0 0];

internalField   nonuniform List<scalar> 
109340
(
9613.9739211049
9901.9767799416
10703.219163724
12432.467318354
15317.38349796
19245.681828614
23819.004662984
28430.542797896
32547.044127344
36491.32917695
40340.914082574
44117.029235532
47826.010281398
51469.054412876
55045.3828862
58553.492445989
61991.701475412
65358.395264714
68652.156458855
71871.812065781
75016.44677074
78085.401620176
81078.274388686
83994.90523494
86835.337386045
89599.745926784
92288.328168679
94901.155407329
97437.975273988
99897.921556384
102279.05958467
104577.58498831
106786.18811998
108890.02440706
110855.58194702
112598.3846139
9720.6023107029
10819.379610248
13666.688202463
17967.018224497
22970.676583908
28036.231598732
32875.518959491
37706.534674149
42541.332097094
47320.770361839
52027.169802034
56651.757776494
61188.310894423
65631.786636683
69978.024478267
74223.658404453
78366.085803261
82403.450398501
86334.631207293
90159.255355824
93877.753473622
97491.329632577
101001.85642047
104411.68486624
107723.42339851
110939.6957693
114062.89374512
117094.92621251
120036.91037087
122888.73922587
125648.34783628
128310.33603251
130862.70969636
133277.66777677
135484.67209689
137304.71092287
9963.1908532414
13964.92281192
21392.773147256
28996.810384529
36208.03781786
43353.230149062
50555.742058846
57749.184492836
64882.965565558
71911.094506438
78799.919546067
85526.686972346
92075.969641717
98437.3499858
104604.10435991
110572.41603697
116340.88704854
121910.40928744
127284.5781374
132470.46518315
137478.66695535
142321.77266391
147012.89151316
151564.50722779
155987.78633649
160292.24328702
164485.5577157
168573.37724049
172559.07255002
176443.25581748
180222.63271516
183887.74780254
187416.96671327
190755.31713923
193748.74412798
195976.61140663
11924.721030648
28465.592329966
45346.499669005
62205.375868251
78877.086695601
95272.023015121
111280.80645949
126818.96856137
141818.47364424
156227.66695173
170010.37306377
183146.16226914
195629.08051755
207465.18861697
218670.21671058
229267.50565373
239288.34454309
248783.48604714
257846.62218056
266601.54983429
275154.84433291
283580.74284104
291926.36450619
300219.14809682
308472.84855339
316691.80971492
324873.53009242
333010.68822767
341090.77609808
349096.45451161
357007.51496754
364822.08060452
372565.78297706
380160.35695403
387072.50090001
391418.19526062
46694.490140426
146249.25634665
240755.41307496
331344.28727433
416712.70645141
495554.99894497
567067.44195372
630975.71140492
687468.70369465
737024.51168922
780280.19010986
817919.46087666
850611.80257319
878972.12529215
903541.06897726
924818.5980356
943510.86923108
961531.20746408
982002.01647992
1006412.1739043
1034534.8170398
1065435.7332112
1098107.3492071
1131705.5665495
1165567.6812596
1199158.5993721
1232049.6757347
1263889.033919
1294373.7389406
1323201.3128953
1350078.8907728
1374599.3770626
1396226.4868277
1413939.7015059
1425180.3899658
1418586.9229782
4714065.0344903
5536732.7726865
6151908.2666307
6581776.8988157
6862681.8267698
7032040.1610087
7121854.6685954
7156944.5932999
7155187.7443963
7130505.3285461
7090764.61394
7042042.6699346
6988489.1692858
6932907.6057286
6877195.8371104
6822725.4315461
6770411.9638107
6720889.4415699
6674785.5282511
6632738.3714304
6594111.2039485
6558502.461291
6525725.330299
6495693.0271021
6468354.1034399
6443675.3313713
6421642.9185777
6402269.7395195
6385606.7248188
6371761.0164363
6360937.3064234
6353526.398206
6350116.0682134
6352043.7224701
6360790.3371406
6375402.2919261
113927.27517121
114103.84728385
113354.50377312
112770.95659435
113249.26513802
115270.76383502
119404.71071055
125804.95877432
133860.7420473
144381.96040614
157137.61042994
169362.99037785
178874.49923925
182394.32185124
181307.22718503
177513.67270737
172084.98715061
165831.91969677
159303.43495005
152792.80510716
146487.58052907
140462.11189132
134798.71229629
129640.57039894
124956.68556617
120723.83222312
116785.30511507
113080.92235229
109843.57202713
106606.36236137
103850.34386848
101088.55472569
98652.622248135
96287.78792366
94122.046342156
92051.846651956
90123.423060079
88272.404328939
86563.696190836
84889.738661409
83382.235480787
81855.779423159
80510.852391737
79109.057606678
77884.626734965
76602.190436101
75469.23972641
74320.921019514
73256.771954064
72235.979722217
71238.206570627
70292.464922728
69382.299637285
68507.370136649
67662.084931936
66845.223438097
66054.958705896
65291.542879256
64554.733336994
63843.788017717
63156.673800022
62490.990455465
61844.420569539
61215.120953005
60601.795288
60003.79572544
59421.338364726
91903.351521898
8844888.6670213
7407941.0056533
5376403.6143899
4041931.0658506
3136323.3533573
2499862.2623852
2040669.1118131
1701269.8538483
1442154.2502074
1232821.5685484
1041939.5274473
832590.32367259
605096.49952483
433619.80553203
342069.32663816
299873.4716918
280457.95563208
274015.85055014
271480.6591509
270833.81954922
271171.57735665
272056.022272
273127.46956484
274155.76007232
274997.86446398
275552.33240124
275754.16095158
275534.8201034
274851.77747749
273714.09252305
272138.54771657
270162.51652482
267842.74330265
265249.04870492
262461.3313838
259555.89761
255882.9146098
253016.44237417
250238.32762001
247684.49265081
245446.34694566
243592.42572303
242163.40332162
241146.85880547
240515.99653987
240261.46596491
240358.20431054
240705.0190482
241278.63879433
242011.05657599
242845.7551499
243739.84458662
244657.1093485
245556.79831803
246395.14865615
247151.41402778
247817.53557917
248370.67366054
248784.0878738
248989.88148248
248972.40881243
248826.45628317
248532.3084961
248107.82364683
247554.55829174
246946.09490811
246270.3486534
245556.70492737
244435.89308506
244086.04379507
240001.15285954
242236.80762891
138283.86658773
137076.26269062
134069.1287379
130191.38202217
126051.78601489
122116.02213795
118712.43982413
116106.74964294
114404.39758436
113641.12874674
113639.7824047
114248.97918062
115003.07301728
115426.75366853
115786.68219015
116199.4473976
116667.24555839
116991.90312709
116624.13659144
115738.57034876
114447.79103378
112829.60562836
110971.03811083
108930.25434117
106841.19561371
104804.48800934
102792.73503629
100773.29227744
98785.648037529
96847.383710233
94963.403973833
93166.393436457
91426.132686053
89766.784241697
88156.761119549
86617.248331253
85121.222029215
83692.036937442
82311.326511593
80998.880102955
79733.621364858
78526.773525957
77355.940540323
76231.349849805
75139.441131272
74086.692969439
73070.34255512
72091.236573565
71152.102479583
70247.952344646
69378.745620536
68538.544275516
67727.636113916
66942.025239984
66180.317469932
65440.734861693
64723.246714824
64028.032765828
63355.135829141
62703.660382029
62071.93174016
61457.780044648
60859.080662097
60274.206640723
59702.354821267
59143.546101496
58598.066899945
484146.29890323
9249584.3719445
6812784.7338295
4986407.3151255
3780217.0659385
2954278.0006323
2369693.0191877
1945519.9831348
1629817.3792386
1386201.5698066
1185090.4480467
993679.89240861
777340.73163406
556764.17058966
406001.10941539
329222.28886706
294412.37744825
280723.569566
274209.94973082
271672.55436016
271040.5552627
271399.83494481
272301.91778815
273390.68064897
274430.87897744
275282.89248616
275846.36122429
276054.4744269
275841.41161775
275162.51289925
274027.68333054
272453.81841744
270478.22393841
268156.73876233
265559.22227245
262766.75300473
259857.25938104
256177.52513772
253305.79655661
250530.89509816
247985.66889165
245759.10419265
243916.09006197
242492.56506717
241480.65272545
240855.37004848
240600.45616052
240687.75242017
241018.01627718
241573.34172926
242291.07764174
243114.34172415
243999.55569103
244910.44480525
245808.5080931
246643.96423726
247398.34494378
248066.27678057
248625.331242
249025.61008441
249238.89084671
249224.21097644
249084.24720899
248800.64015604
248389.60638465
247854.63676586
247248.75758888
246568.14442468
245842.38912289
244850.59451474
244326.79008811
239564.72921973
242112.68733254
196193.69696459
191950.57040982
183522.06350144
173110.5603693
162521.68333925
152730.11350302
144287.64988411
137308.8339082
131716.18247958
127135.586559
123672.28379216
120676.42727387
118405.51130818
116600.78281413
115036.2274866
113590.73627502
112041.55451136
110309.70593592
108168.90714857
105836.03998323
103496.57234371
101238.03235978
99082.201534331
97040.150624378
95118.408699725
93294.105597189
91584.71805924
90033.517721059
88600.7895677
87268.385440299
86020.703236759
84857.533607043
83756.459381313
82688.300781993
81646.964137306
80604.429281663
79570.640176695
78542.400240221
77538.465302525
76557.641456177
75605.989624676
74675.244619039
73764.049763157
72871.033275714
71993.208684936
71136.549542455
70297.81858725
69486.557271431
68697.150965384
67935.544758236
67195.643669898
66478.516631894
65779.668527996
65097.729397694
64432.065903997
63781.860732005
63147.854686716
62530.69417701
61930.938953516
61348.036102087
60780.653967827
60226.841515189
59684.703418024
59152.882253059
58630.871867551
58119.05353027
57617.998907822
510017.71080884
9242262.8599276
6802026.1085872
4979599.9836438
3775478.6923463
2950950.7875687
2367536.2932503
1944243.1179411
1629201.738692
1386160.2142226
1185725.2681261
995466.66485283
780896.12726671
560895.84477565
409006.70828036
331082.7460107
295557.47860134
281419.15791464
274751.30844998
272168.4330072
271533.9705486
271914.24113813
272840.53999099
273958.9121171
275028.02985544
275907.14003701
276497.50303097
276729.28235547
276542.928346
275886.7974288
274772.05668534
273215.04591515
271253.27100866
268940.29686046
266345.83248049
263552.46749415
260640.92475391
256959.73957196
254081.40412551
251312.66592652
248782.30044628
246578.24690985
244761.75577275
243364.93508426
242383.80908687
241795.72704276
241581.83010687
241701.48929196
242064.06759027
242651.23679158
243406.29870816
244276.93368444
245214.67290384
246175.99374863
247116.7775484
247983.6237674
248765.63101177
249462.04980301
250043.13140443
250425.70941573
250650.79471178
250636.32716697
250501.44494394
250225.87628185
249822.57346036
249293.69761105
248682.59180719
247976.86216676
247223.41419335
246378.81934808
245453.49625057
240436.46931528
243492.27266671
385752.45689361
363420.04780877
325065.42052194
283910.83448677
246703.86665177
216674.63323767
193145.01907116
175046.93177749
161004.93406099
149633.18318442
141032.19964577
133858.85244074
127959.86552495
123144.62020186
119079.48492432
115660.34530377
112879.21380206
110275.57649711
107381.85629977
104244.86678596
101060.02456478
97982.013828625
95108.146596263
92451.558412931
90004.805592668
87765.98204584
85716.355848719
83842.76895778
82177.902828442
80695.525546943
79374.101917381
78185.310780006
77114.283949537
76134.54538847
75231.585024182
74385.160952978
73584.720238633
72817.43559096
72086.219999481
71389.758265525
70723.539794402
70071.434186076
69429.296302871
68783.803930648
68138.195322156
67492.396770254
66853.759402903
66224.957849028
65608.741600021
65007.141122774
64417.742392315
63841.436500394
63274.385773746
62716.307640542
62165.623106868
61623.133818242
61089.95213717
60567.690996708
60057.455961602
59559.029715304
59071.222304754
58592.326742109
58120.784192289
57655.582100102
57196.440889791
56743.959443065
56298.945034538
547439.77993099
9215389.8706671
6781287.3785243
4968323.2470307
3768265.838957
2946079.669292
2364420.2389968
1942405.36593
1628315.5453346
1386100.2542446
1186638.4400232
998032.13003162
786017.34279869
566927.07416364
413440.57153432
333841.81057592
297262.30457648
282505.89946103
275594.44701209
272924.88399794
272273.62987029
272671.39633175
273629.537943
274785.95853661
275897.06483764
276817.88942922
277448.04279587
277713.92013479
277565.53930375
276941.32387849
275854.06676465
274319.83639025
272375.1608761
270071.46889894
267477.06154244
264675.65670311
261753.77235597
258055.64119384
255163.58502501
252390.96683668
249868.70487078
247681.8352583
245890.32705958
244525.17240801
243583.97956005
243045.36457908
242893.05390577
243062.0948626
243481.03977855
244125.74548784
244945.61542787
245888.66255759
246901.02703605
247935.35717133
248942.62939591
249862.91137915
250689.36839578
251420.42901402
252035.01163144
252432.57115429
252686.72630158
252681.97822233
252560.5079076
252296.53016753
251902.02073178
251378.90275918
250765.33540821
250040.4683712
249252.48372925
248381.45345568
247362.72007994
242223.37015654
245336.81620757
1321520.9478045
1071747.0770752
802843.16580716
594825.53353388
446687.81425047
346823.41131893
280084.6752942
234644.30774068
203055.92449077
180481.39346999
163891.37652369
151226.49960414
141242.08558074
133125.27784617
126432.04764942
120893.64903079
116261.47301734
112058.38626001
108129.8559396
104422.5648342
100887.70768162
97477.055769486
94188.356086846
91113.571429849
88267.819066632
85648.676592346
83240.088351236
81030.922006075
79039.889869898
77266.048345192
75688.665022134
74284.305372174
73027.876542272
71901.700181408
70885.656088013
69963.198798289
69114.686704014
68332.609145231
67608.710299933
66940.234271908
66319.110805501
65736.859190087
65182.759163826
64648.790266695
64131.342709553
63626.125367736
63134.396809024
62655.738676425
62192.746242255
61740.686508891
61298.1023221
60860.966668727
60426.175533816
59993.307610569
59560.985130036
59130.137217529
58702.329872383
58280.186616796
57865.123415555
57457.184415412
57055.281727499
56657.952868965
56263.923285995
55872.358962348
55483.065758164
55096.742905826
54709.662584953
598011.83477742
9175911.9163495
6750943.5761258
4952221.730765
3758423.2487047
2939638.6990277
2360347.782917
1940009.9164682
1627154.9237128
1386007.7679597
1187800.5287762
1001312.9408907
792615.45078875
574847.55732969
419348.24012013
337539.55231051
299547.68790436
283982.97707778
276722.37274062
273918.26058807
273231.94397706
273641.80265793
274635.91655906
275836.81956887
276996.99732838
277966.86554378
278643.46324625
278948.64755395
278841.49572769
278250.76839991
277190.16443396
275675.99247735
273743.9997187
271443.9902753
268841.4619158
266019.96011804
263072.70010962
259338.57266403
256419.29180677
253628.32626481
251099.16917005
248915.07651804
247135.17203119
245792.63923354
244886.57290257
244396.33893593
244311.1176906
244534.54946353
245022.63682619
245742.38722867
246646.03737238
247678.71449152
248781.72277219
249906.09434024
250997.79298493
251990.8855919
252881.67980334
253663.46225303
254327.16846497
254768.28927158
255071.91086772
255088.77361804
254988.18829839
254744.45835775
254367.50973256
253857.7376147
253250.2336153
252520.1006868
251715.22727917
250812.70877774
249741.47905449
244461.95670285
247578.95564493
4662001.9876082
2571125.9395502
1597817.9990889
1065316.3725968
741519.57188408
537312.45313742
404426.85858702
317392.69223979
259297.65203462
219964.14426484
192377.23829779
172398.47126432
157319.70949703
145405.71862666
135807.81744765
128007.34516925
121371.18009675
115514.19350921
110304.87807932
105647.70801649
101458.57960815
97660.770961382
94181.329077574
90927.633355506
87860.679528995
84998.880019121
82354.853418372
79908.688226337
77677.409406637
75671.786656042
73869.825434029
72248.113478353
70789.018255785
69475.212402156
68287.648729385
67213.1341633
66235.671581063
65344.21370377
64529.261994578
63787.112015485
63108.095909957
62484.041638627
61903.334250732
61359.251934444
60843.778004883
60354.191555194
59888.417341198
59446.431930122
59027.479381026
58628.618435444
58247.963958404
57881.206321873
57525.98048405
57178.058646599
56834.563273011
56493.938724401
56157.266218291
55825.40894614
55498.702616771
55176.771710723
54857.454734328
54539.337948389
54221.326757077
53902.709278753
53583.330169473
53263.844004478
52922.709330681
663802.3874979
9129557.167044
6712248.5752641
4931304.7726187
3745894.5568574
2931625.199449
2355327.7305592
1937060.4809169
1625715.1877794
1385867.3587546
1189178.5040248
1005236.8360081
800580.34298794
584644.34562379
426794.26118187
342236.17457182
302451.75367337
285865.68422731
278132.74525343
275134.53169542
274388.52171361
274799.53641358
275828.90079475
277076.74488816
278289.67092222
279312.24874629
280037.66962602
280385.03902289
280316.67519569
279757.28145242
278719.26999084
277218.89705203
275291.14047468
272984.88199622
270362.60385651
267505.42783409
264512.68645663
260716.61889157
257752.31190786
254924.43921256
252367.10692798
250164.48832468
248377.72722201
247042.64661991
246160.25345258
245711.40702905
245689.78636989
245966.65084928
246528.60655788
247332.66275247
248330.41679062
249462.8472306
250667.02212663
251893.40148932
253086.18180728
254172.95046956
255152.56205796
256010.81613463
256748.68260813
257261.80300783
257630.89593418
257689.04745997
257611.23189789
257396.31514915
257047.21893899
256560.34652343
255969.29156695
255243.08205275
254431.75290398
253507.44729093
252408.99666089
246977.78589118
250079.27213499
6464472.5698131
3572853.2220575
2318397.9326738
1585242.5031304
1117694.7543693
802682.55761121
583364.11637422
440823.37545228
345360.77580565
280175.37138489
235158.09164745
203398.93785851
180381.1562045
163042.20524703
149483.5811222
138526.33786818
129406.01435821
121672.10814248
115014.00911095
109203.72551804
104082.11677489
99554.049142319
95533.090389798
91938.888294582
88664.488623867
85643.749140028
82823.179485089
80186.008844156
77747.960802238
75529.15366576
73521.568331078
71702.384129181
70045.74322841
68537.925277006
67167.742290989
65920.66510225
64781.639417746
63742.388656963
62793.204632455
61926.23660382
61133.420801396
60408.732846738
59741.691166909
59123.675361324
58546.616216677
58007.623742141
57502.968757614
57031.672886383
56591.488167255
56180.426694381
55795.392766084
55432.253757222
55087.73473262
54757.800911957
54439.651118679
54130.297333433
53828.87410835
53536.001540287
53252.503642161
52978.04092619
52710.736176057
52448.161210993
52187.908524851
51928.199200862
51668.228557798
51407.826329336
51146.750132958
129351.30294114
9153692.7690421
7236357.7378175
5279859.3937516
3983434.8659119
3098092.2143344
2475368.4997076
2025914.2092957
1693519.6568717
1440130.0157095
1236896.4310508
1055551.1596553
862659.07849766
647368.18593722
468529.655066
364524.39193227
313668.82811137
288183.10629043
279833.7389271
276567.84594527
275729.47170022
276124.61836323
277184.00902498
278478.17890508
279744.31370979
280820.01399363
281593.72065259
281982.30164613
281948.17700258
281414.87260754
280392.67026634
278897.79880865
276963.93868999
274639.21008768
271984.13383719
269076.47058162
266016.26535927
262887.32689037
259818.27755356
256898.67472582
254259.34251263
251988.83943017
250155.23657633
248797.8704719
247923.42798464
247519.33970263
247574.45988658
247931.99593589
248607.32275732
249550.96485724
250708.85191977
252014.98553678
253400.22940529
254812.53149483
256196.25138056
257464.17580351
258619.58781058
259634.03642344
260518.84582983
261170.95420686
261642.34286575
261776.86988478
261730.90087377
261556.32821961
261245.3521518
260785.03467947
260202.52919651
259464.48088703
258627.10456997
257649.04547429
256481.72832932
250754.64932485
253809.47803945
5629992.7208275
2713369.7496604
2106223.2418131
1652692.1552813
1306754.7666165
1006382.1109084
777167.3208569
599742.66590321
462042.84063636
368254.46426562
301376.30126487
251155.0403326
215154.80766147
188621.50042874
168624.20005789
153084.71102683
140528.41129606
130096.25350251
121330.48564527
113898.30663437
107496.31362757
101915.45767446
97024.430545014
92714.35221592
88891.818249664
85482.773607057
82408.116549232
79619.864231483
77102.630754178
74809.626911812
72704.100693974
70750.786731643
68945.483046156
67279.788352893
65744.711816671
64326.590751287
63020.520862828
61816.033652287
60703.592656478
59673.252651787
58720.263526225
57838.637812479
57021.352324474
56260.35486902
55551.296202579
54890.969392565
54277.183523916
53707.204218102
53178.470279134
52688.166248959
52232.383676194
51807.72045089
51410.43547368
51037.708398376
50686.2371605
50353.701011538
50038.723014311
49740.740971098
49459.598143589
49194.166197943
48942.473149884
48701.826370297
48469.669747674
48243.985628103
48023.48775573
47807.518685357
47575.382382741
979315.08831009
9015278.907097
6562499.8927312
4842598.2919272
3692471.9618166
2898285.5495774
2334671.1716114
1924888.6622376
1619628.1820522
1384949.6036228
1194191.1488814
1019966.4339645
831201.17209426
624877.49623291
459174.99375879
363205.45080812
315516.90395612
294317.97341648
284204.72640951
280116.76357602
278955.97681207
279242.32427257
280328.60478696
281703.46151255
283069.89241272
284246.96395763
285110.5388664
285571.68530654
285589.90010756
285089.23726216
284074.75764522
282562.77508283
280584.32107748
278184.0262195
275419.36494689
272364.21829468
269120.9959102
265739.36593535
262445.48065977
259315.84973625
256481.31340139
254040.22631775
252072.76569097
250624.00724184
249711.60556442
249340.40248654
249470.99921123
249946.41669296
250788.49804997
251949.16408284
253362.01442206
254950.67526376
256637.65422864
258362.81728764
260075.75809915
261650.63060642
263101.99419912
264378.10497359
265480.43257716
266301.03425772
266853.69943366
267028.81720303
266999.57294476
266831.6252771
266505.44291283
266005.85342384
265348.30292396
264502.12563389
263539.61618465
262404.1716341
261062.68355886
254786.14465707
257686.97224307
5205286.5161881
2115921.8699482
1823970.516987
1544191.6442271
1291621.5186643
1070686.6194929
877993.93019972
711795.07024862
575265.67949319
458619.58776899
371462.77480493
309841.34720353
257743.67365371
219325.38979296
191404.10174043
170322.47489987
153983.26140027
140899.38434739
130060.37399355
120928.33962923
113157.1676205
106479.82568289
100691.32634182
95631.498472301
91168.86622211
87203.434953955
83663.992962835
80515.076914279
77704.504612159
75186.024213232
72922.354609245
70866.105085505
68984.918206051
67249.677518463
65635.160622499
64129.671064029
62719.325349639
61401.488806556
60171.124059993
59023.555242747
57954.204450638
56956.034179936
56022.299501092
55146.351076814
54325.658952911
53556.238484091
52836.207626118
52162.572466805
51533.34650343
50945.344123726
50395.123286844
49879.47225827
49395.727332814
48941.86255353
48515.124731262
48113.424882617
47735.082701966
47379.235883358
47045.198727436
46731.492524005
46436.183963144
46157.010068219
45891.65149281
45638.134636449
45395.068552147
45161.871930256
44921.823244644
1377471.4048032
8939923.9450344
6447568.5474522
4766297.402422
3644606.7553728
2868505.6405613
2316262.2899562
1913917.9382635
1613917.0510746
1383625.2258787
1197739.4828426
1031182.1739905
855335.92629787
659686.50677254
489945.72290221
384115.19168619
328828.87617388
302958.98086722
290187.46829716
284762.04452685
282992.98928084
283033.64147674
284068.52548675
285490.99311117
286940.20525141
288206.00535216
289145.95037211
289662.16494026
289709.66522987
289212.40589465
288171.05503732
286602.17572114
284535.99145786
282014.85226177
279092.11329869
275839.22471054
272363.18664496
268654.72063627
265046.90349799
261603.05982153
258469.67314898
255765.45904138
253586.33182826
251985.57870698
250990.07596966
250633.71362163
250832.03947421
251447.58172712
252500.29178737
253940.47216134
255687.3033029
257648.72104388
259727.53987303
261853.40141303
263978.72886438
265930.64433639
267685.69033695
269185.65051043
270398.89436631
271229.90417432
271683.79676296
271754.91294519
271651.60079466
271336.95381606
270817.50647069
270098.89180112
269207.44508356
268115.84830925
266885.22358885
265443.04335451
263779.80830691
256796.61108148
259492.778393
5190681.0500648
1813464.2774471
1556064.701343
1384147.1009838
1211152.1298891
1046501.1442617
893644.4772149
754790.75104847
631574.80017208
526999.72838967
433484.4139442
356597.11657896
302382.93236175
256713.50735031
217985.83141039
189519.58135012
168265.24296127
151931.24618864
138954.25511661
128277.73849552
119266.90133759
111562.09654494
104918.35638006
99154.233087859
94112.107203026
89669.945741056
85732.51397873
82224.070783736
79087.499749766
76279.261196254
73756.84984467
71481.79002249
69421.404716578
67544.62056522
65824.701029749
64243.116112134
62779.31415717
61417.091917385
60146.032433938
58951.559095795
57824.27039377
56755.442738491
55742.882449165
54788.681240349
53889.626932377
53044.021451307
52248.230793801
51500.43823345
50797.949961117
50136.494829994
49513.041598184
48924.090333171
48368.234193809
47843.511361569
47347.853078819
46879.430548691
46436.633349468
46018.691277843
45624.400619471
45252.429956732
44901.07138477
44568.227321946
44252.02705771
43950.828736546
43663.455421827
43389.400852536
43132.992113239
2139468.2881292
8811145.9134516
6319419.9902063
4679234.3698999
3588182.9724477
2832907.3742774
2294076.6905706
1900475.9397716
1606608.6388017
1381344.2663062
1200846.2120808
1042404.5549172
880364.45736579
698900.30359432
528429.4287669
411913.15494252
347091.68312931
314987.95438235
298416.45371623
290938.44365771
288137.34654803
287714.24469341
288562.35213213
289965.19208028
291463.74317481
292795.36394992
293791.17924154
294338.75667371
294386.8838344
293857.99002128
292751.66412288
291085.10325628
288888.377289
286202.76744399
283078.54284513
279581.71123694
275814.08385749
271721.26202442
267710.93338901
263854.26046796
260315.18543159
257246.47316692
254767.12305428
252941.94634143
251811.43546651
251458.88362619
251733.43673437
252530.84075925
253868.32652574
255681.30279594
257869.41998684
260312.79101039
262897.79039907
265505.43024323
267979.7367711
270178.94407757
272047.95553992
273499.1545981
274500.14620627
275024.35947532
275105.11893533
274931.36056677
274507.98057766
273849.0590052
272987.66545736
271930.15687549
270709.18646256
269303.3572
267751.98792884
265968.52515827
263952.78166963
256052.94547863
258243.56087205
5835191.3498241
1658590.9533062
1368134.671898
1235013.6756291
1114989.3320252
992201.74774673
872667.85852552
759431.55657578
654577.87099223
559080.98651138
476488.39275953
400277.5405762
335315.42606762
288767.8669063
249790.21834342
213919.41701163
186099.90212304
165145.42192955
149010.65630206
136224.24940189
125797.16296907
117071.12573675
109621.38163423
103178.55974478
97563.698196317
92641.091161467
88300.378892714
84448.209004915
81008.059687593
77921.08920203
75142.376821236
72634.803591819
70363.127797406
68295.89715801
66409.424451407
64685.270027948
63105.181701182
61650.914270566
60306.664786146
59055.019110374
57883.779476391
56784.399665491
55746.426271553
54763.92184447
53830.954126573
52942.206553976
52098.029964089
51298.525085794
50541.938211307
49825.831510181
49146.627998837
48503.243704491
47893.640239948
47315.745518904
46767.606479496
46247.317682947
45754.182213382
45286.322738238
44842.235363384
44420.5235119
44019.56258678
43638.153770786
43274.544735203
42927.21899162
42595.224944747
42278.180088875
42053.614464754
3252680.854003
8569492.8918446
6160389.9005435
4578885.6419148
3523437.8888799
2791561.75812
2267958.7234995
1884310.6244524
1597379.4439311
1377694.1691041
1202923.1935319
1052654.253228
904415.10768455
739912.67226957
573853.70242535
447670.71688986
371667.61263547
331591.73288842
309823.46038125
299344.73556749
294910.20211625
293685.00980197
294116.54144833
295372.40929805
296851.02367388
298201.96237726
299216.27360168
299757.64349592
299764.8937686
299156.58945528
297934.71494549
296119.48589987
293741.87056065
290841.46222799
287467.29541597
283679.61689861
279566.70932516
275036.27937086
270537.08893864
266169.992131
262123.68663545
258583.93735591
255703.80559824
253561.25517448
252221.28574975
251854.95218474
252220.17492985
253255.47590058
254967.33535794
257261.83945282
259990.13492135
262980.55405567
266050.55385482
268936.97119645
271414.22106476
273486.99873713
275042.62478734
275999.01375034
276509.75015173
276484.49104499
276195.85666495
275561.59455966
274603.011144
273319.95123675
271730.86936445
269873.20426089
267803.5471019
265536.63093078
263109.19684158
260495.57910293
257691.59340341
248554.38554847
249665.8263214
7401629.3508898
1543380.2430787
1256247.4873973
1114649.8390891
1022699.7886391
929439.98296429
836311.46142339
744355.88012869
655902.58379534
572838.31329604
497917.96151668
430159.7994693
366145.97523233
312007.08451638
272545.32010853
239459.88440272
208026.03107653
181678.35399129
161476.78854028
145794.40157731
133359.91440413
123269.3939576
114859.12601983
107678.41917848
101455.87069935
96020.908237014
91249.16302586
87032.333604535
83278.703597043
79917.213912628
76894.12884282
74164.512788395
71689.585633439
69436.704613707
67379.033063693
65496.18891615
63771.1428401
62188.609409859
60732.312250699
59385.645402833
58135.900342818
56971.024165961
55879.120430269
54852.893454073
53886.582742446
52974.065913451
52112.056626773
51294.950445823
50516.876571879
49774.481855941
49063.980459942
48384.020976321
47735.418329762
47116.856364534
46527.508543964
45967.480220289
45434.761444203
44927.889931625
44444.775853609
43983.798844937
43544.158894495
43124.206096617
42722.32691804
42337.228163266
41967.94098017
41614.621695341
41685.289111118
4819573.660796
8317441.7212457
5977589.1915828
4463693.4205088
3449845.6240047
2744291.0076293
2237661.9875455
1865113.404193