/*--------------------------------*- C++ -*----------------------------------*\
| =========                 |                                                 |
| \\      /  F ield         | OpenFOAM: The Open Source CFD Toolbox           |
|  \\    /   O peration     | Version:  2312                                  |
|   \\  /    A nd           | Website:  www.openfoam.com                      |
|    \\/     M anipulation  |                                                 |
\*---------------------------------------------------------------------------*/
FoamFile
{
    version     2.0;
    format      ascii;
    arch        "LSB;label=32;scalar=64";
    class       volScalarField;
    location    "0.0001";
    object      p;
}
// * * * * * * * * * * * * * * * * * * * * * * * * * * * * * * * * * * * * * //

dimensions      [1 -1 -2 0 0 0 0];

internalField   nonuniform List<scalar> 
109340
(
389340.59859302
387788.04593845
384845.5998195
381314.18921335
377451.32172771
373467.33695076
369444.12503107
365431.81681154
361517.63186864
357692.21365064
353901.30851633
350141.29895586
346415.74882148
342727.10243397
339077.07911932
335467.20041887
331896.8947202
328363.79511394
324863.13303432
321388.24888044
317929.14374171
314474.93721312
311013.24723124
307529.27622483
304003.26330437
300409.54415244
296713.84955584
292870.04265677
288814.76090855
284459.01400481
279674.70076443
274271.75179252
267962.98157237
260323.11173275
250763.73798139
238554.93795525
389576.06438365
387581.26566384
384282.309806
380519.36827511
376553.85119669
372565.89354055
368607.64378967
364689.8587108
360808.80666767
356967.827546
353161.33762448
349390.27663942
345657.09907481
341963.33673545
338309.99062875
334696.66014915
331123.38124981
327587.23889866
324082.66465461
320601.89440763
317134.71362188
313669.99965738
310195.00602838
306694.10779079
303146.41081351
299524.39906642
295791.31017141
291897.30525228
287773.39781888
283321.90527889
278400.40222616
272793.27461783
266162.00005159
257983.64147071
247404.11006045
233510.16793173
390449.16588022
388135.29759256
384499.79642998
380645.7435568
376711.8415259
372778.11701013
368837.31064159
364901.63155871
360995.97353343
357128.03561546
353296.85966971
349503.02529826
345748.36902562
342034.40580254
338362.67923377
334734.27206364
331148.90682345
327603.7666769
324092.80849298
320607.89283132
317138.0218285
313671.88205963
310196.58029645
306696.29158684
303149.97760109
299529.87165307
295799.08243796
291907.66125834
287786.46452896
283337.17050829
278415.73686457
272800.34209803
266124.27592624
257776.42773441
246663.14146763
231037.93009618
391667.81438139
388871.02798017
385045.58290431
381077.73127222
377063.46797136
373044.08691363
369034.04743347
365047.58837806
361101.12243677
357200.34902456
353344.83428688
349534.04672453
345768.14925437
342047.44415713
338372.16444075
334742.2693449
331157.00900313
327613.16975331
324103.7917027
320620.96721129
317152.2443359
313686.86009572
310212.26321194
306712.62461702
303167.4535771
299548.87752837
295820.09321555
291931.17247142
287812.80638578
283365.77084395
278444.07320198
272820.29627049
266090.83267779
257531.71489271
245650.78688107
227099.31229172
393597.50732525
389946.37759967
385552.27972338
381308.94136711
377183.30870361
373123.25054066
369099.73283195
365114.70412727
361171.80307674
357271.46629509
353415.32914259
349603.85081112
345837.37799087
342116.35229106
338441.25335268
334812.51512402
331230.38815645
327692.87089257
324186.25153177
320709.32631512
317244.37371914
313782.17019109
310310.71240608
306813.67174435
303271.66128954
299656.54779616
295931.63513603
292046.98236905
287932.94617702
283489.18384289
278564.06815346
272937.58634557
266158.40013004
257393.60621059
244650.11062865
221637.89255635
397223.24568981
390518.48998084
385672.27274461
381339.25639762
377208.41231787
373156.99276226
369143.88369131
365161.70462422
361216.73861842
357310.52476175
353445.79845706
349623.43619617
345843.99144174
342107.97138821
338415.93883681
334768.59556083
331166.92689812
327617.23916331
324134.75164476
320652.43466301
317179.88927039
313710.65615412
310232.86442984
306730.84207956
303184.03621816
299564.66092481
295835.75034593
291947.34075947
287829.84142819
283382.45040086
278443.32264686
272819.47881214
266015.41536453
257151.4667998
243938.16080764
216078.77195755
223847.28718123
209159.46405702
196881.40528289
186972.84946752
178047.98481782
168528.93422321
158017.75093787
146329.80001404
133633.98066239
120261.6287174
106161.85495118
93062.361134569
80557.794115481
69076.959440088
58995.481231892
50237.896230292
42767.417756501
36466.801333391
31178.270086408
26775.836301359
23124.488066819
20069.796340078
17510.094208716
15362.014019947
13549.589625833
12026.79604356
10714.520006057
9566.8452760853
8630.0421306345
7760.4888035414
7058.9962242969
6405.2017619557
5854.6315461393
5357.0600543332
4921.2581342125
4532.6545339287
4186.3077542953
3875.3944791163
3599.2773827111
3344.921955116
3123.4122757458
2912.007097583
2732.1421420324
2555.5591413737
2406.9488640609
2259.631364871
2134.1824927298
2012.279854817
1903.8034782702
1802.8726195888
1708.1644775493
1621.3338666444
1540.5728111433
1465.6796417789
1395.9012432381
1330.8493486998
1270.0491678229
1213.1795387898
1159.9149723995
1109.9757154402
1063.082922611
1019.0014110162
977.52357500631
938.46016646303
901.62497667821
866.83707756369
833.94142969403
802.98421559335
1410.279679395
5238.7722255683
5801.0471590114
5872.5381173025
5927.7811572193
5982.5492996176
6033.4609103445
6076.1670588353
6107.9801963101
6127.3293332655
6132.6652118634
6120.4328788478
6086.0421661054
6036.023115404
5981.615485901
5928.2416427614
5869.0054146227
5821.1723636396
5778.2664522348
5742.4051335724
5714.1834083837
5697.5602989236
5687.3585971222
5685.5534675238
5689.3448903981
5698.3251198249
5711.2913662482
5727.0494076087
5744.4496455122
5762.5373360378
5780.2648811173
5797.1841971536
5812.9099820556
5827.2224794417
5839.8821705746
5850.9127493268
5864.1759760894
5872.028889626
5878.7372456065
5884.3054732367
5888.4797350722
5891.8229731324
5895.3418393387
5900.3969061482
5906.3691922207
5911.2145065409
5913.1244303578
5912.74394791
5911.0825793381
5907.9080371625
5902.8679684345
5896.1823076763
5888.6640723686
5881.5492765883
5875.8379941149
5872.0561728543
5870.5925915914
5872.1974967485
5878.0886839329
5889.5650008954
5904.8369712788
5922.8517485022
5940.7271569126
5956.4762017032
5969.805392842
5982.3521718054
5992.5918701646
6002.3035796894
6010.5352466464
6014.9648305931
6085.0578621767
6010.1907935144
216296.8985882
200789.0106915
189147.49004424
180029.4225699
171096.0560685
161036.56802244
150089.04753048
138252.59801816
125752.97728618
112824.14792498
99831.669499406
87046.269655283
75615.478270091
65107.129085514
55720.825401472
47591.275330322
40618.829418619
34720.869376456
29774.281647651
25638.182954146
22183.093614648
19295.953057143
16874.274344618
14832.854848847
13106.219515612
11639.083301116
10385.31084607
9307.6731104523
8378.5956793017
7572.9767862916
6869.3665165862
6256.04282208
5714.3808029429
5238.2704721739
4814.0785235267
4438.3699885088
4101.2274157697
3800.7189231883
3529.2993441738
3285.840732444
3064.7490505369
2865.3327163741
2683.2387814863
2517.9722513441
2366.5574795932
2228.1272439559
2101.0016920733
1984.0016050117
1876.4212822586
1776.9455110344
1685.0468669496
1599.6995770879
1520.5492193677
1446.9362554426
1378.4038703626
1314.4631712228
1254.7192744691
1198.8144596585
1146.431083694
1097.2871806224
1051.1318470716
1007.7371470459
966.89296877593
928.40715731334
892.10622568064
857.83367101155
825.46799976124
799.93822039476
2458.9773367346
5536.6525752291
5822.4522229814
5882.0617516139
5937.5272548663
5991.6446380749
6040.3116732913
6079.7250696745
6107.630815546
6122.8784166803
6124.1685751722
6106.4142055111
6067.4541432354
6015.7227818397
5961.8646602096
5909.4666070999
5864.446318182
5817.06224233
5774.9214829708
5739.771649596
5712.260956508
5695.9312704379
5686.4239101402
5684.6696139504
5688.8778031217
5698.1952549682
5711.4042505085
5727.3494231614
5744.9093086502
5763.1132027542
5780.9361098131
5797.9211610313
5813.6810436529
5827.9665659879
5840.5942939369
5851.5606776174
5864.7137046637
5872.5414774666
5879.3026396622
5884.9955674703
5889.3693911593
5892.9107973588
5896.5529786396
5901.6399204257
5907.5072310805
5912.0966486759
5913.7432523636
5913.1135070394
5911.1678259411
5907.6327516016
5902.2251255399
5895.2514202363
5887.5554218654
5880.492423809
5874.8600546444
5871.1118239321
5869.5652639906
5871.4740994387
5877.7427041192
5889.3211414282
5904.6298369335
5922.6174055549
5940.4232073468
5956.2742798292
5969.7185464031
5982.2548152791
5992.4719514412
6001.9371129501
6008.4662343416
6012.5592843128
6072.9110136581
5993.8324371936
209773.91471129
191490.54021717
180915.53978819
170395.84941566
161272.3664766
151514.01708856
140748.200128
129465.75605875
117839.93038906
105685.70327535
94396.237250369
83156.851372605
72562.715145016
62844.154698764
54092.231905927
46387.740115099
39740.654032522
34092.289676347
29320.595503574
25298.499384766
21926.979353276
19102.958678764
16725.341014759
14716.995919456
13016.618372864
11568.002409468
10327.453220364
9262.3671206429
8341.4040103884
7542.4159308911
6844.6393243928
6234.0947260771
5697.2198782481
5222.4136605339
4801.812984066
4426.7661334446
4092.3626394255
3792.2137290532
3522.7375308414
3279.5375032087
3059.8591694875
2860.6138453616
2679.3824316275
2514.407330327
2363.4054677231
2225.4081483674
2098.3917502275
1981.9177377522
1874.3116098481
1775.1654200429
1683.324666886
1598.2797664025
1519.2546184826
1445.7261041872
1377.2726758743
1313.4130552035
1253.7621276524
1197.9379785768
1145.6254016823
1096.5429780162
1050.4468502212
1007.1059449871
966.30801063286
927.86137438306
891.5951855162
857.36278811941
825.0377023604
799.83196365074
2491.089035795
5544.5032756665
5825.2927648812
5884.0056732448
5938.4489485803
5991.4782487525
6039.2129728378
6077.9118448741
6105.2612590099
6120.02726576
6120.9771974066
6103.1991349327
6064.3852476464
6012.7210283707
5958.8722793871
5906.5373590092
5861.9935993679
5814.8320356013
5772.9034599634
5737.9294948296
5710.9011141226
5694.1374903113
5684.8418375013
5682.583827342
5686.7365110147
5695.9975285661
5709.1880146004
5725.1012551582
5742.6016449424
5760.6966274973
5778.4930461121
5795.4660607518
5811.2724934831
5825.5664357932
5838.2544034573
5849.3469819428
5862.5151011491
5870.474870256
5877.4986869673
5883.4555885911
5888.1959028466
5892.2257980389
5896.4111118856
5901.7160446976
5907.4268414569
5911.7436116753
5913.4379769277
5912.9727001568
5911.0136290802
5907.2435962412
5901.774434343
5894.9975432847
5887.5948448313
5880.7836012606
5875.3022855425
5871.7001718442
5870.1651495546
5872.6652609158
5879.4276043996
5891.056769794
5906.4851499634
5924.4743745157
5942.2205252851
5958.3842773948
5972.0998278651
5984.7486364445
5995.0027460742
6004.5102315704
6010.4729877139
6015.8837160296
6068.6514782444
5996.3306014576
197537.77742261
176234.84282713
166009.40286189
155532.22349686
145816.9877551
136525.38007379
126747.6470819
116898.7275121
106918.39568979
96687.768495662
87403.752891551
77862.909162847
68555.506162661
59855.439251272
51854.819004292
44759.304395743
38564.802931196
33220.858787041
28672.542790032
24831.040582791
21583.352637878
18832.239398928
16518.196953349
14559.5836248
12891.116331849
11467.40271379
10248.428461941
9198.057410128
8288.9808625156
7498.8651649586
6809.5053034198
6204.0831834754
5672.0630303645
5201.0670431776
4783.6101956554
4411.3601442493
4079.1519996479
3780.817106417
3513.0065547729
3271.1057400813
3052.6429840642
2854.1401309733
2673.9609688649
2509.41104723
2359.1977130932
2221.4530871797
2095.0534551538
1978.7941692402
1871.5614437199
1772.6526232214
1681.0388849239
1596.2323411031
1517.392229223
1444.0693693525
1375.733676426
1311.9966413913
1252.452554122
1196.7314387969
1144.5192472415
1095.5310134692
1049.5161294954
1006.2437821059
965.50759534679
927.11937358481
890.90931794132
856.72811936464
824.43573366936
799.75733631799
2539.1953971755
5554.4864909119
5829.1236717695
5886.6413556266
5939.7082917036
5991.2586859604
6037.6593061393
6075.3188166586
6101.8662276843
6115.9754134497
6116.4469758778
6098.600972842
6059.9614794431
6008.3729168063
5954.5204779178
5902.3154502356
5858.4187507183
5811.4277857565
5769.759071139
5734.9862505354
5708.2785343266
5691.2394823723
5682.0846129033
5679.950848156
5684.177412136
5693.4343169097
5706.5917640505
5722.4586099547
5739.9027967178
5757.9470860631
5775.7323678031
5792.7259643056
5808.5624919903
5822.8574892476
5835.5050444468
5846.6096078032
5859.7423559813
5867.9035024248
5875.1998856525
5881.5547227018
5886.8113863157
5891.3751080762
5896.0099049405
5901.5418248373
5907.1957879476
5911.2943661538
5912.8877377317
5912.4231119179
5910.2245209453
5906.0915144182
5900.3760925399
5893.4944515454
5886.1619743321
5879.5015746372
5874.1304083608
5870.6616399125
5869.2452756845
5872.1042443203
5879.1165476079
5890.8792553199
5906.3951020629
5924.538495399
5942.5108543204
5959.0443504433
5973.0930551949
5985.9004238443
5996.1558817171
6005.5810570886
6011.8516942056
6018.3802447572
6075.247521908
5997.2386654636
171075.43272773
151331.83999822
139997.00194614
131086.14591015
123346.76842642
116037.42186389
109088.29853769
102205.19875555
94948.774762454
87544.754424691
79718.992404388
71714.169322048
63817.577838836
56258.607853073
49213.241891823
42795.286715495
37105.211060566
32152.480211245
27883.418447025
24232.093720111
21129.5198015
18501.223878389
16257.674818708
14352.865722272
12730.462107283
11342.100147704
10146.122203396
9115.0178257814
8221.6839276811
7443.565654518
6763.3539697099
6166.1688755085
5639.5458336556
5173.7873213189
4760.1752014174
4391.7422930248
4061.9515708271
3766.3933228231
3500.3622717008
3260.3557848965
3043.1225951697
2846.0270667953
2666.7267381683
2503.0879953746
2353.5887197111
2216.4585349417
2090.6518589513
1974.7639290546
1868.0296966569
1769.3940040047
1678.1430125254
1593.5479844951
1514.9684618145
1441.8913860629
1373.7532791753
1310.1796462943
1250.7660348075
1195.1791118968
1143.0955854205
1094.2250122567
1048.311442961
1005.1296729693
964.47859382357
926.16952691812
890.03374527082
855.91950515794
823.66718410385
799.76598800854
2602.5217315957
5567.0794612575
5833.7581933032
5889.8387390815
5941.2416355675
5990.9783458006
6035.7053094624
6071.9984182548
6097.4811242788
6110.716001397
6110.5693188641
6092.6300641413
6054.212338391
6002.7276680448
5948.8664256669
5896.8103022122
5853.641912566
5806.9374379926
5765.622777099
5731.1643689859
5704.7890394673
5687.6278110911
5678.5548260171
5676.50411252
5680.7595447748
5689.9923648007
5703.0829246689
5718.8408108663
5736.1538933347
5754.0779373492
5771.8144952335
5788.8439873116
5804.7759887269
5819.1589165805
5831.8763978096
5843.0890691468
5856.3315104758
5864.7871292475
5872.4132904132
5879.1970543972
5884.9688346508
5890.0027965574
5895.0552959103
5900.8546614712
5906.4955450925
5910.4475492878
5911.9138354582
5911.3936859401
5908.9743474716
5904.6072597196
5898.7154475752
5891.7972415002
5884.6126336478
5878.1228650863
5872.8851896027
5869.557941167
5868.2723359434
5871.3378982496
5878.5350726626
5890.4814576113
5906.1664810159
5924.5054609704
5942.6453559901
5959.565385846
5974.0634000751
5987.2592462969
5997.7532297234
6007.3173030215
6013.3276791367
6019.6275512885
6075.8702940063
5997.0766559781
103577.16352072
99971.345023069
98722.609253631
98578.077694427
97288.064243451
94922.367341419
91639.436834808
87831.03473713
83058.332970848
77556.876160256
71527.462880685
65195.794526068
58719.896431489
52321.923978287
46226.418717671
40570.935678264
35451.810457498
30913.656570559
26954.955127083
23535.148154016
20599.79124585
18088.519812979
15948.067429165
14109.829974008
12536.837733248
11186.662856062
10024.19574257
9015.0357369412
8139.1723409166
7375.9958501041
6707.6147571488
6119.2282514134
5600.1437043509
5140.7228978887
4731.9271226126
4367.5253480949
4041.3861314698
3748.7345869295
3485.0004515419
3247.1369339174
3031.6223759907
2836.0259605691
2657.8335828271
2495.3642620635
2346.6839041292
2210.386093953
2085.1547371465
1969.894748634
1863.6587153422
1765.437987435
1674.5684980495
1590.2713327184
1512.0136668887
1439.1871866136
1371.3052308736
1307.9385257905
1248.7106761217
1193.2921985982
1141.3530648167
1092.6157732019
1046.8288403334
1003.767594876
963.22391410007
925.010029948
888.96424375874
854.92930429375
822.73052021248
799.75798999768
2681.1595366985
5582.4580423986
5839.0282693931
5893.4700050487
5942.9748934543
5990.6272065775
6033.3668402483
6067.9840467116
6092.1288385744
6104.2872484866
6103.389453097
6085.3206582938
6047.1805059481
5995.8380260484
5941.9651203333
5890.0708004126
5847.5875371282
5801.2977590446
5760.4156129699
5726.3538136601
5700.3646291741
5683.2471499608
5674.2866557045
5672.4001820586
5676.7548560935
5686.0192102434
5699.0843041609
5714.7668797552
5731.9704316219
5749.7748160181
5767.4293498635
5784.4480277859
5800.4579464554
5814.9446944512
5827.7581842512
5839.124150919
5852.4892579922
5861.3883770614
5869.3915368321
5876.5809873722
5882.8382019084
5888.3122281827
5893.7562753602
5899.8220436477
5905.443642689
5909.2481778445
5910.5682892309
5909.9566165714
5907.2142607956
5902.5491924777
5896.4380193058
5889.40388764
5882.3073554775
5875.9726844858
5870.9373494256
5867.8624010453
5866.9012514329
5870.3449724739
5877.8988848216
5890.0888100908
5905.9169130518
5924.3285132181
5942.5444174177
5959.7703084558
5974.6999807626
5988.3998229344
5999.1568068598
6008.9520616935
6014.9568467003
6021.546365529
6077.1483451737
5997.9654041119
10101.40435617
46055.256638781
60025.172120812
68503.759442745
73763.082991858
76066.904998684
76053.491673961
74599.3994104
72070.381178611
68647.788314466
64523.672313856
59847.780388056
54789.549304984
49551.222634157
44349.124298631
39368.810851834
34731.027597168
30525.623214874
26783.987021788
23501.176679855
20648.799980765
18186.114383488
16064.49780356
14245.256127144
12674.357082715
11316.538559386
10145.850782221
9131.5641406387
8247.6507976206
7473.9990913744
6797.3296376266
6202.5424463801
5676.2978659054
5209.7111451161
4795.2592352268
4425.6567936635
4094.4412017877
3797.3203986909
3529.8355336926
3288.3229251593
3069.4377114856
2870.8835701421
2690.1016241886
2525.1637186604
2374.1831063359
2235.8953907958
2108.8379205027
1991.9168275114
1884.0754201504
1784.4583995731
1692.3018351047
1606.8322848605
1527.4645484319
1453.6102758372
1384.8362894959
1320.6605789916
1260.6719899533
1204.5235322632
1151.9144319343
1102.5719958548
1056.2270518618
1012.64207013
971.60666383792
932.93317329708
896.44386099817
861.99017045821
829.44073126065
799.13610188989
1655.021032219
5347.1750936478
5822.3072737122
5885.160203368
5933.0816923895
5979.1165948045
6021.1860040383
6056.0036386735
6081.263322533
6095.1833660955
6096.7649300406
6083.1185845145
6050.0341606804
6001.166141911
5947.2197638926
5894.8229065075
5840.322795809
5794.5802300805
5754.2231997386
5720.6546501524
5695.1114933238
5678.1833428256
5669.3563931912
5667.6661700383
5672.1640117071
5681.5049873766
5694.5828555991
5710.2210357539
5727.3379709513
5745.0418670536
5762.6251792775
5779.6264751847
5795.7159994964
5810.3685065086
5823.3798617969
5834.845379483
5846.3858163042
5855.7953432462
5864.2883572002
5872.0153576266
5878.8740909308
5884.9322298481
5890.8384492005
5897.1934043476
5902.6922098031
5906.1671501541
5907.247349708
5906.3982442202
5903.1573618819
5898.0907513267
5891.7083585254
5884.5604668786
5877.5956805942
5871.4533369817
5866.7148853148
5864.0023170721
5863.6832499074
5867.6709786945
5875.8464961972
5888.601870774
5904.7405598429
5923.2031165834
5941.4595897679
5959.211810632
5974.7485687097
5989.3091694154
6000.6705595327
6011.0897330761
6017.0541298421
6023.7798309763
6078.5550309831
5999.9299881284
7945.3538144892
14673.891467194
25082.559581293
33697.34264414
40439.654979984
45381.896196637
48634.564524491
50593.460292955
50757.205397383
50040.865310561
48512.025266139
46229.792529409
43391.27846739
40149.316732856
36685.895391529
33184.207749398
29780.487576813
26573.460627444
23632.77248845
20985.879859601
18633.752395961
16563.004423007
14750.059776453
13166.787044062
11787.385062947
10587.3990308
9539.0305427763
8618.8135392977
7814.0010322982
7107.2597932643
6484.7602242516
5932.4458772729
5443.1327178602
5007.930978331
4619.5617532837
4271.1281714059
3958.6386567566
3677.4375358366
3423.6102781018
3193.5513438314
2984.8069719168
2794.9725605385
2621.8754543461
2463.4897296892
2318.3912361058
2185.2340040941
2062.7816713095
1949.8829138175
1845.6077444135
1749.2004921127
1659.8723819801
1576.9708871396
1499.8611147252
1428.0795694254
1361.1590920891
1298.6826902499
1240.2596353376
1185.5302105379
1134.2116966549
1086.0341094212
1040.7598001093
998.1623472927
958.04052099612
920.21409031631
884.50796474741
850.77026795076
818.8608579859
800.51750328918
3012.331218841
5641.7290870257
5856.9874054789
5905.3786689398
5948.2388398788
5988.5755373982
6024.0043839412
6052.0442009823
6070.7246074935
6078.5251467123
6074.6522215769
6055.8089326799
6018.8952534727
5968.3388313302
5914.4676441971
5863.0533127987
5822.5215927266
5778.0699340952
5739.0134668797
5706.700947854
5682.2691591073
5666.1185618105
5657.8155283188
5656.7334104244
5661.7335157957
5671.4657076906
5684.800916122
5700.5743886918
5717.7454048199
5735.4644901268
5753.0377636196
5770.0169912169
5786.1512242683
5801.0463242223
5814.5418419111
5826.4675795621
5838.9815677129
5848.9369631249
5857.9361163784
5866.2532810191
5873.7605967912
5880.4131459498
5886.6873187211
5893.199275394
5898.426166915
5901.4672871744
5902.2385749265
5900.7839777298
5896.8690884879
5891.3898502122
5884.6987871479
5877.4493068898
5870.6601874948
5864.9094129789
5860.7792921325
5858.6845739025
5859.4916634906
5864.3422227215
5873.2487380266
5886.5273126475
5902.7751384351
5921.1342569955
5939.3108480953
5957.9205094419
5974.2997449435
5990.0882515929
6002.3360195801
6013.8220024941
6020.0279289881
6027.1805179912
6081.5116826487
6005.5658840493
7686.6898679153
8434.5730363649
12975.973422896
18444.030520167
23492.703265338
27791.813355078
31253.229054332
33848.314373504
35659.468789152
36539.112342315
36507.597674652
35814.878732191
34545.615565859
32794.549074882
30674.019615738
28331.534062717
25908.577718362
23511.162063252
21218.026279523
19082.619572985
17132.016447156
15374.277702888
13804.980851505
12412.163023448
11180.13455826
10093.664218135
9135.5321029422
8290.3276327654
7544.1594465848
6882.5958904934
6295.5676619267
5774.23749554
5309.7188035151
4895.2095933017
4522.859010636
4188.4078103679
3887.5001814922
3616.0351935667
3370.0635131919
3146.7830446139
2943.9675520053
2759.1314553639
2590.2075545995
2435.368567419
2293.4775586286
2163.0662029218
2042.9870344465
1932.1038799085
1829.6288487402
1734.7922124206
1646.8532028374
1565.1433467396
1489.0917221015
1418.266271307
1352.1965960661
1290.4773413121
1232.7229531763
1178.6107173964
1127.8654096929
1080.2060855237
1035.3882578626
993.19793659436
953.44208126611
915.9488305147
880.55417787635
847.10574942428
815.45166183233
803.91468780949
3321.8884481783
5686.103224674
5869.7412207281
5913.2755184472
5950.9455350772
5985.7567367313
6015.5924439252
6038.3752382563
6052.5057757789
6056.6821797117
6050.2303063154
6030.3771824492
5994.6159359461
5945.008444882
5891.2732748894
5840.1128051334
5800.8639495192
5757.8416335269
5720.3716644446
5689.6499397934
5666.6642872886
5651.7566487429
5644.4895629693
5644.3874727247
5650.2559639289
5660.7954558775
5674.829786126
5691.2056653083
5708.8772141568
5726.9825054706
5744.8354373557
5761.999285465
5778.2906009666
5793.3818010828
5807.1507449306
5819.4097182737
5832.9266872261
5842.9146136923
5851.8727156238
5860.0778614349
5867.628470572
5874.5183426975
5881.121761168
5887.5504158953
5892.4672912033
5895.1447907077
5895.6350135108
5893.6166238874
5889.5677775606
5884.0011094143
5877.2056974003
5869.9830180807
5863.4861140759
5858.3348266567
5854.9947923641
5853.6788594016
5855.6682786885
5861.5016666579
5871.0984722597
5884.6877308709
5900.8560553379
5919.0406493093
5937.1630601876
5956.4651153331
5973.4626815934
5990.5387015593
6003.6529346172
6016.2892272252
6023.1517769402
6031.1805582495
6084.944370306
6014.5388534065
7005.7699687982
6993.2613745763
8440.0271161467
11604.41699042
15083.688771839
18362.607045551
21271.260589771
23713.971454656
25665.178454696
27030.001879403
27780.913377878
27868.789875692
27446.752652807
26629.242794929
25419.160235359
23939.641908564
22291.128096045
20564.336807215
18834.861335693
17164.119891679
15589.363400702
14132.786653622
12802.950979927
11600.959350986
10521.212726457
9554.9605836091
8692.9618987433
7924.5657599298
7239.6008220815
6628.5495887768
6083.0731388016
5595.2764865645
5157.6436958209
4764.5984246303
4411.2692602677
4092.8963577809
3805.403606533
3544.3293772177
3307.4124760114
3092.1967929047
2896.0767904528
2716.9275231382
2552.6659734312
2402.220095974
2264.0092424785
2136.8405668735
2019.4402235012
1910.9507043045
1810.6379310023
1717.6540010206
1631.3517515194
1551.0367482118
1476.2649415695
1406.5823515229
1341.5327377954
1280.7118062035
1223.7465727965
1170.3638390951
1120.2803806082
1073.2295772811
1028.968176481
987.26932877507
947.95361005993
910.86093987129
875.83065558085
842.71135027639
811.32808008179
815.98476691405
3693.2552575246
5736.0471198887
5884.1429173969
5921.0413089768
5952.6663362263
5981.424703792
6005.2737733494
6022.4226465629
6031.6029419361
6031.8841838292
6022.3634088307
6001.2292054999
5966.3354770925
5918.3337222736
5865.0094383194
5814.0534407658
5775.9668228111
5734.4047703373
5698.7219672594
5669.8823708945
5648.6994890452
5635.4666970212
5629.8513890361
5631.1149473841
5638.335029041
5650.2064330159
5665.4909739687
5683.0083775862
5701.7048715367
5720.6993867086
5739.290983415
5757.0353645693
5773.7763612713
5789.1729159769
5803.0375276567
5815.2150445929
5829.2647293915
5838.9164877012
5847.3423055124
5854.8267699243
5861.6262224495
5868.0331550827
5874.6143613155
5880.7854625382
5885.3442671367
5887.6929982502
5888.0084193472
5885.9664546402
5882.025699193
5876.5346186053
5869.7822668399
5862.7448432795
5856.7916103342
5852.4705454451
5850.0259311662
5849.6311678044
5852.725236275
5859.3945707107
5869.4177553032
5882.9247986431
5898.6847279303
5916.4714206317
5934.3038546404
5953.4815325697
5970.4766266765
5988.6573360216
6002.895983879
6017.1843910898
6025.3403337326
6034.7410050635
6087.5993061437
6029.6950955759
6363.7480432158
6363.3270444338
6592.0672195933
8175.5308709611
10488.459684248
12890.650284231
15179.092540272
17241.597896117
18991.412653742
20370.826464677
21390.302562094
21884.119852582
21967.417193294
21673.284963014
21077.071044029
20184.392797762
19096.132362711
17880.784658563
16607.700024585
15327.209710867
14080.859858633
12896.802349063
11790.492816949
10769.787590749
9836.8548913788
8989.6849523138
8223.8669071902
7533.7061731121
6912.3669709884
6353.2140955912
5850.0679481324
5397.1251014617
4989.0789023717
4620.8675134158
4287.7614395312
3985.7950492434
3712.1043909049
3463.4398882927
3237.0777980758
3030.7113555721
2841.6495071048
2668.5967485628
2510.0468856701
2364.3787211593
2230.4061430517
2106.6276225336
1992.3406380509
1886.6802405782
1788.775725881
1697.9378705078
1613.404711023
1534.7461275471
1461.4773182889
1393.1139942145
1329.2274956319
1269.4013838449
1213.383463528
1160.8524874519
1111.5274307666
1065.1609009859
1021.5013805437
980.37169378416
941.58360238235
904.9522642764
870.3262419555
837.56830551691
806.50091409409
841.20186699157
4100.518916854
5785.5338667497
5898.6051242331
5927.857266287
5952.9902391481
5975.3663511725
5992.9913115063
6004.3351524121
6008.3521111794
6004.5367791214
5991.8027787202
5969.0932028485
5934.7662769621
5888.8721627788
5836.4324016836
5785.748902328
5748.6302368024
5708.4302757042
5674.626717902
5647.8983898304
5628.8425841595
5617.6869293262
5614.1300204195
5617.315867129
5626.3754765518
5640.1239489143
5657.2100534564
5676.4118414634
5696.6608687306
5717.0364042576
5736.8482732888
5755.5914119444
5772.9486945113
5788.6087476586
5802.4237802879
5814.3071428119
5828.179625647
5837.1224292181
5844.7656204469
5851.2082810536
5856.882961436
5862.517808707
5868.7467598384
5874.3366308504
5878.3081597597
5880.2383435968
5880.4263344435
5878.5447444216
5874.9296413617
5869.7488368126
5863.3067026803
5856.8208823033
5851.7094268235
5848.4304679475
5846.8045805081
5847.1998757753
5851.0150025656
5858.0478293349
5868.2560646863
5881.8400978532
5897.3430466726
5914.5163076464
5931.1886340394
5948.7228511604
5965.1850434847
5983.1313905132
5997.6301404467
6012.117738106
6021.94712268
6033.3779265546
6081.8741830065
6060.1985232024
5844.5652905477
5820.7192813974
5781.5989141438
6369.5410912999
7804.2845640029
9540.604482019
11298.310340522
12968.522607416
14451.080090216
15710.961427738
16710.825478332
17398.365273607
17669.47034518
17749.823332705
17472.025049319
17015.779676611
16337.720185569
15504.34855747
14585.994213218
13622.122679663
12651.562007728
11703.109487244
10795.535761177
9941.003200832
9146.0344478246
8412.6900832642
7740.1665066258
7126.6222157685
6568.6653090681
6062.0518681292
5602.4930412814
5185.7358371348
4807.6791281128
4464.5368523272
4152.7208960829
3869.1338825772
3610.8280773311
3374.9929678354
3159.241094538
2961.9436462987
2781.1802232196
2615.3498089959
2462.9154562504
2322.2620481832
2192.5224317464
2072.8143122259
1962.0885639677
1859.548985501
1764.2429299045
1675.605356751
1593.2152265194
1516.4380063364
1444.8436590777
1377.930336485
1315.280735384
1256.6633778612
1201.7016198872
1150.1259300084
1101.650733059
1056.0198480202
1013.0657874544
972.57728005938
934.3612204923
898.26263002644
864.1142072219
831.80095918849
801.15693380015
898.23410440812
4521.2238333446
5826.6861538261
5910.5221244929
5932.6023806989
5951.3579123596
5967.3129228719