/*--------------------------------*- C++ -*----------------------------------*\
| =========                 |                                                 |
| \\      /  F ield         | OpenFOAM: The Open Source CFD Toolbox           |
|  \\    /   O peration     | Version:  2312                                  |
|   \\  /    A nd           | Website:  www.openfoam.com                      |
|    \\/     M anipulation  |                                                 |
\*---------------------------------------------------------------------------*/
FoamFile
{
    version     2.0;
    format      ascii;
    arch        "LSB;label=32;scalar=64";
    class       volScalarField;
    location    "0.0001";
    object      pTsat;
}
// * * * * * * * * * * * * * * * * * * * * * * * * * * * * * * * * * * * * * //

dimensions      [1 -1 -2 0 0 0 0];

internalField   nonuniform List<scalar> 
109340
(
389340.59092199
387788.05403665
384845.602066
381314.18980042
377451.3217769
373467.33676244
369444.12470348
365431.81706583
361517.63236902
357692.21405149
353901.30883714
350141.29920397
346415.74901752
342727.10258754
339077.07923995
335467.2005111
331896.89478395
328363.79515259
324863.13306192
321388.24888784
317929.14373557
314474.93719865
311013.24720921
307529.27619776
304003.26326927
300409.54411692
296713.84951574
292870.04262298
288814.76087417
284459.01397205
279674.70073297
274271.7517629
267962.98154603
260323.11170895
250763.73796019
238554.93793702
389576.06574281
387581.26915456
384282.31071852
380519.36855195
376553.85121866
372565.89357395
368607.64411744
364689.85904129
360808.80692592
356967.82774562
353161.33777129
349390.27674733
345657.09916154
341963.33679924
338309.9906683
334696.66017327
331123.38126105
327587.23889525
324082.66464151
320601.89438132
317134.71358534
313669.99961244
310195.00598233
306694.10773627
303146.41076554
299524.3990166
295791.31011699
291897.30519995
287773.39776775
283321.90523384
278400.40218286
272793.27457751
266162.00001396
257983.64143737
247404.11004403
233510.16792157
390449.16590751
388135.2990925
384499.79708847
380645.74400301
376711.84195503
372778.11735421
368837.31089893
364901.63175322
360995.9736764
357128.03572823
353296.85976238
349503.02537972
345748.36909464
342034.40586451
338362.67929091
334734.27211406
331148.90686522
327603.76670719
324092.80851863
320607.89284887
317138.0218396
313671.88206554
310196.58029814
306696.29158572
303149.97759823
299529.87164804
295799.08243086
291907.6612508
287786.46451804
283337.1704986
278415.73685074
272800.34208423
266124.27591162
257776.42771618
246663.14145511
231037.9300722
391667.81249517
388871.02883404
385045.58371809
381077.73167162
377063.46821587
373044.0870939
369034.0475807
365047.58850668
361101.12253955
357200.34909822
353344.83433422
349534.04675015
345768.14926891
342047.44416661
338372.16444787
334742.26934315
331157.0090035
327613.16975119
324103.79170155
320620.96720894
317152.24433521
313686.86009819
310212.26321078
306712.6246138
303167.45356941
299548.87752202
295820.09320876
291931.17246466
287812.80637842
283365.77083847
278444.07319646
272820.29626292
266090.83266621
257531.7148787
245650.78686386
227099.31226833
393597.50573087
389946.37812454
385552.27988537
381308.94139828
377183.30869547
373123.25053136
369099.73283948
365114.70413237
361171.8030855
357271.46629443
353415.32914454
349603.85081597
345837.37799277
342116.3522925
338441.25335389
334812.51512198
331230.38815937
327692.87089338
324186.25152972
320709.32631995
317244.37372106
313782.1701957
310310.71240858
306813.67174737
303271.66129421
299656.54779723
295931.63513423
292046.98236597
287932.94618134
283489.18384076
278564.06813823
272937.58634673
266158.40012425
257393.6062004
244650.11061118
221637.89253167
397223.2443391
390518.49009313
385672.27277334
381339.25640892
377208.41232374
373156.99276178
369143.88364599
365161.70463261
361216.73862676
357310.52476195
353445.79845572
349623.43619429
345843.99143818
342107.97138408
338415.93883258
334768.59555219
331166.92689126
327617.2391582
324134.75163952
320652.43465292
317179.88926102
313710.65614357
310232.86442198
306730.84207039
303184.03620679
299564.66091526
295835.75033523
291947.34074884
287829.84141482
283382.45038776
278443.32243476
272819.47884555
266015.41534641
257151.46677168
243938.16076996
216078.77190998
223847.28721062
209159.46397971
196881.40537544
186972.84797349
178047.98368212
168528.9342358
158017.75102667
146329.80004291
133633.98062447
120261.63684132
106161.8329376
93062.361817332
80557.795307449
69076.959070276
58995.481081644
50237.896108831
42767.418094579
36466.801008953
31178.269877684
26775.836338229
23124.487842536
20069.795677579
17510.092734985
15362.012144202
13549.592156983
12026.8020753
10714.510168584
9566.8503258725
8630.0812172277
7760.4863305066
7058.9782582462
6405.1919029055
5854.637385589
5357.0506741436
4921.274986312
4532.6467010544
4186.3200190474
3875.3876197496
3599.2726771046
3344.916667999
3123.40804493
2912.0033213315
2732.1477368847
2555.5570452277
2406.9461251764
2259.6319435835
2134.1804787169
2012.2873375166
1903.8020995401
1802.8732628938
1708.1643443622
1621.3338453026
1540.5728018691
1465.6796383394
1395.9012310155
1330.8493429079
1270.0491617626
1213.1795379866
1159.914974168
1109.9757197476
1063.0829268529
1019.0014143755
977.52357618415
938.4601657629
901.62497345663
866.8370719052
833.94142329775
802.9841850553
1410.2794658093
5238.7733496897
5801.0467541531
5872.5377611453
5927.780974998
5982.5492933463
6033.4610591372
6076.1673036051
6107.9804749805
6127.3296209419
6132.6655076629
6120.4332082917
6086.04244542
6036.0233708426
5981.6156546224
5928.2417389251
5869.0049654834
5821.1723108061
5778.2663908289
5742.405068188
5714.1833502913
5697.5602426404
5687.3585424149
5685.553418303
5689.3448524428
5698.3250952362
5711.2913554069
5727.0494105663
5744.4496604101
5762.5373630073
5780.2649152135
5797.184235721
5812.9100223121
5827.2225214525
5839.8822139088
5850.9127929652
5864.1760085555
5872.0289156824
5878.7372736847
5884.3054989048
5888.4797561123
5891.8229882865
5895.3418455526
5900.3969127908
5906.3692098349
5911.2145234079
5913.1244482454
5912.7439636875
5911.0825937558
5907.9080587368
5902.8679922054
5896.1823321914
5888.6640964843
5881.5493060704
5875.8380298735
5872.0562190314
5870.592649783
5872.1975673553
5878.0887715273
5889.5651078976
5904.83710098
5922.8518967977
5940.7273075152
5956.4763577546
5969.8055509295
5982.3523284016
5992.592025038
6002.3037321805
6010.5353803107
6014.9649357622
6085.0578062848
6010.1909777532
216296.89861218
200789.01069931
189147.48848694
180029.3634244
171096.05172223
161036.57811882
150089.04810252
138252.59807799
125752.97745588
112824.14655887
99831.669579483
87046.269208876
75615.478292108
65107.129408006
55720.825223024
47591.275423014
40618.829361951
34720.869327113
29774.281600659
25638.182785651
22183.093564373
19295.953045922
16874.274410112
14832.854987581
13106.21924464
11639.082343467
10385.312233455
9307.6726819639
8378.5945693697
7572.9780714933
6869.3657317139
6256.0432883544
5714.3798315806
5238.2710838795
4814.0776811563
4438.3704346629
4101.226654646
3800.7192453409
3529.2987289033
3285.8409842674
3064.7486757474
2865.3331108946
2683.2384539225
2517.9728677306
2366.5577593407
2228.127412504
2101.0018412647
1984.0013112334
1876.4213595686
1776.9454061008
1685.046900213
1599.6995694661
1520.5491891165
1446.9362609751
1378.4038541589
1314.4631689803
1254.7192676889
1198.8144610269
1146.4310852978
1097.2871855591
1051.1318506376
1007.7371501956
966.89296978051
928.40715684298
892.106223516
857.83366742346
825.46799902647
799.93831214599
2458.9770742239
5536.6530337287
5822.4519553335
5882.0615050869
5937.5271319994
5991.6446541141
6040.3118148956
6079.7252920173
6107.6310705795
6122.8786924163
6124.1688858301
6106.4145272969
6067.4544223478
6015.722975819
5961.8647713612
5909.4666943292
5864.4459633309
5817.0621950759
5774.9214276164
5739.7715899958
5712.2608992765
5695.9312130557
5686.4238579302
5684.6695738438
5688.8777761591
5698.1952376028
5711.4042432931
5727.3494273154
5744.909323739
5763.1132258488
5780.93614013
5797.9211952118
5813.68107975
5827.9666037234
5840.5943322766
5851.5607146431
5864.7137321523
5872.5414990858
5879.3026600448
5884.9955835536
5889.3694002146
5892.9108004708
5896.55298055
5901.6399232815
5907.5072392168
5912.0966548966
5913.7432657547
5913.1135238854
5911.1678414987
5907.6327742285
5902.2251517638
5895.2514487108
5887.5554548844
5880.4924599961
5874.8600952983
5871.1118749155
5869.5653242644
5871.4741734832
5877.7427956184
5889.3212497204
5904.6299652594
5922.6175526836
5940.4233535404
5956.274430507
5969.7186979448
5982.2549681139
5992.4721021313
6001.9372606812
6008.4663604884
6012.5593849135
6072.911011959
5993.8327167864
209773.91471701
191490.54019938
180915.54163218
170395.84176889
161272.37082049
151513.93134232
140748.19992386
129465.75618345
117839.93025071
105685.7031092
94396.237058515
83156.851234547
72562.715279599
62844.154419235
54092.231973321
46387.740175926
39740.653886666
34092.289472993
29320.595630284
25298.499269044
21926.979295034
19102.958705545
16725.340942279
14716.995939368
13016.618348874
11568.002265333
10327.453429978
9262.3671821988
8341.4037341837
7542.416362649
6844.6388827577
6234.0950315319
5697.2195267228
5222.4139292503
4801.8127470158
4426.7663494839
4092.3624246884
3792.2139383119
3522.7373131907
3279.5376853651
3059.8589348576
2860.61398002
2679.382239942
2514.4074071868
2363.4053383732
2225.4082074305
2098.3917543215
1981.9177362994
1874.3116674053
1775.1653503953
1683.3247000567
1598.2797145031
1519.2546320659
1445.7260878919
1377.2726681561
1313.4130503862
1253.7621226713
1197.9379795462
1145.6254041727
1096.5429835639
1050.4468548812
1007.105949267
966.30801270665
927.86137460806
891.59518355566
857.3627844201
825.03769993244
799.83206019705
2491.089131352
5544.5037337285
5825.2925352858
5884.0054609372
5938.4488402877
5991.4782627476
6039.2131056352
6077.9120578342
6105.2615042424
6120.0275239436
6120.9774942511
6103.1994315777
6064.3854946537
6012.721184892
5958.8723496143
5906.5373982265
5861.9932554342
5814.8320036182
5772.9034198082
5737.9294507669
5710.9010594041
5694.1374382033
5684.8417935551
5682.5837867845
5686.73647707
5695.9975052686
5709.1880034619
5725.101255961
5742.6016562586
5760.6966496056
5778.4930746184
5795.4660938258
5811.272528238
5825.5664720398
5838.2544402685
5849.3470205247
5862.5151251978
5870.4748924923
5877.4987082128
5883.4556083848
5888.1959197192
5892.225811496
5896.4111241976
5901.716049635
5907.426859467
5911.7436285847
5913.4379920569
5912.9727159252
5911.013646805
5907.2436193189
5901.7744601016
5894.997571133
5887.5948748093
5880.7836360584
5875.3023287072
5871.7002242261
5870.1652150161
5872.665341799
5879.4277011365
5891.0568852584
5906.4852865983
5924.4745274998
5942.2206919022
5958.3844468725
5972.0999937713
5984.7487983718
5995.0029068898
6004.5103868452
6010.4731345131
6015.8838325562
6068.6514491455
5996.3308950269
197537.77740901
176234.842713
166009.40258886
155532.25620771
145816.98655633
136525.37965875
126747.64676005
116898.72757157
106918.39583231
96687.768550457
87403.752816821
77862.909169385
68555.506093957
59855.439220996
51854.819161261
44759.30426603
38564.802832634
33220.858774596
28672.542790231
24831.040403574
21583.352584765
18832.239411394
16518.196861587
14559.583634159
12891.11637759
11467.402663104
10248.428400607
9198.0575891035
8288.9806860476
7498.865236627
6809.5052821903
6204.0830839012
5672.0631495336
5201.0669306894
4783.610322236
4411.3600122144
4079.1521028702
3780.8170049063
3513.0066083519
3271.1056661275
3052.6429743046
2854.1401191254
2673.9609121699
2509.4110907114
2359.1976243793
2221.4531599978
2095.0533638362
1978.7942223942
1871.5613802482
1772.6526395293
1681.0388649588
1596.2323280811
1517.3922295633
1444.0693487044
1375.7336771407
1311.9966317738
1252.4525520861
1196.73143864
1144.5192508294
1095.531019254
1049.5161354212
1006.2437874409
965.50759863987
927.11937485122
890.9093169714
856.72811589852
824.4357530381
799.75744030637
2539.1955199014
5554.4869493793
5829.123475063
5886.6411779686
5939.7082020944
5991.2587013339
6037.6594294867
6075.3190193239
6101.86646716
6115.9756623781
6116.4472713707
6098.6012737879
6059.9617218748
6008.3730704727
5954.5205462641
5902.3155073443
5858.4183299039
5811.4277506113
5769.7590276587
5734.9862026123
5708.2784771359
5691.2394282332
5682.0845656189
5679.9508070197
5684.1773788983
5693.4342935652
5706.5917516776
5722.4586087766
5739.9028060483
5757.9471044541
5775.7323929678
5792.7259937072
5808.562523581
5822.8575219053
5835.5050763566
5846.6096380904
5859.7423808949
5867.9035216178
5875.1999038868
5881.5547386901
5886.8113996174
5891.3751175762
5896.0099097274
5901.5418404451
5907.1957976499
5911.2943814025
5912.8877548246
5912.4231302771
5910.2245405516
5906.0915385727
5900.3761185905
5893.4944800537
5886.1620075272
5879.5016112166
5874.1304528932
5870.6616933862
5869.2453401281
5872.1043244117
5879.116643652
5890.8793690299
5906.3952370715
5924.5386465903
5942.5110015665
5959.0445132296
5973.0932179646
5985.900581351
5996.1560366716
6005.5812065227
6011.8518320984
6018.3803552947
6075.2474828384
5997.2389671542
171075.43271124
151331.83992975
139997.00182876
131086.11996309
123346.77203021
116037.42201582
109088.29860721
102205.19866945
94948.77531104
87544.754680804
79718.992446192
71714.169395072
63817.577761055
56258.607859667
49213.241838388
42795.28667582
37105.211068813
32152.480159358
27883.418380787
24232.093687746
21129.519778384
18501.223812867
16257.674710817
14352.865739302
12730.462114549
11342.100129789
10146.122174261
9115.0178408902
8221.6839814555
7443.5655248469
6763.3540762005
6166.1687583134
5639.5459626147
5173.7872310163
4760.1752781523
4391.7422097285
4061.9516493633
3766.3932442161
3500.3623238264
3260.3556763206
3043.1226354337
2846.0269677783
2666.7267654939
2503.0879231374
2353.5887329397
2216.4585169021
2090.6518493926
1974.7639448525
1868.02965766
1769.3940270216
1678.1429731601
1593.547994794
1514.9684397338
1441.8913839755
1373.7532728847
1310.1796378861
1250.7660335426
1195.1791107665
1143.0955897102
1094.2250178988
1048.3114499937
1005.12967924
964.47859866862
926.16953013387
890.03374736979
855.91950743825
823.66714774173
799.76611080196
2602.5217904932
5567.0799382708
5833.7580279561
5889.8385973802
5941.2415676798
5990.9783658858
6035.7054249654
6071.9986106622
6097.4813560406
6110.7162393857
6110.5696073755
6092.6303639405
6054.2125751635
6002.7278175604
5948.8664913523
5896.8103572253
5853.641489372
5806.9374022054
5765.6227328991
5731.1643196865
5704.7889832669
5687.6277561221
5678.5547776997
5676.5040702458
5680.7595101198
5689.9923391521
5703.0829090271
5718.8408056584
5736.1538979306
5754.0779506185
5771.8145154159
5788.8440123386
5804.7760160796
5819.1589450226
5831.8764239882
5843.0890937855
5856.3315234096
5864.7871400042
5872.4133022922
5879.1970651057
5884.9688430858
5890.0028033815
5895.0553054872
5900.8546705839
5906.4955598097
5910.4475645451
5911.9138535174
5911.3937053122
5908.9743682895
5904.6072839087
5898.7154737205
5891.7972701676
5884.6126666675
5878.122901998
5872.8852363926
5869.5579940176
5868.2724045894
5871.3379784521
5878.5351739294
5890.4815753782
5906.1666160669
5924.5056167017
5942.6455110759
5959.5655412922
5974.0635534996
5987.2594019226
5997.753380387
6007.3174466313
6013.3278123718
6019.6276577888
6075.8702526566
5997.0769605066
103577.16355548
99971.344955914
98722.609419596
98578.070779399
97288.080568798
94922.367209758
91639.436751448
87831.034230553
83058.332624562
77556.876118882
71527.463019269
65195.794569726
58719.896391505
52321.923970546
46226.418699321
40570.935690766
35451.810467494
30913.65650972
26954.955111928
23535.148117241
20599.791150282
18088.519736698
15948.067432711
14109.829998039
12536.837722659
11186.662863822
10024.195768374
9015.0357248678
8139.1723569242
7375.9958150909
6707.6147410702
6119.2282758543
5600.1436819987
5140.7229389013
4731.9270817438
4367.5254015257
4041.3861083522
3748.7346077639
3485.0004046373
3247.1369162221
3031.622343855
2836.0259185787
2657.833567773
2495.3642101325
2346.6839177858
2210.3860504539
2085.1547586972
1969.89471896
1863.6587201489
1765.4379766385
1674.5684841834
1590.2713349131
1512.0136483198
1439.1871907879
1371.305217235
1307.938523621
1248.7106715121
1193.2921981102
1141.3530684538
1092.6157786294
1046.8288478363
1003.7676018703
963.22392039422
925.01003482142
888.9642469911
854.92930606922
822.73050731268
799.75803417617
2681.1594687415
5582.4585474017
5839.0281464236
5893.4698969685
5942.9748483986
5990.6272349455
6033.3669508414
6067.9842290377
6092.1290613902
6104.2874750998
6103.3897313032
6085.3209468229
6047.1807368434
5995.8381712279
5941.9651831924
5890.0708530596
5847.587114769
5801.2977231038
5760.4155685369
5726.3537636812
5700.3645740892
5683.2470945551
5674.286606824
5672.4001383784
5676.7548196088
5686.0191821127
5699.0842852122
5714.7668701892
5731.9704305339
5749.7748224125
5767.4293625326
5784.4480457278
5800.4579676982
5814.9447174454
5827.7582049403
5839.1241706763
5852.489255901
5861.3883718532
5869.3915341056
5876.5809868602
5882.838201265
5888.3122308424
5893.7562785577
5899.8220530062
5905.4436554063
5909.2481905375
5910.5683043568
5909.9566327834
5907.214281434
5902.5492150716
5896.4380437596
5889.4039150297
5882.3073874387
5875.9727213049
5870.9373957724
5867.862454622
5866.9013197107
5870.3450527023
5877.898984133
5890.0889291345
5905.9170510056
5924.328662606
5942.5445735789
5959.7704698504
5974.7001303715
5988.3999746819
5999.15695463
6008.9522014682
6014.9569776147
6021.5464642689
6077.1482979771
5997.9657047473
10101.404349433
46055.256662417
60025.172042546
68503.759252392
73763.080985126
76066.905204377
76053.492251684
74599.399247531
72070.381076029
68647.788284007
64523.67237119
59847.780447245
54789.549298224
49551.22260211
44349.124278649
39368.810877425
34731.027584709
30525.623171148
26783.987021497
23501.176652057
20648.799902887
18186.114339627
16064.497779415
14245.256059725
12674.356962869
11316.538533731
10145.850784547
9131.5641070582
8247.6507900819
7473.9990854922
6797.3296145654
6202.5424763245
5676.29783111
5209.7111856091
4795.2592160694
4425.6568546848
4094.4411845215
3797.3204283518
3529.835487658
3288.322927833
3069.4376636146
2870.8835518567
2690.1015833178
2525.1636905186
2374.1830925236
2235.8953637814
2108.8379263096
1991.9168009863
1884.0754282896
1784.4583808961
1692.3018339334
1606.8322789916
1527.4645387961
1453.6102772614
1384.8362779793
1320.6605784191
1260.6719826989
1204.5235313845
1151.914433257
1102.5719995267
1056.2270577471
1012.6420754998
971.60666822468
932.93317420234
896.4438593585
861.99016804502
829.44072559103
799.13619332285
1655.0207821981
5347.176120565
5822.307190474
5885.1601104738
5933.0816506103
5979.1166137973
6021.1860963611
6056.0037977399
6081.2635286316
6095.1835878731
6096.7651681258
6083.118862251
6050.034398347
6001.1663043748
5947.219842743
5894.8229091828
5840.3223736071
5794.5801940874
5754.2231553055
5720.6545999802
5695.111438924
5678.1832884695
5669.3563434253
5667.6661250819
5672.1639733303
5681.5049565966
5694.5828331924
5710.2210213374
5727.3379631178
5745.0418656576
5762.6251832502
5779.6264839374
5795.7160117952
5810.3685213154
5823.379875175
5834.8453928528
5846.3858227186
5855.7953429053
5864.2883574335
5872.0153597087
5878.8740949538
5884.93223517
5890.8384556366
5897.1934145523
5902.6922223736
5906.1671643294
5907.247366551
5906.3982619251
5903.1573819905
5898.090773806
5891.7083826481
5884.5604948538
5877.595713373
5871.4533765142
5866.7149324814
5864.0023738765
5863.683318744
5867.671063815
5875.8465976824
5888.6019899307
5904.7406947668
5923.2032669871
5941.4597387861
5959.2119640233
5974.7487207078
5989.3093153019
6000.6707007349
6011.0898641066
6017.0542494096
6023.7799192518
6078.5549737698
5999.9302770325
7945.3538078882
14673.891409158
25082.559487582
33697.34256072
40439.655163335
45381.896249949
48634.564531985
50593.460262211
50757.205327596
50040.865264719
48512.025579887
46229.792625018
43391.278478588
40149.316668187
36685.895361148
33184.207761372
29780.487544121
26573.460637005
23632.772489712
20985.879823302
18633.752363268
16563.004392452
14750.059737095
13166.787029641
11787.385074195
10587.399033555
9539.0305052647
8618.8135129406
7814.0010160609
7107.2597599269
6484.7601968885
5932.4458602836
5443.1327212023
5007.9309723903
4619.5617769688
4271.1281725099
3958.6386752143
3677.4375327205
3423.6102949387
3193.551325268
2984.8069589947
2794.9725236265
2621.8754354066
2463.4897053652
2318.3912184234
2185.2339884081
2062.7816512938
1949.8829077896
1845.6077283906
1749.2004899991
1659.8723726791
1576.9708846792
1499.8611132315
1428.0795638324
1361.1590912396
1298.682682885
1240.2596332962
1185.5302079041
1134.2116972032
1086.034112771
1040.7598041605
998.16235291038
958.04052526274
920.21409258531
884.50796365954
850.77026564649
818.86085525869
800.51731583629
3012.3326031107
5641.7296582359
5856.9873040903
5905.3786115309
5948.2388421875
5988.5755945185
6024.004495779
6052.0443607716
6070.7247986843
6078.5253286498
6074.6524402358
6055.8091847685
6018.8954634401
5968.3389626983
5914.4676985416
5863.0533582844
5822.5211740982
5778.0698985599
5739.0134233184
5706.7008988502
5682.2691067181
5666.1185084259
5657.8154784697
5656.7333640048
5661.7334745857
5671.4656724628
5684.800886602
5700.5743646263
5717.7453858251
5735.4644748583
5753.0377519865
5770.0169825984
5786.1512179674
5801.046320921
5814.5418398056
5826.4675807558
5838.981577362
5848.9369644635
5857.9361191336
5866.2532855345
5873.7606017326
5880.4131533758
5886.6873296475
5893.1992878655
5898.4261821007
5901.4673041146
5902.2385937232
5900.7839981154
5896.8691115278
5891.3898752167
5884.6988159426
5877.4493397167
5870.6602246563
5864.9094568247
5860.7793449471
5858.6846377435
5859.4917413414
5864.3423139904
5873.2488467015
5886.5274378106
5902.77528008
5921.1344088897
5939.311005655
5957.9206657743
5974.2999012649
5990.0884008621
6002.336161556
6013.8221314792
6020.0280431208
6027.1806020337
6081.5116231599
6005.5660852453
7686.6898833841
8434.5730612523
12975.973442918
18444.030594695
23492.70325227
27791.813472517
31253.228999118
33848.314319441
35659.468747648
36539.112303109
36507.601037007
35814.879353308
34545.615684962
32794.549506605
30674.018514091
28331.534077205
25908.57784245
23511.162154122
21218.026285963
19082.619570405
17132.01641546
15374.277638697
13804.980794075
12412.163000905
11180.134545076
10093.664209599
9135.5321014707
8290.3276552379
7544.1594470762
6882.5958675649
6295.5676430097
5774.2374989217
5309.7187990841
4895.2095924646
4522.8590202121
4188.4078165238
3887.5001864998
3616.0352089948
3370.0635173605
3146.7830409059
2943.9675330852
2759.1314420143
2590.2075380274
2435.3685511586
2293.4775408144
2163.0661826266
2042.9870222103
1932.1038637279
1829.62884103
1734.7922020452
1646.8531977327
1565.1433442428
1489.0917183992
1418.2662700184
1352.1965900981
1290.4773374162
1232.7229482625
1178.610713809
1127.8654086373
1080.206085205
1035.3882607902
993.19794031072
953.44208550086
915.94883359261
880.55417978348
847.10574931133
815.45165799841
803.91430199499
3321.8899064353
5686.1036831453
5869.7411064052
5913.2754690335
5950.9455499862
5985.7568065705
6015.5925594571
6038.3753873604
6052.5059451374
6056.6823555178
6050.230488026
6030.3773974903
5994.6161629696
5945.0085668145
5891.2733240569
5840.1128462125
5800.8635407329
5757.8415991782
5720.3716230633
5689.6498938043
5666.6642385083
5651.7565992078
5644.4895150863
5644.3874276662
5650.2559227399
5660.7954183779
5674.8297526293
5691.2056354385
5708.8771873297
5726.9824807999
5744.8354148766
5761.9992636998
5778.2905797439
5793.3817820863
5807.1507288561
5819.4097088634
5832.9266924433
5842.914612207
5851.8727158952
5860.077863825
5867.6284744219
5874.5183482784
5881.1217697277
5887.5504280617
5892.4673058748
5895.1448075256
5895.6350324031
5893.6166448462
5889.5678008346
5884.0011348608
5877.2057254952
5869.9830508038
5863.4861520461
5858.3348720418
5854.9948470499
5853.6789252485
5855.6683590081
5861.5017625578
5871.0985836885
5884.6878575774
5900.856195306
5919.0407994452
5937.1632166195
5956.465272812
5973.4628381538
5990.5388540148
6003.6530788925
6016.289356915
6023.151887697
6031.1806387657
6084.9443124802
6014.5390024665
7005.7699685951
6993.2613491717
8440.0271660546
11604.416995038
15083.688770412
18362.607108457
21271.260588007
23713.971451306
25665.178298963
27030.002120986
27780.912378111
27868.794369083
27446.754284661
26629.243435942
25419.164051611
23939.641537326
22291.126588222
20564.336990466
18834.861327953
17164.119834918
15589.363401192
14132.786665402
12802.950972928
11600.959320333
10521.212695273
9554.9605658337
8692.9618947103
7924.5657513119
7239.6008067043
6628.5495844023
6083.0731385104
5595.2764782722
5157.6436645652
4764.5984208912
4411.2692717926
4092.8963613941
3805.4036065058
3544.3293835312
3307.4124809022
3092.1967937827
2896.076789523
2716.927519568
2552.6659624251
2402.2200789857
2264.0092229975
2136.8405523023
2019.4402105814
1910.9506933582
1810.6379194414
1717.6539935663
1631.3517463017
1551.0367450085
1476.2649389042
1406.5823465115
1341.5327336702
1280.7118007314
1223.7465674645
1170.3638352967
1120.2803767192
1073.2295756969
1028.9681764206
987.26933101298
947.95361344913
910.86094324339
875.83065782488
842.71134836061
811.32804624943
815.98465786454
3693.2576395386
5736.0476522706
5884.1428552253
5921.0412893417
5952.6663647792
5981.4247850757
6005.2738902632
6022.4227850017
6031.6030875136
6031.8843436825
6022.3635536666
6001.2293754146
5966.33567051
5918.3338542285
5865.0094812221
5814.0534788143
5775.9664313932
5734.4047377725
5698.7219292213
5669.8823294234
5648.699445687
5635.4666534692
5629.851346358
5631.114907437
5638.3349909467
5650.2063974661
5665.4909412516
5683.0083472635
5701.7048428969
5720.6993593298
5739.2909546148
5757.0353376495
5773.7763364194
5789.1728968409
5803.0375130685
5815.2146447374
5829.2637707933
5838.9164845087
5847.3423037169
5854.82676898
5861.6262245192
5868.0331596065
5874.614369915
5880.785473884
5885.3442804097
5887.6930132275
5888.0084368947
5885.9664741866
5882.0257212347
5876.534643836
5869.7822951182
5862.7448772338
5856.7916496571
5852.4705967357
5850.0259934411
5849.631240594
5852.7253232243
5859.3946724334
5869.4178743881
5882.9249340383
5898.6848758965
5916.4715783552
5934.3040175821
5953.4816971719
5970.4767908725
5988.6574943174
6002.8961341579
6017.1845282309
6025.3404488627
6034.7410889571
6087.5992611338
6029.6951907335
6363.748053068
6363.3270557666
6592.067218341
8175.5308614415
10488.459722659
12890.650240175
15179.092559219
17241.597842017
18991.412585491
20370.826080437
21390.300207492
21884.121326135
21967.418328119
21673.279073433
21077.072539574
20184.39290365
19096.133323694
17880.784445552
16607.700010896
15327.209760318
14080.859812236
12896.802264518
11790.492789338
10769.787579034
9836.8548728207
8989.6849331129
8223.8668880516
7533.7061639525
6912.3669795509
6353.2141133845
5850.0679503677
5397.1250828708
4989.0788832797
4620.8675039247
4287.7614305559
3985.7950443818
3712.1043860623
3463.4398929912
3237.077798512
3030.7113616144
2841.6495145758
2668.5967521378
2510.0468799014
2364.37870694
2230.4061317535
2106.6276173963
1992.3406245923
1886.6802288877
1788.7757187982
1697.9378656224
1613.4047057817
1534.7461228375
1461.4773125658
1393.1139888589
1329.2274898319
1269.4013783421
1213.3834591773
1160.8524827907
1111.5274268356
1065.1608974413
1021.5013783052
980.37169417792
941.58360465145
904.95226612674
870.32624423069
837.56830739725
806.50086362751
841.20299250165
4100.5242172991
5785.5343589999
5898.6051202607
5927.857280871
5952.9903078799
5975.3664432882
5992.9914281778
6004.3352798201
6008.352226558
6004.5368986368
5991.8028845424
5969.093322879
5934.7664247424
5888.8722886756
5836.4324408821
5785.7489325213
5748.6298709961
5708.4302453672
5674.6266835503
5647.8983536248
5628.8425473963
5617.6868939339
5614.1299856704
5617.3158337066
5626.3754459993
5640.1239201873
5657.2100268936
5676.411816672
5696.6608449082
5717.0363793152
5736.8482568423
5755.5913913113
5772.9486751765
5788.6087301263
5802.4237638618
5814.3060414686
5828.1796287602
5837.1224259053
5844.7656177394
5851.2082792209
5856.8829615894
5862.5178113286
5868.7467661662
5874.3366393091
5878.3081698856
5880.2383564691
5880.4263493059
5878.5447625586
5874.9296632417
5869.7488599765
5863.3067300235
5856.8209204099
5851.7094732965
5848.4305232278
5846.8046479351
5847.1999574963
5851.0150971072
5858.0479412779
5868.2561944595
5881.8402433736
5897.3432064357
5914.5164751832
5931.1888038089
5948.7230258907
5965.1852177829
5983.1315620382
5997.6303027176
6012.1178840311
6021.9472438777
6033.3780132962
6081.8741591248
6060.1985851922
5844.5651846088
5820.7192724862
5781.5989126082
6369.541123313
7804.2845349234
9540.6044694141
11298.310337083
12968.522684708
14451.08006321
15710.961596254
16710.823618283
17398.367929836
17669.479211077
17749.820941929
17472.025670084
17015.781318957
16337.719588351
15504.349237036
14585.994465154
13622.122801231
12651.561966975
11703.109428577
10795.535713236
9941.0031410494
9146.0343964872
8412.6900598236
7740.1664947595
7126.6222178975
6568.6653254728
6062.0518757801
5602.4930315937
5185.7358218736
4807.6791140757
4464.5368338865
4152.7208729772
3869.1338578599
3610.8280636752
3374.9929557713
3159.2410885956
2961.9436436577
2781.1802297029
2615.349819452
2462.9154539971
2322.2620470116
2192.5224209275
2072.8142952773
1962.0885494506
1859.5489736565
1764.2429201018
1675.6053543152
1593.2152236042
1516.4380017176
1444.8436520571
1377.9303306582
1315.2807289095
1256.6633726128
1201.7016149763
1150.1259261911
1101.6507289588
1056.0198438003
1013.0657845648
972.57727928773
934.36122349226
898.26263481321
864.11421594739
831.80096256204
801.15693149622
898.23650885452
4521.2293402925
5826.6865157104
5910.5221348334
5932.6024234466
5951.3579895011
5967.3130250607