/*--------------------------------*- C++ -*----------------------------------*\
| =========                 |                                                 |
| \\      /  F ield         | OpenFOAM: The Open Source CFD Toolbox           |
|  \\    /   O peration     | Version:  2312                                  |
|   \\  /    A nd           | Website:  www.openfoam.com                      |
|    \\/     M anipulation  |                                                 |
\*---------------------------------------------------------------------------*/
FoamFile
{
    version     2.0;
    format      ascii;
    arch        "LSB;label=32;scalar=64";
    class       volScalarField;
    location    "0.0001";
    object      rho;
}
// * * * * * * * * * * * * * * * * * * * * * * * * * * * * * * * * * * * * * //

dimensions      [1 -3 0 0 0 0 0];

internalField   nonuniform List<scalar> 
109340
(
662.48254184788
662.47750982514
662.46791936896
662.45631571951
662.4435023487
662.43015110547
662.41652170427
662.40274279554
662.38895716602
662.37482843204
662.35971365973
662.34299910896
662.32395075808
662.30167764181
662.27511756746
662.24301399815
662.20386925691
662.15588781607
662.09689166127
662.02420879537
661.93451122342
661.8236223608
661.68624573659
661.51559796638
661.30288464148
661.0365676483
660.70128017116
660.27618154924
659.73235027104
659.02845869046
658.10321091816
656.86126827408
655.14530033135
652.67726767157
648.92847824436
642.81569868124
662.48330409392
662.47683896007
662.46607632985
662.45369036207
662.44050740847
662.42711085442
662.41366869667
662.40016649712
662.38639975611
662.37203383217
662.35655637414
662.33933318155
662.31958851949
662.29638721039
662.26861842865
662.23496347401
662.19386067593
662.14342926256
662.08138016645
662.0048944208
661.91045579796
661.79363933925
661.64881988536
661.46877323377
661.2441074386
660.96245726865
660.60728819739
660.15606105091
659.57729175349
658.82561082157
657.83297241897
656.49190997148
654.62101226843
651.88905598783
647.62769574366
640.3902822067
662.48612513971
662.4786390793
662.46678956611
662.45410901217
662.44103592277
662.42782812822
662.4144548615
662.40091165644
662.38709715324
662.37269170643
662.35719742968
662.33997677725
662.32024952486
662.2970782257
662.26935224778
662.23575798279
662.19473303303
662.1443989612
662.08246762034
662.00612212919
661.91184548582
661.79521269524
661.65059853131
661.47077667125
661.24635271929
660.96495636418
660.6100463903
660.15907670264
659.58055887111
658.82911345045
657.83665361461
656.49544525923
654.6220865486
651.87448625117
647.53052613869
639.84413948918
662.49005284357
662.48102578388
662.46857696708
662.45553815975
662.44221153289
662.42872717965
662.41512873368
662.40143016586
662.38751200597
662.37304974051
662.3575464626
662.34035926167
662.32070035281
662.2976261391
662.27001881185
662.23655726403
662.19567298596
662.14548036311
662.08367901133
662.00744068847
661.9132205091
661.7965619727
661.65179329806
661.47161895249
661.24655122206
660.96408198768
660.60747557542
660.15390796501
659.57148996246
658.8142436462
657.81313346051
656.45876995386
654.56296287241
651.76557779358
647.25709821527
638.73325470173
662.49624894772
662.4845072963
662.47023625646
662.45630553828
662.44261578379
662.42899888209
662.41535807368
662.40167544822
662.38780178956
662.37340061489
662.35798142895
662.34089784326
662.32134884746
662.29837037834
662.27081415805
662.23731517066
662.19624516572
662.14563726103
662.08303453131
662.00547714998
661.909162701
661.78931289291
661.63980831463
661.45272057776
661.21769872027
660.92101738192
660.54423913988
660.06213696289
659.43938361472
658.62497457162
657.54217530135
656.0699090211
653.99762007683
650.91454342499
645.83674400823
635.30731594317
662.50780627103
662.48631631983
662.47055554126
662.45629925791
662.44256061416
662.42894273835
662.41530882513
662.40157921406
662.38752107347
662.37266149139
662.35632119745
662.33760369635
662.31538967824
662.28831538894
662.25473556285
662.21266793738
662.15971479785
662.09298641875
662.00903023522
661.90291131068
661.76868471192
661.59867544828
661.38292204954
661.10841078206
660.75800862625
660.30893074426
659.73051383703
658.98082628909
658.00127927091
656.70755563779
654.97293665293
652.60036996948
649.24476296954
644.23321387419
635.90900050446
617.30858476785
632.30068994436
614.67894667181
587.637467342
550.92279214532
506.18236579829
455.1872448286
400.11692202087
343.38605532464
287.61136602124
235.35718087179
187.96682089476
148.23258874764
115.69261937063
89.746873967926
69.739554632086
54.419544059758
42.77906678667
33.940507938469
27.195851157503
22.033289583226
18.057814851419
14.951646184833
12.502711626013
10.556160849171
8.9929644649424
7.7337118208607
6.6918104242638
5.8205603340516
5.1236525354119
4.5045138763354
4.0142343198506
3.5714057996634
3.2080823058382
2.8851005027923
2.6105954415021
2.3680980975432
2.1582242642616
1.9710852937119
1.8091256986474
1.6610690679306
1.5345916725793
1.4154075208703
1.3151108000667
1.2183798292901
1.1372904445575
1.0585869954868
0.99153348749015
0.92776360449311
0.87096624493291
0.81890767691293
0.7704804319563
0.72644239624043
0.6858283125997
0.64845500275902
0.61390215211598
0.58192728918938
0.55225729018853
0.52469692630426
0.49905544061025
0.47516895683674
0.4528793741615
0.43205240606884
0.41256957235263
0.39432395986145
0.37721311761269
0.3611398572015
0.34602043911178
0.33186210127448
0.5684712291601
2.0434385915117
2.2220275858863
2.2114279289149
2.1956988034185
2.1806007933827
2.1638252629825
2.1418947306176
2.1115483600239
2.0705689141708
2.019527372871
1.9645798556359
1.9172429932749
1.8838092989642
1.8601496809135
1.8414925566887
1.8228325197608
1.8083181894823
1.7954442259755
1.7847091591418
1.776268875061
1.771343492325
1.7683517507959
1.7679017403739
1.7691366267963
1.7719345715469
1.7759258810983
1.7807460688736
1.7860443417658
1.7915313558999
1.7968908094308
1.8019901762566
1.8067167936445
1.8110093274569
1.814799979562
1.8181014897464
1.822097221603
1.8244682297185
1.826509171073
1.8282281120054
1.8295452970136
1.8306330371097
1.831797907353
1.8334544233186
1.8354028819208
1.8370064860644
1.8377156816282
1.8377378596867
1.8373750255052
1.8365489024263
1.8351507324791
1.8332494776369
1.8310978901354
1.8290776927424
1.8274943429344
1.8265089159056
1.8262376082451
1.8269168888599
1.828919455983
1.8326462097991
1.8375389578737
1.84327118422
1.8489504085921
1.8539733138001
1.858248650788
1.862283642269
1.8656016564887
1.8687537096444
1.8713408427793
1.8712555931285
1.8754269875425
1.6637309595735
627.18766517919
604.63138010364
571.17315795843
528.38524518827
478.67963938308
424.11771475698
367.64918403152
311.82149901259
259.01433240885
210.98412882269
168.86985334689
133.09930566616
104.57048658126
81.800795236553
63.97287858943
50.259931793859
39.743733279221
31.700488660595
25.537748971826
20.787376843606
17.098134153774
14.209629813873
11.924945148403
10.098688949693
8.62612438524
7.4278210949232
6.4433447860346
5.6270935471417
4.9462501743738
4.3732780434445
3.8869804570561
3.4734965814537
3.1172855458785
2.8108641584203
2.5436842362257
2.3114627129199
2.1069750857616
1.9276901068303
1.7684496240332
1.6276744551926
1.5017354704912
1.3895884503331
1.2885734036992
1.1979316155325
1.1159111812496
1.0417000261406
0.97430923531942
0.91288625608914
0.85696480193284
0.80572434260798
0.75880904163327
0.71561409654126
0.67587928498145
0.63921794227218
0.60534241499344
0.5739695951802
0.54486296737092
0.51781364373039
0.49263575751475
0.46916620057486
0.44725999804212
0.4267871064415
0.40762888227688
0.38967806550369
0.37283831206161
0.35702319863005
0.34216328657038
0.3302035991042
0.97912845670953
2.1490679399179
2.2205016097964
2.2056904162386
2.1903718930593
2.1751890862465
2.1573680945754
2.1334923375887
2.1005011204045
2.0567462904536
2.0040198516667
1.9497834173394
1.905807160363
1.8752857764311
1.8533091036182
1.8355434914606
1.8214465714933
1.8070730856371
1.7944431927017
1.7839371895247
1.7757259397549
1.7709010649209
1.7681318381347
1.7677043669808
1.7690737963912
1.7719819376547
1.7760528780504
1.7809339927898
1.7862833142796
1.7918068742173
1.7971952449238
1.802313129306
1.807047466588
1.8113278609403
1.8151039793658
1.8183809834585
1.8223365144231
1.8246945490088
1.8267469732982
1.8284999349719
1.8298754744021
1.8310224876489
1.8322248853659
1.8338920604974
1.8358101798801
1.8373380684915
1.8379711838962
1.837919533596
1.8374710593412
1.8365365153856
1.8350289217313
1.8330429102662
1.8308408756651
1.8288408079716
1.8272852249491
1.8263137335586
1.8260204527032
1.8267988351423
1.8289233355063
1.8326859763838
1.8375948938112
1.8433238034241
1.8489869796327
1.8540462941399
1.8583608852409
1.8623970488871
1.8657127947646
1.8687942045316
1.8708561671784
1.8706753572375
1.8718079157645
1.658323177181
624.39539500387
595.95555129579
555.18426324194
504.06931276637
448.85823985036
391.85501150244
335.61650914812
282.58652022385
234.242152452
190.88540160541
154.39849410829
123.36192342064
97.847534703539
77.335371105078
61.07012656385
48.342196028329
38.478466104095
30.869551602545
24.984227190158
20.405407418418
16.830336039232
14.02008355995
11.787189219677
9.9971273609602
8.5509685135997
7.370705784389
6.3989013315996
5.593468170539
4.9195255189911
4.352163381585
3.8702506812343
3.4593009449513
3.1063299407981
2.8011588657568
2.536252833026
2.3046939423673
2.1018409323671
1.9229351637715
1.7647979498658
1.6242830686888
1.4991039621311
1.3871347713746
1.2865634078799
1.196135587685
1.1143209411772
1.0403711841508
0.97303753996265
0.91189162518962
0.85596457698746
0.80488902766855
0.75801032192006
0.71495859586273
0.67529003173931
0.63867027191409
0.60483589986284
0.57350277490087
0.54444066468224
0.51742948086786
0.49228494803836
0.468844124619
0.44696523053319
0.4265169184935
0.40737974497789
0.38944671922923
0.37262267649578
0.35682531813166
0.34198312530402
0.33015139088446
0.99164239310053
2.1518469801367
2.2213625132193
2.2062595977824
2.1906304823476
2.1751432579002
2.1571165750357
2.133172309545
2.1002358044006
2.0566038439143
2.0039871932957
1.9497027375749
1.9054448889702
1.8746518962466
1.8525280617135
1.8347189726364
1.8207449102531
1.8064445456332
1.7938954020066
1.7834625929871
1.775419369056
1.7704808564482
1.7677927250048
1.7672239171871
1.7685883436998
1.7714901925094
1.7755643092257
1.7804419528131
1.7857769001603
1.7912682757141
1.7966470049556
1.8017571558998
1.8064998141809
1.8107748237377
1.814560174209
1.8178668511476
1.8218142218098
1.8242033187592
1.8263273950201
1.8281525945919
1.8296336371153
1.8309253406829
1.8322931797208
1.8340285397609
1.8359011504778
1.8373520606759
1.8380082181994
1.8380142413342
1.837567449603
1.8365687738708
1.8350517804283
1.8331363077521
1.8310340829687
1.8291205170128
1.8276203363122
1.8267030919446
1.8264232081723
1.8273959725807
1.8296827862058
1.8334710127583
1.8384278603105
1.8441685363704
1.8498241696327
1.8549913158691
1.8593981545846
1.8634788866678
1.8668160983512
1.8699230205397
1.8718184066256
1.8720580535106
1.8706156042994
1.6559397267877
618.15651272655
576.29636947056
520.56686130597
457.8087277507
396.18867634653
339.23831594811
287.38903623572
241.48529158742
201.13767852758
165.74081627792
136.39390163084
110.92643068751
89.403471776439
71.690062247353
57.295118658035
45.852560353486
36.834701176736
29.757044400487
24.222192837234
19.88979948863
16.473796583668
13.758427392165
11.597507167472
9.859324471087
8.4463979108169
7.2904680656428
6.3378885878961
5.5456166039255
4.8817461903807
4.3217301997482
3.8463070438876
3.4394036050916
3.0901012708899
2.7876602389755
2.525036866152
2.2953432719388
2.0940104658963
1.9162740414867
1.759227030059
1.6195118448691
1.4950980203872
1.3835909341593
1.2836357649772
1.1934816240614
1.1121082678467
1.0383312197985
0.97132452872574
0.91032181103708
0.85459001877145
0.80365644298811
0.75689744199376
0.71397472819369
0.67440270210542
0.63788774944664
0.60411704590768
0.57284702304322
0.54384013212813
0.51688073718847
0.49178580340102
0.468390732962
0.4465511988563
0.42613603787744
0.40702848989054
0.38912310915277
0.37232527774067
0.35655159529453
0.34172491494033
0.33010312581361
1.0103933996698
2.1553270149159
2.2225003494174
2.2070162879733
2.1909765107075
2.1750831525345
2.15676268853
2.1327148941249
2.0998556650901
2.0564135500038
2.0039645083986
1.9496121645734
1.9049417507845
1.8737434705494
1.8513952366619
1.8335310458843
1.8197233926197
1.8054803538809
1.7930328355539
1.7826900165388
1.7747741635174
1.7697784745018
1.7671586424935
1.7666511249661
1.7680575651497
1.7709747034045
1.7750521834437
1.7799252169229
1.7852486852169
1.7907262552846
1.7960993425876
1.8012099800373
1.8059526496732
1.8102159336725
1.8139747086851
1.8172700303748
1.8211871936096
1.8236221884201
1.8258154527706
1.8277499674744
1.8293798743659
1.8308292909578
1.8323335686803
1.8341402172758
1.8359981403745
1.8373884155558
1.8380225912657
1.8380378945276
1.8375267297819
1.8364275082897
1.834847043604
1.8329123545295
1.8308454390801
1.8289915289368
1.8275390417907
1.8266770423807
1.826448626826
1.8275477713483
1.8299272049177
1.8337723807263
1.8387718783992
1.8445758152942
1.8503174153937
1.8556145332322
1.8601380931212
1.8642821559627
1.8676330783593
1.8707308811087
1.8727340646664
1.8733255199908
1.8730118334298
1.6545366994022
597.27991766369
520.42866700888
438.6611274777
369.09898844247
312.72137025477
266.32985118092
227.6352438749
194.64080052026
165.59773795581
140.11997388256
117.36627700077
97.298727191621
79.937370384537
65.213679138566
52.964840066644
42.934491097968
34.858141689329
28.421657654031
23.307206116791
19.245128393915
16.016036790288
13.439908941885
11.361223671978
9.6815239737551
8.3138457146449
7.19081791942
6.2597892911529
5.4843448288319
4.8335854222219
4.2832429692354
3.8150955504741
3.4143133902298
3.0691486410037
2.770435583586
2.5105562012939
2.2834161948123
2.0837674250698
1.9077957548536
1.7519251981735
1.6133771350855
1.4897587516859
1.3790815664823
1.2796834609038
1.1900592982559
1.1091196041098
1.0356951563384
0.96903194460246
0.90824767059066
0.85279013361498
0.80201752476229
0.75545312290119
0.71265406589454
0.67321993077576
0.63683517481257
0.60316780375195
0.57198446867278
0.54304730325821
0.51615723897515
0.49112757687314
0.46779145280055
0.44600262667357
0.42563243195247
0.40656657096383
0.38869951629894
0.37193722307831
0.35619543070887
0.34138864549151
0.33007744257774
1.0350633530162
2.1596960859915
2.2238462640989
2.2079118461028
2.1913855591084
2.1750039061659
2.1563221679513
2.1321321303544
2.0993635446467
2.0561621838182
2.0039419491736
1.9495219052374
1.9043226643984
1.8725866453439
1.8499329092622
1.831982610375
1.8183543622326
1.8042025224505
1.791890180455
1.7816801146703
1.7739036927125
1.7689062979285
1.7663447007792
1.7658928989278
1.7673345225909
1.7702652305095
1.7743402711999
1.7791927806478
1.7844835656823
1.789926306655
1.7952811733571
1.8003946771121
1.8051544711345
1.8094288268202
1.8131903548359
1.8164988500472
1.8204249320277
1.8229292160796
1.8252044202103
1.8272539634792
1.8290296096494
1.8306155159578
1.8322442653626
1.8341333576583
1.835989825034
1.837341544468
1.8379461309493
1.8379556800678
1.8373886229869
1.8362314230614
1.8346124230705
1.8326835469864
1.830680166413
1.8288966572802
1.8275039836974
1.8267048475981
1.8265374184355
1.8277206850317
1.8301782263682
1.8341013130489
1.8391735940126
1.8450583907396
1.8508713836277
1.856306932281
1.8609870159522
1.8652691579185
1.8687097106342
1.8718698425727
1.8738073660176
1.8743428373192
1.8737727696248
1.6531209463124
448.9980677496
325.08369282215
272.82474210099
240.92648684207
214.66294345536
191.48227186229
170.30401163735
151.00800639355
132.55040847337
115.05716722863
98.725367271414
83.777722757435
70.312688882265
58.45724922829
48.287338297581
39.736443426425
32.669841244571
26.90858560579
22.253363693701
18.504717580126
15.487026417518
13.051963070064
11.082770131305
9.4733107456462
8.1553553745481
7.0687477535575
6.1670272766029
5.4109555697362
4.774966382514
4.2365499759779
3.777528840991
3.383501267975
3.0438412938594
2.7496349747075
2.493131092663
2.2687714939182
2.0715125590478
1.8974470274129
1.7430556125457
1.6058527440393
1.4832919075983
1.3735311445058
1.2748121541226
1.1858728646622
1.1054237417777
1.0324756687621
0.96615635510551
0.90572113459361
0.8505485302827
0.80000714498924
0.75365643425304
0.7110235095092
0.67176239458476
0.6355139374756
0.60198077400386
0.57090750292519
0.54206754331219
0.51526513325145
0.49031044842876
0.46704274235261
0.44531785295195
0.42500753931514
0.40599476442134
0.38817455432445
0.37145591826309
0.35575223810806
0.34097265084832
0.3300303976383
1.065671178078
2.1650210940642
2.2253370788722
2.2088993736168
2.1918296456485
2.1748993815425
2.1557958610777
2.1314276569944
2.0987553289307
2.0558483241625
2.0039247756608
1.9494498175939
1.9036217757254
1.8712131302202
1.8481651882966
1.8300900238106
1.8166116135055
1.8025856701746
1.7904348821072
1.7803892348147
1.7727764371644
1.7678361648726
1.7653498453872
1.7649859656152
1.7664910554896
1.769457688493
1.7735479320642
1.7783940114015
1.7836612116851
1.7890705063879
1.7943968066865
1.7994973220164
1.8042658711645
1.808552392029
1.8123201241809
1.815649914522
1.8195827576116
1.8221969534524
1.8245639097185
1.8267173318813
1.8286254945016
1.8303350563469
1.8320774594905
1.8340477263806
1.8359005734101
1.8372138912499
1.8377839794709
1.8377779051733
1.8371261639024
1.8358943907114
1.8342271127772
1.832283623108
1.8303297454942
1.8286170900741
1.8273108917389
1.8266143669495
1.8265733852443
1.8278983336329
1.8304929783712
1.8345180075116
1.8396591255453
1.8455904034138
1.851450347539
1.8570021834122
1.8618336550138
1.8662923563816
1.869831397675
1.8730847918412
1.8750363395107
1.8756837731773
1.8748784651906
1.6516475326266
15.278982546488
103.7932872481
127.54289348643
136.48820025987
138.10673541852
134.02521062369
126.27820486955
116.77700504448
106.3580295977
95.483843970305
84.510727371261
73.754686026296
63.512793885378
54.03508339317
45.527018006034
38.102916041996
31.764093828623
26.45610650859
22.069823554304
18.474546461183
15.539708558952
13.146519619876
11.190308196429
9.5901975971595
8.2688353487532
7.1724157832993
6.260948440226
5.4975629226914
4.853095250759
4.3054204615972
3.8389600543244
3.4390273020632
3.093451501643
2.7936932716038
2.5327492005296
2.3044390193615
2.1035103064169
1.9262691161226
1.7692156978292
1.6295316572305
1.5047343835978
1.3930357917249
1.2926311374677
1.2021358337336
1.1202640300124
1.046092890698
0.97866610177965
0.91723847194574
0.86113033917718
0.80977591616108
0.76268677721072
0.71938632246685
0.67950526886584
0.64268850971067
0.60866152898036
0.57714288563194
0.54788933694904
0.52069659847523
0.49538597699474
0.47179785993295
0.44977943122694
0.42919619040111
0.40992943632313
0.3918735897222
0.37493059988038
0.35901736877321
0.34405997616887
0.33018668570636
0.66468421756043
2.0828474563874
2.2277927754595
2.2144009169157
2.1966204363718
2.1792048285192
2.1604315039977
2.1373822459036
2.1070645661914
2.0670749774594
2.0174378505082
1.9627435978184
1.913259593682
1.8768556404565
1.8513690303959
1.8321082479428
1.8145139487265
1.8006463309502
1.7886851391111
1.7788382770822
1.7714141504554
1.7665829624489
1.7641855949192
1.7639264076129
1.7655149703415
1.7685382497078
1.772659061276
1.7775123359715
1.7827658672698
1.7881493252991
1.7934509309035
1.7985356836117
1.8033112128379
1.80762562351
1.8114270087894
1.8147554848502
1.8183010190477
1.8210203142591
1.8234920628571
1.8257717415529
1.8278329486398
1.8296989384703
1.831569851895
1.8336259948978
1.8354436652137
1.8366662228895
1.8371806191252
1.8371238732944
1.8363475433632
1.8350257200262
1.8333121801267
1.8313749574159
1.8295053895102
1.8278975718561
1.8267294737318
1.8261918996714
1.8263979960471
1.8279345359025
1.8307636327921
1.835004237455
1.8402792858175
1.846262779214
1.8521693524569
1.8579177799765
1.8629657630632
1.8677164665377
1.8714632198129
1.8749396343176
1.8768925497319
1.8776267895938
1.8765335876641
1.6485365380953
6.8252536371889
18.240015454722
32.538684470832
44.46710982419
53.496928551453
59.542638052909
62.671460129375
63.490345016523
61.763765774596
58.770138044632
54.778655092195
50.052151010255
44.951714837131
39.735924168136
34.655710999161
29.917797708922
25.641363742395
21.879565350023
18.640978612763
15.893055214241
13.581747252772
11.647728598654
10.032287669528
8.6817205265761
7.5512551315055
6.6032309449771
5.8030902723325
5.1232834979437
4.5457895051517
4.0522936652612
3.6285080906876
3.2615660752902
2.9435728525169
2.6665553561011
2.424129628889
2.2106632140991
2.0224739112723
1.855852370416
1.7077490966249
1.5754789571343
1.457110670361
1.3508618007899
1.2551828089443
1.1686814297841
1.0903317757086
1.0192016314237
0.95446119942067
0.89536368035648
0.84129683309789
0.79176028025674
0.74625935200048
0.70438494338492
0.66575145351783
0.63006520445629
0.59704365290734
0.56643597712156
0.53801368281279
0.51156848727524
0.48693321315148
0.46395148704179
0.44248600800084
0.42240885664304
0.40360651630152
0.38597791605274
0.36942712267632
0.35387069426497
0.33923198986112
0.33012481235428
1.1943149251651
2.1853163195527
2.2300383244179
2.211823760561
2.19294443283
2.1741926207731
2.1536218827507
2.1285672414387
2.0962276786151
2.0545139116554
2.0039548458603
1.9495383398307
1.9014624867979
1.8662223363005
1.8413664867075
1.8225790492473
1.8093646958211
1.7958316880687
1.7843121507472
1.7749503284737
1.7679859467191
1.7635146033936
1.7613947746387
1.761431922987
1.7632739687859
1.7665036973681
1.7707722272301
1.7757240167363
1.7810329971788
1.7864406820507
1.7917390453903
1.7967977069236
1.8015496027721
1.8058849659471
1.8097688336749
1.8131632373748
1.8169466034797
1.8197478549746
1.8222943085439
1.8246843366445
1.8268873911644
1.8288939720039
1.8308527250737
1.8329490864144
1.8346894840593
1.8357967414483
1.8362461182729
1.8360430622863
1.8351113732558
1.8337241466059
1.8319840846613
1.8300907512111
1.8283535609701
1.8269447853493
1.8260381753751
1.8257559413786
1.8263670762685
1.8282215075962
1.8313223883193
1.835764376725
1.8411071452748
1.8470889044586
1.8529994985541
1.8590401907314
1.8643725388939
1.8695197969864
1.8735507061934
1.877376189716
1.8794065972387
1.8803596441818
1.8791496402848
1.6419324395463
5.4382931315739
8.0313452043419
12.98316773268
18.983104192304
24.617247843331
29.426332620982
33.160975978329
35.725037190622
37.180110732072
37.392839574257
36.525214103544
34.887658253397
32.638060430917
29.969623520569
27.063312971364
24.10211806451
21.240294219032
18.576610886785
16.168217242719
14.038994872803
12.186385849768
10.591429518363
9.226971061837
8.0633295288755
7.0716654212312
6.2267690968314
5.5053031395382
4.8876756036794
4.3573982819525
3.8995360431879
3.5031187488324
3.1589806868377
2.8588527479854
2.5963298916946
2.3650448626563
2.1609886363467
1.9804481626557
1.8201350752622
1.6770762319329
1.5490709914969
1.4343481094453
1.3311360965075
1.2379673608939
1.1535769093968
1.0770931564824
1.0075441466575
0.94415613030476
0.88619888964526
0.83313692333026
0.78446757090835
0.73972640140901
0.69850034059316
0.66043723300649
0.62526065847734
0.59268841955477
0.56247819495119
0.53440446738727
0.50827730249255
0.48393356185122
0.46121334156527
0.43997761388857
0.42010437330835
0.40148448770126
0.38402089845289
0.36762280678758
0.35220688882561
0.33769237180089
0.33127717318352
1.3142795378484
2.200060001415
2.232958068627
2.2133957610024
2.1931691773758
2.1731215278919
2.1515119382022
2.1259654148511
2.0939182284831
2.0532754826681
2.0040478699963
1.9500342979221
1.9004813977431
1.8627278103842
1.8360445214345
1.8163758990856
1.8031290101543
1.789880568454
1.7788412023265
1.7700538979997
1.76366139315
1.7597122655053
1.7580524074417
1.7585272620742
1.7607635388118
1.7643558248561
1.768937863353
1.774153017307
1.7796777371047
1.7852424438818
1.7906407509699
1.7957456691287
1.8005119364636
1.8048516657789
1.8087435824469
1.8121489552967
1.8161503072469
1.8188523217237
1.8212810250548
1.8235420285124
1.825680079816
1.8277029200192
1.8297294110426
1.8317891400876
1.8334450959709
1.834466407584
1.834871497542
1.8345531666827
1.8336542860349
1.8323251926973
1.8306434203115
1.8288445098783
1.8272749739748
1.8261182500022
1.8255107661335
1.8255120359356
1.8265214376139
1.8287043289517
1.8320301331488
1.8365708274485
1.8418888794687
1.847813221682
1.8537031506375
1.8599512538734
1.8654677515959
1.8710040056547
1.875297360766
1.8794619358792
1.8817410944068
1.8830922048244
1.8819414545468
1.6310308037072
4.3473343267269
5.694717426957
7.2099857659796
10.191602977477
13.516621547025
16.69203411163
19.522940790153
21.838358394278
23.580525220394
24.662616076805
25.023627437932
24.694219899937
23.846951249608
22.603541629778
21.020618791914
19.249973864141
17.406459966898
15.582534294637
13.847370533411
12.247518794228
10.803786854011
9.5216463559606
8.3953408303641
7.4134841855186
6.5610344796501
5.8222732596066
5.1826760337166
4.6283586486935
4.1471206198278
3.7283517614061
3.3631118433062
3.0435606445789
2.7627851244263
2.5154893077763
2.2971940079286
2.103856268128
1.9320915884968
1.7785782961871
1.6413056740838
1.5183169423601
1.4077179422329
1.3079613262889
1.2176145493715
1.1358013743228
1.061462803071
0.99377581814101
0.93192298444832
0.87531692445974
0.82345498477836
0.77580865198421
0.73196163179594
0.69149546398447
0.65411904860854
0.61954953589303
0.58751475648815
0.55777481570735
0.53011245193339
0.50436074428708
0.4803545335369
0.45794156479084
0.43698418672168
0.41735615314512
0.39895482004539
0.381688825067
0.36546943637013
0.35021420895095
0.33583303771145
0.33578890768053
1.4576600046882
2.216451926282
2.2360902065362
2.2146052217883
2.1928148673864
2.1713799154366
2.1487076081877
2.1226938576924
2.0910268465206
2.0516964796746
2.0041249862805
1.9510467746492
1.9002468891896
1.8597472009781
1.8306653821302
1.8096615680133
1.7960892629836
1.7829836966603
1.7723968544385
1.7642293321052
1.7585067623375
1.755220833867
1.7542293780935
1.7552849979421
1.7580923385778
1.7622390142583
1.7673350585165
1.7730100134785
1.7789383882228
1.784841382119
1.7905032980836
1.7957943350214
1.8006767632952
1.8050589051778
1.8089010457856
1.8121798012915
1.8162301937153
1.8186959823695
1.8208302887773
1.8227502259513
1.8245566430427
1.826356636308
1.8283326122119
1.8303002675415
1.8318629614632
1.8328204104032
1.8332318754082
1.8329878608636
1.8322164955102
1.8310026033798
1.8294175703809
1.8277505201292
1.8264015801134
1.8255355968751
1.8252130652096
1.8254918822095
1.8268213643773
1.8292316369276
1.8326616201809
1.8371578966277
1.842333743612
1.8481186927082
1.8539011452207
1.8600887338061
1.8655797745451
1.8714303669497
1.8760403204952
1.8806597473061
1.8833721685575
1.8853026642884
1.8847378872311
1.61882124694
3.5390553277851
4.6536373013059
5.0496236102534
6.4285261334305
8.407238040644
10.487562142559
12.4881274873
14.286468941267
15.778468792711
16.900138871737
17.652979062355
17.87904337526
17.7113124905
17.203486159308
16.419851343661
15.392466001285
14.230581288752
13.00603393281
11.782483463802
10.603242835454
9.4997966265581
8.4892312484185
7.5771188700095
6.7628413923051
6.0413764088815
5.405224625065
4.8459244306352
4.354920096773
3.9237219040792
3.5446805361569
3.2110647568505
2.916931848173
2.6571060463554
2.4269679098477
2.2224376503133
2.0401372599207
1.8774870229093
1.7319130233285
1.6012754206419
1.4837787596519
1.3775593018339
1.2815268881933
1.1945624184469
1.1155594889427
1.0436725193916
0.97795559873521
0.91787398955778
0.86284897722538
0.81232680719094
0.76585948663618
0.72298739709127
0.68341670953991
0.64684239081164
0.61297257445004
0.58155051009733
0.55233448201249
0.52516197423036
0.49984713830392
0.47622778016497
0.45416124696794
0.43350785884342
0.41416343522544
0.39602241065767
0.37898396827665
0.36296399665713
0.34788674910039
0.33366378290051
0.34539207663455
1.6141480982696
2.2321577266586
2.2388405325596
2.2151269210682
2.1916865831732
2.1688217692506
2.1450814632577
2.1186397658131
2.0874259495709
2.0495820353445
2.0040493333903
1.9525365383206
1.9011036693364
1.8579099666401
1.825888728258
1.8029962634891
1.7886774346537
1.7754450498463
1.7652102240281
1.7576473864439
1.7526514189885
1.7501413445927
1.749949820795
1.7517757339634
1.7553289642223
1.7602264922928
1.7660369659443
1.7723719731446
1.7788946439068
1.7853173433711
1.7914199368511
1.7970482807344
1.8021149452199
1.8065373626397
1.8102897387059
1.8133729965771
1.8172386757238
1.8193324653868
1.8210693043899
1.8225208758356
1.8238557582905
1.8253257670778
1.827139828711
1.8289160897109
1.8303244593075
1.8312062942341
1.831659066602
1.8315577502566
1.8309791279199
1.8299442474385
1.8285118844151
1.8270361943983
1.8259377978746
1.8253555520621
1.8252506653641
1.8257478644753
1.8272602686301
1.8297366793016
1.8331495126065
1.8375581801252
1.8425085573599
1.8479328228615
1.8531603392257
1.8586257485544
1.8637273354505
1.8692679905233
1.8737156190887
1.8781444738654
1.8812157465672
1.8837625914801
1.8837016949001
1.6169845711101
2.916610384891
3.9296411584149
4.080961450067
4.6112870006668
5.752116934474
7.1331377277881
8.5411444913294
9.8869578162939
11.073556969706
12.057150063495
12.805907047075
13.26990203084
13.360258059732
13.267631573829
12.890466991991
12.356576537723
11.652437559385
10.844897043004
9.9956365220522
9.1401864642052
8.3091525544862
7.5237108137084
6.79548139336
6.1298764904863
5.527977784208
4.9875362423057
4.5045158956602
4.0744435114611
3.6922598633163
3.3527861675911
3.0511995586265
2.7830608599467
2.5443475853198
2.3315030750272
2.1413376960691
1.9711404746961
1.8184679168071
1.6811088468333
1.5572025872151
1.445372482969
1.3441950092626
1.2524803768828
1.1691366419301
1.0930980427596
1.0236976674871
0.96029926750042
0.90222378418805
0.84893810384345
0.79986376083296
0.75462052066974
0.7129085514936
0.67434869457291
0.63866618873521
0.60556590983122
0.57480031718456
0.54621133540945
0.51958479287578
0.49475967053392