/*--------------------------------*- C++ -*----------------------------------*\
| =========                 |                                                 |
| \\      /  F ield         | OpenFOAM: The Open Source CFD Toolbox           |
|  \\    /   O peration     | Version:  2312                                  |
|   \\  /    A nd           | Website:  www.openfoam.com                      |
|    \\/     M anipulation  |                                                 |
\*---------------------------------------------------------------------------*/
FoamFile
{
    version     2.0;
    format      ascii;
    arch        "LSB;label=32;scalar=64";
    class       volScalarField;
    location    "0.0001";
    object      rhoHat;
}
// * * * * * * * * * * * * * * * * * * * * * * * * * * * * * * * * * * * * * //

dimensions      [1 -3 0 0 0 0 0];

internalField   nonuniform List<scalar> 
109340
(
661.22245737072
661.21765404523
661.20844409035
661.19720362795
661.18466758487
661.17146701498
661.15784386778
661.14388531896
661.12958011684
661.11428514399
661.09689582197
661.07619358487
661.05069436189
661.01860348769
660.97778588005
660.92571810835
660.85940134709
660.77524712546
660.66891041947
660.53506547054
660.36708764028
660.15666161866
659.89324395966
659.5633373441
659.14945998356
658.62869900517
657.9705769984
657.13382198909
656.06126273451
654.67138241608
652.84359726249
650.39096069525
647.00621462304
642.14924479926
634.80101011257
622.90048022209
661.22318320711
661.21701213239
661.20666582297
661.19464565997
661.18171872864
661.16844131893
661.15497264497
661.14124701169
661.12686683911
661.11114937761
661.09308597056
661.07140149804
661.04453207329
661.01059757328
660.96736797962
660.91220197271
660.84197063831
660.75291689846
660.64047646267
660.49903369238
660.32158886384
660.09933197828
659.82106571364
659.47241795739
659.03472278897
658.48343183429
657.78576269694
656.89709831758
655.75523373683
654.27073565295
652.30984469609
649.66203702247
645.97346884081
640.60175943724
632.26168811478
618.21151348734
661.22586555694
661.21873364417
661.20735427473
661.19505391248
661.18223962025
661.16915587534
661.15576578625
661.14201880058
661.12762664313
661.11192178781
661.0939088018
661.0723070692
661.04554579585
661.01174035605
660.96865926053
660.91366632801
660.84363224027
660.7548042442
660.64262148575
660.50147374834
660.32436237605
660.10247787563
659.82462319259
659.47642251551
659.03920532976
658.48841371022
657.79125200357
656.90308927359
655.76171184481
654.27766798091
652.31712127901
649.66903710336
645.97573151585
640.57376355835
632.07401079183
617.16327785785
661.22958968684
661.22101217692
661.20907781691
661.1964465364
661.18339747519
661.17005089877
661.1564450946
661.14255955702
661.12809859689
661.11239174086
661.09444372242
661.07296693872
661.04638112288
661.01279343444
660.96996244742
660.91524075762
660.84548838229
660.75693950915
660.64501185697
660.50407162446
660.32706922816
660.1051301856
659.82696309062
659.47805374662
659.03954340215
658.48659966715
657.78603954309
656.89268021835
655.74351544033
654.24791684306
652.27019334551
649.59609868529
645.85872463023
640.35982457824
631.54212584108
615.02987758835
661.23543988518
661.22432779272
661.21067549735
661.19719356974
661.18379532155
661.17032124378
661.15667626711
661.14281785
661.12843420614
661.11284877478
661.09507208362
661.07380615941
661.04744355763
661.01404989182
660.97132176982
660.91652211006
660.84638774378
660.75698584652
660.64344352169
660.49984067616
660.31863019606
660.09028875432
659.80262856359
659.43987373641
658.98144077612
658.40007536087
657.65921410024
656.70891424864
655.47938419992
653.87012162392
651.73040887221
648.8233252115
644.739058705
638.68292235015
628.76724097365
608.44912363116
661.24627156552
661.22604846933
661.21098493408
661.1971897116
661.18374267873
661.17026583612
661.15662481483
661.14268498004
661.1279578502
661.11148958272
661.09190848957
661.06741378406
661.03575929929
660.99420939202
660.93946458113
660.86755047802
660.77366070277
660.65198729239
660.4955681154
660.29475775127
660.03763661569
659.70889176133
659.28867813266
658.7510997176
658.06211129379
657.17651791527
656.03362982819
654.55068124944
652.61242427711
650.05371108606
646.62767913272
641.95288541256
635.36696984923
625.59133061638
609.5199975139
574.37482337546
602.67611568223
569.50438191109
520.40041971053
457.26022592951
385.83693840694
311.83140218963
240.76867223053
177.17839708059
124.16613859537
83.045717348492
52.89645168555
32.843054647403
19.973920434468
11.99822471755
7.2318978517867
4.3955566628424
2.7113452666739
1.7037477251381
1.0920513238606
0.71564322338832
0.47996129149736
0.328571026412
0.22944171355673
0.16334817076251
0.11839215288011
0.087449641036089
0.065437000145856
0.049428435304494
0.038270840948475
0.029561340932227
0.02343999421073
0.018553713398341
0.014941822324866
0.012088471596793
0.0098793709377252
0.0081320725825833
0.006743079025421
0.0056264476139067
0.0047323955766043
0.0039908952025069
0.0034019823183802
0.0028943206457186
0.0024963042597228
0.0021420480319176
0.0018652174275771
0.0016150704898992
0.0014165032304709
0.0012390771609334
0.001091968658144
0.00096475718272926
0.00085374178082431
0.0007586257601726
0.0006759070880169
0.00060401887739081
0.00054116499058654
0.00048608523041627
0.00043762895779775
0.000394904146928
0.0003571310824706
0.00032365701083209
0.00029391135031809
0.00026741745079029
0.00024376989696789
0.00022261977278226
0.00020365992738336
0.00018662086420113
0.00017127449863735
0.00015750134708553
0.00046107266916684
0.0059530773549401
0.0070310541026202
0.0069552557209858
0.0068479798995797
0.0067456511694379
0.0066337384583055
0.0064909505725161
0.006298278656121
0.0060446350012349
0.0057373206433851
0.0054164862620907
0.0051488409107885
0.0049656228902863
0.0048394731713046
0.0047420716060262
0.0046462270488796
0.0045725508999559
0.0045077606715713
0.004454106364715
0.00441215427529
0.0043878113869948
0.0043730216959819
0.0043708082277423
0.0043769086090393
0.0043907282230489
0.0044104662325402
0.0044343499199584
0.0044606652759707
0.004487985288899
0.0045147243351864
0.0045402147751219
0.0045638785499404
0.0045853953773027
0.0046044107002292
0.004620978401801
0.004641043229717
0.004652920719161
0.0046631474738623
0.0046717457580352
0.004678325256779
0.0046837689305463
0.0046896548155901
0.0046981053569384
0.0047081191740233
0.0047164602742231
0.0047202378943245
0.0047204457036005
0.0047186681660127
0.0047145272308682
0.0047074570257679
0.0046978014540355
0.0046868438897292
0.0046765334205481
0.0046684439434272
0.0046633996278469
0.0046620056681066
0.0046654430668356
0.0046756352696053
0.0046946810779043
0.0047197834986332
0.0047493263727993
0.0047787434270798
0.0048048547474244
0.0048271441146621
0.0048482406276562
0.0048656482699025
0.0048822298148439
0.0048958912206873
0.0048954820982203
0.00491647409532
0.0038615182728088
592.96650486805
551.01574203353
491.59472071193
420.53111377304
344.9543019873
270.61853192705
203.1894950307
146.0258718147
100.64244039507
66.69283815056
42.663729583248
26.462976634905
16.307126237131
9.9613350650194
6.0817017903894
3.747158014912
2.3390149273206
1.4855430267646
0.96250334726818
0.63672638065909
0.4301287374438
0.29665238385259
0.20864591310687
0.14944257069857
0.10890665946877
0.080657586775255
0.060628164288278
0.046194729703348
0.03565617417951
0.027849251710792
0.021980094199752
0.017538185866963
0.014114199160465
0.011467023305135
0.0093839437646301
0.0077432895123462
0.0064296362146963
0.0053784781148138
0.0045238238977408
0.003829988476582
0.0032583648829809
0.0027883678817289
0.0023963890541232
0.002070104946329
0.0017953932604766
0.0015638513328959
0.0013673785794555
0.0011999081582067
0.0010569135027337
0.00093391999512604
0.0008279780914684
0.00073610633899035
0.00065637783006101
0.00058687899388132
0.00052613195400208
0.00047284042381113
0.00042595193057826
0.00038457875584563
0.00034797377113777
0.00031550606026493
0.00028664053371835
0.00026091942396472
0.00023794864063109
0.00021738903456142
0.00019894910167167
0.00018237766935625
0.00016746567889753
0.00015591429174311
0.0013672086531354
0.0065828007347881
0.007019158399546
0.0069169824223945
0.0068126433327862
0.006710106087358
0.0065920497153438
0.0064377832523346
0.0062298860881072
0.005961161615184
0.0056463382901839
0.0053324703933457
0.0050860022206192
0.0049201007088917
0.0048036957674831
0.004711420013833
0.004639181813562
0.0045662741411194
0.0045027540539964
0.0044502745614508
0.0044094800208119
0.0043856382343161
0.0043719576238603
0.0043698589496253
0.0043766273179879
0.0043909927705312
0.0044111275238923
0.0044353183812935
0.004461893975976
0.0044894018926029
0.004516290932723
0.0045418797494792
0.0045655874756116
0.004587048215946
0.0046059963165672
0.0046224442468559
0.0046423113051079
0.0046541284674904
0.0046644190128522
0.0046731978819561
0.0046800798032518
0.0046858282797615
0.0046919061173589
0.0047004095563052
0.0047102635695297
0.0047182078106753
0.0047215780535106
0.0047214029228002
0.0047191894163128
0.0047144937522545
0.0047068590335386
0.0046967664049082
0.0046855482556607
0.0046753421464016
0.004667401118436
0.0046624339115442
0.0046609327606892
0.0046648755405581
0.0046756896717175
0.0046949224812907
0.0047201113469642
0.0047496378871767
0.0047789706003811
0.0048052721025997
0.004827770451745
0.0048488757466156
0.0048662715019319
0.0048824854500376
0.0048934029236976
0.0048924905448728
0.0048975893255807
0.0038363882865375
587.70772808075
535.30880090576
464.41483241848
382.65505787958
303.22749974517
230.92752438195
169.25121362032
119.86858906489
82.268304717869
54.562069002187
35.646480482724
22.72117991258
14.271286513151
8.8999881072084
5.5403808856492
3.465631770984
2.1919138646114
1.408387715752
0.92106598037341
0.61344957823844
0.41670748003126
0.28875961691035
0.20383471984174
0.14643984660629
0.10700933186039
0.079417977784829
0.059791767821574
0.04564101420239
0.035271505118841
0.027579082919376
0.021791248942774
0.017394298281635
0.014015002990912
0.011387604416244
0.0093290619791322
0.0076978277724691
0.0063982663443416
0.0053518585570602
0.0045051498479709
0.003813959912667
0.0032469858980992
0.0027784689706647
0.002388971987815
0.0020638521629155
0.0017903205535803
0.0015598174969889
0.0013638207805999
0.0011972657273644
0.0010544465070773
0.00093197982233495
0.0008262338827949
0.00073475941486878
0.00065522948131858
0.00058587373569763
0.00052525027084804
0.00047207085492851
0.00042529105785316
0.00038400773264324
0.00034747778450284
0.00031507255264351
0.00028626240402213
0.00026058878929519
0.00023765753827915
0.00021713071402379
0.0001987188117617
0.00018217536760218
0.00016728923080633
0.00015586469127332
0.0014023368892029
0.0065998070032998
0.0070245670802738
0.0069205216513151
0.0068142416436578
0.0067098448151945
0.006590574864163
0.0064359622862864
0.0062284783695228
0.005960563691215
0.0056464339756792
0.0053323008861468
0.0050842594749654
0.0049168852541408
0.0047997120577101
0.0047072306927241
0.0046356394527487
0.0045631281220964
0.0045000373299442
0.0044479436836311
0.0044080002416613
0.0043835902842317
0.0043703259809655
0.0043675344357998
0.0043742789127061
0.0043886141669145
0.0044087631904874
0.0044329332280764
0.0044594307935257
0.0044867695407416
0.0045136032098747
0.0045391465593203
0.0045628898177448
0.004584318142884
0.0046033099559477
0.0046199038040216
0.004639729261249
0.0046517024831159
0.0046623594725606
0.0046715152929049
0.0046789449597124
0.0046854446854478
0.0046923723536338
0.0047012223764831
0.0047108378684118
0.0047183669795416
0.0047218361960526
0.0047219511604797
0.0047197513964197
0.0047147217554517
0.0047070311024409
0.0046972942404315
0.0046865862064449
0.0046768254150296
0.0046691721060348
0.0046644862761869
0.0046630556703942
0.0046679910574179
0.0046796456719089
0.0046990224885479
0.0047244734233245
0.004754072146639
0.0047833822129266
0.0048102561754952
0.0048332541535869
0.0048546064870891
0.0048721229563986
0.0048884767097297
0.0048985221018181
0.004899806012052
0.0048914449103057
0.0038252164349399
576.03563982423
500.54241608554
408.2164360416
315.53209572757
236.11966610223
172.96173688273
124.01056288167
87.46511277349
60.608444122603
41.10113641547
27.796669450199
18.358562329917
11.907160836488
7.643963797547
4.8743704437442
3.1166569493468
2.0079722389759
1.3083339454535
0.8655341584591
0.58272210774232
0.39917055390801
0.27804143454755
0.19730232673404
0.1424150341236
0.10439787538767
0.077691665827579
0.058653186031942
0.044860228813488
0.03472973678466
0.027193623216795
0.0215211270265
0.017194335163913
0.01386814580654
0.011277925448637
0.0092462879988866
0.0076354062211839
0.0063504126687826
0.0053148077949094
0.0044765881595794
0.0037915700927178
0.0032295542443141
0.0027642750098427
0.0023780545464762
0.0020546852460062
0.001783192321013
0.0015536865760963
0.0013590188177616
0.0011931285834972
0.0010510638677931
0.00092911287527453
0.00082380765640966
0.00073273086156134
0.00065350548417653
0.0005844357671001
0.00052399926748581
0.00047098982767291
0.00042435127612139
0.00038319208643078
0.00034677207588762
0.00031446229384546
0.00028573126538955
0.00026012269640441
0.00023724711219231
0.00021676935245507
0.00019840115462533
0.00018189549896885
0.0001670364548938
0.00015581811264082
0.0014558144337653
0.0066211047939873
0.0070317095059758
0.0069252301004759
0.0068163849487872
0.0067095070321157
0.0065885011190709
0.0064333582657845
0.0062264600160313
0.0059597870289405
0.0056467076110802
0.0053321993401199
0.0050818534651575
0.0049122822310044
0.0047939371638217
0.0047011977659173
0.0046304844038394
0.0045583015707278
0.0044957573517255
0.0044441430481525
0.0044048557141432
0.0043801725156862
0.004367260739264
0.0043647786208443
0.0043717329782202
0.0043861442943818
0.0044063093636577
0.0044304539346374
0.004456889362382
0.0044841528563142
0.0045109516667807
0.0045364903620688
0.004560227271406
0.0045815902818134
0.0046004424670412
0.0046169752442244
0.0046366461380416
0.0046488562772646
0.0046598690660644
0.0046695906474929
0.004677786883353
0.004685096313767
0.0046927172613704
0.0047019259060332
0.0047114618191495
0.004718666161184
0.004722005914219
0.0047221617397191
0.0047196303865753
0.0047140801870207
0.0047060600014479
0.0046962226206777
0.004685694929611
0.0046762451552185
0.0046688408519939
0.0046644430288203
0.0046632795650114
0.0046688655702687
0.0046810012669829
0.0047006795500906
0.004726362044402
0.0047562996588848
0.0047860648117408
0.0048136263556662
0.0048372454197567
0.0048589400573984
0.0048765356498699
0.0048928436440556
0.0049034556560956
0.0049065871305276
0.0049040984211475
0.0038186934542519
537.78872300205
408.07688927162
289.68662356051
204.91192732779
146.95283753989
106.48595683482
77.712447587611
56.757028718289
41.036727076958
29.345510061725
20.562378904752
14.112675338308
9.511936355949
6.3210687788172
4.1630624867329
2.7312684767281
1.7975181018733
1.1931294956522
0.80114249210138
0.54542171911713
0.37721431210621
0.26526834471476
0.18931465144775
0.13730597947399
0.10113487899056
0.075574276645688
0.057211244653615
0.043871031123816
0.034045084941289
0.026709880984644
0.021171904526169
0.016943504284165
0.013680040885688
0.011138490280379
0.0091401882924314
0.007555969147059
0.0062882294708513
0.0052677152495237
0.0044393763037021
0.0037628091587978
0.0032064391652327
0.0027462396181377
0.0023633691791403
0.0020428952426712
0.0017735752620596
0.0015457930613785
0.0013525816470008
0.0011876847420803
0.0010466250419869
0.00092531510763605
0.00082065844499868
0.00073001310786314
0.00065121010023861
0.00058250200497778
0.00052234964142372
0.00046956857260616
0.00042311162484832
0.00038211737842031
0.00034584206422467
0.00031365614674067
0.00028502793107038
0.00025950674278763
0.00023670762659816
0.00021629651718974
0.00019798676319294
0.0001815312650757
0.00016670711017508
0.00015579196770676
0.001527685400353
0.0066478760275657
0.0070401476939326
0.0069308081874402
0.0068189256163778
0.0067090645100585
0.0065859236633656
0.0064300414289469
0.0062238443801621
0.0059587510285883
0.0056471014025905
0.0053322225229355
0.0050789208635642
0.004906433330423
0.0047864909222584
0.0046933399414686
0.0046235785313753
0.0045519066727244
0.0044900877874963
0.0044391748270707
0.0044006095770972
0.0043759345212717
0.0043633264076368
0.0043611276409616
0.0043682587847955
0.0043827372171672
0.004402888190822
0.0044269262312824
0.0044531920899848
0.0044802737312546
0.0045069734834904
0.0045325188671645
0.0045563329673057
0.0045777431633831
0.0045966012358394
0.0046131938149352
0.0046329037667845
0.0046454665456019
0.0046568970891359
0.0046672083927064
0.0046761487056
0.0046841517395599
0.0046924053778896
0.0047020325133338
0.0047115569035123
0.004718552870383
0.0047217286571219
0.004721846221752
0.0047190263682804
0.0047131768170314
0.0047049568244051
0.0046951480539117
0.0046849462379699
0.0046758626619225
0.004668769364234
0.004664698854665
0.0046638490634603
0.0046698725138308
0.0046824166644608
0.0047025066219124
0.0047285783315565
0.0047589498628979
0.0047891020101287
0.0048174031019925
0.0048418493092897
0.0048642751237038
0.0048823504582065
0.0048989944227871
0.0049092644479602
0.0049120913648955
0.0049082432268042
0.0038121603753523
303.75098139107
158.98193454336
111.8561251395
87.149316003804
69.123036358685
54.951625707982
43.429036127959
34.112803744295
26.25683644513
19.76225288768
14.533160234147
10.452476255074
7.3528190422296
5.0752362756477
3.4579256341641
2.3382039368615
1.5781527027482
1.0690358491034
0.73007642245283
0.50411119659904
0.35261762413494
0.25012030434667
0.18011400245144
0.13144190438644
0.097301709790095
0.07302090978507
0.055521925926634
0.042700578288238
0.033221457248179
0.02612856146018
0.020755629813332
0.016637907496441
0.013454673214658
0.010971211605349
0.0090133632028286
0.0074589761668902
0.006214263581287
0.0052104956583408
0.0043944109235303
0.0037276524164465
0.0031785818524799
0.0027240922413339
0.0023453566652278
0.0020284955846404
0.0017617351336507
0.0015361683565205
0.0013445357741916
0.0011810689311851
0.0010411077799015
0.00092066996671636
0.00081674494761097
0.00072666655720244
0.00064838429729941
0.00058007974043062
0.00052028985043506
0.00046779637396832
0.00042158193526209
0.00038079379345235
0.00034468898209911
0.00031265013585136
0.00028415094736911
0.00025874321820546
0.0002360404356474
0.0002157110676958
0.00019747330442527
0.00018107886922353
0.00016630006626128
0.00015574733723706
0.0016192591342001
0.0066805753305244
0.0070494947368931
0.0069369643725334
0.006821691507565
0.0067084799985864
0.0065828463553821
0.0064260306443549
0.0062206029221907
0.0059574426301379
0.0056476412983484
0.0053324677033355
0.00507564834043
0.0048995103128342
0.0047775036171156
0.0046837456864746
0.004614792029255
0.0045438174965184
0.0044828663868797
0.0044328213635216
0.0043951045133439
0.0043707348722268
0.0043585165284346
0.0043567610987878
0.004364209185522
0.0043788652979047
0.0043990895564192
0.0044230912359504
0.0044492330041663
0.004476139293522
0.0045026869877487
0.0045281581558998
0.0045520072626648
0.0045734689112988
0.0045923477898946
0.0046090401094403
0.0046287780330789
0.0046418954887375
0.0046537892238929
0.0046646280128924
0.0046742444601118
0.0046828771290321
0.0046917105558728
0.0047017495186448
0.0047112503109372
0.0047180381978273
0.0047210251315972
0.00472105690528
0.0047177994342633
0.0047115647768508
0.0047030959585797
0.0046932126025894
0.0046832672326684
0.0046745529341989
0.0046679087023107
0.0046643707478717
0.0046641699498604
0.0046709302161576
0.0046841822921031
0.0047048032952153
0.0047312436214095
0.00476187116358
0.0047922773961291
0.0048212007529647
0.0048464575653642
0.0048698154755202
0.0048884188856875
0.0049055641375091
0.0049159125906708
0.0049193239244687
0.0049142290491679
0.0038053689997941
0.34802438358518
16.143452354091
24.3717457044
27.8988679583
28.550028379768
26.8711600937
23.838008757661
20.370366419575
16.883404220661
13.595053673827
10.63918199243
8.094468189589
5.9954217921044
4.3341375931009
3.072655238339
2.1492899299196
1.4915691379408
1.0332637935522
0.71804318441039
0.50246557681035
0.35503172622832
0.25377241884551
0.18364130070051
0.13471874556464
0.10003934946853
0.075187089131947
0.057232850549237
0.044083870670976
0.03432179164672
0.02698830623144
0.021438855472525
0.017190589504664
0.01389852721887
0.011326978710647
0.009303184492822
0.0076962304314754
0.0064084459514655
0.0053705831642272
0.0045277939412356
0.0038387946441429
0.0032714857191005
0.0028022857361656
0.0024116222492221
0.0020847111136602
0.0018095289872955
0.001577098982007
0.0013797047370738
0.0012114031085819
0.0010672652003327
0.00094337122470944
0.00083650225787379
0.00074392091195929
0.00066346869775513
0.0005932969485124
0.00053194214687569
0.00047810580061758
0.00043071740597589
0.00038889168689904
0.0003518867131318
0.00031907078947663
0.00028989269634161
0.00026388584229708
0.00024065336272788
0.0002198559078404
0.00020119773688076
0.00018442928529477
0.00016933539506114
0.00015590800031956
0.00063001307226906
0.0061843986872052
0.0070671908024034
0.0069736945142203
0.0068536497053513
0.0067371911610818
0.0066134501199202
0.006464553241142
0.0062730057630773
0.0060263170330273
0.0057281160316789
0.0054092062671718
0.005129690841853
0.0049303698634739
0.0047946556354042
0.0046943336557146
0.0046042250536056
0.0045341202730758
0.004474185566115
0.0044251867367351
0.004388447486932
0.004364645003325
0.0043528853535542
0.0043516567838469
0.0043595209232699
0.0043744571709761
0.0043948303167192
0.0044188635046545
0.0044449310542185
0.0044717000439511
0.0044981143782961
0.0045234964018812
0.0045473718662055
0.0045689641581701
0.0045879998917844
0.004604673523918
0.0046225199547314
0.0046361626640676
0.0046485804979481
0.0046600526932576
0.004670444551498
0.0046798714767657
0.00468935599174
0.0046998287015696
0.0047091426717796
0.004715450931958
0.0047181353341237
0.004717903343592
0.0047139986141973
0.0047072974290381
0.0046985924711727
0.0046887436347096
0.0046792374060525
0.0046710698802446
0.0046651440703152
0.0046624334621206
0.0046635010697604
0.0046713624413772
0.0046858337027575
0.0047075803032501
0.0047347299519933
0.0047656483617757
0.0047963072738721
0.004826260338189
0.0048526531048223
0.0048775598690267
0.0048972687657052
0.0049156036078017
0.0049259690676096
0.0049298345995157
0.0049232052162331
0.0037909809846066
0.068724585300282
0.49457892839146
1.5754221768248
2.9436210060393
4.2613512847038
5.2789246850941
5.8471187846181
5.9986576894238
5.6739590731647
5.1340400235619
4.4570191673769
3.7179149991131
2.9959703098945
2.3386425493649
1.7769076583089
1.3227123733691
0.97042371602776
0.70569832415343
0.51160956071718
0.37143271710638
0.27092565658393
0.19902527942036
0.14747848361185
0.11032154747881
0.083372982784518
0.063687997398957
0.049140501061689
0.038265841429296
0.030098457064168
0.023897659608681
0.019144901827663
0.015456375227965
0.012579893123034
0.010316078081382
0.0085196701752746
0.0070805500829509
0.005922548451744
0.0049838150092409
0.0042175897214374
0.0035875119343007
0.0030669928134288
0.0026346213586093
0.002273450424664
0.0019699132246136
0.0017138072391174
0.0014967920171358
0.0013120816284619
0.0011541216103884
0.0010185116472416
0.00090172510905029
0.0008007400063198
0.00071311815456643
0.0006367954045039
0.00057014534927224
0.00051176369577677
0.00046047517086789
0.00041528062430685
0.00037533324796513
0.00033994290066264
0.00030851296745665
0.00028053805625433
0.00025557960480821
0.00023326366584414
0.00021326971592844
0.00019531615837376
0.00017916310234589
0.00016460179369027
0.0001558258237247
0.0020333836995508
0.0068059354426042
0.0070789641777758
0.006955179331543
0.0068286622327753
0.0067043683103605
0.0065701033364323
0.0064097011641371
0.0062070362874844
0.0059517194802692
0.0056503648393753
0.0053356057176766
0.0050661611361051
0.0048746190783548
0.0047431073361646
0.0046457954244998
0.004578336246079
0.0045100767152877
0.0044525041431678
0.0044060481890558
0.0043716839115844
0.004349725091082
0.0043393767671074
0.0043396321637974
0.004348755760238
0.0043647123846366
0.0043858123433105
0.0044103261475044
0.0044366573609151
0.0044635315432013
0.0044899120451052
0.0045151430745185
0.004538879091325
0.0045605588270763
0.0045799930599735
0.0045969789974154
0.0046160120512044
0.0046300508722501
0.0046428333669148
0.004654853575168
0.0046659536818983
0.0046760851763401
0.0046860070667782
0.0046966793841274
0.0047055845113555
0.0047112840896697
0.0047136225857789
0.0047126376191404
0.0047079272353292
0.0047008872330903
0.0046920518635503
0.0046824368226148
0.0046736221846906
0.0046664848510884
0.00466190767621
0.0046605154637818
0.0046636672770233
0.0046731654899641
0.0046890502660297
0.0047118563625592
0.0047393813260714
0.0047703132714227
0.0048009969890312
0.0048324710092431
0.0048603463352332
0.0048873435929886
0.0049085585719086
0.0049287471348611
0.0049395274338839
0.0049445443368927
0.0049372623576411
0.0037603172909015
0.043396297254147
0.095380268100618
0.24955313399663
0.53388385620475
0.89826767685608
1.2839075908314
1.6307003807742
1.8925521003122
2.0494505140668
2.0722275501509
1.9761767437688
1.8019390828049
1.5759423589841
1.3277074839053
1.0817159091196
0.85711988648914
0.6649733949506
0.50810399517476
0.38447692529574
0.28956048317504
0.21794184560993
0.16444863183861
0.12467493267112
0.09511333679
0.073083960096962
0.056608947944892
0.04420973553008
0.034815395797064
0.027646991756467
0.022123840432052
0.017840181969523
0.014496118695333
0.011863770957406
0.0097780557094453
0.0081080542782326
0.0067648649699787
0.0056781642164363
0.0047931891808504
0.0040669542795135
0.0034678583788446
0.0029716079755857
0.0025579863949832
0.0022113140503861
0.0019191584102773
0.0016723098148823
0.0014626394251638
0.0012838116764458
0.0011305424703558
0.00099878731273273
0.00088513941742496
0.00078673771444282
0.00070121608524887
0.00062663881449176
0.00056145651273709
0.00050430233545551
0.00045404327552789
0.00040971109158572
0.00037050506118586
0.00033575518926809
0.00030487155108444
0.00027735709702048
0.00025279045135945
0.0002308101365468
0.00021110623697185
0.00019340733627626
0.00017747743417262
0.00016310672948683
0.00015689609178082
0.0024619647799449
0.006897594536948
0.0070971478281425
0.006964881681621
0.0068300552229319
0.0066979457452034
0.0065576460504917
0.0063947599035123
0.0061945044067953
0.005946192277078
0.0056530514104829
0.005340674713586
0.0050628631634131
0.004857592209506
0.0047164231551109
0.0046146310974566
0.0045470963455818
0.0044804326897032
0.0044254208331378
0.004381959641649
0.0043505314268759
0.0043312219119902
0.0043231829376993
0.004325617402912
0.0043366921288024
0.004354438825835
0.0043770844217783
0.0044028974441115
0.0044302952398683
0.0044579451403921
0.0044848164139257
0.0045102674629018
0.0045340593953158
0.004555742444506
0.0045752023443641
0.0045922297256347
0.0046123430212772
0.004625855633567
0.0046380190390165
0.0046493648796826
0.004660120051905
0.0046703194206681
0.0046805712705191
0.0046910450659454
0.0046995050128258
0.0047047524739123
0.0047068607424037
0.0047052839552548
0.0047007411811373
0.0046940061980718
0.0046854783713204
0.0046763535466539
0.0046684016515286
0.0046625563135207
0.0046595111284962
0.0046595699287575
0.004664757254212
0.0046759414099342
0.0046929894805814
0.0047163169720494
0.0047437227021867
0.0047743596681211
0.0048049271991932
0.0048374674682894
0.004866296447225
0.004895323732558
0.0049179166952049
0.0049398966726377
0.0049519865894081
0.004959106612648
0.0049521264102939
0.0037096884737635
0.027611104277728
0.047769276233938
0.076669771453553
0.15331211037452
0.26982264405518
0.41166465435852
0.56330884057659
0.70494801109492
0.82190947151197
0.89895114239141
0.92522664129904
0.90056407370498
0.83947067996061
0.75377048908513
0.65144120075772
0.54587755006612
0.44594769402313
0.35706071077584
0.28170229656436
0.22015617976075
0.17114334300468
0.13280240634666
0.10314240950295
0.080351037899175
0.06287626793723
0.049469040427448
0.039162868693541
0.031206936924842
0.025034205388804
0.020217607933401
0.016437908772037
0.013452654805391
0.011077201834065
0.0091766243189841
0.0076479723035767
0.006410716801974
0.0054033485451057
0.0045761020093522
0.0038947512787628
0.0033310807352727
0.0028619290410083
0.0024694049856955
0.002138968705468
0.001860280913105
0.0016239724767406
0.0014228107979523
0.001250655011182
0.0011028611561579
0.00097563646455123
0.00086564633479902
0.00077025718746571
0.00068717958488873
0.00061467010067051
0.00055121602427066
0.00049551001872117
0.00044645920072717
0.00040313700426009
0.00036480043014497
0.00033079289659416
0.00030054894742343
0.00027358506032832
0.00024948438149436
0.00022790239752207
0.00020854266901771
0.0001911417197798
0.00017546924321643
0.00016131130117703
0.00016116301696806
0.0030282534215678
0.0070001184242039
0.0071165922220757
0.006972225272496
0.0068277864053221
0.0066873685928721
0.0065409752158545
0.0063758499864499
0.0061786341346748
0.0059388660813293
0.005655919353686
0.0053489909802176
0.005064048847766
0.0048436881826883
0.0046897816779234
0.00458113037341
0.004512000885837
0.0044462025666296
0.0043935999354212
0.0043533474401032
0.0043253316147667
0.0043093583118008
0.0043046462954153
0.0043099561248685
0.0043238475143941
0.0043443260376306
0.0043695091355804
0.0043975995097361
0.004427005637472
0.0044563457143492
0.004484539901394
0.0045109245145922
0.004535297748449
0.0045571896398506
0.0045763931400602
0.0045927694317323
0.00461311733711
0.0046254124233425
0.0046360535088659
0.0046456357727946
0.0046546787953972
0.0046637232862274
0.0046737049857772
0.004683704712346
0.0046916856216064
0.0046966040029859
0.0046987478986016
0.0046975578647659
0.0046936774093422
0.0046875435112537
0.0046795208849522
0.0046710674334056
0.0046642320609858
0.0046598573187038
0.0046582530059525
0.0046597114948075
0.0046665188794652
0.0046788450608073
0.0046964155124287
0.0047195050751905