/*--------------------------------*- C++ -*----------------------------------*\
| =========                 |                                                 |
| \\      /  F ield         | OpenFOAM: The Open Source CFD Toolbox           |
|  \\    /   O peration     | Version:  2312                                  |
|   \\  /    A nd           | Website:  www.openfoam.com                      |
|    \\/     M anipulation  |                                                 |
\*---------------------------------------------------------------------------*/
FoamFile
{
    version     2.0;
    format      ascii;
    arch        "LSB;label=32;scalar=64";
    class       volScalarField;
    location    "0.0001";
    object      T;
}
// * * * * * * * * * * * * * * * * * * * * * * * * * * * * * * * * * * * * * //

dimensions      [0 0 0 1 0 0 0];

internalField   nonuniform List<scalar> 
109340
(
372.99991103713
372.99865622411
372.99644988151
372.99363691914
372.99062624452
372.9876129443
372.98466921041
372.9818311388
372.97905991096
372.97627707953
372.97348908238
372.9706988831
372.96790335207
372.96509482608
372.96226281538
372.95939389644
372.9564709632
372.95347268696
372.95037211524
372.94713549963
372.94372076062
372.94007655696
372.93613929041
372.93182832182
372.92704048471
372.92164183112
372.91545615732
372.90824808762
372.89969668963
372.88935304414
372.8765683082
372.86036493384
372.83919430004
372.8104623352
372.76951880286
372.70760624813
372.99971129568
372.99804349237
372.99549696118
372.99262736528
372.98968261873
372.98675923396
372.98387788355
372.98102838869
372.9782053144
372.9753968661
372.9725952619
372.96979578233
372.96699190194
372.96417472452
372.96133264231
372.95845133243
372.95551321447
372.95249564184
372.94936997786
372.94610061089
372.9426435362
372.93894477185
372.93493724983
372.93053554715
372.92562991444
372.9200772762
372.91368877036
372.90621090007
372.89729600025
372.88645413383
372.87297013847
372.85575111822
372.83302850164
372.80175121942
372.7561642601
372.68481437283
372.99975109387
372.99777765781
372.99513355964
372.99231272418
372.98942352764
372.98651940614
372.98361268392
372.98072057471
372.97785640095
372.97501724364
372.97219441415
372.96938053043
372.96656752705
372.96374579056
372.96090371246
372.95802708647
372.95509836504
372.95209514944
372.94898896421
372.94574459731
372.9423180293
372.93865581131
372.9346914024
372.9303395184
372.92549035833
372.92000061932
372.91368138039
372.90627906851
372.89744590674
372.88669163694
372.87330026492
372.85617462175
372.83351915612
372.80216721801
372.75589422528
372.68103426136
372.99971235516
372.99742040046
372.99464411376
372.99173048508
372.98877682752
372.98581005186
372.98284653134
372.97990149166
372.97698678775
372.9741065254
372.9712569051
372.96843140676
372.96562157008
372.96281793319
372.9600107816
372.95718642171
372.95432814046
372.95141423851
372.94841685165
372.94530225843
372.94202687753
372.93853739549
372.93476628588
372.93062697854
372.92600764427
372.92076261304
372.91470000049
372.90756256151
372.89899781036
372.88850867112
372.87536862763
372.85846301518
372.8359379362
372.80443620071
372.75695505664
372.6756822605
372.9994986964
372.9964514983
372.99304328772
372.98970888891
372.98645285094
372.98327256235
372.98017954878
372.97720189629
372.97435925503
372.97164642484
372.96906660823
372.96661914111
372.96429671117
372.96209050481
372.95999076876
372.9579852159
372.95605836004
372.95419000396
372.95234990686
372.95050752515
372.94858459096
372.94650433646
372.94418132699
372.94151234964
372.93837024571
372.9345902204
372.92995719969
372.92418460146
372.91687941735
372.90748800764
372.89519889403
372.87878071086
372.85614494877
372.82343995114
372.77208642142
372.6756580805
373.0033651942
373.01759802718
373.03292406201
373.04813472228
373.06279836179
373.07667764676
373.08964544375
373.10164744524
373.112672985
373.12273106909
373.13184472826
373.14004053071
373.14734449418
373.1537804009
373.1593670124
373.16411733396
373.16803835854
373.17113421921
373.17345530598
373.17511854921
373.17611443809
373.17639089868
373.1758703528
373.17442690041
373.17194064946
373.16819122229
373.16289059033
373.15564366397
373.1458957632
373.13285085255
373.11532191263
373.09150442072
373.05827297693
373.009787238
372.93251142423
372.77637513446
372.60935109832
372.4545489302
372.21762437197
371.87893042245
371.4276319579
370.85310031053
370.14175004391
369.28048461166
368.25708823959
367.06637672671
365.70720232078
364.19480580195
362.57721483009
360.87338785078
359.12960269531
357.37770974181
355.64764835649
353.96157997501
352.33333460384
350.77238057721
349.2840397822
347.86879029814
346.5256801341
345.25240429716
344.04510420887
342.90108446592
341.81537916116
340.78019943964
339.80246535014
338.86508083035
337.97629150874
337.12539081622
336.31208637255
335.53537850987
334.78838804542
334.07489514281
333.38638397195
332.72715321417
332.09042245252
331.47801494836
330.88729459354
330.31552020351
329.76557388663
329.22973154886
328.71549052001
328.21236809935
327.72927077862
327.25668238461
326.80053258461
326.35610087237
325.9236689277
325.50327504676
325.09397760653
324.69535037069
324.30677743176
323.92782283923
323.55801444043
323.19697701327
322.84433641331
322.49974452922
322.16285650975
321.83336319795
321.51097861662
321.1954297766
320.88645736797
320.58380049093
320.28719180388
319.98300169068
321.63219250162
321.45255577558
320.44912499689
319.40527507595
318.33002036742
317.21141229803
316.02437370875
314.72850791148
313.27271683698
311.6044153089
309.68988774972
307.60182625169
305.69980263825
304.40841088536
303.70523673295
303.36481146005
303.20920220568
303.16409106378
303.14947965662
303.14411079317
303.14018897043
303.13599267912
303.13086814324
303.12444448333
303.11670729813
303.10762439557
303.0970775027
303.08494946729
303.07115300342
303.05565675955
303.03846548345
303.01972227135
302.99971111057
302.97872415624
302.95709259579
302.93519207686
302.90808065373
302.88677118943
302.86622849541
302.84682656941
302.82873165881
302.81232492426
302.79796944909
302.78592267661
302.77594212918
302.76736541246
302.75958632731
302.75264040397
302.74652390247
302.74092061162
302.73554020222
302.73029110537
302.72526643652
302.72068260735
302.71666587368
302.7132643193
302.71051633927
302.70862618685
302.70798126386
302.7086004527
302.71015532775
302.71227693996
302.71411128823
302.71516133249
302.71542591042
302.71504151277
302.71406723712
302.71292718044
302.72685399092
302.90342812445
305.02771084127
331.7559085591
372.56606736318
372.3730870833
372.0790171979
371.67148834407
371.14449617971
370.48834955244
369.69536749421
368.75731139453
367.66927208647
366.4313170066
365.04787185135
363.53542376952
361.924924851
360.24720150662
358.53282911229
356.81274519394
355.11456074633
353.45876311678
351.85991892663
350.32688228358
348.8641250376
347.47301613848
346.152489582
344.89999306984
343.71254221287
342.58590330549
341.51629964077
340.4996384325
339.53250685518
338.61140044616
337.73257707419
336.89382506837
336.09135985309
335.32349144177
334.58699482268
333.88052209968
333.20133225953
332.54837882459
331.91926217927
331.31317960768
330.72805042307
330.16325721243
329.61694786352
329.08866046087
328.57685584575
328.0810112663
327.59998569266
327.13314964584
326.6797584353
326.23907812351
325.81049646986
325.39332052629
324.98715884866
324.59139025234
324.20559677116
323.8292613036
323.46198698324
323.10335607383
322.75300927865
322.4105950333
322.07579918828
321.74831541262
321.42785658176
321.11414566588
320.80691999833
320.50593183034
320.21098520404
319.9279049887
321.92532759417
321.20513151469
320.18708764215
319.13670562918
318.05355299824
316.9227675899
315.71559904569
314.38845964678
312.8891135654
311.16685127456
309.20107090459
307.11749353962
305.33899804647
304.20561805812
303.60739977245
303.32449236031
303.21402874062
303.16828620895
303.1536937979
303.14860207152
303.14504610281
303.14120198459
303.13638668478
303.13022876589
303.1227201715
303.11383125655
303.10343763853
303.09142049248
303.07770134074
303.0622545679
303.04509155098
303.02635533616
303.00632776978
302.98529624966
302.96360624323
302.94164225606
302.9144550763
302.89309541977
302.87252833332
302.85313295369
302.83508726374
302.81875286934
302.80447038359
302.7924866993
302.7825418664
302.77398747396
302.7662448989
302.75933118469
302.75322115769
302.74759028933
302.74218169961
302.73691800506
302.73187668915
302.72727146436
302.72318490391
302.71967591935
302.71677528653
302.71474863606
302.71398793934
302.71446248419
302.71576380916
302.71765982098
302.71921787481
302.7200069413
302.72000213459
302.71930841247
302.71795903462
302.71621025041
302.72979724262
302.90515804365
305.03294648775
331.87822918099
372.54656347845
372.31203087238
371.95344770716
371.46258652611
370.85072600846
370.11239496347
369.24879535467
368.25799695702
367.13982832224
365.89396838902
364.52910054088
363.05675992727
361.49341341841
359.8660851744
358.20217543952
356.52943622719
354.8735163809
353.2548232916
351.68762753012
350.18069324424
348.73932749904
347.36589619202
346.05976589501
344.81906344773
343.64108273952
342.52241735254
341.4596720393
340.44916918441
339.48707066521
338.57021898618
337.69536737713
336.85956969377
336.06027883597
335.29460218233
334.56066652642
333.85587083693
333.17878894614
332.52714399057
331.89976991241
331.29474990161
330.71107993719
330.14715589538
329.60201636766
329.07451819186
328.56360118612
328.0685318494
327.58815855886
327.12211854385
326.66922179589
326.22922200836
325.80110002654
325.38454927768
324.9788065673
324.58345332847
324.19802860428
323.82206214867
323.45514069644
323.09684113759
322.74680144753
322.4046749014
322.07015180621
321.74292344533
321.42270160651
321.1092117354
320.80218736915
320.50139194146
320.20661809127
319.92580656013
321.92611400456
321.19833860757
320.18108897193
319.13209411234
318.0510751062
316.92337880254
315.72045298449
314.39902193908
312.90719086851
311.19450831623
309.23976240088
307.16373442022
305.3808496695
304.23611250905
303.62844668937
303.3394551628
303.22452947584
303.17758754319
303.16300064301
303.15848119941
303.15570475254
303.15260573244
303.14844068972
303.14286421449
303.13585653596
303.12735364669
303.11727227559
303.10549546367
303.09194675346
303.07659852387
303.05948484724
303.04074810173
303.02067258232
302.99953977405
302.97771853203
302.95561532751
302.92825644855
302.90676230397
302.88610142262
302.86665029775
302.84862902699
302.83238332671
302.81822217715
302.80633703064
302.79642682135
302.78787273224
302.78021520589
302.77340643124
302.76732973401
302.76167133446
302.75624764608
302.75098221351
302.74590548118
302.74121474887
302.73696486454
302.73324142367
302.73003463383
302.7276801473
302.72662751541
302.72674218992
302.72747791313
302.7289197392
302.72982758866
302.73001542867
302.72941116462
302.72805537752
302.72591943049
302.72303422309
302.73616627787
302.90949977026
305.06248423403
332.34023446931
372.50734394932
372.17764351434
371.68033057639
371.03964454671
370.28682715834
369.4340353482
368.48855037419
367.45439184466
366.32773243197
365.10515673473
363.79336093655
362.39051144683
360.90515235801
359.35504980795
357.76331116846
356.1558772122
354.55624646491
352.98542626455
351.45859288686
349.98581580265
348.57308264324
347.22247416272
345.9356010444
344.71103286045
343.54621971549
342.43845224459
341.38475185715
340.38198498417
339.42669168695
338.51558309012
337.64585824517
336.81438977121
336.01888974739
335.25665654378
334.52563112746
333.82360453899
333.14882385409
332.49938533474
331.87390710992
331.27069253885
330.68859243017
330.12608212616
329.58232736439
329.05592689905
328.54621180703
328.05200192165
327.57269459736
327.10736806452
326.65534570848
326.21599796142
325.78859040153
325.37266680062
324.96752410529
324.57274769584
324.18780945626
323.81231971044
323.44583600829
323.08795896824
322.73832059147
322.39657564245
322.06240527252
321.73550440205
321.41559179482
321.10239407389
320.79563538603
320.49510268271
320.2005537007
319.92366742829
321.92788694208
321.18840215065
320.17241539846
319.12544083013
318.04750465228
316.92425128089
315.72741020951
314.41415914088
312.93310615893
311.23418570483
309.29535968782
307.23051254226
305.44179796956
304.28076428268
303.65931928042
303.36139776313
303.24053800403
303.19171909278
303.17705250681
303.17333700751
303.17167375204
303.16964556432
303.1664410499
303.16172614106
303.1554407863
303.14749305418
303.13784179209
303.12637920477
303.11303705319
303.09780043618
303.08072140598
303.06194589972
303.04175817597
303.02044047868
302.99837379471
302.97600485933
302.94833469867
302.92659481605
302.9057251544
302.8861441126
302.86809175032
302.85189429952
302.83782373836
302.82602781718
302.81616921856
302.80766073511
302.80010157711
302.79340980535
302.78736366146
302.78167788737
302.77621073649
302.77088329904
302.76571544659
302.7608645411
302.7563615247
302.75229500076
302.74863037165
302.74578134052
302.74415067359
302.74359361333
302.74352125971
302.74416972465
302.74418301739
302.74346576814
302.74194262781
302.73962002712
302.73644958261
302.73209408871
302.74458121671
302.91695168776
305.08242364696
332.6198551049
372.40235240139
371.79695451251
370.99553708294
370.12171156179
369.22013890006
368.29084964442
367.32626767078
366.31449161104
365.23989193925
364.09416998142
362.8679101225
361.55928956927
360.17192825153
358.71783610907
357.21669251026
355.69054993986
354.16169880167
352.65090711762
351.1742768156
349.74316023027
348.36495597315
347.04418126557
345.78102335447
344.57612011713
343.42811725157
342.33458623336
341.29254702328
340.2994846025
339.35265794516
338.44884791822
337.5852542008
336.75931426156
335.96839440853
335.21036153227
334.48292250203
333.78423488322
333.11224313278
332.46552312022
331.84230712383
331.24130217444
330.66102893333
330.10037831227
329.5581175641
329.03322952224
328.52479042419
328.03182068473
327.55363375352
327.08929251369
326.6382777679
326.19974691661
325.77320733743
325.35798402587
324.95357982974
324.55947604367
324.17516284682
323.80024212343
323.43428262676
323.07691543017
322.72776126461
322.38647273369
322.052725304
321.72622374487
321.40669029569
321.09384047147
320.78741818801
320.4872080466
320.19295196593
319.92163657547
321.92973735006
321.17549874161
320.16112439549
319.1167711917
318.04284535256
316.92535133319
315.73637936549
314.43369546563
312.96657601759
311.28547771479
309.36737431371
307.31756270159
305.5221543525
304.34008771996
303.70044652686
303.39061431417
303.26217098905
303.21064595741
303.19569935907
303.1929326378
303.19265753907
303.19199560187
303.19002058377
303.1863922749
303.18100331684
303.17373818509
303.16459160096
303.15347420014
303.14033020874
303.12516092949
303.10804223578
303.0891377064
303.06873820666
303.04712114448
303.02467695759
303.00190026034
302.97379772808
302.95167126305
302.93045763292
302.91062627437
302.89243538977
302.87618463772
302.86211940406
302.8503558336
302.84050832099
302.83201496161
302.82450539485
302.81788958896
302.81183848308
302.80608731121
302.80052102348
302.79505497719
302.78970583269
302.78457433198
302.77966915763
302.7750745399
302.77073135897
302.76713738527
302.76457266627
302.76297677092
302.76178256776
302.76126930991
302.76005939901
302.75815918296
302.75554045376
302.75212159653
302.74770072286
302.74147476753
302.75303966204
302.92367552764
305.09370474441
332.8820427725
371.79419428484
370.24977651418
369.1966095261
368.32371025503
367.4845055268
366.64698542848
365.78709779667
364.89001784348
363.93390773389
362.90331359456
361.79111395559
360.59663445158
359.32236486272
357.97695886524
356.5768768551
355.14272313436
353.69511781126
352.25381112005
350.8359685689
349.45405003842
348.11696327327
346.8298718923
345.59586957933
344.41479722592
343.2865469297
342.20972050913
341.18221422736
340.20113458978
339.26444813402
338.36949613466
337.51356823728
336.69409851803
335.90891461311
335.15588710888
334.43283656833
333.737970905
333.06951436417
332.42585094373
331.80538940499
331.20687266383
330.62886405791
330.07024763708
329.52979770381
329.00664620005
328.4997024208
328.00819104146
327.53123358169
327.06814201834
326.61820415324
326.18070036035
325.75509596992
325.34073555626
324.93717089041
324.54381582521
324.16023731156
323.78597868716
323.42064949725
323.06386967127
322.71526223744
322.37449335323
322.04124327591
321.71521445648
321.396117357
321.08366567202
320.77764505085
320.47782463823
320.18397935155
319.91820134656
321.93099182408
321.15964171372
320.14723865598
319.10610633227
318.03709031359
316.92662198985
315.74723057273
314.45740024157
313.00723865014
311.34786764036
309.45517786663
307.42450580998
305.6222939624
304.41476754864
303.75241712483
303.42751988359
303.28964583137
303.23440027448
303.21882546955
303.21704530568
303.21835744683
303.21930986792
303.21878791456
303.21642861398
303.21206724571
303.20557646422
303.19696716921
303.18618882219
303.17320068535
303.15802432348
303.14076247112
303.12160080295
303.10084808111
303.07878342441
303.05579395375
303.03240814032
303.00374571312
302.98103333676
302.95929571947
302.93903511549
302.9205337624
302.90407795067
302.88989418574
302.87806333953
302.86814137423
302.85958773106
302.8520592446
302.84543491712
302.83926781708
302.83336057326
302.82757120898
302.82178428289
302.81603119966
302.81034466858
302.80472416145
302.7992641177
302.79392247941
302.78925402847
302.78540859035
302.78246588202
302.77986871653
302.77792168962
302.77536924699
302.77219060524
302.76826792833
302.76348589515
302.75754625985
302.74909066154
302.75937628895
302.92715830944
305.09794368008
333.20432203488
362.98280909519
366.59059489575
366.33285016374
365.91577551206
365.42948270401
364.85721373369
364.20283112459
363.47617314766
362.68065699377
361.8112210976
360.85549387657
359.81028643109
358.6796310567
357.4689323988
356.19073075287
354.86358140186
353.50752017811
352.14179279771
350.78433665873
349.44995543866
348.14932508949
346.8900365272
345.67625229584
344.51085660091
343.39381622475
342.32424925331
341.30173346735
340.32411700317
339.38929395028
338.49464226392
337.63843082876
336.8182381078
336.03170599495
335.27681203161
334.55184572682
333.85487087699
333.18411102287
332.5380991946
331.91535589511
331.31445158197
330.73406935364
330.17312757248
329.63045006074
329.10504268958
328.59589811145
328.10227725334
327.62327184434
327.15819109261
326.7062720363
326.26691019787
325.83948685497
325.423382519
325.0180960256
324.62308651709
324.23794810296
323.86218475455
323.49538720581
323.1371670015
322.78717849156
322.44508561747
322.11055286824
321.78327490751
321.46297993753
321.14940752923
320.84228206086
320.54131800179
320.24637245098
319.94180080074
321.73676532419
321.38455202776
320.38627331833
319.35496512538
318.29894355462
317.20841410884
316.06004677571
314.81628712236
313.42956571655
311.85048340341
310.0439372539
308.0522638312
306.14997982317
304.75646009388
303.94833626191
303.53562895105
303.32329289179
303.26309701936
303.24637159554
303.24548806985
303.2485026979
303.25125843548
303.25237173971
303.25142142465
303.24818020401
303.24251699782
303.23444354713
303.22395932429
303.21104646226
303.19575117124
303.17820615577
303.15862215122
303.13733420339
303.11464532052
303.09093842607
303.06667369398
303.05544857707
303.03139565887
303.0085339003
302.98731836335
302.96805409728
302.95102606802
302.93641006012
302.92424006533
302.913984273
302.90511718181
302.89730109653
302.8902828039
302.88353262691
302.8769085375
302.87021421929
302.86327172975
302.85613608709
302.84876910946
302.84123884358
302.83368374375
302.82611614395
302.81944614646
302.8135531006
302.80858974485
302.80392119264
302.79974280761
302.79478842323
302.78912075951
302.7826643677
302.77527128157
302.76656579247
302.75419993088
302.76177281736
302.92316881197
305.09083632548
333.83495084499
353.84542304352
359.05726716844
359.8885426737
360.2815102412
360.44523413485
360.42294386606
360.21562177683
359.85622723881
359.36621360607
358.76246155616
358.05118567039
357.24186912013
356.33973379952
355.34768772304
354.27659205704
353.14321438142
351.96552483787
350.76170780467
349.54897319784
348.34275157909
347.15517441591
345.99475051556
344.86750752254
343.77713213853
342.72577074397
341.71418316783
340.74228566355
339.80867341618
338.91285706193
338.05319046071
337.22796614788
336.4350815888
335.6731467017
334.94053740145
334.23554430712
333.55645389643
332.90202458619
332.27090664256
331.66170217804
331.07311111123
330.50406586151
329.95355183966
329.42050977734
328.90394398018
328.40305669404
327.91706915618
327.44522564427
326.98676600309
326.54105664928
326.1075070911
325.68551876278
325.27454093964
324.87403707371
324.48358238014
324.10271592022
323.73102777358
323.3680972874
323.01354434129
322.66703400638
322.32823579929
321.99684551548
321.67255709337
321.35510907382
321.04425846943
320.73975861846
320.4413424951
320.14880056912
319.91515221207
321.92210006387
321.09367485301
320.08953080955
319.06195893783
318.01285655149
316.93041666117
315.78910874235
314.55030180613
313.16750584216
311.5946940146
309.804644096
307.85847218687
306.04495257639
304.7400118854
303.98181758621
303.5907197994
303.41109186005
303.33631648652
303.31490332269
303.31493453519
303.32130848684
303.32797937379
303.33274812728
303.33489599837
303.33405088315
303.3300730556
303.3229782832
303.31283331848
303.29972836672
303.28376715297
303.26514174617
303.24412585986
303.2211174678
303.19650814525
303.17073700653
303.14426627172
303.13244275082
303.10593608319
303.08071977943
303.05737069075
303.03626417882
303.01766430671
303.00164745129
302.98817923909
302.97666902539
302.96653334585
302.95740453949
302.94879153223
302.94016271494
302.93124257422
302.92174786371
302.91150771629
302.9007540644
302.88972237866
302.87869517622
302.86757210983
302.85635390964
302.84589912099
302.83557952355
302.82580371288
302.81602563205
302.80647537577
302.79618393315
302.78532782103
302.7737820865
302.76117754138
302.74734164502
302.72889127639
302.72933244965
302.87703687177
305.02885427149
335.05410602778
349.45038046528
354.04438398804
355.0789705227
355.72945189103
356.15472291239
356.42045263103
356.52021437961
356.47141450253
356.26980441573
355.93130942558
355.47052913752
354.89919513607
354.2162910211
353.43726371657
352.57296115634
351.6339171643
350.63545461704
349.59448232449
348.52706277926
347.44808580758
346.37053554523
345.30535254635
344.26029214015
343.24090520449
342.25048284262
341.29152372151
340.36505275412
339.47114042101
338.60967290751
337.7796414253
336.97989559003
336.2097959637
335.46789693951
334.75303137371
334.06352738206
333.39830033003
332.75631174525
332.13624489388
331.53687590648
330.95709085401
330.39608778248
329.85277892422
329.32623887571
328.81553308087
328.32004897284
327.83897881476
327.37160414409
326.91721796852
326.47525248486
326.04515501271
325.62634236899
325.21827464041
324.82047289957
324.43252960986
324.05400855993
323.68449291845
323.32358839525
322.97094466439
322.62623426636
322.28912591153
321.95930547316
321.63649588674
321.32043695384
321.01089317989
320.70765972675
320.4104405427
320.11897603206
319.93125180625
321.90629280499
321.0361112449
320.03759955531
319.02194439817
317.99008391244
316.9313382907
315.82204363199
314.62610198627
313.29992881465
311.80004644097
310.09784655755
308.23211465654
306.42984104783
305.05198924907
304.20748188074
303.75254364973
303.53118469772
303.43372223953
303.40284790585
303.40141606562
303.41029084862
303.42079825049
303.42943766131
303.43486432284
303.43647303684
303.43408186581
303.42771305022
303.41747234162
303.40357490124
303.38622561552
303.36569703236
303.34235325725
303.31668083755
303.28916300967
303.26030983419
303.23066552922
303.21615764471
303.1861526666
303.15751071408
303.13090312396
303.10681817909
303.08557897521
303.06718399011
303.05138799406
303.03756416707
303.02498569595
303.01316543894
303.0012981265
302.98883939676
302.97533408786
302.96083296919
302.9458352574
302.93023099256
302.91387716546
302.89661962791
302.87848222182
302.85982744382
302.84127606393
302.8225024108
302.80401292721
302.78543765167
302.767017408
302.74800544417
302.72859532763
302.70864489499
302.68771231522
302.66612924457
302.64177429736
302.62400404954
302.75152896089
304.85836883201
336.84440469316
346.74554480238
350.43033030274
351.45733754161
352.1520907304
352.66640870583
353.05033993133
353.30218853583
353.41881835087
353.41223189502
353.26994522487
352.99757658551
352.61007335785
352.12612993869
351.53275140932
350.84365962619
350.07676884422
349.24168325296
348.35239910073
347.42424345852
346.47134053766
345.50616741607
344.53920871369
343.57994926761
342.6353425832
341.71037566211
340.80825477637
339.9312175247
339.0806149649
338.25698128667
337.46022507397
336.69010013627
335.94602558016
335.22691841673
334.53195482738
333.8605375458
333.21148488618
332.58392900761
331.97657519299
331.38863028477
330.81940405814
330.26782253301
329.73305851174
329.21415655807
328.71058135512
328.22155552745
327.74637577503
327.28432574588
326.83482794842
326.39741605498
325.97146795664
325.55647602668
325.15190499474
324.7573660664
324.37246154309
323.99675194376
323.62984248067
323.2713557519
322.92098428723
322.57840699808
322.24329998739
321.9153604472
321.59430393497
321.27989218759
320.97193466061
320.67015757394
320.37433898509
320.08398643447
320.00694807574
321.86973012132
320.96806114613
319.97544285329
318.97307228185
317.96088821988
316.92894133914
315.85568295331
314.70797823241
313.44554167382
312.02783529752
310.4257635507
308.65922757974
306.89294245162
305.44988835085
304.50493572089
303.96887510129
303.69204355897
303.56135275818
303.51411853786
303.50712047557
303.51640996188
303.52991046227
303.54217305607
303.55081933335
303.55478118439
303.55375903631
303.54773966151
303.53687362416
303.52145593279
303.50186407177
303.47847935622
303.45178720026
303.42238634053
303.39085614369
303.35777695428
303.32378693343
303.30476578678
303.27016463951
303.2370072859
303.20601938207
303.17779120611
303.15270800632
303.13072120596
303.11135496603
303.09380999574
303.07713355228
303.06055021955
303.04296625029
303.02414855285
303.00447175694
302.9832631592
302.95995431667
302.93451340618
302.90706451071
302.87763505707
302.84651696291
302.81434420277
302.78141360814
302.74820054059
302.7149956426
302.68173580247
302.64841045392
302.61470736903
302.58057643032
302.54608126598
302.51075925789
302.47513012156
302.43711809644
302.39405425973
302.48849243522
304.47782920838
338.86460510493
345.17463775523
347.55952069839
348.5994191708
349.26397719947
349.7961370072
350.21968201096
350.53843393187
350.75735216351
350.84877967025
350.83849892976
350.71268093226
350.46872943418
350.11838445011
349.67996669111
349.14917277055
348.52699826618
347.8334619777
347.08097403504
346.28070265348
345.44535524129
344.58744573154
343.71778419558
342.84489778782
341.9764919428
341.11857554612
340.275490414
339.45039987294
338.64553406811
337.8622114982
337.10116272445
336.36264810343
335.64653993581
334.95255693448
334.28024186378
333.62888556288
332.99758187644
332.38590864498
331.79316125245
331.21837097916
330.66100944231
330.11997127979
329.59471239185
329.08474210657
328.58924306192
328.10763974731
327.63912022828
327.18322523928
326.73949972764
326.30731973616
325.8862065936
325.47561100939
325.07515917152
324.68447853384
324.30311734078
323.93068887371
323.5667978421
323.21117140424
322.8634735267
322.52337684129
322.19058817253
321.86481268802
321.5458191108
321.23339772185
320.92723499186
320.62713298274
320.3328288073
320.04348016266
320.18040148789
321.80581353184
320.88616676164
319.90214404795
318.91462363535
317.92392934103
316.92102655568
315.88662902549
314.79090091595
313.59714649088
312.26799494385
310.77484784241
309.12344892954
307.42304049168
305.93756352226
304.88703972082
304.25310335059
303.90511524559
303.72826384886
303.65542192208
303.63670612123
303.64274566196
303.65731139463
303.67225379327
303.6836586636
303.68964844671
303.68962272981
303.68344998888
303.67129901
303.65353934633
303.63070319539
303.60335587946
303.57211338311
303.53769410051
303.50082486698
303.4622166637
303.42261090363
303.39744592628
303.35707323645
303.31830778457
303.28184786178
303.24833964653
303.21820003632
303.19129339628
303.16685109268
303.14374110155
303.1205659408
303.09629361559
303.07081304417
303.04359994687
303.01309356564
302.97840884728
302.93941079466
302.8962991137
302.84929109963
302.79901511722
302.74577856106
302.69008910727
302.63249462478
302.57339629388
302.51299797579
302.45237316143
302.39067855056
302.32868437237
302.26582941881
302.20349280416
302.14002279823
302.07736634205
302.01144954571
301.93073030232
301.9760327787
303.73836198069
339.87490615627
344.40868356315
345.14961880822
346.24706766817
346.86875921635
347.38090590259
347.81016037763
348.15602852192
348.42318292573
348.58291563622
348.64309586361
348.61863261145
348.48831891953
348.23414293081
347.91261048281
347.50630379152
347.01590319351
346.44460226973
345.80799315996
345.12208973207
344.39504739367
343.63701215062
342.85879988581
342.0696011535
341.27650567383
340.48584198114
339.70270458879
338.93085186891
338.17321949544
337.43183107483
336.70805527137
336.00275617115
335.31637874018
334.64897991056
334.00042532931
333.37042030581
332.75863566382
332.16460375379
331.58761100082
331.02695102783
330.48244217376
329.95330531831
329.43894278364
328.93887613944
328.45225921565
327.97863543859
327.51770201913
327.06880861625
326.63149109908
326.20515256627
325.78935099445
325.38381815071
324.98808237521
324.6017442838
324.22439514143
323.85564749926
323.49527913219
323.14292154311
322.79826135809
322.46099685538
322.13083341614
321.80756695172
321.49095089455
321.18069584631
320.87654560849
320.57829464261
320.28577332543
319.99773171839
320.48457083195
321.72503897573
320.78992534172
319.81631310654
318.8453419782
317.8775335739
316.90509681797
315.91119269924
314.86950574137