/*--------------------------------*- C++ -*----------------------------------*\
| =========                 |                                                 |
| \\      /  F ield         | OpenFOAM: The Open Source CFD Toolbox           |
|  \\    /   O peration     | Version:  2312                                  |
|   \\  /    A nd           | Website:  www.openfoam.com                      |
|    \\/     M anipulation  |                                                 |
\*---------------------------------------------------------------------------*/
FoamFile
{
    version     2.0;
    format      ascii;
    arch        "LSB;label=32;scalar=64";
    class       volScalarField;
    location    "0.0001";
    object      TpSat;
}
// * * * * * * * * * * * * * * * * * * * * * * * * * * * * * * * * * * * * * //

dimensions      [0 0 0 1 0 0 0];

internalField   nonuniform List<scalar> 
109340
(
372.99991101688
372.99865622411
372.9964498759
372.9936369128
372.99062623778
372.98761293726
372.98466920307
372.98183113204
372.97905990499
372.97627707396
372.97348907715
372.97069887818
372.96790335207
372.96509482608
372.96226281538
372.95939389644
372.9564709632
372.95347268696
372.95037211524
372.94713549963
372.94372076062
372.94007655696
372.93613929041
372.93182832182
372.92704048471
372.92164183112
372.91545615732
372.90824808762
372.89969668963
372.88935304414
372.8765683082
372.86036493384
372.83919430004
372.8104623352
372.76951880286
372.70760624813
372.99971128696
372.99804349237
372.99549695579
372.9926273595
372.98968261274
372.98675922808
372.98387787862
372.98102838869
372.9782053144
372.9753968661
372.9725952619
372.96979578233
372.96699190194
372.96417472452
372.96133264231
372.95845133243
372.95551321447
372.95249564184
372.94936997786
372.94610061089
372.9426435362
372.93894477185
372.93493724983
372.93053554715
372.92562991444
372.9200772762
372.91368877036
372.90621090007
372.89729600025
372.88645413383
372.87297013847
372.85575111822
372.83302850164
372.80175121942
372.7561642601
372.68481437283
372.99975108618
372.99777765238
372.99513355423
372.99231271912
372.98942352764
372.98651940614
372.98361268392
372.98072057471
372.97785640095
372.97501724364
372.97219441415
372.96938053043
372.96656752705
372.96374579056
372.96090371246
372.95802708647
372.95509836504
372.95209514944
372.94898896421
372.94574459731
372.9423180293
372.93865581131
372.9346914024
372.9303395184
372.92549035833
372.92000061932
372.91368138039
372.90627906851
372.89744590674
372.88669163694
372.87330026492
372.85617462175
372.83351915612
372.80216721801
372.75589422528
372.68103426136
372.99971234775
372.99742040046
372.99464411376
372.99173048508
372.98877682752
372.98581005186
372.98284653134
372.97990149166
372.97698678775
372.9741065254
372.9712569051
372.96843140676
372.96562157008
372.96281793319
372.9600107816
372.95718642171
372.95432814046
372.95141423851
372.94841685165
372.94530225843
372.94202687753
372.93853739549
372.93476628588
372.93062697854
372.92600764427
372.92076261304
372.91470000049
372.90756256151
372.89899781036
372.88850867112
372.87536862763
372.85846301518
372.8359379362
372.80443620071
372.75695505664
372.6756822605
372.9994986964
372.9964514983
372.99304328772
372.98970888891
372.98645285094
372.98327256235
372.98017954878
372.97720189629
372.97435925503
372.97164642484
372.96906660823
372.96661914111
372.96429671117
372.96209050481
372.95999076876
372.9579852159
372.95605836004
372.95419000396
372.95234990686
372.95050752515
372.94858459096
372.94650433646
372.94418132699
372.94151234964
372.93837024571
372.9345902204
372.92995719969
372.92418460146
372.91687941735
372.90748800764
372.89519889403
372.87878071086
372.85614494877
372.82343995114
372.77208642142
372.6756580805
373.0033651942
373.01759802718
373.03292406201
373.04813472228
373.06279836179
373.07667764676
373.08964544375
373.10164744524
373.112672985
373.12273106909
373.13184472826
373.14004053071
373.14734449418
373.1537804009
373.1593670124
373.16411733396
373.16803835854
373.17113421921
373.17345530598
373.17511854921
373.17611443809
373.17639089868
373.1758703528
373.17442690041
373.17194064946
373.16819122229
373.16289059033
373.15564366397
373.1458957632
373.13285085255
373.11532191263
373.09150442072
373.05827297693
373.009787238
372.93251142423
372.77637513446
372.60935109832
372.4545489302
372.21762436142
371.87893052256
371.4276316214
370.85309986305
370.14175019645
369.28048478466
368.25708847993
367.06637508818
365.70719981154
364.19482297349
362.57720935468
360.87338924034
359.1296016425
357.37770880078
355.64765076657
353.96157706715
352.33333240873
350.77238057721
349.28403623589
347.86877789513
346.52565295085
345.25237531818
344.0451773893
342.9012021934
341.81504325255
340.78040293985
339.80238254133
338.86478222025
337.97666966625
337.12483608757
336.31284649524
335.53482522135
334.78921047866
334.07437023126
333.38721759116
332.72661418585
332.09127269878
331.47745097439
330.8877065225
330.31502004495
329.7656220794
329.22946693979
328.71538213181
328.21246478317
327.72904647487
327.25714651141
326.80032511275
326.35622141159
325.92364395005
325.50327071185
325.09397515133
324.69534971781
324.30677458766
323.92782145717
323.55801286666
323.1969768332
322.84433690401
322.49974581312
322.16285781827
321.83336428876
321.51097901543
321.19542953919
320.886456215
320.58379832565
320.28718911992
319.98300827326
321.63275548906
321.4525639116
320.44912900712
319.4052779247
318.33002215007
317.21141341311
316.0243746743
314.72850889733
313.27271773862
311.60441587389
309.68988742887
307.6018242193
305.69979999361
304.40840860112
303.70523393905
303.36480793287
303.20920006174
303.16408852384
303.14947686982
303.14410784974
303.14018593549
303.13598963138
303.13086537961
303.12444203873
303.11670520193
303.1076227224
303.09707627766
303.08494867971
303.07115259857
303.05565667295
303.03846563364
303.01972257773
302.99971150748
302.97872460878
302.95709307023
302.93519254203
302.90808107664
302.88677159957
302.86622888651
302.84682693553
302.82873194102
302.81232511235
302.79796959723
302.78592283749
302.77594245727
302.76736595244
302.75958680494
302.75264092582
302.74652466077
302.74092156735
302.73554133386
302.73029239892
302.72526790268
302.72068434402
302.71666802997
302.71326699953
302.71051964721
302.70863024439
302.70798618895
302.70860636981
302.7101621785
302.71228443534
302.71411912003
302.71516926152
302.71543396779
302.71504961184
302.71407522897
302.71293487451
302.72686110386
302.90343382708
305.02771133268
331.75592498346
372.56606736318
372.3730870833
372.07901745434
371.67149256161
371.14449582397
370.48834888048
369.69536742136
368.75731152738
367.66927202822
366.43131795561
365.04787744475
363.53542126072
361.92492511645
360.24720331185
358.53282827489
356.81274549053
355.11456054657
353.45876216995
351.85991867941
350.32688026218
348.8641240139
347.47301597722
346.15248935528
344.89999163433
343.71253755454
342.58590851983
341.5163089722
340.49961527947
339.53252547443
338.61138022881
337.73259136207
336.8938152206
336.09135784051
335.32349195132
334.58698751832
333.88052649468
333.20132240943
332.54838001321
331.91925809058
331.31317588643
330.72805633216
330.16324910026
329.6169701847
329.08864389112
328.57688665135
328.0809795235
327.60000432748
327.13311541382
326.679768957
326.23906469992
325.81050170916
325.39331905419
324.9871528494
324.59139107247
324.20559314761
323.82926066238
323.46198527955
323.10335641993
322.7530097585
322.4105964979
322.07580031358
321.74831644064
321.42785693392
321.11414551268
320.80691920809
320.50593048651
320.21098486993
319.92796622944
321.92550691555
321.2051368621
320.1870909283
319.13670816419
318.05355469657
316.92276878803
315.71560012629
314.38846066482
312.88911437762
311.16685162549
309.20107026338
307.11749113969
305.33899565031
304.20561599135
303.60739717956
303.32448912939
303.21402688735
303.1682839934
303.1536913205
303.14859940553
303.14504330276
303.14119916916
303.13638407886
303.13022641282
303.12271812496
303.1138296036
303.10343640981
303.09141967679
303.07770088874
303.06225444118
303.04509166222
303.02635560932
303.00632813634
302.98529666969
302.96360668455
302.94164268654
302.91445546411
302.89309579422
302.87252870308
302.85313332088
302.83508758376
302.81875312475
302.80447056501
302.79248691382
302.78254225817
302.77398806565
302.76624542588
302.75933173841
302.75322193395
302.74759124739
302.74218282913
302.7369193021
302.73187816647
302.72727324698
302.72318711374
302.71967865902
302.71677865822
302.7147527824
302.71399300499
302.71446857152
302.7157708479
302.71766752569
302.71922591998
302.7200150903
302.72001038561
302.7193166936
302.71796722523
302.71621814318
302.72980451844
302.90516400227
305.03294697837
331.87825047382
372.54656347845
372.31203087238
371.95344766968
371.46258453844
370.85072988445
370.11239982169
369.24879497905
368.25799713385
367.13982829808
365.89396802222
364.52910075322
363.05675951674
361.49341439885
359.8660837261
358.20217594515
356.52943685102
354.87351461629
353.25482205813
351.68762858821
350.18069122044
348.73932670799
347.36589647959
346.05976463475
344.81906390758
343.64108139437
342.52241475215
341.45967953093
340.4491676123
339.48706273667
338.57023354174
337.69534963442
336.85958460872
336.06026065829
335.29461846869
334.56065135643
333.85588587193
333.17877285565
332.52715989999
331.89975163171
331.29476546728
330.71105786764
330.14716990764
329.60199586693
329.07452836607
328.56358833206
328.06853710749
327.58815975119
327.12211487399
326.66923012696
326.22920976755
325.80110551005
325.38453987704
324.97880861298
324.58344993581
324.19802676101
323.82206090861
323.45513943944
323.09684137386
322.74680217298
322.40467653849
322.0701532603
321.74292482745
321.42270231372
321.10921181535
320.80218665516
320.50139055352
320.20661734569
319.9258677541
321.92629007673
321.19834360349
320.1810921654
319.1320966831
318.05107685933
316.92338002219
315.72045405266
314.39902293827
312.90719167669
311.19450868097
309.23976176233
307.16373205984
305.38084729437
304.23611049259
303.62844416634
303.33945200444
303.2245276759
303.17758538121
303.16299821855
303.15847857719
303.15570199582
303.15260301809
303.14843812367
303.142861878
303.13585449888
303.12735199009
303.11727103252
303.1054946277
303.09194628763
303.07659836889
303.05948493193
303.04074834552
303.02067292435
302.99954016402
302.97771893556
302.95561570449
302.92825681135
302.90676261428
302.88610172614
302.86665058397
302.84862925806
302.83238350359
302.81822230731
302.80633725549
302.79642716514
302.78787324772
302.78021575058
302.77340704769
302.7673305358
302.76167230155
302.75624878429
302.75098354719
302.74590702887
302.74121660505
302.73696712434
302.73324421059
302.73003804218
302.72768434583
302.72663266359
302.72674833825
302.72748498741
302.72892752097
302.72983567406
302.73002362772
302.72941938725
302.72806360999
302.72592756762
302.72304207509
302.73617358183
302.90950594825
305.06248417407
332.34025662018
372.50734394932
372.17764351434
371.68033055162
371.03963172375
370.28682569775
369.43403709634
368.48855040136
367.45439166448
366.32773229135
365.10515743912
363.79336030759
362.39051171617
360.90515207749
359.35504951482
357.76331216619
356.15587657441
354.5562458149
352.98542648181
351.45859188323
349.9858137869
348.57308200235
347.22247378325
345.93559945468
344.71103298005
343.54622059924
342.43845064775
341.38475096863
340.3819901944
339.42668501232
338.51558688087
337.6458559078
336.81438654786
336.01889440207
335.25665183602
334.52563724225
333.82359739665
333.14882974887
332.49937905253
331.87390990089
331.27068694825
330.6885896987
330.12608119373
329.58231976236
329.05593160147
328.54620036598
328.05201133287
327.57268286732
327.10737566236
326.65533673713
326.21599984945
325.78858696136
325.37266396666
324.96752393905
324.57274345394
324.18780932217
323.81231745556
323.44583542734
323.08795893601
322.73832160882
322.39657735535
322.06240711093
321.73550612488
321.41559291414
321.10239452973
320.79563507254
320.4951013986
320.2005507632
319.92373429423
321.92805832692
321.18840683055
320.17241848097
319.12544342529
318.04750646197
316.92425252633
315.72741126131
314.4141601139
312.93310695902
311.23418608286
309.2953590672
307.23051021481
305.44179561417
304.28076231964
303.65931683723
303.36139468367
303.24053625173
303.19171696489
303.17705011647
303.17333441668
303.1716710344
303.16964288207
303.16643850314
303.1617238143
303.1554387546
303.14749139166
303.1378405304
303.12637834162
303.11303655396
303.09780024625
303.08072145978
303.06194611773
303.04175848496
303.0204408309
302.99837414596
302.97600517747
302.94833497578
302.92659505754
302.9057253849
302.88614433394
302.86809194397
302.8518944909
302.83782396098
302.82602803804
302.81616965207
302.80766127593
302.80010216266
302.79341049002
302.78736451543
302.78167889121
302.77621190725
302.77088467039
302.76571704501
302.76086645891
302.75636384554
302.7522978451
302.74863383046
302.74578559122
302.74415586491
302.74359977826
302.74352829905
302.74417746993
302.74419115387
302.7434739617
302.74195075548
302.7396280736
302.73645749839
302.73210174987
302.74458833942
302.9169575388
305.0824235394
332.61987780593
372.40235240139
371.79695450306
370.99553709676
370.12171153563
369.22014699356
368.29084939482
367.32626873437
366.3144913989
365.23989123652
364.09417051207
362.8679101225
361.55928968962
360.17192790136
358.71783614259
357.21669215924
355.69054938405
354.16169919381
352.65090675449
351.174275682
349.74315978741
348.36495554047
347.04417957608
345.78102191819
344.57612008225
343.4281172007
342.33458580473
341.29254621482
340.29948512372
339.3526598039
338.4488430318
337.58525856365
336.75930853079
335.96840113676
335.21035615133
334.48292737531
333.78422905514
333.11224904592
332.46551662662
331.84231109875
331.24129211065
330.66103216931
330.10036803382
329.55811977339
329.03322141206
328.52479120324
328.0318187153
327.55363161656
327.08929502871
326.63827123953
326.19975063807
325.77320032536
325.35798561071
324.95357549093
324.55947534948
324.1751613594
323.80024012369
323.43428222051
323.07691516994
322.72776245154
322.38647441501
322.05272747534
321.72622577477
321.40669193498
321.09384162075
320.78741899522
320.48720918585
320.19295093761
319.92171724911
321.92990361524
321.17550317811
320.16112741233
319.11677377995
318.04284720478
316.92535260134
315.73638040023
314.43369640744
312.9665768031
311.28547810122
309.36737372978
307.3175604921
305.52215202152
304.34008582309
303.70044418525
303.39061133947
303.26216927254
303.21064386657
303.19569700664
303.19293008485
303.19265486576
303.19199295032
303.19001806149
303.18638996593
303.18100129641
303.17373652147
303.16459032446
303.15347330775
303.14032966602
303.12516068511
303.10804222818
303.08913786567
303.06873846806
303.04712145044
303.02467725918
303.00190052369
302.97379794239
302.95167144479
302.93045781471
302.91062646624
302.89243559465
302.87618486239
302.8621196454
302.85035615093
302.84050882001
302.83201555931
302.82450602996
302.81789034385
302.81183939786
302.80608836935
302.80052224189
302.79505639241
302.78970749079
302.78457631954
302.77967155065
302.77507746545
302.77073484604
302.76714172848
302.76457789808
302.76298293912
302.76178957545
302.76127691413
302.76006729818
302.7581671172
302.75554832897
302.75212931798
302.74770825585
302.74148200642
302.75304636745
302.92368109256
305.09370431455
332.88206558307
371.79419427211
370.2497764501
369.19660939998
368.32370999391
367.48450597615
366.64698689995
365.78709730082
364.89001737304
363.93390637656
362.90331302752
361.79111451917
360.5966345103
359.32236472426
357.97695881156
356.57687672478
355.14272310973
353.69511793209
352.25381043669
350.83596818641
349.45404953349
348.11696162259
346.82987034124
345.59586956851
344.41479741972
343.28654640637
342.20972082231
341.18221509667
340.20113402834
339.26444884899
338.36949439994
337.51356764389
336.69409955316
335.90891361528
335.15588933094
334.43283431716
333.73797421352
333.06951301249
332.42585216912
331.80538558447
331.20687034314
330.62886079639
330.0702425483
329.52979583394
329.00663955305
328.49970385785
328.00818522405
327.53123634299
327.06813771488
326.6182044771
326.18069866436
325.7550932151
325.34073591962
324.93716707869
324.5438165174
324.16023428795
323.78597803418
323.4206483217
323.06386955024
322.71526324838
322.37449497773
322.04124558762
321.71521672128
321.39611947458
321.08366739362
320.77764632998
320.47782313111
320.18397710069
319.91827428043
321.9311520553
321.15964593292
320.14724158156
319.10610887403
318.03709218181
316.9266232751
315.74723159022
314.45740114823
313.00723941247
311.34786802562
309.4551773296
307.42450378285
305.62229165972
304.41476572786
303.7524149071
303.42751703987
303.28964415692
303.23439823024
303.21882316575
303.2170428024
303.21835482635
303.21930726075
303.21878542658
303.21642633202
303.21206524482
303.20557480585
303.19696588166
303.18618790139
303.17320009909
303.15802402013
303.14076239227
303.12160088693
303.10084827673
303.07878367176
303.05579419371
303.03240833975
303.00374588909
302.98103350831
302.95929589028
302.93903529465
302.9205339606
302.90407815298
302.88989443494
302.87806367973
302.86814189117
302.85958836249
302.85205992539
302.8454357409
302.83926877727
302.83336167463
302.82757247309
302.82178574143
302.81603291331
302.81034671607
302.80472662302
302.79926710418
302.79392604859
302.78925842988
302.78541391552
302.7824721461
302.77987578706
302.77792935977
302.77537712654
302.77219838963
302.76827557851
302.76349340753
302.75755352217
302.74909755976
302.75938261075
302.92716353299
305.0979428778
333.20434475434
362.98280911579
366.59059479697
366.33285024436
365.9157755237
365.42948271765
364.85721389539
364.20283221636
363.47617214989
362.68065635228
361.81122082559
360.85549391485
359.81028672137
358.67963110902
357.46893219862
356.1907305281
354.86358153931
353.50752013283
352.14179225584
350.78433661287
349.44995504624
348.14932370265
346.89003572944
345.67625168226
344.51085497121
343.39381355297
342.3242488148
341.30173347708
340.32411583389
339.38929389799
338.49464197925
337.63842992529
336.81823941957
336.03170436356
335.27681426625
334.55184475673
333.85487511366
333.18410996341
332.53810137361
331.91535198398
331.3144513676
330.73406465024
330.17312503277
329.63044527227
329.10503876395
328.59589617692
328.10227333875
327.62327249362
327.15818705051
326.7062730758
326.26690716739
325.83948639859
325.42338144887
325.01809396302
324.62308675457
324.23794552527
323.8621844795
323.4953854175
323.13716673297
322.78717886047
322.44508670467
322.11055465422
321.78327662682
321.46298139272
321.14940784569
320.84228145152
320.54131724235
320.24637038331
319.94185243319
321.73734565997
321.38455806635
320.38627602173
319.35496768534
318.29894556636
317.20841554938
316.06004783149
314.81628801505
313.42956649216
311.85048390233
310.04393708994
308.05226227013
306.14997742492
304.75645830047
303.94833432655
303.53562642194
303.3232912716
303.26309503419
303.24636935463
303.24548563175
303.24850014496
303.25125588871
303.25236930054
303.25141918365
303.24817823436
303.24251535457
303.2344422559
303.22395838011
303.21104583474
303.19575080494
303.17820600038
303.15862215122
303.13733431837
303.11464550223
303.0909386153
303.06667384156
303.05544868183
303.03139577711
303.00853405795
302.98731854658
302.96805430797
302.95102630634
302.93641038253
302.92424050514
302.9139848611
302.90511785845
302.89730184838
302.8902836998
302.8835336461
302.87690969728
302.87021555847
302.86327327707
302.85613790857
302.84877127564
302.8412414404
302.83368685041
302.82611989652
302.81945065388
302.81355852709
302.80859612149
302.80392836652
302.79975050563
302.79479635762
302.78912858784
302.78267199538
302.77527870279
302.76657287564
302.75420653967
302.76177876597
302.92317365948
305.09083516426
333.83497331319
353.84542306393
359.05726646606
359.88854154472
360.28150946095
360.44523604852
360.42294432943
360.21562154915
359.85622687086
359.36621313656
358.76246101653
358.05118636344
357.2418695215
356.33973387487
355.34768740539
354.27659163769
353.14321456692
351.96552498388
350.7617077431
349.54897310535
348.34275101338
347.15517381484
345.99474978438
344.86750653249
343.77713168947
342.72577120615
341.71418316783
340.74228429073
339.80867242883
338.91285621183
338.05318894908
337.22796469553
336.43508045588
335.67314679588
334.94053698001
334.23554605551
333.55645406538
332.90202600948
332.27090644141
331.66170367048
331.07310923277
330.5040642913
329.95354760894
329.42050725026
328.90394081951
328.4030540864
327.91706683934
327.44522249555
326.98676489619
326.54105390862
326.10750654317
325.68551702694
325.27454034148
324.87403677601
324.48358112376
324.10271565521
323.73102600003
323.36809669867
323.01354365037
322.66703416027
322.32823678625
321.99684678829
321.67255890206
321.35511053893
321.0442592401
320.73975823247
320.44134181243
320.14879810865
319.91527252743
321.92222609076
321.0936781203
320.08953313115
319.0619611058
318.01285827764
316.9304179068
315.78910968647
314.55030257867
313.16750646698
311.59469431675
309.80464368962
307.85847050018
306.04495036556
304.74001030978
303.98181585462
303.59071750752
303.41109038614
303.33631466421
303.31490125947
303.3149322839
303.32130612569
303.32797700786
303.33274584836
303.33489389886
303.33404902581
303.3300714893
303.32297702547
303.31283235505
303.29972766795
303.28376668693
303.26514146407
303.24412571019
303.22111740318
303.19650813982
303.17073703994
303.14426630779
303.13244277604
303.10593613671
303.08071988776
303.05737087739
303.03626443891
303.01766460281
303.00164782072
302.98817975916
302.97666967596
302.96653407973
302.95740537327
302.9487924943
302.94016380649
302.93124382783
302.92174929507
302.91150937496
302.90075601999
302.88972470171
302.87869794981
302.86757541322
302.85635785649
302.8459038331
302.83558511879
302.8258102057
302.81603280921
302.8064829881
302.79619176839
302.78533563608
302.77378978522
302.76118494737
302.74734860587
302.72889762156
302.72933800311
302.87704129129
305.02885288875
335.05412457274
349.4503804845
354.04438492331
355.07896807376
355.72945335105
356.15472269986
356.42045422393
356.52021362261
356.47141380319
356.26980403363
355.93130965019
355.47055226838
354.89919915393
354.21629123448
353.43726435543
352.57296250972
351.6339161966
350.63545653488
349.59448366578
348.5270626109
347.44808592762
346.37053519569
345.30535101194
344.260290633
343.24090460278
342.25048240777
341.29152331491
340.36505285596
339.47114124775
338.60967275634
337.7796403333
336.97989470425
336.20979578132
335.46789666955
334.75303125696
334.06352778795
333.39830082591
332.75631205807
332.13624623292
331.53687621783
330.9570904405
330.39608565938
329.85277726653
329.32623676406
328.81553083889
328.32004643343
327.83897571987
327.37160214173
326.91721524343
326.47525104713
326.04515310479
325.62634132269
325.21827413541
324.82047210658
324.43252927437
324.0540071606
323.68449190333
323.32358712241
322.97094367086
322.62623395538
322.28912583105
321.95930637584
321.63649710497
321.32043837903
321.01089425895
320.7076604673
320.41044044944
320.11897495011
319.93151136959
321.90640186108
321.03611398663
320.03760149759
319.02194628118
317.99008545643
316.93133943093
315.82204448194
314.6261026293
313.29992927857
311.80004657366
310.09784613814
308.23211316518
306.4298390085
305.05198778854
304.20748052119
303.75254184089
303.53118341966
303.43372064523
303.40284609676
303.40141408682
303.41028876892
303.42079615846
303.42943564223
303.43486245664
303.43647138045
303.43408045895
303.42771189816
303.41747143938
303.40357422054
303.38622512073
303.3656966793
303.34235300184
303.31668064182
303.28916285936
303.26030971804
303.23066542962
303.21615759164
303.18615265196
303.15751075534
303.13090324919
303.10681839198
303.08557927803
303.06718439846
303.05138854493
303.03756484493
303.02498646454
303.01316632203
303.00129912841
302.98884053692
302.97533540308
302.96083449483
302.94583703206
302.93023309125
302.91387967046
302.89662262899
302.87848579297
302.85983170137
302.84128107947
302.82250827679
302.80401959197
302.78544496129
302.76702513865
302.74801343436
302.7286033801
302.70865289453
302.68772002817
302.66613648925
302.64178081701
302.62400963615
302.75153335865
304.85836756116
336.84442125373
346.74554493321
350.4303288209
351.45733856428
352.15209075532
352.66640865118
353.0503412896
353.30218848186
353.41881830596
353.41222988427
353.26994803592
352.99756170151
352.61013634699
352.12615140964
351.53274962473
350.84364483482
350.07677064896
349.24168281054
348.35240162814
347.42424329857
346.47133935188
345.50616735966
344.53920906299
343.57994895799
342.63534159898
341.71037468827
340.8082541215
339.93121736372
339.08061455075
338.2569805087
337.46022476299
336.69010010246
335.94602507517
335.22691691055
334.53195468145
333.86053822704
333.21148508836
332.58392898486
331.97657565787
331.38863071778
330.81940402824
330.26782247928
329.73305806552
329.21415507126
328.71057903911
328.22155264825
327.74637351083
327.28432359031
326.83482601769
326.39741401758
325.97146653761
325.55647496269
325.15190430564
324.75736546332
324.37246039334
323.9967509295
323.62984109355
323.2713543333
322.92098322866
322.57840588151
322.24329949672
321.9153604313
321.59430465508
321.27989333014
320.97193585932
320.67015835024
320.37433830426
320.08397413495
320.00743586447
321.86981241506
320.9680641219
319.97544472191
318.97307399755
317.96088960307
316.92894234871
315.85568366852
314.70797870091
313.44554191603
312.0278352434
310.42576299338
308.65922618546
306.89294049187
305.44988686216
304.50493469084
303.96887381827
303.69204250886
303.56135144665
303.51411705273
303.50711885211
303.51640825461
303.5299087426
303.54217139797
303.55081780102
303.55477983004
303.55375787507
303.54773870779
303.53687286842
303.52145534996
303.50186363197
303.47847901511
303.45178690845
303.42238610061
303.39085594932
303.35777679459
303.32378678143
303.30476569259
303.27016459413
303.23700730133
303.20601946249
303.17779134584
303.15270825925
303.13072158351
303.11135549771
303.09381066004
303.07713431879
303.06055110807
303.04296726958
303.02414972615
303.00447311899
302.98326473427
302.95995616106
302.93451563885
302.90706722097
302.87763831748
302.84652083755
302.8143487847
302.78141904075
302.74820682309
302.71500269945
302.68174351033
302.6484186098
302.61471578838
302.58058490586
302.54608966235
302.51076739454
302.47513785047
302.43712507915
302.39406021008
302.48849716382
304.47782877607
338.86461962354
345.17463792052
347.55952132798
348.59941939485
349.26397702929
349.79613853455
350.21968081588
350.53843442708
350.75735145192
350.84877797381
350.83849302576
350.71264641499
350.46875614137
350.11841197515
349.67989754241
349.14920577144
348.52698599541
347.83346322041
347.08097693961
346.28070222764
345.44535637099
344.58744456302
343.71778190054
342.84489691525
341.97649165539
341.11857488587
340.27548966225
339.45039905151
338.64553365515
337.86221192393
337.1011636999
336.3626482444
335.64653874524
334.95255563602
334.28024119343
333.62888480408
332.99758165399
332.38590831236
331.79316155062
331.21837112106
330.66101010044
330.11997224581
329.59471288318
329.08474133334
328.589241133
328.10763800724
327.63911892404
327.18322300679
326.73949756973
326.30731845089
325.88620560612
325.47560991363
325.07515817391
324.68447726313
324.30311607639
323.93068744425
323.56679643601
323.21117022378
322.86347223726
322.52337569804
322.19058709595
321.86481197915
321.54581923394
321.23339850078
320.92723561449
320.62713369235
320.33282991171
320.04351433395
320.18116716514
321.80586857743
320.88616882363
319.90214569344
318.91462519022
317.92393055533
316.92102743
315.88662958017
314.79090117155
313.5971464121
312.26799457232
310.77484701425
309.12344747146
307.42303853205
305.9375620679
304.88703887404
304.2531025511
303.90511441734
303.72826283579
303.65542080241
303.63670490939
303.64274439259
303.6573101198
303.67225256717
303.68365754504
303.68964745124
303.68962188903
303.68344930534
303.6712984723
303.65353893412
303.63070287488
303.60335561514
303.57211320833
303.53769394803
303.50082474043
303.46221654561
303.42261076866
303.39744582338
303.35707318235
303.31830778457
303.28184791472
303.24833976229
303.21820026866
303.19129376812
303.16685160822
303.14374172498
303.12056666391
303.09629446194
303.07081403241
303.04360110304
303.01309492157
302.97841040996
302.93941269095
302.89630148189
302.84929409058
302.79901872513
302.74578283578
302.69009415757
302.63250058114
302.5734031623
302.51300568362
302.45238154643
302.39068737805
302.32869341057
302.2658386113
302.20350197058
302.1400317812
302.07737486662
302.01145727816
301.9307368512
301.97603799144
303.73836261989
339.87491924363
344.4086839382
345.14961805032
346.24706757616
346.86876073624
347.38090443713
347.81015980862
348.15602877048
348.42318528432
348.58291504048
348.64309603026
348.61859885162
348.48837267137
348.23430979226
347.91257623452
347.50631846897
347.01593340602
346.44460012121
345.807981884
345.12208933601
344.39504979691
343.63701100382
342.85879810104
342.06959962073
341.27650358885
340.48584007179
339.7027035981
338.9308513737
338.17321959211
337.43183193836
336.70805571599
336.00275560546
335.31637772064
334.64897892207
334.00042390392
333.37041843736
332.75863351416
332.16460233402
331.58760978603
331.02695049367
330.48244232867
329.95330605302
329.43894397826
328.93887588661
328.45225876199
327.97863363376
327.51769948913
327.06880605801
326.63148900209
326.2051508045
325.78935051599
325.38381733122
324.98808121555
324.60174274169
324.22439364721
323.85564591052
323.49527770774
323.14292021291
322.79826029862
322.46099563125
322.13083211937
321.80756601786
321.49095060735
321.18069682388
320.8765473336
320.57829648996
320.28577460101
319.9977288869
320.4859461193
321.72507746274
320.78992671142
319.8163143859
318.84534332032
317.87753467363
316.90509755467
315.91119308382