/*--------------------------------*- C++ -*----------------------------------*\
| =========                 |                                                 |
| \\      /  F ield         | OpenFOAM: The Open Source CFD Toolbox           |
|  \\    /   O peration     | Version:  2312                                  |
|   \\  /    A nd           | Website:  www.openfoam.com                      |
|    \\/     M anipulation  |                                                 |
\*---------------------------------------------------------------------------*/
FoamFile
{
    version     2.0;
    format      ascii;
    arch        "LSB;label=32;scalar=64";
    class       volScalarField;
    location    "0.0001";
    object      Y.Liq;
}
// * * * * * * * * * * * * * * * * * * * * * * * * * * * * * * * * * * * * * //

dimensions      [0 0 0 0 0 0 0];

internalField   nonuniform List<scalar> 
109340
(
0.99999
0.99999
0.99999
0.99999
0.99998999999996
0.9999899999988
0.99998999996574
0.9999899993521
0.9999899957231
0.9999899843933
0.99998995866165
0.99998990993486
0.99998982781848
0.99998970011054
0.99998951268087
0.99998924922271
0.9999888908191
0.99998841529113
0.99998779626218
0.99998700186904
0.99998599301815
0.99998472114663
0.99998312531034
0.99998112832439
0.99997863143065
0.99997550685124
0.99997158706607
0.99996664886097
0.99996038866012
0.99995238262182
0.99994201877204
0.99992837455133
0.99990998104452
0.99988434124523
0.9998468899284
0.99978861582642
0.99999
0.99999
0.99999
0.99999
0.99998999999993
0.99998999999804
0.99998999994429
0.99998999905036
0.99998999436586
0.99998998068781
0.99998995080951
0.99998989566295
0.99998980438581
0.99998966429073
0.99998946071812
0.99998917673916
0.99998879269145
0.99998828546196
0.99998762745982
0.9999867852205
0.9999857175526
0.99998437313919
0.99998268742696
0.99998057846664
0.99997794113486
0.99997463900778
0.99997049258443
0.99996526160904
0.99995861743979
0.99995009781518
0.99993902870412
0.99992438039174
0.99990448128919
0.99987640811993
0.99983455889819
0.99976722862172
0.99999
0.99999
0.99999
0.99999
0.99998999999997
0.99998999999914
0.99998999997099
0.99998999926708
0.99998999504409
0.99998998209587
0.99998995317973
0.99998989918556
0.99998980920995
0.99998967052922
0.99998946845553
0.99998918604876
0.99998880364736
0.99998829815727
0.99998764201615
0.99998680179579
0.99998573632655
0.99998439428581
0.99998271110792
0.99998060480405
0.99997797019863
0.99997467078696
0.9999705269514
0.99996529830649
0.99995865610763
0.99995013800096
0.99993906978447
0.99992442061335
0.99990450838047
0.99987634531609
0.99983399241585
0.99976393827526
0.99999
0.99999
0.99999
0.99999
0.99998999999999
0.99998999999982
0.99998999999132
0.99998999948085
0.99998999576782
0.99998998365342
0.9999899558582
0.99998990322828
0.99998981481793
0.99998967786155
0.99998947762335
0.99998919710495
0.99998881657427
0.99998831285002
0.99998765824744
0.99998681916626
0.99998575415468
0.99998441145072
0.99998272587388
0.99998061456833
0.9999779711619
0.9999746574752
0.99997049154626
0.99996522970497
0.99995853858998
0.9999499492428
0.99993877750984
0.99992397673485
0.99990382859223
0.99987522283453
0.99983167269533
0.99975640449962
0.99999
0.99999
0.99999
0.99999
0.99999
0.99998999999999
0.99998999999882
0.99998999962165
0.99998999636767
0.99998998512358
0.99998995858597
0.99998990748195
0.99998982064736
0.99998968500199
0.99998948535588
0.99998920406682
0.9999888205249
0.99998831037953
0.99998764424741
0.99998678645404
0.99998569255835
0.99998430666337
0.99998255800253
0.99998035601129
0.99997758381948
0.99997408878168
0.99996966898757
0.99996405308435
0.99995686889195
0.99994759205625
0.99993545667329
0.99991929284466
0.99989717234006
0.99986555353171
0.99981670129433
0.99972709114365
0.99999
0.99999
0.99999
0.99999
0.99999
0.99999
0.99998999998916
0.9999899991216
0.99998999347982
0.99998997586292
0.9999899361747
0.99998986158723
0.9999897365381
0.99998954255774
0.99998925789349
0.99998885689416
0.99998830910196
0.99998757812115
0.99998662061434
0.9999853800061
0.99998378403299
0.99998174145056
0.99997913530927
0.99997581456108
0.99997158276337
0.99996618218238
0.99995927103841
0.99995038955935
0.99993890721273
0.9999239360536
0.99990417820832
0.99987765964819
0.99984110526967
0.99978845873147
0.99970610550868
0.99954715860285
0.99969265715671
0.99953412307451
0.9992833447096
0.99891867803945
0.99842944302637
0.99780562805184
0.9970334228247
0.99609969264444
0.99499247098407
0.99370787228798
0.99224834669793
0.99062637562158
0.98890102076202
0.98709278695662
0.98525156882037
0.98341258680795
0.98160777085809
0.97985976208508
0.97818244463661
0.97658420912745
0.97506905698974
0.97363694181765
0.97228540917817
0.97101085368641
0.96980871854744
0.96867440368353
0.96760333086886
0.96659012570426
0.96563175342853
0.96472255062726
0.96385932915612
0.96303902991336
0.96225737597167
0.96151281710081
0.96080116813546
0.96012150799498
0.95947019940186
0.95884651548694
0.95824743793217
0.95767232950486
0.95711877622198
0.95658607790331
0.95607243126327
0.95557698375648
0.95509852050859
0.95463600891306
0.9541887285416
0.95375553986725
0.95333599986214
0.95292904504088
0.95253429368609
0.95215093515464
0.95177847645307
0.95141635623012
0.95106407290844
0.95072115201205
0.95038715625301
0.95006167713644
0.94974433515091
0.94943477427435
0.94913266214866
0.94883768345078
0.94854953878402
0.94826794689702
0.94799264478359
0.94772338600035
0.94745993538188
0.94720064703829
0.94612870698163
0.94444387421988
0.94326557865587
0.94210018042027
0.94093546130249
0.9397634460314
0.9385483945589
0.93722093586657
0.93568602780463
0.9338505492326
0.93169612957413
0.92944546691938
0.92765805658727
0.92666642358521
0.92623063596825
0.92606361216199
0.92601336106567
0.92601492243628
0.92602888217604
0.9260435134916
0.92605561772608
0.92606459866231
0.9260704891824
0.92607350803981
0.92607400138504
0.92607208041115
0.92606785655208
0.92606158161401
0.92605352493116
0.92604397788373
0.92603325642131
0.92602170034129
0.92600966277996
0.92599751546632
0.92598562185661
0.92597431145423
0.92596136017556
0.92595229204318
0.92594452645105
0.92593830478749
0.92593378800005
0.9259310212904
0.9259299569363
0.92593035488606
0.92593197153433
0.92593474718999
0.92593849289472
0.92594301250315
0.92594813995735
0.92595373408841
0.92595966864863
0.92596583663161
0.92597215005893
0.9259785428111
0.92598497465274
0.92599142595395
0.92599785423264
0.92600425042394
0.92601058804129
0.92601694756038
0.92602325926821
0.92602957920697
0.9260358412256
0.92604207623782
0.92604817656012
0.92605424914232
0.9260601759317
0.92606603867347
0.92607146961321
0.92605759275329
0.92588330080042
0.92410662597731
0.9996505605273
0.99945048157909
0.99913635859192
0.99869520296257
0.99812267299833
0.99741072772825
0.99655093681465
0.99553554413622
0.99436085712994
0.99302887120003
0.99154583953729
0.98993200453937
0.98821986652377
0.98644567234862
0.98464273844816
0.98284373264775
0.98107845499741
0.97936753587449
0.97772517231599
0.97615960023259
0.97467422770288
0.97326926764203
0.97194265193197
0.97069087771841
0.96950992111774
0.96839475966687
0.96734084141317
0.96634371504264
0.96539908456466
0.96450304820185
0.96365180339803
0.96284206978864
0.96207064663685
0.96133474962019
0.96063177049369
0.95995936786612
0.95931538817124
0.9586978714422
0.95810504135785
0.95753525515783
0.95698702543831
0.95645898011508
0.95594986923327
0.95545855676607
0.95498397462164
0.9545251800425
0.95408126006843
0.95365141182422
0.95323484827399
0.95283087266335
0.95243881695873
0.95205808133208
0.95168809344104
0.95132832615843
0.9509782837909
0.95063750221018
0.95030555134262
0.94998202938987
0.94966656315726
0.94935880229666
0.9490584186226
0.94876510030452
0.94847855145505
0.94819849312369
0.94792466181845
0.94765680667382
0.94739468702653
0.94712672528166
0.94555103721639
0.94413834887836
0.9429700949874
0.94180565869958
0.94064227374748
0.93946622530418
0.93823373117778
0.93686812760115
0.93527159280755
0.9333598673441
0.93115311185151
0.92895974484813
0.92735950397913
0.92653120513282
0.92617848071171
0.92604855831893
0.92601566107525
0.92601716936944
0.92603143684896
0.9260465090027
0.9260590747342
0.92606849754151
0.92607479689482
0.92607817759764
0.92607895879554
0.92607730417293
0.92607328697164
0.92606715891987
0.92605918936858
0.92604967107111
0.92603892320005
0.92602729031045
0.92601513267363
0.92600282967776
0.9259907587543
0.92597926305044
0.92596608125616
0.92595682801847
0.92594889269234
0.92594253215122
0.92593791141645
0.92593507989737
0.92593399214149
0.92593440385763
0.92593606125347
0.92593890432229
0.92594274210467
0.92594737463227
0.92595263211204
0.92595836796955
0.92596445132936
0.92597077257317
0.92597724236537
0.92598379368723
0.92599038416164
0.92599699161607
0.92600356984836
0.92601011726517
0.92601660352449
0.92602310562233
0.92602955052704
0.92603599807151
0.92604237594912
0.92604872311257
0.9260549123423
0.92606107888522
0.92606707898331
0.92607301747988
0.92607851938747
0.92606465209589
0.92588942892536
0.924093655937
0.99963302931748
0.9993891319221
0.99900176589353
0.99847085595702
0.99780603779719
0.9970045234495
0.99606856667755
0.99499689417861
0.99379074567335
0.99245169620976
0.99098933487949
0.98941903699242
0.98775964119357
0.98604114076814
0.98429346441369
0.9825465038685
0.9808274520461
0.97915668858383
0.97754840462958
0.97601107028587
0.97454883259947
0.97316287975021
0.97185192496584
0.97061297903367
0.96944236246926
0.96833596414036
0.96728970256491
0.96629907966275
0.96536003382211
0.96446875183958
0.9636217103575
0.96281554824667
0.96204729600453
0.96131413619811
0.96061357724633
0.95994327926925
0.95930116448035
0.95868528249382
0.95809391002918
0.95752539322697
0.95697829196759
0.95645122072299
0.95594297968735
0.95545241194913
0.95497850350256
0.95452028315244
0.95407688644804
0.95364748550878
0.95323132381387
0.95282769681261
0.9524359470438
0.95205547725844
0.95168572062196
0.95132615654714
0.95097629102906
0.95063566721257
0.95030385524839
0.94998045567486
0.94966509618719
0.94935742793234
0.94905712347602
0.94876387289393
0.9484773826322
0.9481973756625
0.94792358929034
0.94765577181625
0.94739368450303
0.9471250333272
0.94553675861213
0.94413053140363
0.9429634440583
0.94180067288914
0.94063966348782
0.93946682182008
0.93823881848084
0.93687973290515
0.93529239456819
0.93339231641947
0.93119658522826
0.92900498654127
0.92739244052477
0.92655040220768
0.92618952030792
0.92605561504713
0.92602064521157
0.92602205526692
0.92603696310782
0.92605297998627
0.92606654205761
0.92607692146257
0.92608410511502
0.92608827036715
0.92608967830385
0.92608859237315
0.92608501950717
0.92607920532277
0.92607141891895
0.926061956081
0.92605114277577
0.92603933376652
0.92602690450892
0.92601425105295
0.92600177969499
0.92598986502537
0.9259761652762
0.92596649311688
0.92595817260829
0.92595149383113
0.92594663133744
0.92594364338448
0.92594248913271
0.92594291777722
0.92594465042051
0.92594762878587
0.92595165739458
0.92595652705784
0.92596205948595
0.92596809720354
0.92597450158679
0.92598115700149
0.92598796925374
0.9259948666362
0.92600180226051
0.92600875036793
0.92601565849452
0.92602253750954
0.92602934569641
0.92603615910701
0.92604289506752
0.92604961967405
0.92605625148394
0.92606284464208
0.92606923169709
0.92607560203554
0.92608176106983
0.92608785497466
0.92609353871317
0.92607962596816
0.92590148522338
0.92405817654574
0.99959447888406
0.99924773831245
0.99870841238011
0.99801389463042
0.99719621397573
0.99627136245091
0.99524802777728
0.99413133388797
0.99291855412385
0.99160681651837
0.99020306754543
0.98870885111478
0.98713466920784
0.98550033392236
0.9838315721802
0.98215500149715
0.98049646865496
0.97887741577131
0.97731253967017
0.97581141952633
0.9743793933738
0.97301826165812
0.97172766624029
0.97050563410557
0.96934903433109
0.96825426587573
0.96721750654774
0.96623513166237
0.9653031917073
0.96441801854357
0.96357624610404
0.96277470612953
0.96201047723926
0.96128089519342
0.96058348081443
0.95991599638066
0.95927637333349
0.9586627531707
0.95807339843711
0.95750672759789
0.95696127443589
0.95643571102277
0.95592881541999
0.95543947586253
0.95496667107265
0.95450945540655
0.95406696983147
0.95363839366136
0.95322298656033
0.95282003927601
0.95242891227791
0.95204900045726
0.95167975010699
0.9513206400141
0.95097118561735
0.95063093532445
0.95029946324694
0.94997637345745
0.94966129547342
0.9493538823406
0.94905380819735
0.94876076550588
0.94847446311256
0.94819462619821
0.94792099357734
0.9476533156596
0.9473913538597
0.9471217974532
0.94551652354576
0.9441189175574
0.9429537666187
0.94179347029179
0.94063589142476
0.93946765174749
0.93824608402539
0.93689633737207
0.93532219646889
0.93343889921205
0.93125923601626
0.92907072106076
0.92744078729445
0.9265787089204
0.92620575901608
0.92606589169966
0.92602812150563
0.9260292940921
0.92604508724372
0.9260624810482
0.92607751404343
0.92608931523639
0.92609781283312
0.92610314806047
0.92610552229998
0.92610525167526
0.92610233946575
0.92609699010378
0.92608947171669
0.92608008407846
0.92606916233728
0.92605707629022
0.9260442227212
0.92603102357559
0.92601792348314
0.92600534775526
0.92599083996889
0.92598050322289
0.92597157021119
0.92596437872022
0.92595911883644
0.9259558609367
0.92595457026109
0.92595499432336
0.92595680846712
0.92595995910172
0.92596424459587
0.92596944254846
0.92597536205146
0.92598183184116
0.92598870209466
0.92599584722578
0.92600316507652
0.9260105763102
0.92601802636909
0.92602548470292
0.92603289163937
0.92604026847176
0.92604755522215
0.92605483342151
0.92606199806298
0.92606913218251
0.92607613516729
0.92608309161974
0.9260897714746
0.92609643638939
0.92610282221223
0.92610912387396
0.92611507950382
0.92610116584193
0.92592102461373
0.92404611371333
0.99946695918061
0.99882217441388
0.99796055801731
0.99701946610169
0.99604525040757
0.99504106786338
0.99399845479665
0.99290702655035
0.99175177703263
0.9905236406668
0.98921520779391
0.98782526733227
0.98635850774867
0.98482865263206
0.98325761942772
0.98166926269543
0.98008660130264
0.97853135159305
0.97701986593713
0.97556312843643
0.9741678811043
0.97283732275457
0.97157205610842
0.97037094810094
0.96923177821851
0.9681516182983
0.9671271416113
0.966154954929
0.96523178066102
0.9643541344256
0.96351881833858
0.96272287122442
0.9619635016059
0.96123817298725
0.96054450758062
0.95988034334861
0.95924368401786
0.95863271322414
0.95804574261012
0.95748122921035
0.95693773166071
0.95641394996091
0.9559086735188
0.95542081914572
0.95494936875232
0.95449340306984
0.95405205874135
0.95362453956279
0.95321010372685
0.95280805745838
0.95241776215719
0.95203861706998
0.95167007306451
0.95131161065318
0.95096275355301
0.95062305376575
0.95029209164848
0.94996947401483
0.94965483289253
0.94934782299964
0.94904812021535
0.94875541919992
0.94846943089115
0.94818988273717
0.94791651555924
0.94764908226687
0.94738734351772
0.94711659454059
0.94549012753839
0.94410366521299
0.94294111348545
0.94178407643093
0.94063094952195
0.93946865952188
0.93825540279681
0.93691771575797
0.93536064855398
0.93349916373838
0.93134069276924
0.92915711564247
0.92750521267955
0.92661668296816
0.92622748975525
0.92607946470927
0.9260380030515
0.92603866161167
0.92605548045104
0.92607461216125
0.92609154011868
0.92610518917211
0.92611539840815
0.92612226008638
0.92612593955375
0.92612669874204
0.92612465258822
0.92611991207018
0.92611274202448
0.92610344658229
0.92609237200835
0.92607990677797
0.92606647446326
0.92605253016159
0.9260385630266
0.92602506390569
0.9260094546029
0.92599818267669
0.92598838944849
0.92598046747433
0.92597463028648
0.92597096390749
0.92596944121381
0.92596981673782
0.92597169398354
0.92597503031103
0.92597961565059
0.92598521096645
0.92599160917695
0.92599862293977
0.92600608716454
0.92601386299477
0.92602183687655
0.92602991804421
0.92603804089603
0.92604616860918
0.92605423087614
0.92606225687535
0.92607016426753
0.92607804040105
0.92608574871943
0.92609339674543
0.92610086123485
0.92610827322536
0.92611531357495
0.92612233675773
0.92612898809966
0.92613553692934
0.92614179239678
0.92612795808799
0.92594652388984
0.92404299131672
0.99859863833932
0.99703606127298
0.9959610608136
0.99504752689959
0.99415952144449
0.99326616511772
0.99234480570143
0.99138083629142
0.99035519855393
0.98925355516069
0.98807036630269
0.98680542622146
0.98546211751635
0.98405029226367
0.98258830409549
0.98109859829557
0.97960286231134
0.97812199048418
0.97667281857035
0.97526796753294
0.97391579521657
0.97262096194791
0.97138547427729
0.97020923552179
0.96909085579686
0.96802815471659
0.96701842563536
0.96605870947845
0.96514611494337
0.96427751401412
0.96344996945497
0.96266072764534
0.96190718352802
0.96118692240782
0.96049770654188
0.95983746112595
0.95920428985041
0.95859641762684
0.95801222114159
0.95745018999698
0.95690893862034
0.95638718506868
0.9558837558375
0.95539758069188
0.95492767137487
0.95447312116885
0.95403307898611
0.95360676315466
0.95319343810913
0.95279242635623
0.95240309001271
0.95202483861008
0.95165712320612
0.95129943169833
0.95095129173729
0.95061226004017
0.95028192276578
0.94995988985612
0.94964579639448
0.94933929822721
0.9490400725308
0.94874781570213
0.94846224084512
0.94818307705855
0.94791006732599
0.94764296924879
0.94738155037583
0.94710918710101
0.94545762992824
0.94408482064917
0.94292555576203
0.94177252860187
0.94062482548327
0.93946976935698
0.93826661088729
0.93694357925698
0.93540730306666
0.93357252631832
0.93144045852336
0.929264294695
0.92758658810759
0.92666509695235
0.92625514387204
0.92609648562246
0.92605023177401
0.92604993063149
0.92606778375965
0.92608892641563
0.92610811514653
0.92612399664513
0.92613628536928
0.92614500870745
0.9261502916062
0.92615231058624
0.92615133169723
0.92614734532391
0.92614060803207
0.9261314279174
0.92612016321505
0.92610722360005
0.92609306375419
0.92607817878784
0.92606310304888
0.92604839231078
0.92603140887718
0.92601890005738
0.92600798028724
0.92599909149548
0.92599247782033
0.92598824527626
0.92598637576302
0.92598664233946
0.92598854806042
0.92599206726379
0.92599697925441
0.92600302677351
0.92600998209235
0.92601763839913
0.9260258117506
0.92603434655343
0.92604311424213
0.92605200801974
0.92606094723149
0.92606988939199
0.92607874618594
0.92608754767351
0.92609618677005
0.92610475394039
0.92611307573287
0.92612129138545
0.92612927369708
0.9261371918012
0.92614461240029
0.92615201167195
0.92615891069702
0.92616571625067
0.92617222261844
0.92615852977768
0.92597604194437
0.92403761720761
0.98756614019006
0.99285976502113
0.99274062907279
0.99237706972349
0.99190094403793
0.99131242618822
0.99062909501238
0.98986450626055
0.98902037249868
0.98809559497629
0.98708066092073
0.98597506456777
0.98478497337232
0.98351702254892
0.9821846559725
0.98080773943496
0.97940772501851
0.97800473224781
0.97661798035128
0.9752619090342
0.97394687843573
0.97267985379649
0.97146482520771
0.97030339706853
0.9691955327324
0.96814003640073
0.96713503554313
0.96617817567141
0.9652669757209
0.9643986617342
0.96357058815808
0.96278019505058
0.96202504086264
0.96130284349463
0.9606114681615
0.95994891203393
0.95931333664014
0.95870301375878
0.95811635107975
0.9575518624617
0.9570081878601
0.95648405764919
0.95597831023236
0.95548987292342
0.95501776803315
0.95456108824328
0.95411898925862
0.9536906867475
0.95327544676391
0.95287258926274
0.95248147476532
0.95210151211409
0.95173214829078
0.95137287012541
0.95102320006613
0.9506826927452
0.95035093337367
0.95002753052443
0.94971211685218
0.94940434465451
0.94910388757362
0.948810439769
0.9485237137319
0.94824344096268
0.94796936790935
0.94770125271459
0.9474388723796
0.94717950077498
0.94594664349714
0.94435877092286
0.94319486088948
0.94204528595256
0.94090244210852
0.93975965575987
0.93858487638346
0.93731558869076
0.93586413386702
0.9341392390393
0.93210410383293
0.92991337623912
0.92804271321995
0.92690331365545
0.92636555114685
0.92614493457363
0.92606480641582
0.92606289774448
0.92608163654922
0.92610495627952
0.92612670582908
0.92614516099659
0.92615986889265
0.92617077235474
0.92617794612921
0.92618151427161
0.92618174323166
0.9261786663319
0.92617245952762
0.92616343393508
0.92615195936757
0.92613846768974
0.92612344768599
0.92610743937292
0.92609102582692
0.92607477528276
0.92606952294071
0.92605457033386
0.92604149098894
0.92603073446558
0.926022599942
0.92601723553204
0.92601464111296
0.92601463303273
0.92601652429687
0.92602031316613
0.92602576264079
0.9260325857681
0.92604051619096
0.92604931032479
0.92605874743366
0.92606864055784
0.92607882952323
0.92608917178995
0.92609955792762
0.92610994484958
0.92612018976104
0.92613030988683
0.92614016384014
0.92614983945421
0.92615910342652
0.92616814009781
0.92617672444433
0.92618516073132
0.92619288972913
0.92620055535082
0.92620748966069
0.92621442322606
0.92622076090451
0.92620722988456
0.92602301781232
0.9240132269484
0.97724916595167
0.98477250256451
0.98576163955812
0.98627923928587
0.98651663690817
0.98653735514349
0.98635469986675
0.98599250504824
0.98549283957185
0.98486900518099
0.98412757525724
0.98328048663786
0.98233778328145
0.98130580812894
0.98019694155388
0.97902882867532
0.97782082133821
0.9765917274163
0.97535874731578
0.97413850379778
0.97294289619158
0.97178015907196
0.97065588635076
0.96957333695637
0.96853400190635
0.96753822661557
0.96658535093682
0.9656742434789
0.96480326059139
0.96397045245125
0.96317386812947
0.96241151964625
0.96168143896938
0.9609817133573
0.96031053693199
0.95966620127459
0.95904709168975
0.95845169103699
0.95787858710294
0.95732645623914
0.95679407930832
0.95628031381716
0.95578410212363
0.95530446873491
0.95484050920708
0.95439138267974
0.95395630431591
0.95353453860785
0.95312539788625
0.95272823621673
0.95234245460185
0.9519674928715
0.95160283234707
0.95124798747069
0.95090250254293
0.95056595183382
0.95023793611419
0.94991808172148
0.94960603494829
0.94930146112572
0.94900404400701
0.94871348653224
0.94842950965278
0.94815185342719
0.94788027316917
0.94761453067897
0.94735439772673
0.94707282477026
0.94532800958109
0.94400642982927
0.94286131777674
0.94172496438634
0.94059895513632
0.93947252627288
0.93830926535162
0.93704415496918
0.93559043566896
0.93386316611526
0.93184209750271
0.92971051765501
0.92794351594035
0.92688433023936
0.92638068943924
0.92617159090776
0.92610146120296
0.92609344267476
0.92611275614622
0.92614038730209
0.92616785161847
0.92619229146084
0.92621275143096
0.92622892030683
0.92624072466474
0.92624818991419
0.92625140896832
0.92625066921735
0.92624591081677
0.92623741899808
0.92622557979693
0.92621086518352
0.92619383314084
0.92617512254211
0.92615544186806
0.92613551017649
0.92612746011348
0.92610836283064
0.926091403356
0.92607720473922
0.92606620986515
0.92605866879012
0.92605463341244
0.92605394431009
0.92605572386044
0.92605984101439
0.92606609307659
0.92607414635789
0.92608366293019
0.92609432320686
0.92610583278676
0.92611795149054
0.92613043422048
0.92614304215914
0.92615554903798
0.92616769268089
0.92617934307456
0.92619055252588
0.92620115525761
0.9262112067716
0.92622051734534
0.92622932813613
0.92623749424321
0.92624540060384
0.92625248748217
0.92625929722594
0.92626519206427
0.9262712164169
0.926275851635
0.92626234619682
0.9260756310063
0.92391375617584
0.97196997935628
0.97952420988511
0.98071518505866
0.98145651456428
0.98196476403944
0.98229669038169
0.98244125985254
0.9824163094167
0.98223071675412
0.98188441124344
0.98141995724777
0.98083687064148
0.98013371849636
0.97933006672375
0.9784406340247
0.97747791373796
0.97645901924497
0.9754014162986
0.97432176433685
0.9732346999054
0.97215375963967
0.97108975214718
0.97005029120876
0.96904063243797
0.96806396351565
0.96712197293947
0.96621548786905
0.96534438262473
0.96450791521101
0.96370504032761
0.96293447507542
0.9621948108793
0.96148460317825
0.96080236618786
0.96014664547749
0.95951602296017
0.958909123889
0.95832463169849
0.95776128568483
0.95721790348143
0.95669338546978
0.95618671048838
0.95569691594978
0.95522309500615
0.95476440153855
0.95432006282605
0.95388934691816
0.95347156781006
0.95306607270971
0.95267225063635
0.95228953427484
0.95191739737594
0.95155534939806
0.95120292802012
0.950859697291
0.95052524496237
0.95019918396741
0.94988114974775
0.94957079945646
0.94926781027706
0.94897187716721
0.94868271343969
0.94840004999946
0.94812363226851
0.94785321901799
0.94758858487044
0.94732951780083
0.94703367426402
0.94521807345204
0.9439354668158
0.94280301469019
0.94168183847558
0.94057451698881
0.93947211639402
0.93834210193605
0.93712522917662
0.93574065553926
0.93410504861425
0.9321840830884
0.93010893478248
0.92828769880118
0.92710814824556
0.92651112766496
0.92624820849194
0.92615050987045
0.92613058072524
0.92614723202541
0.92617800143303
0.92621131812005
0.92624248003559
0.92626971069777
0.92629226921404
0.92630983542162
0.92632227734406
0.92632956712615
0.9263318368563
0.92632924344478
0.92632180700796
0.92630991568542
0.92629406412045
0.9262748654003
0.92625305246066
0.92622947243551
0.92620502805306
0.92619245222676
0.92616806929364
0.92614604392156
0.92612727654777
0.92611243487483
0.92610193930038
0.92609589873356
0.92609418184886
0.92609580289021
0.92610032384223
0.92610760136552
0.92611721310448
0.92612871371176
0.92614166239613
0.92615559210451
0.92617000420962
0.92618439797426
0.92619837114696
0.92621155691339
0.92622370481877
0.92623479638311
0.92624497344355
0.9262539387921
0.92626192477689
0.92626897354303
0.92627531254895
0.92628094861149
0.92628616956114
0.92629065180789
0.92629474300357
0.92629830727193
0.92630203227396
0.92630392442443
0.92629043721388
0.92610288067646
0.92369752938553
0.96773983465182
0.97572505068019
0.97697996651426
0.97775259731989
0.97833646169516
0.9787697481753
0.97907828703482
0.97922911627776
0.97923597752391
0.97911733095002
0.97884234582315
0.9784561031515
0.97797013157187
0.97736931528928
0.97666874396472
0.97588752307926
0.97504055264465
0.97414155720096
0.97320708116439
0.97225150809865
0.97128735785585
0.97032513844016
0.96937425110954
0.96844138858174
0.96753132203137
0.96664723171449
0.9657910285564
0.96496364961142
0.96416535696593
0.96339594648096
0.96265477251167
0.96194096384376
0.96125354387636
0.96059143368837
0.95995352632527
0.95933871947527
0.95874589506583
0.95817397952929
0.95762192516641
0.95708871484399
0.95657338244404
0.95607502201338
0.95559278555039
0.95512585512393
0.95467345043255
0.95423484426143
0.95380936309757
0.95339637198655
0.95299526603936
0.95260547987596
0.95222647918346
0.95185776521123
0.95149887510374
0.95114937454647
0.95080885126967
0.95047691306528
0.95015318817684
0.94983732617434
0.9495289980652
0.94922789376083
0.94893372084946
0.94864620464354
0.94836508611722
0.94809012034649
0.94782107889135
0.94755775025197
0.94729995426712
0.9469695672919
0.94509177011248
0.94385064075748
0.94273232673342
0.94162880106992
0.94054295983524
0.93946764491735
0.93837473389708
0.9372115916403
0.93590435621577
0.93437284032756
0.93257097400574
0.93057969380632
0.9287253785185
0.92741364113371
0.92669514395134
0.92635680475376
0.92621776713006
0.92617711283355
0.92618567926097
0.9262167016808
0.92625483412226
0.92629279832
0.92632745447626
0.92635735089405
0.92638175955504
0.92640029098331
0.92641274295615
0.92641904869383
0.92641942686364
0.92641381538218
0.92640246600052
0.92638586827895
0.92636465905764
0.92633963647801
0.9263117685049
0.92628215594349
0.9262637350484
0.92623292013739
0.92620457230346
0.92617998518891
0.9261601758697
0.92614582185838
0.92613717591609
0.92613416116896
0.92613562764651
0.92614068437336
0.92614924036673
0.92616073341617
0.92617446216043
0.92618961665024
0.92620530166417
0.92622064998738
0.92623468652517
0.92624724278188
0.92625773773154
0.92626636219621
0.92627322002466
0.92627851507047
0.92628277352984
0.92628633145796
0.9262890747656
0.92629100028069
0.92629220682784
0.92629279276947
0.92629259840107
0.92629182626105
0.92629046348591
0.92628836323698
0.92628521846815
0.92626963999793
0.92608845550171
0.92338642119796
0.96379601212775
0.97270416047114
0.97403365129504
0.97480384952259
0.9753937409297
0.97586159659639
0.97622298456031
0.97647046194343
0.97659214600211
0.97659746501073
0.97649305147901
0.97624476859883
0.97589802055131
0.97547076603175
0.97493750925432
0.97431174528345
0.97361338314347
0.97285766211337
0.97205648172131
0.9712225629906
0.97036940071249
0.96950751787608
0.9686453030515
0.9677907439544
0.96694939623328
0.96612540795163
0.96532179245833
0.96454056113781
0.96378286085817
0.96304918982195
0.96233959989471
0.96165379637259
0.96099123743853
0.96035125600714
0.95973310412476
0.9591359680981
0.9585589609122
0.9580012269482
0.9574619133521
0.95694017885393
0.95643522569451
0.95594626658613
0.95547255513007
0.95501338955339
0.95456808122835
0.95413597995526
0.95371646458614
0.95330895471235
0.95291289833797
0.95252776553019
0.95215307036733
0.95178834838553
0.95143315606069
0.95108708047823
0.95074973189164
0.95042074078427
0.95009975324278
0.94978643642289
0.94948047861797
0.94918158642541
0.94888948237048
0.94860390228518
0.94832459795602
0.94805133888561
0.94778390658842
0.94752209366135
0.94726569300581
0.94687430593361
0.9449515258819
0.94375222816489
0.94264952316971
0.94156522562964
0.94050279205247
0.93945670133976
0.93840337548559
0.93729735785436
0.93607262950408
0.93465376469423
0.93298653810214
0.93110836934588
0.92925715510979
0.92781892243219
0.92695282684531
0.92651249929934
0.92631363079295
0.92623920585785
0.92623203939297
0.92625820182023
0.9262984130611
0.92634219604589
0.92638427893113
0.92642208029818
0.92645419874409
0.92647982962469
0.92649849769572
0.92650994705289
0.92651414803104
0.92651125893738
0.92650122516135
0.92648450079444
0.92646170475608
0.92643365286544
0.92640138565898
0.92636616144467
0.92634093134272
0.92630260988423
0.92626665192008
0.92623489464187
0.92620886849223
0.92618965465093
0.92617776349023
0.92617320621833
0.92617455605551
0.92618028824528
0.92619029376551
0.92620366243646
0.92621908624389
0.92623499773846
0.92624968538531