/*--------------------------------*- C++ -*----------------------------------*\
| =========                 |                                                 |
| \\      /  F ield         | OpenFOAM: The Open Source CFD Toolbox           |
|  \\    /   O peration     | Version:  2312                                  |
|   \\  /    A nd           | Website:  www.openfoam.com                      |
|    \\/     M anipulation  |                                                 |
\*---------------------------------------------------------------------------*/
FoamFile
{
    version     2.0;
    format      ascii;
    arch        "LSB;label=32;scalar=64";
    class       volScalarField;
    location    "0.0001";
    object      Ybar.Liq;
}
// * * * * * * * * * * * * * * * * * * * * * * * * * * * * * * * * * * * * * //

dimensions      [0 0 0 0 0 0 0];

internalField   nonuniform List<scalar> 
109340
(
0.9990914647107
0.99908783732268
0.99908088185325
0.99907239299548
0.99906292547441
0.99905295580468
0.99904266667003
0.9990321236082
0.99902131693945
0.99900975849982
0.9989966103339
0.99898094737029
0.99896164296099
0.99893733475569
0.99890640202288
0.99886692918034
0.9988166396081
0.99875280868834
0.99867213674627
0.9985705782695
0.99844309946556
0.99828337923234
0.99808339859049
0.99783288551742
0.99751852553042
0.99712285145542
0.99662260299398
0.99598623760978
0.99516998725847
0.99411131599648
0.99271748063525
0.99084423855601
0.98825354883829
0.98452464278849
0.97885709929746
0.96961025141443
0.99909201330599
0.99908735308306
0.99907953949761
0.99907046162816
0.9990606986908
0.99905067083891
0.99904049830575
0.99903013107017
0.99901926727014
0.99900738845195
0.99899372888669
0.99897732053068
0.99895697617606
0.99893126862194
0.9988985050762
0.9988566804656
0.99880341933654
0.99873586894277
0.99865056291136
0.9985432352427
0.99840856664774
0.9982398592187
0.99802859547721
0.99776383578699
0.99743136083349
0.99701245186305
0.99648208155535
0.99580613773502
0.99493697631815
0.99380594859055
0.99231010471962
0.99028686762451
0.98746180443158
0.98333375649721
0.97689132367524
0.96594361623034
0.99909403973959
0.99908865398161
0.99908006004774
0.99907077043417
0.99906109253469
0.99905121098201
0.99904109786988
0.99903071465306
0.99901984208311
0.99900797319698
0.99899435224142
0.99897800700423
0.9989577450423
0.9989321357385
0.99889948517954
0.99885779217521
0.99880468097577
0.99873730212462
0.99865219187734
0.99854508837458
0.99841067318009
0.99824224881273
0.99803129805573
0.99776687854577
0.99743476758896
0.99701623932774
0.9964862565644
0.99581069683457
0.99494190978434
0.99381123320572
0.9923156593626
0.99029222218322
0.98746354664638
0.98331223784248
0.97674604881433
0.96512276090517
0.9990968533099
0.99909037580917
0.99908136275244
0.99907182325029
0.99906196806634
0.99905188802232
0.99904161201527
0.99903112428195
0.99902020004723
0.99900833011848
0.99899475884611
0.99897850871866
0.99895838011858
0.99893293620544
0.99890047553799
0.99885898842423
0.99880609102977
0.99873892399718
0.99865400733994
0.99854706129739
0.99841272880061
0.99824426299972
0.99803307496528
0.9977681170794
0.99743502329331
0.99701485847712
0.99648228955032
0.99580277150881
0.99492804533562
0.9937885418685
0.99227981751114
0.99023640805611
0.9873737735202
0.98314746622396
0.97633386672014
0.96344958226619
0.99910127328281
0.99909288185545
0.99908257167317
0.99907239001098
0.99906227137354
0.99905209525394
0.99904178980896
0.99903132267282
0.99902045700057
0.99900867905539
0.99899523754711
0.99897914706517
0.99895918735013
0.9989338900151
0.99890150657092
0.99885995923361
0.99880677062042
0.99873895452265
0.99865281035395
0.99854384068238
0.9984063104334
0.99823297930048
0.99801457616122
0.9977390923624
0.99739084642847
0.99694905337782
0.99638579308658
0.9956628684217
0.99472679694369
0.9935003758437
0.99186748310234
0.98964488799006
0.98651423564019
0.98185457490192
0.97417927482769
0.95826726761429
0.99910945183298
0.9990941569629
0.9990827586054
0.99907231846964
0.9990621419302
0.99905194368835
0.99904162236785
0.9990310758847
0.99901993321888
0.99900747006607
0.99899264491141
0.99897409058095
0.99895010187584
0.9989186020575
0.99887708629197
0.99882253712141
0.99875130484094
0.99865897803515
0.99854026657519
0.99838784075198
0.99819263620535
0.99794300087778
0.99762382184805
0.99721535778985
0.99669162105298
0.99601805638841
0.99514816502371
0.99401836825914
0.9925398450702
0.99058479629931
0.98796122667062
0.9843704906623
0.97929018882235
0.97170186878809
0.95909981826048
0.93096441070757
0.9536940291671
0.92700323360264
0.88602742867776
0.83038783256266
0.76259687297043
0.68535821634757
0.60199092016462
0.51616948740648
0.4318645545789
0.35295934692159
0.28148864667255
0.22162305777292
0.17268203910435
0.13371419318024
0.10371478902757
0.080782403713125
0.063387601984918
0.050202861715144
0.040158386220118
0.032482453320568
0.026580757274766
0.02197660170354
0.018351909032797
0.015474552934053
0.013166009199984
0.011308845472638
0.0097771295212171
0.0084930022718778
0.0074695081178798
0.006561695765968
0.005840350872658
0.0051938721879885
0.0046590976195994
0.0041890749134293
0.0037856178482463
0.0034333615484246
0.0031253677445763
0.0028539631750163
0.002616594599954
0.0024021554830975
0.0022172099023751
0.0020445304657201
0.0018982471324484
0.0017579494770844
0.0016400160666848
0.0015257179738739
0.0014285184714937
0.001335758543395
0.0012536855901342
0.0011781487842309
0.001108063664594
0.0010443068082653
0.00098553745084161
0.00093147783073748
0.00088151956840882
0.00083530536328518
0.00079243935304227
0.00075263554030912
0.00071561658346119
0.00068114335938397
0.00064898598654665
0.00061894882256041
0.00059085943311483
0.00056456213672201
0.00053990808910718
0.00051675616193026
0.00049498467371936
0.00047460063247093
0.00081156600012453
0.0029135535730645
0.0031644050832507
0.0031453623177795
0.0031190870313875
0.0030937722330764
0.0030660234561468
0.0030307075610919
0.0029829498210484
0.0029194086089022
0.0028409544512787
0.002757051645183
0.0026854944294944
0.0026358769106441
0.0026015711005531
0.0025750271460924
0.0025488032320396
0.0025285163723183
0.0025105576911133
0.0024955915562482
0.0024838273319225
0.0024769779556849
0.0024728078303773
0.0024721859851784
0.0024739113041704
0.0024778112496302
0.0024833687443546
0.0024900752894145
0.0024974421510149
0.0025050656119969
0.0025125025492677
0.002519569808643
0.0025261109940232
0.0025320422708227
0.0025372707459051
0.0025418160569958
0.0025473108194258
0.0025505559194095
0.0025533467283732
0.0025556911788969
0.0025574840567627
0.0025589678132088
0.0025605737730767
0.0025628803583982
0.0025656125266517
0.0025678880821711
0.0025689214752022
0.0025689843247603
0.0025685077286986
0.0025673882469812
0.0025654706610985
0.002562846822837
0.0025598649232712
0.0025570565296357
0.0025548528628535
0.0025534811240678
0.0025531083331213
0.0025540582204523
0.0025568552695177
0.0025620663397524
0.0025689156292364
0.0025769517685958
0.0025849289255629
0.0025919901237913
0.0025980037491405
0.0026036832460812
0.0026083616807102
0.0026128106681743
0.0026164712917167
0.0026163415403859
0.0026216884110992
0.002321118924641
0.94596056564655
0.91179370027987
0.86109304370977
0.79625074563318
0.72095360545963
0.63833799945891
0.55288613817333
0.4684671075054
0.3886860676442
0.31619687568002
0.25271066994882
0.19886603314689
0.1559749869432
0.1217967572144
0.095080883853124
0.07456508266609
0.058858824163121
0.046866187169123
0.037692469239374
0.030632524317664
0.025157980228006
0.020877959089215
0.017497405532394
0.014798809519571
0.012625634138037
0.010859238214592
0.0094097514884351
0.0082094456482978
0.0072089698729095
0.0063681243415696
0.0056549446324135
0.005049215422113
0.0045277886170407
0.0040796010302468
0.0036891529585007
0.0033500023723818
0.0030516187902911
0.0027901488791392
0.0025580946284624
0.0023530638380412
0.0021697557703027
0.002006626515635
0.001859751491811
0.0017280692719009
0.0016089302336833
0.0015012434628095
0.0014034504663426
0.0013144048740605
0.0012333328803198
0.001159107382794
0.0010911618606209
0.0010286401976741
0.00097114937252969
0.00091812439572297
0.0008691503920902
0.00082381048722576
0.00078176230100541
0.00074269992283652
0.00070635350740501
0.00067248492745617
0.00064088338898206
0.00061135929709746
0.00058374013786637
0.00055786979572396
0.00053360822531124
0.00051082976515366
0.00048943317644276
0.00047218504753174
0.0013970878971108
0.003063285759184
0.0031612331194938
0.0031362072609346
0.0031105458195801
0.0030851238738584
0.0030558634434565
0.0030177033328454
0.0029660546088928
0.0028984211137046
0.002817519455157
0.0027348729753071
0.0026686288076637
0.002623576439742
0.0025918642485522
0.0025666708033838
0.0025468732205857
0.0025267833707808
0.0025091665501827
0.0024945218792322
0.002483079093745
0.0024763696828747
0.0024725126884783
0.0024719237152044
0.0024738384022843
0.0024778928554882
0.0024835621651859
0.0024903546610757
0.0024977937003013
0.0025054686068806
0.0025129460865393
0.0025200393272942
0.0025265913281265
0.0025325058133105
0.002537714596482
0.0025422259444453
0.0025476652631328
0.0025508931382612
0.0025537008179317
0.0025560941483367
0.0025579692543797
0.0025595358922486
0.0025611938611682
0.0025635143423067
0.0025662023738051
0.002568369498491
0.0025692919952782
0.0025692508040216
0.0025686557906671
0.0025673855248191
0.0025653143035938
0.0025625712756875
0.0025595180811731
0.0025567380427457
0.0025545749307034
0.0025532243614024
0.0025528223817749
0.0025539109343324
0.0025568784217201
0.0025621407027437
0.0025690135504078
0.0025770451866926
0.0025849994635037
0.0025921119732149
0.0025981817211351
0.0026038633635836
0.0026085384296332
0.0026128889010552
0.0026158162497862
0.0026155519763687
0.0026166570913154
0.002313537252297
0.94174831945524
0.89867669092216
0.83689375541254
0.7594616289262
0.6758371841803
0.58955119350739
0.50448245969542
0.42432599134646
0.35131800746723
0.28591531978237
0.23093027217205
0.18422323763229
0.14588038028309
0.11510198281783
0.090734740855151
0.071698519397379
0.056970679576197
0.045628005039821
0.036868856841072
0.030065113156068
0.024760780162733
0.020597223183017
0.0172936864643
0.014648793924699
0.012514736761429
0.010775142303523
0.0093443736511896
0.0081599079697383
0.0071698336511717
0.0063370478098038
0.0056305119618477
0.0050283912556919
0.0045117951089188
0.0040654057147727
0.0036783144841286
0.0033401259024716
0.0030441428742029
0.0027832175237911
0.002552794589169
0.0023481228429268
0.0021659539769395
0.002003053436307
0.001856864552468
0.0017254519568382
0.001606651118923
0.0014993022233949
0.0014016202624326
0.001312954108282
0.0012318903893585
0.0011579008504426
0.0010900103140422
0.0010276972745788
0.00097029827903154
0.00091733670168902
0.00086842093321632
0.00082313903487065
0.00078115491712719
0.00074214772981209
0.00070584938686713
0.0006720222888849
0.00064046009875585
0.00061097142989779
0.00058338260498117
0.00055753791835276
0.00053329900395779
0.00051054609345935
0.00048917501054419
0.00047210951415917
0.0014149113513662
0.003067227448463
0.0031624397220127
0.0031370012334012
0.0031109063761009
0.003085064786726
0.0030555298369002
0.0030172951500176
0.002965752373006
0.0028983259941802
0.0028176089135209
0.0027348958821777
0.002668218744239
0.0026227460298941
0.0025908046514605
0.0025655391345179
0.0025459074750803
0.0025259194055755
0.0025084169297841
0.002493877197105
0.0024826723724362
0.0024758026335459
0.0024720636370797
0.0024712795778563
0.0024731888644479
0.00247723666455
0.0024829121568621
0.0024897010904714
0.0024971205783087
0.002504750510802
0.002512214736837
0.0025192972823267
0.0025258607674138
0.0025317676145886
0.0025369894848155
0.0025415417454085
0.002546970467342
0.0025502414670166
0.0025531497036777
0.002555646250546
0.0025576710839437
0.0025594428980545
0.0025613328006717
0.0025637477044065
0.002566370650553
0.0025684248566164
0.0025693745349353
0.0025694126011218
0.0025688217412004
0.0025674610300275
0.0025653750508713
0.0025627295716247
0.0025598163226446
0.0025571588031293
0.0025550752255736
0.0025538024063355
0.0025534202875173
0.002554780702542
0.0025579773940977
0.0025632772085905
0.0025702188143572
0.002578266780646
0.0025862116602267
0.0025934756338206
0.0025996769510758
0.0026054220122405
0.0026101269321062
0.0026145124500091
0.0026172053385796
0.0026175278315119
0.002615032063569
0.0023101202674673
0.93233175417909
0.86894256828198
0.78451074504672
0.68948479582072
0.59619922739022
0.51003420591171
0.43164921630675
0.36230623556583
0.30141195412545
0.24804724511992
0.20384354241573
0.16553610955079
0.13320861666998
0.10664206685327
0.085086640809314
0.067979372006536
0.054518688507881
0.043971155847235
0.035735851824184
0.029299475325258
0.024232056016133
0.020209846703699
0.017013235432758
0.014445287964108
0.012360495313328
0.01065694068075
0.0092546317143154
0.0080895437839692
0.0071143475932486
0.0062924420181603
0.0055953739335267
0.0049992990548647
0.0044880086639469
0.0040457107748792
0.0036619026547004
0.0033265087098383
0.0030326986351019
0.0027735342484879
0.0025446624947268
0.0023411976444222
0.0021601129869049
0.0019979143952426
0.0018526031505933
0.0017216041558171
0.00160343956481
0.0014963443411762
0.0013991433214969
0.0013106774747516
0.0012299075121623
0.0011561138949863
0.0010884047374322
0.0010262741680698
0.00096901792274455
0.00091620761317423
0.00086738383087715
0.00082219397978619
0.00078028957425248
0.00074135755407609
0.00070513084993813
0.00067136991389587
0.00063986455003453
0.00061042379669916
0.00058287775631785
0.00055707297999802
0.00053287186335044
0.00051015312108725
0.00048880469984007
0.00047203816148939
0.0014416220410479
0.0030721536361264
0.0031640308709816
0.0031380562317587
0.0031113893587338
0.0030849884907442
0.0030550608769994
0.0030167113392709
0.0029653189179751
0.0028982092853665
0.0028177717025517
0.00273496627954
0.0026676565798488
0.0026215579163155
0.0025892681429999
0.0025639086977959
0.002544501696
0.002524592987435
0.0025072347055862
0.0024928242193259
0.0024818013160393
0.0024748537720287
0.0024712147718041
0.0024705195555688
0.0024724900960894
0.0024765616693852
0.0024822442124403
0.0024890285683547
0.0024964331605199
0.0025040444327765
0.002511501060326
0.002518584091009
0.0025251472292652
0.0025310370759239
0.0025362212067467
0.0025407572236536
0.002546144173448
0.0025494803448654
0.0025524861044844
0.0025551374270686
0.0025573716979617
0.0025593645423482
0.0025614435532605
0.002563956157229
0.0025665573623028
0.0025685232954179
0.0025694380832086
0.002569487721035
0.0025688071699027
0.0025673052851942
0.0025651299852139
0.0025624574648834
0.0025595938142829
0.002557021763404
0.002555006883027
0.0025538135557561
0.0025535052627258
0.0025550443791265
0.0025583729370685
0.0025637548979525
0.0025707589305756
0.0025788978300628
0.0025869644595046
0.0025944122988832
0.0026007789100948
0.0026066139130049
0.0026113383079081
0.00261570997073
0.0026185533818487
0.0026193689044967
0.0026184397836489
0.0023081337308177
0.90079090925824
0.78442120729844
0.66062584662444
0.55535481514923
0.4700716883776
0.39994726350905
0.34148742281685
0.29167635005662
0.24787088711714
0.20947950329256
0.17523506421314
0.14507226455235
0.11901241607736
0.096943077365273
0.078610790512657
0.063622053787951
0.051571838800124
0.041983223125115
0.03437573885924
0.028342632881096
0.023553642375548
0.019738343117583
0.01666396087236
0.014182831820232
0.01216506198787
0.010510161088154
0.0091397391826825
0.0079995257373662
0.0070436136475745
0.0062360173922762
0.0055496253979371
0.0049625670119433
0.0044573589883283
0.0040205342480314
0.0036407585232935
0.0033090980740189
0.0030177627688923
0.0027611761540863
0.0025340276531932
0.0023322702178157
0.0021523423656584
0.0019913634991933
0.0018468546468049
0.0017166409738567
0.0015990954736899
0.0014925259029004
0.0013958149083315
0.0013076745050113
0.0012272994461105
0.0011537414306218
0.0010863160623291
0.001024363573199
0.00096730973099658
0.000914686276244
0.00086601360690843
0.00082094913185491
0.0007791460084115
0.00074031453562362
0.00070418228184788
0.00067050667957749
0.00063907463855282
0.0006096989375367
0.00058221312845956
0.00055646369711427
0.00053231382951552
0.00050964095899029
0.00048832154788808
0.00047199726295775
0.0014767579034716
0.0030783334153389
0.0031659075668178
0.0031393041746136
0.0031119610066013
0.0030848884037213
0.0030544783643812
0.0030159678898849
0.0029647567856134
0.0028980506701614
0.0028179928431654
0.0027350989723603
0.0026669790034741
0.0026200501606125
0.0025872866175884
0.0025617837173543
0.0025426170299124
0.0025228341495873
0.0025056672574088
0.0024914466652319
0.0024806235324201
0.0024736773233807
0.0024701247485513
0.0024695114620331
0.0024715345945746
0.0024756281580211
0.0024813101590479
0.0024880681099996
0.0024954287009288
0.0025029925556083
0.0025104247127159
0.002517512305767
0.0025240990007823
0.0025300034669168
0.0025351902848676
0.002539743455586
0.002545141898521
0.0025485749088847
0.0025516950723163
0.0025545076556062
0.0025569451637606
0.0025591272887551
0.0025613788903565
0.0025640056338895
0.0025666037790862
0.0025685132523866
0.0025693838623947
0.0025694236425629
0.0025686652090333
0.0025670824467964
0.0025648532789209
0.002562189097116
0.0025594150109429
0.002556943780543
0.0025550148269539
0.0025539120060162
0.0025536905021341
0.0025553501298919
0.0025587908383281
0.0025642851340898
0.0025713944902134
0.0025796499254427
0.0025878196359118
0.0025954650990783
0.0026020520916472
0.0026080809495221
0.002612931590571
0.0026173908348045
0.0026201416815557
0.0026208755822744
0.0026195820837921
0.0023061537007322
0.67668814795211
0.48917511891135
0.41009705417997
0.36181781331687
0.32208902224115
0.28705162945365
0.25506964292577
0.22595232976317
0.19813219906612
0.17179517334401
0.14723582422251
0.12478590513672
0.1045894258523
0.086831718475302
0.07162028009666
0.058849221402928
0.048310724804348
0.039731731029047
0.032809859309136
0.027244046227555
0.022769838473224
0.019164358299926
0.016252428628216
0.013875513205243
0.011931432626407
0.010330429423844
0.0090032854953286
0.0078917010491863
0.0069575836427368
0.006167538750874
0.005494601387351
0.0049174521448131
0.0044203617927903
0.0039901236385683
0.0036153237229576
0.0032877174668212
0.0029999004962686
0.0027460869964837
0.0025211177423439
0.0023213116878835
0.0021429401350354
0.0019832897884333
0.0018397793459829
0.0017105595380403
0.0015937308267541
0.0014878563716402
0.0013916433972188
0.001304015209422
0.0012240496671134
0.0011508324529253
0.0010837144765232
0.0010220055467627
0.00096520217803949
0.00091277666790213
0.00086429924796889
0.0008193938617949
0.00077773215219583
0.00073902755317499
0.00070300405340146
0.00066942754194263
0.00063808802388983
0.00060879891526765
0.00058138983414738
0.00055570811170569
0.00053162133027298
0.00050900388810391
0.0004877235390554
0.00047192780755597
0.0015203481602649
0.0030858641990258
0.0031679824566018
0.0031406788834585
0.0031125819756937
0.003084755834661
0.0030537828555386
0.0030150686235008
0.0029640583609146
0.0028978460387752
0.0028182780609732
0.0027353190932506
0.002666236138615
0.002618269103822
0.002584894829462
0.0025591872934863
0.0025402165745994
0.0025206067232722
0.0025036680446883
0.002489682249234
0.0024790935162015
0.0024722322112472
0.0024687906244859
0.0024683050460378
0.0024704210515215
0.002474568448247
0.0024802751221476
0.0024870268734269
0.0024943565605243
0.0025018750454323
0.0025092681238138
0.0025163379382675
0.002522936622342
0.0025288569324565
0.0025340504844814
0.0025386316474684
0.0025440384064832
0.0025476235172039
0.0025508703224723
0.002553826949594
0.002556448992981
0.002558802831168
0.0025612125399636
0.0025639516420818
0.0025665435007633
0.0025683966704698
0.0025692164012717
0.0025692334669134
0.0025683566180877
0.0025666696298188
0.0025643732011937
0.0025616891549518
0.0025589856227799
0.0025566160256732
0.0025548107975262
0.0025538547833429
0.0025538120482844
0.0025556742965878
0.0025593090846185
0.0025649481517237
0.0025721569444642
0.0025804803537022
0.0025887170518942
0.0025965283984252
0.0026033311753932
0.0026096075682295
0.0026145971248246
0.0026191878891265
0.0026219582278476
0.0026228476331877
0.0026212207060382
0.0023040907795668
0.022778588608849
0.15555325979454
0.19111655407172
0.20444145410843
0.20676403198237
0.20053323354753
0.18881163389239
0.17447206846028
0.15877117912158
0.14240638359842
0.12591297157124
0.10976597289122
0.094410827665649
0.080220282292271
0.067498807599075
0.056413468357262
0.046962107938599
0.039058988185994
0.03253743591086
0.027199457832948
0.022848012920547
0.019304347623132
0.016411466815036
0.014048086252378
0.012098768758048
0.010483140759455
0.0091415020259729
0.0080190031233459
0.007072308318612
0.0062685797263078
0.005584652281626
0.0049987687165275
0.0044929559150731
0.0040545457922574
0.0036732053967754
0.003339789140859
0.0030465828235051
0.0027881078476743
0.0025592319756636
0.0023557878707438
0.0021741440040583
0.0020116545596353
0.0018656808107001
0.0017341833547203
0.0016152801683059
0.0015076170048172
0.0014097897616985
0.0013207129182848
0.0012393843034853
0.0011649831287539
0.0010967888322651
0.001034109390721
0.00097640350979978
0.00092315249526133
0.00087395692092431
0.00082840426032878
0.00078614197668217
0.00074687073215308
0.00071033085213727
0.00067628945939767
0.00064452420166963
0.00061483943321557
0.00058706234468223
0.00056103941181831
0.00053662794673851
0.00051370697854364
0.00049216924648349
0.00047218866521104
0.00094857587161736
0.0029694872418259
0.003172407917208
0.0031494373228686
0.0031203233991593
0.0030918253887369
0.0030613906874453
0.0030246909439861
0.0029772415511515
0.0029154310153954
0.0028392943316114
0.0027558895149866
0.002681049272206
0.0026268377319443
0.0025896841985514
0.0025621448058481
0.0025373264218085
0.0025179331005315
0.0025012613482614
0.0024875587441007
0.0024772400612811
0.002470537383433
0.0024672265435536
0.0024668928658747
0.0024691304712665
0.002473361414121
0.0024791146549072
0.0024858798658888
0.0024931930794284
0.0025006771508312
0.0025080365682989
0.0025150845744011
0.0025216929196322
0.0025276509647738
0.0025328886452205
0.0025374648082629
0.0025423701472127
0.0025460986586459
0.0025494883054783
0.0025526175693012
0.0025554510004668
0.0025580213572729
0.0025606086465561
0.0025634663921184
0.0025660079000382
0.0025677313013144
0.0025684696669867
0.002568416014809
0.0025673639559554
0.0025655507008303
0.0025631905249449
0.0025605164406856
0.0025579335586404
0.0025557144741526
0.0025541072015972
0.0025533794353391
0.0025536859152004
0.0025558514073447
0.0025598208354109
0.0025657673524729
0.0025731682780056
0.0025815687840793
0.0025898715176587
0.002597957697095
0.0026050624747728
0.0026117501425357
0.0026170313471323
0.0026219355826028
0.0026247074893231
0.0026257171887669
0.0026236801125359
0.0022996983122336
0.010069378168615
0.027116072119
0.048420023526306
0.066203544062424
0.079664738014164
0.088668583255836
0.093309937841416
0.094494041998249
0.091877820585937
0.087369538467833
0.08137472357434
0.074290017908725
0.066656377036091
0.058860939913576
0.051278202163794
0.04421552448649
0.037849081706652
0.032256092982733
0.027447191915711
0.023372089342684
0.019948789427544
0.017087818581925
0.014700974990402
0.012707798465771
0.011041308736522
0.0096452596826807
0.0084682086400382
0.0074691844712324
0.006621315441013
0.0058974308891149
0.0052763396639748
0.0047390201693789
0.0042737478627412
0.0038687453018045
0.0035145761088035
0.0032029469564955
0.0029284030020954
0.0026854869242913
0.0024697031840196
0.0022771123186001
0.0021048625117192
0.001950339358298
0.0018112627976067
0.0016855964692886
0.0015718311608543
0.0014686009146925
0.0013746900564679
0.0012890044831231
0.0012106503855309
0.0011388921847471
0.0010730096589994
0.0010124028909533
0.00095651032747533
0.00090490246630455
0.0008571663093266
0.00081293692126831
0.00077188015512047
0.00073369354082654
0.00069813282308815
0.00066497046117332
0.00063400651086353
0.00060505471734557
0.00057795005917973
0.0005525454330222
0.00052870143446925
0.00050629659712941
0.00048521988191589
0.00047203764355534
0.0017035888055276
0.0031145535624457
0.0031744893616894
0.0031447203579715
0.0031141291576541
0.0030838148580774
0.003050894816296
0.0030113964749825
0.002961113436764
0.0028969033851547
0.0028195635507936
0.0027367786027571
0.0026642536350231
0.0026119171861884
0.0025757463661092
0.0025489008518846
0.0025302325577427
0.0025112892594871
0.0024952351854763
0.0024822208522507
0.0024725586918074
0.0024663735965059
0.0024634651932285
0.0024635591800005
0.0024661632192
0.0024706935216105
0.0024766625885063
0.0024835734537471
0.0024909699881597
0.0024984914971165
0.0025058480186772
0.0025128590859503
0.0025194323910196
0.0025254167979597
0.0025307651735958
0.0025354266239244
0.0025406589773289
0.0025444934220797
0.002547980162783
0.0025512569153207
0.0025542819398354
0.0025570432504351
0.0025597491232692
0.0025626614704404
0.0025650923011042
0.0025666510502975
0.0025672966715516
0.0025670396253088
0.0025657696212219
0.0025638653379945
0.0025614707584804
0.0025588616942784
0.0025564693222403
0.0025545339554345
0.002553298116439
0.002552933622254
0.0025538128386245
0.0025564276326089
0.0025607834877719
0.0025670173390283
0.0025745171999991
0.0025829172601518
0.002591222364778
0.0025997133073044
0.0026072105658944
0.0026144512079209
0.0026201278698091
0.0026255191680005
0.0026283954799643
0.0026297100608782
0.0026274980419799
0.0022902514012993
0.0079799325808857
0.011876286813506
0.019221894974291
0.028125599964859
0.03649164740155
0.043634570600034
0.049179352904454
0.052980268903809
0.055127467390149
0.055423208130447
0.054110724663998
0.051654930468269
0.048289927425508
0.044305731477603
0.03997316229687
0.035564725308164
0.031309412411402
0.027353592380674
0.023781176687653
0.020626525087315
0.017884881167696
0.015527220390079
0.013512515977219
0.011796192194392
0.010335078956177
0.0090914778828559
0.0080305971781395
0.0071232672920676
0.0063449734296557
0.005673562034938
0.0050927457010133
0.0045889342950518
0.0041498985243191
0.0037661591750917
0.0034283324701034
0.0031304871832684
0.0028671430326023
0.0026334535873081
0.0024250501759807
0.0022386897114152
0.0020717642182194
0.0019216708653087
0.0017862580060583
0.0016636694330522
0.0015526230269168
0.001451695488059
0.0013597523922062
0.0012757271189593
0.0011988332531832
0.001128336540978
0.0010635571350468
0.0010038924213836
0.00094882812555004
0.00089795958177286
0.00085087566558503
0.00080722219746075
0.00076667107088148
0.00072894512529519
0.00069380656722787
0.00066102277289015
0.00063039118688245
0.00060173443874395
0.00057489361085746
0.00054972753453659
0.00052610411417453
0.00050390233169256
0.00048300493005397
0.00047364612971488
0.0018744367182049
0.0031353385176172
0.0031784658699347
0.0031468411535093
0.0031144064251748
0.0030823367303444
0.0030480542777708
0.0030080143296983
0.002958359529987
0.0028959319017321
0.0028207498342786
0.0027386631669928
0.0026638784078408
0.0026076648817249
0.0025686705142248
0.002540441705402
0.0025216516006981
0.0025030722521887
0.0024876806222354
0.0024754760970404
0.0024666271639439
0.0024611884602472
0.002458939458921
0.0024596616261163
0.0024628316510355
0.0024678823145302
0.0024743009631192
0.0024815891831501
0.0024892948461917
0.0024970407825086
0.0025045392307763
0.0025116143415511
0.0025182041047835
0.0025241886777727
0.0025295419131727
0.002534211291045
0.0025397377886312
0.002543422012289
0.0025467335507648
0.0025498209309975
0.0025527480766529
0.0025555257007686
0.0025583207295075
0.0025611792272876
0.0025634899407388
0.0025649270542917
0.0025655118148032
0.0025650954238795
0.002563872849425
0.0025620534698963
0.002559744425013
0.0025572706638931
0.0025551154117565
0.0025535346084667
0.0025527188456905
0.002552751775502
0.0025541877000346
0.0025572619425363
0.002561931961593
0.0025683025359349
0.002575763601733
0.0025840768271747
0.002592343796484
0.0026011144327979
0.0026088600197945
0.0026166352060539
0.0026226715668263
0.0026285312739957
0.002631748617185
0.0026336201437244
0.002631489728113
0.0022745091027442
0.0063513967428102
0.008388493038997
0.010634087055902
0.015043455963415
0.019963097203077
0.024663598649565
0.028855342625973
0.032282330526245
0.034857790292968
0.036452697685975
0.036976419484927
0.036473095098854
0.035205496663026
0.033349871870483
0.03099252122106
0.028359175136129
0.025621224445909
0.022915491031939
0.020344427281477
0.017976409804663
0.015841731689671
0.013947968910587
0.012286107443605
0.010838842841179
0.0095835620454765
0.0084967406737194
0.0075566791727639
0.0067426982612146
0.0060366480189177
0.0054227673865923
0.0048877921733396
0.0044201075919565
0.0040094896534137
0.0036480968286134
0.0033293098106938
0.0030471627475087
0.0027966622495887
0.0025729254088987
0.0023729820077359
0.0021939492971336
0.002033044314414
0.0018879946685588
0.0017567000079792
0.001637867831666
0.0015299469220958
0.001431730032887
0.001342022459162
0.001259962721584
0.0011848140700099
0.0011158039354695
0.0010523237895571
0.00099376296175048
0.0009396954034392
0.00088970792469854
0.00084340323085592
0.00080043184005064
0.00076047697874862
0.00072329497845337
0.00068864531993821
0.00065630615514408
0.00062607733127202
0.00059777519360438
0.000571250393825
0.00054636990972509
0.00052300475037345
0.00050103522254899
0.00048033172133029
0.00048002722824396
0.0020787247197099
0.0031584123772785
0.0031826979846803
0.0031484112716006
0.0031138370179269
0.0030798946942493
0.00304423019756
0.0030037015336147
0.0029548251638932
0.0028945610516144
0.0028220491368751
0.002741486103329
0.0026648161700245
0.0026043573675846
0.0025616584697962
0.0025313509255399
0.0025119919167739
0.0024935543653377
0.0024787716374403
0.0024674320807455
0.0024595303139323
0.0024550348838386
0.0024537381495845
0.0024552906224758
0.0024592766362414
0.0024651182065216
0.0024722693962863
0.0024802119244898
0.0024884910978219