/*--------------------------------*- C++ -*----------------------------------*\
| =========                 |                                                 |
| \\      /  F ield         | OpenFOAM: The Open Source CFD Toolbox           |
|  \\    /   O peration     | Version:  2312                                  |
|   \\  /    A nd           | Website:  www.openfoam.com                      |
|    \\/     M anipulation  |                                                 |
\*---------------------------------------------------------------------------*/
FoamFile
{
    version     2.0;
    format      ascii;
    arch        "LSB;label=32;scalar=64";
    class       volScalarField;
    location    "0.0001";
    object      yPlus;
}
// * * * * * * * * * * * * * * * * * * * * * * * * * * * * * * * * * * * * * //

dimensions      [0 0 0 0 0 0 0];

internalField   uniform 0;

boundaryField
{
    inlet
    {
        type            calculated;
        value           uniform 0;
    }
    outlet
    {
        type            calculated;
        value           uniform 0;
    }
    nozzleWalls
    {
        type            calculated;
        value           nonuniform List<scalar> 
144
(
35.090163345459
34.676308810483
34.245872982342
33.821302418225
33.408976441631
33.011019894237
32.628183676395
32.260397768432
31.907669960075
31.569985226661
31.247437262544
30.940221420646
30.648629987051
30.37305884392
30.114009829869
29.87206376102
29.647832663339
29.441322865191
29.2495888338
29.070475367671
28.903706269485
28.749296602736
28.607323768682
28.477901089521
28.361284898426
28.257923590468
28.168565923053
28.094421731546
28.037430926951
28.000774660193
27.990183721298
28.014611133001
28.093489001663
28.27442044615
28.725474969541
30.881461949902
35.329123758805
34.991502090649
34.568883288815
34.13879935303
33.716956647375
33.308092503459
32.913879702767
32.534833417529
32.170805412377
31.821836743157
31.487923121994
31.169186104322
30.865844980863
30.578217046012
30.30672616859
30.051895743814
29.814322711104
29.594593604777
29.392135588404
29.203649811587
29.027626600086
28.863942944316
28.71263350637
28.573784465821
28.447532962356
28.334178367908
28.234233591524
28.148542844404
28.078468196866
28.026197047012
27.995363281174
27.992497422706
28.028095528153
28.12605399151
28.348724142043
28.948000755885
35.18188943098
34.783030297233
34.353374163307
33.926429488095
33.510763358122
33.109098621665
32.722462696703
32.350935106719
31.994442610854
31.652992832736
31.326646068033
31.015573596528
30.720043023861
30.440423409592
30.177192561427
29.93091279262
29.702200435001
29.491406654066
29.296308053737
29.114095014616
28.944241752997
28.786736873865
28.641645538194
28.509068610641
28.389218157997
28.282486298633
28.18953623233
28.111441292367
28.049924672639
28.007786581507
27.989950730395
28.004422637507
28.066890872584
28.21453053628
28.563935306638
29.833963342368
35.264297366904
34.888453278161
34.461151751628
34.032285736257
33.613432702885
33.208128772335
32.817687965973
32.44241550201
32.08215434146
31.73694395334
31.406809173873
31.091896884495
30.792450440815
30.508812785993
30.241434417457
29.990860107142
29.75769904182
29.542462320949
29.343816256235
29.158486071425
28.985548647731
28.824952789528
28.676749256061
28.541031210336
28.417969967391
28.307908622457
28.21143214521
28.129492249921
28.063621060225
28.016290645542
27.991654479572
27.997156646148
28.045333351544
28.165834616071
28.442528781755
29.283710735525
)
;
    }
    tipWalls
    {
        type            calculated;
        value           nonuniform List<scalar> 
304
(
9.2144821383576
3.014869006205
4.5500519792376
4.8687966825722
4.7555916924236
4.4687970319801
4.0439083756366
3.3450161125624
2.2891470595628
1.2352156079784
0.31635422455037
0.54453978052327
0.5390799072541
0.48133948659072
0.42219566927937
0.37312059752505
0.33512327432205
0.30520749418419
0.2806482242415
0.25969235916798
0.24130443127642
0.22500221521367
0.21031583731751
0.19700827003962
0.185007898383
0.17423782361895
0.16462372566055
0.1560913008456
0.14855334154592
0.1419251761763
0.13612910266204
0.1310950371026
0.12674992079567
0.12301202038018
0.11976827509501
0.11690463234311
0.11429042265259
0.11181408591915
0.10938677439392
0.10696800384278
0.10456760594559
0.1022317451608
0.10004366668364
0.098077640475491
0.096359717675562
0.094857165438586
0.093493082328948
0.092178010666116
0.090846068398416
0.089474835445491
0.088086096002889
0.086731025812661
0.085473420698874
0.084370515840045
0.083458989076583
0.082742318183362
0.082187587088337
0.081735374321678
0.081318856486578
0.080875830584715
0.080359361735677
0.079759069104723
0.079119430347031
0.078593042881962
0.079551199403646
0.15343452310188
0.15338246836642
0.152995428282
0.15288360299841
0.15293818490735
0.15312677982699
0.15341646087982
0.15381366929396
0.15436021139227
0.15514863071129
0.1568372440384
0.16259124036263
0.30288669978431
0.30416544148694
0.30387179028314
0.30376004860929
0.30354784634556
0.30327146151006
0.30295640007156
0.30253888561116
0.30214203380474
0.30185051879925
0.30171011573442
0.30178655941678
0.30204979105817
0.30241241432969
0.30323014439028
0.30493065866526
0.30811313380724
0.31248362898029
0.31672200094352
0.31035225682579
1.5830874643641
4.0277220805326
4.7948759390777
4.8421325900671
4.6261122194337
4.2786789169248
3.7398282751297
2.8604150512434
1.7230002902677
0.7856544645732
0.44402873735783
0.55624062091527
0.51389601837682
0.45017892112885
0.39626794166354
0.35289555771315
0.31934097203951
0.29242426707136
0.2698132960942
0.25020073208141
0.23292238067213
0.21747950460641
0.20349242347552
0.19085017588637
0.17947402680921
0.16929047319966
0.16022765995676
0.15220344621714
0.14513051035545
0.13892761256497
0.13352127144426
0.12884107720663
0.12481145793159
0.12133605274213
0.11829701537238
0.11557301778332
0.11304215967395
0.11059789018704
0.108176765575
0.10576361111708
0.10338688733366
0.10111376277611
0.099029887934943
0.097188385529175
0.095585630481105
0.09416353773616
0.092834506519774
0.091516749181452
0.090164919729494
0.08877985269406
0.087400432970168
0.086086155972798
0.084899704802234
0.083889749519354
0.083077521185164
0.08244805637277
0.081952811416538
0.081526800809109
0.081104165706676
0.08062859485735
0.080068185651371
0.079439037599478
0.078822517233204
0.07861440433966
0.079681273554201
0.1537095283867
0.15315530897974
0.1529119694434
0.15289284100184
0.15301793236552
0.15326045896432
0.15359923976991
0.15406641312567
0.15470879397018
0.15579308587622
0.15862236126305
0.16310381825337
22.550789428804
2.1369316987548
4.3282494606066
4.8477440085838
4.8051647977502
4.5505654173603
4.1684846692506
3.5569537790234
2.5824282087738
1.4663789454615
0.55248371127516
0.51069128470205
0.54996990775153
0.49766647828193
0.43556731974076
0.38450009077036
0.34375613970612
0.31208996538959
0.28641510680452
0.26467648439127
0.24568352492504
0.22890993436132
0.21385518331911
0.20020840538596
0.18788967382208
0.17681919767801
0.16692259790451
0.15812772201036
0.15034933726494
0.14350125892468
0.13750396359873
0.13228604842117
0.12777575544873
0.12389535259956
0.12053949576216
0.11759262382818
0.11492645064617
0.11242617016111
0.1099920679568
0.1075721016696
0.10516422206547
0.10280539645609
0.10057213561822
0.098545886431507
0.096766749934189
0.095216326178122
0.093826136688785
0.092506485873226
0.091182721220071
0.08982079973089
0.088432405321583
0.087063128282074
0.085775303618033
0.084629250556193
0.083668110235933
0.082904418508442
0.082314094629797
0.081842447139335
0.081423207076568
0.080992091248564
0.080496862420563
0.079915537454537
0.07927811307609
0.078696818547033
0.078868402060303
3.2880208048919
3.6208774565693
4.6986972817418
4.8644113157006
4.6947817680824
4.3780204239749
3.9020125339697
3.115132015605
1.9990589351909
1.0125956380233
0.34692236296304
0.55567116985347
0.52705261348102
0.46631488360726
0.40868522201134
0.36260076871615
0.32701872887597
0.29866684766605
0.2751216628515
0.25487003069283
0.23705232065299
0.22119244393507
0.20686138113679
0.19388962233321
0.1822032868586
0.17172857353059
0.16239252127046
0.15411698946607
0.14681415896169
0.14040100169463
0.13480190498001
0.12994712468895
0.1257623135417
0.12215958194647
0.11902125477985
0.11623181899073
0.11366305235228
0.11120494923915
0.10878169453183
0.10636504587203
0.10397475244911
0.10166739858667
0.099529329976568
0.097625213098989
0.095966378285869
0.094506724337897
0.093162979980416
0.091848339673136
0.090506764914912
0.089127596388624
0.087741845703184
0.08640504998563
0.085181314322925
0.084123925557125
0.083262227264976
0.082590481112326
0.082067508060067
0.081630528456249
0.08121279730674
0.080754809846426
0.080216306490821
0.079599825828618
0.078965981879769
0.07854306914848
0.081369217068661
)
;
    }
    wedge1
    {
        type            wedge;
    }
    wedge2
    {
        type            wedge;
    }
    defaultFaces
    {
        type            empty;
    }
}


// ************************************************************************* //
