/*--------------------------------*- C++ -*----------------------------------*\
| =========                 |                                                 |
| \\      /  F ield         | OpenFOAM: The Open Source CFD Toolbox           |
|  \\    /   O peration     | Version:  2312                                  |
|   \\  /    A nd           | Website:  www.openfoam.com                      |
|    \\/     M anipulation  |                                                 |
\*---------------------------------------------------------------------------*/
FoamFile
{
    version     2.0;
    format      ascii;
    arch        "LSB;label=32;scalar=64";
    class       volScalarField;
    location    "0.00016";
    object      alphat;
}
// * * * * * * * * * * * * * * * * * * * * * * * * * * * * * * * * * * * * * //

dimensions      [1 -1 -1 0 0 0 0];

internalField   nonuniform List<scalar> 
109340
(
0.47624549518466
0.32660050332937
0.17624972250981
0.14728874726125
0.14267532212133
0.14559091706495
0.15101324677095
0.16050063855426
0.13988433811478
0.1244200586387
0.11218099246025
0.10219735198128
0.093879146078762
0.086834189391177
0.080787646331187
0.075539767318856
0.070941305963
0.066878254137112
0.06326189577475
0.06002208595713
0.057102572081844
0.05445765421069
0.052049753042688
0.049847610115768
0.047824933240067
0.045959355160653
0.044231606204747
0.042624830165749
0.041123976952054
0.039715197922283
0.038385139560677
0.03711993899721
0.03590348071829
0.034713866231287
0.033515263593728
0.032238980162838
0.47071225113011
0.22825604602032
0.16721215999901
0.15296056611995
0.15193096900429
0.15495415575723
0.13874057362259
0.12068725694405
0.10666008353749
0.095554945394664
0.086564054072754
0.079140697043035
0.07290959195606
0.067605919221575
0.063037695151405
0.059062372539645
0.055571896166611
0.052482855125
0.049729818990611
0.047260690017028
0.045033382936893
0.043013457026242
0.041172413216192
0.039486447555965
0.037935496183416
0.036502477619479
0.035172678858922
0.033933226564907
0.032772594025511
0.031680101422439
0.030645308116074
0.029657116049649
0.028702191111592
0.027761787782267
0.026804232273878
0.025765484663377
0.27645789158451
0.19481142116915
0.16791291755364
0.15761028259757
0.12608399183521
0.10511405123856
0.089907856154203
0.078448120654037
0.069541724107058
0.06245052615883
0.0566879459517
0.051921483860449
0.047918295583287
0.044511507948103
0.041578871390018
0.039029004526593
0.036792332876382
0.034814981401074
0.033054451336909
0.031476458432642
0.030052914673799
0.02876072009551
0.027580909866531
0.026497906325383
0.025498774388908
0.024572688783657
0.023710502594441
0.022904241743525
0.022146847873415
0.021431775627796
0.020752566795577
0.020102314572547
0.019472514119663
0.018851245671507
0.018218866822991
0.017531847466283
0.15887576127278
0.16048559785438
0.10071747602785
0.073320101204607
0.057676438025984
0.047574800902403
0.040534420340622
0.035358453818748
0.031400847473456
0.028282440697027
0.025766172963187
0.02369607038692
0.021965323459805
0.02049843097854
0.019240656440685
0.018151420880215
0.017199935472446
0.016362066259633
0.0156162235438
0.014943910828874
0.014331362031216
0.013768813975692
0.013249186046082
0.012767203558212
0.012318758323483
0.011900477563286
0.011509206217777
0.011142523872848
0.010798118890811
0.010473718490509
0.010166731953355
0.0098732644901591
0.0095869950683746
0.0093000974811233
0.0090032528786909
0.0086754272671927
0.095679495539876
0.031277425381656
0.019018572070012
0.013792013501169
0.010911912587609
0.00910392265232
0.0078740493910779
0.0069902959596853
0.0063293047928911
0.0058200354088315
0.0054189777929783
0.0050985374768833
0.0048404376212573
0.0046323654873317
0.0044659456737982
0.0043353120828067
0.004235275221489
0.0041571550977475
0.004086740558513
0.0040164043288503
0.0039454702765125
0.0038761941864229
0.0038109688065756
0.0037514199923886
0.0036984208737208
0.0036523632019796
0.0036132673975274
0.0035809138460564
0.0035553547470849
0.0035361446855404
0.0035222230887431
0.0035124071320439
0.0035049909430603
0.0034967360972721
0.0034793689395719
0.0034288926288854
0.00024095159459141
0.00035963138455196
0.00046270919940262
0.00054312958995314
0.0006006070334733
0.0006385041889414
0.00066127995108309
0.00067310948208725
0.00067731507232493
0.00067665307880788
0.00067271814039767
0.00066676671320808
0.00065966253377467
0.00065198824443327
0.00064413450730848
0.00063637888790511
0.0006289013511136
0.00062182159393552
0.00061526167862652
0.00060937170985204
0.00060401360904752
0.00059909487572556
0.0005945635313981
0.00059038373097794
0.0005865205620816
0.00058293383736894
0.00057957479750708
0.0005763824821121
0.00057327685583487
0.00057014748541595
0.00056683461502821
0.00056308260919595
0.00055845835500437
0.00055206658677723
0.00054127971380573
0.00051442839079545
0.028485029230764
0.015316090492359
0.0082519518219006
0.0050834791580174
0.0034017262288212
0.0022940950800547
0.0015502600019784
0.0010342653801412
0.00069821662782068
0.00050971742574222
0.00041758846563965
0.00041289089270839
0.00038188668806697
0.00034077755721434
0.00029456873617635
0.00024761548893405
0.00020728879199247
0.00017252970398342
0.00014394514143541
0.00012158095721183
0.00010318691082379
8.7847219018097e-05
7.3694697175347e-05
5.9580255158199e-05
4.8679854923749e-05
4.0241304718727e-05
3.3583069076833e-05
2.8119239868715e-05
2.3963082213919e-05
2.0374948903881e-05
1.7588497156161e-05
1.5208331403862e-05
1.3245700926674e-05
1.1616120451355e-05
1.0210390624463e-05
9.0525444917093e-06
8.0316389831603e-06
7.1811138602994e-06
6.4303845619824e-06
5.7873323516856e-06
5.229489940001e-06
4.7292992699531e-06
4.3075614096755e-06
3.9135685202691e-06
3.5877473279401e-06
3.27625390444e-06
3.0187420127429e-06
2.7732553727322e-06
2.5640371850548e-06
2.3717134205732e-06
2.1971850025131e-06
2.0404493468613e-06
1.8981384477728e-06
1.7690711726266e-06
1.6514736811017e-06
1.5441591506612e-06
1.4459511666709e-06
1.3559668896422e-06
1.2733683215819e-06
1.1974198800359e-06
1.1274325225707e-06
1.0628140589484e-06
1.0030533215774e-06
9.4771278122164e-07
8.9640029523571e-07
8.48764746511e-07
8.0449302253736e-07
7.6329466669689e-07
1.1217818332989e-06
0.00013621702815229
0.00092621169740948
0.00094169585760153
0.00085687692771803
0.00079537623081868
0.00075223393918641
0.00072068064183437
0.00069629779840723
0.00067608440184894
0.0006580676583452
0.00064104251281871
0.00062429826600849
0.00060757175733237
0.00059089613629443
0.00057451717177759
0.00055678233728505
0.00054230117230373
0.00052933892820786
0.00051808748116274
0.00050869853929167
0.00050119985876604
0.00049558757819629
0.00049185719983527
0.0004898254885796
0.00048869517083671
0.0004866514689447
0.0004811065425952
0.00046886162492489
0.00044759430732208
0.00041713483553798
0.00037989305638298
0.00033980676457551
0.00030025014975286
0.00026311641497358
0.00023062364748381
0.00020010883042914
0.0001837979688503
0.00017210403665821
0.00016392808089491
0.00015842716927375
0.00015464054560242
0.00015199091736709
0.00015009666762726
0.00014910920930668
0.00014901755007434
0.000149379796692
0.00015015890404408
0.00015112552441323
0.00015205481703051
0.0001528429421746
0.00015341574486077
0.00015374004825013
0.00015379897940833
0.00015359314735014
0.00015312646311534
0.00015248450256984
0.00015158413220482
0.00015041907953595
0.00014913508206981
0.00014787006281579
0.00014667037288078
0.0001455504525621
0.00014452496182915
0.00014356015573009
0.00014264899568488
0.00014178487174473
0.00014092639253169
0.00014001192577216
0.00013897527119657
0.00013790179559901
0.00013676337366529
0.021831829618661
0.011830252438313
0.0069632029636637
0.0045432531361016
0.003035980515388
0.0020509364673152
0.001375316837543
0.00091491925107279
0.0006087068166108
0.00041328622211618
0.0002917877291275
0.00022373005575729
0.00018308043021043
0.00015430360122564
0.00013402084104846
0.00011852478260265
0.00010628091372596
9.6378826119014e-05
8.7352263343357e-05
7.9194117480356e-05
7.1926610634054e-05
6.5469158139643e-05
5.9669553959976e-05
5.45055647979e-05
4.5477505775575e-05
3.763395370612e-05
3.1445588099991e-05
2.6505089437504e-05
2.2519508955087e-05
1.9282503352838e-05
1.6618989363736e-05
1.4425559576443e-05
1.2587789869807e-05
1.1050915380407e-05
9.7461356341056e-06
8.6406267191977e-06
7.690897032947e-06
6.8778093021128e-06
6.1720491799306e-06
5.561831419346e-06
5.0269795198394e-06
4.5606289515667e-06
4.1482720010631e-06
3.7857410619756e-06
3.4631138201221e-06
3.1770702585509e-06
2.9213429764066e-06
2.6926853280696e-06
2.4875967717754e-06
2.3028905743562e-06
2.1362991127978e-06
1.9852498605541e-06
1.8483292660091e-06
1.7237671288519e-06
1.6102840094832e-06
1.5065938905152e-06
1.4116920377455e-06
1.3246588872165e-06
1.2446976716719e-06
1.1710922056548e-06
1.1032124584917e-06
1.0404989854365e-06
9.8246344660215e-07
9.2868067476008e-07
8.7878100157705e-07
8.3243720105148e-07
7.8935094085977e-07
7.4925497827248e-07
5.1536510829375e-06
0.0003547271269836
0.0009716491212928
0.00091831831302478
0.00083863770914362
0.0007825787618696
0.00074290163367927
0.00071353034284189
0.00069046096253122
0.00067098239138445
0.00065333190390306
0.00063644189184811
0.00061973489496608
0.00060302997680388
0.00058642213779387
0.00057018900898383
0.00055650641132101
0.00054201699732233
0.00052905275563289
0.00051780344570024
0.00050841267833989
0.00050090701032769
0.00049528132570195
0.00049153100360534
0.00048947563394315
0.00048832598775414
0.00048627999506573
0.00048076454702449
0.00046859103501369
0.00044743518426842
0.00041710844402759
0.00037998663970939
0.00033998172013775
0.00030045273155939
0.00026330542599474
0.00023077251003938
0.00020015799523207
0.00018374984107667
0.00017197170333224
0.00016371790256269
0.00015814603403427
0.00015429798595543
0.0001515917068235
0.00014965543958222
0.0001485837635852
0.00014841214542999
0.00014869512997179
0.00014939222886627
0.00015028163957127
0.00015113946127656
0.00015186377623294
0.00015238097657153
0.00015265704727837
0.00015267382110187
0.00015243143680151
0.00015193538980409
0.00015127381631563
0.00015035042274015
0.00014917316861012
0.00014788859098311
0.00014662868970918
0.00014543191997802
0.00014431357738281
0.00014328361534229
0.00014231338128207
0.00014139790781758
0.00014052959214554
0.00013966921337345
0.00013876185148758
0.00013774185873247
0.00013670538485849
0.00013561551248057
0.015907072364788
0.0079174253459234
0.0047636106863885
0.0032050157065018
0.0021351764178638
0.0014555063742396
0.00099169917419274
0.00068581749713254
0.00048304931433028
0.00034937369870591
0.00026869943014358
0.00021199809747716
0.00017396720235261
0.0001466350897996
0.00012544223356594
0.00010856734549468
9.5137121501821e-05
8.3868972673356e-05
7.3792669108881e-05
6.5211028491498e-05
5.8181263067457e-05
5.2243190551708e-05
4.7182337324229e-05
4.3003616849547e-05
3.9461667716787e-05
3.6350410720568e-05
3.076547153175e-05
2.5937174636266e-05
2.2042007185341e-05
1.8874743790511e-05
1.6274685139546e-05
1.4122974576875e-05
1.2333065173469e-05
1.0827825731797e-05
9.5579601725712e-06
8.4755937486682e-06
7.5514749625017e-06
6.7546211226445e-06
6.0670374472127e-06
5.4683612821769e-06
4.9467311496471e-06
4.4887618929816e-06
4.0858533777504e-06
3.7298107200026e-06
3.4138011692541e-06
3.1330334659838e-06
2.8819122334935e-06
2.6577276151532e-06
2.455906370093e-06
2.2746336811646e-06
2.1106583606579e-06
1.9623738764839e-06
1.8276091921658e-06
1.7049695337641e-06
1.5931726135765e-06
1.4910218435893e-06
1.3975250053815e-06
1.3117467077203e-06
1.2329068136723e-06
1.1603053157952e-06
1.0933336110581e-06
1.0314409217981e-06
9.741462929695e-07
9.2103215993945e-07
8.7173849647323e-07
8.2594419833814e-07
7.8335962399256e-07
7.4373025981733e-07
5.5881155277441e-06
0.00036732539592947
0.00097262465441326
0.00091698849525019
0.00083740139328071
0.00078151923904631
0.00074197883488648
0.00071272023569142
0.00068974684710776
0.00067035127253659
0.00065277144587168
0.00063594448195346
0.00061929766693182
0.00060265261266795
0.00058610420124464
0.00056992636722011
0.00055631377646087
0.00054186669982059
0.00052892741697376
0.00051770484284237
0.00050833293766507
0.00050083836041214
0.00049521914035048
0.00049147436185632
0.00048942998729228
0.00048830873451504
0.00048632558643051
0.00048092472277933
0.00046892503859614
0.00044798639605829
0.00041788959488847
0.0003809470336415
0.00034103962720381
0.00030149484331066
0.00026424102245088
0.00023152263079235
0.00020059001129042
0.00018389286564466
0.00017186599567528
0.00016338710905979
0.00015761144191482
0.0001535958756386
0.00015073938345825
0.00014869844756926
0.00014743688953239
0.0001470875181442
0.00014720664941786
0.00014773167540054
0.00014846568489674
0.00014918139313157
0.0001497793923667
0.00015018579717152
0.00015036442694112
0.00015029473466615
0.00014997658332615
0.00014942180278527
0.00014871199676953
0.00014773203459046
0.0001465223677681
0.00014523070962074
0.00014397352167185
0.00014277725120829
0.00014165770096183
0.00014061926738312
0.00013964152643244
0.00013871612005374
0.00013784138741969
0.00013698050439162
0.00013608859128414
0.00013510980769034
0.00013412872952184
0.00013314538272847
0.0082779583978931
0.0044171078759727
0.0026983157953779
0.0017486835575098
0.0012083136109831
0.0008683975702806
0.0006471556960583
0.00049704192694334
0.00039123248641939
0.00031737195264899
0.00025890515629292
0.00021179911765873
0.00017471372466823
0.00014574294458848
0.00012330569381354
0.00010605667252973
9.2022087440545e-05
8.0429658070972e-05
7.0487895629809e-05
6.1739487411699e-05
5.411298881437e-05
4.7904009505356e-05
4.2809817337176e-05
3.8452850146402e-05
3.4802913256867e-05
3.1821302704448e-05
2.9248883950436e-05
2.5371056468476e-05
2.157588037462e-05
1.8483174797419e-05
1.5943122590121e-05
1.38369727576e-05
1.2083834360949e-05
1.0610108928487e-05
9.3647535988793e-06
8.3045748387923e-06
7.3985226875461e-06
6.6188082129108e-06
5.9458637309119e-06
5.3604155935177e-06
4.8503337790598e-06
4.4027285453858e-06
4.0095372674037e-06
3.6616173617554e-06
3.3534669252299e-06
3.0787421234497e-06
2.833676780162e-06
2.6140490669083e-06
2.4167465721328e-06
2.2391429604345e-06
2.0785926338415e-06
1.9333302542936e-06
1.8012625711196e-06
1.6810618173529e-06
1.571352026839e-06
1.4711102634459e-06
1.3793172569936e-06
1.2950850883779e-06
1.2176441811763e-06
1.1463084660767e-06
1.0804761575803e-06
1.019610228685e-06
9.6324780527225e-07
9.1098404974233e-07
8.6246320574119e-07
8.1736846322217e-07
7.7541667349303e-07
7.3637092429118e-07
6.3654683180347e-06
0.00038590839284729
0.00097373772929112
0.00091505933787164
0.00083562926110221
0.00078000561027148
0.00074065905860871
0.00071155783413615
0.00068871941978659
0.0006694403491127
0.0006519610147134
0.00063522440496264
0.0006186642015361
0.00060210549661483
0.00058564332728619
0.00056954865856851
0.00055603132252611
0.00054164577971722
0.00052875424253989
0.00051757133236088
0.00050822878301626
0.00050075387484571
0.00049514885877452
0.00049141758335982
0.00048939528512024
0.00048832410562692
0.00048644398246434
0.00048122318217381
0.00046949292277721
0.00044889559191223
0.00041915763727146
0.00038250718993203
0.00034275657292377
0.0003032061429324
0.00026580473716257
0.00023280075554914
0.00020134219939191
0.00018420592637377
0.00017178173329029
0.00016294485249067
0.00015684240825515
0.00015255747378071
0.00014945629110012
0.00014724753092057
0.00014571705245035
0.00014509211929826
0.00014495891318326
0.00014523035837422
0.00014573266891392
0.0001462370827403
0.00014664677390246
0.0001468878356249
0.00014692079328653
0.00014672150890486
0.00014628972411481
0.00014565903376803
0.00014485947485691
0.00014379763952065
0.00014254770934826
0.00014125101990637
0.0001399984668081
0.0001388048458882
0.00013768652950786
0.00013664070097288
0.00013565696524091
0.0001347278782752
0.00013385391530209
0.0001330049495897
0.00013214467005429
0.00013123779338219
0.0001303756732564
0.00012952540757579
0.003205430539685
0.0022642892437927
0.0015944020159803
0.0012095275706124
0.00092575832204227
0.0007171866120548
0.00057008734343102
0.00046530813733761
0.00038712417485705
0.00031513347702908
0.00026137965702759
0.00021713985640616
0.00018062314221195
0.00015100534258729
0.0001265482945156
0.0001069260310743
9.1760976276858e-05
7.9244162374968e-05
6.8655111109016e-05
5.9871341333376e-05
5.2607231622707e-05
4.6321473028922e-05
4.1022544907038e-05
3.667966412867e-05
3.3006379278846e-05
2.9856621933706e-05
2.7232215242104e-05
2.4768273401283e-05
2.1094079729491e-05
1.8089898477971e-05
1.5615226476293e-05
1.3563123608024e-05
1.1847911517327e-05
1.0406729188543e-05
9.1868802127867e-06
8.1491324780651e-06
7.25998827033e-06
6.4961373653008e-06
5.8353471660929e-06
5.2616553908217e-06
4.7606958054812e-06
4.3218363879729e-06
3.9354704466287e-06
3.5940085229027e-06
3.2913444575382e-06
3.021944066779e-06
2.781736143079e-06
2.5664038496327e-06
2.3732434512276e-06
2.199264795667e-06
2.0422898731582e-06
1.90011628592e-06
1.7710576441096e-06
1.6535385503243e-06
1.5462151608023e-06
1.4480822618218e-06
1.3581670654666e-06
1.275659234751e-06
1.1997885688981e-06
1.129877902323e-06
1.065331837917e-06
1.0056359898097e-06
9.5034411354795e-07
8.990579707783e-07
8.5142648514533e-07
8.0713776435616e-07
7.659219214682e-07
7.2738762782544e-07
7.4449893906061e-06
0.00040986551847246
0.00097468469013876
0.00091246028188288
0.00083333142231864
0.00077805214609568
0.00073895321599915
0.00071005079790347
0.000687382810543
0.00066825135987074
0.00065090076075996
0.00063428110692517
0.00061783348927427
0.0006013872672602
0.00058503781952714
0.00056905279683617
0.00055565265043849
0.00054134948516389
0.00052852582652637
0.00051739640120285
0.0005080938624114
0.00050064660022389
0.00049506239943118
0.00049135160121128
0.00048936169166968
0.00048835947767392
0.0004866179649528
0.00048163868795682
0.00047027112304037
0.00045013261672138
0.00042087649331671
0.00038462648246088
0.00034509989963461
0.00030556435493147
0.0002679825504288
0.00023459413156949
0.0002024396564288
0.00018471500096813
0.00017174783733922
0.00016242021805639
0.00015586670130433
0.00015120905657304
0.00014776296544522
0.00014530478375656
0.00014344784187358
0.00014245489173336
0.00014198096396031
0.00014191806024158
0.00014211025692151
0.0001423328258388
0.00014249069346232
0.00014251059358148
0.00014234874246257
0.00014197791176094
0.00014139990957356
0.00014066903660268
0.00013974106433753
0.0001385841948112
0.00013729895808693
0.0001360057016338
0.00013476433149836
0.00013358250434858
0.00013247513023088
0.00013143646147051
0.000130463994815
0.00012955011019452
0.00012870221592453
0.00012789105651597
0.00012710403543295
0.0001263188100513
0.00012561803694452
0.00012492804056387
0.0010984672136093
0.00095826055243831
0.00098923079231575
0.0010340182611179
0.0010735543006615
0.00093713441299364
0.00071129903331975
0.00054143794022887
0.00041986241412786
0.00033815620922414
0.00027561557232221
0.00022723643479466
0.00018857157022806
0.0001570540470593
0.0001314443097405
0.00011057698439449
9.3490919939783e-05
7.953211873322e-05
6.8231077074268e-05
5.9014639314013e-05
5.1461165795873e-05
4.531365617702e-05
4.0138599400819e-05
3.5752229225931e-05
3.2107828493903e-05
2.8986210350437e-05
2.6289868431049e-05
2.3989579886369e-05
2.0578845093513e-05
1.7678442526612e-05
1.5281769035427e-05
1.3285965258513e-05
1.1616226200546e-05
1.0210473362118e-05
9.0179233897128e-06
8.002272576597e-06
7.1322016825309e-06
6.3830919048451e-06
5.7344788297126e-06
5.1713004930089e-06
4.6793812601347e-06
4.2481803162569e-06
3.8682379443842e-06
3.5327992161275e-06
3.2351956933251e-06
2.9704939007493e-06
2.7341536193544e-06
2.5226485197931e-06
2.332809735701e-06
2.1618012275481e-06
2.0074788934246e-06
1.8676978111403e-06
1.7408793998458e-06
1.6254212943891e-06
1.5201073262536e-06
1.4238212604766e-06
1.3356277111154e-06
1.254727491299e-06
1.1803663894377e-06
1.1118699821658e-06
1.0486617225293e-06
9.902183892725e-07
9.3606762048794e-07
8.8581404954745e-07
8.3912967012047e-07
7.9571702228718e-07
7.553018426555e-07
7.1661467141676e-07
8.8125879909646e-06
0.0004376353613079
0.00097505697105618
0.00090917012214528
0.0008305111056132
0.00077566414498911
0.00073686749803327
0.00070820438815615
0.00068574036852646
0.00066678547840736
0.00064958995534164
0.00063311298546345
0.0006168037136979
0.00060049586860001
0.00058428514881622
0.00056843525789924
0.00055517377367002
0.00054097363175429
0.00052823668094699
0.00051717471203667
0.00050792289319709
0.00050051164016005
0.0004949544262631
0.00049127032320157
0.00048932175401749
0.00048840550630834
0.00048683671139981
0.00048215437337064
0.00047123342299603
0.00045166485668577
0.00042301466948476
0.00038727817300865
0.00034805416895547
0.00030856854194382
0.00027079050991258
0.00023692538494889
0.0002039357005977
0.00018547386473858
0.00017181588473117
0.00016185794716575
0.00015472603733748
0.00014959183073357
0.00014569909331532
0.00014284646074256
0.00014066956262596
0.00013920945220261
0.00013830202437387
0.00013782682702329
0.00013762953707648
0.00013750034849742
0.00013734319351829
0.00013708663729518
0.00013668104057776
0.00013609900418761
0.00013535638069554
0.00013448007839268
0.00013339644694944
0.00013214993201395
0.00013084825892316
0.00012957453955903
0.00012836038465199
0.00012720945797409
0.00012613577418247
0.00012513728644293
0.00012421191966946
0.00012335384839317
0.00012257804165893
0.00012186114793608
0.00012121219451375
0.00012060221831968
0.00012010960250879
0.00011959237777692
1.5056365641781e-05
0.00019816102879017
0.00028252443940893
0.0003792014452748
0.00046488854960485
0.00054027268155767
0.00061139888830977
0.00066154937656008
0.00050962954912458
0.00039563750710045
0.00031374493560826
0.0002543472981332
0.00020839971786769
0.00017198640661852
0.00014280968444328
0.00011915097639635
9.9798833480333e-05
8.4097350015428e-05
7.1415411138307e-05
6.11478095996e-05
5.2865684068017e-05
4.6147993693239e-05
4.0683924984423e-05
3.6199143058075e-05
3.2279101001662e-05
2.9114625589928e-05
2.6390847688206e-05
2.4046226648514e-05
2.0822505476104e-05
1.7889265385302e-05
1.546731150773e-05
1.3451734725164e-05
1.175980459968e-05
1.0332664341006e-05
9.1239779339047e-06
8.0937930857752e-06
7.209869764795e-06
6.4490110354523e-06
5.7908640455979e-06
5.2188255564922e-06
4.7191797692626e-06
4.2815165142124e-06
3.8962674614082e-06
3.5560211193777e-06
3.2542261985157e-06
2.9860954892891e-06
2.7468567061846e-06
2.5328645297902e-06
2.3407634134539e-06
2.1679610856238e-06
2.0121174321538e-06
1.8711027106779e-06
1.7431990657201e-06
1.626843923428e-06
1.5208462926307e-06
1.4240191980602e-06
1.3353826877204e-06
1.2540806672085e-06
1.1793879621808e-06
1.1106481275502e-06
1.0472484198299e-06
9.8865745940666e-07
9.3441564787114e-07
8.841315652309e-07
8.3745130039914e-07
7.9406154424785e-07
7.5367752592622e-07
7.1604064471065e-07
2.5951119288824e-06
0.00022348928654869
0.00095301146681175
0.0009278889570923
0.00084414365788571
0.00078463724048648
0.00074289017649008
0.00071241185445801
0.00068893932328772
0.00066951421859109
0.00065217970426302
0.00063576730022815
0.00061960775642884
0.00060346296541157
0.00058737218990958
0.00057156255971414
0.00055459059436733
0.00054051393767277
0.00052788187677932
0.00051690157211941
0.00050771110621746
0.00050034450336456
0.00049482076272791
0.00049116872503364
0.00048926912426167
0.00048845433279023
0.00048708574416802
0.00048275095347108
0.0004723579925073
0.00045346805048585
0.00042554534615952
0.00039043702945357
0.00035160331862612
0.00031221496976538
0.00027425264480747
0.00023984881712297
0.00020696113305952
0.00018713575034884
0.00017218986793967
0.00016104109089589
0.0001528104816921
0.00014676355183337
0.00014202195680501
0.0001383863680573
0.00013558100915848
0.00013334959102666
0.00013162393633082
0.00013039701357007
0.00012947268165964
0.00012869455111621
0.00012795553281211
0.00012718960851205
0.00012633306484802
0.00012537515138139
0.00012435852337206
0.00012317938630901
0.00012186998537878
0.00012053637263237
0.00011925632616704
0.00011804711486568
0.00011692315031392
0.00011587942135053
0.00011492851494738
0.00011408476178789
0.00011336547765315
0.00011274758397495
0.00011224302884126
0.00011182478804155
0.00011150134763812
0.00011122723937019
0.00011106283384806
0.0001107888322234
3.3516959530147e-06
2.2995113450934e-05
4.8855830108507e-05
7.8913857146228e-05
0.00011444439714264
0.00015584563920588
0.00019832400468592
0.0002419476468075
0.00028243357749596
0.00030942704950585
0.00031612772728786
0.00026278562613808
0.00021174723952235
0.00017247675577208
0.00014200555308398
0.00011796601990601
9.8385121910621e-05
8.2538876559066e-05
6.9825189102612e-05
5.9558274270938e-05
5.1240942889752e-05
4.449115890146e-05
3.8966250695669e-05
3.4432545460636e-05
3.0736195034761e-05
2.7669817531001e-05
2.4949068475477e-05
2.2007692716779e-05
1.8898791206717e-05
1.6326966602622e-05
1.4187900334414e-05
1.2392335488943e-05
1.0881224330828e-05
9.6003415853212e-06
8.5080524397376e-06
7.5698243699497e-06
6.7623803396894e-06
6.0641143996001e-06
5.457524465138e-06
4.9277165875349e-06
4.4636484801835e-06
4.0557551589585e-06
3.6958243488543e-06
3.3768651060026e-06
3.0935179638686e-06
2.8411301249731e-06
2.6156333266133e-06
2.4134602682305e-06
2.2317313431265e-06
2.0680569908838e-06
1.9202327508411e-06
1.7863828893421e-06
1.6648121046245e-06
1.5541998342254e-06
1.4533400203997e-06
1.3612019795155e-06
1.2768469507774e-06
1.1994458756765e-06
1.1283132285742e-06
1.0628175825561e-06
1.0024071733401e-06
9.4658270286363e-07
8.9491091679289e-07
8.4701822408555e-07
8.0256806014708e-07
7.6125504548408e-07
7.2279698832861e-07
6.8646303244227e-07
1.4479889410586e-05
0.00054428933084731
0.00097127383086955
0.00089466411001627
0.00081866729282844
0.00076579316099284
0.00072831662168599
0.00070064625254119
0.00067899243662412
0.00066072843048511
0.00064414641375901
0.00062824257067153
0.00061249504784387
0.00059675124971546
0.00058110625521048
0.00056580835126279
0.00055309239185498
0.00053932597928353
0.00052695636727245
0.00051618306989752
0.00050714760865821
0.00049989593809534
0.00049445891885185
0.00049088678112726
0.00048910285572981
0.00048852375200329
0.00048762796157675
0.0004841222149751
0.00047500388359235
0.00045777406805059
0.00043166115018663
0.0003981652340392
0.00036041194680505
0.00032141701906144
0.00028317368147733
0.00024768591591513
0.00021303663919926
0.00019096504346738
0.0001738233617183
0.00016058807385673
0.00015035911756909
0.00014256554895677
0.00013632030975065
0.00013122547268324
0.00012704625804037
0.00012356775673958
0.00012062417267263
0.00011812672018139
0.0001159717136416
0.00011406108564736
0.00011233309788883
0.00011074140202208
0.00010920512317843
0.00010766251984312
0.00010612704206858
0.00010460352996966
0.00010319003530416
0.00010197776290529
0.00010095242617639
0.00010011941268792
9.9475233844152e-05
9.8991165438861e-05
9.8662765582868e-05
9.8533471946072e-05
9.8575087913127e-05
9.8741615401091e-05
9.9017989635987e-05
9.934085943457e-05
9.9643367017906e-05
9.9864748460118e-05
0.0001000147629683
9.9909479226924e-05
3.0564521571037e-06
7.7297987935338e-06
1.4897570963045e-05
2.4871099227898e-05
3.8107723629249e-05
5.4441403791123e-05
7.4219650861822e-05
9.6465133841335e-05
0.00012098184725104
0.00014596232769656
0.00016661922753418
0.00017728156276042
0.00017646366534234
0.00016433850567845
0.00014236832594647
0.00011758179317642
9.8383408484151e-05
8.2830741158807e-05
7.0172728137988e-05
5.9830216989626e-05
5.1441328345075e-05
4.4594511566262e-05
3.8979168745685e-05
3.4348920378037e-05
3.0512728495677e-05
2.7313873785163e-05
2.3817083265029e-05
2.0507438429286e-05
1.7736971808989e-05
1.5405934691527e-05
1.344129570309e-05
1.1782745480011e-05
1.0375101800557e-05
9.177175988259e-06
8.1495783781865e-06
7.2666983338462e-06
6.5057405544121e-06
5.8462350889592e-06
5.2707713454262e-06
4.7666827996872e-06
4.3241981254848e-06
3.9340336177207e-06
3.5886836407431e-06
3.2818458212999e-06
3.0089502644724e-06
2.7653630055443e-06
2.5473405078464e-06
2.3515118707092e-06
2.1752559358446e-06
2.01631992093e-06
1.8726050904614e-06
1.7423050397476e-06
1.6238638321377e-06
1.5160456339012e-06
1.4176810983556e-06
1.3277677445573e-06
1.2454100925376e-06
1.1698423875488e-06
1.1003994389797e-06
1.0364467229748e-06
9.7743701017148e-07
9.2289927480801e-07
8.7241923828704e-07
8.256416982792e-07
7.8223835655915e-07
7.4191234089402e-07
7.0438146278097e-07
6.6993445691851e-07
2.3339786973479e-05
0.00063597144315403
0.0009627355572546
0.00088079395097314
0.00080779564129719
0.00075690698515206
0.00072070950814343
0.00069394207139593
0.00067298559304156
0.00065530254318065
0.0006392398022977
0.00062382947704787
0.00060857180130266
0.0005933229729147
0.00057817457754095
0.00056336108870753
0.00055111514397716
0.00053774277668351
0.00052570185742371
0.00051519338446428
0.00050635712029597
0.00049925443851334
0.00049393268774482
0.00049046344496975
0.00048881565735499
0.00048850363506454
0.00048815241214021
0.00048561068717404
0.00047801061002353
0.00046279695394072
0.00043894418643284
0.00040754769792845
0.00037133069031463
0.00033311649778029
0.00029488264020591
0.00025847252066698
0.00022206856289665
0.00019740106778193
0.00017758719358562
0.00016171675500214
0.00014894092023407
0.00013863371403853
0.0001303453825864
0.00012333390690253
0.00011736011642288
0.00011219549678236
0.00010766108102364
0.00010367608756202
0.0001001345738998
9.6961569713602e-05
9.411787269995e-05
9.1593562561201e-05
8.9375846022761e-05
8.7449518245823e-05
8.5778579073068e-05
8.4437968666373e-05
8.3510468193136e-05
8.2968926504593e-05
8.2740771206268e-05
8.2829817547238e-05
8.3272731343936e-05
8.4003582226661e-05
8.4991078471871e-05
8.6107751000698e-05
8.7310908174711e-05
8.8586460147672e-05
8.9859730048811e-05
9.1041408879932e-05
9.2025066880569e-05
9.2712685384349e-05
9.3159937167216e-05
9.3068176431252e-05
2.7338058176101e-06
4.8811694118596e-06
6.841542719577e-06
1.0919629744568e-05
1.6626354585539e-05
2.4088796304482e-05