/*--------------------------------*- C++ -*----------------------------------*\
| =========                 |                                                 |
| \\      /  F ield         | OpenFOAM: The Open Source CFD Toolbox           |
|  \\    /   O peration     | Version:  2312                                  |
|   \\  /    A nd           | Website:  www.openfoam.com                      |
|    \\/     M anipulation  |                                                 |
\*---------------------------------------------------------------------------*/
FoamFile
{
    version     2.0;
    format      ascii;
    arch        "LSB;label=32;scalar=64";
    class       volScalarField;
    location    "0.00016";
    object      cSound;
}
// * * * * * * * * * * * * * * * * * * * * * * * * * * * * * * * * * * * * * //

dimensions      [0 1 -1 0 0 0 0];

internalField   nonuniform List<scalar> 
109340
(
555.98117674996
554.91788467757
552.88920261192
550.42349265937
547.68632374369
544.81845091608
541.8748521588
538.88393186016
535.87904423605
532.79164146716
529.48855007522
525.84779160342
521.72950182071
516.97311190362
511.40211217365
504.83041070594
497.06802394018
487.93018741478
477.24716365882
464.87630217333
450.71304190516
434.70623225128
416.86975040058
397.29041578158
376.12779353232
353.60814071423
330.00904914005
305.63753547713
280.80329143489
255.79037129961
230.83035523593
206.07825603072
181.59527081217
157.35462382972
133.30004338595
109.48678695204
556.13971890975
554.77515393164
552.49775892275
549.86353016997
547.04415351505
544.16295688312
541.25635279411
538.32266747041
535.32012251989
532.18033607388
528.79941289184
525.05250884608
520.79326626136
515.85567310297
510.05919095184
503.21416939546
495.1313659792
485.62835546871
474.54027722278
461.73204916442
447.110800749
430.64027166194
412.35185793838
392.35095826027
370.81514116511
347.98568839046
324.15056824239
299.62086418705
274.70315296726
249.67113584928
224.73862367657
200.0342063599
175.57750745829
151.28037526586
126.95085288775
102.64179055178
556.73123077158
555.15377854447
552.64846737164
549.95243579276
547.15708742254
544.31714642703
541.4262318132
538.48431237726
535.47176194953
532.32334235476
528.93822450297
525.19069986964
520.93323113226
515.99904417888
510.20729969093
503.36900706639
495.29416796267
485.8000942469
474.72118115818
461.92167275171
447.30740752618
430.84113349065
412.55346239552
392.54908633285
371.00535071
348.16359399337
324.31235422529
299.76374738016
274.82570163867
249.7728696562
224.81901308481
200.08857080226
175.5780616633
151.13042861888
126.38888977348
100.96004313459
557.55333947959
555.65524571805
553.02609075833
550.25608324878
547.40825600952
544.51021997256
541.57159499066
538.5964585278
535.56142353254
532.40023748976
529.01227203001
525.27055322063
521.02568033842
516.10919048377
510.33819604644
503.52148994429
495.4671387911
485.99039388283
474.92288667788
462.12702211563
447.50493681779
431.01746333604
412.69386291745
392.63820754488
371.02923129989
348.11049112196
324.17426993133
299.53743969251
274.51319719125
249.38101992433
224.35812445933
199.56930549124
174.98481767012
150.36356067072
125.088910548
97.912502721555
558.84690784581
556.3855103843
553.37590844316
550.41834350252
547.49373636661
544.56761749827
541.62010094673
538.64854492783
535.62316339299
532.47499258844
529.10465192533
525.3842435648
521.16133423777
516.2629922515
510.50017010382
503.67369108026
495.58239930527
486.03149639684
474.83353634388
461.84682499079
446.95918176831
430.12673934583
411.37973333288
390.82926136918
368.6713822133
345.17322333005
320.65716039613
295.47351533548
269.9690629345
244.45378406899
219.16710315782
194.26314781045
169.69584390052
145.1662484411
119.78254228211
90.869886590724
561.2506673946
556.77357765816
553.45978615494
550.4407648733
547.51252808075
544.59242031545
541.65206522078
538.67588220698
535.6165603703
532.37696751544
528.81987478242
524.76951898473
520.01706945039
514.32683272428
507.44500031174
499.11206148939
489.07951603716
477.13670768
463.14548967248
446.93627680636
428.49197316288
407.90003308459
385.36472706692
361.20327589134
335.82522836546
309.6967748503
283.2987353621
257.08287216154
231.43467652903
206.64498080174
182.8845691796
160.24499344826
138.57815237349
117.53626249084
96.19634166395
70.961472847283
86.945236409101
68.05214353289
54.114790258385
44.677729773756
38.464123775476
34.286664112798
31.489021521431
29.669961996004
28.592452068941
28.098134446515
28.014578357247
28.399593838036
29.014964551869
29.809072196816
30.724773363221
31.69269533474
32.673655015258
33.63648852825
34.562651323247
35.443515901694
36.273365395682
37.049691214647
37.774006771439
38.448968656407
39.07749144756
39.663640591892
40.210107558815
40.718883098905
41.197057556816
41.642726943006
42.062722803255
42.456572111268
42.827769986969
43.178131745695
43.508849233542
43.82244249995
44.119285310322
44.401634224438
44.669861138848
44.925535667237
45.169406495147
45.402106089085
45.625015851877
45.837897698741
46.042556993149
46.238305217234
46.426953611297
46.607846960967
46.782345022666
46.950296839377
47.112197853381
47.268491490228
47.419439740772
47.565358272739
47.7065101048
47.843150794846
47.975511531284
48.103814781865
48.22826451885
48.349050464517
48.466347884052
48.580321405207
48.691126070099
48.798908599323
48.903806321308
49.005948134002
49.10545665655
49.202445963054
49.297041547733
49.79452018035
50.675121152769
51.081430752616
51.42691543499
51.748341480246
52.049459830051
52.332906345112
52.600988249266
52.855445914769
53.097678968917
53.329096996156
53.551319341746
53.766224225508
53.975739773999
54.18152264365
54.40992362563
54.610416277008
54.808607339192
55.004891634401
55.201185450593
55.402098787994
55.615588664769
55.852234180413
56.122395590275
56.431393520227
56.774643110063
57.135637301055
57.488859154774
57.806718105947
58.06794164032
58.261001498623
58.386065767619
58.454045649898
58.482927946368
58.489800740267
58.485118780479
58.477218599176
58.467778414837
58.457951340183
58.448520577744
58.439848825783
58.432215439056
58.425754762357
58.420260298854
58.41603247334
58.41364591285
58.413357776881
58.415139461406
58.419025193349
58.424941434658
58.432806383924
58.442529450604
58.454000194865
58.467123661669
58.48181341798
58.498031134918
58.515776877664
58.5352501035
58.556837840559
58.581065127877
58.608488487238
58.639620100249
58.674868926111
58.714314127039
58.757501067842
58.80287974843
58.84717338007
58.885102363979
58.910839251947
58.924497345356
58.945707753055
79.516131766909
61.201209860133
48.751479414934
40.842650174261
35.769827927982
32.390103802956
30.208173918027
28.875441189133
28.177985560853
27.963420280804
28.126253118076
28.572925855754
29.271397511023
30.10756282926
31.027464760257
31.99028278709
32.956533273955
33.901959027977
34.810710060797
35.673033605404
36.484580638418
37.244514781659
37.953753494569
38.614684991541
39.230409606147
39.804476567947
40.340213088593
40.840798688436
41.309259351848
41.748447037811
42.160797193915
42.548841501837
42.914395486537
43.259594906081
43.585931335239
43.895118265729
44.188361884241
44.467060693046
44.732198982512
44.984912004842
45.225996984457
45.456394530137
45.676747498432
45.887838061146
46.090201706337
46.284474910808
46.471123955777
46.650654519046
46.823491230539
46.990035048061
47.150656712483
47.305686157848
47.455457455452
47.600250503371
47.740340849895
47.875970824723
48.007374712305
48.13476627556
48.258346658601
48.378301436312
48.494805373927
48.608020959511
48.718100933311
48.825189029082
48.929420701044
49.030922816006
49.129814301542
49.22620532352
49.321733502518
50.118334901867
50.793454841762
51.172748415245
51.511398919607
51.827401545117
52.123764470057
52.403064678115
52.667456058843
52.918570347814
53.157792023088
53.386582273689
53.606642501214
53.819887702253
54.028204353571
54.233113214118
54.410190082474
54.610583072246
54.808662501161
55.004819075483
55.200961333274
55.401689615437
55.614948372637
55.85130869085
56.121140068006
56.429800589283
56.772767834292
57.133600226486
57.486827359431
57.804848373447
58.066359911257
58.259784930344
58.385235830394
58.45355423988
58.48267727406
58.489692615103
58.485076266479
58.477196231328
58.46774963214
58.457901693362
58.448450156918
58.439766322518
58.43213699844
58.425696551101
58.420216911658
58.41612500283
58.413946681778
58.413956152562
58.416139785676
58.420539665592
58.427086441524
58.435698084351
58.446280329597
58.458717099729
58.472906994926
58.488756043581
58.50621640954
58.525291594304
58.546217579202
58.569436234372
58.595536979776
58.625125757247
58.658748799991
58.696835968266
58.739451088675
58.786084849791
58.835062696602
58.882910717866
58.924027482973
58.952315224098
58.967998022629
58.991854372892
75.628381581309
56.195068599854
44.645160055744
37.47359257423
33.26933445146
30.677224367722
29.084823063074
28.206470220164
27.845824908312
27.842963571341
28.195114715587
28.747024568493
29.467692225592
30.306032106968
31.213386212092
32.153803589993
33.096597509661
34.020625532635
34.910140423408
35.755610637413
36.553335985051
37.302093379023
38.002116351273
38.65558268229
39.265427741125
39.834520096332
40.365899600909
40.862920786241
41.328333332079
41.764910764724
42.175081279562
42.561122392338
42.925107745548
43.268819768538
43.594001114693
43.902060941316
44.194440986058
44.47228040796
44.736762915792
44.988820719717
45.2294170942
45.459320945296
45.679304759112
45.890031320128
46.092108028865
46.286116924284
46.472537278611
46.651885551515
46.824542136414
46.990953613322
47.151445162046
47.306384888381
47.456063411189
47.600779745216
47.740802056584
47.876376521444
48.007734248462
48.135086561444
48.258633494807
48.378560319577
48.495041688187
48.608239372791
48.718305075705
48.825381723701
48.929604568327
49.031099804704
49.12998661931
49.226376513918
49.32224134741
50.131334414786
50.797748961616
51.17617783785
51.514621098356
51.830480345072
52.126701280368
52.405830781412
52.6700097004
52.920879008923
53.15984433833
53.388388342653
53.608224323098
53.821266799242
54.029391764681
54.234103804622
54.410897219703
54.611084642921
54.808924177116
55.00480648814
55.200623030569
55.40095289171
55.61371447335
55.849461803698
56.118583909874
56.426518022875
56.768874483473
57.129352031104
57.482580291611
57.800937537757
58.063056707004
58.257254910408
58.383529807671
58.452568747438
58.482199041304
58.489502699468
58.485014995026
58.477168543252
58.467702233197
58.457806148785
58.448307697546
58.439596610939
58.431975703548
58.425579425424
58.420139176194
58.41635447755
58.414647511614
58.415323836959
58.418412779599
58.423972743887
58.431945516333
58.442249421634
58.454782489353
58.469416175621
58.486034500298
58.504526497778
58.52481934868
58.546935089895
58.571194932714
58.598167819791
58.628591583664
58.663184093181
58.702571735083
58.747219399487
58.79714665239
58.851701011329
58.908890412975
58.964772274336
59.013009491736
59.046900610451
59.06693013045
59.096478402977
68.491275666172
48.23484738813
38.440097100445
33.099217346786
30.18552588652
28.651471391485
27.851971511131
27.551506356205
27.583007886117
27.851990680982
28.372248218129
29.004327324467
29.744952211722
30.572906533534
31.454132150928
32.365435394717
33.279339695564
34.17526636193
35.040237553279
35.865578161842
36.646080784437
37.379898189074
38.068169998968
38.712068589695
39.313780079741
39.876239644738
40.402353927928
40.89474609892
41.356272162206
41.789522190762
42.196877296871
42.580446981306
42.942312015502
43.284187303817
43.607736818989
43.914390842819
44.205502813318
44.482233171475
44.74571000084
44.996880084291
45.23667196523
45.465854426347
45.685204786646
45.895342516963
46.096913567838
46.290439438614
46.476457021518
46.655410341826
46.827736023103
46.993831693675
47.154052145491
47.30874590441
47.45820727365
47.602730872673
47.742575393523
47.877992555395
48.00920771072
48.136432874148
48.259866095045
48.379691630956
48.496082211838
48.609198684317
48.719192145657
48.826204745705
48.930370427453
49.031814219384
49.130654985831
49.227006459462
49.323483355146
50.149666830576
50.803994581203
51.181182582282
51.519311679193
51.834948443692
52.130948791492
52.409819924968
52.673686038999
52.924200327471
53.162797544404
53.390989381662
53.610505116172
53.823258086774
54.031109512638
54.235543029193
54.411977772995
54.611851803903
54.809328849393
55.004794333169
55.200117562187
55.399845006927
55.611855163738
55.84667557217
56.114723520751
56.421554388189
56.762978156246
57.122907208871
57.476120855712
57.794977704229
58.058010594119
58.253380758481
58.380906295111
58.451046371838
58.481458054691
58.489211765654
58.484922074825
58.477133225816
58.46764151284
58.457677769717
58.448112343975
58.439362889222
58.431756149249
58.425406195927
58.420081365515
58.416763358392
58.415794862047
58.417530164787
58.422057477245
58.429467237484
58.439721886897
58.452743201016
58.468418548392
58.486600150837
58.507147971139
58.529921678028
58.554804927995
58.581874239185
58.611597741907
58.64475846983
58.682341913178
58.725241695189
58.774210922501
58.829732200645
58.891721691076
58.959243453202
59.029707741547
59.09835449407
59.157647325415
59.19993670034
59.22612282184
59.264067182338
53.630214455772
36.702058559188
30.655578942933
28.25831266715
27.273717435179
26.941589764527
26.982427973797
27.218080465201
27.609163953418
28.114013152528
28.698015059208
29.362662295837
30.104196117005
30.909398857339
31.758245294042
32.628826954483
33.504122206678
34.366219912967
35.201342754332
36.000978034579
36.760320517134
37.477153056045
38.150539250233
38.782333618317
39.374281450939
39.928632444769
40.447820049573
40.934599845261
41.391349361211
41.820535940348
42.22440954619
42.605052940745
42.964332952274
43.304006160317
43.625614773629
43.930592388118
44.22019229185
44.49562115368
44.757905851023
45.008032395544
45.246861188732
45.475204195634
45.693768318485
45.903211873292
46.104137830752
46.297085194393
46.482569429365
46.661030759525
46.832915282947
46.99859523353
47.158445933794
47.312790169163
47.461941159188
47.60617962406
47.745763851705
47.880940024453
48.011932438387
48.138954742647
48.26220254519
48.38185867932
48.498093990901
48.6110690055
48.720933872262
48.827829186469
48.931887429867
49.033232582912
49.131983700478
49.228252509162
49.325710566278
50.173100819825
50.812176238189
51.187796228745
51.525495053116
51.840812790153
52.136499966727
52.415015886351
52.678464635482
52.928514074513
53.166634431649
53.394372394781
53.613476056373
53.825856390536
54.033355462041
54.237430256071
54.413429517259
54.612886801862
54.809880365091
55.004789617164
55.199455476665
55.398381255245
55.60939161499
55.842977865893
56.109592561742
56.414946027965
56.755112799745
57.1142932077
57.46746524742
57.786972122756
58.051212507177
58.248142095367
58.377338624398
58.448959926612
58.480430554198
58.488799945398
58.484792284974
58.477090298517
58.467576195672
58.457534043113
58.447887231404
58.439094722181
58.431511191506
58.425177754348
58.420104340375
58.417426495466
58.417493701641
58.420728069384
58.427300830588
58.437356491157
58.450893517371
58.467844379989
58.488084456769
58.511440223054
58.537735036295
58.566773712496
58.598397510852
58.632789548627
58.67065025798
58.713098023444
58.761493136572
58.816979387956
58.880464179283
58.952399892733
59.032462719079
59.119168631833
59.208924965256
59.295662200173
59.370087219922
59.423222034966
59.456496963976
59.505308565326
26.704017402384
24.5332629684
24.765259042792
25.321276156024
25.831927081627
26.37149501135
26.877522234463
27.411094909596
27.949181051497
28.530652504427
29.148511242552
29.819158001941
30.54073154998
31.308956922515
32.113785453528
32.939181341775
33.769963631198
34.591383044354
35.391622347358
36.161852100202
36.896377747308
37.592314246742
38.249106391251
38.866644920513
39.446721921361
39.991249677886
40.502422433188
40.982302881803
41.433281035653
41.857637570945
42.257401437765
42.634493010418
42.990749125284
43.327806334861
43.64711792749
43.95008844688
44.237949272878
44.511827680797
44.77273710365
45.021645597328
45.259386917027
45.486749373348
45.704423270066
45.913073285127
46.113268766089
46.305558372533
46.490427547929
46.668339163635
46.839709556538
47.004919445668
47.164333823163
47.318275280405
47.467057894344
47.610953043105
47.750222795478
47.885104200929
48.015823690684
48.142591731274
48.265602539088
48.38503907032
48.501071989073
48.613860432449
48.723552221751
48.830286932021
48.934196523438
49.035404327998
49.134029002692
49.230177390724
49.32910494705
50.201012148373
50.822314376206
51.196058694989
51.533191388934
51.848074965628
52.143342531198
52.421397597961
52.684320986385
52.933796856315
53.171335531046
53.398523091064
53.617127972473
53.829056825552
54.036127973103
54.239765809209
54.415253640188
54.61419355811
54.810585145706
55.004801226854
55.198648816721
55.396578298602
55.606346089449
55.838396904058
56.103223924547
56.406726633052
56.745307322142
57.103526340969
57.456613259133
57.776907261006
58.042638904306
58.241507723817
58.372789910886
58.446275327245
58.4790906425
58.488248873341
58.484618955975
58.477040830549
58.46751480753
58.457392854845
58.447659670077
58.438821673836
58.431262983399
58.424939651477
58.420270237489
58.418432926017
58.419873512455
58.425117540549
58.434450756512
58.448104440983
58.466137738825
58.488510014031
58.515086412117
58.545662213556
58.580004168765
58.617821749914
58.658947628425
58.703752763908
58.753289118081
58.809184137474
58.873342871895
58.947238087735
59.031924444321
59.127710364174
59.233708271151
59.347421510645
59.463649067037
59.574354887591
59.667820361123
59.733518819873
59.774056293583
59.835603883983
26.005683225634
22.922311160469
24.120272124125
25.118646584567
25.946083925298
26.646188090341
27.248690162205
27.818284543766
28.381633233281
28.95441634822
29.555924538563
30.191540892391
30.864768942964
31.576618855529
32.322557965669
33.09266878826
33.873811725744
34.653886132233
35.420437328511
36.164318456861
36.87901814975
37.560476400053
38.206628960638
38.81728240857
39.392594908865
39.933940851996
40.443353599389
40.922644103351
41.373675847821
41.798489307807
42.199181227616
42.577520527514
42.935140822119
43.273646894996
43.594520983587
43.899067453673
44.188477410273
44.463896172087
44.726334659144
44.976715106497
45.215877222237
45.444613025136
45.663614581732
45.873528831601
46.074934411946
46.268387453832
46.454370337372
46.633345407991
46.805725240563
46.971905419821
47.132244763111
47.287071270692
47.436694522751
47.581394172613
47.721437544875
47.857060405068
47.988487784855
48.115929966492
48.239587475735
48.359645907073
48.476276140242
48.589638457503
48.699882662713
48.807149834098
48.911572596595
49.013275343258
49.112372412346
49.208966068528
49.302919770614
49.942702588273
50.725699356833
51.117736642295
51.460485701022
51.780073645431
52.07948198614
52.36106571434
52.626981648842
52.879003505277
53.118696642562
53.347661959327
53.567640709995
53.780522659522
53.988150930385
54.192039612988
54.417452860481
54.615777093127
54.811451156761
55.004839930538
55.197712028137
55.394455738779
55.602744723494
55.832965452186
56.095655337608
56.396934215638
56.733591014337
57.09062232468
57.443564644084
57.764767494637
58.032260074109
58.233438090375
58.367206941071
58.442945986187
58.47740429187
58.48755076067
58.484283035724
58.47696127915
58.467449357413
58.457221649729
58.447357534039
58.438449601591
58.430924110244
58.424650722856
58.420847330509
58.420654332376
58.424803774833
58.434053279619
58.448937788084
58.46989801799
58.497161745664
58.530773001485
58.570590369094
58.616352303244
58.667678635792
58.724069046392
58.785461767041
58.852653488801
58.9275315144
59.012942689361
59.111987143005
59.226689577563
59.358162019337
59.505781327529
59.666824400465
59.836249767998
60.005281046598
60.161660583403
60.28945536793
60.375082299464
60.425988065336
60.50910073698
34.289601776751
28.75522987013
28.462975515356
28.487621074433
28.660291492905
28.919468100295
29.255468832889
29.66389012928
30.082487540335
30.545224368092
31.050429904588
31.588043212107
32.160216851636
32.767084434891
33.405120074915
34.067783085793
34.745529985517
35.42837235438
36.107243210913
36.772597597675
37.417801214146
38.038453673511
38.631714423123
39.196270709601
39.731966721827
40.239265930493
40.718957414395
41.172181932868
41.600633300833
42.005795393929
42.389175460766
42.75214522556
43.096225293249
43.422736205315
43.732906440569
44.02784769161
44.308680091393
44.576388392282
44.831872684161
45.075948441159
45.309393304823
45.532915941755
45.747156292561
45.952697163845
46.150087902539
46.339833659292
46.522397594367
46.698202477175
46.867645990779
47.03109830624
47.188896627103
47.341353481588
47.488756040792
47.631378419151
47.769469077027
47.903260060223
48.032963960976
48.158781815456
48.280905650337
48.399513748666
48.514772931305
48.626837482168
48.735852237219
48.841953341261
48.945268708725
49.045920139748
49.144020124181
49.239675854959
49.347495912509
50.303538412783
50.863787385185
51.230684190834
51.565286472403
51.878087485225
52.171375490779
52.447364730855
52.70805734669
52.955192888291
53.190415102197
53.415436590755
53.632083919218
53.842233091877
54.047601840032
54.2494828089
54.422994264498
54.6198016128
54.813706588691
55.005048783696
55.195517992628
55.389345915229
55.593999541132
55.81970973102
56.077101261061
56.372812930821
56.704578769615
57.058489933005
57.41087961902
57.734183411323
58.005940167739
58.212797855191
58.352715145995
58.434128056719
58.472796330419
58.485542016181
58.48362641062
58.476787231131
58.467460445859
58.457207512545
58.447262653533
58.438327839556
58.430677022574
58.424913536675
58.422873729601
58.425977384756
58.435593856305
58.45308786049
58.479646042054
58.516302743452
58.563808209372
58.622576260264
58.692569619722
58.773457131626
58.864554519877
58.965159486978
59.075556782336
59.197847000363
59.336268799273
59.496713691495
59.684837880954
59.903028734712
60.150543472746
60.422688597533
60.710518633701
60.999897051813
61.273748880862
61.510752436562
61.688348324137
61.793067093344
61.849106448056
61.955408882189
37.748349089838
32.599613923043
31.924795613966
31.616092420049
31.470641575401
31.42440151723
31.483484292453
31.629608748459
31.859918967813
32.164613148657
32.509056149705
32.904054600991
33.350445810891
33.838945698465
34.361367529728
34.913280490833
35.487144228044
36.074441485564
36.666801888893
37.256569558635
37.836591058295
38.401208487916
38.946585488131
39.470297397087
39.971094932221
40.448601047879
40.90288540069
41.334539002033
41.744478624228
42.1336517778
42.503203643317
42.854328256682
43.188102188974
43.505639474127
43.807907118432
44.095932845161
44.370666764837
44.632978826492
44.883665478392
45.123476246845
45.353131078663
45.573260663688
45.784457916881
45.987258853162
46.182190694908
46.36971570379
46.550266039506
46.724240838405
46.892019738075
47.053956776842
47.210369308904
47.36155290404
47.507782946942
47.649323073709
47.786414242158
47.919280379158
48.048129712922
48.173157965766
48.294549930745
48.412476425739
48.527097958089
48.638565962039
48.747021856349
48.852599206015
48.955424300609
49.055615225276
49.153276724384
49.248500174502
49.374718265794
50.383586492632
50.899689694142
51.261498756691
51.593823514633
51.904608173921
52.195970035765
52.470015193884
52.728704426996
52.973819090813
53.2070913774
53.430311902251
53.645332751511
53.853989669903
54.057908202029
54.258268018909
54.430104316909
54.625026712659
54.816736431063
55.005530418429
55.19302866829
55.383263184364
55.583441594313
55.803578472251
56.054363068368
56.343028463123
56.66845552263
57.018123119615
57.369438788018
57.695050362875
57.971919689649
58.185763506917
58.333351290257
58.421972876344
58.466163591865
58.482446963714
58.482583628325
58.476397427338
58.467563404126
58.457502022433
58.447639144044
58.438732564748
58.431010375161
58.426279150388
58.426702691133
58.434537837288
58.452203847331
58.48221031521
58.527029876068
58.58898630927
58.670117946487
58.771804348609
58.894613827202
59.038272551537
59.201678824245
59.384135194055
59.586910919917
59.814758515727
60.077446843875
60.386091757432
60.747786693974
61.160666414301
61.615158419202
62.093141244226
62.570204955543
63.018471473435
63.408497481878
63.711400520299
63.904713540676
63.995240281021
64.032950479479
64.157884488583
40.275972556188
35.188945913397
34.400161968927
33.997835691273
33.742278728589
33.583220246833
33.494118557243
33.497606510506
33.581032254265
33.725640806841
33.954051359006
34.224470539653
34.540615228524
34.911676674723
35.327360327113
35.777433483605
36.254762614651
36.752891409096
37.263409110691
37.778836259881
38.292837820896
38.800067292764
39.295680204183
39.776502424411
40.240370747753
40.686008861334
41.112883714093
41.520935281359
41.910431970496
42.281907161877
42.636098399709
42.973794946015
43.295796769809
43.602973504588
43.896204587223
44.176279421563
44.443989530534
44.700023674413
44.945135149505
45.180005751003
45.405226206057
45.621367707753
45.828947710778
46.028511453627
46.220509947573
46.405375283861
46.583505822462
46.755280867995
46.921063023665
47.081172081865
47.235913870986
47.385561425966
47.530384627854
47.670631578546
47.806529205472
47.938293391742
48.066124230021
48.19021354617
48.310737118481
48.427857594828
48.541728927293
48.652495591465
48.760295492249
48.865258633497
48.967506016819
49.067149725725
49.164292852018
49.25898960062
49.433593570413
50.467656147797
50.941657318365
51.298170078453
51.627727413682
51.936003601677
52.224971430621
52.496649638557
52.752971031022
52.995759401467
53.226825742474
53.448023683608
53.661212785949
53.868169519712
54.070408516093
54.268980417798
54.43885952873
54.631541044147
54.820645522703
55.006422292985
55.190426945919
55.376459317167
55.571410998888
55.785014298802
56.027975145251
56.30815155279
56.625731797248
56.969863734281
57.319339727824
57.647213010469
57.929827326629
58.151803578246
58.308511919769
58.405821619031
58.456938853699
58.477831426119
58.48085694995
58.475683525627
58.467653599779
58.458083313216
58.448544660325
58.439634131929
58.432296331495
58.428969651066
58.432474537968
58.446598025801
58.475487152544
58.523651151899
58.595987623618
58.697503786593
58.833261722844
59.007448443386
59.22269071398
59.479079032638
59.774753083613
60.109007543533
60.484950724504
60.912368938332
61.408682410176
61.988896341548
62.651627214553
63.37716093992
64.127674713222
64.856139398461
65.52150512701
66.085244969377
66.516896421404
66.797229213073
66.93070696605
66.955828425587
66.96122362691
67.097178669134
42.519193948896
37.102688603602
36.268163649519
35.829184226796
35.539800000123
35.331803001
35.188090665669
35.110806867893
35.104152868446
35.158571766626
35.269625495372
35.456622564194
35.685483213992
35.95288921767
36.270629690632
36.630091270002
37.022073412351
37.439031762808
37.874206624075
38.320966260583
38.77243315412
39.223297453337
39.669417871662
40.106757984485
40.532723128312
40.94545591112
41.343764457464
41.72697608661
42.09483867731
42.447444584167
42.785115484368
43.10829719788
43.417548959771
43.713500123873
43.99676441
44.267963639558
44.527781289712
44.776833060502
45.015707199894
45.244993639207
45.465181590501
45.676797314619
45.880330129742
46.076216267822
46.26489344694
46.446726101691
46.622093551331
46.791357177367
46.954835305675
47.112834654207
47.265626106467
47.413488408554
47.55667134798
47.695403431796
47.829904219779
47.960375651344
48.087016155842
48.210006281597
48.329510441064
48.445685223358
48.558675965638
48.668624490655
48.775662751354
48.879911657897
48.981486539935
49.080501569033
49.177058000487
49.27119377833
49.54804584909
50.552702633436
50.989607094673
51.340695533641
51.66688694485
51.972121974116
52.258229932419
52.527144322599
52.780774095148
53.020978447193
53.249630139284
53.468623956553
53.679804262623
53.88486869378
54.085204268614
54.281721410607
54.449358189187
54.639448651218
54.825555592479
55.007876543852
55.187919356723
55.369217932776
55.558296817172
55.764530728914
55.998569470191
56.268877237814
56.577060663312
56.914194309099
57.260753762686
57.59055429119
57.879271550213
58.110321803947
58.27746403674
58.384883843218
58.444417587277
58.471137263895
58.478019030819
58.474475786887
58.46744161894
58.458698180802
58.449700829805
58.441034240692
58.434455408903
58.432659553226
58.439656004723
58.461267470267
58.504533662469
58.577565986547
58.689537675587
58.850869867631
59.073075528467
59.365725519364
59.736654559093
60.188156755723
60.71610258196
61.316687794971
61.992679947293
62.75990137769
63.641695183304
64.636585182207
65.703376165312
66.770981289681
67.767514130872
68.637370629705
69.344931088987
69.868793836539
70.203904530939
70.363797447669
70.394325590056
70.345467046197
70.337686836054
70.462686790643
44.863609902443
38.595108590081
37.754316625413
37.289888094459
36.989506263257
36.763356484303
36.599743242326
36.482398616935
36.422215933715
36.421648386604
36.466863440507
36.565775942526
36.737124031469
36.940452628353
37.171112848628
37.450514268454
37.769768993426
38.116703142614
38.484288437937
38.867882212276
39.261944374304
39.660542088498
40.05902451702
40.454087769471
40.842491731508
41.222022016876
41.59111077113
41.948739450049
42.294237458042
42.627221259473
42.947613902226
43.25556108365
43.551350564621
43.835351127374
44.107998920994
44.369778587095
44.621168893316
44.86264469444
45.094696240786
45.317847738889
45.532530458511
45.739180559275
45.938224840662
46.130020416627
46.314970979441
46.493447434744
46.665762516473
46.832231884381
46.993139510672
47.14877106014
47.299407609231
47.445280418634
47.586623105187
47.723650781933
47.856568105898
47.985581055877
48.11086871189
48.232601822265
48.350938574937
48.466025096189
48.578006776285
48.687016643401
48.793178940327
48.896611058971
48.997425919527
49.095733075203
49.191633721813
49.285194102369
49.747480796802
50.636449840408
51.043331895077
51.388975387755
51.711253769853
52.012935713961
52.29573642266