/*--------------------------------*- C++ -*----------------------------------*\
| =========                 |                                                 |
| \\      /  F ield         | OpenFOAM: The Open Source CFD Toolbox           |
|  \\    /   O peration     | Version:  2312                                  |
|   \\  /    A nd           | Website:  www.openfoam.com                      |
|    \\/     M anipulation  |                                                 |
\*---------------------------------------------------------------------------*/
FoamFile
{
    version     2.0;
    format      ascii;
    arch        "LSB;label=32;scalar=64";
    class       volScalarField;
    location    "0.00016";
    object      dydt;
}
// * * * * * * * * * * * * * * * * * * * * * * * * * * * * * * * * * * * * * //

dimensions      [0 0 -1 0 0 0 0];

internalField   nonuniform List<scalar> 
109340
(
0
0
0
0
0
0
6.0046316335176e-08
0.0014201348408578
0.0090506057230364
0.026759403018636
0.058116547623612
0.10647685391807
0.17510233886394
0.26737952652494
0.38703991861217
0.53840658284358
0.72679635216734
0.95895796053127
1.2436640470229
1.5923824153939
2.0203159198275
2.5473534588776
3.1995774457029
4.0113848487881
5.0288821936249
6.314634142905
7.9553472638048
10.074236546582
12.852129953894
16.565109955053
21.655238415458
28.872349157429
39.574341670134
56.386854982458
84.698715873913
136.19094896497
0
0
0
0
0
0
2.4137327201967e-05
0.0022437508466402
0.011438257230473
0.031554952928639
0.066127131842894
0.11848410726148
0.19191199607662
0.28986842522966
0.41621593670324
0.57554596471104
0.77345337335147
1.0171230443455
1.3159420968453
1.682238383729
2.1322789103331
2.6873430467348
3.3753545894522
4.2332434490933
5.3106435783371
6.6752430531951
8.4213508329453
10.683982341578
13.663164171412
17.667869344946
23.200386413722
31.130428511752
43.083156262355
62.336976232368
96.25792675494
161.5354878239
0
0
0
0
0
0
1.1017314247352e-05
0.0019785308658988
0.010755141850375
0.030414918823114
0.064551131323594
0.11653985304676
0.18970990991025
0.28754779756172
0.41391737378638
0.57334231679613
0.77138484961777
1.0151649557395
1.3140282335823
1.6802560405623
2.1301189876503
2.6848593247813
3.372355331018
4.2294985080833
5.3058688582106
6.6691237678579
8.4135130362933
10.67396891775
13.65041957596
17.652002803955
23.182203801284
31.118010627544
43.131028251254
62.727623464028
98.328080567827
172.60369131528
0
0
0
0
0
0
4.300993382847e-06
0.0018015329953802
0.010361102191748
0.029860561891271
0.063910565585044
0.11586391836608
0.18901462508648
0.28680596226484
0.41307003683784
0.57231269301049
0.77006997774892
1.0134419027198
1.3118118360094
1.6774402947205
2.1267732748634
2.6810945942356
3.3683625780304
4.2256476913205
5.3026652048674
6.6674182137798
8.4146107941377
10.679863136297
13.664226189478
17.679062400429
23.232543541359
31.21410237566
43.363996617284
63.501385115457
101.73635804577
192.44434133077
0
0
0
0
0
0
2.4748284309303e-06
0.0016997749326071
0.010036204281465
0.029222825710944
0.062896194449266
0.11442743835294
0.18713056399827
0.28447130747845
0.41030757246188
0.56917399072965
0.76662199676746
1.0097578549612
1.3086441088623
1.6754044186471
2.1274748890685
2.6868496224637
3.3826132242864
4.2536448129296
5.3518859536877
6.7488210547853
8.5440450551591
10.88033340193
13.969535554879
18.140200071333
23.932195679487
32.277730823599
45.072549205988
66.622481949243
109.58139693123
231.70604747123
0
0
0
0
0
0
7.4810652198193e-05
0.0032260205329662
0.014900932744141
0.039508571377164
0.080906285876345
0.14273048145909
0.22867146129536
0.34277558800377
0.48979763452146
0.67561144229497
0.90767644956411
1.1951689894445
1.5488172314418
1.9912244525159
2.5447374574928
3.2400444244597
4.1179702660914
5.2326804105537
6.6568015933384
8.4891028440722
10.86653573227
13.984027084492
18.128745279953
23.74348521411
31.561721511962
42.796905883915
60.017297533474
89.060520806604
147.97784949513
346.99697039084
231.64767659544
388.21419583883
601.79560812
853.65072714252
1132.3013157629
1451.1604531698
1815.6219096821
2231.3093502632
2694.3700030044
3191.7771065278
3748.9886249295
4203.4969342966
4639.1144981245
5009.8495321557
5283.3837124955
5473.6376457145
5580.8735198164
5620.3569793195
5605.8737568984
5545.6820696271
5451.6448037183
5336.7358840295
5207.6621329092
5069.5239958752
4927.8054920786
4783.3486233647
4639.1051213304
4503.8747761552
4364.1573822756
4235.808275561
4108.6610839302
3986.9015566575
3872.2080723376
3759.5151138254
3655.2362990237
3552.2514106506
3457.1853484829
3363.5406076496
3276.6915596529
3191.5858379017
3111.9428292412
3034.7326317822
2961.3060335508
2891.3666120994
2823.7634717358
2760.0279290092
2697.7864547368
2639.2869414471
2582.0674831793
2527.7976940758
2475.4755842492
2425.2352782847
2376.9346177544
2330.4362965109
2285.66838828
2242.5395608464
2200.9706467209
2160.8787389472
2122.1880400901
2084.8275437336
2048.7335593722
2013.8458530553
1980.1067749324
1947.460890234
1915.8564860029
1885.2459315942
1855.5858129539
1826.8322546919
1798.724582148
1905.9732561439
1431.930733008
1275.4533587842
1188.4716664072
1112.2596667803
1043.2712323901
980.55546761738
923.36524173004
871.14316865077
823.40520783464
779.67001012398
739.47755602291
702.37266547409
667.93174465421
635.75816813622
601.79929391018
573.1724109179
545.57089326028
518.52790077259
491.48468522774
463.88103032123
435.28377250983
405.56399870024
375.03076549167
344.37996497565
314.44090780147
285.85450837615
259.05080521927
234.42094698346
212.53823678757
194.16490339136
179.98694415795
170.18859385112
164.21992337997
161.00104280425
159.14468611242
158.36666130466
157.77494185274
157.22791062141
156.66265059422
156.04604419702
155.35478342613
154.57426876099
153.69533222954
152.68513168247
151.60218344889
150.41268415332
149.13258456873
147.75517786084
146.28820449466
144.73470685563
143.09259713865
141.36446606306
139.54824878733
137.64276857321
135.63515875037
133.51925019637
131.27224930613
128.86500719095
126.26744143782
123.46342590587
120.4549187952
117.25947675431
113.92813206804
110.52243724416
107.12017930934
103.81722411518
100.70097113162
97.963279171305
96.172276724225
97.512201640461
291.65289880955
497.75606382095
755.87469547366
1038.3474899292
1345.8735522191
1702.3885121004
2099.6794960614
2536.1334937285
3002.5026036223
3487.9993462315
3973.9770702494
4446.2931490427
4822.8039593993
5134.0259010979
5371.410436336
5524.7241359093
5605.9854631266
5624.5046589696
5591.260856004
5519.1468018992
5418.6051236762
5298.0930846558
5165.2656303882
5025.6431448907
4882.8952196153
4739.7938608645
4598.4306521294
4460.1216294441
4326.0521519443
4196.3611443902
4071.9107360982
3952.1624629034
3837.8558267905
3728.3754980437
3623.9557880228
3524.1504037499
3429.0037118733
3338.0790539314
3251.3658152444
3168.4595623462
3089.356286199
3013.6315484957
2941.3376366024
2872.0493320556
2805.8283798979
2742.2931093204
2681.4859410388
2623.1034631413
2567.1229173265
2513.3465013338
2461.6904989244
2412.0378153595
2364.2738966721
2318.3012442411
2274.0201937935
2231.3534213406
2190.2160656178
2150.531680022
2112.2267701633
2075.2335011327
2039.4879011702
2004.930043013
1971.5031555929
1939.1536313555
1907.8307175031
1877.4860911962
1848.0752582761
1819.5563148821
1790.1531563161
1815.8221442878
1371.4697751545
1251.2966189809
1168.0921819935
1093.8862707101
1026.6222714606
965.4148681947
909.57360325164
858.56892302364
811.92391897505
769.16114030312
729.81973627917
693.45316107941
659.64626185586
628.01035635577
601.84409163988
573.24606368125
545.6653122991
518.64140592863
491.61925181587
464.03921638242
435.46760961053
405.7734590166
375.26280650677
344.62876580528
314.6995536336
286.11609236288
259.30875427614
234.66795258677
212.76623833113
194.36543488309
180.1529121038
170.31693898915
164.31319855996
161.06526761635
159.18469968153
158.39428980471
157.79240291609
157.23617539631
156.66167256171
156.03484947145
155.33244808777
154.53980525137
153.64764330027
152.6217985892
151.52234403693
150.31098619042
149.00664049521
147.60205947533
146.10514454753
144.51875862876
142.84073359038
141.07369050991
139.21548477209
137.26475326872
135.20847143948
133.03983314832
130.73424999261
128.26139782392
125.59046982639
122.70752060839
119.61745025601
116.34267026508
112.94050261673
109.48057573948
106.04974177073
102.75433726787
99.696535559007
97.086727712045
95.531392311078
97.24025684455
344.01149160878
629.28949935153
936.06606735869
1300.632215586
1664.0639510208
2047.5925276354
2464.309912955
2899.4850118733
3342.9203095777
3809.1962293008
4207.4971167899
4593.5158911762
4929.2235335837
5200.4096116215
5404.7119908395
5539.6559268818
5608.6829233803
5618.0480673359
5579.9802049779
5506.8164644916
5406.2322422523
5285.855882888
5153.834892753
5014.9784639812
4872.706345151
4730.3257326487
4589.9154401935
4452.3273547839
4318.8045416434
4189.8774229448
4065.8171544688
3946.8615537662
3832.8107081873
3723.895817863
3619.7068149193
3520.3650744175
3425.4011084762
3334.8465832306
3248.2885284015
3165.6966107144
3086.7038409378
3011.2565784928
2939.0560755976
2869.9983888187
2803.866843658
2740.5224322167
2679.8134544111
2621.5696976002
2565.695353232
2512.0188781899
2460.4615688855
2410.8779494431
2363.1927047163
2317.2890870981
2273.0782695763
2230.4721495277
2189.3890348268
2149.7548671485
2111.4969798185
2074.5476858746
2038.8426540968
2004.322294168
1970.9304680089
1938.6140655759
1907.3223507015
1877.006271707
1847.6208315113
1819.1255145457
1789.8238065254
1809.0109013456
1369.3211408666
1250.3108048277
1167.2874046483
1093.1814651492
1026.0010838391
964.86905066757
909.09862171627
858.15918904868
811.57333238597
768.86291424576
729.56753615262
693.24184666147
659.47229278939
627.87267825341
601.75023130767
573.18422778327
545.64099787745
518.65552559912
491.67716248735
464.14720560645
435.62920018426
405.98704165882
375.52065476367
344.91907945148
315.01067624775
286.43914896954
259.63779136761
234.99656411337
213.08284476707
194.65558294957
180.39834126537
170.50833218838
164.45253801302
161.16527473045
159.24730236133
158.4400425475
157.82200300663
157.24928516809
156.65664270621
156.00883475125
155.28259000201
154.46344404609
153.54309741608
152.48371749627
151.3436279754
150.08724012247
148.7312514496
147.26870781065
145.70728632496
144.04960221762
142.29337863087
140.44128712338
138.4909200719
136.44022866698
134.27630322883
131.99016553888
129.55408847617
126.93547001427
124.1029729567
121.04715353212
117.77998837871
114.33370067557
110.77912803799
107.20680101293
103.71896153176
100.44451609053
97.516413512666
95.181792618012
94.139456083832
96.652651174409
465.72142456325
923.08587961099
1350.2607457567
1808.6529936527
2258.0964506639
2666.6133509457
3071.6566840218
3458.6515274441
3836.7975851835
4212.8527635782
4501.3716875776
4797.4659681141
5067.3677925229
5288.3782587318
5458.6797181536
5566.0851340508
5615.6043252627
5615.0246939064
5571.3553258636
5493.1581895935
5390.5966207391
5271.5894288932
5139.8289173552
5001.3141028591
4860.3271728163
4719.0271774408
4579.182813175
4442.5877611674
4309.9202970886
4181.7410372796
4058.3620604615
3940.0706576823
3826.6391141786
3718.1800240124
3614.5226201581
3515.5261139223
3420.9830320431
3330.7282499769
3244.5101716138
3162.1616211706
3083.4517574468
3008.2265645995
2936.2406216243
2867.3831364062
2801.4252781362
2738.2611489053
2677.6844256924
2619.6005290329
2563.8420774822
2510.3004413009
2458.8478672891
2409.3696581182
2361.7731120115
2315.9538448314
2271.8265379439
2229.2951944219
2188.282835941
2148.7130202249
2110.5146155089
2073.6201038707
2037.9662374945
2003.4939247011
1970.1471241618
1937.8727565285
1906.6206238688
1876.341998092
1846.9916114859
1818.5287735433
1789.4275654446
1798.6012134584
1366.2698130948
1248.8867024666
1166.1290729619
1092.1655320945
1025.1054333424
964.08263680584
908.41413040911
857.56875749757
811.06793556677
768.43283311869
729.20369256875
692.93685135516
659.22091627448
627.67235250335
601.60560639328
573.08876359122
545.59922110268
518.67287429951
491.7617402736
464.30780250807
435.87087588961
406.3074688316
375.90834808154
345.35623179032
315.47954529413
286.9265609786
260.13494346154
235.49251868244
213.56088933163
195.09259147287
180.76930448354
170.79742020028
164.66148706391
161.31086695451
159.34194766617
158.50790737185
157.86642735805
157.26945427322
156.64997630816
155.97148735058
155.21113254805
154.35298919728
153.38568586093
152.27785213152
151.07837863353
149.75360802356
148.3198089395
146.76983562231
145.11081170929
143.34489777712
141.46972963977
139.48799706157
137.39685759001
135.192467782
132.86364259761
130.39652920854
127.75925300666
124.91603968104
121.83630988561
118.51963625351
114.9877573152
111.29239446427
107.52571960837
103.80089867299
100.24692930359
97.022656456542
94.305035984862
92.389067338034
92.071956703169
95.805669574038
886.0711609804
1720.1388493189
2410.8196126393
2933.9597607595
3336.7187738342
3661.1160048447
3919.4460681697
4161.0827675861
4380.4466144333
4588.572349587
4809.9752202518
5028.3881397101
5226.6961943548
5391.6954005382
5515.2063495151
5594.8277027529
5625.5938987272
5611.3603785716
5560.0561433326
5478.8833973936
5374.5110486593
5253.4203568168
5123.1672178145
4986.0213529911
4845.8014588449
4705.3979554787
4566.9806992761
4431.3570064942
4299.6115288972
4172.3226620781
4049.8006659047
3932.1289147493
3819.4380815472
3711.5543833316
3608.4382104592
3509.8838279093
3415.8065963864
3325.901296807
3240.0548929177
3158.011057527
3079.6172222633
3004.6344268626
2932.9192553951
2864.2745993718
2798.5410065167
2735.556675288
2675.1673996724
2617.246702716
2561.6394417064
2508.2392416126
2456.9111949928
2407.5585642421
2360.0679663428
2314.3486587557
2270.3108527574
2227.8679809649
2186.9390657829
2147.4454851046
2109.317086421
2072.4871427119
2036.8938562265
2002.4781277632
1969.1837365129
1936.9581492979
1905.7521778987
1875.5172587505
1846.2079376797
1817.782110706
1789.1029197561
1784.565583678
1362.3739329637
1247.0569184328
1164.6243568957
1090.8438891299
1023.9410488092
963.0611606373
907.52531057256
856.80198622065
810.41120167094
767.87346292592
728.7300342293
692.53939886136
658.89284574887
627.41001805392
601.41198268994
572.96017014528
545.54110867233
518.69359718963
491.87229478134
464.51981864215
436.19105801448
406.73286353007
376.42394912196
345.93847551682
316.10462235063
287.57650945347
260.79751643719
236.15379373992
214.20000313901
195.67863062076
181.26894407604
171.1883620397
164.94525130621
161.50912481154
159.47186038998
158.60223613215
157.92936049576
157.30015622922
156.64547065326
155.92676592858
155.12107859108
154.21204685213
153.18361324315
152.01018743182
150.73191252055
149.317499394
147.78163306833
146.11631386953
144.32773392873
142.41748658542
140.38314663226
138.22708726736
135.94575337853
133.53316006661
130.97964687218
128.26509849459
125.3527618641
122.20407390306
118.79248052456
115.13078550646
111.2573623683
107.25235326619
103.23659271363
99.348749290921
95.747735196951
92.628411977505
90.207419735142
88.83681028687
89.427505112919
94.769636945445
4223.9156858233
5008.3903309748
5053.4308651078
4914.4766603666
4849.4504088284
4788.6878819606
4799.8581809598
4826.8163469548
4907.4693249869
5004.6812431997
5130.8845945006
5260.5594058756
5386.4233717798
5496.1401011463
5576.7600464553
5623.109453369
5632.4472396849
5605.6964079151
5546.5621063314
5460.8409546999
5354.9048790848
5234.3370585213
5103.2723892496
4967.4969261941
4828.8926687516
4689.9653507238
4552.4384864319
4418.2904828051
4287.8078659931
4161.5265384602
4039.8938165241
3923.1662060312
3811.2064347154
3703.993572784
3601.5094828757
3503.5246400896
3409.8877161324
3320.436621416
3234.9952423834
3153.3162041247
3075.2383298645
3000.5651287492
2929.1354434331
2860.7407035648
2795.2429186621
2732.4709542216
2672.2929260158
2614.5474526568
2559.1136792324
2505.8669652243
2454.6884929237
2405.470759632
2358.1031969319
2312.4976066421
2268.5626717614
2226.2192647205
2185.3819661829
2145.9739166699
2107.925367275
2071.1704219873
2035.6464048653
2001.2939731897
1968.0583582108
1935.8878721299
1904.7335668435
1874.5469329928
1845.2841678523
1816.8926802821
1788.9306682547
1767.6809418558
1357.8272035091
1244.8439564399
1162.7801602527
1089.2230736101
1022.5144219916
961.81092004364
906.43782349633
855.86375771052
809.60720244997
767.18799521351
728.14884841357
692.05102937441
658.48909292477
627.08648455182
601.16995456117
572.79869848947
545.46686901771
518.71738921522
492.00800064832
464.78186577524
436.58815050571
407.26158260512
377.06594130254
346.66454355382
316.88430085502
288.38813085103
261.62637393945
236.98241214996
215.00187092786
196.41537038342
181.8994307203
171.68396801853
165.3068675602
161.76449624104
159.64133267194
158.72660594998
158.01497188199
157.34650443435
156.6481791654
155.8798000836
155.01863518801
154.04630725406
152.94255742071
151.68838145292
150.31364509581
148.78915515245
147.12771440761
145.31984429361
143.37002297375
141.27934323625
139.04527013773
136.6689664436
134.14626622768
131.47023694658
128.63254447105
125.60109537745
122.33548898408
118.79803342603
114.97243849439
110.89252562212
106.62248951026
102.2812405465
98.017521572631
93.994044355576
90.401605604749
87.461810061712
85.420919588739
84.708946944734
86.366641369988
93.642259109406
17931.935016817
10794.963295341
8408.1690067728
7121.7529392393
6337.7979218817
5872.907664231
5624.0454945617
5484.7292558651
5417.7306735673
5404.4235704098
5423.7638433733
5468.1340215515
5524.80223071
5581.3219955912
5625.4359990773
5647.3326719086
5642.8980693357
5609.3869146355
5548.4340074202
5463.8162080616
5360.1916614441
5242.1975516259
5114.4738036154
4979.9657520928
4843.1964140032
4706.1953648242
4569.9299371049
4436.0886179462
4305.9457618721
4180.0739203827
4058.4231812056
3941.343621773
3829.1228506861
3721.6315097366
3618.6830646715
3520.2078774924
3426.1216617996
3336.1750430387
3250.1970111189
3168.017347997
3089.4587258245
3014.3040347943
2942.3902748389
2873.5441009443
2807.6146463909
2744.4203159278
2683.8293360118
2625.6927558864
2569.8911116675
2516.2859856617
2464.7637390172
2415.213611535
2367.5344073669
2321.6307094439
2277.405764683
2234.7801296019
2193.6739473578
2154.0136881123
2115.7236931115
2078.735198824
2042.986271126
2008.4186701638
1974.9772745732
1942.6087510946
1911.2648156022
1880.9008290965
1851.4726685596
1822.9318444733
1793.4034058794
1880.1881896542
1401.479220664
1264.996125964
1180.1247406601
1104.9590517802
1036.8574061813
974.94083284598
918.48494270484
866.93742297382
819.81002576301
776.61667405334
736.90083890321
700.21857200508
666.16042967077
634.34753962717
600.87998094711
572.60440328805
545.37626308977
518.74345532371
492.16755940336
465.09210070875
437.05996308267
407.89151394562
377.83249764815
347.53277775885
317.81839636106
289.36183044346
262.62112377316
237.97755542456
215.9664338745
197.30415590318
182.66416071318
172.28910549792
165.75010143481
162.07184617167
159.96299822103
158.96408637736
158.18184727753
157.44360235821
156.66680385821
155.80990971498
154.84876867731
153.76175871057
152.52520424886
151.12791074481
149.5817510494
147.86097125272
145.97451464476
143.90946657219
141.66844240848
139.2520319867
136.65707204792
133.87897991358
130.914364652
127.75661032175
124.38562518229
120.76049563265
116.84104253435
112.60103295122
108.05674617554
103.28961999648
98.422102711041
93.611548138312
89.026035972472
84.88367183574
81.406508769027
78.858357469104
77.543588669225
77.952138815532
81.414681723044
92.005417481561
11155.058680133
12572.331468987
10534.148344196
9123.6338417714
8126.7001231268
7416.1191228018
6890.755010379
6488.3512075446
6249.0615853158
6067.8333748716
5933.9210528436
5848.7991651781
5793.1784904416
5754.6947602049
5721.4670684897
5682.8209528717
5632.4128625526
5566.8178708553
5484.1831156628
5386.0503344194
5275.1479018145
5154.3550495527
5026.7594252181
4895.2554800754
4761.7911927841
4628.0362548346
4496.0781571043
4367.1535839039
4241.324626076
4119.3214097356
4001.4680858443
3888.2420886136
3779.3658190004
3674.9164534341
3574.8296498781
3479.1118186731
3387.4749534372
3299.7909992444
3215.8960177112
3135.6702052122
3058.9008079561
2985.4068488264
2915.0254569088
2847.6144306175
2783.0079265188
2721.0495542172
2661.6026389375
2604.5414461278
2549.7394280034
2497.0696078147
2446.4215465854
2397.6909128364
2350.7831415317
2305.6022187656
2262.0593721017
2220.0721355589
2179.5652656465
2140.4683772566
2102.7110564011
2066.2270382506
2030.9545535019
1996.8365888546
1963.8195501691
1931.8519216656
1900.8861543902
1870.8818861609
1841.7960987085
1813.581079559
1790.0079890467
1698.9786365906
1341.1954643891
1236.0658627229
1155.2987563517
1082.6482342045
1016.7400945795
956.75973866289
902.04735819939
852.07373869309
806.35354142583
764.40702580634
725.78400853449
690.05771515737
656.8359707843
625.75738034353
600.15801273845
572.11682546578
545.14432807669
518.79852866988
492.55179799803
465.84809020275
438.21637460414
409.44330142145
379.72931871348
349.68945689921
320.1445542323
291.7903711356
265.10462952869
240.46592725843
218.38506894605
199.54382965654
184.60767208396
173.84688482675
166.91363402297
162.90653279652
160.5729741521
159.4343289723
158.53670765079
157.68634192663
156.78279992677
155.78124046503
154.65448656634
153.37495279505
151.9224813243
150.28606430326
148.46157965052
146.42459788867
144.17250436687
141.68557816758
138.95641715423
135.98278477791
132.75666005757
129.26654986453
125.50470350364
121.46120384616
117.10540012485
112.39280254166
107.30486083224
101.87134378605
96.212511746345
90.502354450025
84.959796909719
79.830563256408
75.334941576435
71.657173733067
68.99649015012
67.565595741529
67.64914270708
69.849897721201
75.97785122411
91.332868181988
8617.5833316423
10986.542641914
10271.56291537
9349.340009988
8576.103268957
7964.6521477854
7464.0272997203
7059.8751488165
6713.9722192708
6443.6185008809
6244.2127665059
6081.8084419557
5953.2006173053
5850.2154737022
5763.3947636523
5684.0952743278
5603.9021738845
5517.9195431986
5423.2186426197
5319.0323346655
5206.024553331
5086.072883978
4961.147462243
4833.2247394483
4704.1218319843
4575.2024086739
4447.7809490739
4322.7232245756
4200.7261603621
4082.5031321017
3968.1233245503
3857.7761318222
3751.5957951982
3649.5248632012
3551.7272469794
3457.9579462537
3368.0960200407
3281.9916107685
3199.5643036353
3120.6352514212
3045.0098074005
2972.5511104388
2903.1178863506
2836.5713958635
2772.7306795653
2711.4766386573
2652.6698802106
2596.198163417
2541.9331801858
2489.753841001
2439.5567336483
2391.2428188513
2344.7212598997
2299.8940656495
2256.6781248161
2214.9930596623
2174.7655404872
2135.9261794273
2098.4048981902
2062.1409108206
2027.0748307112
1993.1501217566
1960.3142554339
1928.5158374924
1897.711079943
1867.8583931989
1838.9114307973
1810.8141067489
1795.5025622003
1636.0165306007
1328.1886221879
1228.5179730358
1148.7822514757
1076.9297978865
1011.7296019595
952.38542524696
898.2472952922
848.78942790166
803.5264151729
761.98189608556
723.71347765989
688.3052463367
655.37688136841
624.57987144849
599.24933380489
571.49724806002
544.84204606386
518.85126619549
493.01162799655
466.76936175657
439.63692450988
411.36163393828
382.08944901499
352.3889376644
323.06837451882
294.85074600092
268.23872735751
243.6136864357
221.45610257671
202.40871732918
187.12353419807
175.9013513862
168.48333560743
164.06084319536
161.43388012314
160.11995028278
159.0868748047
158.10935313912
157.0627482471
155.89479157129
154.57473148745
153.06647833357
151.35945851644
149.44401980128
147.30261504451
144.90386819268
142.22671309621
139.23575689585
135.9016385246
132.18945721842
128.08088694182
123.57734200583
118.69387772876
113.42821649867
107.77240341474
101.71649230032
95.331369349493
88.824853865369
82.501464665987
76.591298414714
71.422678590955
67.182205801659
63.967002358759
61.809771669092
60.761004704674
60.942519260393
62.624209032844
66.610609704802
75.223065150496
94.454800150713
7508.2455368904
9238.5632848039
9360.8050085692
8879.1088053746
8346.8500436284
7881.9044343749
7476.9527275672
7123.4275645089
6817.6689453927
6550.8276393683
6322.0257345461
6146.8671370997
5998.2438200006
5866.2917254834
5751.7548593091
5647.0023730244
5547.6703763031
5448.1268077322
5345.4200450562
5237.774130721
5124.6862549353
5006.6741077653
4885.2562580038
4761.7820297728
4637.5709698125
4513.7756773383
4391.2875807409
4270.9929222782
4153.5388608626
4039.331110571
3928.6601523734
3821.7535028497
3718.7646498392
3619.6598196321
3524.3942604542
3432.8776000804
3345.0613981963
3260.9231373885
3180.2069995291
3102.7939296438
3028.5501753821
2957.3447086297
2889.0703451593
2823.5323841024
2760.6251319561
2700.2072464929
2642.1795423513
2586.4154025592
2532.7870081106
2481.1965015512
2431.5363751317
2383.7240686713
2337.6578361214
2293.2500731373
2250.4199390904
2209.0905289701
2169.1938392045
2130.6572524743
2093.4164705417
2057.4115893427
2022.5853470034
1988.8863904216
1956.2626191578
1924.6647892513
1894.0505948316
1864.3715331913
1835.5843810442
1807.6106579856
1814.3437147062
1566.8880509018
1314.199135241
1219.6823078062
1141.131100405
1070.2277026993
1005.8658472664
947.27081594443
893.80314993711
844.94252504701
800.20632567497
759.12449819865
721.26516493954
686.22571913999
653.63958662935
623.17298103269
598.15526558646
570.74308665736
544.46278087829
518.88980158502
493.5285296925
467.83025107821
441.29121756046
413.61458524326
384.88222496557
355.60469745274
326.5677498602
298.5250079838
272.00782632157
247.40926750644
225.17423012533
205.90507743225
190.23287933342
178.49179114896
170.51078754226
165.59087145674
162.59689003186
161.06793506408
159.88567571028
158.77726263175
157.58647190517
156.2453631395
154.71087006633
152.95289109403
150.95284364405
148.72868493256
146.24803650589
143.45251437976
140.27808453486
136.64013979075
132.48235335771
127.7730563003
122.51129393765
116.74125610743
110.51679042556
103.89388085564
96.982947054377
89.859438238562
82.783211931551
76.24870666164
70.728640175585
66.511223094095
63.6670661435
62.052508028599
61.439494323075
61.603539395666
62.434769203127
64.027320307354
66.837019190648
71.924372564703
82.074563149775
102.9042339373
7050.1989745928
7911.4060907926
8358.4910764718
8231.7005174928
7901.9672115549
7566.8229555455
7254.3645516407
6973.0200575552
6710.9500130319
6484.3079654959
6274.2821783837
6088.4376299418
5943.4401998043
5807.3138692319
5681.2069037827
5567.2116636309
5460.1938214364
5355.4757309993
5249.9865250864
5142.151626668
5031.2094203936
4917.1612840035
4800.4574926903
4682.185984906
4563.4309816763
4445.136398177
4328.0960937941
4212.9548883328
4100.3012264221
3990.5837949582
3884.093725876
3781.0133452884
3681.4492424156
3585.4578378392
3493.0672240988
3404.2174831209
3318.7966517928
3236.7476246082
3157.929061475
3082.2436547649
3009.6169558086
2939.8539616505
2872.8505297225
2808.490271729
2746.6391823371
2687.2222216701
2630.0909578767
2575.1356645869
2522.2552359141
2471.3430754622
2422.3220812242
2375.0835767919
2329.5458779674
2285.6239809916
2243.2404169191
2202.3290476538
2162.8128187566
2124.6276095305
2087.7127271996
2052.0088091519
2017.4651348993
1984.0271368782
1951.6442139104
1920.2711526459
1889.8584124212
1860.3697144892
1831.7580207403
1803.8654865176
1851.2208021102
1500.243663902
1299.7502049714
1209.6228484532
1132.4041968206
1062.5960135308
999.19541957303
941.4541973265
888.74493798881
840.55557543814
796.40946391806
755.84602344876
718.44669746352
683.82352353651
651.62621723084
621.53651383325
596.87452829949
569.85061612584
543.99796206362
518.89988915858
494.08093072824
469.00066960414
443.14151969135
416.16063879248
388.06779819623
359.30303365965
330.61803322408
302.79346022803
276.39609663669
251.83814045702
229.53271095981
210.03845347621
193.95743157609
181.65815632605
173.04989659804
167.5562885971
164.11933934698
162.3295567633
160.98761297926
159.75547849929
158.43771697803
156.93432760029
155.18852538812
153.16249747325
150.84961697334
148.28965115836
145.43567588449
142.18418499879
138.41045321949
133.98511796087
128.82838436187
122.87030227718
116.20625359541
109.05226014208
101.58354930359
94.009977369455
86.560798191062
79.608728318836
73.8026411802
69.882812391625
68.168080720722
68.494990123971
70.201527313999
72.51932673463
74.868102727244
76.83545113919
78.363908345885
79.877250469267
82.235026978958
86.977072871837
96.941290135532
115.65193929388
6976.8848915143
6945.9576302007
7446.4099710273
7558.603806663
7400.1708989547
7170.8198938928
6937.091739261
6717.1522937914
6507.9795745743
6310.3524698735
6137.8954414707
5975.2906748059
5820.7896784775
5684.2385994292
5572.1912822393
5458.3241850898
5349.7698545251
5243.8909745343
5139.4854761855
5034.442394239
4927.4559880605
4818.3421078535
4707.4969984015
4595.4316890966
4482.8135823307
4370.5145951206
4259.2909020392
4149.7017894125
4042.2120087696
3937.260543333
3835.1690357522
3736.1331496636
3640.2776431918
3547.6705760993
3458.3461000834
3372.2735300225
3289.4038929509
3209.6768940184
3132.9952344306
3059.2618128539
2988.349833381
2920.1429927212
2854.5723436231
2791.5458635734
2730.9105521433
2672.5743410068
2616.4344236033
2562.3829046501
2510.3484851352
2460.2159694558
2411.8948165087
2365.3076355737
2320.3617506187
2276.9921709191
2235.125526383
2194.6807230088
2155.598964547
2117.8133662276
2081.2693904112
2045.914911909
2011.6915730929
1978.5500397174
1946.4414158436
1915.3188180968
1885.1475144969
1855.8955313153
1827.5110034098
1799.8013651405
1899.0315582883
1443.3757076691
1284.7781694667
1198.3754265413
1122.640665871
1054.0654473605
991.74252321425
934.9534283451
883.08483485581
835.63605207641
792.13969607851
752.14792030523
715.25780541493
681.09774543585
649.33503812601
619.66763358753
595.40422711984
568.81626969248
543.43492149323
518.86456176063
494.64404649309
470.24682417527
445.14444748825
418.95034532261
391.5962455307
363.43906836454
335.18281653457
307.62615607692
281.37893930722