/*--------------------------------*- C++ -*----------------------------------*\
| =========                 |                                                 |
| \\      /  F ield         | OpenFOAM: The Open Source CFD Toolbox           |
|  \\    /   O peration     | Version:  2312                                  |
|   \\  /    A nd           | Website:  www.openfoam.com                      |
|    \\/     M anipulation  |                                                 |
\*---------------------------------------------------------------------------*/
FoamFile
{
    version     2.0;
    format      ascii;
    arch        "LSB;label=32;scalar=64";
    class       volScalarField;
    location    "0.00016";
    object      k;
}
// * * * * * * * * * * * * * * * * * * * * * * * * * * * * * * * * * * * * * //

dimensions      [0 2 -2 0 0 0 0];

internalField   nonuniform List<scalar> 
109340
(
6.9102599634714
6.9065908842336
6.908201673987
6.9109892303379
6.9112905320865
6.9075803851836
6.899330304241
6.8870799286736
6.8716616152302
6.852781803851
6.8305744641006
6.8052489875034
6.7770148393684
6.7460713345608
6.7126066819999
6.6768025682439
6.6388358971517
6.5988790832113
6.5571013980855
6.5136674655435
6.4687352687445
6.4224535825985
6.3749603237003
6.3263806989701
6.276824875664
6.226384546931
6.1751275745277
6.1230908499551
6.0702702329038
6.0166039522077
5.961944037467
5.9060020060499
5.8482295252632
5.7875096609775
5.7212508019932
5.6429055960886
6.9056964965868
6.9045299167313
6.9058304344207
6.9059380304359
6.9027092432663
6.8955032078039
6.8841947966132
6.8684589783529
6.8485528722058
6.8248870645029
6.7977222485397
6.7672917183264
6.7338306720003
6.6975732272429
6.6587508896695
6.6175907175999
6.5743164211995
6.5291488369967
6.4823061363317
6.434001559853
6.3844397083743
6.3338109309432
6.2822879001981
6.2300230576488
6.1771455693409
6.1237564916188
6.0699240350721
6.0156771206236
5.960993538829
5.9057819817562
5.849847768153
5.792825980269
5.734028885077
5.6720393383752
5.6035752561451
5.5203285189167
6.9003048593075
6.9004851873499
6.9005762503294
6.8976701493603
6.8903119869644
6.8779580820791
6.8604010893605
6.8377602804837
6.8102941331481
6.7783859160329
6.7424224236608
6.7027710546171
6.6597969606175
6.6138653782378
6.565339697302
6.5145798158982
6.4619399481005
6.4077745686353
6.3524393430706
6.2962732895416
6.2395904747815
6.1826602424325
6.1257131344598
6.0689431807441
6.012490383429
5.956449158706
5.9008788067908
5.8457739260336
5.7910811524222
5.7366712560781
5.6822983884781
5.6275478062591
5.5716408822674
5.5129754744541
5.4478296088591
5.3662477524767
6.8892157003246
6.8946968988823
6.8930984493064
6.8837068500763
6.8663464536956
6.8410669369
6.8081749163189
6.7681339542334
6.7215697676666
6.6692461783603
6.6120066382623
6.5507223673384
6.4862657992524
6.4194891864996
6.3512318591216
6.2823078664634
6.2135090743901
6.145779778759
6.0798305083825
6.0162731880233
5.9555779521717
5.8980167643355
5.8436881965377
5.792599376907
5.7446981814451
5.6998840106356
5.6578896239194
5.6186252303773
5.5819342163916
5.5476188423314
5.5153633982863
5.4846337834915
5.4543640696448
5.4221553334385
5.381759087645
5.3140002573775
6.8768447915443
6.9038607265233
6.9107968807127
6.8974428001776
6.8631784272084
6.8094945078486
6.7396017309829
6.6575848746104
6.5678748938264
6.4748761124417
6.3826455293499
6.2950494505799
6.2154294102457
6.146780544962
6.0918487056103
6.0532258404589
6.0334624265436
6.03580739275
6.0605816469991
6.1051655327201
6.1659121710517
6.2397707619996
6.3243578763579
6.417852834157
6.5188394066449
6.6261820067432
6.7389205907092
6.8562081711469
6.9780850461464
7.1037762379759
7.231482682305
7.3588397588556
7.4825257426245
7.595458960836
7.6777547595005
7.6562176028986
8.3369633069284
12.369364502892
15.807654083189
18.425006956822
20.230782768987
21.355903416007
21.963659024748
22.203140286027
22.191015285382
22.02232041589
21.751993105958
21.42265773163
21.063293217646
20.693223526038
20.325250496143
19.96834053369
19.628225403328
19.30865431891
19.013232963931
18.745558343085
18.501124736808
18.277028130103
18.071788461984
17.884594894617
17.714886216752
17.562237593379
17.426364073663
17.307160962001
17.204768887419
17.119678141351
17.052971967328
17.006852462155
16.984678675595
16.994230772621
17.043869282245
17.124706312038
5.5389861913299
5.3994153356135
5.2227228098968
5.009213281456
4.7591869447114
4.473105882573
4.1548686264358
3.8109485427148
3.4512292289482
3.0929642543561
2.75030609604
2.4656805919055
2.2192007179446
1.9917092261742
1.784185669693
1.5958552970589
1.4290401085364
1.2827674886205
1.1553004324056
1.0451200733693
0.94983559243164
0.86679266184249
0.79455060099866
0.73170715474638
0.67653050792156
0.62838948089211
0.58576080851905
0.5463715569467
0.51360541135915
0.4819348923605
0.45523661078069
0.43014221062233
0.40762231151615
0.38742982745701
0.36839447596724
0.35165743542648
0.3355633267508
0.32135365194607
0.30781571021073
0.29553085395571
0.28416998322306
0.27329678168725
0.26362657695722
0.25394583337576
0.24556836274493
0.23698654148552
0.22961705448896
0.22213332458318
0.21551965656019
0.20911903421575
0.20303948832317
0.19732781772748
0.19191055512119
0.18677523360495
0.18188880525649
0.17723826676389
0.17280897261324
0.16859332651667
0.16457934426531
0.16075232354329
0.15709450090496
0.15358977955641
0.15022505198362
0.14699099541256
0.14388097667928
0.14089070456977
0.13801766627399
0.13525914412729
0.22960309282639
2282.8435670796
3621.752357879
2353.4419886964
1633.419103169
1204.1649827143
930.28376574722
744.75947570067
612.55880098843
514.32185401717
438.8120479762
379.17438103079
331.00236234014
291.35494225671
258.20024331173
230.10695465311
203.20869407864
182.86206197347
165.25556370379
150.0222780448
136.90505421052
125.70246785702
116.2442714892
108.35634542556
101.79514270303
96.147657893138
90.763407548906
84.849967994929
77.608510423009
68.597549637323
58.039466307544
46.866394359266
36.408381022036
27.80757907946
21.511208244307
17.286734218276
14.1327134757
12.671468394518
11.702609648127
11.076284818197
10.690294032764
10.475123850128
10.381516273055
10.366423116141
10.436343629433
10.585736559561
10.786908840463
11.028666654879
11.285422728765
11.534228096751
11.761943653707
11.958234743444
12.117427582152
12.237698411921
12.318843281757
12.36046196874
12.366949905017
12.3325021658
12.262932041125
12.175584144812
12.088065384947
12.008770214416
11.940018749466
11.883515846778
11.837079104703
11.798598151487
11.765223491323
11.730022704616
11.674605191215
11.583902526635
11.450048435162
11.319254597646
5.405196616206
5.2449906274531
5.0345743017607
4.778844424638
4.4827822404642
4.1525330549526
3.7964049390967
3.4257955877636
3.0528532320784
2.6887641633403
2.3447457381972
2.0298943905355
1.7595140178528
1.5278231889713
1.3340080783095
1.1764262054378
1.0501305676162
0.94939994041977
0.86568247161695
0.7954011269052
0.73556283564739
0.6838820464294
0.63880477859299
0.59900798137153
0.56333848256933
0.53102528449781
0.50162435507261
0.47457700401407
0.44969162865194
0.42694622173638
0.40598045175749
0.38688037298629
0.36916327111128
0.3529016473795
0.3377396561817
0.32372923731524
0.31062871379931
0.29852204421399
0.28719176622745
0.27669644242937
0.26682443480918
0.2576352032978
0.24893980719491
0.24080304863458
0.23308746326221
0.2258424523386
0.21898553072282
0.21252770262083
0.20643316301867
0.20067240177436
0.19521938791829
0.19003276118225
0.18510287380327
0.1804013423058
0.1759181709223
0.17163803035417
0.16755529888171
0.16366005000855
0.15994119820448
0.15638454737363
0.15297574828458
0.14970094540565
0.1465489623956
0.14351184146199
0.14058501201068
0.13776632704271
0.13505447027688
0.13244664520377
3.6190912432254
4184.7671736193
3232.1897960618
2129.7173232437
1502.5706373507
1122.2427511485
875.69950100739
706.41995895839
584.42336865992
492.93163866687
422.08375107937
365.7815288363
320.06922349584
282.27983101966
250.56090093281
223.60225420181
203.13054682355
182.80222734121
165.20721814935
149.98333944379
136.87339714804
125.67618480722
116.22152261651
108.3355146845
101.77533535295
96.129548146922
90.749862440555
84.845824847449
77.618977554104
68.625890109305
58.084958334949
46.922350908475
36.464895989148
27.853427245116
21.540800868933
17.302372369775
14.135073983238
12.665226764964
11.690537494998
11.059403766743
10.669138779907
10.450008492665
10.352734358244
10.33466872404
10.398314582793
10.541440981057
10.7361965737
10.970528970139
11.220045646225
11.461953063231
11.68342082115
11.874177006238
12.028467362783
12.144327764297
12.221441384758
12.259475677584
12.263170326418
12.226091759463
12.155259337804
12.067749542319
11.980924894877
11.902212655792
11.834080029992
11.777681962116
11.731192371825
11.693003372731
11.659959234322
11.625108780535
11.571004399509
11.482655763543
11.354146654031
11.228704498939
5.2460963420569
5.0678345025327
4.8325140456689
4.5515530390872
4.2363612824753
3.8981745598268
3.5478785845982
3.1951316520486
2.8487569115808
2.5125735835025
2.2066783222724
1.9249027644563
1.6754898122471
1.4592626820759
1.2751850221702
1.1214435377033
0.99498909167608
0.89131522136484
0.80354955617735
0.72901815495867
0.66603412592346
0.61278977795144
0.56740306026498
0.52857469766291
0.49517329655913
0.46603224944826
0.44027193897099
0.41739363109521
0.39687788739227
0.37838940478104
0.3616459552496
0.34640287367627
0.33250754874229
0.31961421057171
0.30764667345764
0.29636555742888
0.28578882763929
0.27580443504116
0.26646984368098
0.25766272745287
0.24939669855116
0.24156350784549
0.23415989372914
0.22712789943426
0.2204500555013
0.21411887829543
0.20809852470588
0.20241206843188
0.19700011508899
0.19188308923311
0.18700453738241
0.18236369589189
0.17792031520129
0.17366631079258
0.16959232452845
0.16569156445117
0.16196068035477
0.15839115029069
0.15497395834433
0.15169718494454
0.1485487509848
0.14551633599805
0.14259012433913
0.13976343258546
0.13703299208595
0.13439766930156
0.13185730153216
0.12941088204324
4.3215896271385
4239.7260041064
3221.3071513511
2121.9358107788
1497.354659807
1118.6283315299
873.09445035159
704.48968998709
582.97238198297
491.83396232851
421.24996431917
365.14542527647
319.58166160251
281.90471640309
250.27193538476
223.38009491148
202.9750496774
182.6850239462
165.11909754748
149.91934306599
136.82856231542
125.64661277451
116.20406456473
108.3277611533
101.77652725922
96.141968491602
90.77993611599
84.903469016889
77.714498884282
68.764594250857
58.263157741989
47.122922308929
36.663221300255
28.02284472194
21.66724091035
17.388104174109
14.179542852655
12.681994987452
11.686651771419
11.038221723347
10.633080297509
10.400881677224
10.292303086006
10.26593758534
10.315186036739
10.444405304589
10.625725423795
10.84554065146
11.081562891094
11.31096190789
11.521194651881
11.701910939799
11.847112207787
11.954563634181
12.023767697662
12.054695899044
12.051790342687
12.008038407114
11.933210875359
11.844282477859
11.757848073199
11.679650823988
11.612308192931
11.556099483648
11.509535251667
11.471714875842
11.439290441172
11.405017229479
11.35286980347
11.268698633493
11.14922950575
11.035633669291
5.1634347311444
4.9024509323682
4.5614864482254
4.1959014774093
3.8448066857534
3.5084057621609
3.1864218793071
2.8796111071822
2.5864989305034
2.3056728392675
2.052689193366
1.812959667551
1.5939836318661
1.4001602166848
1.2305856175415
1.0861068325848
0.96542367988087
0.86437523246054
0.77772378021095
0.70358588262588
0.63993815875634
0.58513684237036
0.53825125111516
0.49792361252612
0.46305187609731
0.43284318112882
0.40654785131646
0.38344398670398
0.36306214481557
0.34499569170582
0.32891135101471
0.31447468750399
0.30150276644759
0.28972461918133
0.27896137740354
0.26904778843929
0.25989287453778
0.25140779106513
0.24354320539637
0.23620532339796
0.22935348733154
0.22288653484534
0.21677152043994
0.21092969950444
0.20535894965801
0.20001533361728
0.19492519197156
0.19006484387692
0.18543578307143
0.18102406471342
0.17680748901503
0.17277527921822
0.16889776168505
0.16516842807625
0.16157617642076
0.15812409701592
0.15480954452846
0.15162855791602
0.14857400380875
0.14563600745517
0.1428037218955
0.14006660724295
0.13741681637404
0.13484927224537
0.13236163824213
0.12995360327006
0.12762610805082
0.12538053771709
5.7553994633657
4303.1756039346
3202.7896113885
2109.9543130206
1489.6018249333
1113.3412259161
869.31704395742
701.70521722559
580.88506238175
490.25641987225
420.05157672726
364.23053211783
318.87974552663
281.36417988059
249.85531163702
223.06011402715
202.74277674292
182.51045680121
164.99014215758
149.82752547844
136.76677123923
125.60905739541
116.18615545064
108.32616128067
101.79025902932
96.174848892553
90.841695463552
85.008669594809
77.878527837517
68.995569211685
58.554708816391
47.449707632506
36.986334587774
28.302574722269
21.881185914504
17.536399879211
14.258637638958
12.718031176348
11.688632282377
11.011875666427
10.582403417041
10.328714047054
10.201460519108
10.161636741365
10.189981809673
10.297937445201
10.458805483132
10.657323494312
10.873418427318
11.08441486578
11.278070894389
11.443951307479
11.575684102696
11.670597680302
11.727903996828
11.748946702466
11.73474614002
11.681566167198
11.601447720624
11.511259795227
11.425576784826
11.34861509132
11.282735418551
11.227594251401
11.182215113029
11.145933045039
11.11551818864
11.083667680906
11.035999024901
10.959939961705
10.853510488887
10.757574547227
7.0919517183931
5.8855267845698
4.7889955498645
4.044134403135
3.4906956053958
3.0566117996884
2.7441953698243
2.5169885142515
2.3119418258753
2.1030976326832
1.8956462412855
1.6960495281379
1.5113066554426
1.3426603123792
1.1913586455374
1.0584939683222
0.944432398245
0.84599030977185
0.76098261137862
0.68777345834563
0.6248641690366
0.57077075454277
0.52377062084952
0.48306008526468
0.44766543590856
0.4167685797172
0.38963628833584
0.36579877550158
0.34478299534026
0.32618928372202
0.30968429166302
0.29498958543535
0.28182484685034
0.27000207525138
0.25930474070689
0.24958523533201
0.24068962322053
0.23256007637518
0.22508758969037
0.21821280875947
0.21184106839674
0.20591640061294
0.20036347253831
0.19513810239192
0.19020584428882
0.18553874449667
0.18112652261785
0.1769392406244
0.17297575901342
0.16920758094098
0.16561910217535
0.16217754115102
0.15886619558187
0.15566555616815
0.15256650619204
0.14957343805967
0.14668803416747
0.14391139239831
0.14123750085457
0.13865768956316
0.13616205505934
0.1337420061797
0.13139119498593
0.1291054067749
0.1268830537032
0.12472467337912
0.1226322780196
0.12058363347876
8.1637611334941
4363.5961697675
3175.2205459424
2093.3202511995
1479.181543107
1106.3524147032
864.37139305088
698.08059670534
578.17634051526
488.21139271784
418.49758452209
363.04287292072
317.96723959651
280.66040415823
249.312117125
222.64242497944
202.43319313823
182.27738638041
164.81860813056
149.70588104875
136.68571600567
125.56093797766
116.1648954896
108.32740104691
101.81286290441
96.223790712761
90.929692680208
85.154845678235
78.10356306387
69.310621825209
58.951664724336
47.895658842894
37.429468486108
28.690301295739
22.181935893536
17.74642759176
14.374368744633
12.775214597865
11.698410392384
10.982199109353
10.518858250725
10.235141611599
10.081249546803
10.02156347505
10.024382828818
10.103742336586
10.236934086259
10.407434638731
10.59692997921
10.783356785293
10.954766833121
11.100717743984
11.214361522304
11.2925170478
11.334102137107
11.341777571216
11.312074660837
11.24815827141
11.163037802555
11.072885156893
10.989206132103
10.915083064008
10.85242035219
10.800643380206
10.759249095962
10.72745691823
10.70237181544
10.676733704799
10.638676692779
10.576029565704
10.487631501516
10.413445102063
11.402752565902
7.5768313631462
5.7922788263015
4.5714847173411
3.7123991530713
3.1217878049497
2.6717500158792
2.3432621146929
2.0826200453894
1.8978122229813
1.7505696437819
1.5973002690559
1.4395724087844
1.2890111682445
1.153486672791
1.0334546547735
0.92673180146575
0.83191745498694
0.74895268190342
0.6769041925764
0.61458496998672
0.56078295982562
0.51436914602445
0.47385513320319
0.43848432265993
0.40748877618348
0.38022687586307
0.35603670183279
0.33462728344209
0.3156378000114
0.29872457547198
0.28359505286634
0.27005209435784
0.25788692220921
0.24689818469725
0.23695532407977
0.22792375259547
0.21969568256406
0.21217751199004
0.20530581136092
0.19898808288605
0.1931557540426
0.18773440686294
0.18268592936168
0.17795798083907
0.17352850021565
0.1693682754565
0.16546398557476
0.16179279674025
0.15833028840317
0.15505823790073
0.15194804218759
0.14898218385785
0.14613654761805
0.14340193090811
0.14077137212662
0.13824444383109
0.1358185430457
0.13348721049129
0.1312394710409
0.12906402675654
0.12695111866946
0.12489217782941
0.12288260759503
0.12092251689258
0.11901386558671
0.11715888232371
0.11519373357402
11.943366789074
4401.2251681812
3137.368487644
2071.7838095664
1466.0321831504
1097.659554329
858.27436443439
693.63703732221
574.8654555603
485.71389913459
416.5985252327
361.58940609254
316.84850603006
279.79592014664
248.64361179767
222.12736068196
202.04608633491
181.98516429551
164.60331917291
149.5530419818
136.58389873034
125.50072290353
116.13863917587
108.32967132609
101.84219075633
96.286183361515
91.040634655529
85.337827816443
78.384735996973
69.70453717698
59.448999589025
48.456663210795
37.99074635202
29.186806637788
22.572647157076
18.021715103245
14.532285269407
12.858272602774
11.720170611663
10.952627388587
10.445441635992
10.12305089562
9.9343448291813
9.8438937630661
9.8208166579003
9.8638382247197
9.9617762483441
10.097594595136
10.2535442899
10.409041429058
10.552287087002
10.672981039891
10.763654939891
10.820709822405
10.843581625154
10.832967664596
10.785772750547
10.711687731008
10.623653253866
10.535935228355
10.456758322757
10.388440720545
10.332446574463
10.288505383398
10.256111745719
10.23427765509
10.220763056179
10.208507376689
10.187667639313
10.144565393728
10.079583800684
10.029603976884
6.3611557654633
6.8181502699977
5.1339294143416
4.3985579319752
3.7610530220977
3.2347887038795
2.8246700312119
2.4959297611612
2.1734859996675
1.9100212220212
1.7022910456971
1.5359966305264
1.4081287325794
1.2831566761108
1.1565189474287
1.0390392668323
0.93351896088584
0.84016207707702
0.75786087232002
0.68530719386077
0.6217668637699
0.56649708243503
0.51851618389249
0.47693751248286
0.44053377459288
0.40853563913287
0.38041907031009
0.35555761562482
0.33344456596372
0.31370822742404
0.29611756413372
0.28036836946493
0.26618534225245
0.253396647959
0.24186109299311
0.23141635277506
0.22191846166004
0.21328031370871
0.2054078720617
0.19821382184041
0.19161867368759
0.1855606041007
0.17996627230732
0.17478083899736
0.16995464628112
0.16546567639534
0.16127880454419
0.15737384148223
0.15372215189663
0.15030607227071
0.14710146999489
0.14408185224734
0.14122406234097
0.13850528987851
0.13591451012204
0.13343975335652
0.13107621142755
0.12881906928914
0.12666319040611
0.12459945279274
0.12261558243687
0.12069985433255
0.11884271597951
0.11703806862468
0.11528227166591
0.11357418638934
0.11191400111118
0.11030048098783
0.79425123459988
3491.2646284828
3459.2359302695
2252.4269300002
1571.2743858556
1163.2375412949
901.71037076788
723.99502791758
597.11073782538
502.6843305108
429.97833084417
372.42753140206
325.82026748138
287.35686870296
255.11007973175
227.72274684797
201.58129010041
181.63323985159
164.34331857846
149.3678627279
136.46003171719
125.42709087062
116.10609183971
108.33155060223
101.87658588787
96.359929314965
91.171716177598
85.554173034905
78.717705469874
70.172395305919
60.041978097642
49.12917279165
38.669040802667
29.793510575587
23.058011200205
18.367929664389
14.851228102719
13.035011058602
11.780396204859
10.914487848378
10.323277702212
9.9270478927922
9.6715301472934
9.520284967625
9.4469120224355
9.4292909659869
9.4607583361548
9.5330821801511
9.6261366556607
9.7239292138449
9.8143121485335
9.8875656212098
9.9349172593504
9.953215577623
9.943878861551
9.8989592598426
9.8275173584703
9.7422306435981
9.6555060060482
9.57655264947
9.5105921529907
9.4589852608378
9.4225328586369
9.4024569760509
9.399365537778
9.4108641862365
9.4338898444214
9.4605511500508
9.4798394712406
9.4743130026888
9.446089372361
9.4324697034231
4.1627675970185
3.4206878768359
3.1625722561854
2.9318477728477
2.7931954253052
2.6349164388192
2.4566080930093
2.2853196378492
2.1123759586094
1.937525033214
1.7383563955317
1.5047957694155
1.328737173024
1.1854147232258
1.0718293152986
0.97600839397784
0.88277809709511
0.79725353854413
0.72087595504209
0.65390712663039
0.59538189060075
0.5440651863918
0.49891328969179
0.45913196518628
0.42412377452893
0.39332323448827
0.36607531775053
0.34186100648944
0.32040718899705
0.30129359799147
0.28418086074776
0.26872285159892
0.25477108729441
0.24213030319593
0.23064608483585
0.22016431300815
0.21061185913079
0.2018831658448
0.19388727648576
0.18653601397112
0.17977489766623
0.17354557388878
0.16778804194637
0.16244756788127
0.15749168252646
0.15289275594548
0.14862321777517
0.14465262676771
0.14095626299041
0.13751227706394
0.13429616202348
0.13128464126124
0.12845347749646
0.12578605679768
0.12326710968291
0.12088682626564
0.11863636529103
0.11650766279893
0.11449307657523
0.11258202017424
0.11076311050661
0.10902455773383
0.10735659505344
0.10575236826372
0.10420751434794
0.10271960114295
0.10128670773017
0.099793291994199
39.699760220163
4377.3504006547
2972.4603097884
1980.5823254744
1411.2555042428
1061.9490738746
833.50998174752
675.72984943983
561.57308475962
475.68737944982
408.95380789399
355.712957719
312.30246759572
276.26460556095
245.89832978056
220.00063722385
200.41756515985
180.74820620444
163.68596447285
148.89669423473
136.14189586546
125.23483241832
116.01697006927
108.32879316085
101.95444180251
96.533508336164
91.48397820066
86.072771701583
79.521035418608
71.309643690879
61.495244891686
50.794129221642
40.371372220265
31.343774213041
24.328305860331
19.314484812691
15.493961090257
13.430069243614
11.968346872726
10.923782103084
10.1740328418
9.6404777429558
9.2618207172434
8.9963768648824
8.8149123777024
8.6968428325005
8.6263333158087
8.5895429921859
8.5736429713409
8.5680271823691
8.5648829003236
8.5569570322418
8.5342522689295
8.4890453208733
8.422792808901
8.341922801444
8.2578707693171
8.1829604226524
8.1247064689231
8.0893902738906
8.0803403785229
8.098709939226
8.1460421504743
8.2251272406551
8.3305374353998
8.4541266285582
8.5873633642669
8.7161041031081
8.8189858652965
8.8757799240784
8.8904296512828
8.914769104278
3.6620316783314
2.0366237354171
2.0918242992087
2.0221280115011
1.99841493788
1.9802064694241
1.9644788650311
1.9202315237319
1.8708648510719
1.7897057000248
1.6951180420297
1.571204921486
1.3920278424969
1.2022033682299
1.0608738265127
0.94698758563326
0.8544641182099
0.7793194293364
0.70844356470619
0.64411950534902
0.58682954329396
0.53634733402852
0.4921350406521
0.45338776679693
0.41918880477122
0.38882748283991
0.36177417388438
0.33765006322241
0.31614729809937
0.29691382276153
0.27969262299166
0.26422461466957
0.25025483166405
0.23760394722985
0.22606390524672
0.21554228492278
0.20593021368696
0.19712143983694
0.18900819786106
0.18152231503332
0.1746163346793
0.1682261783907
0.16229587433572
0.15677724923616
0.15164904002723
0.14687776857001
0.14243798031856
0.13829906030385
0.13443883407315
0.13083599252051
0.127466684247
0.12430913708048
0.12134376714877
0.11855690035539
0.11593350703723
0.11346199081081
0.11113213255974
0.10893574191536
0.10686464950668
0.10490749917087
0.10305290480406
0.10129020799801
0.099610188294003
0.098006437913063
0.096474081667475
0.095010060276588
0.093611253866436
0.092330437038289
113.44423306799
4297.9955364823
2837.6598655522
1903.2967192276
1364.2341761371
1031.2499739533
812.28067688668
660.41828878135
550.20743246141
467.08791103428
402.36132927434
350.61079597111
308.32645058033
273.15332812088
243.46171322743
218.09864884703
198.93822111235
179.61595654749
162.83790852072
148.28275627687
135.72110781057
124.97367812321
115.88710794269
108.30814850325
102.03400601101
96.72895167415
91.845572104846
86.680777214264
80.474430742068
72.676749295139
63.266111169292
52.855558573899
42.521262799743
33.355385456226
26.035109402733
20.646694628011
16.462297552497
14.086488784242
12.356906453288
11.074612726087
10.111458599143
9.3829163101941
8.8335318220994
8.414259904259
8.0900820722688
7.8360437776673
7.6326300035127
7.4649302165021
7.32189746431
7.196007977499
7.0824706717505
6.9785734890967
6.8813755756393
6.7886314139871
6.7030786166524
6.6329690323024
6.589282471673
6.5792382667178
6.6082659754586
6.6855270154813
6.8201887413217
7.0085502143329
7.2451384428654
7.5148285356198
7.8103553876196
8.1221888507214
8.4297836719348
8.7049141608662
8.9139286886875
9.0355364653581
9.0917227206563
9.137219296013
3.4047956517553
1.5539541349596
1.4755403877398
1.4820194797836
1.4887475728805
1.5094310530842
1.5309624944691
1.5475657381393
1.5489261925689
1.551507198713
1.5230671657365
1.4665649175487
1.3928459575591
1.2703491082738
1.1002446596279
0.95966921700281
0.85240145910671
0.76578059690059
0.69408464743407
0.6351657310271
0.58080676826275
0.53187043705808
0.48826758597269
0.44965951448142
0.41558781122352
0.3854942430186
0.35882253696008
0.33504027454435
0.31373300017771
0.29458731009659
0.27735048629609
0.26179123471267
0.24769538558451
0.23490718963758
0.22329700897757
0.21273178946983
0.20308653083885
0.19422092369067
0.18607238531187
0.1785614626945
0.17161402311783
0.16516840852847
0.15916129201102
0.15357295405518
0.1483623186767
0.14350435293226
0.13896575430165
0.13472364760805
0.13075945983472
0.12704570372304
0.12356245999038
0.12028656076709
0.11720654795603
0.1143083177843
0.11157799127372
0.1090036285099
0.10657392031992
0.10428190796991
0.10211825385207
0.10007282893726
0.098135100666961
0.096294410321301
0.094543018787509
0.092875112210554
0.091285764100046
0.089772010647626
0.088330898223999
0.087756930300815
341.80249348831
4146.5104372986
2686.0496541476
1816.3470345955
1310.8496899704
996.19087750765
787.96073733864
642.83402894764
537.110195298
457.12978938808
394.68060043501
344.62642721263
303.63106631975
269.45457190288
240.54584094492
215.80683910045
197.13699004297
178.22799018367
161.78884013857
147.5147945597
135.18621710421
124.63178471967
115.70417063025
108.25724701087
102.10184809318
96.929521178568
92.233713718008
87.346473379252
81.534545053382
74.220735625678
65.299359795582
55.266582619768
45.092021898241
35.833255042764
28.215715830667
22.430567672327
17.845184857095
15.108228079627
13.060281131129
11.485380129799
10.249689731346
9.2662913240944
8.4800737717757
7.851965987331
7.3407656456087
6.9151749019505
6.5525197019459
6.238717490026
5.965124686447
5.7292865691949
5.5319122220197
5.3732009828009
5.2510588123918
5.1644122682163
5.1209799637151
5.1242171008766
5.185455078381
5.3200146465934
5.5373206778391
5.8427274756565
6.2249649024966
6.6899549526523
7.2301881667918
7.8251894540163
8.4375048369551
9.0206405319474
9.5329438690441
9.9270374850373
10.168194017814
10.266677722486
10.301685917823
10.32860487912
3.5078109687112
1.3608439265279
1.1437329942676
1.1388556405873
1.1575762482939
1.1867899841176
1.218713400532
1.2524888997544
1.280502403165
1.2971563721313
1.3203432313814
1.3121269941027
1.2740384684171
1.2288318411757
1.1409083539234
1.0145022221853
0.87650406610962
0.77471753942349
0.69458013454415
0.62895167495931
0.57383968280214
0.52777520425359
0.48578857579552
0.44793610902562
0.41404341290768
0.38388272196917
0.35712513790841
0.33334619634134
0.31212373110591
0.29310324866442
0.27597753081474
0.26047322036625
0.24637647851487
0.23353811127513
0.22183140103456
0.21114318733669
0.20138337027203
0.19244171597343
0.18422843951198
0.17666573934043
0.16966093513391
0.16317161577909
0.15714491162774
0.15152945602128
0.1462938135765
0.14139428134375
0.13681452848756
0.13253024588177
0.12851236436511
0.12473967292087
0.1211855504645
0.11784075343457
0.11468971993813
0.11171884430289
0.10891564700593
0.10626653568587
0.1037642209915
0.10139834981314
0.099158991993219
0.097037256793834
0.095022874333352
0.093108519959946
0.091286428815264
0.089549681853995
0.087894668783901
0.086318487714164
0.084817862316767
0.090109694270449
956.14451453563
3919.2298049351
2521.6342676984
1721.6770440909
1252.3485784968
957.55427033051
761.03510219234
623.27893098654
522.47088720135
445.9320767297
385.98518914501
337.80349558319
298.24015803829
265.17908634245
237.15285239998
213.12124455753
195.00735131226
176.57510407604
160.52754289311
146.58094326527
134.52482434574
124.19655161048
115.45514775546
108.16217547586
102.14275002902
97.11716122414
92.624061472098
88.035275464618
82.653274553582
75.880885321034
67.528173623336
57.965371949012
48.040767677112
38.762862222498
30.888060646771
24.715146799362
19.718129573692
16.594877850594
14.201612966404
12.298939316913
10.743044019816
9.4489394012911
8.3621557092717
7.4503148016767
6.6930063408082
6.0557247034216
5.5143468798323
5.0569998808735
4.6778148609244
4.3763416778724
4.1529809059019
4.0049011254131
3.9260065632595
3.9114272132941
3.978493292536
4.1462303335048
4.4076136005921
4.7701394288522
5.2684314117263
5.9421992830388
6.7947659810142
7.7691404980228
8.7802370365658
9.7438626287986
10.594990719557
11.29088060095
11.800211492604
12.101565131121
12.21165874628
12.215436026639
12.214411266782
12.22601139657
4.1967393076145
1.2284102841505
0.98093738724106
0.91739759334641
0.93241248433661
0.96114635773549
0.99559904950546
1.030650410223
1.0652494457014
1.093687218391
1.1200562415727
1.1458466544755
1.1454724988263
1.1215454367072
1.0895224889899
1.0241712317737
0.92752654027036
0.80602957671438
0.70958347335935
0.63504278200583
0.57493261047489
0.52522679937486
0.48293336891661
0.44646073409603
0.41337967752278
0.38357481838147
0.35686208410556
0.33297688877592
0.31159289506536
0.292398315351
0.27516840243771
0.25966981086278
0.2456111798645
0.23278545584787
0.22106992599331
0.21036248600755