/*--------------------------------*- C++ -*----------------------------------*\
| =========                 |                                                 |
| \\      /  F ield         | OpenFOAM: The Open Source CFD Toolbox           |
|  \\    /   O peration     | Version:  2312                                  |
|   \\  /    A nd           | Website:  www.openfoam.com                      |
|    \\/     M anipulation  |                                                 |
\*---------------------------------------------------------------------------*/
FoamFile
{
    version     2.0;
    format      ascii;
    arch        "LSB;label=32;scalar=64";
    class       volScalarField;
    location    "0.00016";
    object      nut;
}
// * * * * * * * * * * * * * * * * * * * * * * * * * * * * * * * * * * * * * //

dimensions      [0 2 -1 0 0 0 0];

internalField   nonuniform List<scalar> 
109340
(
0.00071887944056269
0.00049299821317341
0.00026604998358278
0.00022233712275787
0.00021537717972458
0.00021978288486024
0.0002279730866488
0.00024230051767207
0.00021118142328258
0.00018783922248984
0.00016936554121898
0.00015429659849136
0.00014174191242242
0.00013110958982232
0.00012198487902741
0.00011406637570756
0.00010712892106478
0.0001010005649822
9.5547560079436e-05
9.0664225674854e-05
8.6265898228564e-05
8.2283903507335e-05
7.8661904675036e-05
7.535321083594e-05
7.2318768764645e-05
6.9525640974409e-05
6.6945831337626e-05
6.4555365571587e-05
6.2333554641362e-05
6.0262382241913e-05
5.8325964851914e-05
5.6510016050629e-05
5.4801156939425e-05
5.3185628026914e-05
5.164576764293e-05
5.0151422073448e-05
0.00071052635112072
0.00034454918656874
0.00025240843440095
0.00023089983321935
0.0002293501867555
0.00023391863034493
0.00020944687925513
0.00018219677507007
0.000161023854221
0.00014426164501359
0.00013069092458677
0.00011948653764526
0.00011008209211703
0.00010207793610626
9.518436393665e-05
8.9186299182792e-05
8.3920739197558e-05
7.9261897141734e-05
7.5111149311702e-05
7.1390027272653e-05
6.8035216459666e-05
6.4994993780074e-05
6.2226673613357e-05
5.9694748405032e-05
5.7369478889396e-05
5.5225794836779e-05
5.3242434728202e-05
5.1401249733119e-05
4.9686623944237e-05
4.8084997537134e-05
4.6584444743048e-05
4.5174265576914e-05
4.3844551685023e-05
4.2585648071657e-05
4.1387259097177e-05
4.0232958106574e-05
0.00041730331129378
0.0002940642125364
0.00025346596226847
0.00023791860812247
0.00019033225560053
0.00015867988937374
0.00013572740166392
0.0001184298898153
0.00010498646087591
9.4282997965772e-05
8.5585096648134e-05
7.8390923677644e-05
7.2349067592138e-05
6.7207697292237e-05
6.2782340950537e-05
5.8935125279412e-05
5.5561100877626e-05
5.2579026997261e-05
4.992485039452e-05
4.7546937583523e-05
4.5403035415718e-05
4.3458455212981e-05
4.1684796739755e-05
4.0058834585763e-05
3.8561415703634e-05
3.7176685744213e-05
3.5891483124674e-05
3.4694645201119e-05
3.3576732513633e-05
3.2529610367104e-05
3.1546144796483e-05
3.0620047987139e-05
2.9745538323198e-05
2.8917816627131e-05
2.8135181123683e-05
2.7399440958726e-05
0.00023981586525753
0.00024224914931252
0.00015203346784474
0.00011067919257624
8.7066303311974e-05
7.1818694228701e-05
6.1191826769857e-05
5.3379156627105e-05
4.7405522833858e-05
4.2698629345654e-05
3.8900673088754e-05
3.5776246108474e-05
3.3164151246395e-05
3.0950450338424e-05
2.9052550195547e-05
2.7409230540857e-05
2.5974052966459e-05
2.471063009068e-05
2.3586420990414e-05
2.2573561994031e-05
2.1651343863913e-05
2.0805117692298e-05
2.0024307765466e-05
1.9301096139802e-05
1.8629468165849e-05
1.8004577532411e-05
1.7421986654102e-05
1.6878484934718e-05
1.6371200201509e-05
1.58975907977e-05
1.5455079548764e-05
1.5039889997436e-05
1.46460764116e-05
1.4268725613365e-05
1.3909476653247e-05
1.3581853227057e-05
0.00014442257508112
4.7212273262682e-05
2.8708545349629e-05
2.081949051236e-05
1.6472225822443e-05
1.3743232907669e-05
1.1886867893263e-05
1.0552949151475e-05
9.555279446302e-06
8.7866322026166e-06
8.1813370887044e-06
7.6977482624894e-06
7.3082852545642e-06
6.9943713349207e-06
6.7433747038615e-06
6.5464535007267e-06
6.3957895532929e-06
6.278296070264e-06
6.1725342464311e-06
6.0670073500837e-06
5.9607210244464e-06
5.8571167089545e-06
5.7598543417164e-06
5.6714509907845e-06
5.5933070052047e-06
5.5261236754874e-06
5.4700804059952e-06
5.4250503539847e-06
5.3914039130971e-06
5.3688912078562e-06
5.356546145593e-06
5.3535892637578e-06
5.3591962394918e-06
5.3718810002183e-06
5.3872103987149e-06
5.3970386766061e-06
3.6369593003436e-07
5.4285059142358e-07
6.9845946303901e-07
8.198716924423e-07
9.0665457858776e-07
9.6388258765942e-07
9.9828533080775e-07
1.0161645781245e-06
1.022535281108e-06
1.021558768796e-06
1.0156430969462e-06
1.0066862151567e-06
9.9599356030404e-07
9.8444654885041e-07
9.7263712742678e-07
9.6098692472112e-07
9.4977073718124e-07
9.3917298914661e-07
9.2938242029451e-07
9.206321932245e-07
9.1272145860338e-07
9.0552038683396e-07
8.989632775681e-07
8.9301272758115e-07
8.8763805014125e-07
8.8280787503102e-07
8.7848803420286e-07
8.7464045100527e-07
8.7121965684262e-07
8.6816726730653e-07
8.6540462665056e-07
8.6279741171008e-07
8.6012997989278e-07
8.5689547129378e-07
8.5114672489856e-07
8.3329738924389e-07
4.504862770218e-05
2.4916618839173e-05
1.4042346963852e-05
9.2272424987691e-06
6.7204148323848e-06
5.0400348682207e-06
3.8747900595418e-06
3.0124099071229e-06
2.4282538143475e-06
2.1665368716282e-06
2.2274455765146e-06
2.785849120339e-06
3.3024041489935e-06
3.7989541563664e-06
4.2256762564952e-06
4.5534100198887e-06
4.8482751611946e-06
5.086497790568e-06
5.2975449399362e-06
5.5226926687907e-06
5.7188080285667e-06
5.8800760308463e-06
5.8987454213593e-06
5.6480024570049e-06
5.4183328801339e-06
5.2100482934493e-06
5.0193603378302e-06
4.8365525585847e-06
4.6800661562866e-06
4.5239989938912e-06
4.3886811936492e-06
4.2579262506411e-06
4.1372755015805e-06
4.0265345627446e-06
3.9194330422224e-06
3.8234029245081e-06
3.7289206493838e-06
3.6439688883625e-06
3.561221320035e-06
3.4847211711988e-06
3.412582731961e-06
3.3422392461186e-06
3.278699394266e-06
3.2139192653072e-06
3.1571582066741e-06
3.0979501964264e-06
3.0465353168764e-06
2.9933515484604e-06
2.9457994851328e-06
2.8990083407064e-06
2.8539327566122e-06
2.8110163397343e-06
2.7697725376158e-06
2.7302087614377e-06
2.6921418373507e-06
2.6555140301773e-06
2.6202347481686e-06
2.5862646961188e-06
2.553534911696e-06
2.5219653224402e-06
2.4914559661186e-06
2.4619201826764e-06
2.4332907633326e-06
2.4055248980275e-06
2.3785929852754e-06
2.3524758566426e-06
2.3271633264756e-06
2.3026362162241e-06
3.5280333883984e-06
0.00030026006223562
0.00048554589520411
0.00043158147322937
0.00039291416300615
0.00036605609272722
0.00034659462759418
0.00033178584522502
0.00031998036282367
0.00031016295328994
0.00030167874020284
0.00029408326431667
0.00028707025052416
0.00028045723832407
0.00027416738298127
0.00026821280784697
0.00026197135179063
0.00025704154449307
0.000252797733734
0.00024933785036638
0.00024673583967971
0.00024504436808185
0.0002443380476762
0.00024472125910395
0.00024621632775954
0.00024849546969374
0.00025060860710604
0.00025104891200563
0.00024783335214155
0.0002393785429527
0.00022530410445359
0.00020676836142024
0.00018597723165175
0.00016494122844621
0.00014490119702903
0.00012723144078258
0.00011062598284832
0.00010171557992516
9.5321060582101e-05
9.0845627335642e-05
8.7830004201616e-05
8.574868840828e-05
8.4285048264076e-05
8.3229155285194e-05
8.26667983952e-05
8.2579958340703e-05
8.2782225075943e-05
8.3218063281912e-05
8.3779197325454e-05
8.4332146909425e-05
8.4826036704691e-05
8.5220339725651e-05
8.5492606989984e-05
8.563426843946e-05
8.5642720333753e-05
8.5519584548806e-05
8.5305288642018e-05
8.4959073687102e-05
8.4475450977586e-05
8.3934245469534e-05
8.3408622155036e-05
8.2924260937658e-05
8.2489918288722e-05
8.211144126352e-05
8.1775906098518e-05
8.147330199483e-05
8.1190803992887e-05
8.0901851771486e-05
8.0545169315293e-05
8.0080938413763e-05
7.9507772226261e-05
7.9020310681719e-05
3.4808184706707e-05
1.9565619652542e-05
1.219101233902e-05
8.5991986114172e-06
6.3424874194773e-06
4.8358668303153e-06
3.7411986156843e-06
2.9346647299476e-06
2.3507199423707e-06
1.9594322343288e-06
1.7285495178425e-06
1.6816791310203e-06
1.7518278945809e-06
1.8871948412576e-06
2.0961242755742e-06
2.3597088530403e-06
2.6759697465186e-06
3.0426808686316e-06
3.4232634627859e-06
3.8129558378961e-06
4.2103633304097e-06
4.6112463719656e-06
5.0079958609123e-06
5.4019197144864e-06
5.2765686096267e-06
5.0711356085895e-06
4.8845815831948e-06
4.7139125764306e-06
4.5568771976473e-06
4.4128133215297e-06
4.2792234213593e-06
4.1564073739206e-06
4.0415053947445e-06
3.9350169000636e-06
3.8348537012584e-06
3.7414826144291e-06
3.6533788851582e-06
3.5710771805444e-06
3.4931283525087e-06
3.4200196671889e-06
3.3504334132767e-06
3.2849267920931e-06
3.2222870011792e-06
3.1630732250807e-06
3.1063634463637e-06
3.052564238898e-06
3.0010984851821e-06
2.9520712524988e-06
2.9052632314148e-06
2.8604965239865e-06
2.8176375747249e-06
2.7764253635099e-06
2.7368607211761e-06
2.6987815724897e-06
2.6621556945342e-06
2.6268773499879e-06
2.5929060445307e-06
2.5601672710598e-06
2.5285890436189e-06
2.4980852807362e-06
2.4685745880914e-06
2.4399782716933e-06
2.412234673298e-06
2.3853017760833e-06
2.3591577224823e-06
2.3337929365681e-06
2.3091992574545e-06
2.2853767995104e-06
1.633502106208e-05
0.00046322256910672
0.0004707270030912
0.00042010024116951
0.00038495911631047
0.00036034204239262
0.00034228799842231
0.00032838872046724
0.00031718853940001
0.00030778172039672
0.00029957602458045
0.00029216544099914
0.00028527901458119
0.0002787631908467
0.00027256576410535
0.00026671664730485
0.00026193160051582
0.0002570086550227
0.00025276798827842
0.00024930990361673
0.00024670784103768
0.00024501446532453
0.00024430436171547
0.00024468212724593
0.0002461714676046
0.00024844793145296
0.00025056650490633
0.00025102570235819
0.00024784533081028
0.00023943898063051
0.0002254171675769
0.00020692277465473
0.00018615144230273
0.00016510860565715
0.0001450428299333
0.00012733594443993
0.00011066437922922
0.00010169558431454
9.5251709734827e-05
9.0731808295354e-05
8.7676106873434e-05
8.5560161519041e-05
8.4064847260204e-05
8.2985909417659e-05
8.2377878401345e-05
8.2247680825684e-05
8.240772675998e-05
8.2798402020044e-05
8.3317263562137e-05
8.3831260011707e-05
8.4290704171462e-05
8.4655272562003e-05
8.4902051203885e-05
8.5021819907908e-05
8.5011710800195e-05
8.4874117375556e-05
8.4651096431522e-05
8.4294491063047e-05
8.3806657186925e-05
8.3267906929944e-05
8.2747876259329e-05
8.2268710235035e-05
8.183984577835e-05
8.1464955219889e-05
8.1133261753888e-05
8.0836223695443e-05
8.0559937734704e-05
8.0278080270167e-05
7.9933203724756e-05
7.9486047283667e-05
7.8942956945606e-05
7.8483755251063e-05
2.5475301167223e-05
1.328497459442e-05
8.5801331888266e-06
6.3577148162232e-06
4.7576761124727e-06
3.7150858377184e-06
2.9552502965925e-06
2.4274067715258e-06
2.0627088459108e-06
1.8310177752392e-06
1.7409943863405e-06
1.7191495264166e-06
1.7786809026795e-06
1.8971052318299e-06
2.0552058869483e-06
2.2471019912649e-06
2.4742345559036e-06
2.7190185359018e-06
2.9558339606024e-06
3.198301883498e-06
3.459897480569e-06
3.7294230259581e-06
4.006297908016e-06
4.3053492878943e-06
4.6188134107565e-06
4.9359770184343e-06
4.8121027129721e-06
4.6409718743665e-06
4.4842898555011e-06
4.3406426697395e-06
4.2084056144144e-06
4.0861605688526e-06
3.9736354381807e-06
3.8689202564183e-06
3.7716992806363e-06
3.6807725058829e-06
3.5958133078855e-06
3.5157571998153e-06
3.4406725067388e-06
3.369588704101e-06
3.3025973449453e-06
3.2389391656631e-06
3.1785870496593e-06
3.1211165957462e-06
3.0663627949465e-06
3.0142475783139e-06
2.9644297275857e-06
2.9170606572525e-06
2.871651440515e-06
2.8283826270343e-06
2.7868214640369e-06
2.7469998459048e-06
2.7086314091324e-06
2.671693611764e-06
2.6361340645998e-06
2.6018906682291e-06
2.5689166490421e-06
2.5371258851684e-06
2.5064460026498e-06
2.4767954507936e-06
2.4480998997975e-06
2.4202822754251e-06
2.3932820307552e-06
2.3670586680403e-06
2.3415930384649e-06
2.3168758093996e-06
2.292901463891e-06
2.2696819443987e-06
1.7716055965609e-05
0.00046798913075328
0.0004701185938302
0.00041948171013892
0.00038443825682278
0.00035989955684701
0.00034190652173534
0.00032806009161234
0.00031690687466762
0.00030753955607336
0.00029936527995873
0.00029197990822782
0.00028511537727499
0.00027862033116016
0.00027244340127131
0.00026661408009521
0.00026185502682431
0.00025694667933246
0.00025271660386336
0.00024926644428112
0.00024666859320914
0.00024497620157957
0.00024426446805811
0.00024463915457406
0.00024612703798004
0.00024841068494237
0.00025055570744329
0.00025107174232232
0.00024798497747062
0.00023970202180676
0.00022581396701289
0.00020742952161588
0.00018671944598408
0.00016567535000843
0.00014555616820559
0.00012775164822543
0.00011090217257647
0.00010177501526778
9.5193615165734e-05
9.0549398933077e-05
8.7380950320548e-05
8.5172022092593e-05
8.3593265905897e-05
8.2456705598216e-05
8.1746369610092e-05
8.1520047399257e-05
8.1589743698221e-05
8.1887691938469e-05
8.232257229236e-05
8.276047013798e-05
8.3152971291206e-05
8.3459480798249e-05
8.365590729837e-05
8.3731825827301e-05
8.3684123815008e-05
8.3518223849179e-05
8.3273477508593e-05
8.2890537890898e-05
8.2390245876229e-05
8.1853793736157e-05
8.1342265466616e-05
8.0872262618271e-05
8.0453964161764e-05
8.0087593230722e-05
7.9765313787914e-05
7.94803325098e-05
7.921820564122e-05
7.8952168424145e-05
7.8630562902067e-05
7.8217794379034e-05
7.7730557852971e-05
7.7334064027315e-05
1.3391001294544e-05
7.6644878208141e-06
5.183358477808e-06
3.8175810210061e-06
3.0495585962444e-06
2.5602491127111e-06
2.2522352213892e-06
2.0583754776884e-06
1.9456718941003e-06
1.9156367201608e-06
1.8985063185278e-06
1.909936672781e-06
1.9549283682774e-06
2.0340008320968e-06
2.1532712721555e-06
2.3143619047365e-06
2.4999663897607e-06
2.704749959096e-06
2.9121667807719e-06
3.1066064690926e-06
3.2876360013447e-06
3.4847374681909e-06
3.6944406876274e-06
3.9035007109703e-06
4.123912620321e-06
4.3684585144483e-06
4.618817474144e-06
4.5789228297011e-06
4.4234242647683e-06
4.2803480689395e-06
4.1485007417843e-06
4.0264990014532e-06
3.9138660963704e-06
3.8092680446253e-06
3.7119101473757e-06
3.6209935683734e-06
3.5361575580321e-06
3.4568316003379e-06
3.3826433297659e-06
3.3126661252823e-06
3.2469546508684e-06
3.1849133997997e-06
3.1263700736818e-06
3.0708444006845e-06
3.0181809317525e-06
2.9678539018379e-06
2.919936651938e-06
2.8741398608729e-06
2.8304154964054e-06
2.78862614341e-06
2.748568318797e-06
2.7101586069235e-06
2.6731558130578e-06
2.6375283096399e-06
2.6031867322818e-06
2.5701310312616e-06
2.5382909565454e-06
2.5075936374858e-06
2.4779622109304e-06
2.4493163478511e-06
2.4215789420528e-06
2.3946762630843e-06
2.3685543214403e-06
2.3431760776223e-06
2.3185208851576e-06
2.294580403959e-06
2.2713469052431e-06
2.2488514694034e-06
2.0183993535319e-05
0.00047393414519499
0.00046916355699118
0.00041858925996792
0.00038369724528323
0.00035927020187058
0.00034136257929339
0.00032758995363848
0.00031650237506911
0.00030719051603976
0.00029906079837311
0.00029171155158008
0.00028487860680213
0.00027841362137964
0.00027226645591162
0.00026646627530518
0.00026174112492713
0.00025685506396062
0.00025264243159379
0.0002492050745646
0.00024661493314384
0.00024492565678324
0.00024421345919709
0.00024458584313013
0.00024607417499782
0.00024837219593806
0.00025056109726319
0.00025116673483438
0.00024822546568335
0.00024013442253496
0.0002264544640802
0.00020824559498239
0.00018763587159927
0.00016660038638135
0.00014640761208012
0.00012845021777873
0.00011131384659101
0.00010194532076892
9.5145293662119e-05
9.0303875796222e-05
8.6955089269864e-05
8.4597457360294e-05
8.2884104592319e-05
8.1655276388017e-05
8.0796892122081e-05
8.0423504261886e-05
8.0355414234287e-05
8.0515907534761e-05
8.0825507216538e-05
8.1150344315895e-05
8.1443231757982e-05
8.1663347103714e-05
8.1784853173488e-05
8.1795455518725e-05
8.1691835128292e-05
8.1490245192155e-05
8.1203995908119e-05
8.0783966157566e-05
8.0270472836179e-05
7.9741245118704e-05
7.9243711711639e-05
7.8790225331851e-05
7.8390153213787e-05
7.8041754333541e-05
7.7740277463742e-05
7.7479360549802e-05
7.7244969101691e-05
7.7010801586133e-05
7.6731514819313e-05
7.6377787404729e-05
7.5971474473929e-05
7.5667907799571e-05
5.3665396458732e-06
4.3507044985262e-06
3.6346625965595e-06
3.2767372923632e-06
2.9610234483823e-06
2.6934131298448e-06
2.5033321736433e-06
2.3925871933182e-06
2.3386903935046e-06
2.2491836635938e-06
2.2275171933234e-06
2.2323603907201e-06
2.2604881818366e-06
2.3166852193497e-06
2.3905048808836e-06
2.4919115469369e-06
2.633970200009e-06
2.7899447071287e-06
2.9477995358841e-06
3.1133276769654e-06
3.2872001619153e-06
3.4493553901114e-06
3.6138331418647e-06
3.7918228336004e-06
3.973357422622e-06
4.1556004654394e-06
4.3540513509789e-06
4.5200060169376e-06
4.3677421217727e-06
4.2269265057566e-06
4.0965262155478e-06
3.9757666188258e-06
3.8636003858918e-06
3.7594392438412e-06
3.6623252119995e-06
3.5717195341906e-06
3.4869093216157e-06
3.4077518418754e-06
3.3335390358139e-06
3.2639332008881e-06
3.1983545655713e-06
3.1365599143942e-06
3.0781162059697e-06
3.0227699164604e-06
2.9702935911445e-06
2.920485968029e-06
2.8732493633476e-06
2.8282219001921e-06
2.7853915620681e-06
2.7446202924213e-06
2.7057802149662e-06
2.6686053495232e-06
2.6329979487559e-06
2.598700977116e-06
2.565619898889e-06
2.5337554965049e-06
2.503056442819e-06
2.4734779747824e-06
2.4449334327585e-06
2.4173358620104e-06
2.3906041660371e-06
2.3646722654544e-06
2.3394902398846e-06
2.3150204237438e-06
2.2912409458629e-06
2.2681374656097e-06
2.2457130610213e-06
2.2235346805238e-06
2.3609375242348e-05
0.00047995412188581
0.00046776468134187
0.00041741785544256
0.00038274349066498
0.00035846129986052
0.00034066210397211
0.00032698263805494
0.00031597774852656
0.0003067360049672
0.00029866317091735
0.00029136056849056
0.00028456870942501
0.00027814293384816
0.00027203465013005
0.00026627262132276
0.00026158898402885
0.00025673261579672
0.00025254393692605
0.00024912404039872
0.00024654481184384
0.00024486047988228
0.00024414855751474
0.00024451886778271
0.00024600910645996
0.00024832727435572
0.00025057512178665
0.00025130011931434
0.00024855311967408
0.00024071936149483
0.00022732026824762
0.00020935276279093
0.00018888648249723
0.00016787507474305
0.00014759352963265
0.00012943043650823
0.00011191422897619
0.00010222263848799
9.5123539838425e-05
9.0011524323423e-05
8.6414170892446e-05
8.3851136925355e-05
8.1947682096151e-05
8.0581841908984e-05
7.9544765051042e-05
7.8973180531372e-05
7.8718827223758e-05
7.8698295802951e-05
7.8840722217113e-05
7.9015198856824e-05
7.9175296252113e-05
7.9280367235482e-05
7.9302361732837e-05
7.9227187621824e-05
7.9052453078496e-05
7.8804680658581e-05
7.8458497744144e-05
7.7997686655807e-05
7.7477914813692e-05
7.6965357064645e-05
7.6491601051617e-05
7.6066575290283e-05
7.5698295438538e-05
7.538515837349e-05
7.5124217096718e-05
7.4908590884821e-05
7.4725610446269e-05
7.4549111941466e-05
7.4342396155972e-05
7.4077601438886e-05
7.3779775625588e-05
7.359003603396e-05
2.4463890618238e-06
2.9476548365022e-06
3.6258678222151e-06
4.2913443890353e-06
5.0118853673545e-06
4.8924183624097e-06
4.1761253063961e-06
3.5858856021657e-06
3.1706528572828e-06
2.938890574098e-06
2.7922252795318e-06
2.7131439562363e-06
2.6828367891091e-06
2.6878037079614e-06
2.7235068797096e-06
2.7842854315658e-06
2.8633377782782e-06
2.9575023190957e-06
3.0682163426612e-06
3.1914225134766e-06
3.3253484916849e-06
3.4745870047888e-06
3.624677598888e-06
3.7770437196457e-06
3.9403238212798e-06
4.1040947435701e-06
4.2665040151989e-06
4.4372159754684e-06
4.313342930225e-06
4.1763138526176e-06
4.0488372126648e-06
3.9300348141647e-06
3.8194896496313e-06
3.71646688798e-06
3.6201136957278e-06
3.5300384247845e-06
3.4457112695853e-06
3.366693202461e-06
3.2925201191138e-06
3.2229241580897e-06
3.1573752311878e-06
3.0955593579465e-06
3.0370765075587e-06
2.9817928114446e-06
2.9293798708601e-06
2.8797128154675e-06
2.8325483380961e-06
2.7877737483649e-06
2.7452095517131e-06
2.7046761202045e-06
2.6660586666898e-06
2.6291385797256e-06
2.5937974679482e-06
2.5598650495328e-06
2.5273056538574e-06
2.4960442700802e-06
2.4660019394729e-06
2.437139208031e-06
2.4093969460951e-06
2.3826582403297e-06
2.3568500997162e-06
2.3318706593946e-06
2.3076105623404e-06
2.2840140550859e-06
2.2610852637272e-06
2.2388242414435e-06
2.2172169318906e-06
2.1931230690854e-06
2.7943381182129e-05
0.00048492240000964
0.00046592020394196
0.00041597245054617
0.00038157968043914
0.00035747623902143
0.00033980893998845
0.00032624154333678
0.00031533532210215
0.00030617727193618
0.00029817287754402
0.00029092706842567
0.00028418562831891
0.00027780807063811
0.00027174760849302
0.00026603249385034
0.0002613978166692
0.00025657838156855
0.00025241989190732
0.00024902202645239
0.00024645682056443
0.00024477924284595
0.00024406822748291
0.00024443651664412
0.00024592947100717
0.00024827250690788
0.00025059260649226
0.0002514641764563
0.00024895752004314
0.0002414441124698
0.00022839739130454
0.00021073789704702
0.00019046304832649
0.00016949865084374
0.00014912230199268
0.00013070652577202
0.00011273361044263
0.00010263702032827
9.5157561900476e-05
8.9698065549296e-05
8.5781683718197e-05
8.2955998434597e-05
8.0806516070463e-05
7.9223244807299e-05
7.8011129589054e-05
7.7187207054464e-05
7.6696188436167e-05
7.6452258411416e-05
7.6384697615299e-05
7.63715589717e-05
7.6365623051644e-05
7.6327202267831e-05
7.6225306839526e-05
7.6045139723796e-05
7.5792147931401e-05
7.5477389976045e-05
7.5062309698589e-05
7.4568587728702e-05
7.4057296239818e-05
7.3575739346006e-05
7.3142074296426e-05
7.2764981538569e-05
7.245175966402e-05
7.2203312399816e-05
7.2014880419875e-05
7.1879058140579e-05
7.1786258899385e-05
7.1708776260495e-05
7.1616051249809e-05
7.1473273066427e-05
7.13109292732e-05
7.1244896974374e-05
9.8452253267689e-07
1.9087970082447e-06
2.2149644633334e-06
2.7772612821366e-06
3.3671150816974e-06
4.0306172714143e-06
4.8409634871371e-06
5.6648998259347e-06
4.7919400868214e-06
4.1443761910392e-06
3.7127176601923e-06
3.4492591204571e-06
3.2821892586301e-06
3.1840081752013e-06
3.1382219170891e-06
3.1286692827113e-06
3.1435714716834e-06
3.1806261512225e-06
3.2379533418357e-06
3.3120673193326e-06
3.4044218462078e-06
3.5129391504872e-06
3.6384613254178e-06
3.7776535022488e-06
3.9069042723999e-06
4.0626770304056e-06
4.2186965351229e-06
4.3776604548013e-06
4.2941619657362e-06
4.1585767755159e-06
4.0324593753403e-06
3.9148462701124e-06
3.8047538755214e-06
3.7017432808697e-06
3.6054379242504e-06
3.5151681363398e-06
3.4303014104458e-06
3.3506139312612e-06
3.2757386085063e-06
3.205276345043e-06
3.1388358733207e-06
3.0761671642776e-06
3.0168968547521e-06
2.9607838618716e-06
2.9075685799448e-06
2.8571769948333e-06
2.8093490296816e-06
2.7639455359724e-06
2.720758642968e-06
2.6797035084457e-06
2.6406302808015e-06
2.6033501524888e-06
2.5677056738211e-06
2.5335462242574e-06
2.500828435501e-06
2.4694612825322e-06
2.4393818481904e-06
2.4105091577674e-06
2.3827732768977e-06
2.3560906464402e-06
2.3303648484231e-06
2.3055080205817e-06
2.2814504450917e-06
2.2581502212601e-06
2.2355696227389e-06
2.213688431526e-06
2.1924859302267e-06
2.1719151555042e-06
8.2014992945152e-06
0.00039648427061386
0.00047848881927617
0.00042498023047907
0.00038756755747386
0.00036156918593487
0.00034272840364289
0.00032843488300689
0.00031708365244291
0.00030765525811536
0.00029948863862028
0.00029215171501253
0.00028536216220048
0.00027895877736893
0.00027287566852895
0.00026712407767921
0.00026116678657452
0.00025639140027357
0.00025226914229231
0.00024889781806271
0.0002463496794141
0.00024468067596196
0.00024397125853111
0.00024433741565501
0.0002458334119329
0.00024820497052648
0.00025060874412525
0.00025165178708884
0.0002494283722552
0.00024229547687971
0.00022967123291135
0.00021238775761771
0.00019235782642716
0.00017147070369647
0.00015100646521087
0.00013229893416377
0.00011438524329203
0.00010354083200367
9.5352780582198e-05
8.9237327518446e-05
8.4715610927289e-05
8.1387784436243e-05
7.8770633646121e-05
7.6755983738109e-05
7.5200858725794e-05
7.3962008096685e-05
7.3025165486632e-05
7.2374388345833e-05
7.1915126785807e-05
7.1555913597578e-05
7.1243235083444e-05
7.0940931193075e-05
7.0611083474343e-05
7.0245343505234e-05
6.9865584609464e-05
6.9411753561994e-05
6.8900312549504e-05
6.8388515582196e-05
6.7923307337031e-05
6.7518366910967e-05
6.7185351223862e-05
6.6930161192027e-05
6.676095642484e-05
6.6686491180891e-05
6.6705867555397e-05
6.6800739524971e-05
6.6948053089459e-05
6.7117215534889e-05
6.7270026455409e-05
6.7351983255657e-05
6.7399371552536e-05
6.7511820948329e-05
4.907280741874e-07
1.2603400036621e-06
1.5012972018156e-06
1.7748242135435e-06
2.1381697063387e-06
2.6179262970185e-06
3.1638175035995e-06
3.810804050656e-06
4.5727983034338e-06
5.2662033079168e-06
5.7713495496202e-06
5.2507960020528e-06
4.7115724306838e-06
4.3419619327295e-06
4.0991518379109e-06
3.9447370217051e-06
3.8388720492641e-06
3.7744358226853e-06
3.7479241058907e-06
3.7497771679869e-06
3.7753126291401e-06
3.8224098446618e-06
3.8869561477443e-06
3.969187730531e-06
4.0735144188074e-06
4.1935980643776e-06
4.302726253672e-06
4.2991224272832e-06
4.1608375062858e-06
4.0324338029869e-06
3.9134881797565e-06
3.8027969116205e-06
3.6998516164111e-06
3.6034325674209e-06
3.512777152567e-06
3.427152697636e-06
3.3464781263838e-06
3.27034772294e-06
3.1984462066179e-06
3.1303912633605e-06
3.0660005957448e-06
3.0050104242806e-06
2.9471395187385e-06
2.8921250826688e-06
2.8398564100735e-06
2.7902015413663e-06
2.7429930804669e-06
2.6980356872643e-06
2.6552087941361e-06
2.6144244281852e-06
2.5755483729452e-06
2.538437966168e-06
2.5029290774938e-06
2.4689372603707e-06
2.4363801281145e-06
2.4052059588952e-06
2.3753417851617e-06
2.3467069412722e-06
2.3192311135726e-06
2.2928282043917e-06
2.2674187485637e-06
2.242923370735e-06
2.2192797689404e-06
2.1964472695746e-06
2.1743936023555e-06
2.1530911473843e-06
2.132502336998e-06
2.1110953474049e-06
4.584455343326e-05
0.00049427778227711
0.0004578998231876
0.0004098089483399
0.00037671322869786
0.00035342685508836
0.00033633825970975
0.00032323395541078
0.00031271743008343
0.00030388503900728
0.00029614959230548
0.00028913136376599
0.00028259493743448
0.00027641438411402
0.00027054913197975
0.00026502538499277
0.00026058132826411
0.000255915297501
0.00025188321065467
0.00024857842868758
0.00024607347157824
0.0002444268855689
0.00024372249177382
0.00024408369205152
0.00024558513592645
0.00024802017093014
0.00025061833321329
0.00025206690205855
0.00025052445643369
0.00024432010912512
0.00023274419617914
0.00021642180951087
0.00019706126457027
0.00017645173681749
0.00015587317287541
0.00013659121672852
0.0001177179663563
0.00010564152546326
9.6244352209498e-05
8.897821117811e-05
8.3353577702462e-05
7.9061558190948e-05
7.5614584120229e-05
7.2796694951722e-05
7.0487165014954e-05
6.8571594591007e-05
6.6971291009407e-05
6.5632472524567e-05
6.4509433642445e-05
6.3545802269981e-05
6.2712584317393e-05
6.198546900201e-05
6.1318912624522e-05
6.0673427454926e-05
6.0052629299019e-05
5.9458659031193e-05
5.894633680745e-05
5.8566826109263e-05
5.8321368832459e-05
5.8226745704379e-05
5.8290913381863e-05
5.8504072362551e-05
5.8864955388821e-05
5.9394192426441e-05
6.0056351516854e-05
6.080493876831e-05
6.159298865398e-05
6.2340745095884e-05
6.29510309092e-05
6.3359623904603e-05
6.3604449628443e-05
6.3853650102354e-05
5.6184937225919e-07
9.621491638089e-07
1.1470637774022e-06
1.3101917602814e-06
1.5474726490718e-06
1.8501675715991e-06
2.2377104434357e-06
2.6996241294841e-06
3.2528279740951e-06
3.9021056705264e-06
4.560778858123e-06
5.0776588846657e-06
5.4046698407293e-06
5.48510980089e-06
5.2624875391245e-06
4.8802616145034e-06
4.6338857509845e-06
4.4611015711476e-06
4.3423898009054e-06
4.2640875154266e-06
4.2237760431287e-06
4.2132619220377e-06
4.227534920259e-06
4.2631078547542e-06
4.3180858793966e-06
4.389927987858e-06
4.3295761642047e-06
4.1990298206838e-06
4.0737825326863e-06
3.9540053530199e-06
3.8402295642926e-06
3.733128320918e-06
3.6322656588537e-06
3.5377525031764e-06
3.4488491975292e-06
3.3655979718249e-06
3.2878339672244e-06
3.2147645987438e-06
3.1455363478296e-06
3.0797987919499e-06
3.0174139849669e-06
2.9580584318445e-06
2.9014865364169e-06
2.8475091324739e-06
2.7961374822899e-06
2.7471838561821e-06
2.7005082088181e-06
2.6559224583456e-06
2.613342553792e-06
2.572689894631e-06
2.5338370663054e-06
2.4966550708096e-06
2.461023426211e-06
2.4268791556578e-06
2.3941352011464e-06
2.3627302373584e-06
2.3326017581002e-06
2.3036967574513e-06
2.2759573334044e-06
2.2492932346876e-06
2.2236234474607e-06
2.1988811280207e-06
2.1750132105098e-06
2.1519880969696e-06
2.1297760149728e-06
2.1083497338703e-06
2.087667656028e-06
2.0692958307582e-06
7.3213499216772e-05
0.00049334861145794
0.00044992438935378
0.0004039470980514
0.00037223359362522
0.00034979553301164
0.00033327609898991
0.00032059417428878
0.00031041207943107
0.00030185198590157
0.00029434265084155
0.00028751973499426
0.00028116233482327
0.00027515505018627
0.00026946139829859
0.00026410557854033
0.0002598240313435
0.00025529514324878
0.0002513758495371
0.00024815525808597
0.00024570550805523
0.00024408866417045
0.00024339233545127
0.00024374723407557
0.00024525067926972
0.00024775068709864
0.00025056646196243
0.0002524800934868
0.00025174259466788
0.00024666235271012
0.00023638889502008
0.00022131134819149
0.00020289018115458
0.00018278943725524
0.00016227003608164
0.00014251071658013
0.00012269115231802
0.00010918996565452
9.8320940218534e-05
8.9600447297194e-05
8.2568657078188e-05
7.6886990379324e-05
7.2310248777348e-05
6.8435145919541e-05
6.5137443621659e-05
6.22995046425e-05
5.9829643846432e-05
5.768362411039e-05
5.581283032737e-05
5.4177664597594e-05
5.2760659986143e-05
5.1557215781432e-05
5.0559842703855e-05
4.9754328060777e-05
4.9123158404248e-05
4.8707140164305e-05
4.8556038188594e-05
4.8669155567351e-05