/*--------------------------------*- C++ -*----------------------------------*\
| =========                 |                                                 |
| \\      /  F ield         | OpenFOAM: The Open Source CFD Toolbox           |
|  \\    /   O peration     | Version:  2312                                  |
|   \\  /    A nd           | Website:  www.openfoam.com                      |
|    \\/     M anipulation  |                                                 |
\*---------------------------------------------------------------------------*/
FoamFile
{
    version     2.0;
    format      ascii;
    arch        "LSB;label=32;scalar=64";
    class       volScalarField;
    location    "0.00016";
    object      omega;
}
// * * * * * * * * * * * * * * * * * * * * * * * * * * * * * * * * * * * * * //

dimensions      [0 0 -1 0 0 0 0];

internalField   nonuniform List<scalar> 
109340
(
9612.5435971051
9900.3991110911
10701.31742075
12429.944427555
15313.916381243
19241.031445994
23813.088980839
28423.711161833
32539.138662946
36482.166573181
40330.367174683
44104.983869004
47812.356440989
51453.683469708
55028.186571316
58534.362355492
61970.52888395
65335.070990683
68626.57081598
71843.854806671
74986.007235506
78052.368796845
81042.537045553
83956.352075614
86793.857015063
89555.226815137
92240.65862122
94850.223459195
97383.668681006
99840.127926822
102217.66673906
104512.4814822
106717.26386593
108817.1725273
110778.69616633
112517.35968373
9719.1279193155
10817.551953404
13664.092899812
17963.384776841
22965.897579467
28030.371767242
32868.452473943
37698.027178097
42531.293921251
47309.089424704
52013.72834444
56636.436637053
61170.991053126
65612.349570537
69956.352222947
74199.633556235
78339.591429515
82374.369936181
86302.84845504
90124.654740364
93840.22041231
97450.750628197
100958.1186877
104364.67568935
107673.02909008
110885.80091455
114005.38059648
117033.67431449
119971.79654466
122819.63781313
125575.13136455
128232.87564921
130780.87617978
133191.33546661
135393.72691939
137209.11359025
9961.6598726685
13962.483462367
21389.03340938
28991.722017009
36201.493883547
43344.863102844
50545.438911059
57736.778199723
64868.30850692
71894.043064834
78780.333115482
85504.427555669
92050.902413304
98409.343642275
104573.03117248
110538.15165426
116303.31015818
121869.40182383
127240.02761895
132422.26754313
137426.7252762
142265.99201772
146953.17270475
151500.74243301
155919.85599383
160220.01529906
164408.88737569
168492.10857026
172473.04067097
176352.28923244
180126.55508738
183786.38102144
187310.13780047
190642.86718251
193630.51493823
195852.45409059
11922.817648989
28461.1810545
45339.34894089
62195.130718309
78863.420089082
95254.682786562
111259.54683335
126793.57228354
141788.74877562
156193.44884285
169971.52268231
183102.56328952
195580.6361834
207411.81844873
218611.85391206
229204.09447828
239219.85076468
248709.95827326
257768.25194689
266518.55784276
275067.35792498
283488.74789202
291829.72340326
300117.63761757
308366.1932967
316579.71426293
324755.70876341
332886.82320178
340960.59834863
348959.72055931
356864.12230259
364672.46664879
372411.28042489
380002.77532561
386913.12561992
391257.37618717
46687.922254899
146230.2119644
240722.6418667
331297.38674838
416651.55038474
495479.81567343
566978.76947067
630874.34413347
687355.60594915
736900.77872082
780146.99310728
817778.03533214
850463.43892557
878818.15972123
903382.79765499
924657.27279465
943349.11683222
961376.67373437
981862.78196889
1006289.4571301
1034423.8802259
1065331.4714491
1098006.5642551
1131606.8576781
1165471.4108449
1199065.0944233
1231960.0610118
1263805.4439644
1294298.3235211
1323136.5589195
1350027.1416974
1374561.8866716
1396202.9767609
1413929.117292
1425181.9014405
1418596.0230534
4713525.8068352
5536066.4797103
6151144.8458861
6580941.4061165
6861794.8730165
7031118.0842034
7120909.9931501
7155986.6960517
7154222.4365345
7129537.9282981
7089798.3602395
7041079.6860704
6987530.6877359
6931954.1419864
6876247.410008
6821781.5289597
6769471.743793
6719951.8048089
6673848.7767821
6631801.3270187
6593173.0099327
6557561.7710814
6524780.4760903
6494742.2433847
6467395.6109794
6442707.303301
6420663.4694867
6401276.9283202
6384598.5835774
6370735.5176042
6359892.4022148
6352459.9891949
6349026.7356357
6350926.5526311
6359648.2684701
6374237.6247894
113841.96724691
114014.56176859
113262.99307635
112678.51450387
113161.37736613
115187.34939247
119316.15071693
125730.69764767
133802.60573615
144367.16153061
157849.9464778
169531.63783615
178821.0636878
182339.05534192
181209.60889776
177418.02794573
171978.56364404
165739.99465954
159205.04930283
152698.23518973
146389.30625024
140354.84607284
134698.23568273
129551.49370356
124859.53205312
120611.06644294
116700.29029481
112967.14970603
109743.19469165
106528.51448713
103729.70619043
101021.52674851
98524.333552461
96219.173440528
93991.776871472
91974.987300541
89989.398622964
88187.814383475
86435.433956041
84807.604234815
83271.236345899
81770.562057949
80405.839406402
79014.378524372
77781.456192409
76497.853890255
75369.897475662
74208.8996187
73161.685867588
72134.678358597
71143.753423326
70198.032981242
69287.478489616
68410.605168006
67562.861188428
66743.487230628
65951.713957698
65187.962689851
64451.573977502
63740.89370418
63053.29214776
62386.173458086
61737.402799277
61105.580546305
60489.952492911
59890.39342187
59307.253901691
58740.995722325
65079.625828207
7602887.8102615
7459134.9523335
5453065.3762463
4157190.6970007
3289564.1040775
2684068.6256582
2244699.3638188
1914363.7302705
1658231.0961438
1454567.3575843
1289343.6214803
1153036.10087
1038856.9180734
941761.34485468
857926.79514543
775690.51993536
711410.53223169
653706.66604818
601682.72817125
554864.88865272
512978.39995666
475751.82250472
442774.55020584
413437.82367857
386919.15796951
362171.94850974
337981.81922822
313147.96718192
286565.15655573
257605.01100636
226661.34237053
195767.94803685
168590.83287674
148454.31704748
135868.41516489
127752.20713816
124577.45808303
122770.45153151
121924.24823348
121715.74087853
122160.7472321
123171.50534847
124552.78538655
126245.89111992
128187.7197841
130304.64970671
132527.31702633
134704.35488806
136771.42726058
138659.59215629
140321.36907622
141736.55487628
142906.55639305
143839.93448305
144533.69989989
144972.83933842
145158.15239723
145165.62976833
145060.98287655
144925.84906244
144816.12592778
144745.18822621
144724.23896008
144750.20417925
144815.5145625
144908.32597684
144990.78139457
144944.82152636
144652.43235267
144011.68734269
143244.87590587
138183.07982552
136971.99706076
133963.23852251
130087.66372599
125947.44825741
122015.85985008
118607.1992206
116023.99982091
114318.62740616
113528.41985347
113545.63310042
114241.66081452
114912.74172931
115334.57082715
115696.5060814
116098.41709516
116588.02772071
116916.66916259
116556.52064328
115670.81424895
114369.81525624
112736.71437105
110877.9637545
108847.22502087
106762.27757971
104715.26014772
102695.46050749
100675.81787302
98684.16662273
96751.480433887
94872.459739092
93080.475078977
91343.010847227
89682.371471848
88071.066719148
86524.319548291
85025.047651431
83594.397186478
82216.207721423
80904.927268095
79638.781583254
78429.51140279
77255.628410448
76129.457492541
75035.477105893
73984.50439167
72968.458650742
71992.74151697
71054.891269918
70152.996198957
69284.775895053
68445.117841028
67633.28231176
66845.477286766
66081.097842431
65339.186983725
64620.659601276
63925.530123976
63253.140563946
62601.76487151
61969.263162049
61353.392832369
60752.365438492
60165.067121041
59591.188274921
59031.084070936
58485.412136221
57953.964191876
221554.12163053
9034031.2685739
6866378.5481532
5069545.5858696
3903195.3620209
3114381.9458228
2558370.4513266
2151169.9852336
1842510.9865741
1601562.4255771
1408937.019144
1251967.1306278
1121951.5181154
1012615.1525324
919267.69216681
838351.32325368
775509.89045816
711268.75989861
653592.32897553
601593.98911951
554799.54172648
512933.73491545
475724.30471735
442760.22897093
413432.70340501
386920.29989843
362178.74561678
337996.56389919
313175.06486946
286611.18556634
257677.61594793
226762.62188524
195888.33445538
168697.61048648
148513.37966061
135879.71916239
127729.21225139
124540.57715811
122733.09872908
121891.14241768
121688.09907708
122136.38108127
123151.76551977
124535.22286569
126227.02580579
128167.03006373
130281.43107224
132496.86832704
134666.51647599
136726.47961667
138608.65128596
140265.06142947
141674.63791774
142837.77714298
143761.8566868
144443.04172658
144867.23555127
145040.2227391
145039.30529877
144926.77896265
144788.30679991
144674.84201209
144600.46835918
144573.60137651
144591.65227957
144650.53955001
144736.44794414
144810.49797668
144758.42153597
144461.27535521
143827.227828
143070.42856218
196064.72575442
191817.96008359
183389.77630365
172990.84677916
162395.65596075
152598.12502802
144183.11774965
137207.44013706
131617.82721445
127059.72600791
123568.32374373
120592.77251748
118335.02452469
116503.3095743
114942.57786247
113494.43870168
111954.10928975
110230.07066386
108082.63147761
105746.10359991
103400.04200643
101141.42214201
98985.590085368
96949.233207233
95033.184364777
93207.988500497
91492.631232526
89936.686192952
88504.066458907
87173.590081246
85934.196554371
84774.66018266
83678.423427421
82610.699985736
81567.126795363
80517.216686228
79478.216239026
78448.089377632
77447.023266258
76467.115152446
75515.320973919
74581.05740496
73667.919132258
72771.360013853
71893.011441638
71035.597684782
70198.501509214
69389.050216913
68601.680659983
67841.98410747
67103.163871689
66386.496585997
65686.425477241
65002.330367485
64333.725209912
63681.217075865
63046.296350318
62429.361986574
61830.160386658
61247.360938075
60679.203081985
60123.704361093
59579.323500848
59045.191601089
58521.267288951
58008.145605523
57506.745758014
57017.187964426
243936.3273365
9059454.0033056
6852116.02695
5058470.3921324
3894915.8499002
3108168.1270461
2553605.7221729
2147440.9963269
1839570.0080486
1599254.3157966
1407143.6887312
1250584.0812566
1120885.3926327
1011788.0315096
918619.91964902
837840.57778086
775142.84197258
710984.17936674
653376.52937424
601442.13754223
554706.05534044
512893.13804507
475730.52883435
442806.30932489
413512.17685996
387028.313673
362314.38127002
338164.17662761
313383.89799636
286875.32016852
258013.96836832
227175.58205718
196354.59556462
169143.11465474
148858.28046631
136108.64842562
127856.31266942
124608.13642802
122767.18087733
121902.76085107
121686.48038849
122116.17643546
123123.59105089
124500.94277793
126185.24939932
128120.69715117
130233.59238751
132444.08768547
134611.47510964
136671.06879688
138554.21487625
140210.68460858
141617.16237842
142772.04057197
143680.39180576
144336.11424511
144725.43603626
144866.21407764
144837.66553247
144700.47064693
144547.83138569
144420.97260365
144334.81698407
144293.25464128
144292.48385168
144334.0070882
144402.291728
144454.7687178
144382.40532005
144068.22287632
143434.31738698
142700.81118966
385589.89111951
363255.49337061
324899.50237341
283757.81137258
246533.69222212
216512.9080356
193013.92832984
174923.51609978
160897.56010864
149531.72846813
140945.04579802
133755.1900564
127878.7868485
123037.02729664
118964.04311632
115553.65999326
112794.68457044
110199.08184405
107300.21781425
104157.27625186
100965.47635737
97886.962938338
95012.847882181
92355.495471413
89909.445547371
87670.574696258
85618.036720891
83741.08954551
82077.169876579
80599.915275417
79284.390069372
78101.270456169
77034.512429332
76057.818926689
75153.052290549
74302.200034049
73495.841254997
72727.809778341
71997.896808478
71303.691487423
70636.4923422
69981.976545847
69336.487789708
68687.849979446
68040.635833839
67393.928485973
66756.650984939
66129.295398727
65515.392813149
64915.142942777
64327.121798603
63750.984454137
63182.909451077
62622.428533782
62068.607840179
61523.749214567
60989.676588989
60467.755081737
59958.139455632
59459.860129111
58971.326276254
58490.8321021
58017.169009018
57549.781910631
57088.827230095
56635.018344025
56189.614962038
55753.143070119
285146.71555431
9079691.0236637
6826595.0406048
5040631.7476525
3882232.2631837
3098896.6524898
2546609.0798731
2142023.0059923
1835326.0769525
1595936.0536014
1404569.1679161
1248598.2476352
1119353.0785136
1010597.7519574
917686.72273799
837104.48450438
774592.74616997
710558.14118265
653057.92505534
601221.80794356
554576.19494381
512845.64894145
475756.56080803
442896.28497852
413656.81315489
387220.67310843
362553.07170902
338455.12882454
313741.08866358
287320.61186122
258571.66938274
227854.55623452
197117.61014847
169883.00769894
149453.88155453
136522.92835672
128094.01593449
124753.45685729
122850.34637536
121942.44786653
121699.64410247
122092.48799364
123081.02463417
124445.56176722
126118.4872591
128046.3657946
130156.82369128
132362.95560242
134529.54149966
136591.10086621
138477.6936149
140135.71220568
141538.2390935
142680.27002589
143562.74379698
144176.11181267
144509.46666833
144602.5334336
144529.45536151
144357.66306497
144182.75643628
144035.82479327
143930.51877039
143866.50258291
143840.6895093
143856.80219798
143899.57453419
143923.54647172
143826.1586636
143496.43180455
142862.97013508
142168.25679549
1321512.9648482
1071662.9568146
802633.0855924
594452.56978636
446447.66273264
346684.67196029
279915.94764235
234393.45501255
202880.61015971
180324.3445447
163773.87189194
151146.6451407
141152.88038131
133043.78209928
126343.79335372
120793.08360852
116163.63728532
111969.18938768
108041.99227012
104331.21161164
100795.10395389
97384.878149045
94097.508273023
91021.513926919
88173.533481948
85551.919689557
83140.992897454
80928.824902188
78938.49630489
77169.376680146
75596.804553003
74196.906840189
72943.580780103
71819.773572268
70803.308198104
69878.172948026
69026.636777869
68244.428340533
67522.11006745
66855.782679652
66234.391482766
65650.396049491
65092.887705058
64556.055467306
64036.041708434
63530.092774899
63038.915079343
62562.007815715
62101.056587172
61650.633935854
61209.369947818
60772.396030755
60336.619577288
59901.295893192
59465.7479302
59032.309260304
58603.566287249
58181.796589869
57767.421788339
57359.712294114
56957.172999936
56558.368841866
56162.318075074
55768.582190785
55377.438122473
54989.909240618
54607.278261913
54230.606131294
345784.71686327
9091694.332413
6788072.4488083
5014927.4256129
3864681.1224327
3086392.9108489
2537327.700887
2134916.4006318
1829800.8110108
1591633.7984843
1401235.9918254
1246026.1002425
1117365.4343058
1009050.9950235
916471.91637467
836144.63955559
773859.7781163
709989.20731108
652633.39970352
600929.08259333
554405.16060117
512785.64036966
475795.95256296
443022.66744982
413858.10618753
387487.80601089
362883.96083322
338857.16373942
314232.88175294
287931.22993847
259333.07741886
228779.68365158
198158.53411669
170902.68665346
150290.70684023
137111.70317063
128440.93978158
124974.41649744
122981.23484739
122008.81155942
121726.07967063
122063.24191776
123020.55761594
124365.03358126
126021.90505416
127938.90620338
130044.29114729
132244.72693526
134409.34686048
136471.93123987
138360.92003039
140018.49551241
141412.70546374
142533.35738362
143374.45197118
143922.63855942
144179.08813047
144211.43438582
144080.25602391
143868.43093046
143665.5264241
143493.81475837
143364.13111179
143272.80877617
143219.45055495
143207.29827536
143222.27348193
143217.44990312
143103.76370515
142769.60053072
142147.78254055
141506.18294653
4661054.426642
2570460.8522405
1597487.5837484
1065280.3184525
740719.08692334
537150.34087512
404358.23385756
317132.8712066
259078.12563375
219842.24465126
192212.84119244
172306.08544043
157205.33213084
145284.0612993
135718.30598564
127928.42080417
121291.0731756
115424.50321907
110209.17126714
105547.08141367
101359.61664228
97565.498459816
94089.390980885
90835.18801503
87765.338068463
84901.931313946
82257.357460711
79809.629205663
77579.56852845
75578.084203027
73780.337361446
72160.951817578
70703.711524368
69390.345718747
68201.776366479
67125.423456045
66147.083943832
65255.628996268
64442.282602405
63701.719708666
63023.260878369
62397.690274215
61814.184264277
61267.143934515
60749.369724731
60258.960297567
59793.604641656
59353.448489789
58936.410387793
58539.463272668
58160.099715002
57793.850563573
57437.863094109
57087.598287542
56741.031971827
56397.786615417
56060.152110278
55728.676719877
55402.747441693
55081.114370284
54761.236945907
54441.749656225
54121.86088399
53801.160864753
53479.857143137
53159.092787907
52840.513996891
52524.974634486
427413.08616984
9076143.2511545
6733703.4563
4980579.3793464
3842007.9954551
3070580.4596518
2525755.6921944
2126145.6472641
1823029.0591236
1586381.3014698
1397171.0930388
1242886.7758826
1114935.0088686
1007155.4778951
914979.94472346
834963.26883632
772944.8122767
709277.0762017
652101.21884274
600561.50097389
554189.97298405
512709.8255734
475844.97324219
443181.21045642
414111.37241605
387824.59065128
363301.35964462
339363.75756996
314851.85096394
288698.43403491
260287.55954466
229938.05997781
199465.18070474
172194.92009229
151370.0288652
137879.22979973
128908.18640819
125279.09093278
123165.94054733
122105.50273871
121767.73855717
122029.16108112
122939.89782357
124255.11965598
125889.94300729
127791.10167517
129886.19710398
132077.12636554
134235.5813404
136294.73549067
138181.11691259
139831.9435637
141208.41733772
142293.24663886
143069.98707793
143525.99722955
143690.92549719
143648.79444921
143451.81087173
143198.49616199
142965.02284552
142767.03574834
142611.39580843
142493.53722758
142416.56288147
142381.9109465
142377.7086713
142360.64131962
142253.97046504
141935.08927876
141346.97028092
140776.45421386
6461158.1292787
3571961.9428089
2317838.2765632
1583775.3402126
1116995.6864681
802554.17124842
583493.35596465
440595.56882797
345102.24259409
280067.81235823
235035.19077789
203288.28561513
180253.03927422
162892.43073419
149361.858149
138426.2992775
129322.63384631
121591.81389992
114926.5281346
109104.1466194
103976.88888003
99452.536217257
95436.684325502
91844.29937722
88568.692884252
85545.802454665
82723.989272458
80086.686115951
77650.672849399
75436.440002992
73433.489731989
71616.699640387
69961.251361095
68453.328265236
67082.306802828
65833.651136819
64693.575026457
63654.09984087
62705.818934487
61839.854197581
61047.688194309
60322.015739441
59652.7760052
59031.948008145
58452.497888922
57912.294791171
57407.891593474
56938.112359318
56499.738517395
56090.560689639
55706.954155748
55344.784146536
55000.097472546
54668.546621486
54347.794591839
54035.977117928
53733.371642813
53440.605638874
53157.886079292
52883.980920256
52616.474420235
52352.823436325
52090.860108395
51829.1774935
51567.292064324
51305.407198178
51044.341753019
50784.894017752
96842.199953737
8805556.4551842
7229502.1135551
5300074.6116145
4054194.8250185
3217192.1351296
2630976.4851221
2204379.2099343
1883133.1518514
1633920.8164039
1435708.3221088
1274774.414335
1141778.1003933
1030105.1338597
934894.93257875
852498.01824845
771848.87383409
708421.73199955
651460.25029105
600117.20428289
553928.18875079
512615.43388136
475900.69641297
443368.65195952
414413.09823125
388227.23457379
363801.01778106
339970.45689448
315592.42742977
289614.96190355
261425.76645991
231318.28944718
201026.60505633
173752.77486658
152695.52312218
138836.56569486
129835.17519653
125892.46972768
123545.38727587
122308.54679195
121858.03288455
121972.20948518
122780.91084989
124033.13076031
125622.39557505
127488.3039095
129554.76749843
131719.00168052
133854.12896971
135892.74072484
137757.81148959
139377.44338736
140699.11932396
141692.17603557
142328.71473323
142612.14782597
142633.85745035
142454.19074624
142153.06033521
141836.26008162
141557.52674867
141326.19871778
141138.37433178
140994.92730164
140907.62750327
140879.64075186
140913.58014273
140955.65608101
140922.19032387
140668.65658174
140151.00074039
139715.82414645
5626129.7291383
2714099.2644022
2106559.7487031
1651908.8203075
1306348.7977706
1006489.9236545
776469.59415782
599694.86950024
461943.82923542
367916.86912302
301204.48962342
251016.81746381
215000.62799001
188476.91740035
168480.21606248
152952.23174729
140403.79161251
129989.57155597
121240.93444393
113809.4407298
107398.82846922
101814.14948179
96924.163945765
92614.600038328
88791.112276114
85380.608038031
82305.432704184
79518.78837409
77005.455875893
74717.555876131
72615.745262182
70664.528725624
68859.812151479
67194.348351363
65659.184974857
64241.174068496
62935.375991349
61731.406855815
60619.208190712
59588.721753226
58634.984584064
57752.070504155
56932.507225918
56168.928811117
55457.621719115
54796.312624289
54182.862812718
53614.052419887
53086.696346333
52597.533736861
52142.744991394
51718.672274441
51321.261417874
50947.449664555
50594.366724829
50260.488428678
49944.966249544
49647.299690421
49366.825024548
49101.812320085
48849.869737018
48608.240101446
48374.520669243
48147.009822914
47924.862469727
47707.966877175
47496.645594659
47270.859706488
865964.5966005
8856053.3319714
6491507.8785052
4832940.6507534
3746232.9345876
3004720.9446184
2478189.6132388
2090528.665471
1795784.4070597
1565353.0723453
1380902.8224903
1230281.4647494
1105124.0706254
999458.13763075
908886.04218091
830111.56546326
769117.13703724
706281.36719234
649848.65028284
598992.82098153
553257.10241049
512361.1182413
476020.77766764
443818.23402598
415149.07414039
389216.36080702
365033.06453164
341467.96345991
317418.25349357
291869.72757268
264218.1669886
234699.67900389
204867.11230795
177633.69620703
156077.56877944
141403.56367919
131619.34044427
127128.69475068
124353.75788778
122769.18088652
122058.74207484
121936.34888491
122487.22683599
123582.21579769
125056.98556372
126828.65090673
128806.43609807
130873.37200302
132905.25876978
134832.3079779
136573.5919441
138047.79039365
139178.14102784
139913.72627135
140256.85315062
140297.86304242
140091.33080299
139720.05939653
139309.25545083
138929.11540962
138620.92579659
138429.84961864
138385.25989984
138483.69520036
138712.013384
139036.84141138
139421.11840861
139813.92249487
140092.79495386
140085.74194572
139776.8505697
139612.52160195
5201555.387872
2116744.2762769
1823633.8209076
1543383.2457219
1291405.6601121
1070284.9297659
877896.81225016
711295.88106728
575150.25878132
458651.26450647
371672.93016424
309434.91029518
257560.1995161
219175.80720714
191243.50634015
170178.86549245
153858.24536323
140774.30215858
129941.93898407
120818.85039094
113053.6283737
106379.6293526
100594.9452987
95534.956609975
91068.969332244
87099.669139521
83558.796557362
80411.44684403
77605.344802462
75091.912188423
72832.266485399
70778.337082341
68897.722569948
67162.399578975
65547.634094491
64042.790234362
62634.006382264
61317.534700351
60087.748784551
58939.666937916
57869.531840596
56870.471718777
55935.422170231
55057.680921273
54235.187285225
53464.848462721
52744.879594683
52071.94956663
51443.249901579
50855.718286746
50305.793510576
49790.272806957
49306.221897934
48851.587883557
48423.959925788
48021.55955716
47642.994426211
47287.361742818
46953.713911164
46640.205711302
46344.584521152
46064.43099959
45797.509556577
45542.27695361
45297.759477635
45063.709663661
44840.11312631
44619.254369472
1549498.8531022
8711883.3146827
6306970.5325997
4711747.474877
3664994.7761316
2948150.781328
2437260.5156761
2059982.1885299
1772506.5128581
1547407.1162367
1366982.7601401
1219432.1060365
1096613.6370085
992725.11239012
903512.39459409
825800.99236232
765665.20842461
703561.98030944
647786.60647227
597540.25532476
552373.07818129
512001.15559622
476132.93872966
444346.1642304
416039.64692305
390428.59096345
366551.73795213
343317.27312512
319669.50546545
294640.62308913
267635.71598368
238828.95751087
209577.72602779
182479.83010993
160443.11094893
144878.18967918
134176.7294664
129009.00462605
125679.29502935
123599.97143043
122461.22144833
122035.16178619
122161.5465506
122952.31918043
124200.17769286
125780.19396195
127572.71333762
129411.60219435
131186.63614376
132822.40995339
134237.71942221
135355.90282224
136103.57959272
136443.03276882
136454.55289114
136180.62998417
135704.69744833
135182.91390146
134808.12076143
134691.09050208
134889.69116693
135404.74741721
136153.87865079
137085.24944977
138209.71164325
139479.9450281
140796.87195801
141983.72180126
142826.44017437
143168.20541795
143117.34831521
143168.81506258
5186543.7697851
1813933.6144821
1555700.9358486
1383841.3530507
1210769.7941166
1046095.5588946
893474.47016152
754741.17288548
630969.77697013
526951.97326964
433495.58045624
356570.53055969
302382.9831572
256488.45444054
217807.32602897
189378.40488071
168138.22213267
151805.16190636
138819.25340801
128140.30084531
119137.48300504
111446.56917564
104815.24888728
99056.112482875
94012.423670807
89567.318025656
85628.802851634
82121.645548505
78988.092212759
76183.934045814
73665.19504164
71392.118289779
69331.434427858
67454.013839463
65734.452717396
64154.628615575
62692.798090565
61332.242461025
60061.594040856
58866.40693703
57738.15735062
56668.639522433
55655.367863004
54700.41126226
53800.719164944
52954.9003263
52159.571002394
51412.093277233
50709.908470793
50048.635807767
49425.186979403
48836.001981788
48279.649305515
47754.295992485
47258.106699054
46789.444554437
46346.63360975
45928.795389623
45534.626097965
45162.573872502
44810.751136337
44476.935535869
44159.330286678
43856.624663166
43567.975231449
43293.250268941
43032.448635825
42846.00657304
2851302.5054277
8427000.7139549
6093001.3398189
4573790.810578
3572218.7165801
2883205.3787952
2390145.0864242
2024801.5310486
1745691.4479807
1526698.4895816
1350854.9411959
1206785.1799865
1086619.9342446
984757.72078707
897106.75621209
820627.4650588
761482.40261863
700248.54059378
645255.928074
595739.17641796
551254.20005386
511511.09031654
476209.65264188
444923.73956624
417055.43006776
391833.70473548
368326.36647588
345484.67087937
322303.85649043
297869.6697156
271599.48988682
243604.33909489
215043.13350066
188202.3471149
165767.02142664
149318.25481045
137620.60044745
131702.99658907
127747.62473108
125062.7967618
123326.39079483
122364.46920863
122022.4333892
122214.89438773
123019.28105435
124211.51249188
125620.55708448
126990.24534381
128233.2557006
129283.224361
130088.46608385
130586.39791866
130752.86514331
130618.0475607
130170.72040777
129657.92100101
129378.95791864
129439.36614843
130053.41008822
131248.93892482
132907.94396422
135060.79094817
137624.87965318
140434.10368346
143252.74942858
145843.10298577
148039.82904754
149641.4709045
150500.18841766
150700.31216379
150675.30120443
150759.19128573
5828625.159204
1658536.4233324
1367934.4193124
1234740.2553389
1114454.3697262
992032.07338767
872372.13864941
759366.03006668
654577.66744335
558485.94051605
476663.67419733
400534.81406629
335012.41870384
288149.10118537
249484.73085942
213743.36848073
185950.47416114
165007.19082801
148867.99352956
136075.2596067
125652.47822344
116936.89505194
109497.21777859
103062.01996314
97452.47804472
92535.000835977
88198.39294345
84349.486124571
80912.536864002
77829.12192924
75053.262936171
72546.023024761
70272.413605014
68203.200306029
66316.372440193
64593.974293339
63016.221242586
61563.996533489
60220.296925323
58968.221044765
57796.471092472
56696.783795795
55658.4525619
54675.528849729
53742.407508643
52854.131969662
52010.298029212
51211.197740636
50454.71402783
49738.686797543
49059.33382817
48415.679672326
47805.579460145
47227.250738714
46679.083508074
46159.041805317
45666.029353296
45198.271224654
44754.130716473
44332.246320818
43930.865376762
43548.592489046
43183.793879081
42835.077385534
42502.008967862
42184.568282269
41882.814851132
42172.449851363
4859517.4664017
8087496.8094435
5853362.4547843
4419522.6020081
3468622.361344
2810663.4557264
2337486.9140317
1985461.0129759
1715669.4989299
1503447.7368705
1332658.7437807
1192420.7698039
1075180.7656946
975565.17505576
889660.62654651
814572.50189043
756547.35662244
696318.715327
642233.10048828
593566.14377857
549875.84704601
510864.44607329
476221.11016781
445518.14813379
418161.59762659
393396.59204019
370320.78476851
347930.25447829
325273.24788621
301493.76736661
276025.38397336
248918.53660921
221141.76741541
194686.59774785
171976.06440947
154713.45646863
141984.71324155
135299.82310425
130735.78496762
127445.29529364
125030.6399976
123320.20114869
122239.26423931
121730.33647438
121663.57352732
122081.46161793
122719.56815763
123257.97506155
123588.1126655
123698.38485943
123665.83854348
123463.16031424
123116.03854931
122822.14597986
122748.48917515
123066.32667427
124048.53064718
125828.5554113
128532.19851433
132338.85778477
137048.10186222
142045.70185651
146639.74487673
150507.86110706
153554.58221242
155858.08902962
157450.31268678
158306.74593419
158516.354362
158416.1463919
158433.54397346
158522.26500585
7387155.454854
1543159.4879062
1256089.773018
1114359.1413733
1022387.870601
929289.25151145
835947.83395941
744292.1468848
655897.36872463
572440.22977284
496696.41656977
429876.08924042
366807.31228116
312585.83773248
272426.09105067
239478.74002999
207770.066634
181529.78935546
161331.41430811
145648.68113966
133223.67338558
123140.63957208
114729.62049305
107547.5012775
101329.72103094
95905.66942987
91144.789554186
86935.278881335
83186.279705359
79828.605406008
76808.393603722
74079.401821674
71602.377113876
69346.094715293
67286.113884393
65403.358666326
63680.314511126
62099.713397929
60643.873260293
59296.756437887
58046.536436521
56881.509488537
55789.755349999
54763.776722909
53798.047727194
52886.135201264
52024.522919182
51207.866635463
50429.901936003
49687.534253772
48976.702668203
48296.241685619
47647.151228535
47028.43831757
46439.481654625
45879.947207591
45347.583649391
44840.746986007
44357.50401743
43896.251274899
43456.125350537
43035.41059643
42632.588605893
42246.583563216
41876.807645278
41523.130517842
41186.01358088
46766.359960478
7581018.0526526
7684382.7872147
5595277.4969486
4252372.6033878
3355817.2357575
2731420.5265524