/*--------------------------------*- C++ -*----------------------------------*\
| =========                 |                                                 |
| \\      /  F ield         | OpenFOAM: The Open Source CFD Toolbox           |
|  \\    /   O peration     | Version:  2312                                  |
|   \\  /    A nd           | Website:  www.openfoam.com                      |
|    \\/     M anipulation  |                                                 |
\*---------------------------------------------------------------------------*/
FoamFile
{
    version     2.0;
    format      ascii;
    arch        "LSB;label=32;scalar=64";
    class       volScalarField;
    location    "0.00016";
    object      p;
}
// * * * * * * * * * * * * * * * * * * * * * * * * * * * * * * * * * * * * * //

dimensions      [1 -1 -2 0 0 0 0];

internalField   nonuniform List<scalar> 
109340
(
389519.55718068
387959.67856649
385010.43503415
381472.37312607
377602.9443927
373612.43885634
369582.73169412
365563.94215715
361643.16730213
357811.23962065
354013.85750191
350247.40022937
346515.43336469
342820.40010374
339164.02018037
335547.8147771
331971.21463099
328431.85605821
324924.97641061
321443.92414629
317978.71455917
314518.47586657
311050.83629905
307561.01817943
304029.27622454
300429.96684283
296728.84322485
292879.78960467
288819.46785069
284458.91037297
279670.04605895
274262.85181669
267950.23613731
260307.0864007
250745.21543898
238536.05383104
389753.00423142
387751.05282724
384445.39205792
380675.86438284
376703.80510826
372709.29677155
368744.50731217
364820.20552746
360932.63075209
357085.15703738
353272.20032541
349494.70181824
345755.11663104
342054.97706112
338395.28540645
334775.63967874
331196.07745223
327653.6886305
324142.91124829
320655.99151656
317182.72592102
313712.00233616
310231.0851026
306724.36952141
303170.97716365
299543.41370475
295804.93830536
291905.73506776
287776.84074205
283320.59591967
278394.59959652
272783.29867301
266148.25457901
257966.72457999
247384.97644308
233490.86167596
390625.88383012
388304.95284568
384662.81252114
380802.16843958
376861.70028854
372921.43085129
368974.10429563
365031.90868729
361119.74149559
357245.31576493
353407.67921715
349607.41333038
345846.35522137
342126.02030327
338447.95143024
334813.23116133
331221.58323245
327670.19576409
324153.03322816
320661.96650367
317186.00875397
313713.85673396
310232.63018042
306726.51907391
303174.50713755
299548.84665608
295812.66828561
291916.04628532
287789.85950459
283335.80924019
278409.86684281
272790.27329855
266110.38226653
257759.21492424
246643.115135
231018.08929748
391844.17402896
389040.47197166
385208.41708271
381234.02017584
377213.22779066
373187.33147963
369170.7814198
365177.81248299
361224.84545926
357317.58944036
353455.6168462
349638.3991391
345866.10069508
342139.02432158
338457.40273474
334821.19488574
331229.65138384
327679.5639802
324163.97988891
320675.00412544
317200.19384691
313728.79587896
310248.27325438
306742.80922313
303191.93671136
299567.80248985
295833.62388854
291939.49774824
287816.13590167
283364.33764271
278438.12023502
272810.10904225
266076.74636256
257514.1185707
245630.13647159
227078.31889058
393773.31910153
390115.51585867
385714.9670817
381465.14543013
377333.01074464
373266.44581387
369236.42356514
365244.88510651
361295.4882043
357388.6729975
353526.08116175
349708.17534331
345935.30390038
342207.90884334
338526.4695239
334891.41919214
331303.00733374
327759.24027351
324246.41195215
320763.33444007
317292.292657
313824.07228432
310346.69154073
306843.81959492
303296.10917265
299675.43326036
295945.12461553
292055.26072306
287936.22620016
283487.69841774
278558.08004196
272927.34517871
266144.18997208
257375.72092559
244628.8491051
221614.97076258
397398.092541
390687.50761322
385834.95305518
381495.47867588
377358.13604265
373300.20695567
369280.58666707
365291.90056195
361340.43984357
357427.75113809
353556.57524344
349727.792293
345941.95757763
342199.57894858
338501.21767527
334847.57553189
331239.6340621
327683.68280757
324194.98306523
320706.5264114
317227.89509537
313752.64777776
310268.92944263
306761.08150879
303208.57336791
299583.63945665
295849.33486832
291955.71795226
287833.22161558
283381.06125316
278437.52310591
272809.3264764
266001.24718712
257133.51934656
243916.33460227
216053.55708792
223830.73005558
209148.47721243
196874.52906277
186962.13089933
178053.62258152
168531.65412701
158008.73888857
146315.16884276
133613.01427417
120230.34901829
105837.17393546
93056.005071087
80552.714697407
69057.580274028
58985.13606162
50212.424009994
42752.795354381
36451.323717171
31156.893437574
26758.465696258
23110.288450862
20057.321517109
17499.755713684
15354.110947936
13538.848682899
12012.199882299
10713.304873288
9558.3805315377
8624.1975941758
7760.7750123742
7046.9508649263
6406.2834521366
5843.3405245336
5356.7521735507
4911.7137910102
4531.8893199211
4178.542996662
3874.639676813
3592.6686569226
3344.3975940617
3118.7525904213
2911.3743800206
2729.285282124
2554.4337432581
2405.0347366232
2257.7869609999
2132.8288198981
2009.8282994814
1902.6732803275
1801.1644574744
1706.92429906
1620.1370060865
1539.4640000164
1464.6241459775
1394.9109187202
1329.9026193039
1269.1362438011
1212.2936282889
1159.0558273075
1109.1417305066
1062.2720204701
1018.2042844821
976.72588357303
937.65184291711
900.80861750366
866.03475884087
833.18250747804
802.11117806532
772.36070832083
1123.886386808
4884.7252257101
5675.4111247159
5749.3758341447
5800.1078384135
5861.1055867457
5929.9151940088
6001.6864058116
6070.2681421926
6130.5799955181
6179.8764436505
6217.150245005
6243.24630617
6259.8920712435
6269.2262847375
6273.2283666043
6273.4068539166
6271.7012920592
6268.3923590684
6264.3300475672
6260.0663028775
6255.953698344
6252.1755420013
6248.7393985608
6245.5497708528
6242.4574200348
6239.320477193
6236.0188493622
6231.9560544173
6226.7273102307
6220.4441997072
6212.7665291212
6204.1386862341
6194.910583334
6185.4635849113
6171.6981412669
6163.5759871106
6156.6245291394
6150.9882669236
6146.7165118939
6143.6193533158
6141.6175232579
6140.6674582957
6140.6132366522
6142.3937628602
6141.7875608826
6141.4253145717
6139.9446933216
6138.0162656247
6135.1605660128
6131.3224641555
6126.7678165051
6121.3959137169
6115.3636448783
6108.6505845726
6101.7283161289
6094.1405499362
6086.0008220575
6077.4680204055
6068.9394984987
6060.5646137548
6052.4145858616
6044.7707224572
6037.2040561522
6030.0739922598
6023.742324046
6017.756174844
6012.9684035191
6008.3297983315
6007.6987693469
5999.2140699032
216281.54871055
200779.96295242
189130.40709868
179959.26558607
171102.68507674
161041.73927471
150078.54588963
138235.87203757
125734.9292341
112810.90887266
99814.441903559
87029.780451987
75588.844375321
65094.400145251
55704.394716453
47572.891995143
40600.669090173
34701.455446182
29756.98648811
25621.952394847
22168.364824418
19283.605288509
16863.1453891
14822.733748875
13097.206185449
11630.569372321
10377.74229224
9301.7220223419
8372.2808327795
7567.5990120992
6864.3201384028
6251.5995527407
5710.1374812783
5234.0610092251
4810.3559558874
4434.7978779711
4098.0411347888
3797.6275889855
3526.5323975395
3283.2143670355
3062.2610516109
2862.9717201139
2680.9296385309
2515.8608868853
2364.4473488356
2226.2950404342
2099.2092539866
1982.4752433576
1874.9287746884
1775.5896461705
1683.7499656086
1598.489950775
1519.4193891925
1445.8744899512
1377.4084121085
1313.5105385909
1253.8031996122
1197.9274990433
1145.5747822765
1096.4597215387
1050.3274574459
1006.9449920774
966.10366493755
927.61640048381
891.31657080005
857.05266481846
824.68229081007
794.0742894447
767.14110963134
1920.8198343862
5309.3911717372
5706.0854229562
5762.160376417
5814.999201
5877.9589615654
5947.7297033965
6018.9517325652
6085.6036375147
6143.1027563439
6189.1668907006
6223.3470388956
6246.7381396849
6261.2090317072
6268.8746934
6271.1379023118
6270.9668314384
6269.0682441565
6265.6488670592
6261.4771048112
6257.0873883783
6252.8136838927
6248.8292805123
6245.1430246724
6241.6820047734
6238.3373694717
6235.026424197
6231.6877288866
6227.7745882532
6222.880204849
6217.0816206575
6209.9781628655
6201.9321624601
6193.2581303091
6184.3564605744
6171.0652928901
6163.1700010009
6156.36427959
6150.7981286511
6146.5644964516
6143.4998094674
6141.5150326179
6140.550658446
6140.4268123183
6142.1742739502
6141.4843403037
6141.1641708921
6139.721797186
6137.8387151031
6135.0228512667
6131.2251020613
6126.7117777898
6121.3748141859
6115.3703290254
6108.6833942174
6101.7738720661
6094.1835135751
6086.0419256402
6077.5199555824
6069.0489947029
6060.7234162553
6052.605231354
6044.9447549707
6037.3572298408
6030.1731718293
6023.7718607138
6017.7362531511
6012.8692092656
6008.0487820584
6007.0693347031
5998.9398858345
209758.23109677
191482.80591197
180911.89557114
170466.53339385
161215.89916547
151458.08885242
140733.45367148
129452.55698163
117825.20195022
105656.59946049
94377.21446322
83144.620501742
72548.051854181
62825.670768865
54074.385756477
46371.794924358
39721.186209368
34072.971128743
29304.62185
25283.897607331
21912.684828109
19090.798410479
16714.073376872
14706.786131458
13007.717730974
11559.940879049
10320.08870753
9255.8319107161
8335.5460623114
7536.8292885873
6840.0540492233
6229.4119672029
5693.0535057724
5218.3429645286
4798.2571677319
4423.3161005733
4089.2882754503
3789.2230035936
3520.097643069
3276.9325032065
3057.4964609994
2858.2312537921
2677.219478576
2512.2449992202
2361.4176690011
2223.4892266562
2096.6470109929
1980.3077043073
1872.8036392068
1773.7792860519
1681.9975577869
1597.0452396849
1518.0821700435
1444.6419057487
1376.250886357
1312.4416463196
1252.8312713125
1197.0407622319
1144.7619041091
1095.7107430702
1049.6387307666
1006.311668586
965.51945140259
927.07469061075
890.81295816072
856.58324358868
824.24611298521
793.6753248554
766.98502429675
1969.7560810414
5322.4595216334
5706.9848113693
5762.1829580315
5814.9590638336
5877.872981709
5947.5594016037
6018.6581377844
6085.2019293733
6142.6318261798
6188.6815509564
6222.8957959749
6246.352482294
6260.9021198229
6268.6281442539
6270.9649882798
6270.8573958828
6268.9189332666
6265.5458873371
6261.4153533477
6257.0414235765
6252.7727515119
6248.7934959885
6245.1184682652
6241.6701007364
6238.3340500641
6235.0313770085
6231.6958480935
6227.7608225811
6222.8704910883
6217.0285790558
6209.9889804066
6201.9452770238
6193.2441624053
6184.2302821856
6171.1121810746
6163.1483493846
6156.3255414707
6150.716205584
6146.4488952054
6143.3782200209
6141.40209466
6140.4170920158
6140.0853558269
6141.7387167934
6141.1091395248
6140.7316941389
6139.2996252411
6137.4289772138
6134.6295329248
6130.8578080111
6126.3785596109
6121.0689928532
6115.0890993861
6108.4550871674
6101.5630824894
6093.9910327678
6085.8654422388
6077.3766152398
6068.985108964
6060.7180755569
6052.6159489575
6044.9610656182
6037.4787819284
6030.1988348933
6023.7457731203
6017.7482462987
6012.8907328777
6008.0810862353
6005.933173654
5998.5088350534
197522.91039589
176228.53654499
166008.53967033
155778.67830972
145844.50678184
136497.75305911
126732.72693615
116912.02503058
106899.93388829
96661.20668497
87409.248587005
77854.202419494
68544.683426183
59837.090569217
51837.877723047
44742.210734132
38546.099429591
33204.719483046
28657.698477656
24815.861501183
21568.988722261
18819.982728754
16507.188735086
14549.688142127
12882.457090807
11459.590225922
10241.370613651
9191.4650176059
8283.143385955
7493.6543810585
6804.6670207478
6199.5556412734
5667.8217774832
5197.3198760206
4780.0463256744
4408.177123819
4076.1129763454
3778.0800092395
3510.3822408689
3268.6606989618
3050.2636332822
2851.8588665365
2671.7767311621
2507.2897227461
2357.2014636682
2219.538298895
2093.3249398024
1977.1493858622
1870.0558793491
1771.2112722175
1679.689721901
1594.9550581068
1516.1946344656
1442.9550177437
1374.6850774849
1311.006705134
1251.5058176594
1195.8229865886
1143.645829766
1094.6898058415
1048.7012526194
1005.4465428502
964.72045502088
926.33843717377
890.13337952055
855.95129609799
823.65387918518
793.12118838469
766.89043968845
2044.8688923743
5340.6587384153
5708.2329402612
5762.1444168269
5814.8692104473
5877.7293093326
5947.2913576384
6018.2191593424
6084.6072015895
6141.9396852587
6187.9687343562
6222.2309052913
6245.7808239468
6260.4455931297
6268.2834402495
6270.7594282773
6270.7145550867
6268.8006506033
6265.471075243
6261.3809709901
6257.0276503115
6252.7734998967
6248.8097439878
6245.1570707231
6241.7342405623
6238.4206765992
6235.132387798
6231.7956408377
6227.8778109482
6223.0167189295
6217.1998085992
6210.2119101562
6202.1938004048
6193.5077742652
6184.4918163177
6171.3264795967
6163.320860505
6156.420529664
6150.7189315796
6146.3732293445
6143.2386772514
6141.1794109691
6140.144839063
6139.7631048749
6141.112469741
6140.4742776615
6140.0775651299
6138.6734570728
6136.8260073005
6134.0510562754
6130.3171852032
6125.8832315141
6120.606553509
6114.6528462599
6108.1306070425
6101.2296808797
6093.6604581768
6085.5409046503
6077.112007418
6068.8479485551
6060.6304162349
6052.608075365
6044.9042834657
6037.4138176632
6030.1190301304
6023.61536835
6017.6399222954
6012.5777570445
6007.592223201
6005.3787091505
5997.873590187
171063.44006609
151332.20843622
139999.54325561
131106.71997298
123301.76049996
116014.5926256
109173.54656558
102097.68016067
94922.834064474
87551.382623885
79712.016165202
71702.118145285
63801.254759619
56240.819094189
49197.893752013
42778.518004963
37090.681540177
32138.243772672
27868.535472684
24218.470131198
21117.154226906
18489.578147253
16246.675351859
14343.241125985
12721.974299825
11334.202238159
10139.014572821
9108.6274244983
8215.8948501082
7438.3576562942
6758.4028009512
6161.7353789114
5635.4256523072
5170.1061036138
4756.7573288793
4388.6407589743
4059.0519334643
3763.7635474126
3497.8331294919
3257.9821607564
3040.7805534766
2843.8071132937
2664.5421553775
2501.0110906929
2351.5734447471
2214.5786576437
2088.8939641137
1973.1147094997
1866.4903535374
1767.9241754087
1676.7672606557
1592.2375407338
1513.748696731
1440.7462909975
1372.6872161004
1309.1743301469
1249.8059171051
1194.25875111
1142.2102130565
1093.3729197004
1047.4875617328
1004.3272393161
963.69107467411
925.39234509375
889.26071564433
855.14173079061
822.8998532619
792.40611209306
766.88180887821
2146.476852286
5363.5123821915
5709.4667516056
5762.0044638706
5814.7153102537
5877.5073589549
5946.9037600064
6017.6114310451
6083.7995672403
6141.0087106504
6187.013380304
6221.3380336346
6245.0091627637
6259.8261091357
6267.8201573329
6270.4703935565
6270.5134277108
6268.6646755288
6265.3913077444
6261.350225848
6257.0227153174
6252.7903186482
6248.8543749506
6245.2367817706
6241.8512217049
6238.5709088461
6235.3199699585
6232.016504075
6228.1372980606
6223.2779788807
6217.4655509067
6210.5115686933
6202.5296730332
6193.8636348173
6184.8502142291
6171.650963936
6163.5794669363
6156.6005968676
6150.798829567
6146.3253674943
6143.0795640286
6140.9304451285
6139.8002001641
6139.2984440905
6140.362511347
6139.7269137499
6139.2917381263
6137.8896496075
6136.0466781592
6133.2836292552
6129.5783209854
6125.1758602739
6119.9242147394
6114.0002966155
6107.6070235324
6100.7043944279
6093.126764782
6085.0070614873
6076.6575807102
6068.5217226135
6060.391738011
6052.4880534529
6044.7802680597
6037.3253252173
6030.0339680794
6023.5565063266
6017.4218919667
6012.1433846597
6007.1446242765
6004.6802504859
5996.9807833351
103571.85986978
99973.621701578
98725.142538839
98602.015971923
97007.017330369
94970.227071882
91662.177736816
87824.601263574
82971.187298765
77572.819063104
71522.416131849
65183.628635589
58706.86068018
52307.412221965
46210.752788961
40555.879436613
35437.914264107
30900.013774059
26941.426146825
23522.868527803
20588.034845043
18077.059641991
15937.700882508
14100.752768365
12528.30967852
11178.881152502
10017.371655479
9008.7997890664
8133.47221772
7370.8180513819
6702.8350952713
6114.7611550766
5596.1316269024
5137.0445319054
4728.5111076438
4364.3929487336
4038.6075831033
3746.1441232568
3482.5551105443
3244.7676653518
3029.3483168184
2833.8187866285
2655.6755907919
2493.2828546649
2344.6841158818
2208.513892079
2083.376894622
1968.2407062283
1862.0883078435
1763.9560996201
1673.1624322
1588.9393821377
1510.7706400881
1438.0248739159
1370.2267693041
1306.9179146229
1247.7374490811
1192.3591175557
1140.4561714836
1091.7510794924
1045.9932460241
1002.9567519309
962.43175873073
924.23178199917
888.19056162925
854.1559947736
821.98802101136
791.55785661584
767.06570755727
2270.8610923459
5388.8969658659
5710.4894298218
5761.7435471707
5814.4772051985
5877.182616683
5946.3695744342
6016.8099409554
6082.7552823155
6139.8138205876
6185.7908404062
6220.1951759362
6244.0172284334
6259.023227866
6267.2131605953
6270.0714789136
6270.2295576748
6268.4777997591
6265.2771025256
6261.2966827235
6257.0058733691
6252.7999077815
6248.9002390391
6245.3300123362
6241.994884069
6238.7802319858
6235.5687733145
6232.2677427203
6228.4065344493
6223.5558251211
6217.7649925573
6210.8616746328
6202.9450233396
6194.3174482418
6185.2137486663
6172.0361151675
6163.9058537312
6156.8267362007
6150.8980800826
6146.2855508566
6142.8999584997
6140.6190292252
6139.3859387569
6138.7858933414
6139.5260849427
6138.8625266337
6138.3963834935
6137.0001808387
6135.1684622974
6132.4283040565
6128.7582724128
6124.3776567156
6119.1630995091
6113.2851940498
6106.9489816116
6099.8285354522
6092.1786184322
6084.1182157168
6075.9200683344
6067.9442922653
6059.9436680096
6052.1883905385
6044.580510271
6037.2455445712
6030.0359393162
6023.4648903494
6017.1280153156
6011.7199188198
6006.673857737
6003.9299879506
5996.0019409907
10106.828506216
46061.791282853
60027.169904712
68532.558553305
73737.966980089
76088.566997768
76069.50093885
74606.753531551
72069.762176154
68640.110331508
64527.269307169
59840.525973476
54778.580088873
49539.740630556
44335.619649769
39354.943090316
34717.945923189
30512.814142132
26771.579561933
23489.577850616
20637.602394652
18175.476477993
16054.69492396
14235.973603194
12665.892022713
11308.644917103
10138.751894614
9125.1216839513
8241.8215631302
7468.6198017107
6792.3976750961
6197.972350725
5672.1232720242
5205.8267718683
4791.7435707399
4422.4680235231
4091.5667616243
3794.6512698788
3527.3557142389
3285.9360012642
3067.1569947583
2868.6565161999
2687.9362959793
2523.0665521938
2372.1710155856
2233.9875173195
2107.03230165
1990.2263459905
1882.4656409755
1782.9355655069
1690.8520969321
1605.4662387159
1526.1838465911
1452.415287764
1383.7237478078
1319.6114836517
1259.6763357179
1203.5666520023
1150.9930035966
1101.6837517382
1055.368828979
1011.8109740013
970.80004947691
932.15299862476
895.69783474577
861.27551577903
828.7376208466
797.95549173609
768.79685970316
1404.414246864
5109.8786201925
5687.11396355
5749.5864432346
5799.9280950057
5860.3810952171
5928.0942523391
5998.4724485129
6065.7197990787
6125.0450941309
6173.8775516239
6211.1916702206
6237.6807065687
6254.9160499551
6264.8581057097
6269.5362186393
6269.8376113481
6268.2119151537
6265.1046970728
6261.1975974302
6256.9581825221
6252.7863888794
6248.9258338893
6245.411531445
6242.1467287083
6238.9887688425
6235.8065572994
6232.5125187147
6228.6790666365
6223.8355279346
6218.0620613523
6211.2041004743
6203.3590721009
6194.880783157
6186.0204151969
6173.0901630496
6164.8349640287
6157.584808405
6151.4205221077
6146.5207107359
6142.8096485123
6140.2774500124
6138.8215461148
6137.9561074403
6138.0142085796
6137.1854026029
6136.5973033146
6135.1429116023
6133.2914836347
6130.5658630153
6126.8945918401
6122.4125076086
6117.2072192033
6111.3141331258
6104.7119558313
6097.4329415025
6089.7945685258
6081.8962982837
6073.9691488093
6066.3406130683
6058.6371700177
6051.0142851921
6043.3437879678
6036.1417581556
6028.9168989473
6022.720454414
6016.4910687079
6010.9988307087
6006.0096877353
6003.0615280486
5994.8004027165
7949.6934264002
14677.091670298
25087.324660135
33695.185982937
40461.663779044
45374.126738738
48644.426255297
50589.314864504
50758.896035449
50033.079725574
48513.864972092
46228.004702543
43385.213036587
40140.757107482
36676.476180241
33173.954370641
29769.859525753
26563.065590449
23622.779184389
20975.945219015
18624.134933788
16553.990924064
14741.444208535
13158.527278111
11779.940020531
10580.677441418
9532.6446936379
8612.8969105654
7808.5506132619
7102.1535507334
6479.902823789
5927.9546424145
5438.9308882282
5004.0636187339
4616.0282876146
4267.9097389237
3955.638371226
3674.6547373191
3421.0351180682
3191.1555414118
2982.4967262097
2792.7358284934
2619.7040503602
2461.4271966947
2316.4283201141
2183.3682584861
2061.0076279779
1948.1985547759
1844.013674372
1747.6811068771
1658.434046132
1575.6141990742
1498.5914538727
1426.8900472034
1360.0381144188
1297.6207804234
1239.2430130533
1184.5525648272
1133.269740513
1085.1264693324
1039.8841747549
997.31705338369
957.22438793251
919.4285312774
883.76244667267
850.06820346516
818.1966160494
788.02110971552
768.79120657349
2781.4832864915
5470.7429221752
5711.6207043316
5760.1367913637
5813.0052720589
5875.2688595789
5943.5676510987
6012.9301954795
6077.9163208761
6134.3955711221
6180.274291194
6215.0071819719
6239.4443385002
6255.2212450992
6264.2165576975
6267.9331629838
6268.6305344582
6267.3328199308
6264.4890788388
6260.7762529306
6256.6892635818
6252.6262248501
6248.8612225644
6245.4629959866
6242.3356836409
6239.299724502
6236.1850778793
6232.8946024482
6229.1107969439
6224.2729599518
6218.5311332256
6211.7645086705
6204.0487364747
6195.7093259675
6186.9865636319
6174.2753461377
6165.8557034109
6158.4243888466
6151.9820546938
6146.7301978566
6142.6509254114
6139.7194740331
6137.8277624283
6136.63163126
6136.0023741594
6134.9877234929
6134.2017307585
6132.719196862
6130.8467742951
6128.1544795265
6124.4988126663
6119.82006178
6114.4309823129
6108.4882492651
6101.817478645
6094.5162125007
6087.15492676
6079.7391954571
6072.1816486898
6064.7615411994
6057.4399309453
6050.1689008947
6042.868780654
6036.0285205227
6029.0163421776
6022.3993667861
6015.9656883252
6010.4401085108
6005.3504120783
6002.1286798282
5993.0311553224
7689.7645390004
8436.4590953626
12982.35917281
18441.077198355
23499.138962329
27789.326875055
31259.13586619
33854.082195172
35671.039762732
36553.496318379
36520.356409803
35846.708123269
34561.160288757
32787.976332659
30665.856516679
28324.279253633
25900.631277411
23502.305077368
21209.910015036
19074.538823999
17123.907306592
15366.019750378
13796.862934656
12404.47657038
11173.102620318
10087.178703963
9129.6099487892
8284.8852654085
7539.0626489962
6877.6451840717
6290.8839062813
5769.8841635945
5305.648558624
4891.4248986051
4519.3477235771
4185.1534719156
3884.4802316676
3613.2220182651
3367.4621431857
3144.3183391116
2941.6127059207
2756.8746613664
2588.0655816659
2433.3566694539
2291.5615770925
2161.2405871603
2041.2471369833
1930.467986986
1828.0643998367
1733.3033971062
1645.4346250142
1563.8021273508
1487.8240503289
1417.058741139
1351.044240629
1289.3720607129
1231.6636335763
1177.5948881823
1126.8893642333
1079.265853499
1034.4804812674
992.32204964245
952.59815821896
915.14166817038
879.78872034281
846.38647137227
814.78306207202
784.86473981234
776.79436340771
3265.7255478274
5526.433611345
5711.5472384928
5758.4350363896
5811.1619977857
5872.8862163515
5940.3301472344
6008.739126834
6072.9118196289
6128.9161625053
6174.7287173753
6209.7562029161
6234.7368060523
6251.1893230379
6260.8876179987
6265.3789809147
6266.6234723373
6265.7347917064
6263.2585155366
6259.8214331611
6255.9494421163
6252.0714867046
6248.4767159815
6245.234773511
6242.2564219164
6239.3328216745
6236.2743102964
6232.9761423967
6229.1963465274
6224.3881774255
6218.6560606049
6211.9594824188
6204.358175749
6196.1546450602
6187.5968112425
6174.9480282151
6166.4558641997
6158.9172841169
6152.266360982
6146.7204644538
6142.272162738
6138.9576590972
6136.6615021019
6135.1526513792
6133.992985711
6132.7882931292
6131.8082027054
6130.2690457784
6128.1620882854
6125.1683767755
6121.2491864343
6116.420251985
6111.2713659491
6105.2780212361
6098.7223690256
6092.0177566389
6084.8532578121
6077.9061207787
6070.9903797882
6063.96258971
6057.2342665269
6050.2816231595
6043.1400473583
6036.0118184603
6028.875137828
6022.0560515006
6015.4212753487
6009.4832102838
6004.2222308618
6000.862794373
5990.6300602812
7008.5067718934
6996.1612776287
8445.0939553035
11607.994253223
15087.779470599
18364.169643099
21275.149932557
23725.939219815
25665.391707805
27028.873598923
27799.518053522
27856.753566097
27456.506852112
26624.134686952
25407.929884918
23933.343437736
22284.020332907
20555.542699711
18826.731762905
17155.49155913
15581.201876442
14125.422676701
12796.296026781
11594.567072698
10514.751322849
9548.5512953938
8686.8608574782
7918.8831137903
7234.2566387453
6623.6407241491
6078.6107301378
5591.19549973
5153.870757107
4761.0057447608
4407.9182458552
4089.78569978
3802.4385934254
3541.4886772546
3304.7685905301
3089.6928113688
2893.7062739457
2714.7305714405
2550.609765335
2400.2904746677
2262.1822639807
2135.0991782672
2017.8056947634
1909.3844841766
1809.1395204813
1716.2198937853
1629.9788330812
1549.7204651042
1474.9995634249
1405.3583703391
1340.3445414052
1279.5662933218
1222.6494262705
1169.3148233174
1119.2772745734
1072.2646353605
1028.0368250814
986.37013232212
947.08592698556
910.02568818124
875.023883891
841.9392493049
810.63260507249
780.87370555482
806.35270308546
3811.887247465
5576.0186777034
5710.9291950045
5756.0727508872
5808.3348621434
5869.2661258721
5935.6313089755
6002.9083074091
6066.1462122772
6121.6168093209
6167.368429195
6202.7511103972
6228.3761629136
6245.6299029752
6256.1593647317
6261.5688413338
6263.5363573293
6263.1401207435
6261.138369723
6258.0816160989
6254.5077072132
6250.8720213756
6247.5027267637
6244.4738920559
6241.6934310821
6238.9462016025
6235.9747156342
6232.674182274
6228.8285068917
6224.0976910251
6218.3540670501
6211.6981413593
6204.1823585714
6196.0732383911
6187.6463620701
6175.0459152577
6166.6262176461
6159.0506523428
6152.2751347261
6146.5062722915
6141.7786382573
6138.1830645854
6135.5390448357
6133.6720027743
6132.1179918522
6130.6751318407
6129.3734856237
6127.4879665076
6125.1384714123
6122.003479808
6118.0708386041
6113.6524683677
6108.8054951157
6103.033929742
6096.8247050927
6090.0704693532
6083.4803382862
6077.0904571129
6070.8774090555
6064.3146340685
6057.4651127104
6050.3461006754
6043.0248441653
6035.6519677116
6028.0888927766
6021.0332940036
6014.1506749477
6007.9215801155
6002.4272986541
5998.6741523616
5988.5045060348
6365.7150346954
6365.2225189409
6594.3938826356
8180.2443880465
10491.773055282
12893.297409775
15182.237454319
17247.126641111
19000.372773598
20368.491823958
21371.951072348
21915.091498377
21935.080364393
21653.688992361
21071.226734078
20182.02204223
19091.472927488
17876.145740322
16602.52578206
15320.794284748
14073.558584096
12888.84154275
11782.906206831
10762.979790578
9830.6136816289
8983.6498284002
8217.9773239729
7528.095179811
6907.2744020076
6348.7349582938
5846.1081503365
5393.4874329893
4985.5659441381
4617.5152025907
4284.5857643243
3982.7721677797
3709.2155830687
3460.6701757098
3234.4212742324
3028.1853048295
2839.3068754061
2666.4577702494
2508.095820862
2362.567171299
2228.7043968073
2105.0362670322
1990.805711932
1885.2106063118
1787.3539074262
1696.5734120199
1612.0849497094
1533.4731352952
1460.2322390344
1391.8873456236
1328.032061587
1268.2520172969
1212.273666835
1159.7928401098
1110.5134259716
1064.1894254945
1020.5711989604
979.47603824089
940.72596519616
904.13587198872
869.56015376579
836.85792965763
805.89331762818
776.49806600752
883.05116925281
4356.5954030272
5612.7719097847
5709.1711271421
5752.6728739444
5804.1892980332
5864.0924090385
5929.1733325
5995.165929196
6057.3696950481
6112.2590631731
6157.954745613
6193.7396219723
6220.1070060524
6238.2788906228
6249.7668082555
6256.214829268
6259.0765479187
6259.2623952979
6257.8591659914
6255.2944889401
6252.127358566
6248.8121070054
6245.7193257444
6242.9450202387
6240.3816622277
6237.819813922
6234.9659919022
6231.6704424536
6227.7627978199
6223.0898258767
6217.3144546363
6210.6511935485
6203.1797137489
6195.1489110457
6186.8393646846
6174.2123171448
6165.9593311197
6158.3976274452
6151.5748560381
6145.7049742081
6140.8978184635
6137.1270315168
6134.2825485008
6132.1882846706
6130.4034510959
6128.6827225757
6126.9728576015
6124.7345762154
6122.2275599283
6119.4919953294
6115.859802538
6111.8201494498
6107.0720689151
6101.3629500346
6095.4099335999
6089.9229939612
6083.9115960043
6077.7317096559
6071.254340388
6064.5109215121
6057.3488065015
6049.8323582584
6042.1628083806
6034.4443254285
6026.8228518376
6019.790095497
6013.0546354228
6006.9704941129
6000.9265919685
5996.4757728734
5986.6860764051
5846.4521673946
5822.9453985848
5783.6593135858
6372.7805958485
7808.4503608835
9541.5156930766
11301.715010106
12973.440807837
14451.565405658
15716.707963161
16687.602352251
17351.416456743
17736.650197113
17786.729519826
17486.992936508
17010.324328365
16329.799237969
15505.69123447
14585.819404403
13621.214260259
12649.125185763
11699.51700568
10791.216154952
9936.0787379999
9140.8561092362
8407.6190313269
7735.3387279984
7122.0586650282
6564.5247859581
6058.3383998426
5599.090020143
5182.5718839391
4804.7297096862
4461.7200745846
4149.9270745372
3866.2949318474
3607.9980572694
3372.2256745029
3156.602346457
2959.4789333501
2778.9194560394
2613.2841072832
2461.0636031859
2320.5611456199
2190.9600537254
2071.3314000415
1960.6409860566
1858.1388566516
1762.8898763053
1674.310226727
1591.9655177728
1515.218863547
1443.6433962681
1376.740018586
1314.1162438559
1255.5300815155
1200.6123903808
1149.0815610501
1100.653443078
1055.0641334943
1012.1455733071
971.69882461219
933.53994594279
897.50436270203
863.42597397866
831.15717614244
800.60939275831
771.12260160608
1079.2453292347
4819.7143333712
5638.1320083114
5706.1995467771
5747.920724614
5798.4350951434
5857.0997612261
5920.7263289474