/*--------------------------------*- C++ -*----------------------------------*\
| =========                 |                                                 |
| \\      /  F ield         | OpenFOAM: The Open Source CFD Toolbox           |
|  \\    /   O peration     | Version:  2312                                  |
|   \\  /    A nd           | Website:  www.openfoam.com                      |
|    \\/     M anipulation  |                                                 |
\*---------------------------------------------------------------------------*/
FoamFile
{
    version     2.0;
    format      ascii;
    arch        "LSB;label=32;scalar=64";
    class       volScalarField;
    location    "0.00016";
    object      pTsat;
}
// * * * * * * * * * * * * * * * * * * * * * * * * * * * * * * * * * * * * * //

dimensions      [1 -1 -2 0 0 0 0];

internalField   nonuniform List<scalar> 
109340
(
389519.55707584
387959.67867656
385010.4350669
381472.37313616
377602.94439187
373612.43885311
369582.73168749
365563.94215801
361643.16730295
357811.23962623
354013.85750242
350247.4002297
346515.43336472
342820.40010392
339164.02018176
335547.81478348
331971.21463291
328431.85605859
324924.97641155
321443.92414865
317978.7145612
314518.47586845
311050.83630092
307561.01818142
304029.27622307
300429.96684371
296728.84322289
292879.7896065
288819.46785412
284458.91037448
279670.04605597
274262.85181714
267950.23613704
260307.08639976
250745.21543843
238536.05383059
389753.00425246
387751.05287495
384445.39207129
380675.86438595
376703.80510851
372709.29677349
368744.50731694
364820.20552884
360932.63075371
357085.15704389
353272.20032148
349494.70181781
345755.11663271
342054.97706001
338395.28540581
334775.63967637
331196.07745293
327653.68863116
324142.91124672
320655.9915167
317182.72592161
313712.00233335
310231.08510419
306724.36951984
303170.97716036
299543.41370618
295804.93830524
291905.73506863
287776.84074322
283320.5959195
278394.59959514
272783.29867239
266148.25457863
257966.72457877
247384.97644331
233490.8616763
390625.88382735
388304.95286667
384662.81253
380802.16844376
376861.70029347
372921.43085622
368974.10429828
365031.90868977
361119.74149505
357245.31576725
353407.67921317
349607.41333111
345846.35522011
342126.02030428
338447.95143162
334813.2311629
331221.58323234
327670.19576266
324153.03323281
320661.96650032
317186.00875391
313713.85673481
310232.63017906
306726.51907866
303174.50713732
299548.84665904
295812.6682859
291916.0462859
287789.85950596
283335.80923933
278409.86684327
272790.27329803
266110.38226605
257759.21492346
246643.11513461
231018.08929743
391844.1740022
389040.47198271
385208.41709567
381234.02017834
377213.22779104
373187.33147544
369170.78141838
365177.81248375
361224.84545835
357317.5894403
353455.61684362
349638.39913905
345866.10069175
342139.02431727
338457.40274043
334821.19488256
331229.65137605
327679.56398143
324163.97988551
320675.00412383
317200.19384791
313728.79587791
310248.27325612
306742.80922639
303191.93671578
299567.8024877
295833.62388807
291939.49775084
287816.13590374
283364.33764052
278438.12023402
272810.10904144
266076.74636192
257514.11857135
245630.1364705
227078.31889022
393773.3190803
390115.5158656
385714.96708501
381465.14543177
377333.01074464
373266.44581469
369236.42356467
365244.88511008
361295.48820589
357388.67299361
353526.08116565
349708.17533978
345935.3038973
342207.90884796
338526.46952644
334891.41919656
331303.00733092
327759.24027164
324246.41194891
320763.33443986
317292.29265488
313824.07228262
310346.69154162
306843.81959581
303296.10917521
299675.43325787
295945.12461453
292055.26072507
287936.22619951
283487.69841641
278558.08004249
272927.34517912
266144.18997198
257375.7209255
244628.84910434
221614.97076219
397398.09252046
390687.50761035
385834.95305452
381495.47867613
377358.13604445
373300.20695554
369280.58666766
365291.90056062
361340.43984041
357427.75113702
353556.57524069
349727.79229386
345941.95757688
342199.57894779
338501.21767462
334847.57553082
331239.6340604
327683.68280783
324194.98306606
320706.52641039
317227.89509516
313752.64777717
310268.92944184
306761.08150912
303208.5733677
299583.63945614
295849.33486708
291955.71795269
287833.22161566
283381.06125248
278437.52310357
272809.32647677
266001.24718735
257133.51934625
243916.33460176
216053.55708724
223830.73004886
209148.47707967
196874.52911509
186962.13035131
178053.62088154
168531.65430501
158008.73899435
146315.16863217
133613.01455401
120230.34657843
105837.22784149
93056.00291091
80552.714527852
69057.580246398
58985.136833471
50212.423761888
42752.795087536
36451.32397189
31156.893322232
26758.465514237
23110.288381564
20057.32131246
17499.754468138
15354.108125764
13538.849191379
12012.210826203
10713.295020699
9558.3812079186
8624.1922826823
7760.7645055637
7046.961070862
6406.272727893
5843.3647044794
5356.7433084279
4911.7400434194
4531.8819687324
4178.5648705121
3874.6334141473
3592.6835134556
3344.3922226011
3118.7529617909
2911.3699796313
2729.2847229359
2554.430709375
2405.0374583344
2257.7855426995
2132.8271822646
2009.8292019242
1902.6718406072
1801.1655336676
1706.9240035288
1620.1370356567
1539.4639748264
1464.6241587079
1394.9109133198
1329.9026371872
1269.1362576443
1212.2936478635
1159.0558438823
1109.1417468844
1062.2720349903
1018.2042991624
976.72589755242
937.65185550901
900.80862655268
866.03476325662
833.18250675399
802.11117290337
772.36069223681
1123.8867871338
4884.7259057729
5675.4111209801
5749.3757926575
5800.1078731688
5861.1056700736
5929.9154207695
6001.6864916838
6070.2683168928
6130.5801986293
6179.8766526556
6217.1504284713
6243.246452551
6259.8921743011
6269.2263521962
6273.2281393829
6273.4068727549
6271.7013100616
6268.392372572
6264.3300584178
6260.0663122555
6255.9537075786
6252.1755528833
6248.7394118545
6245.5497863279
6242.457436042
6239.3204901579
6236.0188566295
6231.9560543326
6226.7273025319
6220.4441828499
6212.7665008949
6204.1386537897
6194.9105515313
6185.4635545937
6171.6981233212
6163.5759748084
6156.6245199025
6150.9882602679
6146.7165076023
6143.6193511183
6141.6175234006
6140.6674599645
6140.613239751
6142.3937648256
6141.7875660101
6141.4253194156
6139.944699159
6138.0162715108
6135.1605722563
6131.3224698904
6126.7678217273
6121.3959186659
6115.3636499159
6108.650589027
6101.7283203475
6094.1405539983
6086.0008254629
6077.4680233008
6068.9395009283
6060.5646158552
6052.414588014
6044.7707246963
6037.2040586858
6030.0739952937
6023.742328186
6017.7561789287
6012.9684055933
6008.3298013491
6007.6987725688
5999.2140738904
216281.54871053
200779.96299207
189130.40526252
179959.14075759
171102.68124906
161041.74914402
150078.54564764
138235.87197545
125734.92901341
112810.91125514
99814.441453778
87029.781488327
75588.843993561
65094.400142913
55704.394872694
47572.891874953
40600.669202377
34701.455397828
29756.986407489
25621.9524342
22168.364775811
19283.605273138
16863.145451055
14822.733966672
13097.206131509
11630.568195601
10377.742628649
9301.7233702383
8372.2799319018
7567.6000833741
6864.3190404265
6251.6002994002
5710.1363399234
5234.0616999016
4810.3550435105
4434.7984310196
4098.0403425656
3797.6279358187
3526.5316665883
3283.2145817657
3062.2604739978
2862.9719718949
2680.9292111236
2515.8612785307
2364.4473726115
2226.2955190108
2099.209472101
1982.4752076853
1874.9288602611
1775.5894915234
1683.7500155811
1598.4899276644
1519.4193714309
1445.8744986441
1377.4084097012
1313.5105533486
1253.8032107482
1197.9275160681
1145.5747958877
1096.4597359621
1050.3274703219
1006.9450056182
966.10367754023
927.6164114416
891.31657794021
857.05266737601
824.68228850251
794.0742835486
767.14112042841
1920.8186639571
5309.391454963
5706.0853230989
5762.160221452
5814.9991016801
5877.9588951179
5947.729599837
6018.951781917
6085.6037475339
6143.1028979574
6189.1670394352
6223.3471751142
6246.7382522191
6261.2091180879
6268.8747578887
6271.1376547988
6270.9668383827
6269.0682485606
6265.6488686057
6261.4771049212
6257.0873882487
6252.8136847747
6248.829283665
6245.1430308498
6241.6820136856
6238.337379217
6235.0264321425
6231.6877327183
6227.7745868825
6222.8801980742
6217.0816070026
6209.9781393917
6201.9321350535
6193.2581031432
6184.356433664
6171.0652772311
6163.1699903874
6156.3642714969
6150.7981227395
6146.564492552
6143.4998071648
6141.5150322481
6140.5506601433
6140.4268146252
6142.1742758144
6141.4843444859
6141.1641757616
6139.7218029598
6137.8387212662
6135.0228579165
6131.2251086764
6126.7117842763
6121.3748206135
6115.3703352055
6108.6834008616
6101.773878679
6094.1835201919
6086.0419318693
6077.5199611013
6069.0489993565
6060.7234204517
6052.6052350617
6044.9447588545
6037.3572339938
6030.1731754843
6023.7718649087
6017.7362574296
6012.8692131501
6008.0487858974
6007.0693403193
5998.9398928202
209758.23109679
191482.80591195
180911.89699601
170466.52589219
161215.90221138
151458.08904065
140733.45367361
129452.55697867
117825.20203159
105656.59943986
94377.214910744
83144.620532765
72548.05161944
62825.671014074
54074.385672607
46371.794820076
39721.186305268
34072.971143612
29304.621777143
25283.897630612
21912.684777632
19090.798365975
16714.073406147
14706.78616695
13007.717758274
11559.94072578
10320.088869144
9255.8322006932
8335.545637673
7536.829663975
6840.0536853188
6229.4122476016
5693.0533116671
5218.3431135067
4798.2570608465
4423.316229522
4089.2881991197
3789.2231432654
3520.0975202647
3276.9326767254
3057.4962940345
2858.2314222851
2677.2192986923
2512.2451199469
2361.4175106186
2223.489289672
2096.6469351431
1980.3077286034
1872.8036645869
1773.7792510989
1681.997579778
1597.0451999161
1518.0821874406
1444.6418908946
1376.2508907714
1312.4416524343
1252.8312807199
1197.0407747603
1144.7619155079
1095.7107550914
1049.638742047
1006.3116805307
965.51946268342
927.07470049143
890.81296463769
856.58324579268
824.24611053156
793.675319149
766.98504000577
1969.7546850668
5322.4596911272
5706.9846789843
5762.1827725399
5814.9589362607
5877.8728921008
5947.5593788763
6018.6581902062
6085.2020437611
6142.6319726377
6188.6817037018
6222.8959350918
6246.352597021
6260.9022079323
6268.6282093799
6270.9647585139
6270.8574029197
6268.9189397794
6265.5458923949
6261.4153573324
6257.0414278874
6252.7727570812
6248.7935038375
6245.1184794181
6241.6701147934
6238.3340655983
6235.0313910013
6231.6958585601
6227.7608282388
6222.8704903963
6217.0285706855
6209.9889622723
6201.9452542077
6193.2441392756
6184.230259024
6171.1121676163
6163.1483405949
6156.3255346639
6150.716200623
6146.4488919
6143.3782180983
6141.4020941573
6140.4170929541
6140.0853572971
6141.7387182124
6141.1091423395
6140.7316969833
6139.2996289493
6137.4289811805
6134.6295372585
6130.8578123655
6126.3785638752
6121.0689971542
6115.0891036082
6108.4550917158
6101.5630866269
6093.9910371904
6085.8654465059
6077.3766190606
6068.9851124232
6060.7180786717
6052.615952397
6044.9610693986
6037.4787858459
6030.198839443
6023.7457783516
6017.7482515526
6012.8907382018
6008.0810917148
6005.9331794879
5998.5088410823
197522.91039491
176228.5364257
166008.53950223
155778.74530198
145844.50266767
136497.75454213
126732.72658346
116912.02499024
106899.93391723
96661.206592114
87409.248454247
77854.202382072
68544.683518787
59837.090513743
51837.87771355
44742.210880538
38546.099420722
33204.719456752
28657.698477372
24815.861596724
21568.988681673
18819.982686226
16507.188766509
14549.688100796
12882.45713187
11459.590248186
10241.370504564
9191.4651876339
8283.1432938307
7493.6543424449
6804.6671488754
6199.5554909091
5667.8219554678
5197.3196987768
4780.0465187039
4408.1769789884
4076.1131401766
3778.0798746513
3510.3823583452
3268.6606029792
3050.2636997355
2851.8588223498
2671.7767401589
2507.2897519976
2357.201423657
2219.5383675569
2093.3248644119
1977.1494537013
1870.0558096725
1771.2113137614
1679.6896942881
1594.9550639487
1516.1946292277
1442.955004698
1374.6850823292
1311.0067033998
1251.5058258962
1195.8229940611
1143.6458391957
1094.6898153427
1048.7012624517
1005.4465530872
964.72046494799
926.33844589196
890.13338533164
855.95129808419
823.65387692359
793.12118261267
766.89045852908
2044.8673590646
5340.6588969844
5708.2328160383
5762.1442423057
5814.8690857003
5877.7292235858
5947.2913385409
6018.2192140137
6084.6073172137
6141.9398322754
6187.9688874051
6222.2310450629
6245.7809396968
6260.4456825974
6268.2835069291
6270.7592000849
6270.7145619736
6268.8006563224
6265.4710795915
6261.3809743036
6257.0276539781
6252.7735046239
6248.8097509317
6245.1570807075
6241.734253619
6238.4206906244
6235.1324006529
6231.7956504461
6227.8778154248
6223.0167175662
6217.1997999699
6210.2118920771
6202.1937775613
6193.5077510505
6184.4917927791
6171.3264658745
6163.3208513258
6156.420522544
6150.7189264138
6146.3732257232
6143.2386751244
6141.1794102111
6140.1448396871
6139.7631063495
6141.1124711654
6140.4742801334
6140.0775682663
6138.6734609225
6136.8260114524
6134.0510609004
6130.3171900352
6125.88323658
6120.6065587871
6114.6528517386
6108.1306123189
6101.2296867017
6093.6604634829
6085.5409098811
6077.1120123679
6068.8479531165
6060.6304208156
6052.6080796082
6044.9042884583
6037.4138229924
6030.1190358449
6023.615374898
6017.6399293049
6012.5777636682
6007.5922299162
6005.3787165605
5997.8735972675
171063.44007247
151332.20835004
139999.54310202
131106.70993362
123301.75943321
116014.59210097
109173.54633382
102097.6798343
94922.834075884
87551.382630093
79712.016119337
71702.118139103
63801.254772479
56240.819063079
49197.893805649
42778.518021963
37090.681476963
32138.24380555
27868.535443445
24218.470067421
21117.154081216
18489.578182349
16246.675376965
14343.241089517
12721.974310279
11334.202282276
10139.014545695
9108.6274198046
8215.8949484948
7438.3575446975
6758.4029115219
6161.7352923484
5635.4257239567
5170.1060640507
4756.7573938799
4388.6407289217
4059.0519797868
3763.7635066176
3497.8331854265
3257.9821009075
3040.7806096172
2843.8070414077
2664.5422151282
2501.0110316664
2351.5734910442
2214.5786282873
2088.8939806544
1973.1147186588
1866.4903399322
1767.924202296
1676.7672321193
1592.2375591172
1513.74867431
1440.7462941349
1372.6872081578
1309.1743288663
1249.8059215693
1194.2587552569
1142.2102207625
1093.3729273497
1047.4875706446
1004.3272482382
963.69108361192
925.39235283359
889.26072093762
855.14173276773
822.89985162491
792.40610759577
766.88183638092
2146.4752182195
5363.5125295252
5709.466629116
5762.0042980889
5814.7151890826
5877.5072781056
5946.9037452488
6017.6114886509
6083.7996837194
6141.0088587152
6187.0135343291
6221.3381744928
6245.0092799456
6259.8262004455
6267.8202260793
6270.4701694495
6270.5134351491
6268.6646816167
6265.3913121746
6261.350229227
6257.02271841
6252.7903225746
6248.8543821026
6245.2367916937
6241.8512344963
6238.5709235925
6235.3199832996
6232.016514056
6228.1373029279
6223.2779783776
6217.4655434449
6210.5115517321
6202.5296514979
6193.8636126411
6184.8501915274
6171.6509513042
6163.5794587033
6156.6005904008
6150.7988247538
6146.3253639991
6143.0795622262
6140.9304441292
6139.8002004782
6139.2984447966
6140.3625125522
6139.7269157734
6139.2917406136
6137.8896525816
6136.0466815438
6133.2836331806
6129.5783253347
6125.1758649565
6119.9242197297
6114.0003018486
6107.6070284261
6100.7043997432
6093.1267704488
6085.0070677117
6076.6575867731
6068.5217287821
6060.3917440373
6052.4880593396
6044.7802745988
6037.3253317589
6030.0339755094
6023.5565135782
6017.4218990736
6012.1433920878
6007.1446318119
6004.6802587548
5996.9807900575
103571.85987873
99973.621647622
98725.1429855
98602.01755564
97007.020149215
94970.2257093
91662.175756505
87824.601077328
82971.187280064
77572.819047918
71522.416191715
65183.628633191
58706.860645588
52307.412225945
46210.75284474
40555.87941257
35437.914250649
30900.013805742
26941.426093749
23522.868501443
20588.034847693
18077.059608405
15937.700814563
14100.752711151
12528.309690797
11178.88114006
10017.371658168
9008.7997849029
8133.4722350443
7370.8180579477
6702.8350504717
6114.7611965958
5596.131579187
5137.0446054203
4728.5110573985
4364.3930006359
4038.6075284659
3746.1441709577
3482.555069202
3244.7676882854
3029.3482877656
2833.8187888236
2655.6755885733
2493.282840359
2344.6841370854
2208.5138637074
2083.376926526
1968.2406819109
1862.0883307768
1763.9560886017
1673.1624343829
1588.9393827339
1510.7706263036
1438.0248751938
1370.2267547778
1306.9179164084
1247.7374472817
1192.3591213021
1140.4561773662
1091.7510864983
1045.9932544321
1002.9567603782
962.43176721096
924.23178906409
888.19056656945
854.15599686688
821.98802020106
791.55785319062
767.06573325105
2270.860846435
5388.8970791029
5710.4893079669
5761.7433900257
5814.4770885964
5877.1825412748
5946.3695644863
6016.810002438
6082.7554012435
6139.8139694582
6185.7909949023
6220.1953176884
6244.0173469862
6259.0233210396
6267.2132316961
6270.0712598989
6270.2295658608
6268.4778063802
6265.2771070977
6261.2966862865
6257.0058764385
6252.7999118333
6248.9002446784
6245.3300222488
6241.9948969689
6238.7802463673
6235.5687869736
6232.2677531186
6228.4065399894
6223.5558255219
6217.7649860282
6210.8616589732
6202.9450022141
6194.31742686
6185.2137269723
6172.0361045226
6163.9058477614
6156.8267315622
6150.8980764855
6146.2855491185
6142.8999570529
6140.6190284754
6139.3859389791
6138.7858936328
6139.52608558
6138.8625278609
6138.3963854453
6137.0001829438
6135.1684650201
6132.4283076761
6128.7582767466
6124.377661643
6119.1631049456
6113.2852017612
6106.9489898284
6099.8285441222
6092.1786269874
6084.1182240639
6075.9200765996
6067.9443010591
6059.9436771967
6052.1884007396
6044.5805204602
6037.2455550077
6030.035947774
6023.4648982585
6017.1280233264
6011.7199267945
6006.6738659109
6003.929995099
5996.001947206
10106.828512559
46061.791326211
60027.170090549
68532.558648814
73737.965092751
76088.567714152
76069.500788377
74606.75341281
72069.762078265
68640.110275722
64527.269310807
59840.525994664
54778.580076231
49539.740635293
44335.619662617
39354.943080714
34717.945928132
30512.814148483
26771.579526686
23489.57783016
20637.602392505
18175.476435935
16054.69490604
14235.973643812
12665.892057133
11308.644918524
10138.751887047
9125.1216854096
8241.8215500652
7468.6198046961
6792.3976445922
6197.9723750807
5672.1232389682
5205.82681352
4791.7435362727
4422.4680473211
4091.5667199191
3794.6512991454
3527.3556775331
3285.9360191383
3067.1569533823
2868.6565289239
2687.9362749277
2523.0665575766
2372.1710083188
2233.9875094047
2107.0323123538
1990.2263306617
1882.4656573277
1782.9355502714
1690.8521054651
1605.4662308079
1526.1838398354
1452.4152828519
1383.7237345762
1319.611482962
1259.6763300541
1203.5666551099
1150.9930073752
1101.6837582325
1055.3688372161
1011.8109824341
970.80005796349
932.1530056961
895.69783975455
861.27551759619
828.73761897437
797.95548660702
768.79684098787
1404.4141371866
5109.8788747366
5687.1138468224
5749.5862793064
5799.9279758901
5860.3810205927
5928.094230636
5998.4724989987
6065.7199085316
6125.045231805
6173.8777074664
6211.1918177113
6237.6808333546
6254.9161519096
6264.8581848916
6269.5360056214
6269.8376205882
6268.2119226859
6265.1047019217
6261.1976013389
6256.9581859446
6252.7863929251
6248.9258402453
6245.4115406429
6242.1467421765
6238.9887838167
6235.8065716785
6232.5125296811
6228.6790728053
6223.8355291822
6218.0620557074
6211.2040873606
6203.3590523549
6194.8807627029
6186.0203960304
6173.0901516975
6164.834960141
6157.5848053114
6151.4205201945
6146.5207084529
6142.8096475497
6140.277448988
6138.8215457803
6137.9561072712
6138.0142084091
6137.1854034525
6136.5973047786
6135.1429143467
6133.2914871583
6130.5658674849
6126.8945973403
6122.4125142131
6117.2072268646
6111.3141408353
6104.7119636867
6097.4329497738
6089.794577178
6081.8963072594
6073.9691582262
6066.3406230914
6058.6371803834
6051.0142944193
6043.3437975475
6036.1417669342
6028.9169085095
6022.7204646262
6016.4910797611
6010.9988419615
6006.0096999186
6003.0615353452
5994.8004060613
7949.693420451
14677.091686496
25087.324693141
33695.185957743
40461.663881581
45374.126762193
48644.426203636
50589.314856747
50758.895971791
50033.079681552
48513.86507853
46228.004513901
43385.213045881
40140.757123272
36676.47614334
33173.954374506
29769.859509338
26563.065579601
23622.779195375
20975.945216499
18624.134901464
16553.99090057
14741.444212597
13158.527280945
11779.940021138
10580.677480007
9532.6447297534
8612.8969047879
7808.5506088831
7102.1535543966
6479.9028282176
5927.9546173117
5438.9308906452
5004.0636099775
4616.0282964396
4267.9097362477
3955.6383815833
3674.6547231863
3421.035113407
3191.1555178066
2982.4967261815
2792.7358120286
2619.7040507929
2461.4271794786
2316.428315709
2183.368250705
2061.0076201021
1948.1985530542
1844.0136633818
1747.681108867
1658.4340374367
1575.6141972876
1498.5914467165
1426.8900383055
1360.0381093472
1297.620771571
1239.2430119837
1184.5525636461
1133.269744636
1085.1264762511
1039.8841830599
997.31706278245
957.22439596296
919.4285377672
883.76245048239
850.06820437963
818.19661384077
788.02110636295
768.79111506528
2781.4826721803
5470.7429591901
5711.6205822656
5760.1366659121
5813.0051749207
5875.2688049416
5943.567659041
6012.9302698335
6077.9164486221
6134.3957237585
6180.2744490461
6215.0073284076
6239.4444634115
6255.2213462777
6264.2166376394
6267.9329673563
6268.6305458384
6267.332830837
6264.4890844345
6260.7762573298
6256.6892669414
6252.6262285066
6248.8612274299
6245.4630042932
6242.3356956184
6239.2997387984
6236.1850933457
6232.8946139875
6229.1108037205
6224.2729634325
6218.5311303407
6211.7644991308
6204.0487195564
6195.7093077597
6186.9865462004
6174.2753340893
6165.8556992367
6158.4243855457
6151.9820516194
6146.7301957218
6142.6509234131
6139.7194724062
6137.8277617731
6136.6316306755
6136.0023740181
6134.987724051
6134.2017320318
6132.719199106
6130.8467776487
6128.1544843957
6124.4988193526
6119.8200699025
6114.4309918163
6108.4882605729
6101.8174916907
6094.5162270241
6087.1549427797
6079.7392114733
6072.1816641512
6064.761555601
6057.4399451982
6050.1689143251
6042.8687936628
6036.0285350355
6029.0163548139
6022.3993809971
6015.9657016215
6010.4401255452
6005.350422939
6002.1286921973
5993.031157591
7689.7645421846
8436.459102402
12982.359162444
18441.077297083
23499.138957933
27789.326932463
31259.135781034
33854.082142691
35671.039692194
36553.496462074
36520.355501066
35846.707697826
34561.161528084
32787.98046871
30665.85655
28324.279122071
25900.631351004
23502.305110882
21209.91002662
19074.538839044
17123.907308795
15366.01974901
13796.862925056
12404.47653639
11173.102602438
10087.178703812
9129.6099465069
8284.8852643963
7539.0626791898
6877.645233041
6290.8839257847
5769.8841744901
5305.6485666674
4891.4249063226
4519.3477262141
4185.1534794268
3884.4802296254
3613.2220189364
3367.4621295126
3144.3183407488
2941.6126973116
2756.8746550155
2588.0655674692
2433.3566616555
2291.5615682995
2161.2405786228
2041.2471312804
1930.46797773
1828.0643972384
1733.3033910946
1645.4346235946
1563.8021244484
1487.8240472874
1417.0587394855
1351.0442349155
1289.3720573551
1231.6636286776
1177.5948866255
1126.8893663206
1079.2658580759
1034.480489248
992.32205755476
952.59816576427
915.14167358199
879.78872301062
846.38647117659
814.78305922362
784.86473617294
776.79444612566
3265.7252319693
5526.4336015603
5711.5471246665
5758.4349247204
5811.1619163993
5872.8861780781
5940.330168672
6008.7392092042
6072.9119512783
6128.9163164908
6174.7288766257
6209.7563510587
6234.7369352824
6251.1894298827
6260.887704488
6265.378804476
6266.6234859926
6265.7348024576
6263.2585221604
6259.8214378848
6255.9494456947
6252.0714899707
6248.4767210801
6245.2347818247
6242.2564325416
6239.332836148
6236.2743253263
6232.9761568535
6229.1963571938
6224.3881822408
6218.656059038
6211.9594738314
6204.3581600974
6196.1546282374
6187.596795159
6174.948016112
6166.4558605351
6158.9172809674
6152.2663582777
6146.720462235
6142.2721607275
6138.9576573877
6136.6615011574
6135.1526502789
6133.9929854487
6132.7882937951
6131.8082044684
6130.2690490762
6128.1620934493
6125.1683840891
6121.2491960468
6116.4202647355
6111.2713809359
6105.2780389894
6098.7223900103
6092.017778921
6084.8532793243
6077.9061411168
6070.9903975196
6063.9626061897
6057.2342803445
6050.281636876
6043.1400602363
6036.0118333008
6028.8751550171
6022.0560723276
6015.4212994129
6009.4832389524
6004.222260644
6000.8628174474
5990.6300687826
7008.5067577185
6996.1612575202
8445.0939901003
11607.994252932
15087.779496061
18364.16962905
21275.149951105
23725.93909398
25665.392034449
27028.87325839
27799.517451039
27856.750055326
27456.511922098
26624.133687913
25407.931007424
23933.342875104
22284.019382765
20555.542738609
18826.731817398
17155.491557068
15581.201857828
14125.422628665
12796.295989993
11594.567084619
10514.751353202
9548.5513054613
8686.8608498308
7918.8831146422
7234.2566410001
6623.6407106082
6078.6107137148
5591.1955030216
5153.8707798766
4761.0057538282
4407.9182569166
4089.785716596
3802.4386090896
3541.4886762947
3304.7685992848
3089.6928113831
2893.706269318
2714.7305593656
2550.6097565695
2400.2904679001
2262.1822558119
2135.0991696774
2017.8056865855
1909.3844814377
1809.1395178618
1716.219893228
1629.9788338312
1549.7204678733
1474.9995677327
1405.3583723748
1340.3445425976
1279.5662903839
1222.6494224473
1169.3148205826
1119.2772734849
1072.2646381946
1028.0368296811
986.37013841492
947.08593260196
910.02569195514
875.02388541498
841.93924780141
810.6326011721
780.8737029941
806.3528894318
3811.8870378852
5576.0186329785
5710.9290836235
5756.0726566969
5808.3347976587
5869.266106425
5935.6313408162
6002.9083965132
6066.1463459802
6121.6169630154
6167.3685885265
6202.7512603706
6228.3762957938
6245.6300149863
6256.1594625097
6261.5686882741
6263.5363707959
6263.1401280802
6261.1383771054
6258.081621021
6254.5077104875
6250.8720239879
6247.5027309277
6244.4738990878
6241.6934418876
6238.9462162671
6235.9747317387
6232.6741976725
6228.8285195662
6224.0976975597
6218.3540683
6211.6981361889
6204.1823462819
6196.0732248879
6187.6463470538
6175.0459029842
6166.6262142134
6159.0506493857
6152.2751325156
6146.5062697767
6141.7786365053
6138.1830630857
6135.5390433875
6133.6720025267
6132.1179919502
6130.6751330506
6129.3734880016
6127.48797087
6125.1384779565
6122.0034892308
6118.0708515955
6113.6524851606
6108.8055170254
6103.0339570465
6096.8247354926
6090.0705000079
6083.4803660766
6077.0904790833
6070.877422986
6064.3146431423
6057.465121349
6050.3461138686
6043.024862124
6035.6519948748
6028.0889285986
6021.0333368177
6014.1507226455
6007.9216259642
6002.4273495729
5998.6741941808
5988.5045330185
6365.7150348042
6365.2225329701
6594.393848298
8180.244401964
10491.773045445
12893.297373841
15182.237474484
17247.126653135
19000.372806559
20368.492911688
21371.946614865
21915.10425623
21935.091853358
21653.694525194
21071.226443568
20182.022289626
19091.473184008
17876.146448198
16602.525939747
15320.794371601
14073.558645534
12888.841523086
11782.906149555
10762.979744757
9830.6136622532
8983.6498325826
8217.9773391877
7528.0951851586
6907.2743911464
6348.7349472976
5846.1081482434
5393.4874343368
4985.5659454715
4617.5152028341
4284.5857715734
3982.7721878111
3709.2155955448
3460.6701920122
3234.4213017062
3028.1853188619
2839.3068636456
2666.4577626573
2508.0958107578
2362.5671635242
2228.7043875425
2105.0362490994
1990.8057066887
1885.2106033242
1787.3539077631
1696.5734133903
1612.0849560226
1533.4731425837
1460.2322468092
1391.8873531784
1328.0320652859
1268.2520179394
1212.273664615
1159.7928369477
1110.5134242782
1064.189425356
1020.5712012534
979.47604168547
940.72596855589
904.13587456759
869.56015431791
836.85792793229
805.89331400364
776.4980592884
883.05133935885
4356.5954191615
5612.7718482678
5709.1710162917
5752.672796031
5804.1892489421
5864.0924028784
5929.1733738335
5995.1660227771
6057.3698286793
6112.2592080873
6157.9549032235
6193.7397730448
6220.1071413257
6238.2790071951
6249.766909297
6256.21470381
6259.0765632305
6259.2624043641
6257.8591737421
6255.2944941462
6252.1273613793
6248.8121088641
6245.7193285222
6242.9450256864
6240.381671401
6237.819826599
6234.9660070035
6231.6704574657
6227.7628102586
6223.0898342793
6217.3144579063
6210.651191218
6203.1797063689
6195.1488993065
6186.8393525425
6174.2123043882
6165.9593276858
6158.3976248915
6151.5748536683
6145.7049726809
6140.8978169182
6137.1270301593
6134.2825477159
6132.1882842746
6130.4034516565
6128.6827241098
6126.9728607171
6124.7345809009
6122.2275679678
6119.4920069008
6115.859819186
6111.8201735545
6107.0720997883
6101.3629871627
6095.4099756781
6089.9230315698
6083.9116211546
6077.7317218714
6071.2543454972
6064.510930074
6057.3488311698
6049.8323991053
6042.1628593336
6034.4443860815
6026.8229158968
6019.7901606236
6013.0546961049
6006.9705577312
6000.9266464608
5996.4758207895
5986.6861195996
5846.4521476871
5822.9453930349
5783.6593152426
6372.7805943557
7808.4503497776
9541.5156928992
11301.715041034
12973.440890195
14451.565418562
15716.707057443
16687.604218885
17351.423902838
17736.646021255
17786.727511218
17486.997264976
17010.324515798
16329.799084272
15505.690012315
14585.819841124
13621.214281737
12649.125197976
11699.516972915
10791.216140655
9936.0787335402
9140.8560840272
8407.6190098726
7735.3387281941
7122.0586753078
6564.5247880888
6058.3383974434
5599.0900143306
5182.5718693436
4804.7296961666
4461.7200774646
4149.9270903504
3866.2949513653
3607.9980791073
3372.2256983465
3156.6023567937
2959.4789330361
2778.9194512831
2613.2841067904
2461.0635966698
2320.5611314651
2190.9600431283
2071.3313948683
1960.6409845726
1858.1388564498
1762.889880449
1674.3102280217
1591.9655245163
1515.2188724764
1443.6434051093
1376.7400237155
1314.1162485053
1255.5300835479
1200.6123902596
1149.0815585462
1100.6534404459
1055.0641316017
1012.1455731982
971.69882608014
933.53994795586
897.50436379874
863.42597354585
831.15717342731
800.60938826207
771.1225924507
1079.245588834
4819.7143532131
5638.1319282555
5706.1994555852
5747.9206590473
5798.4350578369