/*--------------------------------*- C++ -*----------------------------------*\
| =========                 |                                                 |
| \\      /  F ield         | OpenFOAM: The Open Source CFD Toolbox           |
|  \\    /   O peration     | Version:  2312                                  |
|   \\  /    A nd           | Website:  www.openfoam.com                      |
|    \\/     M anipulation  |                                                 |
\*---------------------------------------------------------------------------*/
FoamFile
{
    version     2.0;
    format      ascii;
    arch        "LSB;label=32;scalar=64";
    class       volScalarField;
    location    "0.00016";
    object      rho;
}
// * * * * * * * * * * * * * * * * * * * * * * * * * * * * * * * * * * * * * //

dimensions      [1 -3 0 0 0 0 0];

internalField   nonuniform List<scalar> 
109340
(
662.48312069148
662.4780670641
662.46845850657
662.45683777083
662.44400778102
662.43063993603
662.41699400067
662.40320118292
662.3894087862
662.37528557395
662.36019235579
662.34351878473
662.32453389633
662.30234957527
662.27590645094
662.24395094771
662.20498869864
662.15722802042
662.0984954734
662.02612453106
661.93679373221
661.82633406348
661.68945765695
661.51939065074
661.30734879775
661.04180438371
660.70740060982
660.28330547493
659.74060341432
659.03796771355
658.11409477973
656.87362332281
655.159174066
652.69260736621
648.94501763308
642.83282168165
662.48387605558
662.47739050959
662.46661049918
662.45420790164
662.4410084578
662.42759513743
662.41413630032
662.40062096397
662.38684978379
662.37249260303
662.35704083094
662.33986357522
662.3201880879
662.29708201777
662.2694373769
662.23593848862
662.19502709323
662.14482642465
662.08305220092
662.00689119407
661.91283397463
661.79646345974
661.65216337955
661.47271930935
661.24874964529
660.96789964478
660.61364470792
660.16345402287
659.58584874457
658.83545898025
657.84422858551
656.50466412479
654.6352969414
651.90478575187
647.64453743985
640.40741411941
662.48669517479
662.47918945598
662.46732322892
662.45462614861
662.44153644575
662.42831182581
662.41492176223
662.40136486136
662.38754527837
662.37314792959
662.35767875287
662.34050352511
662.32084500967
662.2977685808
662.27016642743
662.23672795393
662.19589416376
662.14579061889
662.08413396744
662.00811308504
661.91421781887
661.79803112097
661.65393677513
661.47471835841
661.2509920507
660.97039829543
660.61640618413
660.16647845094
659.58913257637
658.83898964467
657.84795351256
656.50826481374
654.63646709261
651.89035239357
647.5475221891
639.86150274681
662.49062005211
662.48157448565
662.46910930622
662.45605427682
662.44271126704
662.42921029588
662.41559502826
662.4018821757
662.38795811844
662.37350309481
662.35802409896
662.34088157468
662.32129073989
662.29831082917
662.27082686994
662.23752079279
662.19682752847
662.14686552264
662.0853392783
662.009426462
661.915589226
661.79937933199
661.65513441277
661.47556935293
661.25120770039
660.96955298523
660.6138809702
660.16137798777
659.58016259653
658.82425983834
657.82462790149
656.4718553022
654.5777038814
651.78192735142
647.2747395992
638.75136346667
662.49681177713
662.48505357138
662.47076744547
662.45682107262
662.44311517035
662.4294817299
662.41582406585
662.40212658551
662.38824604344
662.37385093894
662.35845488634
662.34141505094
662.32193362106
662.29904955199
662.27161768735
662.23827639279
662.19740130575
662.14703021684
662.08471194401
662.00749349596
661.91158088614
661.79220579586
661.6432604856
661.45682973977
661.22257731954
660.92679361856
660.55105763473
660.07015832141
659.4487826164
658.63593592017
657.5548857432
656.08453674649
654.01429364189
650.93327591027
645.85725859155
635.32852631726
662.50836122544
662.48686145638
662.47108656722
662.45681484042
662.44306007787
662.42942565429
662.41577500496
662.40203268018
662.38797314751
662.37312964906
662.35682831928
662.33817764587
662.31606314131
662.28912600145
662.25572635973
662.2138881752
662.16122111751
662.09484421027
662.01131546214
661.9057147217
661.77211388431
661.60285780004
661.38800798016
661.11457624694
660.76545725846
660.31789459115
659.7412542255
658.99362583751
658.01643860113
656.72538793684
654.99374231712
652.62436065945
649.27204964303
644.26362989612
635.94172188209
617.34069665311
632.31735757
614.69377496411
587.64762280267
550.92073047555
506.17801651224
455.17444011956
400.08878172957
343.33487229444
287.53857023665
235.26832402104
187.47523675801
148.20991541245
115.6389622041
89.703008764741
69.709244905503
54.380242699358
42.755155560246
33.919153439127
27.172050587064
22.014795293587
18.043425079141
14.939799156831
12.493266604951
10.548921081748
8.9843527643894
7.7237515701884
6.6905719277293
5.8140758825129
5.1200728827379
4.5037968715249
4.007624416657
3.571713379045
3.2016211525573
2.8848454208495
2.6051586391595
2.3676418768461
2.1539480583829
1.9706540768254
1.8057030775562
1.6607507666696
1.5324003907888
1.4149986005948
1.3137634894698
1.2177027442221
1.1363672227904
1.0575769926835
0.99086924576799
0.92649515876795
0.87040391798018
0.81811084174892
0.76988081214176
0.72587555652497
0.68530491391137
0.64796178966201
0.61344231700347
0.58149157877929
0.55184032071095
0.52429546939682
0.49866885738017
0.47479633065504
0.45251954992088
0.43170126710336
0.41222090835253
0.39397338627953
0.37686157918029
0.36079637460366
0.34569685184719
0.33148730602416
0.31796237022635
0.45366419354658
1.9075682007606
2.1819656722204
2.1808249937441
2.1728262675836
2.1703566867574
2.1721258615539
2.1760639683429
2.1797712605184
2.1813520902528
2.1797989038399
2.1747225481936
2.1663611378417
2.1552383896589
2.1420197369225
2.1253558308183
2.109780252072
2.0939227633203
2.0778533716456
2.0617132834303
2.0453434102589
2.028286681248
2.0098672100372
1.989411231325
1.9666161914018
1.9418786991809
1.9163858816464
1.8918425156075
1.8698181807632
1.8514304372011
1.8372883181601
1.8271419492152
1.8203464814963
1.8158334963905
1.8126311743473
1.8088775125023
1.8069796838166
1.8055196745649
1.8044686991656
1.8037933320873
1.8034159084742
1.803296317044
1.803414483322
1.8037374911709
1.8045243075539
1.8044911111863
1.804402665852
1.8038548787106
1.8030467759497
1.8018398205125
1.8002243995261
1.7982846128605
1.7959979668938
1.7934173581726
1.79054257786
1.7875151661716
1.7842017451225
1.7806247153515
1.7768084923604
1.7728390562164
1.7687269435472
1.7644635633094
1.7601075111129
1.7555312532152
1.7508680090635
1.7463169040249
1.7419427401226
1.7383032214505
1.735435142624
1.7344441759935
1.7307369754091
627.2039120278
604.64491534619
571.17512558551
528.33456545652
478.67346473573
424.10936738207
367.61395318541
311.76278966138
258.94484676944
210.92138240059
168.80488354344
133.03967656193
104.50825150806
81.763459030922
63.937452075088
50.22856342869
39.716782932668
31.675629354802
25.517247408183
20.769744068897
17.083231852101
14.197714147367
11.914856622049
10.09003424059
8.6187644501523
7.4212153546737
6.4377238631746
5.6227316742742
4.9418784142345
4.3696554953812
3.8836532417516
3.4706731135886
3.1146345382525
2.8083481054166
2.541465642664
2.3094090348716
2.1051491245143
1.9259735956059
1.7669144311808
1.626255643515
1.5003995299239
1.3883493721727
1.2873712551203
1.1968543049085
1.1148462149744
1.0407855519116
0.97342399750234
0.91213333070126
0.85623774337282
0.80506689018832
0.75818792535546
0.7150382502667
0.67534636487388
0.63872053277542
0.60487969072503
0.57353035273299
0.54444394907067
0.51741107276142
0.49224988707374
0.46879593080189
0.44690262433845
0.42643780992108
0.40728352924955
0.38933467154859
0.37249777936446
0.35668854775369
0.34182886074662
0.32784746311871
0.3154970679914
0.76578321398302
2.0641460655992
2.185950740214
2.1785113930338
2.1717666718094
2.1703994422414
2.1728223401502
2.1768153987736
2.1800589055876
2.1808546308478
2.1783608733792
2.1723812608383
2.1632335661919
2.1514883901386
2.137807949203
2.1246249605553
2.1089445339648
2.0930370238775
2.0769470063459
2.0607885641415
2.0443978063307
2.0273127839176
2.0088555053175
1.9883525832441
1.96550652928
1.9407224524394
1.9152006760369
1.8906593101304
1.8686816464261
1.8503847307013
1.8363695287218
1.8263718638688
1.8197280815876
1.8153634901375
1.8123126132011
1.8086941678091
1.8068617224588
1.8054449360445
1.8044158479881
1.8037530011976
1.8033859052993
1.8032710680882
1.803383704237
1.8036851756473
1.8044537749463
1.8043832623531
1.8042886862182
1.8037273791762
1.8029008563838
1.8016668254343
1.8000174405855
1.7980371114581
1.7957015493105
1.7930639072192
1.7901262341621
1.7870271894373
1.7836327876482
1.7799679659727
1.7760574815941
1.7719933880542
1.7677671239247
1.7633657321511
1.7588374948307
1.7540695509533
1.7491899526534
1.7444104086109
1.7398175684405
1.7359726198242
1.7329061518324
1.7316983062894
1.7279437270055
624.4115529934
595.96842208859
555.1907632737
504.11451287332
448.78562047087
391.78289033321
335.57196502362
282.53093750249
234.18201163299
190.80848121457
154.33675588462
123.31569267417
97.806855096938
77.2941299951
61.036337652668
48.314378258752
38.451133802549
30.845313602401
24.965091384623
20.389265806619
16.815892740314
14.008383876094
11.777042363064
9.9884154954125
8.5436795441061
7.3643803176824
6.3933559772738
5.588733850243
4.9153863730705
4.3483759263015
3.8671837566318
3.4562969237816
3.1037209337315
2.7986710378932
2.5341234719008
2.3026690804679
2.1000725131272
1.9212437450636
1.763327659203
1.6228580874001
1.4978297642722
1.3858743309766
1.2854304877308
1.1950242831246
1.1133066848249
1.0394078313615
0.97216487242557
0.91109742731124
0.85522493697415
0.80421670890876
0.75737142970265
0.7143697338529
0.6747352926896
0.63816058920296
0.60435944813836
0.57305323431527
0.54401335735004
0.5170207468008
0.49189442245869
0.46847038756877
0.4466049820234
0.42616554958241
0.40703363953874
0.38910407218078
0.37228437689656
0.356490496912
0.3416455722207
0.32768039062261
0.31542662572853
0.78490370232527
2.0688925489987
2.1860038107858
2.1782470760795
2.1714928596296
2.1701220542779
2.1725295007704
2.1764967423543
2.1797233795606
2.1805177332071
2.1780414905113
2.1720945477129
2.1629883348848
2.1512877043777
2.1376452663319
2.1245105946232
2.1088682590786
2.0929666343592
2.0769135415617
2.0607931831842
2.0444368914515
2.0273892997776
2.008976837697
1.9885260444081
1.9657317743889
1.9409880433662
1.915487443956
1.8909414964353
1.8689305823313
1.8505925056952
1.8365132789059
1.8264817641142
1.8197932122414
1.8153889121484
1.8122870545238
1.8087114824345
1.8068568468253
1.8054363109846
1.8043976142559
1.8037277959184
1.8033607217218
1.803247932897
1.8033517641592
1.8035893894535
1.8043109153509
1.8042297485667
1.8040765740316
1.8034625413844
1.8025680981722
1.8012511176975
1.7995054235343
1.7974154337383
1.7949534236626
1.7921747875846
1.7890921351638
1.7858266030953
1.7822544508841
1.7783945529726
1.774269721275
1.7699718650696
1.765466273591
1.7607299320051
1.7558183946436
1.7506547874625
1.745288652442
1.7400216029666
1.7349809102547
1.7307340454837
1.7273538542608
1.7255598600859
1.721691260004
618.17322064396
576.30829087518
520.57286926637
458.06044714879
396.22570155223
339.18481050424
287.33930316285
241.47291349607
201.07834335866
165.67439441976
136.3730851463
110.89326625889
89.370907186035
71.653339038452
57.264353188177
45.825449078627
36.809332042812
29.736447458128
24.204621599262
19.873611814292
16.459544012625
13.746805340559
11.587631716306
9.8508632657649
8.4392944683251
7.2843314456748
6.3325489271896
5.5408361361609
4.8776398144509
4.3181496781706
3.8431027710949
3.4364787938012
3.0874410577089
2.7853412162712
2.5228928546023
2.293452416125
2.09224876514
1.9147041682377
1.7577561342846
1.6181581132318
1.4938095803055
1.3823705941459
1.2824890622985
1.1923818006237
1.1110883039043
1.0373633615161
0.97045809798334
0.90950657160321
0.85384876852215
0.80295546528753
0.75624571541599
0.7133641249859
0.67383383014853
0.63736251298073
0.60362633229698
0.57238725402171
0.54340391498892
0.51646529761116
0.49138932413113
0.46801160388878
0.44618663376863
0.42578207640684
0.40668174549222
0.38878173231568
0.37198854557033
0.35621696669103
0.3413906870117
0.32744311490529
0.31537211068265
0.81426809731924
2.0754764801486
2.186055743568
2.177835212203
2.1710837229958
2.1697138149795
2.1720990379976
2.1760321750358
2.1792347129228
2.1800278528989
2.1775766970171
2.1716761993465
2.1626291332636
2.1509930842769
2.1374135068954
2.1243559744659
2.1087603486979
2.0928956437279
2.076889257346
2.0608192422796
2.0445138489607
2.0275249671661
2.0091825829024
1.9888122061892
1.9660982820871
1.9414188109218
1.915951285804
1.8913972686071
1.8693514625151
1.8509578874262
1.8368082492185
1.8267115189355
1.819960821087
1.8155119361896
1.8123813727607
1.8087796504488
1.8069092549771
1.8054676208047
1.8044060845639
1.8037174891853
1.8033340754408
1.8031960732324
1.8032824831777
1.8034981893097
1.8041008617176
1.8039718717831
1.8037472945261
1.8030528401808
1.8020511820867
1.8006010063703
1.7986995731867
1.796430267462
1.7937610477488
1.7907507859554
1.7874412810188
1.7838958344403
1.7800269324902
1.7758423654927
1.771367100353
1.7666823414722
1.7617013504757
1.7564263513284
1.7508666192523
1.7450023481341
1.7388873537491
1.7328496409484
1.7270947400868
1.7221694549206
1.7182717474591
1.7161135159636
1.7117614455775
597.29933089157
520.44197570158
438.66575696122
369.12555770961
312.64809284858
266.27427599321
227.73140159423
194.47907542433
165.53032075284
140.11015717579
117.34125220169
97.269176554054
79.904485162717
65.181639776309
52.937893125062
42.909242095481
34.837514542614
28.403487816875
23.290292612937
19.230658338129
16.003658729107
13.429022817889
11.351533054455
9.6733592067577
8.3069244189601
7.184671000052
6.2544539149057
5.4796999115517
4.8295155308867
4.2796810916415
3.8118220468132
3.4114478675854
3.0665476685641
2.7681590674406
2.5084836625774
2.2815705465259
2.0820703371375
1.9062818566306
1.7504965487342
1.6120594271258
1.4884830478076
1.3778904381129
1.2785321270353
1.188978598524
1.1080870998623
1.0347403549528
0.9681496919473
0.90742684456732
0.85203207087522
0.80130032390593
0.75478773531669
0.7120259744893
0.67263922430648
0.63629424136671
0.60266730598294
0.57151615614633
0.5426034581542
0.51573502410923
0.49072443146225
0.4674062549916
0.44563288728868
0.42527499697757
0.40621845591193
0.38835854945141
0.37160059085462
0.35585928223769
0.34105956816929
0.32713122988955
0.31534040021104
0.85397039287075
2.0837077209853
2.1859639769887
2.1772585282494
2.1705333915245
2.1691677752178
2.1715244218412
2.1754150218069
2.1785875666294
2.1793802467833
2.1769623155674
2.1711219686046
2.1621515580146
2.1506001307382
2.1371057580279
2.1241439096975
2.1086120148279
2.0928074261285
2.0768626303285
2.0608581201768
2.0446199488196
2.0277098094091
2.0094630598622
1.9892016818539
1.9665963786879
1.9420044805845
1.916587760992
1.892034860879
1.869947872332
1.851469448809
1.8372173061581
1.8270229262288
1.8201891354391
1.815679726588
1.8125115196672
1.8088823800363
1.8069873807807
1.8055241746578
1.8044381489311
1.8037169925864
1.803303641653
1.8031378389589
1.8031951048595
1.8033598895166
1.803838796639
1.8036467689778
1.8033179970591
1.8024980663277
1.801334681633
1.7996861709305
1.7975520460431
1.7950125598242
1.7920351534947
1.7886845796348
1.7850339634744
1.7810825357431
1.7767730981717
1.772104424032
1.7671028272466
1.7618186714362
1.7561261822044
1.7500411360095
1.7435323533314
1.7366436670595
1.729442647438
1.7223307585099
1.7155275769978
1.709711322242
1.7052227465467
1.7026080213247
1.6976216785478
449.01574759398
325.09252564203
272.8259366617
240.95438181502
214.2017597994
191.54828239176
170.32511952561
150.99141498102
132.42143771249
115.06253875897
98.708213525732
83.753918337331
70.288126367039
58.432111087022
48.262889163135
39.714673235783
32.651026541008
26.891650817793
22.238027157747
18.491640428573
15.475420378418
13.041451508368
11.073701975391
9.4656642776109
8.148525320223
7.0627538686718
6.1619226403548
5.4064484167271
4.7709738537175
4.2330248364401
3.7743604604199
3.3806223821092
3.0413034545553
2.7473599966671
2.4910610140907
2.2669079442338
2.0698780694083
1.8959527493383
1.7416687763196
1.6045366270933
1.4820481134611
1.3723463348397
1.2736717661175
1.1847901082503
1.104396237619
1.0315242481041
0.96526285646711
0.90489716865523
0.84977467587751
0.79928293754895
0.75297617336223
0.71038401477401
0.67117009094332
0.63496369530037
0.60147347131165
0.57043108374447
0.54161665595949
0.5148361915149
0.48990117406902
0.46665105213664
0.44494205307414
0.42464550215683
0.40564367103859
0.38783213657495
0.37111810270724
0.3554173715001
0.34065311153696
0.32675534318748
0.31537302941327
0.90248674872038
2.092755678098
2.1856501019428
2.1765079509221
2.1698343328779
2.1684760160692
2.1707976431393
2.1746383882067
2.1777755084001
2.1785677322526
2.1761909595868
2.170425026861
2.161549072753
2.1501020179807
2.1367134623383
2.1238653550209
2.1084146706153
2.0926903757909
2.0768231886791
2.0609001819433
2.0447471554417
2.0279348025028
2.0098075305293
1.9896834117725
1.9672155881855
1.9427418877475
1.9173880880437
1.8928267964401
1.8706809287322
1.8520995545906
1.8377245541192
1.8274106433579
1.8204780435365
1.8158956374215
1.8126517239959
1.8090054886912
1.807085593549
1.805593735956
1.804475450092
1.8037189035115
1.8032672467745
1.8030612104483
1.8030877262146
1.8031986066227
1.8035300618495
1.8032450137995
1.802782857964
1.801794532027
1.8004129247315
1.7984949434564
1.7960389832324
1.7931188447356
1.789713306654
1.7858891622832
1.7817266078566
1.7771428029513
1.7721930019633
1.7668516628381
1.7611041278987
1.754945909381
1.7482235981049
1.7409621933659
1.7331239094224
1.7248090942605
1.7161305749477
1.7075418698364
1.6993896031253
1.6925283288749
1.6873750721925
1.6843084857646
1.6786097394741
15.293063486654
103.81461765878
127.55258461309
136.5379182836
138.06729845761
134.04216993176
126.29694373667
116.78041741328
106.35140215298
95.463705750852
84.505464865949
73.739690320893
63.494120038966
54.015692125206
45.506560332917
38.083595913664
31.74695830327
26.440501695847
22.055725965099
18.462127337876
15.528535241579
13.136576542005
11.181628601476
9.582441096033
8.262066279696
7.1663649289274
6.2556875843849
5.4929400710299
4.8490267772032
4.3017758065181
3.8357018545478
3.4360824664959
3.0908186219593
2.7912969386168
2.5306156723447
2.3025338236718
2.1018180284117
1.9247252365045
1.7678040572835
1.6281983271072
1.5034809297329
1.3918347186769
1.2914819216316
1.2010403115417
1.119226062697
1.0451208230142
0.97775566223946
0.9163944620271
0.86033484104238
0.80903022238563
0.76198373896619
0.71872884602349
0.67889360676701
0.64212130994201
0.60813697569213
0.57665176603986
0.54742666990497
0.52025549832408
0.494964407625
0.47139447492004
0.44939247151451
0.42882412298705
0.40957087145888
0.39152911842847
0.37460309610696
0.35870519817175
0.34375478498367
0.32968168631776
0.31641920336881
0.5636790423178
1.9917115407066
2.183369964209
2.1780557862541
2.1700890088401
2.1675770166433
2.1691113937786
2.1727366092153
2.1761828994699
2.177643875753
2.1761541532826
2.1713027112557
2.1632689695756
2.152526523244
2.1396892040071
2.1235111485943
2.1081593581512
2.0925344532554
2.0767621893754
2.0609367906479
2.0448877692402
2.0281929580985
2.0102068858682
1.9902467833852
1.9679475758634
1.9436104927606
1.9183292936881
1.8937622396257
1.871549955304
1.852845812129
1.838321884213
1.8278609010897
1.8208066573473
1.8161650934686
1.8129310067212
1.8093343570793
1.8073619957966
1.8058191761071
1.8046383121301
1.8038055371326
1.8032627083659
1.8029810416395
1.8029391543241
1.8029183431151
1.8029471027989
1.8024462084892
1.8017010130505
1.8003538705601
1.7985172652545
1.7960375785002
1.7928944671239
1.7891392335959
1.7848179073968
1.7799682114061
1.7746185209515
1.7687870886551
1.7625235777384
1.7557496792611
1.7483703975897
1.7403071877647
1.7313483026547
1.7214929326569
1.7107627025432
1.6994828447935
1.6878194066651
1.6765689865754
1.6661118585467
1.6575190234247
1.6514322952734
1.6478319007185
1.6410286535864
6.8300472761279
18.245166553234
32.542412550316
44.462914341749
53.524468880212
59.5301841295
62.685035051386
63.489921302984
61.763838915441
58.757140707884
54.775355241509
50.04681641359
44.94194741085
39.72323073561
34.642666865938
29.904659873276
25.628653662364
21.867871362036
18.630363443755
15.883150470441
13.572635793598
11.639557240823
10.024875267283
8.6749602509261
7.545375109207
6.5981088623418
5.7984326842435
5.1191129126994
4.5420642595267
4.0489112709393
3.6253848006706
3.2587423560402
2.9409894341924
2.664221169768
2.4220303029309
2.2087793340508
2.0207454978727
1.8542720288769
1.7063049772224
1.574153522386
1.4558537641166
1.3496642568676
1.2540377858845
1.1676068971422
1.0893219252976
1.0182526919284
0.9535690192792
0.89452499102784
0.84051065907086
0.79101808093271
0.74556269191805
0.70373311343844
0.66514556173619
0.62950153680457
0.59651613116666
0.56593987593331
0.53754240508766
0.51111872940055
0.48650313330135
0.4635399968232
0.44209176756498
0.42203078090634
0.40324384929007
0.38563103158438
0.3690997175662
0.35356378240636
0.33894311893573
0.32516912918598
0.31584761569886
1.1011827771716
2.1211494940289
2.1831251223419
2.1731845763424
2.1667657908855
2.1654290768372
2.1676133201024
2.1712648292527
2.1742706158091
2.175070581337
2.1728616020307
2.1673952644039
2.1589004994986
2.1478767104939
2.1349211342028
2.1225326387834
2.1074393386417
2.0920662258425
2.0765400767888
2.0609601341961
2.0451757999651
2.0287784486036
2.0111413532238
1.991581799444
1.9696937744644
1.9456996190022
1.9206101489978
1.8960381063898
1.8736652524528
1.8546592728692
1.8397649673732
1.8289336306277
1.8215578382417
1.8166930134303
1.8133372078456
1.8097208172118
1.8076703728542
1.8060630853867
1.8048023150648
1.8038712714197
1.8032221569099
1.8028309527742
1.8026295576415
1.8024027155797
1.8020254013478
1.8011325262483
1.7998212279226
1.797748081194
1.7949428282456
1.7912368814555
1.786570304657
1.7809369962041
1.7744591285956
1.7672338625877
1.7592648444931
1.7505758623149
1.741220568764
1.7309680433845
1.7194746391598
1.706530699989
1.6920388765396
1.6760866372878
1.658974852151
1.6413765632137
1.623907817409
1.6076178808611
1.5935141545595
1.5828711014353
1.5761575442925
1.5724491609143
1.5646635613478
5.4399849951621
8.0338880517949
12.987569861927
18.982793235655
24.625781390785
29.425120383818
33.167674125518
35.732802417317
37.192820443024
37.406032674144
36.533060181108
34.914021971109
32.650217471216
29.960837616681
27.05342915469
24.093336895202
21.231296917388
18.567329186744
16.1599327731
14.031188773808
12.178990461949
10.584319835569
9.2203068483069
8.057248742264
7.066262469492
6.2219412273486
5.501019604503
4.8838514764203
4.3539318614788
3.8962857868885
3.5001282018446
3.1562658679932
2.8563719695671
2.5940695692805
2.362984837652
2.1591106515438
1.9787314773203
1.8185577754854
1.6756351554715
1.5477254007361
1.4330808378556
1.3299377672476
1.2368431261704
1.1525321286801
1.0761095719134
1.0066173600003
0.94328191316581
0.88538422217388
0.83236540574156
0.78373998030333
0.73903925987592
0.69785573876296
0.65983273387652
0.62468938814793
0.59214746862335
0.56196332497586
0.53391458215224
0.50781091781494
0.48348860321519
0.46078772255294
0.43956948057432
0.41971312662296
0.40110985734026
0.38366462404516
0.36728668011161
0.35189244725023
0.33740115016532
0.32374997053732
0.31879085727513
1.2890930272147
2.1397721761981
2.180468788052
2.1701311464736
2.1638556275648
2.1624998838349
2.1645497459711
2.1680390499025
2.1709395763008
2.1717534050939
2.1696922588984
2.1644850839318
2.156321935744
2.1456672453005
2.133090220561
2.1211091007093
2.1063571772232
2.0912981252133
2.076092932098
2.0608293465244
2.0453815348869
2.0293683521634
2.0121806415037
1.9931267250754
1.9717550313512
1.9481954749088
1.9233624195308
1.8988071883445
1.8762368288654
1.8568732644979
1.8415130161588
1.8302054641266
1.8224057564229
1.8172342085982
1.8137059695219
1.8099803551657
1.8078683017401
1.8061991805809
1.8048655652969
1.8038433848444
1.8030842061064
1.8025852163006
1.8022012953178
1.8017304682142
1.8009051124414
1.7994604878492
1.7973226827187
1.7941138517347
1.789696327375
1.7838645352191
1.77654201977
1.7677239463548
1.7576263312235
1.7461942812815
1.7335850120008
1.7198781214384
1.7047537591311
1.6879053954425
1.6687447948743
1.6469680574568
1.6229438965337
1.5971903165273
1.5707746950985
1.5450277017326
1.5212690594613
1.500865194513
1.484954110071
1.4745027922432
1.4690338407412
1.4664771035748
1.4582620972986
4.3481159016792
5.6977982672661
7.2132178471238
10.196246019948
13.521894758352
16.694491213477
19.527841839917
21.850090244423
23.581406092859
24.662193194999
25.039227660028
24.681369285448
23.854344618383
22.597322412689
21.009232276043
19.243020126418
17.399235961447
15.574283706949
13.839846641984
12.239924665705
10.79682127122
9.5155112136062
8.3899536849371
7.4085126205526
6.5562307485739
5.8176849311642
5.1784336228549
4.6245066257755
4.1435919055316
3.7251769588358
3.3602792640471
3.0410218659701
2.7604861978995
2.5133472614049
2.2952331853147
2.1020678776148
1.9304188728625
1.7770033482978
1.6398596868381
1.5169657655378
1.4064545745885
1.3068024123005
1.2165417421065
1.1348045374324
1.0605284856807
0.99289421082718
0.93110260364627
0.87453870685256
0.82271745956296
0.7751090379627
0.73129765806962
0.69086434489037
0.65351756341747
0.6189727560139
0.58695950946522
0.55724348163417
0.52960698739494
0.50388056302903
0.47989830958969
0.45750559941598
0.43656616217786
0.41695512441684
0.39857021575782
0.38132080546989
0.36511608301348
0.34987786730045
0.33553109962974
0.32196574828375
0.33014422535182
1.5000453491904
2.1554570263477
2.177107069187
2.1663806312047
2.1601752192081
2.1587520067439
2.1606271319969
2.1639261420488
2.1667094533456
2.167543580234
2.1656564386148
2.1607523273136
2.1529783360024
2.1427596779079
2.1306309965871
2.1191318511205
2.1048120009853
2.090129737806
2.0753192738894
2.0604478824446
2.0454105509717
2.0298565454676
2.0132065675822
1.9947634062846
1.9740237373214
1.9510202996525
1.9265355238908
1.9020413455649
1.8792457570603
1.859489562309
1.8435771242109
1.8316888078626
1.8233616843349
1.8177824930341
1.8140050104993
1.8101138781319
1.8079605716826
1.8062309162582
1.8048304689156
1.8037229668907
1.8028822102412
1.8022770434648
1.8017042581333
1.8009383148259
1.7996097211159
1.7974048117938
1.7940592448603
1.7890706363724
1.7821878474725
1.7730423539576
1.761429472357
1.747351649467
1.7309057451368
1.7121578858827
1.6913934334374
1.6685252493355
1.6433479260508
1.6151236039374
1.5833320442699
1.5482527991101
1.511212169754
1.474228059452
1.4394761999139
1.408601709616
1.3828825136474
1.3633542739581
1.3503626729622
1.3435747931945
1.3413338771206
1.3402768252959
1.3325722425718
3.5393178753872
4.6556726554334
5.0508060795179
6.433153948304
8.4106757293133
10.490498402811
12.491478657754
14.291678637528
15.785988828456
16.898846768516
17.638570686313
17.906510356809
17.686995826991
17.187182579907
16.413484110956
15.389851731232
14.226347627204
13.001604243981
11.777661880848
10.597656485092
9.4938072122098
8.4830365434036
7.5713880544267
6.7578145393216
6.0368869486056
5.4010240477139
4.8419511255164
4.3512274332301
3.9204266147974
3.5418173799685
3.2085634026802
2.9146714255835
2.6549721652695
2.4249725151929
2.2205833000272
2.0384049037853
1.8758614704714
1.7303820012254
1.5998317654021
1.4824249483462
1.3763164938992
1.2804027228143
1.1935462962161
1.1146253694169
1.0428031340471
0.97714907639035
0.91710513439938
0.86212009703474
0.81162859738025
0.76519548524296
0.72235129721067
0.68280843885775
0.64625303525762
0.61239736606083
0.58099445388694
0.55180348628198
0.5246527046786
0.49936379983066
0.47576804925757
0.4537234367437
0.43309110410799
0.41376450301946
0.39564253821814
0.37862422575331
0.36262783978645
0.3475759190291
0.33339528589034
0.32000201832121
0.35990747799815
1.7090802732337
2.1656119100159
2.1728187546308
2.161804108614
2.1556164614056
2.1540855173849
2.1557509578729
2.1588385733343
2.1614973800387
2.1623588258401
2.1606689417373
2.1561050560721
2.1487757524336
2.1390569687349
2.127446464669
2.1164966234133
2.1026986148852
2.0884562701543
2.0741183599447
2.0597139344468
2.0451643986362
2.0301442814806
2.0141109448942
1.9963721569792
1.9763689497202
1.9540313735673
1.9300005603258
1.9056351276661
1.8826288478019
1.8624420463375
1.8459040307611
1.8333327710705
1.8243740444454
1.8182882253129
1.8141811642658
1.8100423972615
1.8078371956508
1.8060502668443
1.8045851093919
1.8034147836356
1.8025360466662
1.8018329901915
1.8011072250436
1.8000594553329
1.7982019921228
1.7950326810084
1.7900487522497
1.7825557234578
1.7720449006467
1.757917828866
1.739549826964
1.7168217978397
1.6897795705051
1.6588918801313
1.6248841833742
1.5881208796305
1.5479049413843
1.5036772368092
1.4560845644951
1.4075153650499
1.3611597071002
1.3196985638492
1.2847613161384
1.2570156997281
1.2366340240868
1.2234020409102
1.2164724736373
1.2141831101182
1.2146471503399
1.2140129870571
1.2077230488257
2.9170442041501
3.9317531179748
4.0820435136758
4.61422075141
5.7556527696094
7.134515389306
8.544330061103
9.8912546497549
11.074297294786
12.061646327404
12.789698083921
13.235827631786
13.405541780119
13.293726557436
12.90133580389
12.352348463545
11.646112791078
10.844905232137
9.9947594051693
9.1387402806035
8.3067065713371
7.5206091589001
6.7920537678023
6.1262122045927
5.5242886219801
4.9840338430463
4.5012701760936
4.0714492738117
3.6895861431138
3.3504207047607
3.0490654485065
2.781107493294
2.5425532213652
2.3298205300603
2.1397062918181
1.9695217976025
1.8168867824585
1.6795900167369
1.5557747266157
1.4440544368795
1.3429974781828
1.2513960062019
1.1681715548378
1.0922193453233
1.0228974821298
0.95954792294991
0.90149929063805
0.84824037274193
0.79920086316223
0.75399132672224
0.71230718403759
0.67376775627271
0.63809981059274
0.60500952646776
0.57426049424076
0.54568980424208
0.519086699245