/*--------------------------------*- C++ -*----------------------------------*\
| =========                 |                                                 |
| \\      /  F ield         | OpenFOAM: The Open Source CFD Toolbox           |
|  \\    /   O peration     | Version:  2312                                  |
|   \\  /    A nd           | Website:  www.openfoam.com                      |
|    \\/     M anipulation  |                                                 |
\*---------------------------------------------------------------------------*/
FoamFile
{
    version     2.0;
    format      ascii;
    arch        "LSB;label=32;scalar=64";
    class       volScalarField;
    location    "0.00016";
    object      rhoHat;
}
// * * * * * * * * * * * * * * * * * * * * * * * * * * * * * * * * * * * * * //

dimensions      [1 -3 0 0 0 0 0];

internalField   nonuniform List<scalar> 
109340
(
661.22300885182
661.21818716232
661.20896398075
661.19771183823
661.18516474849
661.17195303123
661.15831878855
661.1443543707
661.13005800226
661.11479624435
661.09747218812
661.07687407839
661.05152396201
661.0196328821
660.97907139959
660.92732200373
660.86139247123
660.77770199153
660.67191464086
660.53871552775
660.37149295948
660.16194662411
659.89955006912
659.5708246809
659.15830852971
658.63910885272
657.98276727281
657.14802768597
656.07772860619
654.69035192302
652.86529370112
650.41555483222
647.03376797268
642.17959990187
634.83355360581
622.93385118644
661.22372778844
661.2175400995
661.20718170166
661.19515055439
661.18221277066
661.16892398733
661.15544408162
661.14171424917
661.12734735152
661.11166951716
661.09367962891
661.07210919078
661.0454002956
661.01167847484
660.96871938071
660.91388774004
660.84406144335
660.75549138757
660.64362279837
660.50285142762
660.32619102843
660.10484718983
659.82764013458
659.48021693591
659.04393184858
658.49425671828
657.79842790729
656.91184347937
655.77230658285
654.2903796015
652.33227727523
649.68741379281
646.00181741571
640.63285004734
632.29476026289
618.24477634277
661.22640703413
661.21925970548
661.20786936284
661.195558242
661.1827329333
661.16963767698
661.1562360525
661.14248374478
661.12810353054
661.11243698503
661.09449632165
661.07300757596
661.04640593495
661.01281241702
660.97000117661
660.91534205314
660.84571251516
660.75736777138
660.64575649963
660.50527990996
660.32895292567
660.10798178531
659.8311872133
659.48421284649
659.04840879087
658.49923788124
657.80392397878
656.91785219666
655.7788183139
654.29736812547
652.33964129623
649.69454428677
646.00427058666
640.60512350383
632.10738343727
617.1969615308
661.23012672069
661.22153560228
661.20959087458
661.19694928749
661.18388954471
661.17053177117
661.15691434837
661.14302228398
661.12857159883
661.11290131705
661.09502397114
661.07365866963
661.04723115423
661.01385424938
660.97129220183
660.91690367822
660.84755556405
660.75949012942
660.64813481103
660.50786753039
660.33165266696
660.11063210175
659.83353300984
659.48586168321
659.04878135085
658.49748215625
657.79880285347
656.90757967249
655.76081942093
654.26789598031
652.29310020348
649.62213296572
645.88797588639
640.39213407609
631.5767502873
615.06494668201
661.23597002194
661.22484740036
661.2111867483
661.19769543866
661.18428688742
661.17080174215
661.15714505805
661.14327896973
661.12890360493
661.11335238308
661.09564404952
661.07448774095
661.04828241331
661.01509972053
660.9726425149
660.91818047657
660.84845820632
660.75955218016
660.64660093672
660.50369794654
660.32331284726
660.09594208789
659.80942093235
659.44799950299
658.99112308177
658.41156801196
657.6728023861
656.72491343663
655.49813485226
653.89197951771
651.75572661934
648.85240702831
644.77211033999
638.71988468036
628.8074063726
608.48997174298
661.24678923418
661.22656622923
661.21149591974
661.19769166687
661.18423438917
661.17074647961
661.15709402
661.14315080543
661.12844297008
661.11202898823
661.09254798894
661.06820915877
661.03677598304
660.99552272484
660.94116070885
660.86972798391
660.77643293345
660.65548511165
660.49994332255
660.30019152442
660.04434364782
659.71712602628
659.29873895165
658.76333658186
658.07692755059
657.19437145427
656.05503359275
654.57618543598
652.64260695616
650.08916297165
646.6689456532
642.00030655228
635.42063470706
625.65069147232
609.58303491531
574.43487938287
602.70805853639
569.53199427115
520.41848015529
457.25688835847
385.83024547597
311.81372928696
240.73486732083
177.12545025527
124.10309434784
82.982429271894
52.618331811916
32.835748219173
19.954719247395
11.986557144035
7.2255099951752
4.3891906502
2.7083252038341
1.7015805371275
1.0901335514545
0.71444082952482
0.47919259554291
0.3280452905068
0.22909347402477
0.16312834512584
0.11817012804969
0.087214305183585
0.065404567711064
0.049329455261569
0.038209533368506
0.029556776612244
0.023355745403473
0.018556175622014
0.014881816549603
0.012084862268178
0.009839620550379
0.008127972324981
0.0067171641072097
0.0056233912050034
0.0047144616669974
0.003989071076421
0.0033914195647708
0.0028926748557869
0.0024907701867884
0.0021398958203156
0.0018620424558788
0.0016122512210111
0.0014145513967916
0.0012359267935305
0.0010905602009419
0.00096283781121753
0.00085242148290077
0.00075743712265308
0.00067487487756779
0.00060309772408162
0.00054035259197915
0.00048535489934221
0.00043696605602339
0.00039429798439339
0.00035657636021869
0.00032314821736795
0.00029344331848286
0.00026698183961787
0.0002433569689439
0.00022222310239517
0.00020327962016864
0.00018626528899063
0.0001709537394497
0.00015714631223351
0.00014454607403652
0.00029387239361195
0.0051877031108827
0.0067809521228965
0.0067670527723771
0.0067110928757832
0.0066898407952727
0.0066951092853098
0.0067141069030643
0.0067320116441132
0.0067370448456794
0.0067229244714113
0.0066872740751589
0.0066316876078094
0.0065595778604743
0.0064752285587586
0.0063702770357592
0.006273185846577
0.0061752301629276
0.006076833052159
0.0059787947341996
0.0058801235413104
0.0057781049120638
0.0056688617862384
0.0055487140717014
0.0054163284827944
0.005274468486232
0.0051302227974201
0.0049931701886043
0.0048716876196842
0.0047713485100178
0.0046948485515723
0.0046404158054203
0.0046042986568409
0.0045806337643124
0.0045641327415105
0.00454514880371
0.0045356559165297
0.0045284092198343
0.0045232328483376
0.0045199393564017
0.0045181283657896
0.0045175912488076
0.0045182199385694
0.0045198512530664
0.004523774059632
0.0045235662371439
0.0045230293496172
0.0045201604548768
0.0045159413015108
0.0045096918555148
0.0045013639729967
0.0044913866584644
0.0044796563107146
0.0044664438437461
0.0044517572548841
0.0044363073315674
0.0044194363867767
0.0044012572509549
0.0043818891617255
0.0043617524934543
0.0043408988128935
0.0043192839854431
0.0042971991134166
0.0042740265993433
0.0042504388646429
0.0042274320888629
0.0042053592449209
0.0041869831940156
0.0041725482297996
0.0041674148436128
0.0041494888549884
592.99738511099
551.04052646104
491.59827897812
420.45189461198
344.94562952453
270.6079844836
203.15029354775
145.9708004353
100.58823788559
66.653267717423
42.632066057226
26.438743906766
16.287741351477
9.9522446054107
6.0749104418618
3.7424712208658
2.3358272161363
1.483203810555
0.96095398202698
0.63564020389829
0.42937625679541
0.29615317982441
0.20829136006375
0.14918526212629
0.10872015785614
0.080514107204448
0.060521775285204
0.046122661414538
0.035593058365248
0.02780276409388
0.021942657750994
0.017509354415401
0.01409026398255
0.011446298404302
0.0093676447864603
0.0077294156349059
0.0064185251567466
0.0053688322871162
0.0045160039817027
0.0038232740696555
0.0032525891560637
0.002783373449907
0.0023919353924227
0.0020663594186709
0.0017919645903512
0.0015610889651518
0.0013648853734874
0.0011979255979905
0.0010551164171307
0.00093239585669624
0.00082661937823036
0.00073492093711414
0.00065534032218184
0.00058596402492173
0.00052532547960404
0.00047211465115971
0.00042529484396958
0.00038397915373445
0.0003474273481644
0.00031500699770276
0.00028618150838522
0.00026049142782186
0.00023754458694242
0.00021700513201739
0.00019858506667642
0.00018203532691252
0.00016713814002911
0.00015370391913222
0.00014230266279047
0.00083665777023478
0.006072948590381
0.006803978163143
0.0067510130102244
0.0067029679608703
0.0066886220237081
0.0066980130536116
0.0067174385383506
0.0067325544440009
0.0067327920965434
0.0067129252024722
0.0066717841314099
0.006611477919066
0.0065357124409253
0.0064487444092314
0.0063658876024366
0.0062682108981793
0.0061700035035268
0.0060715316613615
0.0059734349374883
0.005874693594107
0.0057725675983202
0.005663171443774
0.0055428312732411
0.0054102446931592
0.00526822065009
0.0051239133857812
0.0049869613411282
0.0048658003756683
0.004765989942163
0.0046901785916114
0.0046365235885109
0.0046011834555104
0.0045782705582482
0.0045625332296482
0.0045442301976062
0.0045350656100347
0.0045280356546522
0.0045229689085333
0.0045197377050119
0.0045179777415649
0.0045174635833896
0.0045180635955901
0.0045195861285423
0.0045234145658199
0.0045230140541741
0.0045224411014653
0.0045194967275506
0.0045151763205074
0.0045087802245323
0.0045002696710377
0.0044900758983784
0.0044780868759573
0.0044645750040491
0.0044495593965037
0.0044337370096867
0.0044164472538963
0.0043978154575823
0.0043779616862887
0.00435733585742
0.0043358961529776
0.004313577013912
0.0042906214369356
0.0042664840822326
0.0042418154401114
0.0042176750180907
0.0041945255638691
0.0041751476900294
0.0041597611600419
0.004153588696314
0.0041354806147742
587.73830302628
535.33202707242
464.42581796879
382.72630937912
303.13110160646
230.8435669944
169.20571459407
119.82140894223
82.225872764631
54.51787731453
35.617801060285
22.704076268402
14.259431022825
8.8903971278276
5.5342441650392
3.4616338188259
2.1887772662313
1.4061677066052
0.9196523626103
0.61247305759727
0.41599005883753
0.28827633739414
0.20348211295496
0.1461837568489
0.10682613635121
0.079281334183382
0.059687984803376
0.045563164846286
0.035212146022246
0.027530957136434
0.021756560081523
0.017364015803517
0.013991316059303
0.011367384865797
0.0093133065627411
0.0076842983939569
0.0063874315889163
0.0053424404145916
0.0044976039061357
0.0038072564531155
0.0032414413064623
0.0027734062157556
0.0023847548119982
0.0020600050193482
0.0017870608259232
0.0015569204630961
0.0013613780922078
0.0011951726774678
0.0010526242105079
0.00093041733205124
0.00082483985671888
0.00073354620120969
0.00065415104764499
0.00058493700202655
0.00052442069920355
0.0004713289754652
0.00042462167253421
0.0003833995780177
0.00034692528308056
0.00031456926670992
0.00028580007883683
0.00026015861025269
0.0002372529172146
0.00021674790951182
0.00019835737360413
0.00018183303006186
0.00016695876505068
0.0001535471270766
0.00014223863913859
0.00087894489440221
0.0061008319376707
0.0068042326152935
0.0067493080770351
0.0067012166942981
0.0066868553900852
0.006696154477642
0.0067154224638113
0.0067304367371466
0.0067306707327308
0.0067109197555673
0.006669990110117
0.0066099500180932
0.0065344683224566
0.0064477422410807
0.0063651888564054
0.0062677501974329
0.0061695852711119
0.0060713375470409
0.0059734708781871
0.0058749358035928
0.0057730308277266
0.0056638945917773
0.0055438502195326
0.0054115490886926
0.0052697371912478
0.0051255287090572
0.0049885316261207
0.0048671742139672
0.0047671288522333
0.0046909699193878
0.0046371242058969
0.0046015418143754
0.0045784170779586
0.0045624160226867
0.0045443242409064
0.0045350461343616
0.0045279961127027
0.0045228799567079
0.0045196128264378
0.0045178511923196
0.004517345185689
0.0045178983024092
0.0045190986297505
0.0045226853745657
0.0045222179194764
0.0045213404654338
0.0045181142840403
0.0045134330705965
0.004506597196033
0.004497577088425
0.004486805130292
0.0044741530405081
0.0044599048619274
0.0044441320755657
0.0044274470486718
0.004409238397173
0.0043896014846114
0.0043686466072943
0.0043468211326696
0.0043239557874337
0.0042999354402287
0.0042750442869011
0.0042489156727321
0.0042218242150229
0.0041952725374834
0.0041699251629088
0.0041485951711857
0.0041317116223081
0.004122758292908
0.0041041954916328
576.06693177204
500.56321243843
408.22589060245
315.87585161482
236.16326948809
172.90715830599
123.96747891081
87.456047195336
60.572554806339
41.068201354704
27.788064785018
18.347558668614
11.898424896103
7.636104138762
4.8691276392894
3.1129467870224
2.0051970992187
1.306518223474
0.86427178255623
0.58176872532859
0.39847800314288
0.27757001442901
0.19696481465689
0.14216992797253
0.10422167030037
0.077560325389148
0.058554124990949
0.044782653472708
0.034671040962947
0.027148535815775
0.021485041013189
0.01716504433612
0.013844171727992
0.011259143355391
0.0092305152625749
0.0076227982789918
0.0063396799443352
0.0053060868097818
0.004469066936488
0.0037852200272914
0.0032239593439822
0.0027593931361032
0.0023737860840665
0.0020508929192602
0.0017799090107298
0.0015507859680117
0.0013565885958242
0.0011909864686779
0.0010492377443684
0.00092748706960055
0.00082238709387661
0.00073147413493047
0.00065240154465129
0.00058347126591762
0.00052314634667683
0.00047023208481312
0.00042366889710699
0.00038257477694825
0.00034621183971228
0.00031395233670162
0.00028526392425049
0.00025968981418506
0.00023684216319864
0.00021638833293991
0.00019804171249888
0.00018155361829125
0.00016670930483897
0.00015332446357536
0.00014218872988886
0.00094591832112922
0.0061396202157975
0.0068044497668578
0.0067466595664789
0.0066986032494358
0.0066842572817345
0.0066934241826329
0.0067124846068385
0.0067273539195711
0.0067275873680499
0.0067080023740775
0.0066673734370943
0.0066077129849624
0.0065326426616714
0.0064463143293567
0.0063642407053202
0.0062670948247519
0.0061691608988421
0.0060711981191988
0.00597363536163
0.0058754043215905
0.005773844576348
0.0056651134866263
0.005545524319349
0.0054136651183689
0.0052721902789141
0.0051281346244914
0.0049910613916078
0.0048694849462685
0.004769116698611
0.0046925639138611
0.0046383567966801
0.0046024349658005
0.00457906690758
0.0045629094688422
0.0045446785041667
0.0045353176269227
0.0045281594658757
0.004522927138048
0.0045195638991808
0.0045177179897342
0.0045170819341422
0.0045175436912799
0.0045186289187829
0.0045216108759176
0.0045208864653508
0.0045196318957943
0.0045159757523707
0.004510725117872
0.0045031841464875
0.0044933417099906
0.0044816266175849
0.0044678900969031
0.0044524345478429
0.0044354777954994
0.0044173466166153
0.0043976092752431
0.0043763053120913
0.0043535548181299
0.0043297511310891
0.0043044707859143
0.0042777255140996
0.004249580232442
0.0042199560838194
0.0041891576720536
0.004158823487932
0.0041300047403798
0.0041054175966728
0.0040860961183133
0.0040754671524827
0.0040547589979907
537.82382682818
408.09781982965
289.69274276907
204.94097128394
146.88472663256
106.44117969635
77.778067106463
56.662745076405
41.003162748009
29.341402466115
20.553572667971
14.104075693
9.5040738620469
6.3148404058676
4.1588039058821
2.728040625868
1.7953866577061
1.1915968576354
0.79997474664782
0.54459946566091
0.37662970031813
0.26483638738057
0.18899040166218
0.13707375304872
0.10096589722714
0.075444563392612
0.057113411145696
0.043796528342197
0.033987543836447
0.026665305880579
0.021135461576826
0.016914964416938
0.013656823429236
0.011120108981548
0.0091250611503799
0.0075437011479518
0.0062779704512428
0.0052593213259688
0.0044321155671498
0.0037566357366277
0.0032009309085905
0.0027414796927963
0.0023591018887086
0.0020391751014388
0.0017702622573323
0.0015429389310737
0.0013501110934593
0.00118553472438
0.001044758558941
0.00092365699749242
0.00081920935187962
0.00072872359646592
0.00065008476245287
0.00058151048645461
0.00052148138688135
0.00046879795561572
0.00042241854244129
0.00038149097866791
0.00034527326391443
0.00031313874405797
0.00028455460488935
0.00025907019727944
0.00023630160990257
0.00021591644956742
0.00019762790692329
0.000181188369692
0.00016638533205987
0.00015303185188498
0.00014215905160453
0.0010403829999683
0.0061883037287886
0.0068037425916461
0.0067429609107452
0.0066950919626989
0.006680785594785
0.0066897829220629
0.0067085848032669
0.0067232739023941
0.0067235136019042
0.0067041482018104
0.0066639087504505
0.0066047404000682
0.0065302090468626
0.0064444191071718
0.0063629408823496
0.0062661938693593
0.0061686323843917
0.006071045739751
0.0059738781831356
0.0058760483989038
0.0057749523275108
0.0056667735975906
0.0055478009884355
0.0054165388304797
0.0052755234623652
0.0051317067960703
0.0049945935630167
0.0048727512334295
0.004771894738671
0.0046947717274908
0.004640027874222
0.0046036518365515
0.0045799532884045
0.0045635899161149
0.0045452103707238
0.0045357208070498
0.0045284513536219
0.0045230940209235
0.0045195658182946
0.0045175664802601
0.0045167866601288
0.0045170976816093
0.0045179191669045
0.0045202663998531
0.0045192038586939
0.004517399871347
0.0045130778385578
0.0045069722107338
0.0044983852315266
0.0044873187900349
0.0044741882664454
0.004458843437104
0.004441618481337
0.0044228894307625
0.0044026653120481
0.0043806669235145
0.0043568880888247
0.0043314536447936
0.0043046045186508
0.0042757297973421
0.0042449148230665
0.0042120396077283
0.0041773501071589
0.0041412320895882
0.0041056887728714
0.004071851729436
0.0040430595589835
0.0040210234461986
0.0040083506432638
0.0039848978675598
303.77497391998
158.99059319353
111.85714853168
87.169796806833
68.825952584886
54.989282140517
43.439719542634
34.105303880597
26.205642592863
19.764043600605
14.528104011987
10.44651705314
7.3476636266726
5.0708553551692
3.4544082934159
2.3356338348706
1.5763289271233
1.0676833721005
0.72906697288598
0.50339619056494
0.35208628761496
0.24971589884705
0.17981864773964
0.13122914769288
0.097138154967299
0.072896763212618
0.055429765742731
0.042629218179204
0.033165739874767
0.026084909945429
0.020720732790884
0.016609509118071
0.013432190248817
0.010952991776529
0.0089983593586429
0.0074466920274867
0.0062044412445008
0.0052022585200364
0.004387397761618
0.0037215169781468
0.0031732372217006
0.0027193732598387
0.0023411490732548
0.0020247779742366
0.0017584525933947
0.0015333299011737
0.0013420431432497
0.0011789154566377
0.001039208175252
0.00091900011564905
0.00081526667310305
0.00072535733715884
0.00064723865733585
0.00057907376622868
0.00051941146937762
0.00046701407675165
0.00042087926461043
0.00038015856216145
0.00034411253514688
0.00031212486367471
0.00028367063176565
0.00025830173593755
0.00023563157720324
0.00021532996413698
0.00019711369176861
0.00018073745788066
0.00016598793558004
0.00015267944244796
0.0001421869779798
0.0011619655114024
0.0062420305924937
0.0068016194557146
0.00673815735483
0.006690637137885
0.0066763925660362
0.0066851825157568
0.0067036818338346
0.006718158185826
0.0067184062694787
0.0066993125908472
0.0066595546934898
0.0066009926386594
0.0065271261377355
0.0064420049440113
0.0063612352457025
0.006264996511447
0.0061679311545597
0.0060708189682579
0.0059741432671974
0.0058768215824783
0.0057763013791816
0.0056688139220773
0.0055506182236593
0.0054201124450577
0.0052797196698018
0.0051361994153563
0.0049989845885119
0.0048767713966431
0.0047753210028805
0.0046975126424986
0.0046421108738954
0.0046051923471764
0.0045810935007893
0.0045643278699401
0.0045458491571593
0.0045362285611175
0.0045288117467455
0.0045232898588261
0.004519580964836
0.0045173861266872
0.004516399275855
0.0045165500533269
0.0045170893628532
0.0045186788825848
0.0045171225397771
0.0045146138961778
0.0045093999541139
0.0045021423508875
0.0044921366541957
0.0044793817334421
0.0044642632545102
0.0044466894111772
0.0044270089972036
0.0044056366267706
0.0043821780663817
0.0043569119490274
0.0043297101120481
0.0043004944314986
0.0042692370180879
0.0042352029386243
0.0041985363104411
0.004159106458888
0.0041174565408335
0.0040742131117808
0.004031640334063
0.0039914859006192
0.0039578966196356
0.0039329220015265
0.0039183346762441
0.0038919335610792
0.34866797832196
16.150107315959
24.375479684586
27.919156704763
28.533705086211
26.877836712674
23.845116850515
20.371509550393
16.881278478458
13.58929750973
10.637842984233
8.0911658807542
5.9918854113941
4.33101379884
3.0698824315512
2.1471036948664
1.4899536122596
1.0320395714164
0.7171231628851
0.5017874975171
0.35451869271164
0.25338730204088
0.18335546225233
0.13449972388345
0.099874697363186
0.075059854846041
0.057136389012499
0.04400947504958
0.03426409781549
0.026942480396348
0.021402370802397
0.017161074721213
0.013874805551622
0.011307495642512
0.0092874779602008
0.0076834873799343
0.0063981161247093
0.0053619516886785
0.0045205467081475
0.0038324929588538
0.0032660203311332
0.0027974359481162
0.0024073209467046
0.0020808982317113
0.0018061681349639
0.0015741598920245
0.0013771323347624
0.0012091684055224
0.0010652890175999
0.00094163040451523
0.00083495665773248
0.00074255896079245
0.00066227205111369
0.00059224840408212
0.00053102381244818
0.00047729073208846
0.0004299886365785
0.00038823152030887
0.00035128673949036
0.00031852422181283
0.0002893930530356
0.00026342754713271
0.00024023163361092
0.00021946865389488
0.00020084555896138
0.00018410804561608
0.0001690345454467
0.00015543561362652
0.00014314314306269
0.00045347950508734
0.0056550187196163
0.0067889445676701
0.0067491921416729
0.0066935646003805
0.0066721304599446
0.0066759945310979
0.0066930853134224
0.0067094012767988
0.0067137364913958
0.0067000798416386
0.006665917481036
0.0066124678617108
0.0065428184064196
0.0064609248890508
0.0063590688947381
0.0062634497069118
0.0061669980102153
0.0060704666191578
0.0059743805018124
0.0058776794921833
0.0057778510855
0.0056711818251247
0.0055539162899965
0.0054243399678917
0.0052846680411487
0.0051414897686559
0.0050041777390064
0.0048815428565474
0.0047793845403483
0.0047007463290225
0.0046445370267962
0.0046069520691678
0.0045825163002646
0.0045657744107643
0.0045475416191185
0.0045376452630401
0.0045299652050232
0.0045241240837939
0.0045200273946753
0.0045173678763764
0.0045159914694335
0.0045157879000175
0.0045156440728744
0.0045156817008078
0.0045129914824156
0.0045089937463731
0.0045018895407727
0.0044922402827683
0.0044792902617379
0.0044629496193342
0.0044434965676718
0.004421181635357
0.0043962190415221
0.0043687795552001
0.0043389737795791
0.004307053758829
0.0042726324421505
0.0042352401879144
0.0041945005258894
0.004149430228281
0.0041000977847041
0.0040467150148487
0.003990952961846
0.0039337345612693
0.0038789361172233
0.0038284471833763
0.0037873240283448
0.003758569685328
0.0037420165385604
0.0037114081022682
0.068821504280042
0.49485849389448
1.5757730331791
2.943051847418
4.2657533771495
5.2767228483008
5.8496563458225
5.9985831476672
5.6739692764721
5.1317611245867
4.4564739029284
3.7171250330899
2.9946631706894
2.3371405639028
1.7755648216899
1.3215467422047
0.96945837798095
0.70494126771991
0.51102473199619
0.37096789087375
0.27056093792338
0.19874502631342
0.14725962110604
0.11014915528433
0.083242780738675
0.063588787349231
0.049061263838058
0.038203333858879
0.030048963439554
0.023857622980771
0.019111834978552
0.015429547045488
0.0125577595781
0.01029797659202
0.008504886432088
0.0070684550798581
0.005912404342729
0.0049753104074692
0.0042104457542054
0.0035814622700379
0.0030616865187363
0.0026299357257293
0.0022692905428616
0.0019662822336797
0.0017106244690677
0.0014939984053188
0.0013096227011766
0.0011519550699719
0.0010166041738203
0.00090003123028592
0.00079924235057016
0.00071179607090988
0.00063563478193618
0.00056912372062856
0.00051085808248041
0.00045966730060476
0.00041455183941441
0.00037467214844511
0.00033934130186231
0.00030796473290562
0.00028003725359427
0.00025512130162542
0.00023284375587473
0.0002128857221062
0.00019496934173413
0.00017885184023342
0.00016432098975222
0.00015119654009177
0.00014260901796675
0.0017297352564609
0.0064119329131653
0.0067852128012023
0.0067169565376273
0.0066711403900501
0.006657103096479
0.0066650846283407
0.0066824387623803
0.0066961290776142
0.0066964681536144
0.006678480089457
0.0066406608236411
0.0065845469382406
0.0065133799466253
0.0064309989482743
0.0063530959835623
0.0062590974245413
0.0061641999375968
0.0060691749770529
0.0059745738867449
0.0058794550051822
0.0057813802723201
0.0056767344176341
0.0055617464131994
0.0054344470057555
0.005296594841586
0.0051543363178737
0.005016839126307
0.0048931839431556
0.004789284585667
0.0047085836274985
0.0046503437365664
0.0046110049900461
0.0045853460983964
0.0045679260528586
0.0045495547839274
0.0045392460755438
0.0045312287392052
0.004524976367974
0.0045203763252391
0.0045171707799683
0.0045152325897599
0.0045142051938611
0.004512984980181
0.004510922158721
0.0045061708800931
0.0044992017148782
0.004488285071053
0.0044735677575094
0.0044542238310692
0.0044299785606008
0.0044008430543059
0.0043674719334974
0.0043304051064397
0.004289716000637
0.0042455666050119
0.0041982390896771
0.0041466253288702
0.0040891024240766
0.004024752880083
0.0039532885117373
0.0038753644098053
0.0037926661223353
0.0037085754610517
0.0036261227243526
0.0035501597522889
0.0034851944905634
0.003436763781195
0.0034067781718772
0.0033909224446735
0.0033579832273143
0.0434232791614
0.095440994834319
0.2497216018815
0.53386675693437
0.8988911130836
1.2838052585534
1.631360202177
1.8933775880719
2.0508550938377
2.0736887843532
1.9771243450226
1.8046725236823
1.577119242345
1.3269308101164
1.0809262400759
0.85649346241091
0.66440871265112
0.50759517632582
0.38408137912752
0.28923727821062
0.21767628062933
0.16422685978744
0.1244941242715
0.094969501208507
0.072971960539934
0.056520885793542
0.044140747948946
0.034760782537288
0.027602839700474
0.02208680672336
0.017809620491586
0.014471134461491
0.011843125931931
0.0097609873195688
0.0080938987159795
0.006753080620264
0.0056683006611393
0.0047848681902842
0.0040599533804564
0.0034618193243063
0.0029663435614988
0.0025533700379576
0.0022072890957097
0.0019156737409018
0.0016692482658767
0.0014599419128358
0.0012814290488622
0.0011284592774087
0.00099693360811559
0.00088349415201461
0.00078527324248745
0.00069991967082839
0.00062548968422527
0.00056042886256147
0.00050338024136032
0.00045321068668713
0.00040895875255276
0.00036982398272734
0.00033513669095281
0.00030430783315788
0.0002768416025335
0.00025231879784604
0.00023037870465847
0.00021071394242245
0.00019305318312196
0.00017716012191599
0.00016282502980874
0.00014987589500648
0.00014526652446423
0.0023702159754524
0.0065244153576414
0.0067680874522185
0.0066975330350618
0.0066527194672505
0.0066386340437026
0.0066458237728773
0.006662197909475
0.0066752593533526
0.006675720110402
0.0066587030417904
0.0066225598493266
0.0065685766043595
0.0064997669591618
0.006419787514504
0.006344428992564
0.0062525699889373
0.0061596198972866
0.0060665624127587
0.0059738805957976
0.0058807780955035
0.0057849740166698
0.0056829427823399
0.0055708396926468
0.0054464112942521
0.005310884892886
0.0051698852870901
0.005032291547771
0.0049073844545822
0.0048014141136612
0.0047181195992196
0.0046572743477871
0.0046156322853503
0.0045883026962565
0.0045699300576709
0.0045509549829517
0.0045403120309373
0.0045319653842328
0.0045253331015298
0.0045202615611719
0.0045164894588583
0.0045139939626775
0.0045120175656346
0.0045095192215685
0.0045051243745404
0.004497477274428
0.0044861829595211
0.0044693331849539
0.004446243486953
0.0044159164239022
0.0043780299852303
0.0043326512886237
0.0042809615205439
0.0042228352398206
0.0041591760777533
0.0040904840634137
0.0040153292605931
0.0039323661371609
0.0038390481224948
0.0037343715081424
0.0036205825152928
0.0035006419118553
0.0033798146313402
0.003264190830111
0.0031594080729651
0.00307092868046
0.0030030125429041
0.0029591182465007
0.0029368078304406
0.0029272706386505
0.0028953213540188
0.027620936931343
0.047821082885176
0.076738243227238
0.15345243798657
0.27003345314569
0.41178772980927
0.56359211601979
0.70570907119143
0.82196178973599
0.89893101175083
0.9263788850096
0.89977579478565
0.83995866537656
0.7533639361863
0.65072837986204
0.54548368688341
0.44557615367941
0.35668234188288
0.2813947294665
0.21988205767264
0.17092210985104
0.13263099117443
0.10300971272086
0.080242820940255
0.062783805269261
0.049390813413713
0.039098593533483
0.031154844116309
0.024991478421948
0.020183100015056
0.016410161403295
0.013430147399536
0.011058698766253
0.009160952491849
0.0076348840986746
0.0063997883309255
0.0053939676949393
0.0045679815855815
0.0038878734733767
0.0033251397260337
0.0028567832981017
0.0024650218343198
0.0021351915688153
0.0018570077280058
0.0016211063481171
0.0014202807791136
0.0012484482440343
0.0011008955378647
0.00097388473183013
0.0008640816683968
0.00076885677631444
0.00068592259910427
0.00061353728372515
0.00055018756781033
0.00049457165590994
0.00044560718804387
0.00040236701160767
0.00036410474767123
0.0003301635143147
0.00029997570279239
0.0002730607294415
0.0002490041557211
0.0002274623492235
0.0002081400117524
0.00019077169623305
0.00017513180702355
0.0001610201248749
0.00014822401074993
0.00015577755632756
0.0032092159064439
0.006619696922193
0.0067465183097855
0.0066737463137287
0.0066295075213079
0.0066150921534414
0.0066212499489366
0.0066364750518453
0.0066488363530164
0.0066494624088631
0.006633584931274
0.0065993998444682
0.0065479171130116
0.0064818945574237
0.0064047645812968
0.0063324209899727
0.0062432701647168
0.0061526640045826
0.0060620327207102
0.0059717356923943
0.0058810999909156
0.0057880189570994
0.0056891276278304
0.0055805268824567
0.0054596374152094
0.0053271166882096
0.0051878688979898
0.0050503940151108
0.0049240553648846
0.0048157917225544
0.004729420494519
0.0046654003879705
0.0046208991951613
0.0045913627593199
0.0045716285681709
0.0045517503644095
0.004540867892618
0.0045321939206537
0.004525208646881
0.0045196923200912
0.0045154963394558
0.0045124453441989
0.0045094822627803
0.004505437932707
0.004498412698098
0.0044867895325478
0.0044692053771034
0.004443124642814
0.0044073086246557
0.0043599950631161
0.0043003188051123
0.004228530374127
0.0041454272486141
0.0040517226758514
0.0039491729715722
0.0038377426956058
0.0037168574069872