/*--------------------------------*- C++ -*----------------------------------*\
| =========                 |                                                 |
| \\      /  F ield         | OpenFOAM: The Open Source CFD Toolbox           |
|  \\    /   O peration     | Version:  2312                                  |
|   \\  /    A nd           | Website:  www.openfoam.com                      |
|    \\/     M anipulation  |                                                 |
\*---------------------------------------------------------------------------*/
FoamFile
{
    version     2.0;
    format      ascii;
    arch        "LSB;label=32;scalar=64";
    class       volScalarField;
    location    "0.00016";
    object      T;
}
// * * * * * * * * * * * * * * * * * * * * * * * * * * * * * * * * * * * * * //

dimensions      [0 0 0 1 0 0 0];

internalField   nonuniform List<scalar> 
109340
(
372.99990993461
372.99864677518
372.99643075357
372.99360733801
372.99058602628
372.98756195157
372.98460730275
372.98175827146
372.97897605576
372.9761820409
372.97338276336
372.97058125717
372.96777442221
372.96495461409
372.96211135371
372.95923125417
372.9562972265
372.95328797157
372.95017658342
372.9469293564
372.9435042874
372.93985010719
372.93590331646
372.93158338687
372.92678727428
372.9213811487
372.91518895377
372.90797544395
372.89941982003
372.88907329984
372.87628716215
372.86008402531
372.83891555285
372.8101883417
372.76925412665
372.70736161253
372.99970800397
372.99803131417
372.99547482521
372.99259489875
372.9896396261
372.9867055417
372.9838133463
372.9809528318
372.97811858624
372.97529888295
372.97248597539
372.96967517338
372.96685998461
372.96403152953
372.96117821545
372.95828574122
372.95533654641
372.95230802048
372.94917156689
372.94589163347
372.94242428088
372.93871561247
372.9346986511
372.93028809747
372.92537431194
372.91981435253
372.91341949213
372.90593637662
372.89701746584
372.88617293748
372.87268774933
372.85546913571
372.83274876326
372.80147615589
372.7558982322
372.68456839377
372.99974758756
372.99776485368
372.9951110105
372.9922801037
372.9893805406
372.98646577346
372.98354815113
372.98064493794
372.97776952946
372.9749190711
372.9720849068
372.96925968525
372.96643535226
372.9636023173
372.96074898096
372.95786115975
372.95492132632
372.95190711193
372.94879008153
372.94553508277
372.94209815655
372.93842594445
372.93445199774
372.9300911447
372.92523370921
372.91973651704
372.91341079044
372.90600309478
372.89716578412
372.88640871574
372.87301600038
372.85589055782
372.83323695606
372.80188877465
372.75562226251
372.68077673577
372.99970856194
372.99740719681
372.99462137786
372.99169772806
372.98873370175
372.98575627961
372.98278183939
372.97982565936
372.97689968443
372.97400806791
372.97114705708
372.968310152
372.96548892345
372.96267390545
372.95985540252
372.95701973341
372.95415020216
372.95122514564
372.94821674101
372.94509131177
372.94180534466
372.93830560683
372.93452467795
372.93037610483
372.92574820515
372.92049545412
372.91442612704
372.90728315182
372.89871421104
372.88822239014
372.87508132269
372.8581764556
372.83565396932
372.80415664205
372.75668157692
372.67541865402
372.99949492688
372.99643831572
372.99302034385
372.98967587418
372.98640947982
372.98321855719
372.9801146107
372.97712574628
372.9742716798
372.97154725344
372.96895563924
372.96649639697
372.96416212158
372.96194400201
372.95983228321
372.95781469499
372.95587576413
372.95399532256
372.95214316062
372.95028881332
372.94835414443
372.94626252635
372.94392870257
372.94124963066
372.93809837956
372.93431037874
372.92967089392
372.9238935958
372.91658590378
372.90719458051
372.89490846424
372.87849656227
372.8558708366
372.82318002187
372.7718447083
372.67543951855
373.00336042452
373.01757902517
373.03288997986
373.04808542321
373.06273360821
373.07659726213
373.08954927692
373.1015354267
373.11254514731
373.12258751393
373.13168560623
373.13986607908
373.1471549484
373.15357601933
373.15914807386
373.16388418611
373.16779125395
373.17087332168
373.173181248
373.17483164595
373.17581388438
373.17607828795
373.17554581574
373.1740924037
373.17159564019
373.16783593739
373.16252379391
373.15526754019
373.14550974646
373.13245026258
373.11490298826
373.09106234815
373.05779816361
373.00926247798
372.93190643768
372.77562658514
372.60914408235
372.45436176791
372.21745447201
371.87874770404
371.4274112493
370.85284384336
370.14142593086
369.27977533356
368.25579465002
367.06451758368
365.70259715498
364.19419191178
362.57161054396
360.86978117299
359.12471617696
357.37260487324
355.64248927958
353.95592003725
352.32731897928
350.76613769798
349.27764107052
347.86232335841
346.51925230919
345.24611575051
344.03869730373
342.89421361079
341.80960641751
340.77440507406
339.79592723507
338.86017854676
337.96930788873
337.12047412421
336.30533065944
335.53028980963
334.78190120299
334.06984801755
333.38007150485
332.72225475605
332.0841518791
331.4733134771
330.8812086833
330.31095690124
329.75993353612
329.22521417578
328.71045312689
328.20768547497
327.72457636893
327.25160412644
326.79598557222
326.35119842096
325.91908147463
325.49868267907
325.08947110401
324.69086993078
324.30235324794
323.92342641401
323.55364932562
323.19263437386
322.84001938706
322.49545030759
322.15858180296
321.82909535282
321.50670264545
321.19113600699
320.88213734422
320.57946071191
320.28288333986
319.99215983579
319.70465564638
321.12082561985
321.35098298182
320.46362593844
319.59820823964
318.77908831926
318.00465077873
317.26967676551
316.56804504893
315.89391082878
315.24237934199
314.60957197418
313.99237260273
313.38827030734
312.79506111823
312.21051117189
311.55949678367
310.98266637511
310.40119521656
309.80582579508
309.18376566979
308.51895811283
307.79441074687
306.99670796975
306.12143381253
305.17598552802
304.17701381742
303.14292731419
302.09208052935
301.0468077283
300.04350129877
299.13739675774
298.39083097326
297.84626604654
297.49991608739
297.30562499478
297.18477109155
297.13230211622
297.09202693556
297.0557229775
297.01964001661
296.98155306791
296.93992187792
296.893759642
296.84232185305
296.78451251996
296.71909560556
296.64670663264
296.56673093012
296.47933362862
296.3843398391
296.28173174754
296.17151417109
296.05357481648
295.92776801902
295.79378805867
295.65106631139
295.49838562789
295.3339358502
295.15535597336
294.96027898771
294.74682799946
294.51416193649
294.26273703565
293.9947819891
293.71458553381
293.42833024886
293.14363430348
292.87008930795
292.6249721089
292.46507394908
292.56886621702
372.56585548641
372.37288596979
372.0788186205
371.67107820334
371.14432342201
370.48812135365
369.69493808912
368.75648211855
367.6679123655
366.42956843183
365.04564754392
363.53226191214
361.92145486207
360.24357944896
358.52865670778
356.80853573924
355.10999799036
353.45386669784
351.85479451681
350.3215043849
348.85860385637
347.46746047673
346.14692943612
344.89442881724
343.70699934306
342.58035271975
341.51079265634
340.49430538443
339.52708670827
338.60610102017
337.72732590333
336.88861693386
336.08619049275
335.31830332304
334.58190582167
333.87541633619
333.19630807975
332.54333962617
331.9143059384
331.30821183758
330.72311097585
330.15832365615
329.61202696983
329.08378328499
328.57198027322
328.07623973097
327.59523403233
327.12851916296
326.67512881594
326.2345294596
325.80596015242
325.38884318443
324.98272666508
324.58700183465
324.20124712598
323.82493730846
323.4576861864
323.09907525699
322.74875188094
322.40635927995
322.07157752518
321.74409424807
321.42362260097
321.10989148179
320.80265173096
320.50166258721
320.2066958507
319.91753271434
319.62528779572
321.61024399118
321.1275771576
320.23708151932
319.38336410091
318.57616201328
317.81246547525
317.08672192486
316.39279432331
315.72506324013
315.07889890757
314.45061598129
313.83727648951
313.23646493043
312.64601282831
312.06361274023
311.55856613123
310.98204374404
310.40089498565
309.80592307203
309.18435306411
308.52014509587
307.79630529393
306.99938702456
306.12491469648
305.18022220212
304.18193038432
303.14845376757
302.09815896356
301.05333976414
300.05026518374
299.14399399953
298.396745119
297.8510569212
297.50347038885
297.30814950984
297.18642115234
297.13347954224
297.09277268722
297.05601183176
297.01943170717
296.98077915063
296.9385039391
296.89159671333
296.83928220265
296.78045887769
296.71389483358
296.64013873703
296.55860480841
296.46942955272
296.37242559858
296.2675623438
296.15483104254
296.03410347572
295.90521643646
295.76784480731
295.62138002508
295.4645377698
295.29536687451
295.11138452789
294.91014156437
294.68977746773
294.44958138647
294.19027767921
293.91461126032
293.62752009843
293.33607873109
293.04906611894
292.77763394804
292.54109334993
292.40018892604
292.53689403172
372.5463384162
372.31181301494
371.95323547413
371.46238598704
370.85028524259
370.11202088611
369.24814593163
368.25691784247
367.13833761953
365.89201478385
364.52658805662
363.0538862365
361.49044524829
359.86226795851
358.19833292091
356.52518780264
354.86888942826
353.24994791616
351.68249254421
350.17533630671
348.73383285017
347.36033678816
346.05424036997
344.81353612382
343.63561923298
342.51701661602
341.45431273168
340.44385903964
339.48186718681
338.56503204922
337.69030084153
336.85447465607
336.05525731689
335.28959331739
334.555724397
333.85093239915
333.17390214316
332.52227157842
331.89495592943
331.28991569457
330.70628958958
330.14232994536
329.59725907206
329.0697259129
328.55888902154
328.06381645097
327.58353305798
327.11752122523
326.66467556456
326.22471990498
325.79663500731
325.38012707788
324.9744192474
324.57911884498
324.19372604149
323.81778774463
323.45088760459
323.09260877015
322.74259145301
322.40048552027
322.0659750457
321.73874780594
321.41851596591
321.10501000613
320.79798359169
320.4971908877
320.20240497275
319.91342658845
319.62237765965
321.62069400158
321.11748825331
320.22752633375
319.37446167798
318.56784109331
317.80466345653
317.0794104283
316.38598150535
315.7187773718
315.07316750666
314.44545530506
313.8326911025
313.23245421151
312.6425813299
312.06078030646
311.55656178204
310.98067123562
310.40023499228
309.80613740969
309.18564157372
308.52274656464
307.80045633186
307.00525636226
306.13254236776
305.18951060034
304.19271631066
303.16058773199
302.11152080602
301.06771925536
300.06518242567
299.15857503997
298.40985259164
297.86170677793
297.51139199541
297.31378166861
297.19010785189
297.1361230432
297.09446746103
297.05670831549
297.01903707605
296.97914456295
296.93546027828
296.88693520228
296.83268479525
296.77165785024
296.70256781088
296.62582110463
296.54087283803
296.44778997761
296.34635355726
296.23650393047
296.11820228862
295.9912841036
295.85554612423
295.71062087359
295.55579859697
295.38963285537
295.2098650324
295.01374877252
294.79866622212
294.56282824987
294.30585345794
294.02912106346
293.73653240164
293.43447878076
293.13195502666
292.84029802755
292.57402793504
292.35686137752
292.25771457114
292.46698037405
372.5071129553
372.17744329937
371.6801417051
371.04045657477
370.2867898782
369.43350068885
368.48762477217
367.45335685413
366.32614270117
365.10321235062
363.79122119401
362.38808719424
360.90223211611
359.351610613
357.75956375456
356.15164458496
354.55178429197
352.98068836569
351.45349278758
349.98050041291
348.5676396519
347.21697500983
345.93007492822
344.70552274738
343.54076208629
342.43306495406
341.37944105532
340.3767117046
339.42151167505
338.51049204852
337.64078977468
336.80939061838
336.0139138431
335.25177377486
334.52074207881
333.81878883937
333.14400912709
332.49464695409
331.86915566384
331.26598055058
330.68385509011
330.12136980403
329.57761323833
329.05122972029
328.5415470644
328.04736416827
327.56813294672
327.10282174612
326.65086658338
326.2115274789
325.78417525734
325.36827579664
324.96318159549
324.56844720625
324.18354478226
323.80808602082
323.4416241256
323.08376907195
322.73415153159
322.39242614021
322.05826900343
321.73137191278
321.41145308821
321.09824781684
320.79150641222
320.49097790196
320.19643375
319.90768581465
319.61901254817
321.63533336975
321.10280605243
320.21366654157
319.3615767907
318.55580980039
317.79338999155
317.06885178867
316.37614671519
315.70970361687
315.06489226855
314.43800052341
313.82606279663
313.22665154999
312.63761084231
312.05667004704
311.55352380121
310.97857359324
310.39922345748
309.80644412521
309.18757253899
308.52666340272
307.80671847587
307.01412140639
306.14407379727
305.2035637825
304.20904521056
303.17896895976
302.13177589338
301.08953627656
300.08784369568
299.18077018001
298.42985899734
297.87802049432
297.52356631816
297.32245209179
297.1958327575
297.14026097376
297.09717284082
297.05791495932
297.01859863591
296.97683387782
296.93102948174
296.88010474945
296.82294029401
296.75853709355
296.68563468804
296.60440083396
296.51429336608
296.4152815995
296.30708657129
296.18959993629
296.06273439022
295.92626496454
295.77992024379
295.6232627581
295.45540211169
295.27460957616
295.07817281263
294.86295983753
294.62614375248
294.36613966352
294.08316357559
293.77974463396
293.46171844504
293.13760398967
292.81930159223
292.52195198864
292.26505075475
292.07867717772
292.04259683623
292.36288619438
372.40221570651
371.79698446949
370.99571299888
370.12224020334
369.22002487694
368.29045243806
367.32570904421
366.31359465463
365.2379903765
364.09293012847
362.86636159016
361.55727370756
360.16925360072
358.71459557088
357.21294962394
355.68650458557
354.15744714851
352.6463681254
351.16942023711
349.73807683419
348.35970442136
347.03875260332
345.7755413961
344.57064491914
343.42265456971
342.32916641414
341.28720742786
340.29421980141
339.34747275624
338.44375006543
337.58019329393
336.75433775407
335.96347057318
335.20549432431
334.47809848756
333.77946407825
333.10751594141
332.4608404807
331.83763157963
331.23664316342
330.65635177568
330.09571906773
329.55344202197
329.02858660227
328.52015169674
328.02724166865
327.54908764882
327.08479113369
326.63381367977
326.19530868184
325.76881285638
325.35361490237
324.94926208798
324.55519395779
324.17092805283
323.79603767545
323.43010200804
323.07275639536
322.72362247965
322.38235329764
322.04862006453
321.72212530746
321.40259062991
321.08974987652
320.7833513527
320.48314242013
320.18889665785
319.90039372822
319.61625935555
321.65212618548
321.08364543707
320.19552964269
319.34474012065
318.54010752305
317.77868990123
317.05509356468
316.36333688918
315.69788455863
315.05410809368
314.42827736509
313.81740797248
313.21906482412
312.63110179621
312.05127588009
311.54944335641
310.97573984786
310.39784181278
309.80681710198
309.1901084044
308.53184402156
307.8150245175
307.02590202124
306.15941974586
305.2222872328
304.2308170145
303.20349420327
302.15881495333
301.11868015816
300.11815129627
299.21051569586
298.45675780535
297.90005090775
297.54008091992
297.3342535696
297.20371884923
297.14602878163
297.10104911369
297.05982340036
297.0183226575
296.97407331911
296.92547238171
296.87138805227
296.8103477727
296.74150202407
296.66353453286
296.5763636315
296.47939309947
296.37245351432
296.2551644113
296.12734030315
295.98881874539
295.83928186431
295.67835239682
295.50547197563
295.31948711699
295.11821425847
294.8983623129
294.65633212589
294.38912727694
294.09562925275
293.77706818476
293.43789236161
293.08670026497
292.73477671777
292.39791236456
292.09597909798
291.85440677878
291.71114073599
291.75791232041
292.22852763505
371.79370120392
370.24967428436
369.1966084665
368.32345350485
367.48269485587
366.64765606896
365.78733107246
364.8900853265
363.9327211694
362.90217563307
361.78986253957
360.59509734731
359.32019169557
357.9740666967
356.57342541533
355.13891970221
353.69095969576
352.24932725935
350.83122200733
349.44911816739
348.11185743287
346.8246103379
345.59057317504
344.40949962922
343.28118061083
342.2043858346
341.17692989205
340.19587900214
339.25926027861
338.36437781154
337.50851351508
336.68908470486
335.90399173654
335.15101186568
334.42801034793
333.73319793707
333.0648250616
332.4211879819
331.80075452057
331.20223202055
330.62423685431
330.06560813623
329.52515826265
329.00201590291
328.49509695709
328.00363071136
327.52670104639
327.06366106129
326.61374578826
326.176282916
325.75070323232
325.33638004851
324.93285988561
324.53954950528
324.15601985229
323.7817905273
323.41648831955
323.05973014097
322.7111433684
322.37039199739
322.03715727143
321.71113863859
321.39204845386
321.07962386205
320.77361971231
320.4737867741
320.17989908368
319.89165785329
319.61494708488
321.66997595611
321.06006306384
320.1731646403
319.32399366704
318.52078002924
317.76061273332
317.03818776069
316.34760312753
315.68336621472
315.04085198222
314.41631263971
313.80674335247
313.2097013481
312.62305336991
312.04459038599
311.54430879897
310.97215367094
310.39606532551
309.80722349218
309.19320601654
308.53823403002
307.82530706244
307.04051910587
306.17849492949
305.24559448207
304.25794472756
303.23407366575
302.1925430049
301.15505787198
300.15603148062
299.24778109906
298.49059408043
297.92791628027
297.56109820673
297.34933642064
297.21395834083
297.15361257803
297.1062956997
297.06266818682
297.01847977475
296.97115920784
296.91911248732
296.8611146554
296.79532924248
296.7210230746
296.63678397267
296.54228047337
296.43678346105
296.31993264096
296.19117619353
296.05022118993
295.89678643513
295.73041369369
295.55057101419
295.35651432053
295.14669047555
294.91829316989
294.6673557035
294.38976414474
294.08257069567
293.74567076332
293.38202031692
292.9991826481
292.60887072737
292.22570805185
291.87020132595
291.56741101617
291.34863834767
291.26191748575
291.41248729352
292.06987016234
362.97997011423
366.58892347158
366.33199527633
365.91532987301
365.42888928244
364.85604616101
364.20315812814
363.47659659358
362.6807593798
361.81033490471
360.854461144
359.8092023321
358.67806399114
357.46657000056
356.18772760172
354.86016785241
353.50370516649
352.13758627065
350.77981529551
349.44516009547
348.14434423771
346.88489734887
345.67112286246
344.50561409935
343.38856699046
342.31904403768
341.2965221812
340.31894094897
339.38415547886
338.48953443853
337.63336539976
336.81321132864
336.02672921117
335.2718686851
334.54697717468
333.85007933162
333.17939214735
332.53341564473
331.91071248461
331.30981397621
330.72944544899
330.16849078733
329.62581873428
329.10041695554
328.59129910177
328.0977092185
327.61873971667
327.15370197796
326.70180828834
326.26248284093
325.83508342858
325.4190211099
325.01377531133
324.61881528971
324.23372407201
323.85799646816
323.49123024441
323.13303006273
322.78306244236
322.44098873198
322.10647399984
321.77921158718
321.45891845713
321.14533430138
320.83821471717
320.53733140055
320.24244594138
319.95329547975
319.65586264635
321.3783916743
321.25252114645
320.36533076115
319.50691546826
318.69406873271
317.92513441051
317.19523670423
316.49862441867
315.82969280738
315.18359434145
314.5563799651
313.94483417996
313.34638991211
312.75887523077
312.18018051456
311.53810541031
310.9677939014
310.39386425964
309.80762468934
309.19681455524
308.54576936678
307.83748939588
307.0578837138
306.20120390493
305.27338937203
304.29033055116
303.27060970855
302.23285863012
301.19857080404
300.20140363863
299.29253288275
298.53143335996
297.96176272607
297.58682324165
297.36786170488
297.23371478839
297.16840445945
297.11684584856
297.06894107573
297.01988161155
296.96700636274
296.90873476104
296.84359313144
296.76929311249
296.68513148087
296.58951990588
296.4817100308
296.36063069058
296.22553632593
296.07559285179
295.91024989282
295.72890686589
295.5307475574
295.31489285801
295.08007631894
294.82389191451
294.54230350926
294.23038168266
293.88360467342
293.5002227941
293.08288534937
292.63898832903
292.18026615052
291.72268280524
291.28884038487
290.90761582093
290.61297924058
290.447480784
290.46958939814
290.81291585034
291.80514229936
353.86021920465
359.0551835195
359.88549038794
360.27907753023
360.44381914323
360.42041977827
360.21522164541
359.85643178305
359.36608413069
358.76195141526
358.05044677251
357.24124888312
356.33855599029
355.34574002111
354.27411179789
353.14016835215
351.96205454996
350.75797289228
349.54492737387
348.33838268369
347.15047720205
345.98986933686
344.86244717327
343.77205490818
342.72068133885
341.70912877899
340.73721886852
339.80368319224
338.90789542972
338.04826472372
337.2230523801
336.43019601614
335.66826649279
334.93569216347
334.23073510926
333.55167942862
332.89728022862
332.26619502719
331.65701925386
331.06845036902
330.49940078415
329.94888647823
329.41584457989
328.89930943484
328.39845126588
327.91249932676
327.44068914014
326.98226503243
326.53659056647
326.10306771999
325.68111687621
325.27017890195
324.86972510604
324.4793159979
324.09849015633
323.72683769038
323.3639321555
323.00940149182
322.6629103215
322.3241313354
321.99275910155
321.66849622989
321.3510718793
321.04022949857
320.73572538757
320.43734762996
320.14485049094
319.85796618313
319.62471182158
321.69770478328
320.96336710174
320.08159356818
319.23899246065
318.4416545582
317.68671307055
316.96917113456
316.28340754075
315.62409196349
314.98662965233
314.36722934189
313.76283334782
313.17098819812
312.58962127861
312.01666528045
311.52241637299
310.95665457866
310.38805538839
309.80823872343
309.2053337267
308.56397216806
307.86717836116
307.10043176993
306.25707088997
305.34198420266
304.3704289302
303.36109798866
302.33277890799
301.30653443535
300.31424623862
299.40435164405
298.63433274684
298.04809665588
297.65343252384
297.41674792707
297.27022618824
297.19676873237
297.13839689826
297.08373679771
297.02693795043
296.96516905937
296.89665083343
296.81937537947
296.7312470144
296.63095418472
296.5166591782
296.38689632098
296.23979793377
296.07368168551
295.88674381577
295.67773680276
295.4450437208
295.18706433682
294.90208531902
294.58755928592
294.23912892705
293.85089995468
293.41699140953
292.9341237059
292.40684283287
291.84580211049
291.26898926125
290.70181281396
290.17355522824
289.71350933848
289.35754829441
289.14363704196
289.11671313573
289.34679266432
290.00839852042
291.49571456483
349.47387203652
354.04271074421
355.07628323314
355.72678193643
356.15375160328
356.41893982585
356.51800419113
356.47098095512
356.27016106071
355.93073591372
355.47066451258
354.898907995
354.21622946649
353.43608008307
352.57093146028
351.63141714154
350.63253636283
349.59114315967
348.52341898828
347.44415974075
346.36635213845
345.30090933807
344.25569055938
343.23607861738
342.24561080939
341.28655757235
340.36005860088
339.46618483218
338.60474812894
337.77472461988
336.97502715267
336.20497391131
335.4631249842
334.74829135776
334.05882361417
333.39362461302
332.75166566382
332.13162585316
331.53227066944
330.9524831406
330.39147195026
329.84815716143
329.32162406236
328.8109385121
328.31546457768
327.8344152378
327.36706710251
326.91272172886
326.47077924926
326.04071007903
325.62192700029
325.21390134953
324.81614111225
324.42823246762
324.04974414701
323.6802552306
323.3193777711
322.96675827925
322.62207063837
322.28498259782
321.9551830062
321.63239642421
321.31636122174
321.00683684297
320.70360341036
320.40644550451
320.11508161414
319.82920469426
319.68062901524
321.68076040734
320.87948792006
320.00145197391
319.16425933444
318.37201204807
317.6217061831
316.90850436111
316.22697186625
315.57190385122
314.93874809991
314.3237057761
313.72370244432
313.13629723846
312.5594791882
311.99130511709
311.50218380587
310.94207590833
310.38008719651
309.80823792637
309.21511367211
308.5857409443
307.90321623035
307.15253568237
306.32594623822
305.42700444666
304.47005585992
303.4738870167
302.45745897568
301.44145422847
300.45574609542
299.54553615775
298.76578889336
298.16045904412
297.74205619374
297.48330145024
297.32051948846
297.23707640767
297.17084986445
297.10867439514
297.0432860175
296.97139535443
296.89103926384
296.79942251819
296.6949988808
296.57596129582
296.43994831322
296.28431097539
296.10570650148
295.90051740703
295.66489168369
295.39462263841
295.08630905531
294.73819186821
294.34789382554
293.91204162648
293.42580352585
292.88159514642
292.27772841913
291.62378574857
290.94270778889
290.25829549672
289.61139954769
289.03685037583
288.56382864672
288.21386421849
288.00855362382
287.97319419131
288.14437020458
288.60457734651
289.56143709403
291.40248851995
346.78024271513
350.42927658082
351.45498582506
352.15108279753
352.66534123072
353.04882295708
353.30085011216
353.41820824013
353.41172542644
353.2698009575
352.99769971371
352.60866221977
352.12483465641
351.53200637256
350.84271992106
350.07472435941
349.23932051661
348.34940661457
347.42088535558
346.46761571355
345.50217914632
344.53505384429
343.5756700647
342.6309751846
341.70580741024
340.80353382909
339.92642221063
339.07576861798
338.25209491481
337.45535334874
336.68525568139
335.94118560663
335.22212116032
334.5272030429
333.85584264289
333.20684979036
332.57933635742
331.97199786043
331.38408186797
330.81485507498
330.26328593582
329.72855886085
329.20965965587
328.70609511483
328.21707567575
327.74190554491
327.27988565578
326.83040514275
326.39300557057
325.96707432392
325.55210363629
325.14755442874
324.75303606115
324.36814731424
323.99245274246
323.62556497573
323.26710299956
322.91675648099
322.57420355005
322.23911766384
321.91119995455
321.59016904209
321.27578419811
320.96782419455
320.66606751152
320.37026482097
320.08017406543
319.79505479373
319.87989884119
321.61925725301
320.77960508215
319.90662228157
319.07572572982
318.28943814809
317.54461380914
316.83654654355
316.15997876067
315.50983863018
314.88163733459
314.27159507768
313.67664436558
313.0943785862
312.52286616466
311.9603045785
311.47715279835
310.92375189329
310.36957136582
309.80711574609
309.22549562207
308.61022140255
307.94453455645
307.2129469823
306.40647289785
305.52707186835
304.5878649257
303.6076496562
302.6055242745
301.60194068619
300.62468137948
299.71536272584
298.92591506167
298.30016255558
297.85494589778
297.57020776326
297.38730100473
297.29189798078
297.21718858702
297.14744145452
297.07355439231
296.9913691919
296.89806914069
296.79094108432
296.66778499465
296.5280360323
296.36819397553
296.183092343
295.96591620659
295.70885510244
295.40464670301
295.04727511309
294.63252865673
294.15871488518
293.62390177403
293.02658626352
292.36794633198
291.64610999614
290.87524883984
290.10009423223
289.37862676786
288.7637477315
288.289656064
287.96198211185
287.76750451813
287.68668096429
287.71081338638
287.85117785777
288.1558098357
288.72277810597
289.7796504874
291.63043046471
345.22237034149
347.55848341571
348.59693063665
349.26311780632
349.79437221414
350.21900358745
350.53772590931
350.75686553955
350.84737083327
350.8382612949
350.71381232514
350.46277726736
350.1165613927
349.67862048838
349.14793876484
348.52551466597
347.83190753101
347.07842467285
346.27782378078
345.44198235051
344.58372691997
343.71381886167
342.84079051602
341.97232204013
341.11432094224
340.27110946833
339.44592338403
338.64097678566
337.85761572692
337.096553189
336.35800950391
335.6418646716
334.94784163168
334.27552605422
333.62415853765
332.9928820594
332.38126628005
331.78854764532
331.21380629972
330.65646572195
330.11546997575
329.59025549496
329.08033616319
328.58486879147
328.10327606786
327.63477872816
327.17888756534
326.73517267007
326.30300370472
325.88190990803
325.47131296399
325.07087128396
324.68019095064
324.29882631045
323.92640434732
323.56253344423
323.20691938849
322.85924341103
322.51916801755
322.18640038342
321.86064753085
321.54167197192
321.22923204402
320.92307109293
320.62294477577
320.32867822056
320.03999919455
319.75570763303
320.300508464
321.52477878862
320.66334032533
319.79703346457
318.97352780445
318.19411936493
317.45560598142
316.75342642777
316.0825055667
315.43791589632
314.81525564762
314.21079568999
313.62150415413
313.04503364639
312.47954881015
311.92339760298
311.44702593368
310.90133624492
310.35606978843
309.80431666676
309.23574105679
308.63644823973
307.98991116084
307.28020450223
306.49703379736
305.64050554888
304.72219762966
303.76070838343
302.77527642581
301.78624538655
300.81941437952
299.91267708053
299.11440572595
298.46807350991
297.99408056763
297.68008859236
297.47320421028
297.36353574865
297.27996092589
297.20325044833
297.12213786601
297.03066753251
296.92487674547
296.80149979951
296.65867484491
296.49665975454
296.31032580641
296.09063642331
295.8257208448
295.5028870386
295.11074154718
294.63620976692
294.07766062418
293.44215029371
292.73575320062
291.97001857419
291.16022048786
290.33676389805
289.57060185463
288.96343414713
288.5838065222
288.4379250852
288.45978419005
288.56542785883
288.69406675136
288.80657174992
288.90125887871
289.02070036805
289.24323104931
289.700837776
290.59597114798
292.06817682069
344.47159058211
345.14900797108
346.24469467059
346.86769291458
347.37940024875
347.8097610698
348.1553540786
348.42276917132
348.58138592877
348.64243203402
348.61901204928
348.48320184858
348.24592497219
347.91550373198
347.5053793202
347.01295511409
346.44215357581
345.8070298627
345.11989007286
344.392237452
343.63371329282
342.85524968321
342.06580796497
341.27257333064
340.48175976447
339.69854548385
338.92664871457
338.16897432832
337.42757160787
336.7037708687
335.9984315666
335.31197978582
334.64452337508
333.99592313175
333.36587299992
332.75402656533
332.15994365541
331.58293601133
331.02231466767
330.47785393617
329.94878066383
329.43446608384
328.93447855135
328.44790831627
327.97433420664
327.51341764093
327.06452778302
326.62722519627
326.20091823808
325.78512744925
325.37961455012
324.98387757422
324.59753062218
324.22016931257
323.85142376994
323.49105910577
323.13871608749
322.79407365267
322.45682922211
322.12668345183
321.80342346613
321.48680298875
321.17656773061
320.87247759328
320.57433819281
320.28198161046
319.99519335758
319.71138700923
320.99864239157
321.40507367189
320.53110402365
319.67272125491
318.85760383563
318.0859720609
317.35458598177
316.6590304667