/*--------------------------------*- C++ -*----------------------------------*\
| =========                 |                                                 |
| \\      /  F ield         | OpenFOAM: The Open Source CFD Toolbox           |
|  \\    /   O peration     | Version:  2312                                  |
|   \\  /    A nd           | Website:  www.openfoam.com                      |
|    \\/     M anipulation  |                                                 |
\*---------------------------------------------------------------------------*/
FoamFile
{
    version     2.0;
    format      ascii;
    arch        "LSB;label=32;scalar=64";
    class       volScalarField;
    location    "0.00016";
    object      TpSat;
}
// * * * * * * * * * * * * * * * * * * * * * * * * * * * * * * * * * * * * * //

dimensions      [0 0 0 1 0 0 0];

internalField   nonuniform List<scalar> 
109340
(
372.99990993461
372.99864677518
372.99643075357
372.99360733801
372.99058602628
372.98756195157
372.98460730275
372.98175827146
372.97897605576
372.9761820409
372.97338276336
372.97058125717
372.96777442221
372.96495461409
372.96211135371
372.95923125417
372.9562972265
372.95328797157
372.95017658342
372.9469293564
372.9435042874
372.93985010719
372.93590331646
372.93158338687
372.92678727428
372.9213811487
372.91518895377
372.90797544395
372.89941982003
372.88907329984
372.87628716215
372.86008402531
372.83891555285
372.8101883417
372.76925412665
372.70736161253
372.99970800397
372.99803131417
372.99547482521
372.99259489875
372.9896396261
372.9867055417
372.9838133463
372.9809528318
372.97811858624
372.97529888295
372.97248597539
372.96967517338
372.96685998461
372.96403152953
372.96117821545
372.95828574122
372.95533654641
372.95230802048
372.94917156689
372.94589163347
372.94242428088
372.93871561247
372.9346986511
372.93028809747
372.92537431194
372.91981435253
372.91341949213
372.90593637662
372.89701746584
372.88617293748
372.87268774933
372.85546913571
372.83274876326
372.80147615589
372.7558982322
372.68456839377
372.99974758756
372.99776485368
372.9951110105
372.9922801037
372.9893805406
372.98646577346
372.98354815113
372.98064493794
372.97776952946
372.9749190711
372.9720849068
372.96925968525
372.96643535226
372.9636023173
372.96074898096
372.95786115975
372.95492132632
372.95190711193
372.94879008153
372.94553508277
372.94209815655
372.93842594445
372.93445199774
372.9300911447
372.92523370921
372.91973651704
372.91341079044
372.90600309478
372.89716578412
372.88640871574
372.87301600038
372.85589055782
372.83323695606
372.80188877465
372.75562226251
372.68077673577
372.99970856194
372.99740719681
372.99462137786
372.99169772806
372.98873370175
372.98575627961
372.98278183939
372.97982565936
372.97689968443
372.97400806791
372.97114705708
372.968310152
372.96548892345
372.96267390545
372.95985540252
372.95701973341
372.95415020216
372.95122514564
372.94821674101
372.94509131177
372.94180534466
372.93830560683
372.93452467795
372.93037610483
372.92574820515
372.92049545412
372.91442612704
372.90728315182
372.89871421104
372.88822239014
372.87508132269
372.8581764556
372.83565396932
372.80415664205
372.75668157692
372.67541865402
372.99949492688
372.99643831572
372.99302034385
372.98967587418
372.98640947982
372.98321855719
372.9801146107
372.97712574628
372.9742716798
372.97154725344
372.96895563924
372.96649639697
372.96416212158
372.96194400201
372.95983228321
372.95781469499
372.95587576413
372.95399532256
372.95214316062
372.95028881332
372.94835414443
372.94626252635
372.94392870257
372.94124963066
372.93809837956
372.93431037874
372.92967089392
372.9238935958
372.91658590378
372.90719458051
372.89490846424
372.87849656227
372.8558708366
372.82318002187
372.7718447083
372.67543951855
373.00336042452
373.01757902517
373.03288997986
373.04808542321
373.06273360821
373.07659726213
373.08954927692
373.1015354267
373.11254514731
373.12258751393
373.13168560623
373.13986607908
373.1471549484
373.15357601933
373.15914807386
373.16388418611
373.16779125395
373.17087332168
373.173181248
373.17483164595
373.17581388438
373.17607828795
373.17554581574
373.1740924037
373.17159564019
373.16783593739
373.16252379391
373.15526754019
373.14550974646
373.13245026258
373.11490298826
373.09106234815
373.05779816361
373.00926247798
372.93190643768
372.77562658514
372.60914408235
372.45436176791
372.21745447838
371.87874777959
371.42741091463
370.85284345043
370.14142591868
369.27977550591
368.25579494681
367.06451842513
365.70259729329
364.19417474128
362.57161813801
360.86977837287
359.12471945439
357.37260384412
355.64248712714
353.95592210919
352.32731760696
350.76613538624
349.27763940261
347.862318058
346.51922512548
345.24606238763
344.03873514674
342.8944449158
341.80937257279
340.77438401178
339.79605741627
338.85968184625
337.97003030232
337.11994777422
336.30605260846
335.52984535601
334.78251099691
334.06943826118
333.38070332227
332.72182127697
332.08492400898
331.47282197871
330.88206610489
330.31041881892
329.76024864051
329.22475183891
328.71044595377
328.20751631829
327.72441552806
327.25181400832
326.79578447367
326.35139646724
325.91903522147
325.49868616528
325.08946556834
324.69087259295
324.30235201342
323.9234305833
323.55365281064
323.19263955586
322.84002399268
322.49545508933
322.15858623744
321.82910003106
321.50670729003
321.19114036726
320.88214060964
320.57946237932
320.28288308586
319.99215776807
319.70465328496
321.12111942619
321.35098506533
320.46362366265
319.59820627778
318.77908691217
318.00464998317
317.26967647594
316.56804518179
315.89391117617
315.24237977339
314.60957242925
313.99237303403
313.38827070708
312.79506149525
312.21051156065
311.5594965262
310.98266594348
310.40119475739
309.80582531052
309.18376519956
308.51895766593
307.79441032859
306.99670757648
306.12143344642
305.17598519749
304.17701351728
303.14292703564
302.09208022485
301.04680734548
300.04350081293
299.13739621095
298.39083043823
297.84626561098
297.4999157455
297.30562472839
297.18477090558
297.13230197496
297.09202683198
297.05572290369
297.01963996638
296.98155303628
296.93992185792
296.893759642
296.84232186817
296.78451255052
296.71909560556
296.64670663929
296.56673093658
296.47933363981
296.3843398391
296.2817317373
296.17151414905
296.05357478427
295.9277679755
295.79378801607
295.65106626263
295.49838557118
295.33393578225
295.15535588603
294.96027887582
294.74682786754
294.51416179037
294.2627368843
293.99478182902
293.71458538033
293.42833009993
293.14363416765
292.87008917542
292.62497197513
292.4650739318
292.56886620293
372.56585548641
372.37288596979
372.07881881752
371.67108075601
371.1443227631
370.48812050248
369.69493827162
368.75648212781
367.66791250267
366.42956843998
365.04564327412
363.53226568344
361.92145283278
360.24357909634
358.52865799802
356.80853498895
355.1099984948
353.45386656001
351.8547934818
350.32150486255
348.85860340177
347.46746034935
346.1469306205
344.89442921133
343.70699524466
342.58035438287
341.51080525394
340.49428651295
339.52710428855
338.60608826496
337.72732631871
336.88862313295
336.08617844122
335.31832044645
334.58188506685
333.8754356126
333.19628732027
332.5433536973
331.91428701263
331.30821740499
330.72310264938
330.15832261843
329.61203483694
329.0837767415
328.57200764805
328.07621987344
327.59525867873
327.12848484334
326.67514153984
326.23451062083
325.80596814041
325.38883899888
324.98272299978
324.58700341521
324.201246663
323.82494077683
323.45768906721
323.09907979415
322.74875573625
322.4063635276
322.0715815082
321.74409860589
321.42362683122
321.10989530578
320.80265432564
320.50166355551
320.20669495817
319.91753031809
319.62529537566
321.61039851087
321.12757693145
320.23708008527
319.38336325201
318.57616190837
317.81246599845
317.08672288021
316.39279547347
315.72506439145
315.07889993682
314.45061680982
313.83727712123
313.23646539121
312.64601316823
312.06361301741
311.55856574793
310.98204316595
310.40089435392
309.80592241031
309.18435241674
308.52014447764
307.79630471437
306.99938648144
306.12491419212
305.18022174586
304.18192997405
303.14845339513
302.09815858503
301.05333932784
300.05026466584
299.14399343909
298.39674458428
297.85105649477
297.50347005941
297.30814926069
297.18642097723
297.13347940833
297.09277258782
297.05601175902
297.01943165636
296.98077911862
296.93850391784
296.89159671333
296.83928221893
296.780458905
296.71389483358
296.64013875559
296.55860482612
296.46942957581
296.37242561809
296.26756235143
296.15483104254
296.03410346481
295.90521641634
295.76784477788
295.62137999023
295.46453772397
295.2953668128
295.11138444652
294.9101414595
294.68977734259
294.44958124604
294.19027753025
293.91461110393
293.62751994227
293.3360785811
293.04906598054
292.77763381362
292.54109323841
292.40018886876
292.53689401705
372.5463384162
372.31181301494
371.95323539913
371.46238164787
370.85028738394
370.11202233367
369.24814641631
368.25691770461
367.13833785168
365.89201488564
364.52658868533
363.05388598526
361.49044447218
359.8622693853
358.19833210948
356.52518734436
354.86889064458
353.24994748835
351.68249186481
350.17533708513
348.73383201976
347.36033617438
346.05424134729
344.81353699322
343.63561924739
342.5170130305
341.45431811898
340.44386512135
339.48185417864
338.565046939
337.69028507708
336.85448979183
336.05524575716
335.28960406436
334.5557157352
333.85094314525
333.17389462655
332.52228349185
331.89494410661
331.28993077898
330.70627307969
330.14234662287
329.59723906711
329.06974099138
328.55887160458
328.06382606002
327.58352508859
327.11752327016
326.6646792698
326.22471301132
325.79663858509
325.38011987702
324.97442208781
324.57911586923
324.19372693673
323.81778923425
323.4508900354
323.09261213962
322.74259469618
322.40048907553
322.06597854486
321.73875165743
321.41851975788
321.10501345505
320.79798594422
320.49719171594
320.20240399951
319.91342426664
319.62238887983
321.62083902141
321.11748825331
320.22752502581
319.37446091817
318.56784105829
317.80466404158
317.07941141978
316.3859826943
315.71877854962
315.07316855145
314.4454561402
313.83269173447
313.23245466825
312.6425816624
312.06078057275
311.55656137022
310.98067063239
310.40023432441
309.80613671815
309.18564089446
308.52274591528
307.80045572279
307.0052557923
306.13254183952
305.18951012321
304.19271587996
303.16058734214
302.11152041658
301.06771881283
300.06518190557
299.15857448287
298.40985205825
297.86170635366
297.51139166873
297.31378142179
297.19010767994
297.1361229089
297.09446736024
297.05670824098
297.01903702347
296.97914452974
296.93546025487
296.88693519006
296.83268480153
296.77165787155
296.70256781579
296.62582112408
296.54087285384
296.44778999675
296.34635357379
296.23650393791
296.11820228862
295.99128409516
295.85554610737
295.71062084246
295.55579856112
295.38963280606
295.20986496577
295.01374868718
294.79866611599
294.56282812537
294.30585331685
294.02912091494
293.73653224908
293.43447862167
293.13195487564
292.84029789422
292.57402781044
292.35686127638
292.25771450331
292.46698037405
372.5071129553
372.17744329937
371.68014168419
371.04044536116
370.28678855782
369.43350241948
368.48762499914
367.45335664839
366.32614270688
365.10321224726
363.79122121342
362.38808689548
360.90223247394
359.35161051638
357.75956355794
356.15164557552
354.55178394603
352.98068777367
351.45349314619
349.98050066738
348.56763851343
347.21697477483
345.93007512694
344.70552224716
343.54076315188
342.43306500517
341.37943887223
340.37671737704
339.42150764821
338.51049175352
337.64079394618
336.80938520553
336.01392168705
335.25176533753
334.52075268209
333.8187807461
333.14401980503
332.49463816985
331.86916417588
331.26597357605
330.68385995203
330.12136648548
329.57761282487
329.05123345137
328.54154125257
328.047373084
327.5681225815
327.1028317488
326.65085674924
326.21153389709
325.78417063492
325.36827650398
324.96318050643
324.56844448911
324.18354564935
323.80808573472
323.44162617947
323.08377113254
322.73415420553
322.39242896468
322.05827205342
321.7313752169
321.41145642312
321.09825085839
320.79150851868
320.49097864199
320.19643284456
319.90768345317
319.6190267929
321.63546509569
321.10280619901
320.21366533158
319.36157611539
318.55580982919
317.79339063102
317.06885282427
316.37614793525
315.70970481265
315.06489332045
314.43800135804
313.82606342338
313.22665199859
312.63761116469
312.05667030121
311.55352338389
310.97857298029
310.39922277545
309.80644342017
309.18757184542
308.52666273913
307.8067178542
307.0141208226
306.14407325512
305.20356329143
304.20904477105
303.17896856401
302.13177550144
301.08953583719
300.0878431817
299.18076962835
298.42985846884
297.8780200752
297.5235659985
297.32245185217
297.19583258853
297.14026084043
297.09717273842
297.05791488182
297.0185985817
296.97683384237
296.93102945578
296.88010473305
296.82294029401
296.75853710434
296.68563468804
296.60440084745
296.51429337607
296.41528161212
296.30708658186
296.18959993629
296.06273439022
295.92626495392
295.77992022239
295.62326272591
295.4554020649
295.27460951529
295.07817273503
294.86295974325
294.62614364079
294.3661395351
294.08316343388
293.77974448217
293.46171829252
293.13760383122
292.81930144203
292.52195185432
292.26505063307
292.07867708513
292.04259677655
292.36288620847
372.40221570651
371.79698445914
370.99571301437
370.12224069069
369.22003044627
368.29045297802
367.32570985137
366.3135943962
365.23799024039
364.09293008266
362.8663616103
361.55727368394
360.1692536861
358.71459541157
357.21294992198
355.68650486137
354.15744639565
352.64636835654
351.16942005578
349.73807573079
348.35970301166
347.03875329793
345.77554143131
344.57064412389
343.42265493404
342.32916752605
341.28720665429
340.29421965439
339.34747597632
338.44374582782
337.58019838892
336.75433325654
335.96347476752
335.20549158327
334.47810300598
333.77946170234
333.10751986291
332.46083678108
331.83763644176
331.23663743739
330.65635729065
330.09571159589
329.55344835347
329.02858032531
328.52015702834
328.0272384447
327.54908946733
327.08479302784
326.63381103874
326.19531330859
325.76880782734
325.35361817111
324.94925771953
324.55519435488
324.17092627515
323.79603738791
323.43010311182
323.07275757129
322.72362464876
322.38235558685
322.04862282289
321.72212819173
321.40259362958
321.08975257632
320.78335326669
320.48314315363
320.18889601985
319.90039199882
319.61627746325
321.65224081129
321.08364549161
320.19552848596
319.34473952194
318.54010761727
317.77869059643
317.05509464355
316.36333813714
315.69788576678
315.05410914889
314.42827819478
313.81740858951
313.21906526053
312.63110210527
312.0512761195
311.54944293536
310.97573922524
310.39784111989
309.80681638452
309.19010769832
308.53184334283
307.81502388228
307.02590142503
306.15941919104
305.22228673005
304.23081656435
303.20349380114
302.15881455882
301.118679722
300.11815078822
299.21051514936
298.45675728147
297.90005049172
297.54008060406
297.33425332846
297.2037186829
297.14602864857
297.10104901019
297.05982332109
297.01832259923
296.97407327895
296.92547235389
296.87138803057
296.81034776236
296.74150202407
296.66353453286
296.57636363759
296.47939309947
296.37245352119
296.25516441628
296.12734030315
295.98881874539
295.83928184983
295.67835237017
295.50547193562
295.319487057
295.11821418242
294.89836221986
294.65633201877
294.38912715324
294.09562911828
293.77706804101
293.43789220795
293.08670011245
292.73477656089
292.39791222101
292.09597896842
291.85440666967
291.71114065137
291.75791227345
292.22852766205
371.79370120392
370.24967420781
369.19660825589
368.3234517056
367.48269682779
366.64765891282
365.78733099166
364.89008467528
363.93272113215
362.9021754578
361.7898626526
360.5950974247
359.32019160278
357.97406670216
356.57342579753
355.13891954433
353.69095952465
352.24932764677
350.83122143913
349.44911760309
348.11185769007
346.82460967693
345.59057177469
344.40949891016
343.2811809408
342.20438547101
341.17693006556
340.19587867195
339.25926106931
338.36437782192
337.50851185598
336.68908634638
335.90398931316
335.15101594911
334.42800747118
333.73320107586
333.06482119465
332.42119148216
331.80075133874
331.2022337155
330.62423419791
330.06560793417
329.52515828151
329.00201391639
328.49509972377
328.00362694137
327.52670557064
327.06365762402
326.61374920221
326.17628136063
325.7507034341
325.33638026732
324.93285699407
324.53954961598
324.15601660927
323.78179083808
323.41648792283
323.05973115181
322.7111450348
322.37039409449
322.03715986653
321.71114136768
321.39205129902
321.07962632694
320.77362149551
320.47378755621
320.17989878462
319.89165653992
319.61496983643
321.67006619155
321.06006283007
320.17316352178
319.32399313673
318.52078019577
317.76061349011
317.03818888409
316.34760440448
315.68336743652
315.04085303772
314.41631346067
313.80674395711
313.20970177005
312.62305366346
312.04459060829
311.54430837476
310.97215303627
310.39606462268
309.80722276122
309.19320529686
308.53823333551
307.82530640446
307.04051849738
306.17849436115
305.24559396766
304.25794426923
303.23407325757
302.19254261001
301.15505743931
300.15603098087
299.24778056407
298.4905935651
297.92791587296
297.56109789655
297.34933618483
297.21395818116
297.15361244885
297.10629559691
297.06266810588
297.01847971154
296.97115916229
296.91911245326
296.86111462842
296.79532922508
296.72102306544
296.63678397267
296.54228047337
296.43678346105
296.31993264096
296.19117619353
296.05022118993
295.89678643513
295.73041367506
295.55057097951
295.35651426574
295.14669039811
294.91829307394
294.66735559117
294.38976402169
294.08257055887
293.74567061935
293.38202016759
292.99918249215
292.60887057441
292.22570790701
291.8702011992
291.56741090514
291.34863825633
291.26191741878
291.4124872725
292.06987020342
362.97997011423
366.5889232806
366.33199510818
365.91533035153
365.42888955704
364.85604761198
364.20315869013
363.47659620619
362.68075895966
361.81033465101
360.85446101703
359.80920256201
358.67806401584
357.46657000056
356.18772769009
354.86016780862
353.50370528182
352.13758628569
350.77981479708
349.44515980325
348.14434430302
346.88489660216
345.67112238145
344.50561508674
343.38856777032
342.31904372137
341.29652215146
340.31894087934
339.38415499785
338.48953432458
337.63336415973
336.81321239359
336.02672747497
335.27187108489
334.54697503542
333.85008091831
333.17938901377
332.53341780224
331.91070936303
331.30981535145
330.72944145512
330.16849179556
329.62581648178
329.10041726527
328.59129827644
328.09770794587
327.6187412618
327.15369963581
326.70181081769
326.26248042814
325.83508478198
325.41901972987
325.01377378208
324.61881418092
324.23372105226
323.85799618561
323.49122888373
323.13303085139
322.78306352033
322.44099064726
322.10647651622
321.7792142866
321.458921269
321.14533674173
320.83821650406
320.53733204536
320.24244513818
319.95329385478
319.65586170014
321.3786723149
321.25252209154
320.36532965688
319.50691486613
318.69406880671
317.92513509639
317.19523781325
316.49862571783
315.82969407624
315.18359543365
314.55638083619
313.94483482419
313.34639035969
312.75887553485
312.18018073135
311.53810498352
310.96779324992
310.39386354453
309.80762394119
309.19681381769
308.54576865569
307.83748871788
307.05788307699
306.20120332027
305.27338884309
304.29033007877
303.27060929018
302.23285823189
301.19857037466
300.20140314801
299.29253235984
298.53143283846
297.96176232384
297.58682293774
297.36786147464
297.23371464713
297.16840434326
297.11684575326
297.06894099644
297.01988155028
296.96700630396
296.90873471507
296.84359309523
296.76929308566
296.68513146463
296.58951989567
296.4817100308
296.36063069058
296.22553633156
296.07559285964
295.91024989773
295.72890685765
295.53074753097
295.31489280936
295.08007624263
294.82389181279
294.54230338773
294.23038154914
293.88360453538
293.50022265147
293.08288520317
292.63898819259
292.18026601858
291.72268269264
291.28884028352
290.90761574619
290.6129791744
290.44748074087
290.46958938167
290.81291587542
291.80514237461
353.86021918326
359.05518296222
359.88549101769
360.27907812803
360.44382007743
360.42041937609
360.21522134393
359.85643147784
359.36608370103
358.76195101167
358.05044757856
357.24124820467
356.33855605399
355.34574025321
354.2741115008
353.14016839602
351.96205457998
350.75797292224
349.54492736268
348.33838268369
347.1504765827
345.98986872305
344.8624473457
343.77205499662
342.72068130863
341.70913016574
340.73722008166
339.80368309002
338.90789542972
338.04826493215
337.22305263654
336.43019476724
335.66826664574
334.93569155106
334.23073573506
333.5516791739
332.89728105691
332.26619383177
331.65701870802
331.06844793738
330.4994006383
329.94888462906
329.41584446842
328.89930726548
328.39845049881
327.91249823963
327.44068785862
326.98226472031
326.53658870336
326.10306796781
325.68111527164
325.27017841216
324.86972360667
324.47931396299
324.09848892075
323.72683553602
323.36393182085
323.00940120988
322.66291147302
322.32413338485
321.992761684
321.66849925679
321.35107458349
321.04023175999
320.73572676811
320.43734796303
320.14484959533
319.85796465024
319.6247394581
321.69775126613
320.96336634068
320.08159264025
319.23899218662
318.44165499885
317.68671404897
316.96917241781
316.28340891119
315.62409322621
314.98663070918
314.36723013519
313.76283391022
313.17098857097
312.58962151743
312.0166654417
311.52241593563
310.9566538914
310.38805464291
309.80823794241
309.20533295129
308.56397141592
307.86717764512
307.10043109548
306.25707025826
305.34198362991
304.37042843091
303.36109754988
302.33277850982
301.30653402394
300.31424577122
299.40435114922
298.63433225917
298.04809626971
297.65343223371
297.41674770855
297.27022605911
297.19676862574
297.13839680844
297.08373672235
297.02693787447
296.96516899356
296.89665076854
296.8193753308
296.73124697574
296.63095415522
296.5166591561
296.38689630644
296.23979792709
296.07368168551
295.88674381577
295.677736793
295.44504369029
295.18706428553
294.90208523979
294.58755917907
294.2391287971
293.85089981138
293.41699126278
292.93412356468
292.40684271224
291.84580200593
291.26898918478
290.70181276654
290.17355520295
289.7135093472
289.35754831951
289.14363709332
289.11671318855
289.34679271581
290.00839860706
291.49571469301
349.47387205803
354.04271119745
355.07628083153
355.72678411868
356.15375173663
356.41894059858
356.51800330011
356.47098001941
356.27016028648
355.93073653653
355.47065559873
354.89890906215
354.21622846305
353.4360778592
352.57093029499
351.63141587274
350.63253738134
349.59114360692
348.52341914138
347.44416005094
346.36635229576
345.30090926136
344.25569033515
343.23607760905
342.24561024514
341.28655750146
340.36005851051
339.46618482161
338.60474951674
337.7747265982
336.97502806529
336.20497440948
335.46312556121
334.7482918775
334.05882387936
333.3936252195
332.7516655644
332.13162593095
331.53226946434
330.952483282
330.39147105351
329.84815637576
329.32162232453
328.81093742386
328.31546333998
327.83441393811
327.3670661576
326.91272015418
326.4707787387
326.04070899702
325.62192667014
325.21390077072
324.81614044326
324.4282320841
324.0497428115
323.68025435682
323.31937650622
322.96675782776
322.62207122572
322.28498396773
321.95518547807
321.63239899818
321.31636376432
321.00683874303
320.70360437919
320.40644542318
320.11508047896
319.82920344616
319.68071939814
321.68078720455
320.87948715804
320.00145135948
319.16425931805
318.37201271263
317.6217073295
316.90850576213
316.22697330319
315.57190513925
314.93874915665
314.32370654934
313.72370297721
313.13629757726
312.55947938816
311.99130523252
311.50218336277
310.94207519207
310.38008642046
309.80823710978
309.21511285155
308.58574014391
307.90321546347
307.15253495514
306.3259455587
305.42700383013
304.47005529791
303.47388652188
302.45745852171
301.44145377926
300.4557456289
299.54553566927
298.76578843607
298.16045865668
297.74205590915
297.48330124138
297.3205193697
297.23707631055
297.17084978144
297.10867431613
297.04328594117
296.97139528571
296.89103919793
296.79942246227
296.69499883366
296.57596126121
296.43994828581
296.28431095929
296.10570649324
295.90051740703
295.66489167519
295.39462261256
295.08630899787
294.73819178832
294.347893719
293.91204149824
293.42580339065
292.8815950209
292.27772831259
291.62378567727
290.94270776797
290.25829553233
289.61139963424
289.03685050244
288.56382878826
288.21386436127
288.00855375408
287.97319431304
288.14437032105
288.60457743477
289.56143722986
291.40248868489
346.78024280529
350.42927548276
351.45498689417
352.15108260619
352.66534208527
353.04882272968
353.30085046893
353.41820616441
353.4117300506
353.26979693867
352.99768600851
352.6086178257
352.1248886393
351.53199860229
350.84271483805
350.07472263251
349.23932076461
348.34940725123
347.42088642456
346.46761565551
345.50217864233
344.53505266267
343.57566904998
342.63097558384
341.7058083797
340.80353420587
339.92642190822
339.07576872499
338.25209504186
337.45535266812
336.68525483324
335.94118582232
335.22212245986
334.52720386698
333.85584363012
333.2068511482
332.57933776111
331.97199812282
331.38408275929
330.81485537107
330.26328538661
329.72855753449
329.20965855057
328.70609411709
328.21707453202
327.7419042184
327.27988433648
326.83040466683
326.3930050957
325.96707417634
325.55210380782
325.14755498726
324.75303701736
324.36814780472
323.99245302185
323.62556424872
323.26710196796
322.91675571932
322.57420324112
322.23911850461
321.91120140241
321.59017102515
321.27578610363
320.96782553376
320.6660680699
320.37026424519
320.08017251271
319.79505385639
319.8800243184
321.61926894525
320.77960424039
319.90662189108
319.07572598611
318.28943904567
317.54461511687
316.83654806348
316.15998026585
315.50983994825
314.88163839759
314.27159583824
313.6766448774
313.0943788982
312.52286633165
311.96030465072
311.47715235506
310.92375116659
310.36957056659
309.80711489097
309.22549475575
308.61022054848
307.94453373193
307.21294619772
306.40647216054
305.52707119065
304.58786431988
303.60764912643
302.60552380867
301.60194024509
300.62468093185
299.71536227098
298.9259146393
298.30016219422
297.85494562067
297.57020756048
297.38730089156
297.29189789253
297.21718851237
297.14744138302
297.07355433188
296.9913691275
296.89806907819
296.79094102769
296.66778494386
296.5280359949
296.36819395314
296.18309233212
295.96591620659
295.70885510244
295.404646686
295.04727507506
294.63252860063
294.15871480395
293.62390167471
293.02658616769
292.36794624534
291.64610994275
290.87524888007
290.1000943848
289.37862700488
288.76374801664
288.2896563333
287.96198234552
287.76750468524
287.68668106345
287.71081343756
287.85117790011
288.15580985232
288.72277819245
289.77965064116
291.63043065859
345.22237049255
347.55848398775
348.59692923964
349.26311884205
349.79437182928
350.21900262888
350.53772662181
350.75686890559
350.84737140088
350.83827583623
350.71374570678
350.46294186718
350.11667796848
349.67865055206
349.14795750878
348.52552538911
347.83190202852
347.07842260198
346.27782657697
345.44198434868
344.5837284574
343.71381834409
342.84078882191
341.97232057308
341.11432031967
340.27110950976
339.44592402808
338.64097703281
337.85761519784
337.09655260934
336.35800936208
335.64186483594
334.94784175501
334.2755261553
333.62415914763
332.99288383789
332.38126763353
331.7885492285
331.21380885918
330.65646718472
330.11546899812
329.59025452981
329.0803349373
328.58486769725
328.10327468431
327.63477636238
327.17888677019
326.7351723166
326.30300380674
325.88191017245
325.47131417605
325.07087284393
324.68019270725
324.29882808681
323.92640527069
323.56253358677
323.2069187905
322.85924253517
322.51916751776
322.18640035016
321.86064824906
321.54167310217
321.22923319575
320.92307200696
320.62294498082
320.32867755326
320.03999784918
319.75570516537
320.30070066349
321.5247836405
320.66333955686
319.79703330163
318.97352832637
318.19412048225
317.45560745264
316.75342805702
316.08250713851
315.43791725093
314.81525672835
314.21079645243
313.62150466101
313.0450339467
312.47954895781
311.92339764511
311.44702550075
310.90133552702
310.35606895825
309.8043157828
309.23574014629
308.63644733304
307.98991027374
307.28020365415
306.49703299535
305.64050480509
304.72219695725
303.76070779219
302.77527591201
301.78624491956
300.81941393126
299.91267664052
299.11440532109
298.46807315612
297.99408030583
297.68008839965
297.47320411333
297.36353567272
297.27996086599
297.20325039554
297.12213780907
297.03066747547
296.92487668554
296.80149975025
296.65867480694
296.49665973177
296.31032579891
296.09063642331
295.8257208448
295.5028870386
295.11074154718
294.6362097416
294.07766057842
293.44215024927
292.7357531472
291.97001854684
291.16022056922
290.33676412717
289.5706022293
288.9634345871
288.58380689515
288.4379253234
288.45978428013
288.56542781322
288.69406663923
288.80657161522
288.90125876744
289.02070031522
289.24323108167
289.70083786452
290.59597132029
292.06817699409
344.47159060509
345.14900755982
346.24469472142
346.86769257412
347.37939926397
347.80976151384
348.15535451065
348.4227686003
348.5813930499
348.64240037246
348.61906414464
348.48331266802
348.24585672503
347.91545158444
347.50544767453
347.01296412716
346.44216236392
345.80704432196
345.11988697749
344.39223815855
343.63371369096
342.85524866985
342.06580749941
341.2725731405
340.48175880857
339.69854453598
338.92664873704
338.16897482625
337.427571701
336.70377071783
335.99843123287
335.31197883913
334.64452244379
333.9959233385
333.3658743187
332.75402828561
332.15994555521
331.58293814894
331.02231574584
330.4778540197
329.9487800796
329.4344657706
328.93447756995
328.44790647071
327.97433278807
327.51341700265
327.06452780056
326.62722517437
326.20091898263
325.78512772699
325.37961595249
324.98387952893
324.5975325948
324.22017066915
323.85142498328
323.4910596093
323.13871606045
322.79407296766
322.45682846695
322.12668292048
321.80342344096
321.48680344195
321.17656841792
320.87247800212
320.57433804514
320.2819807874
319.9951919419
319.71138482665
320.99881280397
321.40507490755
320.53110342147
319.67272132879
318.8576046057
318.08597337008
317.35458759177