/*--------------------------------*- C++ -*----------------------------------*\
| =========                 |                                                 |
| \\      /  F ield         | OpenFOAM: The Open Source CFD Toolbox           |
|  \\    /   O peration     | Version:  2312                                  |
|   \\  /    A nd           | Website:  www.openfoam.com                      |
|    \\/     M anipulation  |                                                 |
\*---------------------------------------------------------------------------*/
FoamFile
{
    version     2.0;
    format      ascii;
    arch        "LSB;label=32;scalar=64";
    class       volScalarField;
    location    "0.00016";
    object      Y.Liq;
}
// * * * * * * * * * * * * * * * * * * * * * * * * * * * * * * * * * * * * * //

dimensions      [0 0 0 0 0 0 0];

internalField   nonuniform List<scalar> 
109340
(
0.99999
0.99999
0.99999
0.99999
0.99998999999996
0.99998999999894
0.99998999996969
0.99998999940543
0.99998999594803
0.999989984976
0.99998995983921
0.99998991198606
0.99998983105661
0.99998970487899
0.99998951935138
0.9999892581965
0.99998890253076
0.99998843021516
0.99998781492181
0.99998702484697
0.99998602096864
0.99998475480759
0.99998316551435
0.99998117600721
0.99997868763633
0.99997557273091
0.9999716638686
0.99996673791144
0.99996049132071
0.99995250022555
0.99994215251308
0.99992852530337
0.99991014905291
0.9998845255742
0.99984708741295
0.99978881937817
0.99999
0.99999
0.99999
0.99999
0.99998999999994
0.99998999999829
0.99998999995101
0.99998999912344
0.99998999464418
0.99998998137167
0.99998995214813
0.99998989794517
0.99998980793356
0.99998966945519
0.9999894678787
0.99998918630537
0.9999888051074
0.99998830121352
0.99998764708411
0.99998680931712
0.99998574679594
0.99998440829055
0.99998272934536
0.99998062811672
0.99997799959091
0.99997470745116
0.99997057229201
0.99996535392864
0.99995872374615
0.99995021943582
0.99993916679605
0.99992453573631
0.99990465393967
0.9998765967428
0.99983475947451
0.99976743220502
0.99999
0.99999
0.99999
0.99999
0.99998999999997
0.99998999999925
0.99998999997498
0.99998999932836
0.99998999529978
0.99998998274691
0.99998995447663
0.99998990141861
0.99998981270238
0.99998967563335
0.9999894755517
0.99998919554718
0.9999888159927
0.99998831383589
0.99998766156571
0.99998682581675
0.99998576549476
0.99998442936505
0.9999827529611
0.99998065440164
0.9999780286232
0.99997473923159
0.9999706067092
0.9999653907469
0.99995876263487
0.99995025998229
0.99993920842861
0.99992457676743
0.99990468218514
0.99987653551992
0.9998341948951
0.99976414370045
0.99999
0.99999
0.99999
0.99999
0.99998999999999
0.99998999999985
0.99998999999289
0.99998999952915
0.99998999599692
0.99998998426439
0.9999899571028
0.99998990539835
0.99998981823837
0.99998968288638
0.99998948463475
0.99998920651523
0.99998882883074
0.99998832844244
0.99998767771806
0.99998684312192
0.99998578328004
0.99998444652235
0.99998276777244
0.99998066428857
0.99997802981893
0.99997472630529
0.99997057189913
0.99996532302416
0.99995864637478
0.99995007298203
0.99993891856625
0.99992413614429
0.99990400673992
0.99987541873128
0.99983188237619
0.99975661747646
0.99999
0.99999
0.99999
0.99999
0.99999
0.99998999999999
0.99998999999923
0.99998999965992
0.99998999657145
0.99998998569159
0.99998995977088
0.99998990957946
0.99998982398893
0.99998968995073
0.99998949230681
0.99998921344958
0.99998883281003
0.9999883260878
0.99998766396266
0.99998681083641
0.99998572236282
0.99998434275796
0.99998260138628
0.99998040783142
0.9999776453835
0.99997416156734
0.99996975464281
0.99996415341534
0.99995698583057
0.99994772759837
0.99993561276739
0.99991947115177
0.99989737392314
0.99986577795426
0.9998169446234
0.99972733941616
0.99999
0.99999
0.99999
0.99999
0.99999
0.99999
0.99998999999186
0.9999899991954
0.99998999380315
0.99998997670078
0.99998993786288
0.99998986452241
0.99998974117264
0.99998954939911
0.99998926750868
0.99998886991926
0.99998832625662
0.99998760022661
0.99998664861398
0.99998541501207
0.99998382735676
0.99998179463405
0.99997920015914
0.99997589317514
0.99997167754915
0.99996629585885
0.99995940664025
0.99995055033088
0.99993909656746
0.99992415751361
0.9999044350572
0.9998779542575
0.99984143873554
0.99978882911343
0.99970650414556
0.99954755449559
0.99969285617902
0.99953430249526
0.99928347883159
0.99891871627808
0.99842933482209
0.9978053931882
0.99703306579738
0.9960988702452
0.99499100154097
0.99370577343874
0.99224356841782
0.99062566291836
0.98889512261582
0.98708905118641
0.98524671491479
0.9834077216138
0.98160289262811
0.97985454409861
0.97817711499286
0.97657870185669
0.97506345573294
0.97363133293714
0.97227989714791
0.97100549638887
0.96980346856231
0.96866919597209
0.96759842899804
0.96658545399062
0.96562687972784
0.96471811421923
0.96385479534189
0.96303480003643
0.96225314519266
0.9615087515011
0.96079719025418
0.9601176233693
0.95946638557445
0.9588427859386
0.95824376335294
0.9576687457764
0.95711520137696
0.95658262707251
0.95606897569521
0.9555736665095
0.95509521842346
0.95463283076645
0.95418557653537
0.95375247856507
0.95333298408244
0.95292609266884
0.95253140386125
0.95214810961456
0.95177571211997
0.95141364472034
0.95106141153715
0.95071853859585
0.95038459346508
0.95005916590831
0.94974187626812
0.9494323676166
0.94913030507268
0.94883537378062
0.9485472776688
0.94826573591003
0.94799048307677
0.9477212681678
0.947457852476
0.9472000070121
0.94694705670572
0.94613044864786
0.94447916481328
0.94347307934453
0.94255017933817
0.94167865224795
0.94085351688978
0.94006905209582
0.93931966090798
0.93860076797603
0.93790863979684
0.93723970130648
0.93658999512334
0.93595504334723
0.93533022669952
0.93471147108779
0.93401888860974
0.93340524845385
0.93279207207009
0.93217640711476
0.93155064627369
0.93089943336238
0.93019827932926
0.92941608187589
0.92852331856882
0.92750511258585
0.92637391958368
0.92517442946517
0.92397714018617
0.92286201983158
0.92189857524022
0.92113678465251
0.92059719753439
0.92026502029549
0.92009220644468
0.9200204467234
0.91999988579643
0.92000695473942
0.92002162060153
0.92003850609966
0.92005445002331
0.92006784337612
0.92007749807237
0.9200827758758
0.92008403335831
0.92008020903935
0.9200691091996
0.92005036497869
0.92002379304235
0.91998937883969
0.91994723557304
0.91989756793584
0.91984063075668
0.91977667670898
0.91970592257374
0.91962850538034
0.91954438863066
0.91945318951267
0.91935384438868
0.9192446139712
0.91912337751599
0.91898802874146
0.91883684655944
0.91866875227026
0.91848401846883
0.91828503354521
0.91807780135027
0.91787357082279
0.91768995308171
0.91754826222536
0.91746466381753
0.91743367280774
0.99965075403138
0.99945064655467
0.9991364588205
0.99869510702725
0.99812251460545
0.99741050327433
0.99655042966171
0.99553449023305
0.99435916242852
0.99302663433381
0.99154305472874
0.98992808162536
0.98821562254776
0.98644116639838
0.98463764220709
0.98283859755608
0.98107301181294
0.97936178900806
0.97771920880208
0.97615340792323
0.97466798081238
0.97326304313054
0.97193651310996
0.97068486521398
0.96950403113053
0.96838902219392
0.96733526745236
0.96633830803022
0.96539383800544
0.96449796030054
0.96364688635462
0.9628372626079
0.96206599588095
0.96133020894709
0.96062736938173
0.95995505812036
0.95931119177112
0.95869376678092
0.95810102788689
0.95753131748343
0.95698316543954
0.95645520072286
0.95594617472117
0.95545494670077
0.95498045578346
0.95452174397311
0.95407790410916
0.95364812805289
0.95323163457204
0.95282773292404
0.95243575114996
0.95205508924781
0.95168516919481
0.95132546403105
0.95097547997466
0.95063475652863
0.95030286517291
0.9499794035377
0.94966399731552
0.94935629513806
0.94905596647931
0.94876270054157
0.9484762047561
0.94819620224629
0.94792243188135
0.94765464702894
0.94739261502278
0.94713611905711
0.94688033179974
0.94555910275525
0.94420566222756
0.94323121704765
0.94232202684089
0.94146278760748
0.94064858182523
0.93987362553135
0.93913256994839
0.93842108870235
0.93773552348349
0.93707220702819
0.93642702134766
0.93579539924446
0.93517280322592
0.9345554416302
0.93401790835894
0.93340455064366
0.93279170341623
0.93217643376895
0.93155115373301
0.93090053611806
0.93020012543465
0.92941883713841
0.92852711809727
0.92750998773873
0.92637973690041
0.9251808832472
0.9239837945118
0.92286844114967
0.92190436512556
0.92114161736605
0.92060085977733
0.9202675071427
0.92009374217421
0.92002135098581
0.92000040566741
0.92000730679375
0.92002188357148
0.92003870798999
0.92005457766542
0.92006785407796
0.92007732529802
0.92008234586985
0.92008332178929
0.92007884799538
0.92006686003265
0.92004692991727
0.92001883181283
0.9199825217892
0.91993809639485
0.91988575680218
0.91982576309193
0.91975837731922
0.91968382774252
0.91960226566574
0.91951366740792
0.91941762005273
0.91931291846009
0.91919763454177
0.91906944269632
0.91892609248838
0.91876579415066
0.91858747268771
0.91839158009209
0.91818083029105
0.91796182761356
0.91774671602543
0.91755447826453
0.9174078065276
0.91732372261585
0.9172946057066
0.99963322090296
0.99938928738334
0.99900185799809
0.99847081303986
0.99780572701529
0.99700429732955
0.99606790495657
0.99499567953608
0.99378902956793
0.99244945691215
0.99098638238769
0.98941563932362
0.98775607700953
0.98603662127752
0.98428893819046
0.98254148526104
0.98082208712004
0.97915104428298
0.97754247345671
0.9760049237229
0.97454262185049
0.97315667220335
0.97184573512569
0.97060689088638
0.9694363597907
0.96833007220843
0.96728393765897
0.96629343337769
0.96535455189965
0.96446340594738
0.96361649728664
0.96281046439003
0.96204234425831
0.96130930541765
0.96060885696919
0.95993866324882
0.95929665297601
0.95868088111195
0.95808959517212
0.95752117030813
0.95697414919587
0.95644716973742
0.95593902068122
0.95544854772295
0.9549747387652
0.95451661185175
0.95407330429896
0.95364398282425
0.95322790194919
0.95282435380287
0.95243268695626
0.95205229606711
0.95168261487901
0.95132312099283
0.95097332186025
0.9506327621433
0.95030101459631
0.94997768056286
0.94966238667525
0.94935478305474
0.94905454020438
0.94876134857908
0.94847491737812
0.94819497151937
0.9479212507717
0.94765350903119
0.94739151336422
0.94713504752745
0.94687874340668
0.94553560081045
0.94419522821869
0.94322191864459
0.94231315585965
0.94145425444768
0.94064038626625
0.93986583807
0.93912529853235
0.93841442812437
0.93772952085761
0.93706685718788
0.93642228690245
0.93579124030432
0.93516920377611
0.9345524254199
0.93401574656663
0.93340301850684
0.93279090511919
0.93217650539165
0.93155227940602
0.93090296521519
0.93020418077342
0.92942488106102
0.92853544790465
0.92752067759268
0.92639250444503
0.92519506975977
0.92399845412225
0.92288262095386
0.92191718300822
0.92115234594967
0.92060901512234
0.92027306324707
0.92009718379302
0.92002338068542
0.92000157011968
0.92000809351247
0.92002246785002
0.92003915299274
0.92005485566913
0.92006787276423
0.92007694196681
0.92008140393877
0.92008173624696
0.92007581690233
0.92006185392766
0.92003927594071
0.92000776069535
0.91996719449177
0.91991763256458
0.91985926499069
0.91979236185147
0.91971720544223
0.91963404999324
0.91954308029042
0.91944430554523
0.91933721438492
0.91922027396394
0.91909112218602
0.918946962092
0.918785228008
0.91860397370872
0.91840218523931
0.91818074456678
0.91794313857925
0.9176974221206
0.91745781666475
0.91724640018507
0.91708893560929
0.91700408094646
0.91697956556556
0.99959467239446
0.99924788435736
0.99870848797404
0.99801423986671
0.9971963260313
0.99627091050466
0.99524712295757
0.99413017444231
0.99291674741497
0.99160460969908
0.99020049834631
0.98870599452319
0.98713116811726
0.9854963171492
0.98382720841775
0.98215024135964
0.98049146537771
0.978872107819
0.97730685084526
0.97580551094857
0.97437332854953
0.97301211719383
0.97172152702769
0.97049953032445
0.96934302314618
0.9682483502482
0.96721171116853
0.96622945638811
0.96529764811349
0.96441260657818
0.96357095119261
0.96276953468826
0.96200541671058
0.96127593686414
0.96057860817494
0.95991121769596
0.95927168642062
0.95865816190927
0.9580688866159
0.9575022979393
0.95695691951792
0.95643144041501
0.95592463237394
0.95543538790915
0.95496268153811
0.95450556488186
0.95406316951823
0.95363468011647
0.9532193574489
0.95281649406101
0.95242545267985
0.95204562359077
0.95167645240057
0.95131741758428
0.95096803597544
0.95062785531963
0.9502964529734
0.9499734335476
0.94965842552772
0.94935108136377
0.94905107358021
0.94875809485199
0.94847185657784
0.94819208596987
0.94791852461017
0.94765092762656
0.94738906236135
0.94713270979717
0.94687550021985
0.94550280973603
0.94417999803117
0.94320835805634
0.94230024953609
0.94144187538731
0.94062853241286
0.93985460199732
0.93911482304121
0.93840483806266
0.93772087614636
0.93705914657745
0.93641545568033
0.93578523153829
0.93516399432716
0.93454804490482
0.93401245208124
0.93340067693823
0.93278967970815
0.93217659796688
0.93155396624832
0.93090662256514
0.93021029685937
0.92943400516366
0.92854803411748
0.92753684694653
0.92641184180303
0.92521658737995
0.92402073484203
0.92290421026881
0.92193673813454
0.92116875327549
0.92062152820057
0.92028162333411
0.92010250784452
0.92002653105411
0.92000338143152
0.92000931640278
0.92002336969463
0.92003983123745
0.92005526998203
0.9200678842827
0.92007633815048
0.92008002308566
0.92007924935519
0.92007111553033
0.92005409026451
0.92002738206254
0.91999050877423
0.91994323559988
0.91988554111393
0.91981758878341
0.91973965915384
0.9196520638567
0.91955509877176
0.91944900962761
0.91933385520736
0.91920889502707
0.91907205012587
0.91892024129627
0.91874989832576
0.91855797697073
0.91834230810016
0.91810209274365
0.91783901530054
0.91755793180554
0.91726941241683
0.916991144607
0.91675014381235
0.91657690353687
0.91649223345383
0.91647578377001
0.99946717213078
0.99882231196597
0.9979605854731
0.99701947743422
0.99604496255721
0.99504030077278
0.99399760664515
0.99290615183723
0.99174950704155
0.99052205755401
0.9892133127652
0.98782291691007
0.98635551096155
0.98482505634556
0.98325339941181
0.98166470213223
0.98008175103908
0.97852623320808
0.9770145195856
0.97555760993571
0.97416217010906
0.9728314997474
0.97156614981375
0.97036500256235
0.96922585829618
0.96814574718248
0.96712136911912
0.96614927090111
0.96522622208224
0.96434868952467
0.9635134870874
0.96271765345288
0.96195839382268
0.96123315988295
0.96053958213266
0.95987550838375
0.95923893599998
0.95862804705458
0.95804115132153
0.95747670668987
0.95693327639902
0.95640956350156
0.95590436501868
0.95541659531143
0.95494523633486
0.95448936301801
0.95404810563537
0.95362067241023
0.95320631908945
0.95280435524511
0.95241414144067
0.95203507721812
0.95166661088423
0.95130822462485
0.95095944216601
0.95061981461989
0.95028892529571
0.94996638075488
0.94965181181282
0.9493448728122
0.94904523851021
0.94875260383537
0.94846668252289
0.94818720428813
0.94791391291498
0.94764656512419
0.94738492805468
0.94712878081825
0.94687023962399
0.94546089797168
0.94415999326575
0.94319044035635
0.94228325401742
0.94142563928085
0.94061304197689
0.93983996112717
0.93910119746958
0.93839237203058
0.93770963496479
0.93704910963512
0.93640655069363
0.9357773857369
0.93515717900672
0.93454229885441
0.93400802511871
0.93339751643179
0.93278801055068
0.93217668627759
0.93155617807461
0.93091145658619
0.93021840294143
0.92944611776457
0.92856476660965
0.9275583753139
0.92643763080841
0.92524533313818
0.92405056299983
0.92293316789141
0.92196302267234
0.92119086630706
0.9206384592682
0.92029326533156
0.92010979051282
0.92003086244872
0.920005883256
0.92001100477256
0.92002460506706
0.92004074573239
0.92005581171683
0.92006786812144
0.92007549916531
0.92007828128187
0.92007576347664
0.92006465112934
0.92004340718661
0.92001096212529
0.91996659226509
0.91990986887716
0.91984063766444
0.91975900446948
0.91966525254002
0.91955972850634
0.91944279004125
0.91931479556596
0.9191758206325
0.91902469555382
0.91885851348561
0.9186731025831
0.91846374965938
0.91822677244394
0.91795978453164
0.9176625235218
0.91733807622254
0.91699359643605
0.91664364301092
0.91631110100695
0.91602996410621
0.9158371504326
0.91575572898425
0.91575207608397
0.99859887956795
0.99703615096916
0.9959609885417
0.9950472329323
0.99415784354248
0.99326601961568
0.99234417716711
0.9913802466894
0.99035355981976
0.98925190786726
0.98806874073735
0.98680354393651
0.98545957933303
0.98404706887598
0.98258452374263
0.98109440481131
0.97959827211311
0.97811700038521
0.97666758766586
0.97526254800435
0.9739102489134
0.97261538923632
0.97137985340555
0.97020356400753
0.96908517996845
0.96802250987148
0.96701282404614
0.966053156519
0.96514063974774
0.96427210708762
0.96344465321438
0.96265548850137
0.96190203150585
0.9611818562149
0.96049273972687
0.95983259420159
0.9591995102733
0.958591714745
0.95800759088178
0.9574456241475
0.95690443508386
0.95638274368512
0.95587938748096
0.95539329145803
0.95492346699222
0.95446900022526
0.95402904014069
0.95360280492418
0.95318955827633
0.95278862335334
0.95239936205529
0.95202118555118
0.95165354299467
0.9512959244795
0.95094785687245
0.95060889699491
0.95027863248899
0.94995667259194
0.94964265081157
0.94933622280955
0.94903706516869
0.94874487470541
0.94845936747969
0.94818027540202
0.94790734421895
0.94764033232625
0.94737900713489
0.94712314495189
0.94686271340238
0.94541079648137
0.94413504259992
0.9431680699074
0.94226212769627
0.94140554748267
0.94059394888169
0.93982197061158
0.93908448566298
0.93837709113282
0.93769584799555
0.93703678331614
0.93639559522845
0.93576771437534
0.93514875995204
0.93453518307585
0.93400245847373
0.93339352222676
0.9327858743042
0.93217673919831
0.9315588735523
0.93091741176577
0.93022842551087
0.92946112606238
0.92858553732527
0.92758515000097
0.92646976987276
0.92528123423587
0.92408790273582
0.92296949116279
0.92199606896998
0.92121875354541
0.92065991657614
0.92030811231533
0.92011914624223
0.92003645951497
0.92000914233818
0.9200132045447
0.92002620163463
0.92004190663964
0.92005647733277
0.92006782269182
0.92007444880105
0.92007614209649
0.92007122732451
0.92005630733663
0.92002958595776
0.91998961812448
0.9199353258304
0.91986597969336
0.91978120179837
0.91968098190926
0.91956558253075
0.91943538308754
0.91929083626731
0.91913249337427
0.91896030239119
0.91877239827169
0.91856466491084
0.91833130263304
0.91806599625962
0.91776431302038
0.91742381713458
0.91704540581556
0.91663456189478
0.91620224185146
0.91576903455508
0.91536522360789
0.91503394001079
0.9148200678257
0.91474773190667
0.91476301821377
0.98757109091706
0.99286045999061
0.99274105676913
0.9923773391631
0.99190076950983
0.99131127871825
0.99062885450052
0.98986386618508
0.98901965139628
0.98809396595956
0.98707898301315
0.98597351748258
0.98478300988219
0.98351429331668
0.98218133441648
0.98080400003881
0.97940359303808
0.97800018113921
0.97661307524333
0.97525667471708
0.9739414296173
0.97267435469456
0.97145930254852
0.97029788030599
0.96919004541518
0.96813460418494
0.96712965154771
0.96617282928198
0.96526167532804
0.96439341055411
0.96356538183226
0.96277503215724
0.96201993500032
0.96129779173192
0.96060648387926
0.9599440105134
0.95930851683299
0.95869826571316
0.95811166858389
0.95754724092213
0.95700362503283
0.95647955349429
0.95597387453596
0.95548551661432
0.95501349665777
0.95455689969891
0.95411488123905
0.95368665621913
0.95327149127566
0.95286870653682
0.95247766292143
0.95209777048483
0.95172847572155
0.95136926634223
0.95101966509987
0.95067922751888
0.95034753919137
0.95002420814898
0.9497088648772
0.94940116109668
0.94910077065389
0.94880738761924
0.94852072580885
0.94824051571005
0.94796650248486
0.94769844625071
0.94743612210795
0.94717932315008
0.94692606835664
0.94586977713974
0.94436458617094
0.94337551971828
0.94245822404762
0.94159103730435
0.94076995416032
0.93998991369805
0.93924574755024
0.9385328753156
0.9378472055698
0.93718470482225
0.93654109365367
0.93591183065958
0.93529248436343
0.93467933254382
0.93399574050534
0.93338867574854
0.9327832430471
0.93217672003741
0.93156200388655
0.93092442313404
0.93024027954754
0.92947892358486
0.92861022317945
0.92761704462404
0.92650814915623
0.92532421308278
0.92413271855061
0.92301318815838
0.92203592821925
0.92125250583521
0.92068605551272
0.92032632382167
0.92013072339133
0.92004341527367
0.92001545435916
0.9200174673688
0.92002927229707
0.92004410089855
0.92005770124669
0.92006772192079
0.92007256375898
0.92007218031817
0.92006256964856
0.92004041874869
0.92000315178899
0.91994853202268
0.91987468999061
0.9197801932571
0.91966409528747
0.91952604525447
0.91936619107348
0.91918493917087
0.91898299361529
0.91876127362395
0.91851915761364
0.91825317124482
0.91795646988977
0.91761953884626
0.91723278789606
0.9167906921321
0.91629157745271
0.91573988243425
0.91514739778258
0.91453470637767
0.91393558882607
0.91339596843479
0.91297584331719
0.91273354268901
0.91268863196463
0.91274436875654
0.9772538349825
0.98477350851003
0.98576048800374
0.98627860808833
0.98651681096371
0.98653648948371
0.98635518045447
0.98599355776691
0.98549236867688
0.98486766647462
0.98412589600735
0.98327919528538
0.98233607878063
0.98130333245933
0.98019402508879
0.97902548975964
0.97781708797563
0.97658770112003
0.97535444615265
0.97413390381306
0.97293796935274
0.97177496683189
0.97065056366011
0.96956796500478
0.96852863652981
0.96753289930763
0.96658012698162
0.96566913060129
0.96479823871574
0.96396552732545
0.96316901830424
0.96240672798373
0.96167668266376
0.96097699132194
0.96030584447061
0.95966153574436
0.95904245126189
0.95844707757266
0.95787399486739
0.9573218890217
0.95678953800676
0.95627581078346
0.9557796489827
0.95530007761186
0.95483618965506
0.95438714015235
0.95395213722686
0.95353044299264
0.95312137054767
0.95272427680568
0.95233856427207
0.95196367372202
0.95159908440538
0.95124430769144
0.95089888881175
0.9505624039088
0.95023445518008
0.94991466807767
0.94960268633874
0.94929817463207
0.94900081800683
0.94871032180813
0.94842640967242
0.94814882056592
0.94787730741558
0.94761163615314
0.94735158232071
0.94709692557275
0.94682477930477
0.94522340564466
0.94403148046149
0.94307444212618
0.94217421178983
0.94132257098521
0.94051567651855
0.93974864643731
0.93901659687986
0.93831504348021
0.93763975174598
0.93698643804181
0.93635063495292
0.93572782175593
0.93511385381824
0.93450551916203
0.93397878250887
0.93337633134963
0.93277636145824
0.93217629701405
0.93156933785902
0.93094130408545
0.93026907432311
0.92952237584479
0.9286707493239
0.92769558452287
0.92660308623978
0.92543102232324
0.92424460720132
0.9231227488555
0.92213633879341
0.9213380621838
0.92075301809336
0.92037362413415
0.92016131193333
0.92006214806068
0.92002716578015
0.92002564969452
0.9200350994825
0.92004816035763
0.92005987591495
0.92006755168541
0.92006995236661
0.92006486786227
0.92004665233877
0.92001102213478
0.9199536221119
0.91987029198945
0.91975712398967
0.91961072544937
0.919428364486
0.91920836401887
0.91895015676325
0.91865397966845
0.91832097635559
0.91795205959224
0.91754485255358
0.91709138297234
0.91657742195098
0.91598446902712
0.9152965271137
0.91450828899597
0.91362543411507
0.91266747783411
0.91166822254898
0.91067779911575
0.90975867048744
0.90898807244981
0.90845032785633
0.90821049028438
0.90825279444927
0.90840498671462
0.97196944390642
0.97952610994415
0.98071221443625
0.98145901597232
0.98196625536331
0.98229745476744
0.98244156575057
0.98241733206106
0.98223140644492
0.98188401567678
0.98141819891379
0.98083516500393
0.9801325802217
0.97932783249376
0.9784380737829
0.97747501645357
0.97645575932042
0.97539782363288
0.97431783228043
0.97323052838719
0.97214938246257
0.97108516413111
0.97004554820407
0.96903574462678
0.96805893770976
0.96711688349596
0.96621039362376
0.96533932597738
0.96450293126906
0.96370014247264
0.96292967856924
0.96219011517114
0.96148000125289
0.96079784841922
0.96014218810942
0.95951161186871
0.95890475278935
0.95832027945336
0.9577569360878
0.95721355864069
0.95668905751158
0.95618239897805
0.95569261700931
0.95521881862871
0.9547601655053
0.95431587259471
0.95388520704671
0.95346747642683
0.9530620304622
0.95266826193676
0.95228560576059
0.95191353511578
0.95155155600941
0.95119920227703
0.95085603542576
0.95052164326996
0.95019564054264
0.94987766534845
0.94956737548947
0.94926444732388
0.9489685758384
0.94867947490642
0.948396875722
0.94812052447003
0.94785018027783
0.94758561559458
0.9473266154616
0.94707298688667
0.94677585147277
0.9450755243117
0.94394074321192
0.94299120341866
0.94209610125136
0.9412491984099
0.94044687001201
0.93968449889294
0.93895733492656
0.93826082798947
0.93759054861941
0.93694202117317
0.93631069906545
0.93569214225986
0.93508242583485
0.93447862859723
0.93395696630191
0.93336024912602
0.93276705403793
0.93217502321814
0.93157765301686
0.93096139064252
0.93030384685512
0.92957528227042
0.92874494981962
0.9277925343191
0.92672112107745
0.92556480248865
0.92438576367904
0.92326190570754
0.92226481037763
0.92144858062696
0.92084076934596
0.92043695894392
0.92020332169945
0.92008858468536
0.920043610554
0.92003761076244
0.92004358508969
0.92005408263701
0.92006324129975
0.92006809022817
0.92006747396789
0.92005565774064
0.92002624386886
0.91997247782365
0.91988698217052
0.91976205022593
0.91958975176295
0.91936244887354
0.91907308592167
0.91871620706626
0.91828867750735
0.9177900555857
0.91722185382997
0.91658412054094
0.91587079077967
0.91506474309454
0.9141356444076
0.9130515185087
0.91179496162246
0.91037450928526
0.90882719522659
0.90721564542113
0.9056226237439
0.90414236002339
0.90287698686641
0.90193013541462
0.90138966901759
0.90126625250202
0.90147591272573
0.90171387439686
0.96773630258325
0.97572814296211
0.97697642338745
0.97775597111084
0.97833912466508
0.97877108970167
0.9790797827997
0.97923017050059
0.97923645467612
0.97911794552189
0.97884186654646
0.97845554495174
0.97796886902139
0.97736731688303
0.97666584656681
0.97588480329941
0.9750377025772
0.97413840615748
0.97320349812367
0.9722476134865
0.97128325207428
0.97032087538644
0.96936990147728
0.96843695177324
0.96752678613737
0.966642609593
0.96578633564988
0.96495890103523
0.9641605963107
0.96339118916144
0.96265003037487
0.96193626984485
0.96124891731058
0.96058688946631
0.95994907733758
0.95933436614261
0.95874162931681
0.95816978986773
0.95761778369434
0.95708459405691
0.95656928327103
0.95607095655398
0.95558874462477
0.95512181891913
0.95466942324743
0.95423084192367
0.95380539116673
0.95339242875157
0.95299135563816
0.9526016040492
0.9522226411983
0.95185397419559
0.95149513694191
0.95114569004543
0.95080521863237
0.95047332867262
0.95014964903831
0.94983383177548
0.94952555041742
0.94922449705846
0.9489303801343
0.94864292425407
0.94836187026331
0.94808697379771
0.9478180033176
0.94755473787561
0.94729697201169
0.9470445125455
0.94668380576492
0.94491474332333
0.94383325747097
0.94289209959633
0.94200323179681
0.94116219338269
0.9403655313605
0.93960883382289
0.93888744769912
0.93819675270873
0.93753214697612
0.9368890002896
0.93626273194404
0.93564903072835
0.93504423946603
0.93444576989359
0.93393002813652
0.9333401260269
0.93275495942515
0.93217242905423
0.93158633096078
0.93098384327799
0.93034347460963
0.92963620002584
0.928831095589
0.9279060303927
0.92686051371117
0.92572422026534
0.92455546028388
0.92343059028139
0.92242190929067
0.92158521571495
0.92095091279354
0.92051843395739
0.92025888102823
0.92012461520652
0.92006632600124
0.92005433639259
0.92005581711147
0.92006291934498
0.92006888520479
0.92007095627475
0.92006577908089
0.92004589508878
0.92000291785859
0.91992619213221
0.9198032387075
0.9196200432902
0.91936085676343
0.91900915547332
0.91854801954479
0.91796285062578
0.91724338508078
0.91638664068742
0.91539463298556
0.91426595395086
0.91298854765626
0.91152925858112
0.90983560506435
0.90786930973841
0.90564410788607
0.90322960021754
0.90075005624064
0.8983561661494
0.89618013558275
0.894348092096
0.892966116082
0.89211050483167
0.89179128477511
0.89192209417822
0.89229877292612
0.89254514016654
0.96379252913333
0.97270796931098
0.97403046745346
0.97480754287765
0.97539607297925
0.97586345156117
0.97622450666437
0.97647156333294
0.97659237721021
0.97659794319401
0.97649411467778
0.97624592519011
0.97589807622597
0.9754673371688
0.9749346993538
0.97430986566904
0.97361181571573
0.97285514132762
0.97205325942273
0.97121890340523
0.97036544892218
0.96950342312765
0.96864113242497
0.96778654844187
0.96694517133106
0.96612116114922
0.96531750579199
0.9645362204117
0.96377847244421
0.96304475588671
0.96233509776983
0.96164924114219
0.96098668112967
0.96034673039623
0.95972862385571
0.95913154641431
0.95855462466493
0.95799698459736
0.957457758477
0.95693609165845
0.95643118778772
0.95594228057414
0.95546863181756
0.95500951460589
0.95456423079534
0.95413214884497
0.95371266433136
0.95330518875948
0.9529091620294
0.95252406345981
0.95214940230782
0.95178471188033
0.95142955530602
0.95108351893599
0.95074620935223
0.95041725399278
0.95009630006215
0.94978301608791
0.94947709252402
0.94917823776418
0.94888617577331
0.94860064370601
0.94832139260989
0.9480481879869
0.94778080599882
0.94751903164508
0.94726265708924
0.94701145030078
0.94651151575292
0.94474568755573
0.94370865753323
0.9427770307477
0.94189580822805
0.94106187468434
0.94027198200359
0.93952191397601
0.93880710157846
0.93812286739247
0.93746447711708
0.9368272008663
0.93620648133793
0.93559818848177
0.93499897548174
0.93440661729553
0.93389764199562
0.93331561100315
0.93273966280333
0.93216799801593
0.93159467621015
0.931007717991
0.93038668004431
0.92970346218615
0.92892715005224
0.92803381382912
0.92701906277431
0.92590746242896
0.92475265997933
0.92362850845131
0.92260810813028
0.92174914436101
0.9210852557961
0.92062036171106
0.92033039762111
0.9201724392634
0.92009716254224
0.92007688041042
0.92007324507112
0.92007620012301
0.92007872910914
0.9200776276338
0.92006699070801
0.92003850456229
0.91998058985354
0.91987717799357
0.91970729641996
0.91944575391328
0.91906323015172
0.91852611598768
0.91779707563946
0.91684221597958