/*--------------------------------*- C++ -*----------------------------------*\
| =========                 |                                                 |
| \\      /  F ield         | OpenFOAM: The Open Source CFD Toolbox           |
|  \\    /   O peration     | Version:  2312                                  |
|   \\  /    A nd           | Website:  www.openfoam.com                      |
|    \\/     M anipulation  |                                                 |
\*---------------------------------------------------------------------------*/
FoamFile
{
    version     2.0;
    format      ascii;
    arch        "LSB;label=32;scalar=64";
    class       volScalarField;
    location    "0.00016";
    object      Ybar.Liq;
}
// * * * * * * * * * * * * * * * * * * * * * * * * * * * * * * * * * * * * * //

dimensions      [0 0 0 0 0 0 0];

internalField   nonuniform List<scalar> 
109340
(
0.99909188134935
0.99908824009881
0.99908127465084
0.99907277698434
0.99906330113354
0.99905332305828
0.99904302555922
0.99903247810447
0.99902167821239
0.99901014506432
0.99899704652606
0.99898146269456
0.99896227156411
0.99893811511692
0.99890737690631
0.99886814584808
0.99881815034311
0.99875467160476
0.99867441689284
0.998573348986
0.99844644398274
0.99828739226265
0.99808818789078
0.99783857325879
0.99752524927696
0.99713076450676
0.99663187379152
0.99599704766647
0.99518252701244
0.99412577717272
0.99273404307563
0.99086304748397
0.98827467480441
0.98454800336439
0.97888228683075
0.96963632276402
0.99909242473428
0.99908775197182
0.99907992926843
0.99907084311601
0.99906107199564
0.9990510355672
0.99904085456784
0.99903048420944
0.99901963055867
0.99900778190093
0.99899417822936
0.99897785652674
0.99895763412276
0.9989320881084
0.99889952999776
0.99885795931269
0.99880500577567
0.9987378227126
0.99865295100404
0.99854613334329
0.99841206074234
0.99824404723288
0.99803358881438
0.99776976065133
0.99743835909508
0.99702068125884
0.99649171482694
0.99581736023523
0.99494998123501
0.99382092835401
0.99232723592416
0.99030628573211
0.98748355717482
0.98335771156667
0.97691697110056
0.96596970079755
0.99909444882216
0.99908905143078
0.99908044922156
0.99907115149529
0.99906146528862
0.99905157505512
0.99904145324613
0.99903106605367
0.99902020262145
0.99900836289538
0.99899479692522
0.99897853754611
0.99895839685359
0.99893294851443
0.99890050290111
0.99885906339892
0.99880625942044
0.99873924757124
0.99865457137221
0.99854797768427
0.99841415844977
0.99824642823628
0.99803628348252
0.99777279682556
0.99744176157604
0.99702446815505
0.99649589494683
0.99582193280825
0.99495494025614
0.99382625575067
0.99233285725388
0.99031173998325
0.98748544552141
0.98333640092839
0.97677193312057
0.96514919733597
0.99909725903479
0.99909077126669
0.99908175039199
0.99907220311866
0.99906233988061
0.99905225139324
0.99904196662535
0.99903147400097
0.99902055763681
0.99900871555009
0.99899519801022
0.9989790325985
0.99895902425676
0.9989337404442
0.99890148402726
0.99886024992741
0.99880765953442
0.99874085964447
0.99865637767759
0.99854994281832
0.99841620866805
0.99824844090609
0.99803806486949
0.99777404873436
0.99744204349555
0.9970231316607
0.9964919974521
0.99581411149652
0.99494122645103
0.99380377751702
0.99229731145375
0.99025633029584
0.98739622087616
0.98317236500916
0.97636073291441
0.96347715281605
0.99910167379527
0.99909327442772
0.99908295794753
0.99907276921297
0.99906264280748
0.99905245834246
0.99904214406902
0.99903167117282
0.99902081185564
0.9990090599572
0.99899567042434
0.9989796632416
0.99895982300649
0.99893468591674
0.99890250822488
0.99886121728499
0.99880834162308
0.9987409021097
0.99865520687049
0.99854676881981
0.99840986567689
0.99823727226683
0.9980197351475
0.99774526568677
0.99739820467272
0.99695779103422
0.99639612950152
0.99567504714604
0.99474108293399
0.99351704899404
0.99188682619274
0.98966715543999
0.98653962120717
0.98188309629128
0.9742105082471
0.95829955285524
0.999109842924
0.99909454814553
0.9990831446923
0.99907269775595
0.99906251349844
0.99905230691744
0.99904197697861
0.99903142799976
0.99902030005887
0.99900787820162
0.99899312912312
0.99897469321812
0.99895087261362
0.99891959809216
0.99887837302831
0.99882418941891
0.99875340879178
0.99866163307375
0.99854358810004
0.99839196657882
0.99819772978045
0.99794925575729
0.99763146647371
0.99722465940103
0.99670288887885
0.9960316427567
0.99516446665656
0.99403781409395
0.99256289122696
0.99061191778625
0.98799287843031
0.98440699331323
0.97933170859221
0.97174814951712
0.95914960460818
0.93101326494355
0.95371939769857
0.92702578956458
0.88604286293049
0.83038481810378
0.76259021761494
0.68533871444152
0.60194855014039
0.51609214468981
0.4317545848314
0.35282445657987
0.28074698907109
0.22159832517506
0.17259850489572
0.13364891044078
0.10366871911281
0.080723685448733
0.063352132651049
0.050170789011585
0.040123000279352
0.032455062774825
0.026559387095902
0.02195894958059
0.01833792494468
0.015464094470288
0.013153622587526
0.011293588346452
0.0097746816291515
0.0084844739919029
0.0074635041033816
0.0065611741376165
0.0058298319798999
0.0051942054400821
0.0046497226545216
0.0041884406638087
0.0037779865288717
0.0034324889562803
0.0031193501051818
0.0028531823739749
0.0026116269808803
0.002401601964711
0.0022137610247755
0.0020439454223403
0.0018961384363101
0.0017570630720349
0.0016386168350097
0.0015243832180864
0.0014275315897336
0.0013340572415827
0.0012528748337858
0.001176974430732
0.0011072048600532
0.0010434868210906
0.00098478320910086
0.00093076596911995
0.00088085642351068
0.00083467647305345
0.00079183788661269
0.0007520566964954
0.00071505967253418
0.00068060690722851
0.00064846824902084
0.00061844374845601
0.00059035808546252
0.0005640582821075
0.0005394031397909
0.00051626305721434
0.00049452041801477
0.00047406524826739
0.00045460203567616
0.00064791688994451
0.0027198689915135
0.003107956600236
0.003103255062352
0.003088972266221
0.0030827298122498
0.0030826611945232
0.0030858045215112
0.0030887370648789
0.003088755346024
0.0030844194328515
0.0030751672342403
0.0030613245955327
0.0030436220147059
0.0030229923566842
0.0029972859405119
0.0029733826740566
0.0029491104362665
0.0029245576332392
0.0028998998336479
0.0028748688898039
0.0028487507627301
0.0028205097323988
0.0027891239772226
0.0027541437969234
0.0027161842926589
0.0026770559201275
0.0026393508967245
0.0026054770652001
0.0025771641573322
0.0025553683697502
0.0025397707991568
0.0025294138285565
0.0025226699092195
0.0025180247528031
0.0025127550759618
0.0025101395523403
0.0025081536821194
0.0025067429236884
0.0025058520229369
0.0025053683788075
0.0025052327924569
0.0025054145070048
0.0025058687109448
0.0025069509635932
0.0025068785612769
0.0025067045930442
0.0025058736689205
0.0025046574565073
0.0025028669191584
0.0025004878501229
0.0024976383496233
0.0024942884563363
0.0024905121538309
0.002486310095618
0.0024818790968642
0.002477033266271
0.0024718006534179
0.002466210283139
0.0024603757489047
0.002454307391028
0.0024479890356692
0.0024415004269307
0.0024346650758907
0.0024276757732132
0.0024208247085001
0.0024142292021992
0.0024087090219419
0.0024043688143748
0.0024027806081793
0.0023975663302094
0.94598528877451
0.91181428154525
0.86109620348316
0.79617570585325
0.72094448563448
0.63832548797461
0.55283266087099
0.46837851419199
0.38858105667303
0.31610270288286
0.25261652198393
0.19877456622206
0.15588191870229
0.12174089273386
0.095027535884985
0.074518242310942
0.058818539987067
0.046829136522734
0.037662005171989
0.03060628865204
0.025135884152438
0.020860318520562
0.017482477419415
0.014786018137534
0.012614780644809
0.010849543258296
0.0094014648344742
0.0082030164926709
0.0072025671489601
0.0063627903626178
0.0056501124630313
0.0050450508944476
0.0045239369241189
0.0040759031386224
0.0036859393038483
0.0033469923903139
0.0030489742519727
0.0027876398661351
0.0025558773668976
0.0023509955219128
0.0021678275237394
0.0020048246627037
0.0018580189480263
0.0017265019810614
0.0016073902595563
0.0014999142989962
0.0014021679379039
0.0013133163040537
0.0012322818387044
0.0011581592766848
0.0010902644468221
0.0010278100115133
0.00097038005802858
0.00091740704555181
0.00086848272937422
0.00082317681923922
0.0007811579841661
0.00074211969940249
0.00070579774754459
0.00067195197108511
0.00064036920594159
0.00061085690478515
0.00058324359357362
0.00055737631779759
0.00053311918294571
0.00051034952076967
0.00048895378026564
0.00046882838586143
0.00045104460552784
0.0010929047766722
0.0029423714262546
0.003112831019071
0.003099201004618
0.0030867489925181
0.0030821142236468
0.003083010031206
0.0030862635177859
0.0030885667704442
0.0030874961578661
0.00308185018472
0.0030713371541121
0.0030563965086352
0.0030378253127098
0.0030165528337599
0.002996251556474
0.0029722023121585
0.002947861540747
0.0029232817133924
0.0028986004954387
0.0028735428934641
0.0028473882343981
0.0028190979438193
0.0027876507440782
0.0027526038056901
0.0027145835967613
0.0026754185283476
0.0026377188814617
0.0026039113090229
0.0025757246369283
0.0025541038118685
0.002538710462721
0.0025285613956523
0.0025220211750223
0.0025175847155336
0.0025125018427124
0.0025099766769807
0.0025080505815317
0.0025066700595415
0.0025057962993874
0.0025053266349571
0.0025051971651176
0.0025053705840833
0.0025057942606812
0.0025068495155564
0.0025067225120048
0.0025065369329149
0.0025056829664394
0.0025044360212688
0.0025026015544461
0.0025001679069716
0.0024972537649018
0.0024938267670109
0.002489961257206
0.0024856609252189
0.0024811187039692
0.0024761477009022
0.0024707791698726
0.00246504201786
0.0024590578452984
0.0024528103570377
0.0024462769740099
0.0024395235301559
0.0024323938191444
0.0024250746453351
0.0024178771114844
0.0024109512898514
0.002405125093507
0.0024004984411583
0.0023986075078034
0.002393334673938
0.94177290642286
0.89869625689093
0.83690369234027
0.75953231648898
0.67572964408301
0.58944394681191
0.50441447912998
0.4242422176504
0.35122709260066
0.28579918827825
0.23083701269578
0.18415357090258
0.14581951203496
0.11503968378776
0.090684268378595
0.071656969152238
0.056929747501055
0.045591898554966
0.036840441989944
0.030041079647763
0.02473937772955
0.020579914319408
0.017278667209283
0.014635933836229
0.012503981202104
0.010765835987524
0.0093362326719681
0.0081529221102139
0.007163777697622
0.0063314987884235
0.0056260134748769
0.0050239990512314
0.0045079692072218
0.0040617847179796
0.003675198101856
0.0033371813796975
0.0030415571925138
0.0027807611441825
0.00255065005458
0.0023460532351807
0.0021640992137245
0.0020012234604359
0.0018552210683593
0.0017238395605372
0.0016051846443008
0.0014979063866626
0.0014003618860699
0.0013118035587193
0.0012308232507288
0.0011569277951251
0.0010890885339095
0.0010268467633949
0.00096949787419728
0.00091660160282264
0.00086773352852485
0.00082249073026769
0.00078053876566064
0.00074155874753195
0.00070528699995742
0.00067148441092211
0.00063994183875719
0.00061046611879034
0.00058288502415927
0.0005570455254567
0.00053281313620007
0.00051006556221388
0.00048869105304298
0.00046858893894124
0.00045094275283284
0.0011201696950209
0.0029491022477223
0.0031128739285996
0.0030987950945481
0.0030863317873112
0.0030816937787225
0.0030825695281712
0.0030857884379887
0.0030880700548574
0.0030869998652643
0.0030813810383464
0.0030709164503065
0.0030560365537576
0.0030375303350783
0.0030163135775913
0.0029960836543942
0.0029720906523698
0.0029477603708949
0.0029232350937999
0.002898610960437
0.0028736058662743
0.002847508665462
0.0028192870657805
0.0027879194291241
0.0027529514276736
0.0027149929439955
0.0026758606679392
0.0026381549933391
0.0026042988243837
0.0025760502122852
0.0025543340742117
0.0025388860746682
0.002528667444752
0.0025220662111429
0.0025175551289895
0.0025125294137193
0.0025099723483427
0.0025080404189996
0.0025066460134369
0.00250576206247
0.0025052915804592
0.0025051638279731
0.0025053234934919
0.0025056569867994
0.0025066433627306
0.0025064951211675
0.0025062215456535
0.0025052847212245
0.0025039317521057
0.0025019679285495
0.0024993840040742
0.0024962988905055
0.0024926755652009
0.002488591492863
0.0024840648535383
0.0024792649383881
0.0024740181589071
0.0024683467176769
0.0024622759420417
0.0024559259197386
0.0024492435439023
0.002442191332892
0.0024348462844055
0.0024271028070233
0.0024190410515459
0.0024111008193052
0.0024034934870271
0.0023970634186262
0.0023919764290295
0.0023892732539102
0.002383855489551
0.93235716783569
0.86896068305507
0.78451985975253
0.6898603912363
0.59625430738043
0.50995361283711
0.43157403192337
0.36228724812113
0.30132242674272
0.24794756758865
0.20381172546521
0.16548625445773
0.13315950639237
0.10658701036935
0.085040681308473
0.067938733344751
0.054480862723639
0.043940514536986
0.035709678371896
0.029275408885442
0.024210950718898
0.020192642899901
0.016998623925336
0.014432806663065
0.012350021547228
0.010647896460516
0.0092467855721327
0.0080825225878281
0.0071083128055777
0.006287205781307
0.0055906655635978
0.0049950256673171
0.0044841159791437
0.0040423301405569
0.0036587687484057
0.0033237528815096
0.0030301274142296
0.0027712511730533
0.002542517953079
0.0023392309268012
0.002158236183536
0.0019961449555074
0.0018509357125574
0.0017200109746457
0.0016019593798845
0.0014949438751603
0.0013978890007129
0.0013094978259687
0.0012288362932903
0.0011550997997097
0.0010874639498415
0.0010253918834557
0.00096819744508645
0.00091544974258014
0.00086667618761364
0.00082153100269045
0.00077966071890658
0.00074075902106153
0.00070455996392837
0.00067082433428786
0.00063934013875751
0.00060991481352497
0.00058237930038688
0.00055658243402324
0.00053238825438179
0.00050967282903639
0.0004883252024725
0.00046824848435343
0.00045086286190865
0.0011620431983627
0.0029584386019311
0.0031129012923213
0.0030981658793683
0.0030857096736071
0.0030810756828581
0.0030819226501391
0.0030850962232443
0.0030873470125358
0.003086278512913
0.0030806985573914
0.0030703028574723
0.0030555095960812
0.0030370975446535
0.0030159725163682
0.0029958552313225
0.0029719315462368
0.0029476570578239
0.0029232016712869
0.0028986534825781
0.0028737260728464
0.0028477186774327
0.0028196042073465
0.0027883591788908
0.0027535135386104
0.0027156530557099
0.0026765718474176
0.0026388555536649
0.0026049473236243
0.0025766144704793
0.0025547906681653
0.0025392406454117
0.0025289245233274
0.00252225242791
0.0025176955380211
0.0025126297936171
0.0025100491264756
0.0025080868756394
0.0025066600060309
0.0025057490655409
0.0025052546740822
0.0025050900303895
0.0025052233216359
0.0025055234248122
0.0025063392388087
0.0025061156118243
0.0025057318659426
0.0025046683852991
0.0025031480454856
0.0025009768808585
0.0024981505136681
0.002494786685876
0.0024908424112366
0.0024864000465691
0.0024815184676645
0.0024762870405745
0.0024705815575071
0.0024644074451975
0.0024577913964468
0.0024508369250268
0.0024434174864715
0.0024355300618875
0.0024271884447548
0.0024183684910234
0.0024091598719973
0.0024000455482974
0.0023913540314671
0.0023839130297087
0.0023780727878288
0.0023748682563416
0.0023688043013864
0.90082040417443
0.78444137779187
0.66063283291714
0.55539417420335
0.46996267156602
0.39986301220441
0.34163142094816
0.29143385784777
0.24776921542597
0.20946467491418
0.17519736881559
0.14502788530617
0.11896303821399
0.096895128353889
0.078570404766143
0.063584300596937
0.051541126296529
0.041956140143998
0.034350582917393
0.028321180868097
0.023535314602458
0.019722206941368
0.016649633625137
0.014170789684413
0.01215485768095
0.010501105802297
0.0091318939954881
0.007992706911191
0.007037638556348
0.0062307941486503
0.0055448317886478
0.0049583723418727
0.0044535631256696
0.0040172049870285
0.0036377352209669
0.0033064023248496
0.0030152926369848
0.0027589686616923
0.0025319485156723
0.0023303507350257
0.0021504878540947
0.0019896324346693
0.001845182411267
0.0017150734687754
0.0015975977901809
0.0014911442316069
0.0013945366856741
0.0013064877136446
0.0012262021888874
0.0011527050171846
0.0010853544913415
0.0010234565482155
0.00096647182773838
0.00091390584769434
0.00086529205870542
0.00082027382632085
0.00077850631085161
0.00073970629354985
0.0007036018509049
0.00066995238559142
0.00063854281922891
0.00060918500016189
0.00058171274974235
0.00055597380258783
0.00053183046756608
0.00050915872678566
0.00048784942229634
0.00046780049230819
0.00045081455604812
0.001218659674773
0.0029701133908429
0.0031127100530745
0.0030972886758472
0.0030848743078702
0.0030802501603788
0.0030810603150683
0.003084177597302
0.0030863902202238
0.0030853255135612
0.0030797969574019
0.00306949046472
0.003054809466465
0.0030365207529851
0.0030155198913223
0.0029955422027668
0.0029717128997373
0.002947528161369
0.0029231651233173
0.0028987158241505
0.002873891017409
0.0028480042095569
0.002820035624849
0.0027889565425741
0.0027542761320024
0.002716549070622
0.0026775453891731
0.0026398316258514
0.0026058615763675
0.0025774014065073
0.0025554221342218
0.002539721242988
0.0025292747168324
0.0025225064411249
0.0025178891296023
0.0025127801964979
0.0025101629694695
0.0025081693766062
0.0025067074867703
0.0025057503365248
0.0025052126555375
0.0025050070360204
0.0025050973196265
0.0025053219554573
0.0025059578638983
0.0025056347548629
0.0025050908364039
0.0025038322467175
0.0025020613466596
0.0024995831479064
0.0024963964662106
0.0024926149850482
0.0024881948680533
0.0024832269844854
0.002477814237772
0.0024719567113806
0.0024655714994169
0.0024586493653855
0.0024512161368704
0.0024433300063626
0.0024348086310945
0.0024256677303022
0.002415866844498
0.002405474239913
0.0023946044809813
0.0023838526738793
0.0023735797966068
0.0023648113214883
0.0023581104175242
0.0023542866607624
0.0023473823136911
0.67671495450594
0.48918846179255
0.41009891532334
0.36186027255381
0.32139585350811
0.28714994457853
0.25510093332505
0.22592742284405
0.19793878878776
0.17180281378858
0.14721008877101
0.12475020964268
0.10455261872439
0.086794092182883
0.071583708002524
0.058816744220205
0.048282688984742
0.039706488978456
0.032787081381213
0.02722464311389
0.022752612183137
0.019148804423594
0.016239050758906
0.013864238528037
0.011921365790927
0.010321614025875
0.008995784180811
0.0078850814844152
0.0069517270708832
0.0061623674857635
0.0054899652236538
0.0049132403466388
0.0044166552059346
0.0039867985955646
0.0036123040813673
0.0032850007855731
0.0029975212725919
0.0027439088169576
0.0025190991079659
0.0023193950337851
0.0021411327286233
0.0019815666167636
0.0018381241271631
0.0017089875293694
0.0015922418866947
0.0014864779440018
0.0013903498835949
0.0013028231491747
0.001222929976587
0.0011497860400501
0.0010827311814799
0.0010210825164673
0.0009643472783777
0.00091198318078499
0.00086356780780156
0.00081870699491425
0.00077708240008506
0.00073840963604662
0.00070241480776308
0.00066886388597284
0.00063754749253443
0.0006082783711346
0.00058088521132062
0.00055521618444863
0.00053113629042747
0.00050852311213632
0.00048726496601064
0.00046726016092217
0.00045085704302463
0.0012878667075152
0.0029829394884601
0.0031121875514064
0.0030961506488853
0.0030838150083711
0.0030792061045549
0.0030799713522983
0.0030830230025683
0.0030851907382057
0.0030841308439931
0.0030786658609672
0.0030684696352813
0.0030539269066857
0.0030357902737101
0.0030149435675746
0.0029951317869235
0.0029714226258367
0.0029473572578623
0.0029231106093303
0.002898784315519
0.0028740892490685
0.002848352136629
0.0028205659575453
0.0027896956917387
0.0027552242147252
0.0027176762498082
0.0026787690018038
0.0026410449818931
0.0026069874391132
0.0025783725695921
0.0025562064993982
0.0025403206896272
0.002529718140076
0.0025228331477319
0.002518100287782
0.0025129611674233
0.0025103064322324
0.0025082713319034
0.0025067633213484
0.002505755440981
0.0025051625992745
0.0025048982119412
0.0025049425986308
0.002505085763829
0.0025055065135628
0.002505039012068
0.0025042893551442
0.0025027694704273
0.0025006609194404
0.0024977660922036
0.0024940822740247
0.0024897142924905
0.0024846338616858
0.0024789353984678
0.0024727322675994
0.0024659101954153
0.0024585407904515
0.0024505780517631
0.0024419871723314
0.0024327463287591
0.002422633478544
0.0024116777720009
0.0023998332887527
0.0023872537527053
0.0023741263220601
0.0023611329455019
0.0023488286206034
0.0023385024737824
0.0023308406834729
0.002326421431749
0.0023185870989144
0.02279969810959
0.15558537382571
0.19113123530703
0.20451580591336
0.20670489749924
0.20055802924149
0.18883975901926
0.17447690734351
0.15876112569217
0.14237611567284
0.12590494100314
0.10974349398789
0.094382885689857
0.08019125700292
0.067468230972816
0.056384662229337
0.046936569831069
0.039035751962618
0.032516502821803
0.02718102598155
0.022831435142584
0.019289639842245
0.0163986430858
0.01403662232728
0.012088774003224
0.010474237721188
0.0091337697735574
0.008012211750882
0.0070663423072105
0.0062632384707527
0.0055798832401752
0.0049944622869609
0.0044891081634008
0.0040510466478704
0.0036700938619155
0.0033370145675609
0.0030441188012458
0.0027858595765929
0.0025571767579555
0.0023538478063429
0.002172322004254
0.0020099083480189
0.0018640119684251
0.0017325928034223
0.0016137758372881
0.0015062082540863
0.0014084718788279
0.001319491402083
0.0012382337693416
0.0011639053866676
0.0010957729135291
0.0010331603235679
0.00097552070539173
0.00092233464168457
0.00087320058694491
0.00082769632966954
0.00078547522550924
0.00074623523430919
0.00070972381935907
0.00067570884129213
0.00064396747540438
0.00061430431588808
0.00058654680507553
0.00056054422596013
0.00053615727553162
0.00051325863839696
0.00049173113541005
0.00047147272586525
0.00045238554691743
0.00080474581267995
0.0028395608222187
0.0031096273741807
0.0030990063387207
0.0030847925898869
0.0030785102557916
0.0030781283006441
0.0030808491004059
0.0030834345329147
0.0030833069004549
0.0030790844421779
0.0030701729426106
0.0030568149048007
0.003039670216808
0.0030195998818075
0.0029946110014642
0.0029710480951178
0.0029471301513461
0.0029230257476857
0.0028988467232552
0.0028743098108465
0.0028487522898058
0.0028211819059568
0.0027905613406676
0.0027563457529757
0.0027190056711926
0.0026802103012972
0.002642480322268
0.0026083240099527
0.0025795249074622
0.0025571328069329
0.0025410203199365
0.0025302262944414
0.0025232406429319
0.0025185087121753
0.0025134374534173
0.0025107041441848
0.0025085948688461
0.0025069974307545
0.0025058808534222
0.002505157420934
0.0025047826023611
0.0025047259280983
0.002504673304411
0.0025046539807443
0.0025038575287784
0.0025026744970105
0.0025006023577978
0.0024977933729013
0.0024940337931515
0.0024892943804411
0.002483648232664
0.0024771607269328
0.0024698872713501
0.0024618712171236
0.0024531367365287
0.0024437441160524
0.0024335676895013
0.0024224524094707
0.0024102668797007
0.002396706737108
0.0023817703693499
0.0023655040161201
0.002348391638721
0.0023307177336649
0.002313670381538
0.0022978861189906
0.0022849865113371
0.002275993702245
0.0022709189286043
0.0022616769104559
0.010076499723671
0.027123748771934
0.048425386848617
0.066197122439146
0.079705882493154
0.088650050904538
0.093330205980682
0.094493505305431
0.09187788126064
0.087350086199463
0.081369676451407
0.074282076364647
0.06664177667481
0.058841961179641
0.051258746544483
0.044195962691943
0.03783017961357
0.032238720256988
0.02743143944177
0.023357405355119
0.01993530708123
0.017075737919852
0.014690022420745
0.012697830678099
0.011032653383367
0.0096377178329877
0.0084613557458714
0.0074630617860536
0.0066158520148695
0.0058924737154429
0.0052717678437278
0.0047348937861782
0.0042699759807977
0.0038653401233659
0.003511516899072
0.0032002023919221
0.0029258869927745
0.00268318819029
0.0024676047454222
0.0022751861362153
0.0021030359048991
0.0019485996882319
0.0018096007426544
0.0016840384284107
0.0015703673907786
0.0014672265257236
0.0013733983324386
0.0012877912853586
0.0012095136513149
0.0011378196283732
0.0010720035608299
0.0010114619625508
0.00095563638709795
0.00090408962449307
0.00085640593421335
0.00081222197833068
0.00077120115565452
0.00073304579194273
0.00069751357950286
0.00066437821889984
0.00063343928699458
0.00060451098004654
0.00057742868600427
0.00055204689829674
0.00052823100383239
0.00050585583914447
0.00048480510526549
0.00046497907594611
0.00045151661325447
0.0015711623084648
0.003023098016748
0.0031082778886157
0.0030911321807333
0.0030791832413189
0.0030746270888406
0.0030752185325661
0.0030780233407844
0.0030800268187364
0.003078999477632
0.0030737930226767
0.0030640404173006
0.0030500554419959
0.003032535457652
0.0030123193226402
0.0029931771963524
0.002969996086016
0.002946450654098
0.002922714091859
0.002898905008184
0.0028747698843915
0.0028496661419019
0.0028226284292556
0.0027926185015558
0.0027590289349226
0.0027222112343724
0.0026837110487752
0.0026459808559607
0.0026115866863926
0.0025823352159859
0.002559381916894
0.0025427002271145
0.0025314036664233
0.0025240612421567
0.0025191274891115
0.0025140095634602
0.002511158008986
0.0025089525483619
0.0025072390244267
0.0025059805030391
0.002505102546104
0.0025045686401064
0.0025042771188568
0.0025039142594969
0.0025032939356194
0.0025018977304382
0.0024998496632599
0.0024966621577294
0.0024923678485447
0.002486727720098
0.0024796548467886
0.0024711411098062
0.0024613585301858
0.0024504485332151
0.0024384204842428
0.0024253035017688
0.0024111532943079
0.0023956163324827
0.0023781746112186
0.00235850414328
0.0023364671095686
0.0023122108758017
0.002286210133886
0.002259487616821
0.0022330168980737
0.0022083898232646
0.0021871646136116
0.0021712724725299
0.0021614932391797
0.0021565048344722
0.0021461788073299
0.0079824105308654
0.011880078458882
0.019228352966244
0.028125185494798
0.036504336353458
0.04363284870715
0.049189309282736
0.052991849642828
0.055146374145328
0.05544273443693
0.054123647996758
0.051694049514999
0.048307927006455
0.044292720285087
0.039958516953067
0.035551674163468
0.031296063800274
0.027339842684063
0.023768892771275
0.020614966225929
0.017873941228461
0.015516710451705
0.01350268131146
0.011787239748404
0.010327130042568
0.0090843798371189
0.0080243079167957
0.0071176595418177
0.0063398886300755
0.005668797114441
0.0050883690794086
0.0045849668922716
0.0041462762855292
0.0037628618504896
0.0034253305339145
0.0031277521829167
0.0028646451795533
0.0026311607960659
0.002422956537916
0.0022367345333307
0.0020699235984431
0.0019199317627507
0.0017846276227921
0.0016621546523017
0.0015511977281513
0.0014503530318922
0.0013584870846919
0.0012745484925653
0.0011977177143198
0.0011272850452875
0.0010625646109167
0.0010029619616213
0.00094795586266902
0.00089713567363698
0.00085009578450487
0.00080648022496924
0.00076596541782764
0.00072827349688725
0.00069316599314391
0.00066041019776666
0.00062980400210364
0.00060117179984371
0.00057435510453385
0.00054921562653143
0.00052562137291167
0.00050345088059682
0.00048258691754096
0.00046293808376875
0.00045569236536884
0.001839040230001
0.0030493531919603
0.0031042162791232
0.0030865320319959
0.0030748095542405
0.0030702471099723
0.003070667408543
0.0030732614990119
0.0030751347562883
0.0030741454396277
0.003069165895073
0.0030597965650108
0.0030462964506841
0.0030293140410565
0.0030096492508508
0.0029910999982748
0.0029684215193118
0.0029453411799373
0.0029220829653605
0.0028987496969699
0.0028751242395362
0.0028506047875789
0.0028242516087933
0.0027950118084964
0.0027622082664022
0.0027260541146557
0.0026879496705448
0.0026502544477607
0.0026155699695321
0.0025857826520451
0.0025621252716435
0.002544714908892
0.0025327601378817
0.0025249320817138
0.0025197159037279
0.0025144186344735
0.002511468978354
0.0025091679013838
0.0025073458073714
0.0025059531988481
0.0025049143218764
0.0025042217408171
0.0025036578081778
0.002502925039315
0.0025016325560798
0.0024993929772527
0.002496083904316
0.0024911594037892
0.0024844099421443
0.0024755339984858
0.0024644143163144
0.0024510400212314
0.0024357153888004
0.0024183758045871
0.0023992455584445
0.0023784265226463
0.0023554409737378
0.0023297994008566
0.0023006269265629
0.0022674864673454
0.00223093642616
0.0021918103494131
0.0021517443257185
0.0021127629130967
0.0020768777427529
0.0020461571932614
0.0020223433441575
0.00200690663839
0.0019991880519851
0.0019961676645969
0.0019854992471235
0.0063525156547015
0.0083930538546529
0.010638815250772
0.01505036506327
0.019970921348557
0.024667302168062
0.028862619165664
0.032299769199384
0.034858908218626
0.036452300979459
0.036999427802823
0.036457118515096
0.035215705005876
0.033340842827807
0.030975514332618
0.028348902965453
0.025610511739422
0.022903309358275
0.020333280723985
0.017965178984019
0.015831455878699
0.013938933768914
0.012278174145168
0.010831516747133
0.0095764905149265
0.0084899996870744
0.0075504572199841
0.0067370516881391
0.0060314794657326
0.0054181242130652
0.0048836531132143
0.0044163976965528
0.0040061299676933
0.0036449717937082
0.003326452131404
0.0030445574743691
0.0027942273300695
0.0025706359277545
0.0023708807272396
0.0021919872569619
0.0020312114489055
0.0018863143475658
0.0017551445732669
0.0016364228273601
0.0015285930201168
0.0014304535369268
0.001340835161685
0.0012588368166848
0.0011837475183913
0.0011147928043839
0.001051364623238
0.00099285168191611
0.00093882725223178
0.00088887581491651
0.00084260265891617
0.00079966620977547
0.00075974896529031
0.00072260365517002
0.00068798863890738
0.00065567879290637
0.0006254760021991
0.00059719856714614
0.00057069766034593
0.00054584128310604
0.00052249742891084
0.00050055244032708
0.00047989725966795
0.00046037294162038
0.00047186761525689
0.0021397342298897
0.0030713642371775
0.0030991035422821
0.0030808947214257
0.0030692992643319
0.0030646662719866
0.0030648620066053
0.0030672089867699
0.0030689380109274
0.0030679984269276
0.0030632852231872
0.0030543636125088
0.0030414322152597
0.0030250847387002
0.0030060730554986
0.0029882250837455
0.0029661812579877
0.0029436586310566
0.0029209877937227
0.0028982427041277
0.0028752374765986
0.0028514154265894
0.0028258803254548
0.0027975702328417
0.0027657287840079
0.0027304215487727