/*--------------------------------*- C++ -*----------------------------------*\
| =========                 |                                                 |
| \\      /  F ield         | OpenFOAM: The Open Source CFD Toolbox           |
|  \\    /   O peration     | Version:  2312                                  |
|   \\  /    A nd           | Website:  www.openfoam.com                      |
|    \\/     M anipulation  |                                                 |
\*---------------------------------------------------------------------------*/
FoamFile
{
    version     2.0;
    format      ascii;
    arch        "LSB;label=32;scalar=64";
    class       volScalarField;
    location    "0.00016";
    object      yPlus;
}
// * * * * * * * * * * * * * * * * * * * * * * * * * * * * * * * * * * * * * //

dimensions      [0 0 0 0 0 0 0];

internalField   uniform 0;

boundaryField
{
    inlet
    {
        type            calculated;
        value           uniform 0;
    }
    outlet
    {
        type            calculated;
        value           uniform 0;
    }
    nozzleWalls
    {
        type            calculated;
        value           nonuniform List<scalar> 
144
(
35.085731202635
34.671915450933
34.241520861756
33.816992631229
33.404709556175
33.006796146439
32.624003114058
32.256260058768
31.903574153902
31.565929855975
31.243420257363
30.93624005603
30.644680791519
30.369137460516
30.110110943958
29.868181022557
29.643958898318
29.437452358206
29.245718434831
29.066600031493
28.899819781965
28.745392198107
28.603394223782
28.473938797068
28.357281398723
28.253869866182
28.16445230367
28.090238177917
28.033167121121
27.996419836331
27.9857288988
28.010048193107
28.088816302282
28.269653119875
28.720683236606
30.876840772135
35.324670161368
34.98707919416
34.564500103454
34.13445774644
33.712657548019
33.303836391704
32.90966677297
32.530663642045
32.166678284839
31.817751205434
31.483877559511
31.165178289091
30.861872010272
30.574275240487
30.302810947784
30.048001531422
29.810442909708
29.590720984295
29.388265370726
29.199778727292
29.023749078679
28.860052634879
28.708723493751
28.569847508409
28.443561174132
28.330163174407
28.230165808738
28.144412679458
28.074265554917
28.021911506379
27.990983835015
27.988015349056
28.02350493704
28.121355009185
28.343940032166
28.943235914175
35.177448788566
34.778626888365
34.349011596881
33.922109052849
33.50648571581
33.104864087003
32.718271332639
32.346786755265
31.990336443179
31.648927521841
31.322619697892
31.011583612145
30.716086149346
30.436495528422
30.173288605985
29.927026669486
29.698325117906
29.487535382894
29.292438005005
29.110221473647
28.940358659992
28.782837613721
28.63772293854
28.505115281708
28.385225773188
28.278446011495
28.185438508433
28.107276165317
28.045681912001
28.003455545647
27.985518206179
27.999887112492
28.062245214758
28.20978354921
28.559137748425
29.829340240586
35.25984940694
34.884040006795
34.45677881553
34.027954693014
33.609144320708
33.203883445807
32.813485827544
32.438256463116
32.078037731221
31.732868585115
31.402773283923
31.087898084267
30.788485645883
30.504878104559
30.237525010773
29.986970152359
29.753821709372
29.538590524178
29.339946243141
29.154613944454
28.981668543068
28.821058227022
28.672833176505
28.537086340514
28.413988156847
28.303881179104
28.207349705336
28.12534492927
28.05939869781
28.011982703821
27.987250113303
27.992647991951
28.040715150756
28.16111063565
28.437738582112
29.278998722644
)
;
    }
    tipWalls
    {
        type            calculated;
        value           nonuniform List<scalar> 
304
(
9.2156685620504
3.018353630115
4.5540774402547
4.8726601804043
4.7604861145532
4.4744049920571
4.0527166228367
3.369645318023
2.3425355667288
1.2872555693403
0.3605082831937
0.56061429774833
0.56649962455129
0.50948467481888
0.44703761134205
0.39477090458445
0.35411832290458
0.32251567871357
0.29687683710032
0.27513148087809
0.25617222606632
0.2393585840402
0.22432277449041
0.21082534432319
0.19875485055188
0.18801610736429
0.17847536235269
0.16999023537417
0.16241145594558
0.15559946101584
0.14943735612779
0.14383653980524
0.13873733334017
0.13410126844348
0.12989749648079
0.12608933131228
0.12262767819016
0.11945471214974
0.11651198549184
0.11375546080911
0.11116529601926
0.10874821652794
0.10653060549191
0.10454223546117
0.10279312668148
0.10125333123945
0.09986497227581
0.098542140459683
0.097192718153771
0.095747639267734
0.094174384648116
0.09247762835143
0.090705727284989
0.088911955920333
0.087145280099774
0.085447914603423
0.083853705899436
0.082385368270391
0.081050969065266
0.079843155368713
0.078742061985168
0.077724793758173
0.076783774787648
0.07603112045794
0.076728861027008
0.14742273539365
0.14622321099455
0.14421436610362
0.14220991625887
0.14029300087814
0.13844558916853
0.13664393759055
0.13490642206617
0.13329663230208
0.13197876277432
0.13161598714839
0.13423876041648
0.24512217482474
0.24361722939838
0.24044662072043
0.23710796288379
0.23410616446243
0.23145543843735
0.22920980651157
0.22735860625532
0.22588778986259
0.22480865677764
0.22416036455242
0.22394477397245
0.2244695687093
0.22598262111691
0.22871308112301
0.23286439911886
0.23850924975975
0.24502479475102
0.24930278507273
0.24121634289713
1.5837255769221
4.0315019289973
4.7987711792776
4.8464904669933
4.631454988867
4.2850626548948
3.7539134727082
2.8984939823009
1.7792876164745
0.83785790326141
0.44363502368732
0.5799893758311
0.54259612115747
0.47704014542206
0.41939800702369
0.37305976041233
0.33736728751816
0.30915651217225
0.28561303956484
0.26534457434726
0.24751920066413
0.23163380653269
0.21739489659165
0.20461476839545
0.19322726373458
0.18310468435549
0.17411016800744
0.16609673232089
0.15891752460983
0.15244341255067
0.14657115825866
0.14122698001038
0.13636334630049
0.13194737441485
0.12794673964023
0.12431869563393
0.121008900451
0.11795780591231
0.11511232127001
0.11243975599257
0.10993378084513
0.1076124520494
0.10550635812713
0.10363858595477
0.10200043638158
0.10054492046809
0.099201446855513
0.097875802791936
0.09648515078561
0.094977565175774
0.093339451589212
0.091597595094613
0.089808406640877
0.088022411101348
0.086285601111582
0.084636188428823
0.08310292706627
0.081701540928349
0.080432258528763
0.079280770407002
0.078224157832746
0.077243334282136
0.076363280753114
0.075922014348616
0.076812941331054
0.14722462016313
0.14524137582581
0.14320090515805
0.14124120845558
0.13936249087523
0.13753886125855
0.1357643630562
0.13407895946068
0.13258562048584
0.13156908684707
0.13228612911952
0.13408943169686
22.549151070347
2.1407676285105
4.3320970155163
4.8515701785282
4.8097355085005
4.5560461131416
4.1758197094192
3.5746302352505
2.6278181975247
1.5207473616631
0.60566700423563
0.51990124067273
0.57604016473157
0.52669361125763
0.46121896775238
0.40692875900392
0.36331783330791
0.32972245766361
0.30288175833888
0.2802861758152
0.2606908815035
0.24338260778477
0.22792847903795
0.21406529557515
0.20164209458456
0.19058299492764
0.18075584864754
0.1720207414716
0.16422915204239
0.15723741751988
0.15092231402024
0.1451878484101
0.13996745034896
0.13521854779312
0.13090971774461
0.12700676069188
0.12346369799132
0.12022421338956
0.11722885333956
0.11442868464667
0.11179729924121
0.10933502783607
0.10706453987742
0.10501669745573
0.1032088552321
0.10162161187473
0.10020213024122
0.098872013969222
0.097536874269187
0.096120357300407
0.094580077323163
0.092911370326593
0.09115276269978
0.089359685637227
0.087581968112887
0.085863746290434
0.084241117040775
0.08273993946147
0.081372164520685
0.080134177993346
0.079008643901553
0.077972255233316
0.077010208831909
0.076181628264959
0.076104389663693
3.2905329884628
3.624523494841
4.7026825940468
4.8684463595567
4.6999442382019
4.3839801223314
3.9131113528927
3.1458927322462
2.0531564454623
1.0652885735551
0.33722594737927
0.57636878921104
0.55488355485549
0.49384964521453
0.4327396567347
0.38346037709999
0.34548965879568
0.3156858870819
0.29112937075481
0.27015436382116
0.2517812449655
0.23544253250629
0.22081361392644
0.20767541068135
0.19595067900449
0.18552408484316
0.17626091825304
0.16801634448002
0.16064157495511
0.15400197930158
0.14798733435055
0.14251647429675
0.13753612301151
0.1330110442305
0.12891006907988
0.12519360430839
0.1218097262676
0.11869951101407
0.11580663194646
0.11309249843876
0.11054400823117
0.10817385064764
0.10601108842434
0.10408292323878
0.10239062357714
0.10089484409624
0.099531920861419
0.098210505162304
0.096842409156874
0.095366753807597
0.09376069947077
0.092039458057729
0.09025734425465
0.088465963927544
0.086712962902019
0.085038583631673
0.083474235549795
0.082039245494482
0.080737752376546
0.079558813596524
0.078480672576916
0.077481749237314
0.076566542841759
0.075925113929804
0.078395060979185
)
;
    }
    wedge1
    {
        type            wedge;
    }
    wedge2
    {
        type            wedge;
    }
    defaultFaces
    {
        type            empty;
    }
}


// ************************************************************************* //
