/*--------------------------------*- C++ -*----------------------------------*\
| =========                 |                                                 |
| \\      /  F ield         | OpenFOAM: The Open Source CFD Toolbox           |
|  \\    /   O peration     | Version:  2312                                  |
|   \\  /    A nd           | Website:  www.openfoam.com                      |
|    \\/     M anipulation  |                                                 |
\*---------------------------------------------------------------------------*/
FoamFile
{
    version     2.0;
    format      ascii;
    arch        "LSB;label=32;scalar=64";
    class       volScalarField;
    location    "0.00012";
    object      alphat;
}
// * * * * * * * * * * * * * * * * * * * * * * * * * * * * * * * * * * * * * //

dimensions      [1 -1 -1 0 0 0 0];

internalField   nonuniform List<scalar> 
109340
(
0.47626154675253
0.32661511309025
0.1762583683583
0.14729636155541
0.14268310386789
0.14559926364622
0.15102269838815
0.16050621011693
0.13988961469001
0.12442498600073
0.11218560595032
0.10220169479274
0.09388325703923
0.086838101336697
0.08079138664337
0.075543358832434
0.07094476781137
0.06688160245494
0.063265144255685
0.060025246293
0.057105654315025
0.054460667018989
0.052052703969809
0.049850505747191
0.047827779348177
0.045962156812427
0.044234367846248
0.042627555692478
0.041126669771202
0.039717861005436
0.038387775552382
0.037122550327855
0.035906069603597
0.034716434956678
0.033517814923013
0.032241514515693
0.47072809588134
0.22826646199037
0.16722062157332
0.15296865316906
0.15193944343408
0.15496343478065
0.13874582374555
0.12069195625524
0.10666437534937
0.095558914800124
0.086567761006909
0.079144186674303
0.072912899549548
0.067609072890318
0.063040717664822
0.059065282593556
0.055574709297102
0.052485584377659
0.049732475438686
0.047263283184341
0.045035921130923
0.043015947568255
0.041174862571432
0.039488861434244
0.037937879583981
0.036504834878973
0.035175013709196
0.033935542178961
0.032774893082022
0.031682386162856
0.030647580452994
0.029659377573753
0.028704442977766
0.027764030869143
0.026806467106241
0.02576771006198
0.27646808868392
0.19482044947433
0.16792133388383
0.15761610365478
0.12608889945901
0.10511819607919
0.089911488199316
0.078451370308856
0.069544683519375
0.06245325946463
0.056690499268986
0.051923891383632
0.047920583451367
0.044513696661086
0.04158097737656
0.039031041198094
0.036794311359811
0.034816911110757
0.033056340534841
0.031478314654934
0.030054744835903
0.028762530380667
0.027582705627007
0.026499692129843
0.025500553950176
0.024574465108995
0.023712278085473
0.022906018326761
0.022148627057476
0.02143355856122
0.02075435452233
0.020104107720333
0.019474313062118
0.018853050410765
0.018220675732954
0.017533651271464
0.15888198129625
0.16049134524573
0.10072130617603
0.073322995862766
0.057678785999429
0.047576800007139
0.040536178532051
0.035360037731317
0.031402300940607
0.028283794260072
0.02576744880676
0.023697285166576
0.021966490042796
0.020499559560667
0.019241755336499
0.018152496959331
0.01720099500615
0.016363115847157
0.015617271011056
0.014944963415387
0.014332425148984
0.013769891011959
0.013250278933836
0.012768313371242
0.01231988566824
0.011901622667891
0.011510368565719
0.011143704438013
0.010799317896801
0.010474936572313
0.010167970497882
0.0098745278133898
0.0095882914210845
0.0093014358960876
0.0090046373289125
0.0086768492030989
0.095683587820658
0.031278721662963
0.019019393719478
0.0137926327966
0.010912423695161
0.0091043678204607
0.0078744516718059
0.0069906694463677
0.0063296587972104
0.0058203765090012
0.0054193110216119
0.0050988668959726
0.0048407667434546
0.0046326975370809
0.0044662836709139
0.0043356589799133
0.0042356353707899
0.0041575410226833
0.0040871586245133
0.0040168557303007
0.0039459502993071
0.0038766976972322
0.0038114923704266
0.0037519617395362
0.0036989803927602
0.0036529401043736
0.0036138619593395
0.0035815271891984
0.0035559882280689
0.0035367992194877
0.0035228994339896
0.0035131057679477
0.0035057113075402
0.0034974774069052
0.0034801310946732
0.0034296714225246
0.00024095944837702
0.00035964257767903
0.00046272347353834
0.00054314649025689
0.00060062602536173
0.00063852475168186
0.00066130163087946
0.00067313190750767
0.00067733800358941
0.00067667627646645
0.0006727414514927
0.00066679002973183
0.00065968578445713
0.00065201138753842
0.00064415752020711
0.00063640176872914
0.000628924108411
0.00062184424221151
0.00061528426111679
0.00060939423944526
0.00060403607605223
0.00059911728753489
0.00059458590324064
0.00059040607531484
0.00058654288090296
0.00058295612568691
0.00057959704082761
0.00057640465831676
0.00057329893243598
0.00057016941608161
0.00056685634627454
0.00056310410101242
0.00055847952827934
0.00055208752402096
0.00054130020012835
0.00051444819430514
0.028491000375398
0.015320393741121
0.0082541086209409
0.0050879672021492
0.003401710498108
0.0022945816985193
0.0015509960158615
0.0010347655269525
0.00069860782451494
0.00050994560103913
0.00041838463387306
0.0004125674403973
0.00038158471912235
0.00034069459569207
0.00029451193478899
0.00024767317682246
0.00020734904958415
0.00017257937269661
0.00014398514368231
0.00012162299445445
0.00010323497817116
8.7901961180658e-05
7.3721777522474e-05
5.9624278121096e-05
4.877428913368e-05
4.0246473095224e-05
3.347580781003e-05
2.8294835310568e-05
2.3890623759439e-05
2.0428854298166e-05
1.7594138304715e-05
1.518692743025e-05
1.3283986673551e-05
1.1585965251683e-05
1.0249980119469e-05
9.0279860037183e-06
8.0613630435112e-06
7.1649562695386e-06
6.4470688553509e-06
5.7799469608335e-06
5.2337896295541e-06
4.7323972220486e-06
4.3053284200083e-06
3.9260124724736e-06
3.5831531264229e-06
3.2898800831077e-06
3.0143535046498e-06
2.7824922515169e-06
2.5626001138568e-06
2.374037211077e-06
2.1995949310257e-06
2.0420882648518e-06
1.8998966870818e-06
1.7707044557614e-06
1.6530805958562e-06
1.5457219264143e-06
1.4475222458194e-06
1.3575281117328e-06
1.274914625219e-06
1.1989385052637e-06
1.1289217433575e-06
1.0642707755971e-06
1.0044801458622e-06
9.4910917964178e-07
8.9776067790573e-07
8.5007346117321e-07
8.0572468561914e-07
9.6398261003386e-07
0.0001154585349494
0.00088287863040317
0.00090129489470651
0.00080427535221041
0.00072971345033111
0.00067317661842129
0.00062816749134451
0.0005906474169668
0.00055847563302504
0.00053033730382519
0.00050523609284188
0.00048229105821272
0.00046085735402715
0.00044106435285112
0.00042460788092722
0.00041501801073401
0.00041627295445258
0.00042648088266987
0.00043545257090581
0.00043309570921945
0.0004171572128351
0.00039355386552639
0.00036982454751581
0.00034976978934734
0.00033359237713554
0.00032021439205376
0.00030860196465091
0.00029800897841362
0.00028807156031542
0.0002783009473908
0.0002686311822386
0.00025899444628042
0.00024935895983849
0.00023975733835492
0.00023028181221183
0.00022101782888711
0.00020994754939727
0.00020161752336246
0.00019383310765454
0.00018670843584182
0.000180300458976
0.00017466486295216
0.00016987173443272
0.0001659562677048
0.00016281431798435
0.00016040593736548
0.00015871920363937
0.00015765044160762
0.00015715077705481
0.00015721668378993
0.00015769800360612
0.00015849181427531
0.00015961246570185
0.00016079185441138
0.00016194988815208
0.00016306564321859
0.00016403932120916
0.00016480151171287
0.00016530267347343
0.00016554028914787
0.00016552109363937
0.00016524667059319
0.00016485393271907
0.00016429889163366
0.00016359286081397
0.00016277867808934
0.0001618939131121
0.00016096671311996
0.0001597067791819
0.00015926869050064
0.00015763910504038
0.00015224145432946
0.021836913454879
0.011833567471479
0.0069646450951044
0.0045412525117478
0.0030341923419648
0.0020511632981847
0.0013758938085918
0.00091542236937221
0.00060900735348331
0.00041345470777053
0.00029185831172445
0.00022384431459105
0.00018316777807085
0.00015437862140628
0.0001341042891582
0.00011859894651427
0.00010634075586899
9.6426919082443e-05
8.7383792643771e-05
7.9215511187216e-05
7.1954437975228e-05
6.5497100989667e-05
5.9674687929851e-05
5.4476090360479e-05
4.5507673406279e-05
3.7665429285474e-05
3.1467863939723e-05
2.6520857692508e-05
2.2541788740563e-05
1.9290765266966e-05
1.6635512124504e-05
1.4432171152305e-05
1.2599957005948e-05
1.1057434314954e-05
9.7553880883253e-06
8.6464273686843e-06
7.6984131928114e-06
6.8823902716921e-06
6.1780493830179e-06
5.5651648730846e-06
5.0319362464796e-06
4.5632476769558e-06
4.1524686260548e-06
3.788056697436e-06
3.4665896112377e-06
3.1793193734081e-06
2.9241388827597e-06
2.6949446918385e-06
2.4898471803253e-06
2.3049202283508e-06
2.1382111707722e-06
1.9871597271674e-06
1.8500161718315e-06
1.7254412869752e-06
1.6118656615463e-06
1.5081574096207e-06
1.4132220374244e-06
1.3261729575623e-06
1.2461848360882e-06
1.1725543784299e-06
1.1046454467997e-06
1.0419067235193e-06
9.8384700240819e-07
9.3003889092112e-07
8.8010488274312e-07
8.3371099530171e-07
7.9055983031218e-07
3.8563891123954e-06
0.00029556286436853
0.00093409326070747
0.0008751091789887
0.00078253586304602
0.00071343034552493
0.00066040912841066
0.00061768782934445
0.00058174431235144
0.00055075225014196
0.00052350472465875
0.00049904644691652
0.00047653442375244
0.00045545611791662
0.00043625506324389
0.00042110571824151
0.00041377961613803
0.00041581029916254
0.00042595149676019
0.00043501286600029
0.00043286544205149
0.0004171729417728
0.00039377046976107
0.00037016651232941
0.00035018682701283
0.00033406444121143
0.00032073461885598
0.00030916306814818
0.00029860950529098
0.00028868137918642
0.00027892591138821
0.00026925947342162
0.00025961752532347
0.00024997058381985
0.00024035111171438
0.00023085082914154
0.00022155616310842
0.00021044601989168
0.00020207376426374
0.00019424462541323
0.00018707366109757
0.0001806219550918
0.00017494436645437
0.00017010338821129
0.00016613944615685
0.00016295509930286
0.00016050622806331
0.0001587814287422
0.00015767650665192
0.00015713986504146
0.00015716948955097
0.00015761364900043
0.00015837280530959
0.00015943649818202
0.00016055949920078
0.00016168702535446
0.00016276969013174
0.00016371036125848
0.00016444210598266
0.00016491917734137
0.00016513769527288
0.00016510432988077
0.00016482501571184
0.00016442994222291
0.00016386867682865
0.00016314867182399
0.00016231737350465
0.00016141423032185
0.00016048427721146
0.00015930296130496
0.00015866721754801
0.00015687122774792
0.00015160873360309
0.015911387550266
0.0079197518451147
0.0047652857589478
0.0031980392886878
0.0021359525641771
0.0014533376103266
0.00099213343077466
0.00068598629684666
0.00048316620462407
0.00034950227830738
0.00026879382103032
0.0002120918363765
0.00017406580337108
0.00014672906331833
0.00012552609089588
0.00010865109205575
9.5199731798554e-05
8.3913202040788e-05
7.3832064651057e-05
6.5249184848194e-05
5.8217231905111e-05
5.227376274293e-05
4.7210420338067e-05
4.3023431577975e-05
3.9471269305108e-05
3.6383219246839e-05
3.0790945108826e-05
2.5953850139811e-05
2.2058910314837e-05
1.8889359926225e-05
1.6284861952215e-05
1.4135297615232e-05
1.2340350886144e-05
1.0837665822547e-05
9.5639452456987e-06
8.4836192693987e-06
7.5564179092807e-06
6.7608504349668e-06
6.0708569769582e-06
5.4731442402124e-06
4.949980304311e-06
4.4925873776206e-06
4.0889441432454e-06
3.7329945918679e-06
3.4168357522261e-06
3.1356640637194e-06
2.8847167396135e-06
2.6598661053876e-06
2.4583471233514e-06
2.2765407345462e-06
2.112736554654e-06
1.9641823711407e-06
1.829396715682e-06
1.7066439839736e-06
1.594758435407e-06
1.4925628790412e-06
1.3990103313537e-06
1.3132045217349e-06
1.2343334537604e-06
1.1617068652581e-06
1.09470771566e-06
1.0327931189098e-06
9.7547668801982e-07
9.2233990878297e-07
8.7301642235754e-07
8.2718083303483e-07
7.8453902348696e-07
4.0246597234586e-06
0.00030324937314031
0.00093460015819342
0.0008740991433172
0.00078169383515327
0.00071274889576423
0.00065988931916377
0.00061733956774348
0.00058156107747221
0.00055070904199397
0.00052357014743848
0.00049919038210141
0.00047673310127746
0.00045569191394777
0.0004365093457741
0.00042134495053031
0.00041396168429686
0.00041592737821077
0.00042605521875728
0.00043526047718765
0.00043343555641789
0.00041809319116708
0.00039493082164332
0.00037142764538836
0.00035147188281758
0.00033535819519264
0.00032204518494442
0.00031049603286615
0.0002999774960806
0.00029004363204022
0.00028029664041381
0.00027062615872615
0.00026096037284193
0.00025127462445593
0.00024160402304081
0.00023204088151715
0.0002226763199741
0.00021147440344223
0.00020300769814718
0.00019508167662796
0.00018781305877002
0.00018127044693385
0.00017550337435427
0.00017055508627826
0.00016649122902455
0.00016322303471464
0.00016068759757652
0.00015887940957248
0.00015770499423698
0.00015710075290744
0.00015706371117833
0.0001574439376415
0.00015814340175531
0.0001591185931143
0.00016016098517258
0.00016123450771489
0.00016225740780049
0.00016313810210995
0.00016381609977508
0.00016424701878093
0.00016442430916667
0.00016435273100935
0.00016405244370213
0.00016363321785429
0.00016304267311212
0.0001622920096674
0.00016142794293509
0.00016050452524166
0.00015955031413263
0.00015845558221011
0.00015758683600667
0.00015554860740087
0.00015041472160261
0.0082793765821398
0.004418344288856
0.002699082080519
0.0017549774600358
0.0012098047492117
0.00087147218254245
0.00064689191607443
0.00049705849809607
0.00039131935739881
0.00031749387745519
0.00025901090748676
0.00021188457340173
0.00017480844045966
0.00014582399523055
0.00012339182143613
0.00010613846411973
9.2077281919829e-05
8.0470998956316e-05
7.0530295801457e-05
6.1780913945331e-05
5.414624550979e-05
4.7935012793089e-05
4.2837360032398e-05
3.8478272966329e-05
3.4823489919554e-05
3.1836286734738e-05
2.9277307358187e-05
2.539079806634e-05
2.1589929374024e-05
1.8498159608247e-05
1.5954062378862e-05
1.3847960705327e-05
1.2092336175468e-05
1.0618174790335e-05
9.3718525785972e-06
8.3112268867323e-06
7.4042142062275e-06
6.6240051260302e-06
5.9501499070503e-06
5.3646534658731e-06
4.8537630270467e-06
4.4064655396464e-06
4.0125294441505e-06
3.6649816059992e-06
3.3561967235778e-06
3.0816946476161e-06
2.8361374168642e-06
2.6165132670277e-06
2.4189953790565e-06
2.2412329381133e-06
2.0806544547651e-06
1.9351914914787e-06
1.8030989431455e-06
1.6827220348244e-06
1.572944602193e-06
1.4726065719649e-06
1.380750324081e-06
1.2964728744256e-06
1.2189968047006e-06
1.1476351401495e-06
1.0817792426029e-06
1.0208941622973e-06
9.6451101290268e-07
9.1222540400281e-07
8.6367929039507e-07
8.185530051108e-07
7.7655524717676e-07
4.2776121382972e-06
0.00031467156622442
0.000934964234094
0.00087270124413388
0.00078052991962613
0.0007118058045007
0.00065916829691984
0.00061685300774628
0.00058130218948879
0.00055064779651267
0.00052366428121099
0.00049939872256382
0.00047702299160784
0.00045603929416322
0.00043688843867758
0.00042171355570134
0.00041427300508485
0.00041616872591106
0.00042631743076365
0.00043575707452431
0.00043440609489122
0.00041957948320402
0.00039676548283689
0.00037339341024747
0.00035345051972546
0.00033732993453701
0.00032402671005467
0.00031250116114927
0.00030200973179325
0.00029208222973828
0.00028234445858086
0.00027266697880004
0.0002629677952886
0.00025322524127576
0.00024347654365486
0.00023381660726825
0.00022434568277771
0.00021298633889958
0.00020437643412198
0.00019630134060832
0.00018888172354402
0.00018219119268799
0.00017627891329918
0.00017118220030775
0.00016696587772515
0.00016356429711622
0.00016089496649168
0.00015895916134114
0.00015767635130876
0.00015696746556996
0.0001568245770356
0.00015710653010564
0.00015771644632783
0.00015857343671396
0.00015950700417009
0.00016049180715113
0.0001614256676638
0.00016222160275496
0.00016281877139779
0.00016317775831417
0.00016328969177973
0.00016315745351123
0.00016282432992598
0.00016236389090185
0.00016172803455916
0.00016093302233779
0.00016002663063105
0.00015905697970966
0.00015806682430674
0.00015697997567017
0.00015595547079697
0.00015378415355259
0.00014859663066611
0.0032061888493016
0.0022647936312523
0.0015948095680614
0.0012085732547526
0.00092591150081099
0.00071623109912847
0.00056991709080138
0.0004654556732891
0.00038729737127227
0.0003152811918008
0.000261512438987
0.00021717507034039
0.00018071906986557
0.00015111265318143
0.00012661702424968
0.00010699259171632
9.1811281823248e-05
7.9288900640347e-05
6.8699750402046e-05
5.9910510524086e-05
5.2639828994671e-05
4.6348347513267e-05
4.105191640789e-05
3.6705060156151e-05
3.3029599600561e-05
2.987693832556e-05
2.725315386438e-05
2.4786480524763e-05
2.110912644541e-05
1.8102797227373e-05
1.5627470147345e-05
1.3572626611992e-05
1.1857325051579e-05
1.0414030525726e-05
9.1944612104396e-06
8.1550765124613e-06
7.2660222444205e-06
6.500778774081e-06
5.8399948483195e-06
5.2653730785886e-06
4.7645207269011e-06
4.3251819941155e-06
3.938824509591e-06
3.597162099019e-06
3.2942990137488e-06
3.0248208781793e-06
2.7842557457632e-06
2.5689399512658e-06
2.3754432305135e-06
2.2014926828815e-06
2.044299718245e-06
1.9020614340367e-06
1.7728681845e-06
1.6552219820906e-06
1.5477856391275e-06
1.4495263911241e-06
1.3595413053068e-06
1.2769693755179e-06
1.2010618290105e-06
1.1311261174937e-06
1.0665618353792e-06
1.0068480503081e-06
9.5153477712918e-07
9.0022511195511e-07
8.5256885020933e-07
8.0825475915926e-07
7.6700539679196e-07
4.6473531488367e-06
0.00033012961474388
0.00093566590854359
0.00087095321343066
0.00077908147793519
0.00071063695030236
0.00065827218708644
0.00061624197969836
0.00058097231910663
0.00055056619811732
0.0005237810837393
0.00049966376821523
0.00047739593011378
0.00045649021652053
0.00043738532048917
0.00042220312583948
0.000414693374979
0.00041650130693928
0.0004266798647054
0.00043642633504713
0.00043569061717241
0.00042154494751544
0.00039919751286211
0.00037600361655825
0.00035607574735966
0.0003399390617396
0.00032664075730457
0.00031513974641065
0.00030467756080212
0.00029476070906851
0.00028503088508959
0.00027533826295391
0.0002655905116012
0.00025576756586195
0.0002459084872472
0.00023611097590752
0.00022649315947686
0.00021491335738047
0.000206107319856
0.00019782798967398
0.00019020090842882
0.00018330424341757
0.00017718851998607
0.00017189004452572
0.00016746707660367
0.00016387866000573
0.00016102529664757
0.00015891542172146
0.00015748647228727
0.00015663290820633
0.00015633533662691
0.00015647449484932
0.00015695432217902
0.00015766389893867
0.00015846178305524
0.00015931611663558
0.00016012022502465
0.00016079193983179
0.00016127272844583
0.00016152819872049
0.00016154732663953
0.00016133128071952
0.00016095087796439
0.00016043009467538
0.00015972889323903
0.00015887554207814
0.00015791620357405
0.00015689253019468
0.00015585186548276
0.00015471188836965
0.00015357847749579
0.00015122560717003
0.00014592409545698
0.0010985141146588
0.0009583528626791
0.00098938339222484
0.0010340693347829
0.0010773193896356
0.00093648896997705
0.00071174130135652
0.00054168839299951
0.00041997049225047
0.00033830164645685
0.00027577049741269
0.000227248739173
0.00018863686772485
0.00015717555158942
0.00013153720518473
0.00011063138870005
9.353600074664e-05
7.957797055897e-05
6.8272033172679e-05
5.9050284210306e-05
5.1492761749523e-05
4.5343162276585e-05
4.0158943028211e-05
3.5775454724015e-05
3.2133333675651e-05
2.9011220863582e-05
2.6312277537091e-05
2.4007953162046e-05
2.0593224908222e-05
1.7690611848645e-05
1.5293140464459e-05
1.3295725844311e-05
1.1625174483043e-05
1.0218275246547e-05
9.0250872269167e-06
8.0086021924299e-06
7.1378478766184e-06
6.3879860348767e-06
5.7389604097844e-06
5.1751971553703e-06
4.6831722116684e-06
4.25157693813e-06
3.8717184772208e-06
3.5359262615439e-06
3.2383100337931e-06
2.9732848250659e-06
2.7368581490582e-06
2.5251338186475e-06
2.3351216044726e-06
2.1640268053512e-06
2.0095134789738e-06
1.8696794290708e-06
1.7426752090882e-06
1.6271148110503e-06
1.5216341178917e-06
1.4252288753714e-06
1.3369417472025e-06
1.2559680241373e-06
1.1815684738817e-06
1.113045303175e-06
1.0498196194752e-06
9.9136039136662e-07
9.3719373365129e-07
8.8691589708023e-07
8.4019857994396e-07
7.9674983361954e-07
7.5630956440741e-07
5.2247179916761e-06
0.00035019087006157
0.00093689284783064
0.00086885166517292
0.0007773783869169
0.00070927434295018
0.0006572251380431
0.00061552082673566
0.00058057703111496
0.00055046341934892
0.00052391598387805
0.00049997902280336
0.00047784437148906
0.00045703626518718
0.00043799036516478
0.00042280274224764
0.00041520421670644
0.00041690116312914
0.00042710241613225
0.00043721795548203
0.00043723455367691
0.00042393484721311
0.00040217953199632
0.00037921902412901
0.00035931163145606
0.0003431489160408
0.00032984810312209
0.00031836955494207
0.00030793739661573
0.00029803621244229
0.00028831283765865
0.00027859715615665
0.00026878596108141
0.00025885864023042
0.00024885598675487
0.00023887376519071
0.00022906539587186
0.0002172021836284
0.00020813942855042
0.00019959508669002
0.00019169763419083
0.00018453113625819
0.0001781504403261
0.00017259089932112
0.00016790675343486
0.00016407527102613
0.00016098856457046
0.00015865853179897
0.00015703325923786
0.00015598767322003
0.00015548869518222
0.00015543731539595
0.00015573981285378
0.00015626281171711
0.00015688740630577
0.00015756757646393
0.00015819977258461
0.00015870774330484
0.00015903671978605
0.00015915586940654
0.00015905217190555
0.00015872783048236
0.00015827144641409
0.0001576679806353
0.00015688739589908
0.00015596677337631
0.00015494858405064
0.00015386090802509
0.00015275925727138
0.00015154300247085
0.00015031540283625
0.00014776313383561
0.00014230712394429
1.5047515850944e-05
0.00019815774633033
0.00028255393079126
0.00037916917554036
0.00046509337128067
0.00054044989188619
0.00061146690626766
0.00066181622263321
0.00050967341438536
0.00039569498872326
0.00031390559560222
0.00025442083429452
0.00020842570399869
0.00017206384087869
0.00014292887600458
0.00011923039225461
9.9849394492963e-05
8.4143003669559e-05
7.1455634798924e-05
6.118666713021e-05
5.2900020982123e-05
4.6175833001655e-05
4.0709804242199e-05
3.6217689825302e-05
3.2303951886274e-05
2.9137891099546e-05
2.6414878690917e-05
2.4069574751604e-05
2.083720368848e-05
1.79018244632e-05
1.5478469685908e-05
1.3461721406059e-05
1.1768552025671e-05
1.0340791845144e-05
9.1311146789332e-06
8.1003565915411e-06
7.2155616616619e-06
6.4542171722786e-06
5.7953994420222e-06
5.2229607299935e-06
4.7230087869739e-06
4.2851452434726e-06
3.8998069906397e-06
3.5593149672337e-06
3.257451359444e-06
2.9890207699911e-06
2.7496756796437e-06
2.5354212936762e-06
2.3432029369635e-06
2.1702230516136e-06
2.0142286824519e-06
1.8731042386079e-06
1.7450215303399e-06
1.6285497554496e-06
1.5223802434895e-06
1.425427305295e-06
1.33666614479e-06
1.2552801784341e-06
1.1805371677821e-06
1.1117628090687e-06
1.0483468452186e-06
9.8974309584317e-07
9.354915671573e-07
8.852008458352e-07
8.3851618800304e-07
7.9511267420111e-07
7.546889454985e-07
1.3994884073413e-06
0.00015343063224437
0.00090666643422374
0.00089230942897227
0.00079575560047196
0.00072287219563801
0.00066781309385486
0.00062429582652468
0.00058825186429885
0.00055741083079652
0.00053035758416731
0.00050607594742312
0.00048372540560475
0.0004627189750975
0.00044319703739455
0.00042675906798803
0.00041679972921005
0.00041734627011742
0.0004275544900412
0.00043808429064317
0.00043897593560543
0.00042668271758783
0.00040565207480262
0.0003829920097259
0.00036311831643442
0.00034692137458497
0.00033360903085257
0.00032214960475644
0.00031174810055153
0.00030186662840667
0.00029214779102387
0.00028240142288471
0.00027251255493909
0.00026245564866968
0.00025227351271794
0.00024205531291695
0.00023196485080589
0.00022118394064255
0.00021161840114451
0.00020256573351158
0.00019415111147835
0.00018646740830778
0.00017957664954119
0.00017351649991673
0.00016833599172221
0.00016404752682391
0.00016053143710322
0.00015777920355817
0.00015576017230109
0.00015435810156278
0.00015346981569038
0.00015304749913802
0.00015299533601356
0.00015316416107743
0.00015345339950347
0.0001537923152694
0.00015408771304951
0.00015427400852573
0.00015430540424698
0.00015415592483461
0.00015381417477387
0.00015331188047696
0.00015270140430616
0.00015193443728275
0.00015101821109312
0.00014998914160066
0.00014887797018418
0.00014767492519229
0.00014645577617541
0.00014511843495869
0.00014374014128532
0.00014089476124384
0.00013520820005404
3.3505191113574e-06
2.2994345379068e-05
4.8867368142168e-05
7.892952266046e-05
0.00011441477618178
0.00015592983148499
0.00019830797766584
0.00024199898871191
0.00028251442099515
0.00030951711465934
0.00031616942803515
0.00026291813735011
0.00021183629172043
0.00017251796669199
0.00014212005074583
0.00011808414075092
9.8419673515685e-05
8.2593135995716e-05
6.9859072644759e-05
5.9594073858867e-05
5.127680177043e-05
4.4519588104016e-05
3.8991416067684e-05
3.4452322908017e-05
3.0756449139603e-05
2.7687825268042e-05
2.4968228177192e-05
2.2024108200529e-05
1.8913550905433e-05
1.6339859441615e-05
1.4199166327639e-05
1.2402398899184e-05
1.0890028674561e-05
9.6082422979347e-06
8.5152060370925e-06
7.5761209837741e-06
6.7680787923773e-06
6.0691471544584e-06
5.4621017871193e-06
4.9318309175154e-06
4.4675799903677e-06
4.0594877699379e-06
3.6994058212178e-06
3.3802602853809e-06
3.096676536608e-06
2.8441208923527e-06
2.6183982809325e-06
2.4160591333842e-06
2.2341131059922e-06
2.0702794086112e-06
1.9222883079465e-06
1.7882769811673e-06
1.6665627637725e-06
1.5557849912237e-06
1.4547981358183e-06
1.3625248042223e-06
1.2780595272835e-06
1.2005713213458e-06
1.129377011012e-06
1.0638466617235e-06
1.0034123424302e-06
9.4757501444376e-07
8.9589232077703e-07
8.4798364222255e-07
8.0350379770289e-07
7.6214460942776e-07
7.2256258544191e-07
8.8273139095476e-06
0.00043281971993741
0.00093980405637197
0.00086018403500969
0.0007706920412665
0.000704072437375
0.00065325339438891
0.00061274841933595
0.00057900287471239
0.00054998618237656
0.00052435647497074
0.00050113694835871
0.00047954696596697
0.00045914711093313
0.0004403513423594
0.00042513853733802
0.00041712580271514
0.00041829675809192
0.00042842458090228
0.00043983795822731
0.00044278701620006
0.00043296444051187
0.00041380947899662
0.00039200398590245
0.00037227447330562
0.00035599493103723
0.00034262948406812
0.00033119330944013
0.00032085511040118
0.00031102706471053
0.00030132070333597
0.00029150213036536
0.00028142737258135
0.00027105097128658
0.00026041151558943
0.00024960052869501
0.00023880674762985
0.0002273180381526
0.00021682316187615
0.00020680624860632
0.00019741029293211
0.00018874922913431
0.0001809031662511
0.00017392184062822
0.00016785146230751
0.00016270954414881
0.00015840398086195
0.00015488124645099
0.00015212105173484
0.00015002786817986
0.00014842948186584
0.00014732195365347
0.00014660727082396
0.00014611593803974
0.00014576025853887
0.00014545259934184
0.00014511678557818
0.00014471367581139
0.00014421905361008
0.00014358221422348
0.00014286532717558
0.00014205071508266
0.00014111506733596
0.00014005106300853
0.0001388856172852
0.00013764697734845
0.00013634842696202
0.00013492754381832
0.00013351293567357
0.00013197407924399
0.00013034809598675
0.00012719198969556
0.00012124784642168
3.0574130411817e-06
7.729767559503e-06
1.4896706186279e-05
2.486731005121e-05
3.8104787457885e-05
5.4447899681522e-05
7.4229181106847e-05
9.6466752233965e-05
0.00012099289533238
0.00014592189483516
0.0001666990895075
0.00017729271218842
0.00017653348936843
0.00016446192587592
0.0001423058683667
0.00011757921122375
9.8450309481847e-05
8.2866621574305e-05
7.0202369135051e-05
5.9860925308528e-05
5.1470666098647e-05
4.4620312307206e-05
3.9015773904519e-05
3.4384895897767e-05
3.0543957043471e-05
2.7339019768123e-05
2.38326986637e-05
2.0521093775615e-05
1.7749999210708e-05
1.5418026332376e-05
1.3451929140321e-05
1.1792421818695e-05
1.0383751781597e-05
9.1849754854032e-06
8.1564479643511e-06
7.2728127608485e-06
6.5112349768311e-06
5.8512870180665e-06
5.2754449839455e-06
4.7710603017083e-06
4.3282937116449e-06
3.9378585708979e-06
3.5922957308388e-06
3.2851791240683e-06
3.012036440834e-06
2.7682006227032e-06
2.550002016412e-06
2.3539537847033e-06
2.1775291521074e-06
2.0184249259647e-06
1.8745506239219e-06
1.7441062294841e-06
1.6255200050176e-06
1.5175894291584e-06
1.4191121743881e-06
1.3290931850254e-06
1.2466339352905e-06
1.1709718042278e-06
1.1014536467525e-06
1.0374466308501e-06
9.7840505555574e-07
9.2384804458156e-07
8.7335604971718e-07
8.265667891735e-07
7.8313853492721e-07
7.4276871098105e-07
7.0450762523751e-07
1.218333756633e-05
0.00050116468051631
0.00093771504607846
0.00085166341650855
0.00076440672598782
0.0006993948304099
0.0006497795467493
0.00061032204109686
0.00057756512340656
0.00054944510382378
0.00052457776450342
0.00050196962451653
0.00048085686745226
0.00046082272690954
0.00044225338152382
0.00042701148921074
0.00041858313526107
0.00041920032903504
0.0004290460827895
0.00044128928888163
0.00044656040945218
0.00043974693283187
0.00042307199582464
0.0004025625964105
0.00038317231662569
0.00036683613999053
0.00035338869000275
0.000341956367008
0.00033168925298948
0.00032194384170979
0.00031228108258468
0.00030241252616765
0.00029214970200357
0.00028142381652961
0.00027024916395224
0.00025872062101976
0.00024703906266515
0.00023455149299371
0.00022281559622088
0.00021149396422857
0.0002007541767151
0.00019074535199314
0.000181580202732
0.00017332532748499
0.00016604282728255
0.00015972789079754
0.00015437354557698
0.00014983860870766
0.00014611195108825
0.00014306722260875
0.00014057417436063
0.00013857740894592
0.00013698471588271
0.00013563216728984
0.00013442714430517
0.00013328970523132
0.00013215676044616
0.00013099716541501
0.00012983953021426
0.00012861722169879
0.0001273290836588
0.00012594606039776
0.00012447482791654
0.0001229263610018
0.00012134399251871
0.00011973439258101
0.00011808199907375
0.00011637754509986
0.0001146953157446
0.00011294805550142
0.00011108316696109
0.00010825753060949
0.00010201232452515
2.7346019917547e-06
4.8800137956538e-06
6.8409199419589e-06
1.0917226430043e-05
1.6625016915585e-05
2.409138244011e-05