/*--------------------------------*- C++ -*----------------------------------*\
| =========                 |                                                 |
| \\      /  F ield         | OpenFOAM: The Open Source CFD Toolbox           |
|  \\    /   O peration     | Version:  2312                                  |
|   \\  /    A nd           | Website:  www.openfoam.com                      |
|    \\/     M anipulation  |                                                 |
\*---------------------------------------------------------------------------*/
FoamFile
{
    version     2.0;
    format      ascii;
    arch        "LSB;label=32;scalar=64";
    class       volScalarField;
    location    "0.00012";
    object      cSound;
}
// * * * * * * * * * * * * * * * * * * * * * * * * * * * * * * * * * * * * * //

dimensions      [0 1 -1 0 0 0 0];

internalField   nonuniform List<scalar> 
109340
(
555.95335056165
554.89103280047
552.86310616525
550.39809046607
547.66159346987
544.79440100882
541.85149228317
538.861150585
535.85651561181
532.76879806812
529.46466222046
525.82200218134
521.70086742522
516.94064914398
511.3648496288
504.78744879062
497.01860111845
487.87375241508
477.18344891956
464.80539290727
450.63543109786
434.62285495966
416.78198126481
397.20001988971
376.0368306089
353.51882624076
329.92358984759
305.55796299469
280.73131733322
255.72728521196
230.77697228705
206.03490973726
181.56183394782
157.33053693757
133.28434098728
109.4778997222
556.11223410811
554.74856804402
552.47188125226
549.83831846975
547.01960686365
544.13910186648
541.23320067754
538.30006305755
535.29766292876
532.15741257342
528.77525822131
525.0262373358
520.76391670973
515.8222560976
510.02074277242
503.16981388123
495.08038296528
485.57025325994
474.47486584747
461.65950675764
447.0317252439
430.55570654195
412.26327968828
392.26021537647
370.72434724426
347.89707455897
324.06631582477
299.54294083726
274.63317703756
249.61028661317
224.6876028891
199.9932385539
175.54637349089
151.25843850532
126.93706858752
102.6345412324
556.70387658836
555.12727226445
552.62262285762
549.92724843912
547.13257205523
544.29332712944
541.40312113216
538.46177555693
535.44939943569
532.30054478772
528.91422065207
525.16459898019
520.90406640304
515.96582024751
510.16904722464
503.32484425702
495.24336901294
485.74216187238
474.65591948198
461.84925404348
447.22842358405
430.75662220689
412.46489517948
392.45830938827
370.91447646146
348.0748553938
324.22793673092
299.68562524072
274.75550101571
249.71177871642
224.76774629174
200.04736796794
175.54672891275
151.1083837369
126.37522095738
100.95306871795
557.52617409185
555.62885072243
553.00033183412
550.23096159995
547.38379157354
544.48643800564
541.548520012
538.57398401631
535.53916118416
532.37757920568
528.98844372152
525.24465909377
520.99674697547
516.0762144623
510.30019853756
503.4775779782
495.4165738158
485.93266462373
474.85778257122
462.05470000934
447.4259752599
430.93288880646
412.60513959599
392.54718076277
370.93801874422
348.02133710734
324.08937624344
299.45879888072
274.44245504284
249.31938408299
224.30632918811
199.52761493376
174.9530701388
150.34124583282
125.07521599177
97.905965748031
558.82003645795
556.35927693106
553.35022527649
550.39325896014
547.46929333496
544.54385152959
541.59704290928
538.62611490331
535.60099283373
532.45248135508
529.0810230598
525.35858822021
521.13265621551
516.23025730958
510.46235788655
503.62985809902
495.53174972086
485.97345707223
474.76783603477
461.77357295052
446.87892695987
430.04050703502
411.28901773592
390.73597393272
368.57773379638
345.08157207328
320.56982376129
295.39259088187
269.89627946343
244.39040136429
219.11386743489
194.22032287357
169.66326002462
145.14341878632
119.76875752369
90.864068478627
561.2243303373
556.7474215887
553.43411363244
550.41567645244
547.48807888307
544.56864839093
541.62899581498
538.65333719999
535.59401031094
532.35360062076
528.79465256399
524.74122761453
519.98437768567
514.2883611994
507.3994077779
499.05814843859
489.01634658111
477.06374698548
463.06272161056
446.84426862692
428.39196710382
407.79394857525
385.25505297447
361.09290220198
335.71718640033
309.59397722982
283.20364695693
256.9975116858
231.36032699016
206.58210707492
182.83312916944
160.20460895802
138.54801297048
117.5153594557
96.183677877792
70.956243299302
86.941062394215
68.05038470108
54.114233732204
44.678636861973
38.463323171868
34.286089546928
31.489045024509
29.670191084902
28.592705600916
28.097867947272
28.013710465875
28.398898603543
29.014112972429
29.808232443189
30.723931553851
31.691822668514
32.672782420772
33.635635000215
34.561781186246
35.442633538422
36.272480400701
37.048737024854
37.773016592535
38.448192244847
39.077210951457
39.66269625027
40.20826893633
40.719609084624
41.195478812222
41.642544606746
42.061996483771
42.455669517438
42.827566814443
43.177124541806
43.508807422661
43.821487784645
44.119209348344
44.400797966062
44.669646212744
44.924838634052
45.168982844677
45.401612976324
45.624426614135
45.837654550147
46.041912369576
46.238203779082
46.426341323347
46.607696957126
46.781839123216
46.949929037788
47.111841054615
47.268120524782
47.419079050842
47.565002310292
47.706158241407
47.842804060807
47.975171724323
48.103482361695
48.227940156467
48.348734860487
48.466041071479
48.580023793443
48.690838443725
48.79863175392
48.90354126593
49.005696662393
49.105219532407
49.202212530105
49.626517679748
50.54621112508
50.975226577837
51.338373650831
51.67570912857
51.993270874451
52.298678079906
52.600995106352
52.910078896749
53.236918015711
53.594305801739
53.9978750122
54.465070548363
55.007401980387
55.611847674202
56.220105648548
56.797042202149
57.143033794813
57.343153216755
57.442628337049
57.485409403619
57.500008387645
57.502409886004
57.500612272871
57.498005745994
57.495714915356
57.494051205796
57.493013352641
57.492554698489
57.492456126698
57.492632033118
57.492974748581
57.493366215756
57.493691020016
57.493859457904
57.493774560803
57.493194949312
57.492384227945
57.49124158936
57.489792634629
57.488118948354
57.486154624219
57.483911825508
57.481432142476
57.478754256271
57.475963312563
57.473097877096
57.470205027103
57.467355261249
57.464567818533
57.461752928462
57.458913935879
57.456217707501
57.453536887711
57.450931914537
57.448429964545
57.445989153725
57.443581728878
57.441213043415
57.438898879016
57.436649440175
57.434467871764
57.43236782509
57.430373089849
57.428504393819
57.426778004869
57.425189162793
57.424634334467
57.429042066888
57.45763587282
57.61581421541
58.453244864879
79.51306393835
61.20006888549
48.752954815607
40.851097173025
35.768636310041
32.389154884086
30.20827579664
28.875727574193
28.17793534492
27.963057400651
28.125455189969
28.571926187394
29.270501068217
30.10636098954
31.026237688087
31.988994030394
32.955220669213
33.900619584038
34.809329752532
35.671628568019
36.483166392262
37.243120243871
37.952389369023
38.613354422287
39.229133757628
39.803293241654
40.339025662915
40.839655162285
41.30825162326
41.747378531371
42.159896345281
42.547881963582
42.91357714352
43.258739549891
43.585173508844
43.89434211535
44.187664153684
44.466345152209
44.731545444182
44.984229623601
45.225374954846
45.455739594591
45.67615397376
45.887216355636
46.089637047191
46.28389406572
46.470586377155
46.650118557271
46.822983031797
46.989535368982
47.150177183218
47.305225140368
47.455001326309
47.599808406191
47.739905580449
47.875547100783
48.006960838856
48.134364250176
48.257956264715
48.377923762035
48.494439964663
48.60766843625
48.717761447339
48.824862539351
48.929106206796
49.030617667876
49.129512502777
49.226337207066
49.945523563049
50.670990549803
51.070473131038
51.426181258051
51.757901948216
52.071553977696
52.375211254534
52.678070198462
52.990234127946
53.322999282123
53.689747491026
54.106763999775
54.591095523523
55.150373437671
55.762124337778
56.356672903558
56.794000034951
57.140860982372
57.341743579728
57.441755580632
57.484849118012
57.499593089107
57.502027194962
57.500199288817
57.497536405699
57.495186356337
57.493465835143
57.492385748135
57.491887823372
57.491773764124
57.491949602968
57.492307568604
57.492730054587
57.49309909042
57.493319156838
57.493291293672
57.492793662675
57.492039468991
57.490945254012
57.489531830963
57.487878556236
57.485937882134
57.483698280867
57.481205557174
57.478505089163
57.475680215125
57.472772473296
57.46982645123
57.466915752295
57.464056875028
57.46116509488
57.45825872589
57.455486619653
57.452732351554
57.450065694857
57.447502606213
57.445007018333
57.442556649911
57.440157276829
57.437823304118
57.435563695005
57.433380624032
57.431288715426
57.429306075638
57.427446128895
57.425727444694
57.424136189988
57.423606372701
57.427974499322
57.456520092344
57.615467680396
58.461060051658
75.625788499876
56.19421387488
44.64472620989
37.464175219792
33.274668423454
30.675813177495
29.085275565456
28.206329229753
27.845449617034
27.842321691053
28.194422432598
28.746457784774
29.466864277288
30.30511899123
31.21230058635
32.152625423902
33.095388014682
34.019339574367
34.908783678532
35.754202652071
36.551904352155
37.300652261657
38.000685437562
38.654172828411
39.264032640289
39.833165928595
40.364605960856
40.861605690392
41.32711198448
41.763726224485
42.173925237851
42.560059954631
42.924035434114
43.267838260686
43.593001999598
43.901146551095
44.193515042618
44.471427975761
44.735895505279
44.988011083356
45.228596158415
45.458545918054
45.678535146322
45.889296311958
46.091396955753
46.285423968062
46.471880234824
46.651232075469
46.823930862282
46.990344130784
47.150871537311
47.30581997612
47.455519487951
47.600247605586
47.740281696047
47.87586861555
48.007237963287
48.134603965975
48.25816504633
48.378107150772
48.494603475248
48.607816686178
48.717898145514
48.824990573343
48.929227842515
49.030735594204
49.129628784314
49.22655316175
49.954770600811
50.674193915958
51.072891635945
51.428330747101
51.759897375862
52.073429417319
52.376922926855
52.679517812972
52.991262989574
53.323398182063
53.689226476445
54.104936389694
54.587523483807
55.144782670391
55.754823754329
56.348865000599
56.787832385958
57.136368183195
57.338883829476
57.440052666846
57.483805423594
57.498837674025
57.501317465982
57.499400201499
57.496592656804
57.494093718583
57.492230854987
57.491040711585
57.490447884329
57.490287420361
57.49045521044
57.490837227454
57.491316242428
57.491772077026
57.492097533237
57.492190622882
57.491867062074
57.491236819708
57.490251735034
57.488922493575
57.487321174415
57.485434810198
57.483199299768
57.480686210181
57.477944737938
57.47504630537
57.472042912402
57.468983430807
57.465942750047
57.462930438304
57.459874198412
57.456816735081
57.453880350684
57.450973138124
57.448171922727
57.445475582479
57.44286301789
57.440325135231
57.437865376528
57.435494814827
57.433218667888
57.431036663366
57.428960499801
57.427002452259
57.425174379276
57.423490311585
57.421930829891
57.421441819944
57.425726720864
57.454242918822
57.614886338306
58.478264822466
68.489311656701
48.234336314572
38.43973256947
33.072810017956
30.179838426991
28.652096397274
27.851831792088
27.550520069476
27.58210451476
27.851375604718
28.37170966969
29.0036372917
29.744184590324
30.572045896849
31.453151745974
32.364391645085
33.278208383663
34.174056832673
35.038964458487
35.864266236418
36.644713378337
37.378515224295
38.066781125834
38.710679950352
39.312396726695
39.874866598935
40.401010763304
40.893436771907
41.354961501365
41.788285189862
42.195650679447
42.579285630619
42.941166119404
43.283081045961
43.606652718621
43.913340255657
44.204476826852
44.4812403295
44.744734034336
44.99593565062
45.235733972771
45.464953108489
45.684309742925
45.894491654077
46.096071853009
46.289641483636
46.475671221389
46.654660479691
46.827006731485
46.993127741398
47.153374151222
47.308084970032
47.457568185374
47.602103874598
47.741964537506
47.877393978446
48.008623123109
48.135862894497
48.259311899404
48.379154194925
48.495561688939
48.608695588845
48.718706823008
48.82573724538
48.92991937091
49.031378748547
49.130229170784
49.227280820754
49.968350735455
50.67892225121
51.076423268097
51.431462596512
51.762803550112
52.07615790889
52.379412572413
52.681626590809
52.992769869631
53.323998877167
53.688503022446
54.102331162615
54.582403348144
55.13674492944
55.744303249655
56.33759093872
56.77851708842
57.129504857353
57.334488145468
57.437434509103
57.482211307579
57.497700968312
57.500263116586
57.498217555701
57.495195756458
57.492471062326
57.490392901121
57.489023853563
57.48829414001
57.488058028137
57.488207028995
57.488621772636
57.489182162747
57.489766190624
57.490250488059
57.490524071987
57.490449528984
57.490014075813
57.489200945877
57.488006576423
57.486483361945
57.484672138394
57.482465119263
57.479927174083
57.477120836093
57.474111826005
57.470966371092
57.467737763328
57.464501346937
57.461259207867
57.457963999536
57.454682784617
57.451504556642
57.448374219527
57.44537441555
57.442497559693
57.439738788287
57.437092322976
57.434565577962
57.432165782675
57.42989439467
57.427751906803
57.425735080714
57.423853660032
57.422109796625
57.420506806795
57.419022276338
57.418558362298
57.42281440463
57.451303279204
57.6139860681
58.501138654187
53.629237081247
36.701679938939
30.655371152063
28.258042985049
27.279878858216
26.940095506977
26.979548807655
27.217072664545
27.608451166221
28.113509950901
28.697510065986
29.362030203785
30.103452458431
30.908570107602
31.757360538703
32.627862276241
33.503063893643
34.365091731215
35.200147696458
35.999728508491
36.759036325182
37.475837660638
38.149208670828
38.780994022391
39.372948247777
39.927304571141
40.446506791089
40.933313905975
41.390077067242
41.819286357709
42.223198522168
42.603852930721
42.963176692984
43.302852625575
43.6245012756
43.929483834686
44.219123662932
44.494558650355
44.756876445388
45.007006195083
45.245862532657
45.474214245156
45.692805548329
45.90226948224
46.103220582475
46.296196757071
46.481700071209
46.660195930778
46.832097229405
46.997810851295
47.157678619463
47.312047921968
47.461214972824
47.605470115111
47.745069113731
47.880257882564
48.011265315028
48.138302139572
48.261566298474
48.381239642004
48.497492731528
48.610485839381
48.720369417796
48.82728376938
48.93135950981
49.032722545439
49.131486219624
49.228712256121
49.986523099983
50.68513919107
51.081074845094
51.435605177855
51.766644064037
52.079756281335
52.382693504469
52.684410467544
52.994772296134
53.324825112759
53.687609689354
54.098992652414
54.575792194499
55.126323287401
55.73060880325
56.322843995794
56.766020117185
57.120218677339
57.3284977068
57.433855587617
57.480041984296
57.496179207163
57.498880561414
57.496686158638
57.493390013711
57.490353235977
57.488003327341
57.486391624755
57.48547558146
57.485128404098
57.48523933976
57.485685575861
57.486343400084
57.487087190933
57.48777793986
57.488283402081
57.48853002325
57.488359417534
57.487782776419
57.486779061852
57.485372329622
57.483654174049
57.481494195932
57.478933742292
57.476043517119
57.472891517532
57.469561912035
57.466114659434
57.462621148322
57.459075873784
57.455473017999
57.451900017724
57.448418729856
57.445013473743
57.441767666276
57.438679046812
57.435762377743
57.433014120407
57.430460056613
57.428087791934
57.425891214597
57.423868548689
57.421989662025
57.420241211501
57.418640573314
57.417203614716
57.415904861047
57.415512395475
57.419805422361
57.448284484719
57.613193976534
58.531044062691
26.703920131329
24.533103091086
24.7649476582
25.320174334812
25.854251747009
26.366632490172
26.876659255757
27.410907124336
27.94880309298
28.530197519357
29.148014220057
29.818685602016
30.540065845989
31.308121838897
32.11295143205
32.938292086033
33.76898561998
34.590335170505
35.390503779317
36.160668554022
36.895144075945
37.591046983288
38.247827907716
38.865346377858
39.445427706799
39.989973075686
40.501161685621
40.981062577246
41.432050701882
41.856420927809
42.256212223503
42.633312113162
42.989591354725
43.326663959389
43.645997774542
43.948983026953
44.236861394515
44.510754894413
44.771681933861
45.020596778665
45.258353783903
45.485724018773
45.703422790067
45.912085169924
46.11230770068
46.304612772903
46.489509529028
46.667442046748
46.838836481869
47.004071180467
47.163504112602
47.317468741566
47.466264487948
47.610177409354
47.749458461089
47.884353738497
48.015086771686
48.14186897867
48.264895581618
48.384348610839
48.500398780135
48.613205016039
48.722915511793
48.829669071175
48.933595984356
49.034822404294
49.133461194879
49.230995452716
50.008956242491
50.692820555329
51.086881597486
51.440807154666
51.771456429592
52.084251579542
52.386787450529
52.687890592751
52.997294701794
53.325907926266
53.686587497637
54.094975504725
54.567759237512
55.113591931465
55.713790651792
56.30461090448
56.750278247537
57.108422277205
57.320830387829
57.429258954898
57.477270911024
57.494274212642
57.49719414361
57.494849742255
57.491226795455
57.487806615899
57.485121095743
57.483201574296
57.482045949107
57.481545621791
57.481591532052
57.482059036812
57.48282105816
57.483746664288
57.484687120139
57.485475070842
57.486100115091
57.486262614835
57.485987816334
57.485233120993
57.48400154755
57.482384078063
57.480295574304
57.477724120405
57.47473864867
57.471418810491
57.467867493234
57.464152925995
57.460341886866
57.456433019052
57.452464531966
57.448538098323
57.444703790033
57.440985421447
57.437471378219
57.434180307554
57.431151393614
57.428373923606
57.425889526142
57.423646261756
57.421638665753
57.419807098309
57.418148567453
57.416675021245
57.415394902738
57.414306898834
57.413379112269
57.413113850715
57.417682889177
57.446192106217
57.613539054033
58.57032509802
26.009962869296
22.922850074446
24.120578089231
25.117427163443
25.946784467858
26.644186954535
27.247575919325
27.818227383863
28.381406966998
28.954058710401
29.55536227729
30.191095045728
30.864252541372
31.575843856325
32.321715810589
33.091838432358
33.872905231861
34.652912825005
35.419389147839
36.163219117712
36.877859453854
37.559276845788
38.205400209222
38.816050103432
39.391342008227
39.932696042873
40.442131008426
40.921437518036
41.372495295571
41.797319403861
42.198027296937
42.57637902996
42.934004492034
43.272523818304
43.593408774952
43.897974067394
44.187394178536
44.462828207051
44.725274710389
44.975664917618
45.214834088362
45.44357877134
45.662595612923
45.872524229942
46.073951121841
46.26741706135
46.453422120485
46.63241257877
46.804815829439
46.971014237912
47.131372431429
47.286216850235
47.435852488113
47.580567055944
47.720620486112
47.856256143648
47.987694743264
48.115150230437
48.238821851745
48.358895226693
48.475541924601
48.588921784506
48.699185293348
48.806473462146
48.910920126797
49.012647803527
49.111767326264
49.208553289338
49.724789479675
50.585272759117
51.001308468384
51.361167024074
51.696658502057
52.01287401596
52.316717236259
52.616654765417
52.921995308789
53.243159780463
53.59220937987
53.983826124128
54.434687623717
54.957080564716
55.542481024294
56.141156057791
56.731214447669
57.094004545517
57.31137634381
57.423564358067
57.47385471908
57.491977508017
57.495225342795
57.492751476074
57.488763998564
57.484899409035
57.481796518205
57.479521892779
57.478068091291
57.477364739799
57.477308607605
57.477775826417
57.478635873641
57.479752698317
57.480973869039
57.48212073109
57.481557417874
57.482329061802
57.482620219087
57.482349063404
57.481482018578
57.480059807063
57.478117968174
57.475555601248
57.472415368678
57.468810925376
57.464862430188
57.460664748112
57.456285184754
57.45174037683
57.447136785179
57.442587712756
57.438165029883
57.43398689639
57.430161514969
57.426728593236
57.423744798747
57.421175764634
57.41890721811
57.41695311133
57.415363868025
57.414089635209
57.413126389063
57.412466935242
57.412088130577
57.411966733985
57.412049025859
57.412469493185
57.417921122358
57.446644114916
57.617812177937
58.647777314565
34.29075800359
28.756194962538
28.463250297607
28.487486944242
28.659526189867
28.918587589909
29.254889536815
29.663945737044
30.082262509416
30.544652233295
31.049743602599
31.587498615574
32.159599870973
32.766281554781
33.404289773865
34.06692543355
34.744701268844
35.427513691465
36.106275652965
36.771575267277
37.41672115044
38.037340632896
38.630572704207
39.195123159379
39.730816886441
40.238118692002
40.717812243996
41.1710539877
41.599525270425
42.004701500867
42.388095957648
42.751087945979
43.095177690964
43.421694055887
43.731871944043
44.02681517479
44.307653199286
44.575362212618
44.830849861443
45.074925130151
45.308376390831
45.531905098763
45.746155546663
45.95170751783
46.149110336013
46.338871917551
46.52144804036
46.697266629514
46.866721109137
47.030187762413
47.187998622666
47.340467126944
47.487879681464
47.630508672322
47.768607509445
47.902405045626
48.032117403432
48.157944175107
48.280077726879
48.398696609296
48.513967331499
48.626045442534
48.73507537797
48.841192346414
48.944523201212
49.045189625858
49.143290111019
49.243721291576
50.095980929381
50.72516712735
51.112139889809
51.463429068146
51.79223801816
52.10352176472
52.404282645794
52.702822495009
53.00832081818
53.331104553053
53.68327639445
54.079555799053
54.536028620243
55.062515873063
55.645277112083
56.228910985202
56.682771035921
57.056751014351
57.286497287017
57.408443917357
57.464831744399
57.486124569995
57.490502432455
57.487921146385
57.483180684139
57.478286687464
57.474146617097
57.470975473965
57.46874963391
57.467460545971
57.467047660025
57.467398687771
57.468381022354
57.469851850308
57.471645661473
57.473554552045
57.473446243436
57.475230198763
57.476518908476
57.477154731241
57.477028351546
57.476094498545
57.474426150333
57.471986735775
57.468694455746
57.464688396297
57.460123005849
57.455151473173
57.449852960167
57.444324391264
57.438775045649
57.433379321227
57.428308278774
57.423783099346
57.419964384792
57.416800935085
57.414223638292
57.41233359343
57.411160649823
57.410768892136
57.411136268283
57.412220794114
57.413957615452
57.416294926714
57.419152757143
57.422478397816
57.426110397676
57.429919266469
57.438255593419
57.468570083475
57.642610235663
58.785436342599
37.74565642182
32.600922345768
31.924198471197
31.61727798027
31.47115978901
31.424809292195
31.483502449672
31.629729269323
31.859785659359
32.163599743233
32.508957442758
32.901446840932
33.349984609096
33.838247003222
34.360459039644
34.912290092106
35.486259070619
36.073616459748
36.665924370938
37.255609889061
37.835575640008
38.400168488603
38.945526444548
39.469232609991
39.970048031165
40.447551731211
40.901806213495
41.333454780704
41.743413363268
42.132600548375
42.50216073253
42.853305463445
43.187102285909
43.504655286524
43.806922280777
44.094951973121
44.369691689765
44.632004889238
44.882690258065
45.122503351545
45.352163989011
45.572297310951
45.783497915633
45.986303922071
46.181243537175
46.368774705155
46.549334566642
46.723317274048
46.891106097606
47.05305231626
47.209474672434
47.360668207624
47.506906457836
47.648454700339
47.785551592676
47.918422563364
48.047275851572
48.172308409275
48.293705823755
48.411638812256
48.526268783601
48.637747084314
48.746215999611
48.851808689551
48.954649273305
49.054856352009
49.152541587243
49.257559218492
50.167209863121
50.754609743627
51.136020274191
51.484882286968
51.811896167333
52.121660731593
52.420716179657
52.716925071294
53.01898174456
53.336697283736
53.681516224638
54.067343304043
54.509656626608
55.019023703394
55.58557651669
56.161052225222
56.619959389354
57.007136259523
57.252434461785
57.387348218176
57.452232999161
57.478274790925
57.484709577557
57.482441529079
57.477080386934
57.471074643243
57.465692450785
57.461333466467
57.458109171804
57.45596364438
57.454925961254
57.454919765256
57.455829089168
57.457508953839
57.459787865004
57.46244284489
57.462865628513
57.465835256438
57.468363133753
57.47019981275
57.471136109291
57.471028937418
57.469820540414
57.467661521657
57.464340006111
57.459976404878
57.454753423703
57.448915232195
57.442607080494
57.436048416462
57.429582020398
57.423514889778
57.418220703973
57.413921166701
57.41057078588
57.408351904212
57.407626743985
57.408492410915
57.410988026628
57.415143750601
57.42092520555
57.428261201508
57.43702591622
57.447103351828
57.458284646479
57.470503674176
57.483447786619
57.497309185066
57.512425786578
57.549620332639
57.719976453881
58.946912122502
40.270133911471
35.19078222995
34.400289999893
33.999442712913
33.743268031598
33.584007237185
33.494809102827
33.497612029969
33.581293381522
33.726180573384
33.953609822986
34.2246928749
34.537083045041
34.909061787444
35.325825762879
35.775960485199
36.253853419284
36.752121649852
37.262598989749
37.777950335663
38.291910562348
38.799107612318
39.294666318209
39.775469717496
40.239357967095
40.68503164025
41.111912024531
41.519952026708
41.909445592678
42.280911578043
42.635089729258
42.972798918959
43.294816360534
43.60200332349
43.895241505192
44.175324471292
44.443047787767
44.699097839126
44.944212710281
45.179078154107
45.404297302751
45.620446251452
45.828029789403
46.02758956398
46.219589680751
46.404462226929
46.582597509555
46.754378669866
46.920169905745
47.080287778732
47.235037568985
47.384694053478
47.529527192897
47.669783467075
47.805689291996
47.937459137183
48.065293344645
48.189383432086
48.309907578928
48.427030600409
48.540906672469
48.651680728651
48.759490846926
48.864469290455
48.966733773469
49.066395357446
49.163557602194
49.27848947032
50.246179955974
50.78994318087
51.165615615088
51.511709525077
51.836571335354
52.144436925773
52.441369135379
52.734749762243
53.032729054317
53.344521471052
53.680813226966
54.054552339211
54.480421481136
54.969557444985
55.516074810306
56.079783324748
56.542135046017
56.943593980467
57.207459632883
57.358622024118
57.434860898846
57.467696428804
57.477533708812
57.476340497291
57.470740337091
57.463717873896
57.456986308555
57.451224977865
57.446689136592
57.443451185048
57.441466633673
57.440785862597
57.441319524044
57.44294633131
57.445496156362
57.448744442524
57.449627193697
57.453827150129
57.457758603068
57.46106370791
57.463408014257
57.464517348162
57.4642061268
57.462489927349
57.459370384518
57.454785222423
57.448955501026
57.442235101174
57.434917466141
57.427392305135
57.420237626662
57.414031012886
57.409082874037
57.405717222216
57.404617299494
57.406245923033
57.411053114937
57.419300502402
57.431105925539
57.446592871085
57.465772273862
57.48852855253
57.514651985461
57.543988359253
57.576161413086
57.610961088282
57.647580899855
57.686495330612
57.724833821868
57.782077900195
57.936721408482
59.065560801206
42.512060659721
37.105062355593
36.26908381218
35.831009121931
35.541056918318
35.332520229399
35.188853865708
35.111463046399
35.104133910097
35.157027619802
35.268546210782
35.453004661377
35.684210064881
35.952208642685
36.268843297351
36.629643926022
37.022135020709
37.438544284278
37.873402675057
38.320019686328
38.771560350002
39.222450681482
39.668532974337
40.105797080955
40.531718102684
40.944471139934
41.342802668848
41.726016508303
42.093888633817
42.446502298553
42.784163736447
43.107335433973
43.416593484493
43.712561921765
43.995836346602
44.267039049826
44.526865840396
44.775933250983
45.014819933241
45.244108413804
45.46428931956
45.675901831558
45.879436515809
46.075324077512
46.264000011912
46.445832435128
46.62120730663
46.790476842826
46.953960930845
47.111968442497
47.264768451984
47.41263841761
47.555830835233
47.694575045263
47.829086476798
47.959565878296
48.086211183051
48.209202608972
48.328706391136
48.444881203758
48.557874179905
48.667826862728
48.774873454861
48.879134461719
48.980723503461
49.079749339709
49.176269315191
49.321664074309
50.331302103825
50.831341636775
51.201157169591
51.544143033636
51.866503199879
52.172104365103
52.466511565271
52.756589914329
53.049910591163
53.355031967956
53.681810485666
54.04211911875
54.449651463622
54.915829111249
55.438538313293
55.986128948317
56.449040575009
56.864526840293
57.149360453177
57.320040495021
57.410935253577
57.453119208167
57.46818109241
57.469283955191
57.464101570099
57.456412934544
57.448390337169
57.441111822119
57.435039259505
57.430383068716
57.427189110001
57.425479477846
57.425279955443
57.426499322676
57.428998757719
57.432568597923
57.433654702107
57.438968578038
57.444328916955
57.449275385299
57.453338373609
57.456083257841
57.457143155441
57.45634094962
57.453671718789
57.449133944722
57.442873456986
57.43537245183
57.427154713799
57.418898442296
57.411611997046
57.405904471893
57.402650081946
57.40320143187
57.408637832054
57.419980034348
57.438311018289
57.464472663688
57.499143486038
57.542592557554
57.594818606193
57.655566239365
57.724549701189
57.801227617698
57.884470453589
57.973873559024
58.067649188957
58.167164383775
58.267284056068
58.376327622214
58.516082253335
59.143947509778
44.854477702618
38.597617036817
37.755560945836
37.291696333998
36.990863489331
36.764291822149
36.600643831
36.482888101182
36.422839368607
36.422225203746
36.468382632677
36.570381880804
36.732420226829
36.936155321988
37.171914732136
37.450235000717
37.767481326875
38.114526995319
38.483027568308
38.866918019212
39.261030357125
39.659697065645
40.058177364552
40.453209245372
40.841586257538
41.2211097677
41.590207904081
41.947840191772
42.29334268749
42.626340684943
42.946736647237
43.254674278662
43.550456199826
43.834459119931
44.107111054423
44.368891190598
44.620282990949
44.861768624564
45.093827084048
45.316979576851
45.531660879146
45.738307702482
45.93735247693
46.129152750861
46.314103428816
46.49258283095
46.664903022956
46.831381892723
46.992296881763
47.147932927288
47.298573385182
47.444453351069
47.585805391052
47.722842666955
47.855770222536
47.98479318098
48.110087788444
48.231825287383
48.350163375432
48.465249940139
48.577231125025
48.686240141893
48.792401437099
48.895832641071
48.996645282055
49.094942003754
49.190770194944
49.40192000095
50.418245045713
50.87911768138
51.243003541712
51.582417303534
51.901861496333
52.204816229707