/*--------------------------------*- C++ -*----------------------------------*\
| =========                 |                                                 |
| \\      /  F ield         | OpenFOAM: The Open Source CFD Toolbox           |
|  \\    /   O peration     | Version:  2312                                  |
|   \\  /    A nd           | Website:  www.openfoam.com                      |
|    \\/     M anipulation  |                                                 |
\*---------------------------------------------------------------------------*/
FoamFile
{
    version     2.0;
    format      ascii;
    arch        "LSB;label=32;scalar=64";
    class       volScalarField;
    location    "0.00012";
    object      dydt;
}
// * * * * * * * * * * * * * * * * * * * * * * * * * * * * * * * * * * * * * //

dimensions      [0 0 -1 0 0 0 0];

internalField   nonuniform List<scalar> 
109340
(
0
0
0
0
0
0
1.2420771177812e-07
0.0014494693181866
0.0091418189256371
0.026933346060842
0.058388833412572
0.10685909197899
0.17560328422853
0.26800631467601
0.38779928590805
0.53930599562553
0.72784515533141
0.9601683646796
1.2450519668028
1.5939680503741
2.0221242145313
2.5494138063844
3.2019229932379
4.0140515926429
5.0319071628155
6.3180531619356
7.9591916861885
10.07852856107
12.856876099035
16.570290522899
21.66079098639
28.878140562063
39.580120193389
56.392149690467
84.702517776351
136.19209082662
0
0
0
0
0
0
2.6436537734154e-05
0.0022825087398073
0.011542851123174
0.031745756157736
0.06641902223884
0.11888804822083
0.1924363161874
0.29052009365994
0.41700179497616
0.57647390730121
0.77453335619246
1.0183681112078
1.3173691890012
1.683868909626
2.1341389921186
2.6894631877041
3.3777688621478
4.2359884421251
5.3137564267223
6.6787590313135
8.4252997618526
10.688383619591
13.668019497258
17.673151026743
23.206017324194
31.136252671329
43.088875762186
62.342032675379
96.261208556029
161.53513429886
0
0
0
0
0
0
1.242400918755e-05
0.0020142780804417
0.010855633751805
0.030601156681765
0.064838347078702
0.11693924178974
0.19022996781302
0.28819560237216
0.41469979705935
0.57426717779379
0.7724620074446
1.0164073254705
1.3154526501485
1.6818838196122
2.1319762210294
2.6869765046141
3.3747666373193
4.2322405257851
5.3089790478048
6.6726377838684
8.4174612886609
10.678371671085
13.655279713131
17.657294353883
23.187850233915
31.123856934243
43.136774130897
62.732677046406
98.330968344166
172.60306147568
0
0
0
0
0
0
5.0849616743884e-06
0.0018351911359735
0.010459178034752
0.030044529575932
0.064195798866859
0.1162615774606
0.18953309217271
0.28745216707681
0.41385071147758
0.57323555449688
0.77114479881772
1.0146815545871
1.3132331940679
1.6790648235293
2.1286273838626
2.6832092229921
3.3707725656356
4.2283904430365
5.3057792816577
6.6709407320352
8.4185739429946
10.684289546274
13.669121505877
17.684403942633
23.238257773244
31.220032217297
43.369833894782
63.506478882613
101.73912292487
192.44246987824
0
0
0
0
0
0
3.032495389986e-06
0.0017321976168796
0.010132268206941
0.029404195328967
0.063178388480047
0.11482171665625
0.18764540093512
0.28511373644494
0.41108448238611
0.57009334865168
0.76769394338189
1.0109958615607
1.3100664562979
1.6770341675567
2.1293410236918
2.6889863821692
3.3850599372895
4.2564440417025
5.3550831434486
6.7524607605765
8.5481683351133
10.884971946082
13.974704070179
18.145882446138
23.9383249604
32.284132109829
45.078864753398
66.62790762729
109.58377234091
231.69936051961
0
0
0
0
0
0
7.94976610132e-05
0.0032749162417613
0.015025008609825
0.03972955317017
0.081240020946392
0.14318905658159
0.22926506084029
0.3435143205643
0.4906933314394
0.67667938321884
0.90893693704832
1.1966479750235
1.5505467160249
1.9932503858562
2.5471152379696
3.2428363233598
4.1212496273098
5.2365278104133
6.6613046049597
8.4943530132637
10.872634296998
13.991054538999
18.136785358618
23.75265352188
31.572153583878
42.808626852138
60.030464683544
89.075397993189
147.99449169618
347.01721098662
231.64429771577
388.20990792758
601.78674527404
853.55942092314
1132.4058761215
1451.2400506605
1815.5230849821
2231.0983927545
2694.0214354649
3191.5827672628
3749.2790758192
4203.3310040915
4639.0686489044
5009.7126111556
5283.2463568811
5473.5992355158
5580.8732757433
5620.3625387314
5606.0006936276
5545.9131920548
5451.9341754387
5337.2653686425
5208.479960646
5069.9202829695
4926.4650888272
4783.4053605297
4643.6577191157
4499.646816794
4366.5475247714
4236.1900332365
4107.8146558079
3989.2629290728
3870.1829482079
3761.920197478
3653.2590996691
3554.3319507217
3455.5395375912
3365.222093978
3275.4611934362
3192.9218569027
3111.2538220126
3035.6951965869
2961.328798167
2891.7781639075
2824.116161223
2759.7474349425
2698.2847129194
2638.884606466
2582.5033145446
2527.7693175414
2475.5902161501
2425.3608832649
2377.0418711128
2330.5414977262
2285.7671493545
2242.6314670105
2201.0543715473
2160.9557212094
2122.2598928727
2084.8958257371
2048.7990593054
2013.9091099833
1980.1677986106
1947.5196258048
1915.9135621071
1885.3042504446
1855.643672471
1826.8485035532
1917.2800027158
1467.7585345242
1304.8734654288
1216.7964894081
1138.6038768568
1066.6821995428
999.60471944016
935.84878289065
873.7475112971
811.57868447647
747.66327430359
680.67566127916
610.30129863747
537.94430207239
466.86182117207
401.4244575603
339.93612811648
299.38219996868
271.9634587028
255.12908297207
245.69084736925
240.95332513903
238.90102652797
238.16883474815
237.97208423489
237.94012794609
237.9254118794
237.88847044324
237.77052441846
237.66221993774
237.53024017958
237.38293395057
237.229975729
237.07809714398
236.93034689415
236.7901670481
236.62414163877
236.48533325025
236.3387649322
236.1856721984
236.02591585375
235.85634682132
235.66413579417
235.45866371069
235.24770101656
235.01524095763
234.75691619069
234.46909426563
234.13394529548
233.74472583248
233.33061751542
232.90914048744
232.43604562752
231.95285636192
231.44704088367
230.91409991118
230.37753020872
229.85175314096
229.34245464214
228.84721314361
228.36598202059
227.89853630888
227.44382988874
226.990317771
226.53424372305
226.05958219278
225.58015696288
225.22341116468
225.64211906809
230.69365569869
263.61294685051
555.43557080046
291.64824073209
497.7509819209
755.7468074317
1037.4452434647
1346.0494157707
1702.5447171944
2099.528747048
2535.809843136
3002.1846607859
3487.6999872982
3973.8788602224
4446.2222611483
4822.3255237383
5133.7038446157
5370.9810166114
5524.3288991226
5605.6049332672
5624.1658143509
5590.9863731943
5518.9283976034
5418.4408993075
5297.9538778235
5165.1751760213
5025.6190217186
4882.9005492202
4739.6964878551
4598.4176272114
4460.3177181356
4325.9076517005
4196.6062023537
4071.8525272403
3952.328315793
3837.8707486051
3728.4744050715
3624.0225222674
3524.232088672
3429.075623001
3338.1686523894
3251.4433185639
3168.5827101813
3089.4301063191
3013.7800663043
2941.4014779483
2872.2069276797
2805.8885964276
2742.4487302539
2681.5583270585
2623.2436237657
2567.2084493732
2513.4501086261
2461.7757310053
2412.1256942057
2364.3626262394
2318.3832672064
2274.1016098449
2231.428920672
2190.2875474134
2150.5986660094
2112.2907007724
2075.2947748468
2039.5469719202
2004.9866349815
1971.5570124871
1939.2045734058
1907.8788983092
1877.5325330047
1848.1210884161
1817.4591716824
1859.8789063819
1403.6861038002
1280.7177341261
1196.3836299795
1119.9150186837
1049.3807883947
983.32819942364
920.21506620898
858.33967123065
795.98116347882
731.50622053249
663.76619113468
592.81031803277
520.51193322167
450.47994731134
387.18846170415
340.43468628632
299.82625381488
272.33118516978
255.42459077314
245.92459952179
241.13929038443
239.05433180558
238.30211965137
238.09310044389
238.05282527505
238.0321336606
237.98752834415
237.86968035504
237.75624435635
237.62070848103
237.46869336702
237.30992179295
237.15156412532
236.99761009016
236.85224401555
236.67738611797
236.53327515948
236.38279098888
236.22699100282
236.0649712421
235.89295848925
235.7000425466
235.4949576924
235.28374774446
235.05006617781
234.78870569166
234.49861931922
234.16001539514
233.76720720594
233.35032108238
232.92046407376
232.43946170933
231.94730653636
231.42790674967
230.88235647152
230.33293211944
229.7923639634
229.26647369406
228.75348539617
228.25332345042
227.76568809814
227.28898354111
226.81430859024
226.3407308865
225.84877941722
225.35089648604
224.97882111856
225.37515307822
230.40774708576
263.52920795832
559.03032131349
344.00534493038
629.28530173057
936.07378825329
1302.0017964827
1662.9038648743
2047.9604038892
2463.996281889
2899.3352232318
3342.7888531581
3809.182588881
4207.4040633317
4593.1188485107
4928.9123747822
5199.9581860306
5404.3364068778
5539.3268891949
5608.3409567471
5617.7553808231
5579.7388507341
5506.6402694203
5406.0887644079
5285.7381395402
5153.7371382369
5014.8976083794
4872.6689179904
4730.2886181207
4589.8122397686
4452.3825865733
4318.8213088357
4189.8449669938
4065.9178822679
3946.7977070804
3832.9211085417
3723.8640585478
3619.8148168143
3520.354957255
3425.5021754977
3334.857853428
3248.3991743959
3165.7362906123
3086.8234559583
3011.3179163195
2939.1688000326
2870.0699774702
2803.9614587517
2740.5995326405
2679.8917653386
2621.6520001704
2565.7624362055
2512.0992896179
2460.5253546557
2410.9514032905
2363.2567776261
2317.3576750006
2273.1446561123
2230.5363001427
2189.4512301447
2149.8141273736
2111.5540565917
2074.6028466627
2038.8962342094
2004.3739102194
1970.979729845
1938.6603698287
1907.3648692396
1877.046659301
1847.6618836721
1817.0179788601
1855.1975208322
1401.9782696874
1279.9612946832
1195.7546629888
1119.3731511611
1048.9145348567
982.93614493599
919.90745742823
858.13524117181
795.90508528696
731.58780527298
664.03242879195
593.2729162538
521.15406961795
451.25356160955
388.02060293511
341.14819729119
300.4538250342
272.84321660833
255.82449407936
246.23561827629
241.38772352451
239.26528748162
238.49609611594
238.28327442268
238.24549879256
238.229096457
238.18235151465
238.0740553506
237.95858200087
237.81969479357
237.66324274802
237.49826601496
237.33173912956
237.16875174469
237.01433422831
236.82069892771
236.66620361392
236.50622331176
236.34216259883
236.1714058582
235.9911011422
235.79781742255
235.59281912284
235.37798399282
235.14263836905
234.87872365608
234.58301839565
234.23671768647
233.83751097256
233.41433492944
232.96977346393
232.47216424204
231.95758565968
231.41447018632
230.84629767205
230.27271026298
229.70124311691
229.14069010767
228.59060617355
228.05151905835
227.52328579233
227.00509944951
226.48947149517
225.9746431025
225.44383022821
224.89405971106
224.48824115224
224.84237165445
229.77021698212
263.31666589772
566.96727531196
465.71392871638
923.07906516386
1350.2727298975
1814.3150506883
2259.8138157786
2666.1908149152
3071.5534473438
3459.0729976153
3837.1288743598
4212.8827216524
4501.1671884711
4797.2860937292
5067.097281715
5288.0532387917
5458.3500844432
5565.7117302632
5615.2960008234
5614.7624223239
5571.1338638532
5492.9560687539
5390.4901526699
5271.5126156921
5139.7603407699
5001.2542536692
4860.2807798425
4719.0067510674
4579.1613361526
4442.5425194992
4309.9914607647
4181.7137485222
4058.3985298617
3940.0666249913
3826.6636314482
3718.2130139129
3614.5497833139
3515.571951124
3421.021419864
3330.7826119959
3244.5666272585
3162.2250272852
3083.5273150432
3008.2901893405
2936.3213381182
2867.4393992971
2801.5032898168
2738.3128854235
2677.7581402449
2619.6523735565
2563.9051592376
2510.3511431449
2458.8990600527
2409.4211391341
2361.8234180298
2316.0094588834
2271.8804313518
2229.3510264297
2188.337314704
2148.7662944028
2110.5662424136
2073.6703412097
2038.0151728653
2003.5413871005
1970.19281567
1937.9157638763
1906.6584164654
1876.3764057374
1847.0265924885
1816.4235931243
1848.1564518608
1399.711929331
1278.8777200677
1194.8455830824
1118.5892885471
1048.2388919479
982.36766836632
919.46133012083
857.83752932669
795.79209264745
731.70198157852
664.41301479574
593.93733653528
522.07886734777
452.36925245985
389.2198188167
342.22546488289
301.40139073993
273.61463871385
256.42654579601
246.70295333555
241.7601082838
239.58206255276
238.78890979153
238.57148307907
238.53832261472
238.52850043467
238.48612543149
238.38504192032
238.26675004085
238.12157181249
237.95648947439
237.78026215984
237.60009188139
237.42205150454
237.25141412393
237.03637301464
236.86475833113
236.68958212186
236.51233792016
236.33010003484
236.13960936019
235.93890131401
235.72936694042
235.50970319922
235.27107188789
235.00205370923
234.69859093539
234.34135297513
233.93187061845
233.49513827526
233.02526157612
232.50461992164
231.9601252022
231.37946609452
230.77144096428
230.15268886367
229.5308145133
228.91471292976
228.30566586783
227.70435052398
227.11108607053
226.5271858363
225.94565771467
225.36628223678
224.77160869479
224.16285135999
223.6685400442
223.96048436247
228.80055384763
262.6284685716
576.93311386276
886.05070846571
1720.1193947778
2410.7342707501
2933.7629324279
3333.0663698559
3661.7158558057
3921.2310844221
4161.5925428788
4380.6803690626
4588.5317768474
4809.7927329039
5028.2127146222
5226.4618568793
5391.4185781282
5514.9040392406
5594.5076004118
5625.321728506
5611.1165451732
5559.8516347817
5478.7236489812
5374.3883754028
5253.3645891511
5123.1197572079
4985.9758652605
4845.7593129276
4705.391866217
4566.9896148642
4431.3485939391
4299.6280695425
4172.3628736578
4049.794081128
3932.1755762798
3819.4331000607
3711.6029985124
3608.4453323732
3509.9400444368
3415.8300120309
3325.9640726719
3240.0932234793
3158.0824211687
3079.6658743027
3004.7030397979
2932.9694403465
2864.3330004338
2798.589793624
2735.6069363722
2675.2181390262
2617.2896767402
2561.686460334
2508.2749208454
2456.9522201415
2407.5950640521
2360.1100409205
2314.3919918017
2270.3581529619
2227.9178009189
2186.9886795022
2147.4950029038
2109.3651956172
2072.533898265
2036.939155972
2002.522360649
1969.2271394385
1936.9998841618
1905.7882040859
1875.5496420803
1846.240364642
1815.7138465277
1839.1294215777
1396.7726072574
1277.466988571
1193.6543212631
1117.5618356642
1047.3527896377
981.62230489621
918.87591140458
857.44550041519
795.64037183716
731.84580033059
664.90373156454
594.79833096339
523.28056118491
453.82263405126
390.78577981435
343.66572179358
302.67375250397
274.65590489536
257.24328205768
247.33900574833
242.26766931493
240.01267398744
239.18478191606
238.95920494401
238.93102033349
238.92907098062
238.89259852152
238.79895689112
238.67767424935
238.52504166093
238.34897193938
238.1582585976
237.96043622944
237.76233493462
237.56993514683
237.3282852633
237.13236512873
236.93565049967
236.73945864902
236.54123860589
236.33763880989
236.12612309862
235.90838446664
235.68236231915
235.43862259983
235.16171000612
234.84534816445
234.47199423664
234.04796858718
233.58966435809
233.08514302589
232.52920859918
231.94023598366
231.30782987981
230.64328379428
229.96113512828
229.26914926169
228.57606620222
227.88480099824
227.19614416015
226.51119523537
225.83634607002
225.1647810381
224.49558699812
223.81108348742
223.1183775748
222.49685070067
222.71170475386
227.41401886511
261.47693483377
589.36394171861
4223.9689885722
5008.3359307496
5053.3594295784
4915.0029387492
4827.7426862232
4792.8680823558
4800.1604464967
4826.4333435982
4907.2976183726
5004.5186725372
5130.6740306234
5260.2691444894
5386.1792891508
5495.9134651281
5576.4593942873
5622.8019411395
5632.1783062918
5605.4594375014
5546.3601738249
5460.6955097472
5354.8106003552
5234.2901178932
5103.2223129528
4967.4746872701
4828.8754160009
4689.9453910669
4552.4393527249
4418.2996847861
4287.8328760762
4161.5669299604
4039.9178610247
3923.1940319597
3811.2253491905
3704.0160167969
3601.5370428731
3503.5550441441
3409.9287329139
3320.4798867808
3235.0430845397
3153.3691216822
3075.2881478154
3000.6184016356
2929.1755429674
2860.7857171255
2795.2782224625
2732.5141714323
2672.3264278396
2614.5851954284
2559.1455171917
2505.8973531472
2454.7185724698
2405.4998927374
2358.1379842799
2312.5345926137
2268.6064888016
2226.2651281424
2185.4297399656
2146.0217353041
2107.9718747069
2071.2153963003
2035.689868789
2001.3364066586
1968.1002455464
1935.9296727785
1904.7720455073
1874.5841981071
1845.31967701
1814.9319182233
1827.7561871872
1393.1021436549
1275.7332111568
1192.1771520603
1116.2871100705
1046.253534199
980.69786067548
918.14865266306
856.95596020441
795.4457548265
732.01398192579
665.49838482612
595.84951226813
524.75377898553
455.60987593664
392.71865673759
345.47155679204
304.2781007902
275.97485816985
258.28137636884
248.14921127081
242.91446913872
240.56013092972
239.68591866344
239.44785036163
239.42405667062
239.43110305935
239.40183774587
239.31484189937
239.19038225816
239.0287938935
238.83902355358
238.63016057206
238.4102942862
238.18676798043
237.96549611632
237.69497024718
237.46754328184
237.24271877155
237.02188760002
236.80262483144
236.58182516706
236.35604159845
236.12471029868
235.88873267195
235.63533662157
235.34568363383
235.0115681486
234.61746102574
234.17048534342
233.68095203105
233.13133164384
232.52666192384
231.87702217559
231.17494629974
230.43276961529
229.66332242639
228.87523079241
228.07854774677
227.27777705444
226.47464806864
225.67123788433
224.87343654423
224.07850094482
223.28658850538
222.48004128898
221.67469972274
220.88469816867
220.98928238581
225.47833780204
259.67920106001
604.72106122335
17934.667378002
10796.15727422
8408.3403681905
7123.7052434823
6336.3776327483
5874.1752116042
5624.7633882922
5483.8826268214
5417.1985106734
5404.0694714395
5423.5198463315
5467.8120115861
5524.5022741075
5581.1107533034
5625.207512402
5647.0368708687
5642.6376491138
5609.1491451779
5548.2455207696
5463.6759510579
5360.0981999892
5242.1455907486
5114.4359227936
4979.9202635989
4843.1708714943
4706.1859761477
4569.9318682604
4436.1359193171
4305.9768360508
4180.104944684
4058.4505105494
3941.3683896225
3829.1567474164
3721.6497312261
3618.712236546
3520.2314557283
3426.1623716197
3336.2107749256
3250.2446493674
3168.0627611694
3089.5069229488
3014.3442478359
2942.4248212966
2873.5765890942
2807.6412863922
2744.4501909274
2683.8550520968
2625.7224286033
2569.9145265816
2516.3110963717
2464.7866332495
2415.2385390916
2367.5638517931
2321.6642337835
2277.4455553658
2234.8231376072
2193.7207744076
2154.0610423178
2115.7704263745
2078.7804540083
2043.0293026723
2008.4591282109
1975.0145985438
1942.6418070239
1911.2950722875
1880.9302822116
1851.4965282995
1822.8253447049
1912.8950502216
1442.9861138492
1296.55725042
1210.3917710254
1133.0812134803
1061.92005384
995.58440662281
932.65995190334
871.55160820871
810.60784023315
748.20005210134
683.00421013909
614.59431633673
544.120872218
474.52086564877
409.89040597643
347.647129038
306.22048735279
277.58034363412
259.55106725594
249.14353106575
243.70914063193
241.23086887526
240.29617896219
240.03928577161
240.0179434542
240.03406637414
240.01271439397
239.9315663522
239.80386403702
239.63211136119
239.42608488583
239.19611992764
238.95038849074
238.69726598779
238.43924666109
238.37704629181
238.09417205616
237.81638926856
237.54710501317
237.28500239944
237.02843111834
236.77284640714
236.51212464057
236.25402962198
235.97692266227
235.66167428585
235.29060228284
234.84903126934
234.35173976128
233.7950082437
233.15819313227
232.45339825164
231.68014807551
230.83774136724
229.93838414067
228.99364708054
228.01404292015
227.012378554
225.99363584053
224.96175841156
223.92611246527
222.89211450839
221.85469487324
220.81999701826
219.76993283656
218.73347087482
217.62511559647
217.48544487508
221.50551354004
255.64289248244
632.834290336
11144.232844749
12574.304847594
10535.488631977
9123.7310912384
8129.1329089451
7416.6773895393
6891.4684161001
6488.0869872353
6248.7863505831
6067.5577940988
5933.6125670801
5848.3910393417
5792.9263564435
5754.4518050761
5721.125356899
5682.6577919262
5632.2285021287
5566.590570518
5484.0264642243
5385.9108244504
5275.0409393859
5154.2846604974
5026.743073799
4895.2485899736
4761.7800294487
4627.9996774082
4496.0562222747
4367.1436614481
4241.3061578555
4119.3060513135
4001.4558169329
3888.2266163196
3779.3584729102
3674.9141395697
3574.8340288102
3479.1288826601
3387.4960424861
3299.8242790429
3215.9326766767
3135.7120312221
3058.9340446778
2985.43589019
2915.0471831202
2847.6331537821
2783.0251413273
2721.0651849548
2661.6194961884
2604.5574438807
2549.7579056665
2497.0877581403
2446.4426320857
2397.7148405113
2350.8119515468
2305.636713161
2262.0980284647
2220.1147812605
2179.6101575284
2140.5148150487
2102.7571485068
2066.272098243
2030.9981069579
1996.8781660553
1963.8587819889
1931.8885657744
1900.920474581
1870.9120335929
1841.7992081251
1812.6936428014
1778.5892173585
1378.636324155
1268.5212996572
1186.006124571
1110.9427361056
1041.6421573478
976.81903405526
915.08377118737
854.86344233883
794.55368724388
732.59867807782
667.82531052874
600.05636723588
530.72246603717
462.92126515836
400.70383271006
353.11588019208
311.14950410795
281.69628675844
262.83236403455
251.72846972666
245.77950138019
242.97080741581
241.86378924969
241.54230003116
241.51434556992
241.54537501926
241.53975986111
241.46736651726
241.33186520903
241.13574950171
240.89082337321
240.60959313499
240.30176836412
239.97675375344
239.63884616608
239.55861005937
239.18433011845
238.81411767398
238.45579176427
238.11061817486
237.77877846765
237.45705834595
237.13220609477
236.81350973613
236.47433513847
236.09437981962
235.64065984002
235.10308059173
234.4981772249
233.79192186574
232.97088481699
232.05155956869
231.02210341065
229.88954734353
228.66727789792
227.36380803744
225.99229381598
224.56756287274
223.10012948681
221.60190208426
220.0813585762
218.5549100264
217.0205463448
215.48959805018
213.94373888014
212.42017603432
210.74865309208
209.94857896482
212.86996099806
245.31981515999
666.71805787158
8603.5814487151
10987.80312545
10273.384110304
9349.9583816552
8576.9516395963
7965.1539571574
7465.1494180746
7060.5665039406
6714.3931469046
6444.948368991
6242.5635848732
6086.587061283
5953.1540543706
5848.647534127
5763.0777669631
5684.1125465377
5603.824242633
5517.7439909384
5423.0924017335
5318.9307537459
5205.9145155002
5085.9802520579
4961.0737522599
4833.1604724875
4704.086382324
4575.1980317872
4447.7948225439
4322.756591954
4200.7315899783
4082.4973550996
3968.1335745127
3857.7726928568
3751.5882698512
3649.5207438115
3551.7323189631
3457.9679484843
3368.1101242921
3282.0067154233
3199.58240306
3120.6514803734
3045.0263699293
2972.5696014508
2903.1350683503
2836.5915095068
2772.7536822526
2711.5019635628
2652.6940342888
2596.2246329057
2541.9594773502
2489.7813448644
2439.5855092624
2391.2738792101
2344.755099657
2299.9297722668
2256.7159735053
2215.0328048162
2174.8075488317
2135.9696376861
2098.4494320433
2062.185170075
2027.1176507232
1993.1907822326
1960.3520781353
1928.551208746
1897.7443255366
1867.8889327038
1838.9392442384
1812.2102875279
1734.632338588
1367.0027669036
1262.0491622867
1180.4261160901
1106.0763164014
1037.4333944812
973.27296327589
912.26353149531
852.89956513246
793.63910781497
732.97327564579
669.72747792625
603.62541382139
535.88509183974
469.33895381586
407.81436122274
360.0855613641
317.52447314131
287.100515763
267.19671169704
255.19940781365
248.57141292381
245.30629409767
243.94043707882
243.50252935706
243.44066503694
243.47460564779
243.47979149635
243.41151143502
243.26477851281
243.03893039706
242.74842635972
242.40499327575
242.02246683846
241.61100521504
241.17655733803
241.05240569176
240.56596440691
240.07874081409
239.60426606358
239.1463039252
238.7063760452
238.28416584741
237.86126275366
237.44442897992
237.00085450166
236.51370562807
235.93188800194
235.24780017662
234.46029766977
233.51849027909
232.4174885894
231.16182904861
229.73852372785
228.15834516158
226.43246137118
224.56976645561
222.59219381148
220.52240845392
218.37708145662
216.17417277159
213.93029966892
211.6658892769
209.37653287278
207.08369890489
204.7699044497
202.49283647276
200.11849240701
197.90320591044
199.18692221631
226.38562908778
657.96052299558
7490.0293999008
9239.4559648579
9361.9480629014
8880.0741403967
8347.7110443037
7882.663140753
7477.7726525803
7124.6204231438
6817.4562922645
6548.5104632571
6323.9723391248
6149.5897984984
6004.0603306577
5868.2638681065
5751.1473313466
5647.3763016098
5547.503363968
5447.8004747701
5345.2570313457
5237.7212329881
5124.6310026695
5006.6744043347
4885.2789448496
4761.7879433812
4637.553756316
4513.7496727327
4391.2732209674
4270.9937415147
4153.5635269051
4039.3715778469
3928.7079365526
3821.8013148665
3718.8120083721
3619.7032415335
3524.437158327
3432.9170666478
3345.0892336889
3260.9424909897
3180.2206834509
3102.8017084101
3028.5582019429
2957.3528482926
2889.0865291192
2823.5585611174
2760.658551255
2700.2450706429
2642.2194082189
2586.4539622138
2532.8251402962
2481.2354074687
2431.5758848722
2383.7635003577
2337.6959502767
2293.2863134156
2250.4548498764
2209.1256764245
2169.2298235215
2130.6963079415
2093.4579781006
2057.4542342812
2022.6281190437
1988.9272333822
1956.3003624244
1924.7019341158
1894.0845362739
1864.4047991646
1835.6131014017
1813.7660393611
1677.5990988773
1354.0273703561
1254.2127396229
1173.6501117486
1100.1371300856
1032.2823491015
968.92159963736
908.7800958133
850.42911387318
792.40075457998
733.24518543115
671.79461797066
607.6715003704
541.8578842974
476.87837238643
416.28815528962
368.55053214682
325.40368691383
293.89297185467
272.77302501473
259.68569595502
252.20294933345
248.33664395168
246.60219012495
245.97441709597
245.83416956632
245.84699127683
245.85065837738
245.77901062045
245.61461073074
245.35400520588
245.00934640843
244.59639915157
244.12687389229
243.61511107441
243.06955941521
242.88110939177
242.26337039177
241.63570031347
241.01794533691
240.41632438934
239.83266574186
239.26857105469
238.70535024799
238.14699341175
237.55301942115
236.90261901604
236.13463250918
235.22996325983
234.16667274178
232.87758541007
231.36053428589
229.60338929603
227.59136825291
225.33838117081
222.85994498988
220.17874198956
217.31959989157
214.30208025355
211.17081255852
207.95136397334
204.65944992765
201.32040143668
197.9350298528
194.53982182997
191.10451208487
187.70627489172
184.20384443274
180.5020925031
179.19809720029
195.50012989806
511.19332129158
7026.488968116
7911.6102824529
8359.5757930945
8232.5569392037
7902.7059374871
7567.5849199747
7254.8119305145
6973.505653356
6712.1212115005
6488.6821609356
6278.2416565701
6098.3082788865
5944.7321729919
5806.4399112837
5681.6245240565
5566.3911687264
5459.5972847832
5355.0846354456
5249.75076797
5141.9439942805
5030.8036865515
4916.7933674551
4800.2943361475
4682.201464906
4563.4942650672
4445.1875799984
4328.1180549623
4212.9661236787
4100.3215176755
3990.6173779712
3884.1453263518
3781.075842937
3681.5102702199
3585.5214005686
3493.1240671492
3404.2636858055
3318.8348220991
3236.773258699
3157.9433439915
3082.2547633344
3009.6328937322
2939.8783958057
2872.8856785899
2808.5366198775
2746.6931217107
2687.2778389747
2630.1412010817
2575.1837100148
2522.3026028315
2471.389312822
2422.3672667972
2375.1266125365
2329.5849133378
2285.6582672319
2243.2721276683
2202.3595517626
2162.8444037878
2124.661527387
2087.7500303687
2052.0490950307
2017.507073604
1984.0705979957
1951.691385376
1920.3246066097
1889.9205959311
1860.4434809859
1831.8236022738
1822.6503827968
1611.0106562204
1339.9286234202
1245.0356663414
1165.6501481805
1093.1070682952
1026.1688611722
963.74090394132
904.60238459113
847.40966729798
790.77805522106
733.32839670683
673.91090792855
612.05098034176
548.48489938751
485.39585479934
426.02098458988
378.46894547176
334.82103504344
302.17249362478
279.69832180567
265.3341743988
256.81452121873
252.18614914027
249.95047326156
249.03580002056
248.75214323374
248.70397367225
248.68315606608
248.59464363851
248.40299100538
248.10057260111
247.69339545603
247.19936698734
246.63390797622
246.00866474367
245.33611866105
245.06721739722
244.2988255972
243.50972557594
242.723167279
241.94838966325
241.18737832011
240.44282475401
239.69517539054
238.94613017307
238.14954134216
237.27137802673
236.24769335133
235.02740036591
233.57460972658
231.80193324607
229.69081106569
227.21172659447
224.35412011429
221.14400462044
217.59870490525
213.79156215944
209.77612764033
205.61309176532
201.32053106879
196.8976177215
192.34878132964
187.7320601388
183.02720292821
178.29317505247
173.46714570269
168.62602324752
163.68510094845
158.71501331442
153.78821345026
154.41228129404
228.99987371709
6946.0703086847
6946.1646761187
7447.4175462646
7559.3946466403
7400.9713795357
7171.4329123863
6937.5256529146
6717.6848590792
6507.3207805859
6304.8733166926
6134.7210660257
5964.6052883713
5823.0945875058
5695.4494114787
5571.3966557416
5458.1353291008
5349.9223136042
5244.0348891234
5139.6756202542
5034.5002406854
4927.3110698398
4818.1393393109
4707.3048975015
4595.2539809904
4482.7248648763
4370.5001535221
4259.3106721912
4149.7383850047
4042.254749958
3937.3006546123
3835.2054820126
3736.1830955847
3640.3400147968
3547.7286164168
3458.3898320769
3372.3101852887
3289.4322618329
3209.6971054878
3133.014818354
3059.2818815966
2988.3817866464
2920.1922464241
2854.632871621
2791.6126090417
2730.9776624126
2672.6360723382
2616.4879163557
2562.4295289097
2510.3927759057
2460.2627186262
2411.9385761686
2365.3483961764
2320.3991652901
2277.026750322
2235.1550218553
2194.7085927163
2155.6275506259
2117.8442159031
2081.3033998981
2045.9514817682
2011.7318650482
1978.5938046629
1946.4909520803
1915.372695088
1885.2035514502
1855.9431538074
1827.4433774831
1847.6767769596
1544.5028666535
1325.2506049756
1234.5258943414
1156.4207221275
1084.98183508
1019.0876289977
957.71883915952
899.70910860094
843.80509534254
788.71318991941
733.13370013682
675.94750081882
616.59660755529
555.57268878838
494.69848788688
436.85221431302
389.74629248486
345.7659713848
312.01102485406
288.09178990299
272.29838487654
262.5614733423
256.99967143062
254.11160431326
252.78826153605
252.27313532764
252.10441511413
252.02134685166
251.8920913477
251.65798954386