/*--------------------------------*- C++ -*----------------------------------*\
| =========                 |                                                 |
| \\      /  F ield         | OpenFOAM: The Open Source CFD Toolbox           |
|  \\    /   O peration     | Version:  2312                                  |
|   \\  /    A nd           | Website:  www.openfoam.com                      |
|    \\/     M anipulation  |                                                 |
\*---------------------------------------------------------------------------*/
FoamFile
{
    version     2.0;
    format      ascii;
    arch        "LSB;label=32;scalar=64";
    class       volScalarField;
    location    "0.00012";
    object      k;
}
// * * * * * * * * * * * * * * * * * * * * * * * * * * * * * * * * * * * * * //

dimensions      [0 2 -2 0 0 0 0];

internalField   nonuniform List<scalar> 
109340
(
6.9107295391279
6.9070776551467
6.9087071947451
6.9115169776443
6.9118403505287
6.9081531253752
6.899926161509
6.8876989636794
6.8723040145832
6.8534482157727
6.8312653725354
6.8059648118201
6.7777559628196
6.7468381155793
6.7133994599739
6.6776216692778
6.6396816366163
6.5997517697281
6.5580013363586
6.5145949597285
6.4696906223779
6.4234371011683
6.3759723163188
6.327421478384
6.2778947614226
6.2274838656649
6.1762566584
6.1242500351209
6.0714598539977
6.0178243318348
5.9631954748611
5.9072847633526
5.8495437998226
5.7888555266799
5.7226280937883
5.6443131386497
6.9061700354073
6.9050211025129
6.9063424073787
6.9064712432392
6.9032645350198
6.8960809510569
6.8847951643045
6.8690822760431
6.8491994801807
6.8255573630162
6.7984165794144
6.76801039159
6.734573973534
6.6983414258487
6.6595442425985
6.6184094749931
6.5751608312418
6.530019150467
6.4832026115202
6.4349244668087
6.3853893330518
6.3347875789531
6.2832918991021
6.2310547608905
6.1782053574183
6.1248447689434
6.0710412268904
6.0168236670565
5.9621698851816
5.9069885638878
5.8510849987081
5.7940942269765
5.7353284214772
5.6733702493859
5.6049371752457
5.5217194162773
6.9007783902416
6.9009774789629
6.9010884947769
6.898203192146
6.8908664278023
6.8785343098697
6.8609994050243
6.8383808923539
6.8109372166405
6.7790516383486
6.7431109335744
6.703482485241
6.6605314363622
6.6146230223304
6.5661206398618
6.5153842020292
6.4627679455916
6.4086263772274
6.3533152067875
6.2971735073578
6.2405154111204
6.1836103300674
6.126688879025
6.0699451706716
6.0135192571005
5.9575056040627
5.9019635512589
5.8468877317979
5.7922247883892
5.7378454679006
5.6835039356064
5.6287853545647
5.5729110055309
5.5142785105491
5.4491651937811
5.3676130920086
6.8896888809451
6.8951896717486
6.8936106484921
6.8842393507354
6.8668994904964
6.8416405684276
6.8087690708749
6.7687484775935
6.7222044601358
6.6699008319218
6.6126810627869
6.5514164106756
6.4869793656351
6.420222252903
6.3519845016461
6.2830802489291
6.2143015562615
6.1465928692482
6.0806649396749
6.0171299236004
5.9564582202831
5.8989219938589
5.8446199563342
5.7935593207403
5.7456879923609
5.7009052665028
5.6589434649211
5.6197136614701
5.5830587127415
5.5487810118906
5.5165648108435
5.4858759662883
5.4556484419484
5.4234830509718
5.383130821572
5.3154111457916
6.8773172337434
6.9043539164892
6.9113120188866
6.8979772088147
6.8637316312162
6.8100651001366
6.7401883808702
6.6581864588546
6.5684905973591
6.4755054409759
6.3832884855109
6.2957064836552
6.216101462402
6.1474690833467
6.0925557417102
6.0539539455843
6.0342146842349
6.0365926636843
6.0614018020021
6.1060262857675
6.1668187823886
6.2407272567123
6.3253671166578
6.4189168866437
6.5199598673598
6.6273601720433
6.7401576077001
6.8575054242785
6.9794444191227
7.1051981494564
7.2329672729435
7.3603878483085
7.4841377102317
7.5971352686714
7.6794957984086
7.6580143607933
8.3375189369715
12.370171132392
15.808681146172
18.426209629068
20.232114080327
21.357321651267
21.965130611254
22.20463984641
22.192526094381
22.023829289364
21.753491799254
21.424141093395
21.064758414938
20.694669455222
20.32667721948
19.969749189832
19.629617785153
19.310032692523
19.014600556399
18.746917702208
18.502477780796
18.278377371605
18.073136816692
17.885945346651
17.716241738465
17.563601210522
17.427738873593
17.308550024621
17.20617526527
17.121105054241
17.054422729061
17.008330416196
16.986186101656
16.995774121028
17.045443806364
17.126300675722
5.5404183005155
5.4008581766677
5.2241636704579
5.0106753987595
4.7605769829241
4.4744272859006
4.1562325696249
3.8122516081776
3.4525023785499
3.0941466267347
2.7515763816771
2.4664599862647
2.2197014346798
1.9921779430863
1.7847842574509
1.5965343278078
1.4297050908827
1.2833206836768
1.1557499218162
1.0455381330597
0.95026072456786
0.86716458512609
0.79482032253119
0.73202855464857
0.67722819935317
0.62857381484916
0.58499748765916
0.54819305789158
0.51303905841844
0.48266815870072
0.45543415935414
0.4298998026186
0.4083172604248
0.38699944924956
0.36922412786411
0.35127394764056
0.33631500026602
0.321085806593
0.30832649712838
0.2954125240194
0.28438268573076
0.27344778629366
0.26367117396017
0.25442465201643
0.24554288278556
0.23756214314679
0.2295853872428
0.22259610894182
0.215568114279
0.20931854024369
0.20322250917007
0.19748999294634
0.19207852499332
0.18694356070482
0.1820592518956
0.17740949545546
0.1729808303152
0.16876370221838
0.16474726519145
0.16091831043361
0.15726030259983
0.15375745180548
0.15039669260378
0.14716781807221
0.1440628473858
0.1410758262673
0.13820232542329
0.18032829570432
1765.0736650017
3562.8978479061
2312.8952211151
1589.8579639707
1157.2080709582
881.02473085141
693.62487666783
559.40133685762
458.87204605942
380.81144179199
318.44230749815
267.47930735826
225.13425835816
189.56119141663
159.46475428203
133.8423436748
109.46278154139
91.566854426074
76.770210367423
64.800177436858
55.477838874158
48.601825120339
43.775059944265
40.436070224362
38.05175341659
36.238046777102
34.755194301842
33.457820392031
32.256794426547
31.096579705953
29.948572483954
28.798233785797
27.639592970714
26.476779231647
25.322567717326
24.190832034221
22.838541335947
21.823217604741
20.882271544821
20.033161945874
19.284970614931
18.644908021693
18.117714899226
17.701901906057
17.393990881531
17.191144036986
17.087991584523
17.071240194139
17.131195974036
17.264487761974
17.456451962655
17.696966877725
17.97932026287
18.266610160851
18.539668161083
18.795851474447
19.023386383095
19.213612068478
19.357471888932
19.451850661262
19.497851106659
19.496957170898
19.466421200349
19.401686070018
19.304233320788
19.182659289614
19.042687172238
18.881857569823
18.673302636299
18.632058391551
18.300834316126
18.307570748316
5.4066080026965
5.246406380755
5.0359875198387
4.7802265091517
4.4841653231774
4.1537837362246
3.7977206054556
3.4269856815822
3.054014667645
2.6898617217158
2.3457011244534
2.0307075260451
1.7603895343988
1.5285904692345
1.3347393545075
1.1770594775293
1.0507154522205
0.94991332023318
0.86609958108616
0.79575689389155
0.73592875288488
0.6842776821483
0.6391442631548
0.59924968655235
0.56354418592034
0.53130175151401
0.50189266282353
0.47483621782041
0.45007636090761
0.42716445192749
0.40630177859548
0.38705646576031
0.36941602876503
0.35308555088411
0.33798404512577
0.32394206948881
0.310880712749
0.29872309352635
0.28741899562141
0.27686321849004
0.26703599622277
0.25779521639538
0.24915773708795
0.24097769788816
0.23331113378982
0.22602943897308
0.21919672879904
0.2127143206969
0.20661944311661
0.20084356850749
0.19538665450034
0.19020058063504
0.18526558721381
0.18056876164857
0.17608507281677
0.17180623916393
0.16772130170463
0.16382354954727
0.16010159979812
0.15654340401349
0.15313482225515
0.14986272406954
0.14671524996986
0.14368355242796
0.14076154813578
0.13794551835361
0.13523090710697
1.7792452179239
3741.1620945284
3187.0710448479
2090.3195810177
1459.1834988439
1075.4253487702
826.56816654407
655.30794036295
531.16093888908
437.2593490386
363.7636312358
304.66495537821
256.13131539306
215.66268161016
181.59198396176
152.71859313294
128.10728869552
109.50179918543
91.608868116492
76.828224908957
64.874903113038
55.560999876161
48.687167287785
43.860205786699
40.521746990404
38.139460323526
36.328746237764
34.848928832743
33.554007784514
32.35367259592
31.193595254901
30.044590152197
28.891922902299
27.729943445201
26.562912058234
25.403747952095
24.266538335548
22.906619409624
21.884456846181
20.936715980291
20.08093527477
19.326551374573
18.680648638425
18.14754216244
17.726070412968
17.413028763796
17.20543324214
17.097820861315
17.076963615096
17.132946362666
17.262909351263
17.451829663663
17.688190388955
17.962271475864
18.241627305422
18.511370631371
18.764328419735
18.98870201178
19.175673458903
19.317003637183
19.409463257851
19.454308800614
19.453219735499
19.422370882652
19.356606831384
19.257357305834
19.13304409936
18.989474974997
18.829394513768
18.632609829605
18.555013649612
18.210562273991
18.247612947794
5.2474796298641
5.0692147282686
4.8338740647037
4.552663366698
4.2376386543169
3.8994367951048
3.549127734464
3.196224160094
2.8498204396043
2.5135136303319
2.2075484055514
1.9257087779579
1.6762458812111
1.45998467408
1.2759029822963
1.1221113049728
0.99554034221779
0.89179059765498
0.8040008078396
0.7294291652063
0.66641463463174
0.61316569162065
0.56776428471522
0.52888562268745
0.4954349867974
0.46628753092691
0.44056310084155
0.41766360247323
0.39716533922099
0.37868105041338
0.36186611125864
0.34664538414558
0.33266990507331
0.31982849158969
0.30782226054111
0.29660369250648
0.28598202579972
0.27603076057281
0.26663846027042
0.25785596370447
0.24955193281098
0.24174954461842
0.23433274253107
0.22732478097239
0.2206476401292
0.21431679963457
0.20830119941854
0.20259187926712
0.19718629245757
0.19204491205069
0.18717235857878
0.18252200464287
0.17808349718842
0.17382925708362
0.1697557091772
0.16585448197456
0.16212004842531
0.15854701968872
0.15512636039843
0.15184786616642
0.14869969798728
0.14567012003807
0.14274842334256
0.13992714098185
0.1372016922635
0.13456968083061
0.1320275041103
1.9393241584743
3785.3881210978
3178.9777492761
2085.1483689048
1455.8067906226
1073.0922558709
824.92637840878
654.16988536161
530.4028158979
436.7848760571
363.49639592488
304.54523340047
256.11503041328
215.71940549757
181.70305560707
152.87547800938
128.3116901918
109.72076331445
91.857366717144
77.092508513599
65.147178081995
55.827148495444
48.936871422547
44.091448543817
40.739421463493
38.35046952974
36.538347927467
35.059724622714
33.766601468536
32.566450144978
31.405697148331
30.254207880912
29.096376036165
27.926970584294
26.750539152787
25.580351864984
24.431175124546
23.053830028224
22.016379532918
21.053461518956
20.182886913863
19.414728981178
18.755794267724
18.209642987727
17.77654580986
17.453193283668
17.235994649588
17.119742149821
17.092072971659
17.142302334828
17.268256344501
17.454523449968
17.686983407761
17.951938170037
18.223373663609
18.490947381286
18.741753220291
18.963760269855
19.14763292188
19.286003816525
19.375382958036
19.417121550375
19.414406810478
19.38080916343
19.311212433587
19.207231648448
19.077684680657
18.927403088711
18.765314288787
18.581711386961
18.450010308691
18.094731841199
18.169884304182
5.1648576374964
4.9038448433055
4.5628200858854
4.1969616045517
3.8457377943468
3.5096825245184
3.1875939415147
2.8805156913078
2.5873765715491
2.3065119709166
2.0534925397149
1.8136742853886
1.5947238547017
1.4008362993513
1.2312105294846
1.0867326347181
0.96595830222955
0.8648547366731
0.77817859152291
0.70401733609796
0.64032920226031
0.58549356733702
0.53859217541905
0.49824759047028
0.46335170305253
0.43312717417355
0.40683512220671
0.3837427669426
0.36332889445235
0.34527102331159
0.32914434208271
0.31469127078436
0.30169048866045
0.28990536285504
0.27915090797199
0.2692450635458
0.2600951392527
0.2515997150539
0.24371946792827
0.23637239559781
0.22951014481089
0.22305574899316
0.21693794531707
0.2111196253466
0.20554224378798
0.20021540516676
0.19511002209069
0.19025075479854
0.18560721966071
0.18118846585795
0.17696784148147
0.17293125633896
0.16905738793736
0.1653262496157
0.16173558972455
0.15828051334892
0.15496183720233
0.15177600572381
0.14871744761419
0.14577736260617
0.14294540011256
0.140211110239
0.13756571512175
0.13500338200787
0.1325207422794
0.13011651452621
0.12778819569826
2.1977407589829
3838.757100003
3165.6314008195
2077.3800124726
1450.8418543365
1069.7056805026
822.56020083062
652.53259184291
529.31052320135
436.09983383931
363.10995365778
304.37286611871
256.09425745691
215.8069766294
181.87236892514
153.11597618082
128.62802839275
110.0778526876
92.268709656993
77.530269496713
65.590267360777
56.254811814826
49.333861713178
44.455009597733
41.077708667187
38.674892915331
36.857836485024
35.379021477568
34.086938936377
32.886810905259
31.72453439276
30.56891121041
29.403228564918
28.222491440202
27.031520264533
25.844117258457
24.676249100082
23.271790225422
22.210839303774
21.224418791384
20.330933724633
19.541032566133
18.861627208057
18.296033667254
17.844814831545
17.505306861427
17.273309622779
17.143860539963
17.105928737995
17.14744388339
17.266466503585
17.447556633556
17.674375552995
17.930337420427
18.194100582629
18.457365485192
18.70418538251
18.922028966418
19.101042118324
19.234475516611
19.318594175823
19.354698170945
19.34882095525
19.310124143751
19.234260290158
19.123461210725
18.986505114718
18.827677745871
18.658539166417
18.47342257662
18.314051935653
17.943462897041
18.025470753722
7.0937099198097
5.8871114751613
4.7905529386292
4.045395759495
3.4925832037348
3.0576948058726
2.7449962717307
2.5178821025136
2.3128174065176
2.1038914855044
1.8963609090787
1.6965943141127
1.5120303867181
1.3433930566217
1.1919867357
1.0590512952855
0.94492050308295
0.84644900252761
0.76142302403411
0.68819608369738
0.62526190734647
0.57112507196265
0.52410265710995
0.48338468811431
0.44798114113783
0.41706979137929
0.38992986548518
0.36609076739679
0.34505749660225
0.32643863177561
0.3099248484272
0.2951966242546
0.28203037950164
0.2701850117372
0.2595019496534
0.24977318352611
0.24088994504883
0.23273963968056
0.22526484820726
0.21836787927726
0.21200133072991
0.20607189817562
0.20053298695817
0.1953140008372
0.19039055826952
0.18572784119585
0.18130933219941
0.17712036746247
0.17314146689521
0.16937085807005
0.16577225914878
0.16233167647696
0.15901935065163
0.15581997551606
0.15272056106501
0.14972353389482
0.1468334299596
0.14405070302174
0.14137229575129
0.13879005757867
0.13629473139267
0.13387728072745
0.13153064995178
0.12924988775902
0.12703234295173
0.12487779576994
0.12278549705477
2.6161200664702
3905.8731911832
3148.1496051723
2066.927200285
1444.2139483357
1065.2508384222
819.47656479537
650.40428895591
527.88798301701
435.20351571662
362.60063747062
304.14266259706
256.0631729987
215.91929369262
182.0936881074
153.43319092489
129.04553997502
110.55670836873
92.823310059915
78.125617497035
66.192653511803
56.835384397771
49.871835226704
44.946078316394
41.532437882923
39.108709057188
37.283092689992
35.802480653403
34.510671061416
33.310227618889
32.145551956221
30.983964868868
29.807463624554
28.611145621192
27.400067118119
26.188543103195
24.994987199226
23.553507567472
22.460266388092
21.441594138226
20.516550494678
19.69644112263
18.988554753683
18.396298685183
17.920244476928
17.558244899198
17.305794062077
17.158173505586
17.106106321911
17.135153375588
17.242817667693
17.414487052105
17.632525545044
17.878607880681
18.133953620515
18.389610600832
18.628912500805
18.839051066579
19.010062216131
19.135573061725
19.211480571094
19.239039179766
19.227931724557
19.181577667171
19.096849185931
18.977125975161
18.830816616267
18.662320939625
18.483329904861
18.289815909141
18.112730796157
17.715934138509
17.790494968146
11.403926660078
7.5781621530567
5.793551766986
4.5717739424948
3.7210800247002
3.1218487710893
2.6722557971884
2.3437795193658
2.0830321293294
1.8986366158978
1.7515491133048
1.5978015381937
1.4400926757064
1.2897561671517
1.1541461768169
1.0339870450864
0.92720523845374
0.83237178078623
0.7493775925113
0.67730549808954
0.6149599492367
0.56112570859137
0.51469764928231
0.47417368819072
0.43880261852171
0.40780681382183
0.38053442842792
0.35632856013925
0.33489385646767
0.31587673106876
0.29895007997824
0.28380718551769
0.27025738854713
0.25808613069586
0.24709565072969
0.23715264844735
0.22811644332467
0.21987994044235
0.21235088890935
0.20546714861821
0.19914722890935
0.19331342958292
0.18790321533225
0.18285795262872
0.17814057564981
0.17370947165597
0.16955100163158
0.16563846112541
0.16195939277956
0.15848991803064
0.15521043927451
0.1521001713458
0.1491319104485
0.14628819041703
0.14355090065645
0.14091698195144
0.13838411936168
0.1359515658978
0.13361514763437
0.131364425996
0.12918886618928
0.12707828395142
0.12502357831119
0.12301893260136
0.12106342831853
0.11915789486654
0.11730331741774
3.3625695583318
3989.0923878831
3126.6747355515
2053.5535202774
1435.8173270421
1059.7019565225
815.67710378118
647.79068427453
526.13759048233
434.09425998705
361.96412220775
303.84911644299
256.01605912165
216.05082576562
182.36151998448
153.82056697822
129.55532968552
111.14777807409
93.510310579459
78.868171777662
66.946793898964
57.563685667161
50.547360655758
45.56217906489
42.101256477542
39.649146274922
37.8107324833
36.326219360016
35.033709250863
33.832431883667
32.664450656694
31.49501612649
30.304670241172
29.088352465511
27.851339294114
26.60784527895
25.380838675329
23.893189260081
22.7579591518
21.69757690276
20.731506488714
19.871947678184
19.126911059158
18.500002780599
17.991955898518
17.600569983229
17.321650482293
17.150554774809
17.078981895612
17.090922205151
17.182525538764
17.339967593064
17.545167857821
17.77871531154
18.022960692492
18.267041933263
18.494558880614
18.692663116997
18.851617464494
18.965331082857
19.029231717117
19.045023029944
19.02493822519
18.967373709748
18.871115030475
18.740401189322
18.582881311446
18.402999078898
18.212665196839
18.007960885139
17.815028495807
17.383866710554
17.443733779558
6.3611713352402
6.8189445296523
5.1347264771575
4.4001886127599
3.7636132469603
3.2356009747247
2.8250347582618
2.4972298836184
2.1740252581178
1.9104355164749
1.7028732957032
1.5365898987305
1.4085662041917
1.2836988667009
1.1572227501632
1.0396093885941
0.93396090022996
0.84061639922092
0.75830328949053
0.68571202512162
0.62213681469042
0.56683426967389
0.51883804752394
0.47725315732441
0.44084006592449
0.4088476231667
0.38073489281109
0.35585522049687
0.33371957017177
0.31395240690117
0.29634001170415
0.28058029938666
0.26638865223145
0.25360094560017
0.24206007957668
0.2316161292552
0.22211112314026
0.21346914320249
0.2055846058234
0.19838290532697
0.19178156724648
0.18572424443095
0.18013467881483
0.1749534719982
0.17013430161355
0.16564493553594
0.16145930305739
0.15754731034569
0.153890780796
0.15046608188808
0.14725556781282
0.14423282769392
0.14137234255925
0.13865420244442
0.13606108563551
0.13358350967821
0.131213707951
0.12894999816359
0.12678820642487
0.12472019647927
0.12273481588835
0.12081997213087
0.11896580744392
0.11716560961268
0.11541493129912
0.11371177357672
0.11205368823821
0.26566950755334
2476.7810875235
3468.5435483086
2248.8584880816
1549.9366242226
1130.8882823256
862.97510963206
681.14975814299
550.97207490079
453.44838948462
377.60560496037
316.84238033059
267.02533201925
225.49902932423
190.53277137561
160.94062008524
135.81566170425
111.84311133605
94.320480301714
79.749147235137
67.846351748073
58.435774913641
51.358251978145
46.301918984385
42.782594540843
40.293934433093
38.437729071033
36.946707543659
35.652307486581
34.449556919886
33.277335959493
32.098260806116
30.891148194438
29.65036352774
28.381287052196
27.097497350448
25.822604999607
24.496361507986
23.280469260603
22.140233505985
21.095307477286
20.159631682699
19.342563108054
18.64860208572
18.078769215345
17.63172728714
17.30265647407
17.085601444096
16.973555360514
16.95207830969
17.010268610509
17.137695910978
17.315883932547
17.523967372783
17.744299099088
17.962742608305
18.163698842123
18.334622800229
18.466504998781
18.553647118721
18.59140571185
18.584999583574
18.543448976031
18.46138140309
18.341961325943
18.190442977974
18.012587560307
17.812418266457
17.602168992256
17.376877095863
17.155374806547
16.667719496629
16.699979848645
4.1625989244083
3.4204976237434
3.1628901809121
2.9320851594362
2.7936905263418
2.6355057219797
2.4571157621553
2.2859200520249
2.113366476499
1.9381593442704
1.7386073841798
1.5055269900233
1.3293035570181
1.1858349976207
1.0724683530828
0.97671834727575
0.88326376226071
0.79763526793811
0.72122693920194
0.65427024331567
0.59575241613747
0.5444254582454
0.49924711740269
0.45943821415089
0.42440847926381
0.39361383950543
0.36637110877179
0.34215344536837
0.32068263572865
0.30154206363759
0.28440873453855
0.26894006593318
0.25498081030548
0.24233643138991
0.23084926417227
0.22036047360496
0.21080250916129
0.20206553476976
0.19406431456328
0.18670722392175
0.17994621103357
0.17371760268031
0.16796386747296
0.1626261520633
0.15767078783505
0.15307122945399
0.14879758090687
0.1448228414184
0.14111985860889
0.13767089787282
0.13444954657885
0.13143415261055
0.12860045373902
0.12593022091516
0.12340918527147
0.12102462528373
0.118768841346
0.11663399098743
0.11461392973145
0.11269924671606
0.11087877562822
0.10914104793652
0.10747567140536
0.10587504264442
0.10433346767799
0.10284740272095
0.10125520345499
10.895449192651
4192.4228901544
3022.5530821582
1992.1276831865
1399.0143393352
1036.2089578896
799.92136515315
637.03002862484
518.90042298083
429.44460578141
359.22864052032
302.51843125501
255.70974243824
216.49643399555
183.38121960115
155.33240401905
131.55357403948
113.50950987663
96.273298019692
81.893468514597
70.05573936919
60.595088231016
53.378275120976
48.148860165027
44.479387444656
41.890487875989
39.98071891383
38.466796269437
37.164186150963
35.956461099098
34.773659908893
33.571222431364
32.323540624357
31.022250454773
29.672065824551
28.287083095963
26.896107762939
25.466297115546
24.10283716127
22.812504764892
21.618405228048
20.538430263083
19.585015475767
18.764991109979
18.080576860639
17.528053054798
17.102711773608
16.797806195713
16.605447437827
16.514579729071
16.506239592451
16.571901216021
16.69366149594
16.847125368235
17.012935912613
17.173425293842
17.313607721197
17.421945370494
17.491911870675
17.516141333286
17.499395422463
17.442925362598
17.346193295605
17.211602774754
17.044861984911
16.853398881578
16.641313549546
16.410154360013
16.169038075853
15.910391549274
15.643112105279
15.09832608983
15.070287344733
3.6627866919206
2.0364588375307
2.0920914887638
2.0222529710075
1.9986627979295
1.9807022996596
1.9648928186171
1.9208382268961
1.8715888213424
1.7902253375293
1.6958990322224
1.5725069428082
1.3929669449474
1.2027833795888
1.0613502554038
0.94740586729375
0.85497020291536
0.7797554526075
0.70883156009821
0.64446796780526
0.58713986068273
0.53666391712635
0.49249077499891
0.45374745428409
0.41951949945205
0.38912325651945
0.36204930302199
0.33791470193022
0.31640397199955
0.29715704054124
0.27992068797443
0.26444551817712
0.25046942519827
0.23781430565392
0.22626632819882
0.2157356063817
0.20611487588214
0.19730076258088
0.18918399416421
0.18169729991182
0.17479119289128
0.16840185200944
0.16247392454978
0.15695576063918
0.15182623083378
0.14705104317863
0.14260754490122
0.13846323535962
0.13459916089337
0.13099231209236
0.12761930401132
0.12445830572791
0.12148944971724
0.11870004288415
0.11607352322824
0.11359827055794
0.11126359346044
0.10906169762456
0.10698542935763
0.10502438788882
0.10316798851366
0.10140545701169
0.099727277938997
0.098126251779379
0.096596317312803
0.095133313508471
0.093592048877341
24.074545146751
4194.7907669446
2916.209073022
1933.7474107997
1364.9139802148
1014.7795358068
785.70983055872
627.36080144376
512.35703941446
425.16867217093
356.63246091855
301.16909373556
255.28415153958
216.7579321619
184.16666165581
156.55187801042
133.18501057396
115.47430765079
98.598978290453
84.48298922011
72.762115020038
63.276049470355
55.914853916835
50.482695150441
46.62179637308
43.893838983504
41.90214858067
40.348743498742
39.030531492526
37.815485682877
36.621712828464
35.394721705468
34.102152633815
32.73139213852
31.284421503435
29.775846678675
28.237893688834
26.661577558266
25.101466929664
23.607965231003
22.209047609542
20.928668370571
19.78474983214
18.787460819022
17.941355668434
17.242403529692
16.684933232832
16.259942577271
15.957960178227
15.764923409242
15.665155937645
15.64265743261
15.680083782128
15.750322945583
15.830921363258
15.900901939354
15.945087361513
15.951945564888
15.924218583241
15.855107911374
15.743597968642
15.593494581486
15.40982316559
15.198440600158
14.965628595008
14.72038952888
14.46498902552
14.199362933152
13.927473110643
13.641333199077
13.334790477969
12.809057155025
12.631867690513
3.4056338684017
1.5536917673209
1.4757209877381
1.4819987859418
1.4890013881347
1.509859282322
1.5310336134473
1.5477643026351
1.5493854169084
1.5521056380971
1.5224906590367
1.4666168534835
1.3938345620806
1.2716296591463
1.1006789403644
0.95998679651388
0.85279826117114
0.76623066022218
0.69459692901058
0.63561414452616
0.58115710187536
0.53215341765898
0.48856026116611
0.44999403883653
0.41593840121269
0.3858240988079
0.35911566882708
0.33530371538573
0.31397184411131
0.29480959356824
0.27756440041074
0.26200216709224
0.24790333218029
0.23511216272744
0.22349609788701
0.2129217670112
0.20326852929232
0.19439809829035
0.18624684358609
0.17873591893919
0.17178863431419
0.16534412219115
0.15933664956205
0.15374588534183
0.14853180301354
0.14366984159793
0.13912695953389
0.13488178669756
0.13091481568067
0.12719845397328
0.12371290777188
0.12043473231897
0.11735259019071
0.11445203769749
0.1117190639272
0.10914122570296
0.10670727791431
0.10440986766644
0.10224097459369
0.10019145662607
0.098251240468648
0.096409936037738
0.094659137733554
0.092992356829912
0.091404480595236
0.089891103202243
0.088365747499069
58.702371861565
4149.4233698051
2795.4557445178
1865.3501435751
1324.1851633029
988.9703070006
768.54408977802
615.646178545
504.37016833892
419.87124228284
353.32953506291
299.35818193641
254.59144920025
216.90581472459
184.95615291183
157.85843061337
134.96210274032
117.64510607331
101.19804339315
87.420362697175
75.890287313905
66.427850154811
58.943263061397
53.299346065093
49.216166075238
46.311401341409
44.205701996704
42.591884457401
41.248045325565
40.023535750839
38.821264035123
37.574633903383
36.241610913333
34.802800233402
33.255655658364
31.61166740614
29.903336840961
28.160669106604
26.357894436756
24.607043574134
22.941878869918
21.395344325484
19.994496215086
18.756524355382
17.688893490224
16.793194035725
16.060715381045
15.478382873167
15.033351469626
14.70780926337
14.484930236813
14.345692686376
14.26691507214
14.219729364316
14.175552239514
14.111676701823
14.013281017286
13.874564336581
13.695059231375
13.473123787029
13.214550368051
12.931708454562
12.633343475953
12.332555288447
12.030319947327
11.743475004214
11.455471251499
11.187571769798
10.92445179775
10.674271936778
10.404742647306
10.056956050196
9.7833493683799
3.5085721066948
1.3608865308863
1.1438067217874
1.1390893464247
1.1577576012149
1.1869519738099
1.2189747869385
1.2525780402432
1.2810833815408
1.2992624879852
1.3192165230329
1.3142960557079
1.2748828160506
1.2292917907859
1.1410042133108
1.014987366413
0.87699731452455
0.77516406433987
0.69506805463119
0.62949469620044
0.57434218620913
0.5281357456144
0.4860994245561
0.44824881633074
0.41437169432492
0.38420734956034
0.35742077464291
0.33360751762085
0.31235401798388
0.29331234421816
0.27617573162709
0.26066864222013
0.24657349088891
0.23373569113326
0.22202603003003
0.21133096402108
0.2015637331541
0.19261781000107
0.18440305172034
0.17683974558605
0.16983421569045
0.1633432203506
0.1573132607911
0.15169393943061
0.14645422094822
0.141550263332
0.13696849225595
0.13268224984002
0.12866264846869
0.12488874850683
0.12133371802987
0.11798795226364
0.11483574744695
0.11186346482664
0.10905780438867
0.10640556943493
0.10389935650105
0.10152890002164
0.099284751470437
0.097158919144471
0.095141756995057
0.093225641431489
0.09140289368684
0.08966580900566
0.088009975061321
0.086431712950163
0.085206655640477
190.99386865945
4056.2143698757
2661.2548964156
1788.1444708568
1277.5338019468
959.11059871518
748.55195815987
601.91552020314
494.91788925914
413.50189204637
349.25203831281
297.00773990441
253.55005924773
216.85968659685
185.67239692375
159.17654343433
136.8012359286
119.92249443744
103.95699700129
90.591368102139
79.342307868803
69.978003634563
62.421647549763
56.585393829789
52.268354291596
49.156802774653
46.904197422585
45.204452540382
43.82032898522
42.581806107537
41.374037553266
40.116629765083
38.755650847918
37.261446647894
35.624436058605
33.850617107691
31.967440826703
30.062016105203
27.987464228942
25.935852783529
23.94790623904
22.06782260047
20.336093743052
18.781912546482
17.422080577226
16.260993297437
15.296765152121
14.512570381212
13.88700960995
13.396706657775
13.020171191758
12.73262930043
12.502542775481
12.294672256359
12.079085844115
11.826776439751
11.523549929827
11.174709362856
10.799669700207
10.418604533828
10.05710351209
9.7210452950857
9.4071136326088
9.1334091051606
8.8807043889774
8.6586073021394
8.4467595885522
8.267991440789
8.0895953708943
7.9437399505424
7.787700422674
7.6592574883062
7.430465256041
4.1943974339049
1.2285164902883
0.98092410416614
0.9177215607703
0.93245423474407
0.96125417575925
0.99589370760327
1.0307870998685
1.0659364285201
1.0980407907739
1.1239232641397
1.1437775854608
1.1480950629746
1.1213015497223
1.0899767064823
1.0245910332713
0.9282184626511
0.80648426995801
0.71000862057066
0.63551358129814
0.57539441685738
0.5255983067119
0.48324078699364
0.44679863267908
0.41373971399408
0.38392099164741
0.35716701205499
0.3332389273148
0.31182465197391
0.29261114246126
0.27536414937292
0.25985705053981
0.24580000469883
0.23297683315715
0.22126129203516
0.21055013109309