/*--------------------------------*- C++ -*----------------------------------*\
| =========                 |                                                 |
| \\      /  F ield         | OpenFOAM: The Open Source CFD Toolbox           |
|  \\    /   O peration     | Version:  2312                                  |
|   \\  /    A nd           | Website:  www.openfoam.com                      |
|    \\/     M anipulation  |                                                 |
\*---------------------------------------------------------------------------*/
FoamFile
{
    version     2.0;
    format      ascii;
    arch        "LSB;label=32;scalar=64";
    class       volScalarField;
    location    "0.00012";
    object      nut;
}
// * * * * * * * * * * * * * * * * * * * * * * * * * * * * * * * * * * * * * //

dimensions      [0 2 -1 0 0 0 0];

internalField   nonuniform List<scalar> 
109340
(
0.00071890381366582
0.00049302036123595
0.00026606308407321
0.0002223486568625
0.00021538896434045
0.00021979552189155
0.00022798739220691
0.00024230896714935
0.00021118942216712
0.00018784669103667
0.00016937253439776
0.00015430318285641
0.00014174814775813
0.00013111552674088
0.00012199055981877
0.00011407183574174
0.00010713419009878
0.00010100566824933
9.5552519159632e-05
9.0669059185275e-05
8.6270622382914e-05
8.2288532568537e-05
7.8666451323166e-05
7.5357686450071e-05
7.2323183653008e-05
6.9530004542327e-05
6.6950152214114e-05
6.4559651706175e-05
6.2337813380602e-05
6.0266620377471e-05
5.8330188737229e-05
5.6514231705617e-05
5.4805369970777e-05
5.318984393713e-05
5.1649992023503e-05
5.0155658290065e-05
0.00071055040864621
0.00034456497494724
0.00025242125379153
0.00023091208219517
0.00022936301916878
0.00023393267706641
0.00020945483881212
0.00018220389801731
0.00016103035853922
0.00014426766054828
0.00013069654299148
0.00011949182812152
0.00011008710879698
0.00010208272223816
9.5188954642085e-05
8.9190723398258e-05
8.3925021077265e-05
7.9266057091151e-05
7.5115204792584e-05
7.1393993464078e-05
6.8039106782185e-05
6.4998820261941e-05
6.2230447102987e-05
5.9698478736201e-05
5.7373174957805e-05
5.5229464677666e-05
5.3246085603646e-05
5.1404888196236e-05
4.9690255925177e-05
4.8088628408825e-05
4.6588079452702e-05
4.5177908626002e-05
4.3848206924416e-05
4.2589318941142e-05
4.1390948615549e-05
4.0236668406373e-05
0.00041731878559663
0.00029407789648399
0.00025347871349967
0.00023792743771166
0.00019033969688428
0.0001586861729169
0.0001357329065813
0.00011843481421329
0.00010499094490635
9.4287139335995e-05
8.5588965740173e-05
7.8394572776741e-05
7.2352536749575e-05
6.7211017992971e-05
6.2785538496861e-05
5.8938220398365e-05
5.5564110842849e-05
5.2581966507951e-05
4.9927732437131e-05
4.7549774091073e-05
4.5405837441618e-05
4.3461232775668e-05
4.1687558685506e-05
4.0061588670268e-05
3.856416849158e-05
3.71794428422e-05
3.5894249336625e-05
3.4697424727184e-05
3.3579529038036e-05
3.2532427144407e-05
3.1548985033757e-05
3.0622914386475e-05
2.9748433378611e-05
2.8920742569406e-05
2.8138138123281e-05
2.7402422072792e-05
0.00023982530107888
0.00024225787076217
0.00015203927741765
0.00011068358188687
8.7069862753677e-05
7.1821724048597e-05
6.1194490834124e-05
5.3381556122046e-05
4.7407724415554e-05
4.2700679526526e-05
3.8902605708243e-05
3.5778086616982e-05
3.3165919344795e-05
3.095216167359e-05
2.9054217561432e-05
2.7410864545027e-05
2.5975663316043e-05
2.4712226999042e-05
2.3588016541122e-05
2.2575167409603e-05
2.1652967639104e-05
2.0806765304343e-05
2.0025982543325e-05
1.9302800170523e-05
1.8631202894725e-05
1.8006343905133e-05
1.7423784569442e-05
1.6880316638822e-05
1.6373066910859e-05
1.5899494477908e-05
1.5457023462309e-05
1.5041882079438e-05
1.4648130985721e-05
1.4270858966851e-05
1.3911699076868e-05
1.3584162240694e-05
0.00014442878020856
4.7214238863961e-05
2.8709790895952e-05
2.0820429065167e-05
1.6473000212311e-05
1.3743907222509e-05
1.1887477099267e-05
1.0553514631832e-05
9.555815347545e-06
8.7871485336872e-06
8.1818415181674e-06
7.6982469897185e-06
7.3087836482698e-06
6.9948743297581e-06
6.7438869293807e-06
6.5469794918573e-06
6.3963359683311e-06
6.2788819189839e-06
6.173169248908e-06
6.0676934282213e-06
5.9614511926e-06
5.8578833703713e-06
5.760652494383e-06
5.6722780338121e-06
5.5941625865056e-06
5.5270075312259e-06
5.4709933426209e-06
5.4259945381893e-06
5.3923819685854e-06
5.3699052162091e-06
5.3575981143092e-06
5.3546809904701e-06
5.3603282739629e-06
5.3730541099269e-06
5.388427668913e-06
5.3983018819509e-06
3.6370785435295e-07
5.4286758923364e-07
6.9848113792184e-07
8.1989734996433e-07
9.0668340442152e-07
9.6391378979281e-07
9.9831821987658e-07
1.0161985918841e-06
1.0225700596856e-06
1.02159395575e-06
1.0156784686063e-06
1.0067216175172e-06
9.9602889636348e-07
9.8448176764675e-07
9.7267220836495e-07
9.6102188031343e-07
9.4980559779714e-07
9.3920779672776e-07
9.2941726340878e-07
9.2066711940156e-07
9.1275648644381e-07
9.0555556683584e-07
8.9899867944119e-07
8.9304842513525e-07
8.8767411072671e-07
8.8284436520228e-07
8.7852501860511e-07
8.7467798920359e-07
8.7125780407341e-07
8.6820607838705e-07
8.6544415487476e-07
8.628377214023e-07
8.6017108919515e-07
8.5693765526618e-07
8.5118979506378e-07
8.3334121818247e-07
4.5058326169086e-05
2.4923745599874e-05
1.4046062982029e-05
9.235336651613e-06
6.7203810243225e-06
5.041092270863e-06
3.876596786461e-06
3.0137568126862e-06
2.4294332572388e-06
2.167341683284e-06
2.2316433776208e-06
2.7833537653949e-06
3.2994124477467e-06
3.7974638060481e-06
4.2241616105968e-06
4.5537050927665e-06
4.8488247670324e-06
5.0869627944565e-06
5.2980300772018e-06
5.523642369085e-06
5.7204685993804e-06
5.8831105740375e-06
5.9007642056299e-06
5.6504106490995e-06
5.4225233497349e-06
5.2121419438075e-06
5.0165721802403e-06
4.8461651996482e-06
4.6780651882413e-06
4.5283364410718e-06
4.3904847534946e-06
4.257262523662e-06
4.1419649210742e-06
4.0248204932107e-06
3.9250746707093e-06
3.8217986726845e-06
3.7341981427729e-06
3.642910079942e-06
3.5651377691163e-06
3.4845966254137e-06
3.4146765785925e-06
3.3439147526517e-06
3.2796757910683e-06
3.2178878903857e-06
3.1575905801369e-06
3.1026812622948e-06
3.046862375332e-06
2.9974008401963e-06
2.9467371602491e-06
2.9011877204497e-06
2.8560285276168e-06
2.8129556360147e-06
2.7717826457671e-06
2.7322338154411e-06
2.6941867075748e-06
2.6575746779612e-06
2.6223217593658e-06
2.5883701514913e-06
2.5556556786862e-06
2.5241045859787e-06
2.4936222819255e-06
2.4641220009669e-06
2.4355368352869e-06
2.4078187154721e-06
2.3809304209432e-06
2.3548417676078e-06
2.3295247219308e-06
2.9082619018426e-06
0.00026541808334179
0.00047644001085508
0.00042257538208913
0.00038198217763631
0.00035269685408109
0.0003304199779694
0.00031236419961809
0.00029691171099003
0.00028323053795451
0.00027088526700869
0.00025961985749001
0.00024927823277857
0.00023987347687877
0.00023177793962756
0.00022598009562223
0.00022413100170547
0.00022837021257827
0.00023637918466265
0.00024300805990199
0.00024276956014756
0.00023460868175459
0.00022198996324796
0.00020923312214275
0.00019851257105233
0.00018995374733944
0.00018294900304481
0.00017690872939211
0.00017141962254481
0.00016621599812931
0.00016112968672861
0.00015607556244701
0.00015101153531434
0.00014592031839966
0.00014081765791191
0.00013575040478064
0.00013076684846006
0.00012476220310248
0.00012018271614662
0.00011585324481298
0.00011184127164727
0.00010818757860001
0.00010492693468472
0.00010209336653859
9.9726023052113e-05
9.7776921105259e-05
9.6213982506314e-05
9.5034173794036e-05
9.4176752876525e-05
9.3600807919877e-05
9.3304706374524e-05
9.323322257452e-05
9.3339337272933e-05
9.3589816462608e-05
9.3872273371106e-05
9.4129183248283e-05
9.4346452574693e-05
9.4489561354796e-05
9.4533834144578e-05
9.4456497908191e-05
9.4255003334664e-05
9.3933310683223e-05
9.3492150365753e-05
9.300671755907e-05
9.244147973919e-05
9.1797773609862e-05
9.1086793163676e-05
9.0338049446788e-05
8.9524308311393e-05
8.8556440157225e-05
8.8075770668825e-05
8.6801411955827e-05
8.6515109077879e-05
3.4816482035249e-05
1.957119239714e-05
1.2193488056917e-05
8.5948768676819e-06
6.3387846420599e-06
4.8364534617108e-06
3.7427085455892e-06
2.9361159364868e-06
2.3516956751953e-06
1.9600540565232e-06
1.7288389627188e-06
1.6823907219582e-06
1.7523745697678e-06
1.8877943858882e-06
2.0970088542174e-06
2.3606987773434e-06
2.6769081147435e-06
3.0435371488035e-06
3.4237415498441e-06
3.8131265552287e-06
4.2110421968389e-06
4.612131726536e-06
5.0072801228385e-06
5.3978511885865e-06
5.2788622343826e-06
5.0737725708896e-06
4.8870573421739e-06
4.7160339749365e-06
4.5595868439789e-06
4.4146136782016e-06
4.2817073607706e-06
4.1581526468269e-06
4.0438203361012e-06
3.9369259436909e-06
3.8371348764428e-06
3.7435022560353e-06
3.6556329214571e-06
3.5729959311269e-06
3.4952846133043e-06
3.4218125139471e-06
3.3525789492666e-06
3.2867159116349e-06
3.2244832034112e-06
3.1649362183057e-06
3.1085757194449e-06
3.0545070964528e-06
3.003242426426e-06
2.9540643342794e-06
2.9072968703846e-06
2.8624630082396e-06
2.81961754528e-06
2.7784423783191e-06
2.7388503673147e-06
2.7008142979089e-06
2.6641868173294e-06
2.6289314733513e-06
2.5949660645099e-06
2.5622398559683e-06
2.5306719303643e-06
2.5001885627823e-06
2.4707053418877e-06
2.4421481236643e-06
2.4144501022891e-06
2.3875645587152e-06
2.3614601250571e-06
2.3361161730334e-06
2.3115145463639e-06
1.1738828879216e-05
0.00042708735874525
0.00046228742718597
0.00041077631811409
0.00037353613982041
0.00034637914626185
0.00032540600635527
0.00030816330598999
0.00029325812418998
0.00027998325058675
0.00026795961075845
0.00025695718556802
0.00024685116897325
0.00023772376808698
0.00023007662374611
0.0002250763324228
0.00022444752374497
0.00022830755447838
0.00023630581575892
0.00024297870620253
0.0002428362869302
0.00023477988756925
0.00022223851763783
0.00020952278372858
0.00019882210810338
0.00019027659624257
0.00018328428446768
0.00017725541794022
0.00017177542601743
0.0001665754297064
0.00016149035089594
0.00015643346800966
0.00015136199492928
0.00014625967035313
0.00014114257621225
0.00013605815263074
0.00013105541741341
0.00012502419318372
0.00012042078093793
0.00011606712341179
0.00011203086260094
0.00010835375659689
0.00010507010519602
0.00010221170561355
9.9819777395125e-05
9.784849302168e-05
9.6263663005174e-05
9.5062083242948e-05
9.4184839618503e-05
9.3588201126966e-05
9.3272798344916e-05
9.3182616845952e-05
9.3267490999185e-05
9.3485776436031e-05
9.3736451375328e-05
9.3973883668401e-05
9.4172233314929e-05
9.4297180610226e-05
9.432377274698e-05
9.4231443266565e-05
9.4017299769253e-05
9.3685141426544e-05
9.3238024973779e-05
9.2746757647856e-05
9.217414368855e-05
9.1521624474792e-05
9.0800860265074e-05
9.0042521200043e-05
8.9229755650837e-05
8.8305775015254e-05
8.7722722091451e-05
8.6393569589198e-05
8.6186704563599e-05
2.5482351502e-05
1.3288937214441e-05
8.5831767817695e-06
6.344349397347e-06
4.7589356474696e-06
3.709643107248e-06
2.9564372645323e-06
2.4278807999527e-06
2.0630753312225e-06
1.8315948370132e-06
1.7414868671317e-06
1.7197130652978e-06
1.7794717533974e-06
1.8980033150474e-06
2.0562174639919e-06
2.2484228370412e-06
2.475366419024e-06
2.7198814279034e-06
2.9567610359423e-06
3.1994654326042e-06
3.461245536752e-06
3.7307295091821e-06
4.0077190926304e-06
4.3062887786355e-06
4.6188791929432e-06
4.9391880759376e-06
4.8145995736558e-06
4.6432026071891e-06
4.4865565855072e-06
4.3429193127886e-06
4.2103400887383e-06
4.0883810919944e-06
3.9754680078035e-06
3.8711369521664e-06
3.7736183900644e-06
3.6830169758601e-06
3.5977210140074e-06
3.5178842053109e-06
3.4424528024697e-06
3.3716177233621e-06
3.3043903517793e-06
3.2409629156901e-06
3.1804973476841e-06
3.1231767203626e-06
3.0684148102346e-06
3.0162941126788e-06
2.966537019856e-06
2.9190189428502e-06
2.8737134859897e-06
2.8302986890237e-06
2.7888349873837e-06
2.7489648966398e-06
2.7106499627749e-06
2.6737110815438e-06
2.6381550362753e-06
2.6039185916744e-06
2.5709387829707e-06
2.539152962914e-06
2.5084810010049e-06
2.4788496943512e-06
2.4501816843341e-06
2.422403518267e-06
2.3954478780136e-06
2.3692705866693e-06
2.3438446972722e-06
2.3191528903563e-06
2.2951776815523e-06
1.2255748853155e-05
0.00043075874941368
0.00046174657381966
0.00041032825137346
0.00037314739698733
0.00034603962326459
0.00032512692340407
0.0003079553532303
0.00029312331882791
0.00027991392479195
0.00026794309063206
0.00025698008026665
0.00024690193071891
0.00023779239578664
0.00023015214680295
0.00022514305929549
0.00022449149107636
0.00022832993513206
0.00023634582016655
0.00024311982588082
0.00024317177005298
0.00023532055205812
0.00022291796419395
0.00021025896360233
0.00019957039622623
0.00019102841311774
0.00018404408442713
0.00017802661789854
0.00017255744169865
0.00016736194897859
0.00016227692388239
0.00015721300355812
0.00015212481862439
0.00014699753620288
0.00014184809553006
0.00013672525141499
0.0001316802378837
0.0001255881937121
0.00012093107838838
0.00011652316581806
0.00011243278693858
0.00010870334376067
0.00010536807988374
0.00010245498899572
0.00010001099778671
9.7993440030792e-05
9.6362518935642e-05
9.5116125427004e-05
9.4200607851497e-05
9.3566250470036e-05
9.3216797544876e-05
9.3095723917341e-05
9.3146605951115e-05
9.3316308767975e-05
9.3520525536483e-05
9.3726777323767e-05
9.3894583534487e-05
9.3989612502368e-05
9.3985982971596e-05
9.3865883462156e-05
9.3625821912405e-05
9.3268773981055e-05
9.2805772359033e-05
9.2296475073885e-05
9.1703752141052e-05
9.1030667229892e-05
9.029050442324e-05
8.9513633069418e-05
8.8695712964357e-05
8.7823794096702e-05
8.7086992764748e-05
8.5695741797586e-05
8.5586106207969e-05
1.3393370410673e-05
7.6666650218542e-06
5.1848484579513e-06
3.8328475568963e-06
3.0537781527339e-06
2.5693132513734e-06
2.2511319222186e-06
2.0584544476335e-06
1.9461018057087e-06
1.9163113388314e-06
1.8991472085787e-06
1.9105530361051e-06
1.9557721303155e-06
2.034851799361e-06
2.154431756931e-06
2.3157184814709e-06
2.5009923953962e-06
2.7055999182625e-06
2.913300965201e-06
3.1079792135556e-06
3.2889455384218e-06
3.4862207401308e-06
3.6959577796364e-06
3.9051331371402e-06
4.125347618151e-06
4.3694876954109e-06
4.6221417277372e-06
4.5812602974963e-06
4.425549876293e-06
4.2826054614104e-06
4.1505712729116e-06
4.0285843606755e-06
3.915837382429e-06
3.81124878226e-06
3.7139524543967e-06
3.6230492198435e-06
3.5381759405425e-06
3.4587649528132e-06
3.3845091033136e-06
3.3145543064072e-06
3.2488018344908e-06
3.1868729314536e-06
3.128276112245e-06
3.0728895329312e-06
3.0201642393538e-06
2.9699506400158e-06
2.9219277823504e-06
2.876176924881e-06
2.8323871533754e-06
2.7905942434812e-06
2.7505536978841e-06
2.7121362545569e-06
2.6751778292854e-06
2.6395312133675e-06
2.6051988593743e-06
2.5721243191957e-06
2.540272369859e-06
2.5095687577322e-06
2.4799417376835e-06
2.4513129003851e-06
2.4236037400062e-06
2.3967398321477e-06
2.3706600574035e-06
2.3453249788174e-06
2.3207091264758e-06
2.296796848759e-06
2.2735700981967e-06
1.3032758664669e-05
0.00043538063811289
0.00046099775144185
0.00040971589003804
0.00037260950021715
0.00034556941846241
0.00032473839431294
0.00030766337590044
0.00029293234460844
0.00027981511670463
0.00026791979125448
0.00025701416963916
0.00024697756058253
0.000237895841929
0.00023026841839763
0.00022525232369037
0.00022457787737488
0.00022839802518501
0.00023645170606381
0.00024338242101945
0.00024372102996103
0.00023617461978333
0.00022397648531016
0.00021139614988296
0.00020071744818513
0.00019217248690531
0.00018519325051693
0.00017918770918918
0.00017373032735504
0.00016854071579348
0.00016345400859212
0.00015837811503239
0.000153264035887
0.00014809809066076
0.00014289809818214
0.00013771477479569
0.00013260334664782
0.0001264157399558
0.000121675154904
0.00011718249203127
0.0001130076441754
0.00010919536687482
0.00010577880158803
0.00010278421142033
0.00010025817472505
9.816835133062e-05
9.6466190283791e-05
9.5150774524674e-05
9.4176267683104e-05
9.3484601397844e-05
9.3081038296628e-05
9.2909852905346e-05
9.2908898010348e-05
9.3016432761566e-05
9.3161531234776e-05
9.3317769620993e-05
9.343732959965e-05
9.3485374054813e-05
9.3435404209752e-05
9.3272073684389e-05
9.2991419279682e-05
9.2595050151834e-05
9.210717724776e-05
9.1568414368785e-05
9.0944489822368e-05
9.0242191828119e-05
8.9475270119714e-05
8.8673266615992e-05
8.7837215139432e-05
8.6970218564198e-05
8.6150778930513e-05
8.469371680836e-05
8.4597355705979e-05
5.3678411775398e-06
4.3516899619148e-06
3.6355857523747e-06
3.2741638403787e-06
2.9606593963895e-06
2.6898851072415e-06
2.5028766632609e-06
2.393453559664e-06
2.3397598605082e-06
2.2501788299805e-06
2.2285239453192e-06
2.2325716262972e-06
2.2614696628453e-06
2.3180408210641e-06
2.3914545481012e-06
2.493044932223e-06
2.6349457867577e-06
2.7909856075978e-06
2.9491194427401e-06
3.1147076291982e-06
3.2885123321888e-06
3.4506276183059e-06
3.6156236537517e-06
3.7935559499073e-06
3.9751761950841e-06
4.1574668903039e-06
4.3564136490597e-06
4.5222048673208e-06
4.3698916102491e-06
4.2290482180108e-06
4.0987127315116e-06
3.9777835826452e-06
3.8656659781832e-06
3.7613776925348e-06
3.6643928353588e-06
3.5736948994408e-06
3.4889498077776e-06
3.4096241114605e-06
3.3354443067101e-06
3.2657309105072e-06
3.2002486533654e-06
3.1384281743799e-06
3.0800807882774e-06
3.0247541376771e-06
2.9723175391316e-06
2.9225347664475e-06
2.8752549504303e-06
2.830253676337e-06
2.7873439448164e-06
2.7466149025429e-06
2.7077371270882e-06
2.6706023302902e-06
2.6349964084605e-06
2.6007109480648e-06
2.5676110379081e-06
2.5357135050281e-06
2.5049958977554e-06
2.4753999449048e-06
2.4468566616416e-06
2.419275059875e-06
2.3925728570024e-06
2.3666783015415e-06
2.341535259599e-06
2.3171023707032e-06
2.2933579581372e-06
2.2702860343815e-06
2.2478757671946e-06
1.4168918384483e-05
0.00044134657422513
0.0004601257786442
0.0004089454748586
0.00037193735062084
0.00034498563731422
0.00032425365398728
0.00030729526912468
0.00029268864484113
0.0002796872362116
0.00026788845875174
0.00025705738133818
0.00024707555412743
0.00023803122252346
0.00023042223077814
0.0002254000170759
0.00022469734835423
0.00022849356927045
0.0002365968121033
0.00024373549333031
0.00024445002229792
0.00023730773450944
0.00022538409217272
0.00021290982067818
0.00020224195116797
0.00019368839020881
0.00018671094247012
0.00018071692872061
0.00017527194877456
0.00017008889805286
0.00016499861373584
0.00015990495755059
0.00015475474528061
0.00014953505754582
0.00014426458005946
0.00013899577744255
0.00013379282999308
0.00012747275305107
0.00012261604435145
0.00011800569468427
0.0001137133498035
0.00010978534518366
0.00010625546687517
0.0001031493554974
0.00010051048950211
9.8319889044023e-05
9.6519590491409e-05
9.5109614640007e-05
9.4054400715635e-05
9.3283452803413e-05
9.2800637112309e-05
9.2554609158691e-05
9.2479775945178e-05
9.2508905520428e-05
9.2579541141228e-05
9.2663984599193e-05
9.2713465530697e-05
9.2693425889528e-05
9.2578127010909e-05
9.2354332930958e-05
9.2017451043715e-05
9.1568023038982e-05
9.1045778306897e-05
9.0466442292014e-05
8.9801177095234e-05
8.906261163928e-05
8.8264040139403e-05
8.7433529997457e-05
8.6573021961882e-05
8.5684876204763e-05
8.4810209749469e-05
8.3269329179798e-05
8.3147653520293e-05
2.4465325087591e-06
2.9479509786831e-06
3.6264109690415e-06
4.2916618066722e-06
5.019202817026e-06
4.8911807500682e-06
4.1790789711412e-06
3.587529099846e-06
3.1714553022312e-06
2.9400804931753e-06
2.7936563507053e-06
2.7131152405111e-06
2.6835358101159e-06
2.6895703725791e-06
2.725047085222e-06
2.7852203404574e-06
2.8642312864634e-06
2.9586635446339e-06
3.0694529751219e-06
3.1927060767882e-06
3.3267143279994e-06
3.4761420472531e-06
3.6257118946986e-06
3.7786677706712e-06
3.9425437793119e-06
4.1066472605406e-06
4.2691661590729e-06
4.4395892199574e-06
4.3154076439227e-06
4.1783489125395e-06
4.0509244464945e-06
3.9320922856026e-06
3.82152515483e-06
3.7184785220488e-06
3.6221345427958e-06
3.5320645129921e-06
3.4476963037958e-06
3.3686226010097e-06
3.2944079840865e-06
3.2247727647005e-06
3.1592558771086e-06
3.0974411509853e-06
3.0390427352017e-06
2.9837567901401e-06
2.9314121196291e-06
2.8817203894429e-06
2.8345867918389e-06
2.789775449246e-06
2.7471927781567e-06
2.7066562159495e-06
2.6680223036727e-06
2.6311376718455e-06
2.5957879399884e-06
2.5618697783132e-06
2.5292730276757e-06
2.497980476003e-06
2.4679058409219e-06
2.4390199433118e-06
2.4112752726681e-06
2.3845494024139e-06
2.3587677767319e-06
2.3338246382735e-06
2.3096095065286e-06
2.2860530565855e-06
2.2631511487424e-06
2.2409039988391e-06
2.2193143022183e-06
1.5942575220463e-05
0.00044908032665488
0.00045913576497795
0.0004080103144475
0.00037114239143101
0.00034430306251899
0.00032368465803659
0.00030685849946354
0.00029239550135015
0.00027953056730477
0.00026784768744466
0.00025710754837852
0.00024719345778174
0.00023819595472401
0.00023061072489206
0.00022558193877675
0.00022484210121069
0.00022860510105734
0.00023676296555372
0.00024415299995989
0.00024532759819456
0.00023868755258285
0.00022711243541654
0.00021477718383474
0.00020412419870397
0.00019555655038431
0.00018857619815834
0.000182591863004
0.00017715918346513
0.00017198281152471
0.00016688705835461
0.00016176957623047
0.00015657276039674
0.00015128354641612
0.00014592166924182
0.00014053854446944
0.00013521644016258
0.00012872804294303
0.00012371856339823
0.00011895419595688
0.00011450762047141
0.00011042755343114
0.00010674975256003
0.00010349901469021
0.00010071493864992
9.8392151754694e-05
9.6465695077168e-05
9.4935055440854e-05
9.3771139159909e-05
9.2895975245661e-05
9.2307415501843e-05
9.1959561709679e-05
9.1785847159335e-05
9.1715550465413e-05
9.169105016831e-05
9.1680159217081e-05
9.1635904141214e-05
9.1525026956286e-05
9.1323825756253e-05
9.1020969012345e-05
9.0611265461768e-05
9.0096515703178e-05
8.9526517624692e-05
8.8893835185462e-05
8.8178818987734e-05
8.7399041490693e-05
8.65662789381e-05
8.5704997207615e-05
8.4815342660904e-05
8.3896990864388e-05
8.2975122218473e-05
8.134068955255e-05
8.1177055982195e-05
9.8435193956626e-07
1.908890768574e-06
2.2151966342169e-06
2.7774946160956e-06
3.3679925795885e-06
4.031932790077e-06
4.8420274129834e-06
5.6669389663909e-06
4.7923142443878e-06
4.1449255490601e-06
3.7144671589306e-06
3.4500781014624e-06
3.2823801951987e-06
3.1851200775419e-06
3.1404419436055e-06
3.1302920625077e-06
3.1446733093788e-06
3.181803147302e-06
3.2391770489405e-06
3.3135312738162e-06
3.4059713609328e-06
3.5143543811062e-06
3.640019155316e-06
3.7787096266026e-06
3.9090207094072e-06
4.064978295476e-06
4.2215611421202e-06
4.3810348448942e-06
4.2962608415208e-06
4.160594560946e-06
4.0344728473605e-06
3.9168744260203e-06
3.8067465208856e-06
3.7037614258769e-06
3.6074324798289e-06
3.5171874477753e-06
3.4322807503143e-06
3.352587665486e-06
3.2776480957227e-06
3.2071705589012e-06
3.1407223492219e-06
3.0780851633547e-06
3.0188575771557e-06
2.9627637782734e-06
2.9095944267175e-06
2.8591917914649e-06
2.8113897428684e-06
2.765952367417e-06
2.7227670635447e-06
2.6816828813626e-06
2.6426032838383e-06
2.6053324503644e-06
2.5696816980842e-06
2.5355311902437e-06
2.50278273883e-06
2.4713864093377e-06
2.441261722754e-06
2.4123601067129e-06
2.384612635464e-06
2.3579341223043e-06
2.3322290077848e-06
2.3074003822957e-06
2.2833781472879e-06
2.2601197499105e-06
2.2375848196207e-06
2.2157462967356e-06
2.1945553996355e-06
4.2459497494982e-06
0.00031544042529938
0.00047232163241618
0.0004181991404212
0.00037828198671112
0.00034950235670508
0.00032773031019465
0.0003102639494615
0.00029545871215081
0.00028240094637622
0.00027058977028761
0.00025974351500722
0.00024971194776508
0.00024052122977275
0.00023254065023489
0.00022672744087037
0.00022470896861668
0.00022872326637544
0.00023693332671045
0.0002446087411098
0.00024632095719251
0.00024027949158999
0.00022913104180294
0.00021697388366684
0.00020634328578091
0.00019775626611694
0.00019076699809855
0.00018478929250644
0.00017936829501132
0.0001741985727873
0.00016909559240053
0.00016394884911411
0.00015869555179533
0.00015332110302345
0.00014784588346014
0.00014231829624009
0.00013682500849685
0.00013091199855937
0.00012560736458775
0.00012054621153967
0.00011580155869142
0.00011142693837053
0.00010746164179884
0.00010393168333553
0.00010086855522803
9.8296207409353e-05
9.6134791633604e-05
9.4373092068484e-05
9.299033802126e-05
9.1918980247119e-05
9.1121994482218e-05
9.0572282133391e-05
9.0203771093055e-05
8.994338647813e-05
8.9734572065825e-05
8.953752622658e-05
8.930945335144e-05
8.9020802856301e-05
8.8653046394668e-05
8.819679965649e-05
8.7648574124515e-05
8.7028128250455e-05
8.6368763329899e-05
8.5643209299298e-05
8.4849476779657e-05
8.4007982460801e-05
8.3125566122373e-05
8.2212308248289e-05
8.1269548502356e-05
8.030504385673e-05
7.9313059996186e-05
7.7544823415726e-05
7.7304692202673e-05
4.9064405920617e-07
1.2604206385987e-06
1.5016417115565e-06
1.7748283802272e-06
2.1383010150276e-06
2.6191005833475e-06
3.163776619252e-06
3.811596898073e-06
4.5741181985544e-06
5.2676686240644e-06
5.7719160304286e-06
5.2531828169604e-06
4.7133115779312e-06
4.3426086430938e-06
4.1018463567412e-06
3.9481545948523e-06
3.8396781359007e-06
3.7763186330408e-06
3.7491152219864e-06
3.7513194397757e-06
3.7772275199305e-06
3.8240934787812e-06
3.8887363537885e-06
3.9706985991163e-06
4.0753593565353e-06
4.1953109077284e-06
4.304971291083e-06
4.3012806371151e-06
4.1630084175945e-06
4.0345562362428e-06
3.9155560576214e-06
3.8048265166431e-06
3.7018384536714e-06
3.6054172790265e-06
3.5147667222968e-06
3.429113648565e-06
3.348438458348e-06
3.2722887081589e-06
3.2003785613903e-06
3.1322965607256e-06
3.0679365174142e-06
3.0069759286098e-06
2.9491416637758e-06
2.8941408421737e-06
2.8418734516809e-06
2.7922302258924e-06
2.745014179028e-06
2.7000542102991e-06
2.6571986134317e-06
2.6164014344934e-06
2.5775074433126e-06
2.540387583362e-06
2.5048743993721e-06
2.4708649520785e-06
2.4382926990322e-06
2.4070829818263e-06
2.3771835539461e-06
2.348518472232e-06
2.3210288826213e-06
2.2946324603377e-06
2.2692426981164e-06
2.2447788893652e-06
2.2211723890503e-06
2.1983772916779e-06
2.1763539352235e-06
2.1550649863872e-06
2.1313645654461e-06
2.699577400434e-05
0.00047104920688143
0.00045437162965486
0.00040408092862068
0.00036802105030652
0.00034169708365425
0.00032151878152862
0.00030517345089561
0.00029123489214041
0.00027888206649091
0.00026764880287589
0.00025727281133437
0.00024763721342506
0.00023883615603696
0.00023135118334321
0.00022628836699316
0.00022536011385702
0.00022893943795381
0.00023722123716653
0.00024552272710548
0.00024850835401861
0.00024393971695569
0.00023389559247356
0.00022224196611884
0.00021169963861391
0.00020306385551729
0.00019603649574089
0.00019005986700809
0.00018465981354461
0.0001795051589458
0.00017438721292219
0.00016917279719282
0.00016378549157518
0.00015820212551966
0.00015244078685014
0.00014655037827409
0.00014063243752522
0.0001342928448962
0.00012844083994743
0.00012281371441501
0.00011749704839253
0.00011255730936972
0.00010804364822437
0.00010398983545024
0.000100420191592
9.7365675899489e-05
9.4760676628029e-05
9.2569351076931e-05
9.0769902779735e-05
8.9317883430752e-05
8.8136234650097e-05
8.720742884926e-05
8.647423699919e-05
8.5855194271936e-05
8.5293129519302e-05
8.4744982885527e-05
8.4175029838548e-05
8.3564877718331e-05
8.2909167504838e-05
8.2185415913366e-05
8.1431543972096e-05
8.064133484626e-05
7.980330324987e-05
7.8917578671406e-05
7.7995172235506e-05
7.7053308619742e-05
7.6090002585698e-05
7.5088936658506e-05
7.407384991811e-05
7.3035101517959e-05
7.1934411616074e-05
7.0039794701059e-05
6.9596013390292e-05
5.6196882122515e-07
9.6223888956116e-07
1.1471847808817e-06
1.3100048724102e-06
1.5475724870343e-06
1.8504176654866e-06
2.2381816644801e-06
2.6999575124813e-06
3.2534563846844e-06
3.9022724957977e-06
4.5613876974873e-06
5.0833670184402e-06
5.4068707273037e-06
5.4869150758383e-06
5.259512706464e-06
4.8797743416858e-06
4.6365456932265e-06
4.4624577142838e-06
4.3436219198548e-06
4.2655987500169e-06
4.225420625033e-06
4.2148498366263e-06
4.2306145325658e-06
4.2666332526169e-06
4.321577159402e-06
4.393070053063e-06
4.3315394002217e-06
4.2009944988222e-06
4.0758341983712e-06
3.956104842599e-06
3.8423164103987e-06
3.7352074187197e-06
3.634317009873e-06
3.5397829140631e-06
3.4508198387949e-06
3.3675166268456e-06
3.2897240496626e-06
3.2166596668267e-06
3.1474444265346e-06
3.0817296800728e-06
3.0193629747324e-06
2.9600311761318e-06
2.903488628961e-06
2.8495150332922e-06
2.7981389409596e-06
2.7491747076975e-06
2.7025033237187e-06
2.6579014309465e-06
2.6153120641691e-06
2.5746411189059e-06
2.5357711065632e-06
2.4985752974691e-06
2.4629294349954e-06
2.428780261223e-06
2.3960235814246e-06
2.3645996347948e-06
2.3344429522011e-06
2.3055071477346e-06
2.2777461001799e-06
2.2510764520501e-06
2.225419591908e-06
2.2007017848519e-06
2.1768660265396e-06
2.1538758868847e-06
2.1316919820189e-06
2.1102779548826e-06
2.0875864712329e-06
3.727758783911e-05
0.00047914773884634
0.00044927984045547
0.00040026075546095
0.0003651169762792
0.00033937440422707
0.0003196419564513
0.00030372010365553
0.00029021410913598
0.00027828105531982
0.00026742381320517
0.00025736107254569
0.00024797160926996
0.00023934772054924
0.0002319528265077
0.00022684858205514
0.0002257137154035
0.00022906533506726
0.00023732745751608
0.00024625431911787
0.00025069546378289
0.00024792870293512
0.00023934583837387
0.0002284517143824
0.00021810768223449
0.00020943450442402
0.00020234762045066
0.00019635583605736
0.00019097602852175
0.0001858464034546
0.00018072795196448
0.00017545569749111
0.00016993215297761
0.00016411926099562
0.00015802502226634
0.00015169813732132
0.00014524584037736
0.00013831316614577
0.00013173209360735
0.00012533824160294
0.00011923501629459
0.00011350992380918
0.0001082308347793
0.00010344170423014
9.9173306696896e-05
9.5443149957571e-05
9.2235811849505e-05
8.9470631766681e-05
8.7123021705615e-05
8.513931708208e-05
8.3461703863202e-05
8.2036116613258e-05
8.082043640193e-05
7.9729048233399e-05
7.8702329814259e-05
7.7703726173279e-05
7.6703388391297e-05
7.5686091673623e-05
7.4677770636486e-05
7.3648574363368e-05