/*--------------------------------*- C++ -*----------------------------------*\
| =========                 |                                                 |
| \\      /  F ield         | OpenFOAM: The Open Source CFD Toolbox           |
|  \\    /   O peration     | Version:  2312                                  |
|   \\  /    A nd           | Website:  www.openfoam.com                      |
|    \\/     M anipulation  |                                                 |
\*---------------------------------------------------------------------------*/
FoamFile
{
    version     2.0;
    format      ascii;
    arch        "LSB;label=32;scalar=64";
    class       volScalarField;
    location    "0.00012";
    object      omega;
}
// * * * * * * * * * * * * * * * * * * * * * * * * * * * * * * * * * * * * * //

dimensions      [0 0 -1 0 0 0 0];

internalField   nonuniform List<scalar> 
109340
(
9612.8708844773
9900.7601237918
10701.752607387
12430.521772749
15314.709829683
19242.095727287
23814.442891691
28425.274742037
32540.948045897
36484.26372565
40332.781208155
44107.740915192
47815.481683645
51457.201776817
55032.122731031
58538.741187582
61975.375279306
65340.409940527
68632.427423527
71850.254301376
74992.974939512
78059.930110168
81050.717416068
83965.176964082
86803.351903625
89565.417213139
92251.570073324
94861.881581915
97396.099169033
99853.356537052
102231.71918275
104527.38336997
106733.04099474
108833.85056595
110796.30159835
112535.91979607
9719.4652924984
10817.970180878
13664.686800871
17964.216272782
22966.991277563
28031.712858563
32870.069764681
37699.974318829
42533.591443953
47311.762990239
52016.804911646
56639.943483896
61174.955425104
65616.798602036
69961.312923739
74205.132807819
78345.656001545
82381.02650871
86310.123621739
90132.574948989
93848.811882458
97460.039327242
100968.1304186
104375.43623891
107684.56446697
110898.13751934
114018.54536467
117047.69484349
119986.70109809
122835.45526958
125591.8910469
128250.60750248
130799.61129
133211.10528267
135414.56194459
137231.02918239
9962.0101943577
13963.041696535
21389.889190437
28992.886480397
36202.991496786
43346.778004859
50547.796977402
57739.617677271
64871.663196437
71897.945850189
78784.816188162
85509.522506511
92056.640106696
98415.754140521
104580.14372514
110545.99473808
116311.91154791
121878.78854357
127250.22540905
132433.30021499
137438.61500505
142278.76052171
146966.8426795
151515.33856111
155935.4056451
160236.54871183
164426.43766997
168510.71160959
172492.73454158
176373.11358391
180148.55088128
183809.59054148
187334.60463628
190668.63505719
193657.63185563
195880.97277496
11923.253185496
28462.190516476
45340.985339961
62197.47530191
78866.547773517
95258.651321128
111264.41249966
126799.38483094
141795.55215965
156201.28077303
169980.4149979
183112.54262451
195591.72469173
207424.0345669
218625.21295628
229218.6092346
239235.5290663
248726.78894891
257786.19109725
266537.55493485
275087.38384323
283509.80594891
291851.84515615
300140.8743581
308390.60820854
316605.37511325
324782.68095932
332915.18054499
340990.40473832
348991.03362063
356896.96818377
364706.75260693
372446.72697605
380039.00561063
386949.91832614
391294.73364711
46689.425156075
146234.56996485
240730.1412934
331308.11988669
416665.5462122
495497.02205377
566999.06334926
630897.54372175
687381.4905859
736929.09777851
780177.4785465
817810.40437693
850497.39622181
878853.3994376
903419.0231107
924694.19724222
943386.13764364
961412.03825364
981894.64075916
1006317.5336723
1034449.2612878
1065355.3275365
1098029.6282106
1131629.4526434
1165493.4526014
1199086.5101234
1231980.5902873
1263824.6087448
1294315.6586056
1323151.5014472
1350039.1628154
1374570.7468676
1396208.8379148
1413932.3954761
1425183.0534375
1418596.908483
4713649.1926616
5536218.9447125
6151319.5391146
6581132.5935746
6861997.8378174
7031329.0872287
7121126.168032
7156205.8968172
7154443.3331657
7129759.3035558
7090019.4727061
7041300.049645
6987750.0201973
6932172.325216
6876464.4395338
6821997.5218356
6769686.8925491
6720166.3608037
6674063.128314
6632015.743225
6593387.6860715
6557777.0136869
6524996.6670841
6494959.7834399
6467614.904989
6442928.7693118
6420887.538684
6401504.0315584
6384829.1462566
6370969.9886059
6360131.2361631
6352703.6259854
6349275.4114118
6351181.1279769
6359907.6853412
6374499.777062
113861.51968742
114035.03275867
113283.98650815
112700.13049837
113180.70468473
115204.80152175
119340.42282216
125748.34520973
133813.15571053
144376.53586933
157896.63102063
169490.82415913
178753.06284364
182285.33689093
181182.67330591
177418.95544779
171988.90055357
165747.3435481
159203.78117747
152698.26281772
146393.97229574
140361.15437663
134697.86197741
129553.15995754
124891.70736098
120597.98478742
116612.99123003
113118.93740877
109669.06996251
106588.40503169
103732.08994557
100980.33659639
98580.569417015
96153.219728029
94068.051907249
91913.252822872
90063.512274226
88139.920982655
86483.753811512
84776.677410784
83282.465904276
81774.748018565
80395.4996644
79065.729038164
77762.736033661
76566.725056083
75351.413671182
74263.04348645
73154.849773154
72149.25761896
71155.629996334
70207.290302714
69297.830869478
68421.509040814
67574.846013357
66756.165659873
65964.761836488
65200.760455819
64463.795559558
63752.631855075
63065.005369779
62398.473673442
61750.941486401
61120.804953687
60506.953970008
59908.834728465
59326.404275611
62005.521438791
6650163.5562216
7478166.7507556
5473331.6684958
4162126.0285198
3281027.4817256
2666378.5170187
2220564.5765932
1884066.2599408
1620136.1949647
1405803.4458543
1226571.4594285
1073015.0979362
938554.19651896
817856.91822624
705658.40696259
597161.22560628
479321.62564272
387372.74839472
315916.31322182
266920.52083247
236469.67562859
218937.03845543
209216.68374474
203695.26226983
200321.15159377
198077.31211427
196458.33431321
195180.80774728
194065.52190874
192991.00207604
191885.08447069
190702.21176052
189415.65694101
188021.72699258
186537.69584146
184992.08567843
183056.57296856
181583.66114906
180247.6191196
179121.37130428
178254.94261437
177694.20290145
177462.21437782
177505.34278106
177894.64717146
178676.1506921
179808.9140182
181268.09082621
183024.01821895
185033.40756118
187234.24419554
189598.16294793
192107.65596546
194590.04778374
196959.83244836
199221.60252466
201327.91506635
203245.87743995
204935.31220845
206374.72784544
207571.21158449
208541.1138221
209301.23878403
209880.7388713
210290.86612526
210597.59185006
210793.64994985
210913.1913552
210863.29354643
211545.78892769
210835.67540858
211611.25430514
138206.21082013
136995.93638385
133987.562792
130110.35767269
125970.52639738
122037.99091094
118636.23110277
116038.32526149
114338.47175126
113549.37564018
113563.57725094
114250.01817586
114931.79873207
115355.23163116
115718.76508826
116120.2837452
116608.91346499
116932.39301905
116563.57157662
115672.82063422
114376.36228174
112750.64966183
110890.21219108
108848.44614101
106754.85756189
104715.32653283
102698.33719616
100685.49555494
98709.899889713
96761.457075335
94892.467971551
93083.755849049
91353.224936101
89685.596308955
88082.398979703
86534.492924786
85041.556258085
83605.774897184
82230.498348374
80911.27651254
79650.919564828
78435.503197218
77270.595431965
76139.827556198
75054.029512746
73998.662250798
72986.69160714
72007.341962235
71069.262042469
70164.59878411
69295.445698802
68455.830547083
67643.55929216
66857.155558
66093.365401935
65352.117735086
64633.331432911
63937.632211003
63264.462642169
62612.639040028
61980.204461837
61365.124669293
60765.492660528
60179.96535569
59607.844588259
59049.083237369
58503.16076085
151569.22689912
8759711.6091651
6894133.0813346
5088705.1878125
3906405.1460869
3104763.5528186
2540113.4287658
2126495.6846752
1811240.3206432
1561733.9541642
1357531.5705459
1185664.275956
1037594.0954965
907198.65054153
789267.42319616
678519.11166767
570767.21791366
479624.07304311
387670.81471221
316193.24223794
267154.89654841
236651.44596244
219076.18807613
209333.8252107
203809.06015409
200442.20401601
198209.82657228
196602.89788431
195336.48416688
194228.36040672
193160.73735576
192059.86119506
190879.63868207
189593.91456475
188199.14423475
186712.42745034
185162.42071092
183217.49436097
181733.22474516
180384.55132563
179244.6724819
178365.30990313
177792.23313399
177548.56993635
177580.74477367
177959.08987518
178732.37631956
179859.52209377
181313.29505116
183067.375549
185079.78379105
187286.32286121
189650.11494851
192139.08426117
194605.48204861
196984.20357608
199255.42550301
201370.83515009
203296.29424748
204995.30695437
206445.65740016
207656.28897371
208640.40975739
209412.93663759
210000.39769058
210413.19378174
210714.34833883
210894.52762889
211021.47345835
211001.03392316
211518.89963319
210786.08466558
211721.90119334
196094.40518057
191848.51600558
183420.23698894
173013.82092271
162428.48291625
152616.42650637
144213.01670315
137226.6158799
131642.56198154
127080.08620825
123586.07612408
120609.63543118
118354.05117611
116524.62671942
114972.72959078
113528.36374047
111976.10973473
110244.04008002
108099.3503767
105763.70080695
103416.61305657
101159.41635753
99004.221020338
96964.224186449
95042.124934991
93215.26913851
91505.657760657
89951.621285395
88523.421392688
87195.046267214
85947.002767438
84787.933498752
83680.689775471
82618.748843465
81572.175223542
80532.806242962
79489.772743988
78464.9932923
77455.952360225
76478.410324449
75521.323525412
74591.888555118
73678.018534333
72786.39709699
71909.325751278
71053.017918147
70216.956007734
69404.098854291
68617.241565285
67853.231461212
67114.891854671
66396.629824549
65697.71074614
65014.22621297
64346.373447738
63694.188637409
63058.696496063
62440.909234066
61840.75555537
61257.391487856
60689.253755355
60134.539493356
59591.538038782
59059.164355963
58537.02355927
58025.359772609
57523.870666521
158237.91607601
8787721.9586374
6884680.7524286
5081659.2860116
3901425.5556285
3101067.5764445
2537244.1315282
2124236.1222161
1809486.9354604
1560425.6786501
1356617.911167
1185092.7631607
1037314.8142971
907175.37364452
789491.03074257
679014.83833325
571565.94032402
480536.04206995
388656.61619237
317096.75767616
267906.00762499
237238.72822488
219528.61268717
209700.68428193
204135.59442609
200757.93387921
198530.4121086
196935.29561234
195683.25269625
194586.94370931
193531.50403005
192440.87445812
191266.46328503
189982.57593754
188585.81817983
187093.10533532
185534.10532356
183566.85725628
182057.24968573
180680.47989555
179510.68779331
178602.86822384
178002.61984862
177733.10178665
177745.90998253
178105.73114061
178866.16954357
179987.79989161
181443.34056319
183210.31620603
185248.33291111
187490.06630493
189883.28374567
192377.28546115
194859.61567335
197285.64140653
199604.19988878
201764.42656764
203728.60203703
205463.40273142
206944.86373816
208184.59085052
209193.95762767
209984.28323417
210582.57685993
210997.37300553
211292.25938566
211447.15547444
211569.57491652
211579.46520166
211857.24438242
211150.88639922
212299.46201817
385627.92479633
363294.17624195
324938.37740063
283787.82299721
246564.25564435
216555.78632566
193052.22232016
174947.7186192
160924.16922104
149558.10574907
140967.39363749
133773.45142751
127907.47117291
123060.04576204
118987.90106212
115585.3921313
112816.60960376
110217.28200944
107320.3104109
104179.41632419
100986.46335273
97906.551726711
95031.063683147
92374.340607692
89927.7145979
87687.804946597
85637.029028214
83763.580766699
82098.022756143
80621.721151469
79300.973393914
78114.603694581
77043.671428794
76065.714787356
75162.757574218
74314.492353883
73511.081309546
72742.646142885
72010.285831308
71313.47799639
70644.550361397
69992.043545777
69347.441700531
68703.94235917
68056.644439959
67413.714716043
66774.416284084
66147.097263988
65530.314046057
64928.273352963
64338.988043609
63762.009024587
63194.822447567
62634.701487307
62081.859564222
61536.883022206
61002.055937383
60478.919039844
59968.121570917
59469.096166089
58980.516390932
58500.763561541
58028.444311168
57562.761334656
57103.555446711
56651.294430552
56205.962507872
168632.04602574
8817013.812653
6866912.8882265
5070293.984155
3893732.8583705
3095487.1101216
2532993.373238
2120930.3510148
1806937.7893686
1558528.4990148
1355293.5076487
1184264.9241714
1036913.0574165
907149.0063866
789827.67237788
679753.14825737
572754.6715478
481956.23669879
390222.21997456
318553.28405381
269120.26168306
238191.60528949
220263.57653064
210292.42785333
204654.3987013
201250.93627158
199023.64898366
197441.11712605
196206.03642055
195126.80215241
194088.44522084
193012.21765493
191846.88955077
190566.2072636
189166.41024905
187664.08540259
186090.69622971
184089.3407226
182542.10829892
181122.78057477
179907.59716287
178954.77734449
178311.97673723
178004.32006462
177988.62666794
178319.25079877
179060.76286378
180175.73294179
181637.36107652
183425.33023611
185499.28986139
187790.16528345
190233.39993793
192765.26618032
195296.28100227
197790.46970535
200178.93771848
202406.30320764
204430.45417179
206219.01879973
207745.9869466
209025.19237483
210068.547679
210881.93212543
211494.50975783
211912.64111968
212198.35480032
212326.42558897
212421.79794519
212410.902049
212581.38536883
211862.97606518
213073.69010883
1321520.083249
1071688.0226819
802719.97938374
594608.06375009
446558.85589417
346692.60230564
279946.05222299
234433.52104109
202924.11368098
180364.63805496
163805.4843807
151149.41365511
141184.1232563
133083.73838716
126369.38898456
120815.694549
116183.2241308
111989.06618835
108063.44036097
104353.7003875
100817.18119744
97404.953619046
94116.220818632
91041.726684415
88195.885390705
85574.305049329
83164.38789229
80954.043024963
78962.484056345
77189.621623457
75615.16718272
74211.333553319
72957.772630472
71831.396318812
70817.175262813
69892.139803316
69043.68314839
68259.618090533
67536.6840196
66866.464280532
66245.268319063
65660.861656115
65106.404910346
64571.860041222
64054.582245324
63550.258949225
63058.523617977
62581.092621954
62117.008278507
61665.309509988
61221.695965387
60784.668176082
60348.981934492
59914.376733027
59479.632549578
59045.918869753
58616.235695704
58192.900633386
57777.10560963
57368.448871557
56965.760099542
56567.587001686
56172.82482191
55780.827551351
55391.415239385
55005.313814548
54622.901695323
184637.95156977
8849900.3261568
6841932.687294
5054285.5401435
3882949.4965348
3087812.1382543
2527270.1007943
2116545.0766898
1803582.0395545
1556036.3841107
1353550.7993148
1183170.3140122
1036375.993987
907104.92263823
790260.93746451
680715.08119373
574308.24582576
483850.41522927
392326.96854507
320534.43029391
270781.94916723
239500.76686401
221274.86791963
211103.82871596
205360.15224868
201915.60792583
199683.49040903
198113.59625724
196897.85674606
195840.10479353
194823.16383388
193764.8797353
192610.98307845
191334.0329068
189929.2751334
188412.5085312
186818.58512537
184772.87893858
183175.59098314
181699.65606824
180423.41141239
179408.65504117
178706.61446523
178346.2300513
178292.28138971
178582.8388327
179298.25410539
180404.19541736
181874.59801726
183689.09876974
185804.9492357
188153.64475525
190663.58417106
193263.64072844
195874.30869691
198454.77917202
200929.95547272
203240.42277854
205340.75196716
207197.35018855
208780.83834301
210106.5256326
211189.71227577
212029.7557989
212657.00298871
213076.23508753
213346.41589628
213445.81352449
213499.88121009
213454.42415571
213567.8104047
212754.61581125
213962.68222775
4661261.0375091
2570654.0603474
1597599.3389733
1065268.9210942
741368.73132076
537076.21311714
404314.97910962
317142.92517563
259086.1777715
219885.88372865
192266.2304728
172301.26768476
157221.19457827
145331.84596041
135756.92288018
127949.23109664
121308.25593112
115444.76940082
110230.78676836
105569.57202353
101381.61405942
97585.624353524
94108.863499074
90856.287193356
87788.587368319
84926.969671938
82283.873352153
79836.54107435
77604.222845388
75598.457113236
73797.989551975
72177.142575431
70719.772236891
69406.37929345
68218.241981415
67142.785069476
66164.889022714
65272.951732987
64457.981505359
63715.233168465
63036.118838089
62410.686808828
61829.737751213
61284.469710461
60769.543271299
60279.780193926
59815.067973835
59373.402676611
58954.505874987
58555.614524189
58174.340994396
57807.758587985
57451.499851397
57102.118013721
56755.794683173
56412.363229083
56073.500482491
55740.243646061
55412.647883427
55089.832008941
54769.641786556
54450.6566035
54131.911891507
53812.807295514
53493.302197603
53174.029288303
52855.657849131
210917.59090562
8882803.7015051
6809913.2632407
5033092.1733147
3868642.7640508
3077817.3995013
2519974.560206
2111040.383131
1799403.8487352
1552940.217496
1351380.4269172
1181797.7276795
1035691.0794447
907029.78569033
790776.40499956
681883.34497137
576205.83061585
486199.90350176
394953.28317401
323027.65802845
272887.33265904
241167.52232893
222565.35870901
212136.9609723
206253.1377703
202750.28474885
200506.3886777
198947.63524715
197752.71349543
196719.84417354
195727.88314889
194690.60165936
193550.07962039
192277.03973505
190864.99927546
189327.74193301
187705.2719685
185609.82295563
183949.42946877
182402.78729322
181049.14243581
179954.61332552
179175.22617585
178745.68985969
178642.3755969
178881.84849448
179562.80176529
180655.65659772
182134.73834937
183979.14613582
186144.5848673
188560.78988074
191153.30305078
193846.24767906
196561.83083746
199247.49356085
201826.55536539
204235.53795756
206426.05922807
208362.21904301
210009.55698103
211384.67876702
212506.17950924
213371.08102239
214009.61418071
214423.41780507
214666.51379036
214724.9247826
214733.14409227
214643.70413771
214703.25104072
213716.73643513
214885.02592881
6462293.6975602
3572202.580636
2317955.163819
1584229.3940952
1117464.8274968
802493.77734863
583440.47179221
440666.45122328
345114.12233775
280071.80707382
235085.98123932
203309.38548181
180255.27330686
162920.95581343
149412.05203037
138459.32918291
129340.7113231
121611.59730278
114948.3680092
109126.26857582
103998.94344116
99472.969146574
95456.757906797
91865.512104714
88591.671364998
85570.583853957
82750.944621403
80114.064187717
77676.74787028
75458.543797593
73451.978217682
71633.723440997
69978.037878255
68471.188189486
67100.377049375
65852.654342236
64712.39950867
63672.948928405
62723.208782445
61856.050897069
61062.884878695
60337.591253822
59669.816879718
59050.766477292
58473.545333769
57934.181271228
57430.423322472
56959.516802098
56519.994992027
56108.827383653
55723.675480693
55360.623045919
55015.507432167
54684.479125295
54363.922015506
54052.053201188
53748.316588922
53453.876063015
53169.309152889
52893.842664862
52625.542122438
52361.945095401
52100.790920339
51840.443240815
51580.136890044
51319.852703466
51059.858528437
62570.101679779
7851818.8820372
7343605.0992734
5377482.3301086
4097304.8642842
3235710.033509
2633186.7477241
2195388.021474
1864802.2625224
1605690.049213
1395491.058509
1219827.876441
1069333.4236072
937543.14135715
819352.535495
709841.82358966
604406.94708512
488988.78154558
398088.70120235
326027.38100573
275438.81170877
243199.17828591
224143.57990968
213398.58144164
207336.98399215
203755.53818995
201490.45408355
199939.65582379
198765.93845267
197760.27075692
196795.99856553
195782.16608142
194656.67339106
193387.3611854
191965.35194602
190400.65870894
188727.23110557
187120.82756017
185343.18697801
183665.94207483
182167.73345426
180922.42304694
179995.04552761
179431.34843217
179230.97217439
179373.42397874
179983.29408166
181043.14555782
182530.31144626
184424.13377646
186675.7713894
189215.6795358
191964.08002371
194833.30636037
197742.05961635
200616.91857389
203379.35303049
205958.85694072
208300.85089881
210366.4440318
212113.04231189
213551.64079927
214700.87403244
215561.53201328
216170.58845955
216532.31568156
216691.30690539
216663.64375346
216589.9690183
216385.87392922
216299.49477894
214943.032461
216028.0233037
5627599.4444104
2713774.6867953
2106288.1755154
1652038.6940516
1306500.1170127
1006263.6535368
776640.0912136
599727.65041879
462027.08035985
367934.94097489
301218.41257117
251081.18208586
215024.23741476
188492.02374308
168531.80044652
153003.75617549
140431.17262156
130008.35236756
121260.89193616
113831.74463154
107421.10351368
101836.31820055
96947.37713058
92637.969011598
88814.3430149
85405.785851891
82332.894504542
79546.877833541
77031.464643049
74739.834068691
72635.592583323
70683.92336859
68879.507708554
67214.530978047
65679.825266304
64261.641983541
62955.467685464
61750.52166575
60637.924808176
59607.134989317
58653.824814222
57771.530868431
56953.475492905
56191.512760369
55481.283919168
54820.418472143
54206.489002384
53637.012496263
53108.5098026
52618.415529754
52162.622043123
51737.834601053
51340.080672811
50966.04766247
50612.949511948
50278.54303216
49961.998579726
49662.794807222
49380.656393216
49114.291139887
48861.576472298
48619.95471072
48386.911315476
48160.542344217
47939.5680957
47723.573706872
47507.219129259
403598.32583051
8900180.3397785
6652160.6651678
4930021.5429285
3801451.9500176
3032536.7334363
2487945.9960318
2087435.9376784
1781724.7760638
1539878.8856701
1342164.1967399
1175866.3097199
1032598.2064712
906464.23719051
792653.04352951
686435.6576657
583748.25867784
495805.83795936
405837.60193489
333547.40508162
281904.96712212
248401.89612101
228214.11278629
216650.62186896
210106.10946661
206292.19202638
203945.28458963
202393.05054233
201257.57433404
200308.78950924
199404.87221622
198443.38444733
197352.89318663
196092.50098803
194646.50135741
193019.51608107
191251.09566642
189632.56854995
187657.11257521
185748.83817784
183991.0493396
182470.8708665
181269.47578719
180450.24332171
180049.21693536
180022.91765419
180483.21711275
181461.85535808
182940.01568033
184896.67572424
187280.97085134
190028.54957077
193047.8033139
196227.21154032
199464.3180347
202648.28322686
205685.79250171
208484.0646715
210976.81230069
213129.55758173
214897.01126702
216302.53759876
217361.84580346
218095.93077379
218537.39784617
218723.88328902
218705.65099276
218542.90512388
218282.67457042
217845.81959349
217463.54427376
215567.82332489
216539.52016216
5203617.5268292
2116375.5275568
1823674.3754183
1543698.8163921
1291482.5086867
1070408.2308568
877896.93294334
711432.76070699
575261.69096745
458764.81959093
371794.53813071
309343.57820395
257629.04556109
219209.40327384
191278.98916653
170221.31393522
153893.67708175
140799.72369221
129964.90398016
120841.66114735
113075.18661525
106402.92682166
100622.24661312
95563.751575714
91095.991367836
87125.153570737
83584.441827647
80436.83514105
77629.254920624
75113.540303959
72852.065805111
70798.081212787
68917.880448469
67183.302317529
65568.861536928
64063.709340548
62654.153591781
61337.158113318
60107.175386258
58959.519093033
57890.089516903
56891.918357938
55958.174910408
55081.569602334
54259.71834755
53489.159043583
52768.684371124
52094.947445179
51465.812717893
50877.891730411
50327.611857794
49811.709038339
49327.214978639
48872.285722704
48444.23240577
48041.228158187
47661.731615903
47304.862069815
46969.866109828
46655.184808661
46358.892897678
46078.69076569
45812.317672817
45557.987986627
45314.38787949
45080.939829921
44832.657313624
645818.21255863
8754691.7721965
6490852.2716389
4831219.1100843
3738292.2977842
2990147.5278254
2458093.5471731
2065588.6584159
1765444.9707488
1527839.0822627
1333585.2803989
1170220.0754626
1029489.4334523
905619.37111619
793983.26128913
690116.18495535
590061.6643338
504110.7927434
415455.41894904
343072.11147705
290241.05152159
255218.73313278
233615.3170522
220977.52817008
213755.86543052
209582.65260167
207080.01649511
205487.87501765
204373.98240314
203477.09172706
202634.47037602
201730.24992399
200680.98965538
199436.62882685
197971.31526871
196283.53521312
194414.47421468
192762.39783396
190549.36608297
188354.04844589
186262.79678338
184377.43298774
182801.41581172
181623.6590343
180909.12026628
180656.27064234
180894.30665017
181734.96996951
183165.82535611
185166.1952379
187692.74065289
190680.13063507
194011.37237305
197548.11194378
201149.3357391
204634.99914914
207879.83029081
210764.55676528
213239.07298675
215280.58144272
216857.43814072
218040.83427527
218858.6179491
219352.96408065
219534.97697278
219488.95102194
219302.29800068
218930.59624479
218441.17349838
217725.85624968
216921.06913818
214335.32104226
214917.87549848
5189028.1413376
1813615.8851619
1555869.8028994
1383860.1956978
1210913.0941425
1046251.96705
893475.23234379
754727.45814494
631095.49493118
526955.35588146
433605.38095473
356364.00889938
302189.97529176
256622.51639747
217835.23594103
189393.85885215
168168.8160897
151841.28522507
138856.38165143
128174.06035378
119161.97651632
111466.65360643
104839.89416054
99086.913453985
94044.919781324
89597.296985364
85655.544494722
82145.982047224
79010.000936482
76204.018765965
73684.504383744
71411.409722462
69351.321067738
67474.705960841
65755.301726905
64175.019468555
62712.520481891
61351.409179513
60081.143065878
58886.85026126
57759.647364737
56691.359248996
55678.98266871
54724.468434881
53824.790213948
52978.500816791
52182.457566409
51434.579645737
50732.288433216
50071.077447045
49447.706905117
48858.49824858
48302.041698668
47776.435676836
47279.810085088
46810.473193135
46366.814569343
45947.87804318
45552.572791856
45179.544812574
44827.089440149
44493.165458174
44175.905993612
43873.812855687
43585.860051362
43311.493217936
43027.21027466
1081247.7713816
8635757.7796485
6317648.5611655
4719453.162184
3664265.4455125
2939281.308127
2421777.2149824
2038839.0830262
1745442.2732444
1512972.2300212
1322886.2055353
1163040.6580365
1025355.7780632
904202.57611726
795159.30641296
694058.7089452
597105.12359584
513648.97082562
426768.09660771
354507.59514912
300505.9102788
263775.14406151
240507.05669748
226540.31682133
218423.41843821
213731.53653718
210969.76122393
209275.80172455
208148.81852381
207285.25818634
206494.99448638
205646.77258288
204643.16604177
203423.42270166
201952.00892895
200214.86716901
198245.18900741
196571.81173934
194115.96538963
191597.22163504
189111.05354059
186772.36338593
184710.79355344
183048.75399968
181889.55263717
181290.4713776
181229.38360548
181846.84177269
183171.24749867
185170.77780478
187807.42017431
191001.5475038
194612.70397167
198477.75031445
202378.16406758
206016.69850704
209237.74861419
211978.40905351
214224.36026652
215952.68619469
217145.18517842
217935.4878824
218250.95662713
218188.18894289
217913.61511721
217427.25434531
216746.29043956
215887.60070806
214931.30597369
213796.33334917
212451.96447778
209656.21298519
209193.84384513
5833287.9908014
1658374.1915605
1367969.1690274
1234847.572512
1114617.4714173
992077.91038101
872448.61302681
759425.6500819
654579.97614071
558868.02595591
476493.3750379
400564.79039984
334829.14649954
288183.07345486
249416.92041726
213808.54848975
185986.58283563
165046.63503313
148917.3468851
136127.39801666
125692.58997543
116963.50652231
109521.15863533
103091.70048386
97486.876887261
92568.309234174
88226.976594146
84373.199643998
80932.96975618
77847.766802745
75071.281404443
72564.562182672
70292.123574133
68223.877764617
66337.508419623
64614.608311159
63035.912475249
61583.225657937
60239.980509002
58988.725303324
57817.897620604
56718.99502037
55681.247429274
54698.610510413
53765.411138004
52876.534582014
52032.425870314
51233.197530694
50476.842924861
49761.171338513
49082.191145136
48438.787035527
47828.782578213
47250.34607741
46701.695905626
46180.967897943
45687.166043739
45218.5533178
44773.51253512
44350.806207301
43948.860952541
43566.330857269
43201.661796039
42853.264275503
42520.410007186
42202.811641393
41904.994005941
2044144.6067943
8439241.6442514
6123610.150155
4592516.894159
3579133.5742987
2880120.875975
2379165.3757674
2007257.0247273
1721701.2643512
1495208.5062867
1309961.7849166
1154195.2692048
1020040.1339911
902032.787088
795969.4560202
698007.0234605
604566.822006
524094.11554935
439520.67102424
367732.52514392
312724.27110505
274185.99663532
249058.03734406
233527.26412137
224285.59218363
218886.32647693
215728.64500139
213840.92580032
212640.89448201
211771.46343112
211007.99448427
210200.38205695
209237.26627946
208044.72500295
206577.69506719
204810.58831083
202758.23215174
201092.5709039
198418.22855147
195595.04409679
192692.97799755
189843.18895736
187195.62994063
184910.58303067
183141.8955446
182000.42440856
181533.98006761
181794.27252534
182893.19010759
184804.07386178
187488.95982008
190823.99948602
194625.75853769
198679.36577722
202684.74774268
206223.1787845
209104.87559975
211179.21703303
212550.78367656
213242.86429097
213237.90273545
212934.37830133
212316.73862511
211467.60404523
210370.78587626
209047.30591265
207566.48465902
206026.03076205
204462.33663665
202947.37734281
201315.18904556
199736.0042877
197264.18349791
7392267.0847759
1543012.4192371
1256067.24713
1114541.8430064
1022410.9042415
929336.36638772
836063.59333112
744303.34839584
656013.99868424
573056.97901158
497851.90567152
430156.23568416
367313.8684657
312100.76272453
272885.56357722
239355.49736408
207914.23317366
181564.75441616
161375.88258704
145702.60661507
133268.83471112
123169.21651854
114753.45574233
107578.53953817
101368.05569472
95944.041231138
91176.995026142
86960.128578473
83206.255467973
79846.454532671
76825.660002408
74097.026834982
71621.424579485
69366.848833055
67307.600570682
65424.490210669
63700.720323285
62119.749499392
60664.092828273
59317.479951107
58067.68981167
56903.004074515
55811.64367917
54785.874842192
53820.144758025
52908.160048538
52046.555488863
51229.830340654
50452.211761065
49710.149370631
48999.822145299
48319.705666642
47670.781724738
47051.833047568
46462.468451138
45902.3740923
45369.388185511
44861.918267957
44377.987543442
43916.145251228
43475.550914046
43054.633710172
42651.747063669
42265.735577155
41895.741110193
41541.637312488
41357.41233488
3571010.6987761
8122301.5191276
5898062.6313977
4447926.7077383
3482473.5108847
2812785.9962925
2330473.1806276
1971012.8537372
1694315.056486