/*--------------------------------*- C++ -*----------------------------------*\
| =========                 |                                                 |
| \\      /  F ield         | OpenFOAM: The Open Source CFD Toolbox           |
|  \\    /   O peration     | Version:  2312                                  |
|   \\  /    A nd           | Website:  www.openfoam.com                      |
|    \\/     M anipulation  |                                                 |
\*---------------------------------------------------------------------------*/
FoamFile
{
    version     2.0;
    format      ascii;
    arch        "LSB;label=32;scalar=64";
    class       volScalarField;
    location    "0.00012";
    object      p;
}
// * * * * * * * * * * * * * * * * * * * * * * * * * * * * * * * * * * * * * //

dimensions      [1 -1 -2 0 0 0 0];

internalField   nonuniform List<scalar> 
109340
(
389478.61040556
387920.40920295
384972.72214218
381436.18328156
377568.25699643
373579.24462879
369551.02479816
365533.71943031
361614.4536606
357784.01663892
353988.11779519
350223.13709178
346492.63970411
342799.06912427
339144.14498752
335529.38853784
331954.23000295
328416.30496302
324910.84944916
321431.21006232
317967.39889321
314508.54218924
311042.26585678
307553.78771309
304023.35891392
300425.33117872
296725.45256752
292877.60242072
288818.43684021
284458.98266688
279671.16105167
274264.93598693
267953.18891557
260310.75814868
250749.4077344
238540.14821021
389712.51965491
387712.20601597
384408.08055104
380640.06100931
376669.4998223
372676.49151122
368713.19956924
364790.39006872
360904.30898888
357058.32254662
353246.84677027
349470.82250942
345732.70472587
342034.02563063
338375.7872232
334757.58784239
331179.46469212
327638.50656346
324129.15001819
320643.63892972
317171.76727637
313702.42056816
310222.8606778
306717.47831696
303165.39150823
299539.1009977
295801.86101681
291903.85036212
287776.10026548
283320.94569824
278395.97922345
272785.63143297
266151.43902777
257970.60202651
247389.28857739
233495.03125057
390585.45001653
388266.13622897
384625.5161528
380766.38136697
376827.41677859
372888.64604915
368942.8125376
365002.10917801
361091.43257449
357218.49256938
353382.33553259
349583.5425103
345823.95048781
342105.0747822
338428.45841138
334795.18399068
331204.9750003
327655.0184179
324139.27700394
320649.619281
317175.05592991
313704.28138766
310224.41245915
306719.6357588
303168.929989
299544.54316907
295809.60093828
291914.17230298
287789.13080789
283336.17235124
278411.26467875
272792.63283748
266113.61169971
257763.1832121
246647.69108563
231022.4261022
391803.82220003
389001.70368056
385171.16233626
381198.26421646
377178.96691993
373154.56252428
369139.50331665
365148.0251003
361196.54681433
357290.77533356
353430.28161559
349614.53645952
345843.70391018
342118.08665232
338437.917477
334803.15538826
331213.05092738
327664.39460688
324150.23202751
320662.66531796
317189.24958723
313719.2294498
310240.06469787
306735.93578935
303186.37029209
299563.51066164
295830.5695445
291937.63811564
287815.42329272
283364.71919625
278439.5408694
272812.5032285
266080.03482536
257518.20644877
245634.90470158
227083.00210007
393733.09263607
390076.81752179
385677.74592846
381429.40889017
377298.76309567
373233.68814849
369205.1553622
365215.10760563
361267.19824289
357361.86659501
353500.75292533
349684.31905405
345912.91295938
342186.97658813
338506.98933875
334873.38462832
331286.41220701
327744.07660318
324232.67045831
320751.00225112
317281.35542729
313814.5136027
310338.49014354
306836.95467001
303290.55097184
299671.15073218
295942.08014891
292053.41269012
287935.52623643
283488.09418187
278559.51315251
272929.76034207
266147.52445676
257379.90862623
244633.84295691
221620.25360593
397358.08684962
390648.83686665
385797.73350656
381459.73796681
377323.88343658
373267.44495561
369249.3156688
365262.11963226
361312.14619159
357400.94023755
353531.24133122
349703.92877853
345919.55742842
342178.63500524
338481.72313458
334829.52358335
331223.01879
327668.50213308
324181.22531707
320694.17508117
317216.93800122
313743.0686357
310260.708462
306754.19573463
303202.994974
299579.33605491
295846.26934056
291953.84851521
287832.50082802
283381.43847807
278438.92017325
272811.73293013
266004.59492815
257137.77074658
243921.63666449
216059.8436514
223834.04327214
209150.07458985
196874.82520887
186965.6464228
178045.97764495
168525.47665482
158008.2963546
146317.04083004
133617.73183942
120232.18188733
105831.56694698
93059.074468827
80555.389183374
69062.364833233
58990.568346521
50217.337330453
42757.592794105
36456.258282874
31160.868156587
26761.619736066
23113.095597261
20058.337202218
17498.919091983
15357.206931657
13553.953725987
12011.448918396
10683.374008283
9597.1131705272
8604.5948278857
7769.2431874536
7049.536326341
6395.8526451488
5855.7716343815
5343.8765120123
4925.0334272442
4520.6579026894
4189.2169989352
3866.2904548372
3599.205317462
3339.3560907517
3120.5271190716
2910.6569339686
2727.6950011734
2558.2931503722
2401.9599462502
2263.2891540024
2129.6358456161
2013.8396742979
1900.9480943739
1801.7061142297
1707.4626330487
1620.3086396253
1539.7446098002
1464.8728152099
1395.1881629954
1330.2011969569
1269.4885428051
1212.6885283007
1159.4866685876
1109.5942652802
1062.7384475254
1018.6767993824
977.20180697834
938.1280949503
901.27978682157
866.48902408815
833.60302691859
802.04467423384
1071.164659294
4723.259167826
5525.9687692938
5533.3141853934
5509.1276331861
5492.0141775598
5485.0598815454
5488.864092214
5504.7560496679
5533.3736210932
5574.28790336
5625.6450175541
5683.505951467
5742.1662419951
5795.230517227
5836.9525185477
5864.7699977838
5876.170978219
5877.2451692859
5871.6325857998
5861.1152478276
5846.8737789867
5829.9091812246
5811.2670550702
5791.7863533159
5772.0157531112
5752.3829916006
5732.6876453892
5715.002683342
5695.5083235289
5675.7602175158
5655.8001607182
5635.5243212857
5615.0029544622
5594.5009311253
5574.1188253883
5549.7031159675
5532.4562528645
5517.4156788228
5504.9916444358
5495.2730388894
5488.5558782138
5485.6398135638
5485.9180228276
5488.7977823356
5494.863571956
5503.9662667068
5516.0346307944
5531.7271804392
5550.9641157459
5571.5971325277
5592.6240263292
5616.4566282553
5640.3171210067
5664.8376552718
5690.1650861762
5714.9391949661
5738.2915670488
5759.9514731862
5780.0703883913
5798.7140424982
5815.9516220472
5831.9618319972
5847.4347562694
5862.7241849423
5878.6863130412
5894.8170235342
5914.1637529191
5932.8806456349
5954.7846589835
6013.3845398936
5997.7525521139
216284.52808472
200781.13533534
189138.03046096
180001.60483183
171092.6381759
161033.62722552
150078.96842161
138239.48637848
125738.04705711
112813.42784435
99813.732471584
87029.406594127
75594.337572683
65098.65706195
55709.978475879
47578.064892811
40605.514845466
34705.882046037
29760.950326841
25625.521540503
22171.517359177
19286.602534759
16865.752129728
14824.841561835
13099.252200274
11633.482072933
10379.378210117
9302.3936831528
8375.2065872323
7567.3846537425
6866.7619755603
6251.6726747098
5712.0278731654
5234.5123157521
4811.7679688017
4435.31656902
4099.2849935077
3798.063286889
3527.6029015699
3283.4144625439
3063.1929764856
2863.0104290403
2681.7365573324
2515.8657816404
2365.0928334398
2226.3852394562
2099.6869884157
1982.7211681683
1875.2864961495
1775.8823908174
1684.0494605662
1598.8301719775
1519.6733577167
1446.1644265279
1377.6866971941
1313.8258482737
1254.1464458675
1198.3090230059
1145.9826510498
1096.8892769264
1050.7695919379
1007.3972101932
966.56304746947
928.08002912151
891.77701835274
857.49897997728
825.10670425843
795.70005850452
1726.0758411445
5173.9383045765
5540.1633443985
5524.4033963546
5501.9507982369
5487.3978905897
5483.1196337299
5489.5468245606
5508.2457687265
5539.5888234427
5582.879273621
5635.8146804728
5693.9705633691
5751.3808358499
5801.8079591272
5839.6756313555
5859.2433618572
5870.265669154
5871.7448755182
5866.731708698
5856.9584629663
5843.4735547435
5827.1637889604
5809.0619544914
5790.0530830077
5770.7161146106
5751.4573553663
5732.2176683398
5714.6115172213
5695.4151337621
5675.8825464906
5656.1459338775
5636.1109452508
5615.8308950578
5595.5298140754
5575.2932335025
5551.139056568
5533.9440730608
5518.8825088058
5506.3752110773
5496.5804934288
5489.802750602
5486.716465484
5486.769098251
5489.4753663708
5495.4044660527
5504.4427993853
5516.3990124865
5532.0046894405
5551.1020761641
5571.5312800718
5592.6048936688
5616.3711734771
5640.175667184
5664.8240778148
5690.1680519108
5714.9255488928
5738.3292427969
5760.1061066861
5780.3791244576
5799.2193010213
5816.7043576367
5833.0487394539
5848.8196385549
5864.2272235276
5880.2669774964
5896.4223860791
5915.6884107112
5934.4523927027
5955.9358450909
6012.2650638226
5997.1896777785
209761.29096569
191483.68315511
180910.71702662
170409.01443358
161250.73660224
151445.74705858
140737.72298319
129452.95603539
117825.48247769
105655.04471696
94377.077626687
83148.671062134
72551.318533926
62831.019291688
54079.189109387
46376.250368326
39725.76294505
34077.195655181
29308.552591599
25287.323759573
21915.842644761
19093.710149942
16716.762735211
14709.24451025
13009.748697037
11561.985567309
10322.592850999
9256.8160821309
8337.0997793815
7538.3675470498
6840.7478169409
6231.1726787318
5693.4869547845
5219.8525867772
4798.6022765285
4424.6146409679
4089.6261125041
3790.277801991
3520.3495634237
3277.7177849007
3057.7163148747
2858.8037239227
2677.5197262064
2512.674786579
2361.8377138717
2223.8016368083
2097.1212600774
1980.5307794675
1873.266327066
1774.0212338988
1682.3969215548
1597.334476008
1518.4034307252
1444.9362711328
1376.5376195624
1312.7486015176
1253.1525962991
1197.392269893
1145.1360965565
1096.1056993849
1050.0466740239
1006.7314315092
965.9478640627
927.50928774967
891.24766429726
857.01000049544
824.65535801755
795.40215244727
1756.4944105231
5183.4177529958
5540.3306351449
5524.6632635602
5502.5048799741
5488.1722507231
5484.0784564846
5490.6344879751
5509.3830708069
5540.6974277294
5583.8761895913
5636.6179224873
5694.5232785079
5751.6732817975
5801.8593539637
5839.4792003938
5859.0450760716
5869.7799702342
5871.0933877357
5866.010349867
5856.1842301701
5842.6816799484
5826.4057124878
5808.3616367833
5789.4154822544
5770.159748507
5750.988891839
5732.1151138182
5714.3099473177
5695.3690592708
5676.1085349001
5656.6008035695
5636.7953402426
5616.7667396572
5596.6942972658
5576.6766080202
5553.033681165
5535.906934414
5520.8423698751
5508.2639765248
5498.4680645779
5491.6717469909
5488.1319363185
5487.7735584606
5490.2581941186
5495.8459867959
5504.5685011114
5516.3099662837
5531.7406624591
5550.4881330207
5570.4838725533
5591.4774140813
5615.0491134351
5638.8341886336
5663.500898458
5688.6447501115
5713.1715396443
5736.5952377214
5758.5208036755
5779.0120520325
5798.1232500774
5815.9351427703
5832.6357787768
5848.7205373677
5864.4344564185
5880.6447321321
5897.3813272042
5916.2301901968
5934.81712674
5958.0875079608
6009.9976274676
5995.2489751433
197525.74640929
176228.9339598
166006.90731508
155602.75375752
145799.81831273
136503.73178008
126733.90390692
116903.37684452
106892.99843294
96658.993493831
87410.525286162
77855.526294954
68547.546737066
59840.963653679
51842.145499978
44746.987202784
38550.343864895
33208.694494693
28661.466227946
24819.550197967
21571.920038808
18822.671573206
16509.755632272
14552.124052259
12884.65694988
11461.47207808
10243.212006769
9193.3453332158
8284.0251594112
7495.2909850451
6805.5820878562
6200.8719144846
5668.6922097448
5198.2563326909
4780.8376364745
4408.955884144
4076.7612048524
3778.7324480644
3510.8479214471
3269.2200612305
3050.5774848332
2852.3965797023
2672.0480851161
2507.8259635767
2357.4856868054
2220.0263100026
2093.6365475345
1977.5575644565
1870.4251391329
1771.5698950553
1680.0881663265
1595.2854269047
1516.5505122066
1443.2462517172
1374.9813944882
1311.2910429969
1251.8001019106
1196.1352475799
1143.9774890795
1095.0407493109
1049.0670328868
1005.8254757722
965.10853757023
926.73302910297
890.53126859392
856.34879307662
824.04161928737
795.01627742469
1804.2361125491
5194.7829632829
5540.4959679671
5525.0641199161
5503.3077836633
5489.2978788203
5485.4660372227
5492.1953932799
5511.0167706342
5542.288857182
5585.3048201996
5637.7663120492
5695.3097433405
5752.0773141017
5801.9215303984
5839.2805617676
5858.7718829935
5869.3512055557
5870.550819926
5865.3647188833
5855.4299650406
5841.8578339013
5825.5260411846
5807.4477791571
5788.510386801
5769.3178119753
5750.2592667988
5731.5881947431
5713.8002445894
5695.2236438898
5676.3951263194
5657.3042890459
5637.9157586527
5618.3097544315
5598.6362002893
5579.0400583118
5555.8441927462
5538.9101907348
5523.897086465
5511.2488561319
5501.3320590279
5494.3712090041
5490.5229818192
5489.7021219446
5491.7719525909
5496.8417096003
5505.1167451235
5516.4925620856
5531.5997579931
5549.8058579132
5569.3022457356
5590.240687003
5613.3995941874
5636.9533568681
5661.5845694959
5686.6053702798
5711.1088869108
5734.6324159518
5756.8013677802
5777.6243451376
5797.1718043351
5815.517293371
5832.7545826904
5849.3567812087
5865.5124905198
5882.1003897206
5898.9848603529
5917.9150729667
5936.6537895382
5959.877728711
6011.9370358571
5996.7055504705
171065.47336112
151330.5817779
139997.4236323
131104.25859372
123361.53991416
116000.83189107
109144.06626784
102087.38379723
94917.298628573
87549.931484148
79712.722902605
71703.042542487
63803.440572251
56244.095731162
49201.709636393
42782.659400756
37094.567125364
32142.012972993
27872.077295706
24221.746568139
21120.218855818
18492.109357437
16249.063559154
14345.574723326
12724.199603122
11336.047162432
10140.626569333
9110.2868428259
8217.2200500084
7439.4508960959
6759.7138594363
6162.564767403
5636.5842088568
5170.7895224336
4757.7468515731
4389.1901340757
4059.8479426919
3764.2020964115
3498.4587448225
3258.3348005116
3041.2938727292
2844.1820371127
2665.0090070024
2501.4509350646
2351.9971044502
2215.0398980205
2089.2551929422
1973.5732395895
1866.8474065365
1768.3723297059
1677.1469670273
1592.6279637015
1514.0975380704
1441.0568209331
1372.9748054965
1309.4314472991
1250.0680073576
1194.5257409979
1142.4947358187
1093.6764184502
1047.8089031449
1004.6618506873
964.03378466055
925.74057943284
889.61257052466
855.49658479962
823.25386426188
794.51936932927
1868.5568970455
5209.7593498771
5540.8113094979
5525.6548022857
5504.369913147
5490.77356752
5487.2691811354
5494.2136356783
5513.120418622
5544.3304644636
5587.1305228898
5639.2286543437
5696.3085316946
5752.5908992642
5801.9910660538
5839.0334132341
5858.4183194945
5868.8288384005
5869.8248613466
5864.4393023049
5854.3340407918
5840.6570178681
5824.2720794765
5806.1797591335
5787.27295474
5768.1686767315
5749.2696817777
5730.839327393
5713.1538765329
5695.0091939556
5676.6852128321
5658.1055276359
5639.2338717665
5620.1481590568
5600.9796941334
5581.9241361313
5559.2463681538
5542.6321017844
5527.7447390261
5515.0589761057
5504.9797630912
5497.7469981198
5493.5176812233
5492.1660837411
5493.6358695317
5498.0141429576
5505.711641527
5516.6748574477
5531.3548914367
5548.7986204841
5567.714876191
5588.5132552628
5611.2372894636
5634.5790845448
5659.0735288247
5683.9237794799
5708.3709135053
5731.980436414
5754.4232900981
5775.665052901
5795.7791056198
5814.8420965496
5832.7296900857
5849.8693896655
5866.5084961701
5883.507019279
5900.5774856505
5919.5699536786
5938.0277235626
5961.1865254357
6012.8757855412
5997.6689630549
103572.92529758
99972.29897886
98722.782011204
98592.293453166
97279.331071303
94910.49459992
91651.193713051
87823.640164082
82969.209220246
77571.886902582
71522.911990187
65185.17091044
58708.743808705
52310.125947966
46214.370950749
40559.623998831
35441.58036214
30903.582108965
26944.84975912
23525.942031805
20590.742489455
18079.449716498
15940.109739384
14102.869175011
12530.344405708
11180.82885095
10019.01813954
9010.3128947996
8134.7664813853
7371.8701661023
6703.9670565114
6115.7219689845
5597.1387662944
5137.9283551722
4729.3658759636
4365.126765207
4039.2633357846
3746.6967431504
3483.1033185999
3245.2067184348
3029.8516258036
2834.2387900716
2656.2253179057
2493.7403774531
2345.2162886491
2208.9551004383
2083.8585383275
1968.6857449042
1862.5222074534
1764.4129217904
1673.5679807648
1589.360737654
1511.1176967791
1438.3493544219
1370.4906698454
1307.1554753845
1247.96306693
1192.5827636499
1140.6958272521
1092.0082097432
1046.2687162307
1003.2464167577
962.73101016357
924.53298694915
888.4884868698
854.45047140766
822.28747719142
793.92860872594
1949.6048163175
5229.3595755211
5541.3515320963
5526.4864947112
5505.7120361521
5492.6056560222
5489.4881407209
5496.6866250835
5515.6867162366
5546.810156548
5589.3361737743
5640.9821772837
5697.4888467102
5753.1711735086
5802.0324516923
5838.6728438489
5857.9267824852
5868.0923777269
5868.8478495371
5863.2357489207
5852.9332779176
5839.129595837
5822.6753379575
5804.5576755135
5785.6850104966
5766.6901517229
5747.9820655759
5729.8212557879
5712.3474478155
5694.6880407392
5676.9437736397
5658.9719754344
5640.7229486429
5622.2612852325
5603.6994714111
5585.3220096043
5563.1823200967
5546.9844402918
5532.2965260615
5519.597819322
5509.3274429945
5501.7491929245
5497.0443344169
5495.170538568
5495.9313854273
5499.5455134542
5506.5902122429
5517.0366204115
5531.112461471
5547.7365412433
5566.0259307029
5586.5554042982
5608.7766570264
5631.8877426987
5656.204270796
5680.9232385367
5705.4127073381
5729.2357206207
5752.0661963771
5773.8221020932
5794.5303797151
5814.258276495
5832.9422455667
5850.7945735016
5868.0611771072
5885.5717151866
5902.7515515615
5921.8567674917
5939.9168492173
5963.1371518443
6014.5788068144
5999.0566589344
10106.062113665
46061.459012628
60028.664162139
68517.236252012
73751.722979883
76077.196689277
76056.960260006
74609.007990351
72069.068537442
68639.133947657
64527.075493725
59841.465331923
54780.007993297
49541.876245414
44338.538044313
39358.434799738
34721.240427822
30516.151595757
26774.782531735
23492.565229175
20640.218807018
18177.884874497
16056.947964565
14238.339633053
12667.941007875
11310.538735888
10140.463078642
9126.3886696221
8243.1230071113
7469.8126788268
6793.5188529348
6199.0309187436
5673.0594070195
5206.8126194719
4792.5848701387
4423.2924161112
4092.2261586847
3795.2976156397
3527.8867802493
3286.4471156748
3067.6545612362
2869.1727171932
2688.5065074655
2523.6081273221
2372.7640672628
2234.5062590921
2107.5766070501
1990.7076722698
1882.9652077514
1783.4075455407
1691.300918669
1605.8999404682
1526.5496483858
1452.7477339775
1383.9888697856
1319.8426573993
1259.8737570915
1203.7551090428
1151.1898882722
1101.8940442539
1055.6003108141
1012.0623172143
971.07023120985
932.44171012691
896.00547551245
861.5926771482
829.04657627729
797.7581370535
1202.5566973052
4899.7090535865
5533.725083697
5533.1070398703
5511.7570809827
5497.0364424712
5491.8624185883
5496.6759140717
5512.8040663677
5540.8534939286
5580.3943268256
5629.5911440749
5684.7040794424
5740.4516362786
5790.8858094361
5830.499443918
5857.208994241
5867.1146490516
5867.5869845344
5861.6922905688
5851.1555318433
5837.2050708581
5820.6832471331
5802.5556547005
5783.7420585505
5764.8873274491
5746.407309855
5728.5565289248
5711.3814310106
5694.2387543277
5677.1214658591
5659.8333561882
5642.2692301932
5624.4994169663
5606.5868861236
5588.8559757516
5569.7499874764
5554.1088216136
5539.8125204523
5527.2021470807
5516.7040401797
5508.5950635662
5503.0856230045
5500.3971284502
5499.9109914905
5502.3010575489
5508.0983536132
5517.586552575
5530.7310386105
5546.0513313109
5563.3831941888
5583.2371839931
5604.6373041089
5627.3907207806
5651.4041944142
5675.9743738822
5700.6126893873
5724.8620829412
5748.3998068576
5771.0945658138
5792.8971555546
5813.5821828297
5833.158515817
5852.052172331
5870.2820612381
5888.5831528771
5905.8570470958
5925.0840410108
5942.5799000677
5965.6830178227
6016.6366271969
6001.197339355
7948.8130560756
14676.694329083
25087.985087286
33701.026415147
40447.702499733
45375.088725707
48639.552079989
50589.672517743
50758.022681615
50031.778005108
48513.222254299
46228.502027716
43385.58458956
40142.227920912
36679.811090235
33176.515941947
29772.468438425
26565.84716376
23625.357001452
20978.659783568
18626.569644398
16556.24477884
14743.29872591
13160.274451864
11781.662694445
10582.615685562
9534.4350536024
8614.506470298
7810.1448422959
7103.6407101667
6481.2832173634
5929.2994218175
5440.1388118453
5005.1771562808
4617.0698879689
4268.8115197792
3956.4656048997
3675.3481590814
3421.6781030577
3191.7289457156
2983.1062330748
2793.3530237463
2620.3494641308
2462.0779051467
2317.0501456393
2183.9863356397
2061.5824256655
1948.7593031829
1844.5250012945
1748.169279038
1658.8823734918
1576.0146854305
1498.9449293008
1427.1774930981
1360.2843625627
1297.8212251448
1239.4147372387
1184.7078480207
1133.4212035623
1085.2871309049
1040.0566458456
997.50578961119
957.42791286605
919.6404527936
883.96955423764
850.25736285732
818.34403815912
792.57288371237
2304.605921584
5307.0196687761
5544.8290972105
5530.2111594558
5511.362887635
5500.1823580714
5498.5328992383
5506.673171843
5525.9456639225
5556.6147504837
5597.9327354738
5647.6661815189
5701.7811376621
5754.9514746366
5801.5435346642
5836.458428079
5854.9811846371
5864.2552587307
5864.056443974
5857.4687837309
5846.395719669
5832.127020934
5815.4949702356
5797.4035246994
5778.7866654235
5760.3069497877
5742.3845347161
5725.2597814076
5708.8850375418
5692.849550533
5677.0796164579
5661.2792588015
5645.2305042107
5628.965451706
5612.5411397885
5596.221528305
5578.4889705359
5563.7518941149
5550.1371200787
5537.8457682466
5527.2375245215
5518.5995002346
5512.1204245191
5508.3411422045
5506.4560286421
5507.3095372097
5511.3689707056
5519.4371076362
5530.9011905092
5544.2123160453
5560.3006295641
5579.1220527142
5599.4577364702
5621.6775890118
5645.2773749099
5669.6895714973
5694.6473995055
5719.6330026274
5744.2342011081
5768.3356834895
5791.6731710069
5814.1191814696
5835.3568537346
5855.6753969127
5874.9422284448
5893.8405320107
5910.8858173586
5929.8073012434
5946.5110719358
5969.3723724729
6018.704495072
6005.8227575963
7689.4434141806
8436.3331710733
12979.804278254
18442.266271663
23496.729776753
27789.614077849
31256.732882753
33850.921490235
35667.349635627
36540.132847072
36531.61659561
35804.623711745
34559.776062801
32799.794252689
30667.991198854
28324.742851667
25902.025621687
23504.193424006
21211.765331414
19076.525935164
17126.034445506
15368.235695831
13798.978380133
12406.502293909
11174.888109315
10088.698680834
9130.9595489719
8286.0812063482
7540.4128040502
6879.0430587618
6292.127878266
5771.1288551386
5306.8251360828
4892.549154976
4520.3695289242
4186.0993551986
3885.3533241448
3614.0540142927
3368.2550239698
3145.0967215731
2942.3696282428
2757.5978379289
2588.7732527037
2434.0117271116
2292.1759002198
2161.8034364085
2041.7892238125
1930.9568379137
1828.5252623444
1733.7303895211
1645.8252003541
1564.1562941827
1488.1333115766
1417.3389894531
1351.2922429367
1289.591758752
1231.856612332
1177.7640420258
1127.0434624946
1079.4141343838
1034.6345194307
992.4876243351
952.77860273131
915.33497977957
879.98193317825
846.56303491861
814.93600249224
792.62299075471
2630.2241858757
5361.1940894175
5547.4310039752
5533.2912357312
5516.3425437102
5506.8289253184
5506.3576994855
5515.2105428805
5534.6005949534
5564.7519990926
5604.8994515053
5652.8660342016
5704.8071380722
5755.688011287
5800.221542365
5833.5478068177
5851.3996675717
5859.9245560395
5858.960131871
5851.5624588134
5839.9042525588
5825.3268161874
5808.6571513348
5790.7212544768
5772.4327330988
5754.4629503847
5737.217145813
5720.9219728188
5705.5201820572
5690.6443071031
5676.25385255
5661.9144238414
5647.4503073544
5632.7287163681
5617.839096388
5603.0441198063
5586.5818589823
5572.7933553843
5559.9871116426
5548.1675150845
5537.6300145789
5528.6563725187
5521.4031106343
5516.6350548404
5513.5709545237
5513.1814394838
5515.5583711113
5522.1245921475
5531.7708236395
5543.3088822587
5558.2143076108
5575.7392536434
5595.1618212499
5616.8865615362
5640.2105729725
5664.6979129987
5690.2526701891
5716.2288601706
5741.9859063948
5767.4524512668
5792.2662917561
5816.0053207619
5838.4349087863
5859.812767769
5879.4416553435
5898.1396290585
5914.3415986153
5932.1776457211
5947.9024199238
5969.7258122415
6019.9354057292
6016.27391911
7008.1422438072
6995.2072837138
8444.2871355363
11606.890001451
15086.716895841
18364.533799024
21274.058628407
23717.949668034
25667.668902309
27046.043272961
27787.780952717
27846.335748894
27403.899980409
26601.931553004
25409.781220389
23930.722674963
22285.909168231
20558.793543284
18829.040714244
17157.139464992
15582.795579971
14126.811126224
12797.549320722
11596.01346967
10516.409077815
9550.2275183661
8688.411171124
7920.3096964239
7235.4803896281
6624.6685869444
6079.5148337798
5592.0794087488
5154.7056395759
4761.7843862725
4408.6572405004
4090.5030682811
3803.1767373606
3542.2735020055
3305.5709378056
3090.5250366646
2894.5220415594
2715.5165928342
2551.3223396383
2400.8987527041
2262.7128820535
2135.5755470088
2018.2363368367
1909.7922681841
1809.5214637436
1716.5698849832
1630.3009691459
1550.0213029215
1475.2910096089
1405.6449011626
1340.6259405794
1279.8343508736
1222.8981498697
1169.5303665005
1119.4627643477
1072.431973254
1028.1964967587
986.53399551947
947.26006123617
910.21258035429
875.22476744312
842.1359379784
810.81178078118
793.56819153397
3053.4644382147
5414.3112380492
5550.8919148553
5536.9560115331
5522.2417534937
5514.6010048341
5515.3658608945
5524.920829792
5544.3108705746
5573.7167319162
5612.3608091433
5658.1398973481
5707.432161983
5755.5585267736
5797.6054748942
5829.0237067028
5846.0934224654
5853.8284036776
5852.0703941014
5843.8622466777
5831.6337337178
5816.8035669305
5800.1997016664
5782.5667351092
5764.7606499692
5747.4276207917
5730.9562502996
5715.5523070945
5701.1773317037
5687.5124688819
5674.409126659
5661.4989725864
5648.4353038668
5635.2155692916
5621.7907918638
5608.3767994725
5593.1282336716
5580.2294321544
5568.2923040072
5557.0764829817
5546.8097931835
5537.8019662644
5530.1396370069
5524.6801211424
5520.6923459886
5519.2379017581
5520.2609446983
5525.3157862808
5533.3007128125
5543.3238220431
5557.1457683793
5573.5100918253
5592.2313656368
5613.5994904876
5636.8295893661
5661.5892004821
5687.7853402905
5714.7028890605
5741.6289767624
5767.9088955532
5793.1675480553
5817.0804942348
5839.7485518077
5861.4852744803
5881.3576719037
5900.5077949272
5916.672135409
5933.5329594081
5948.4479511524
5970.9689332981
6014.1760797512
6030.0373996877
6365.698467922
6365.585590254
6593.7807827277
8179.5730552454
10491.286301857
12892.530797849
15181.903568053
17247.366162682
18994.21093046
20336.137913059
21337.926553283
21842.267462297
21921.116431091
21659.593507198
21065.245733921
20188.319604832
19095.350543343
17879.277506758
16605.118042626
15323.332405605
14077.58490918
12892.639576696
11785.288220612
10764.112248024
9831.4144523826
8984.6077492873
8219.1181154153
7529.2816182457
6908.3613841749
6349.651416361
5846.8867310815
5394.20060826
4986.2225747244
4618.1065782839
4285.1939055961
3983.4078340469
3709.8688222096
3461.3687942657
3235.1780432084
3028.9587672844
2840.0518118945
2667.127090217
2508.6495648242
2363.0262805443
2229.1044419724
2105.3937527821
1991.1671959381
1885.5616691102
1787.685505569
1696.8856005809
1612.3836686562
1533.766736057
1460.5324202551
1392.204337591
1328.35516354
1268.5697778164
1212.5721142477
1160.059389433
1110.7438411459
1064.3898083337
1020.7527133593
979.64201697349
940.88401556165
904.28993223399
869.7098031379
836.99632270691
805.93306398593
811.44451534181
3568.5057613855
5465.1268680894
5555.157308857
5541.5368610618
5529.0605534127
5523.3483995026
5525.2938968765
5535.4407879088
5554.6393529586
5583.0209869795
5619.7919039172
5662.9539207204
5709.1558493477
5754.1096391317
5793.3051074424
5822.5599870191
5838.7009496672
5845.769615868
5843.2815512954
5834.3997310739
5821.6702296919
5806.6743120732
5790.2474131891
5773.0726252823
5755.8939401726
5739.311823111
5723.6906117548
5709.2090610686
5695.8458511842
5683.3574754074
5671.4375746322
5659.8450387249
5648.1204098465
5636.1381767287
5624.0365192641
5611.8849532092
5597.6967191052
5585.6587915403
5574.573659385
5564.0709195786
5554.2532372304
5545.4419868678
5537.6446018648
5531.7679594848
5527.1150540701
5524.7803647505
5524.8922931533
5528.5599823463
5535.261822718
5544.0300147086
5556.8043147372
5572.3632513004
5590.679129731
5611.9411708029
5635.230743231
5660.464739077
5686.7566847522
5713.5693526871
5740.5849204604
5767.3019466956
5793.2254415941
5817.7482478133
5840.6491135464
5861.9330632748
5879.988354004
5898.3260521129
5915.0390999459
5932.4582622998
5948.5634387624
5972.9840564222
6008.1849214202
6042.0754573331
5844.6868396619
5822.5806929218
5782.7577133965
6372.635782908
7807.5784532908
9540.6860661645
11301.451127616
12970.642274868
14454.488184186
15753.200785057
16713.136104784
17423.802823986
17705.471887831
17697.654447423
17490.506059717
17013.697143008
16327.380900371
15502.81836502
14584.929495121
13621.652348186
12651.160997624
11702.016233992
10793.638391371
9938.2757100939
9142.5205277037
8408.8313310913
7736.2974169901
7122.888290735
6565.3345692778
6059.1701857911
5599.9031448749
5183.2783079947
4805.352296625
4462.3180361049
4150.5435050787
3866.945553369
3608.7098452431
3372.9949175302
3157.3569551994
2960.1661356334
2779.5106833324
2613.7493999237
2461.4153439467
2320.8630621737
2191.2412364107
2071.6367694315
1960.9814131621
1858.5010475209
1763.2384826577
1674.6331160459
1592.2788967867
1515.534256656
1443.970166004
1377.0764760933
1314.4669556014
1255.8840591961
1200.9483965222
1149.3887358019
1100.9250968499
1055.3077325507
1012.3607081199
971.88204779939
933.68030503534
897.60409192549
863.48673550918
831.18433093316
800.60461861853
856.41228690372
4092.5328521118
5504.5432897894
5559.5941416542
5546.9316195245
5536.6618041365
5532.8188127946
5535.8039914172