/*--------------------------------*- C++ -*----------------------------------*\
| =========                 |                                                 |
| \\      /  F ield         | OpenFOAM: The Open Source CFD Toolbox           |
|  \\    /   O peration     | Version:  2312                                  |
|   \\  /    A nd           | Website:  www.openfoam.com                      |
|    \\/     M anipulation  |                                                 |
\*---------------------------------------------------------------------------*/
FoamFile
{
    version     2.0;
    format      ascii;
    arch        "LSB;label=32;scalar=64";
    class       volScalarField;
    location    "0.00012";
    object      pTsat;
}
// * * * * * * * * * * * * * * * * * * * * * * * * * * * * * * * * * * * * * //

dimensions      [1 -1 -2 0 0 0 0];

internalField   nonuniform List<scalar> 
109340
(
389478.60856933
387920.41114376
384972.72268483
381436.1834223
377568.25701203
373579.24458145
369551.02471472
365533.71949435
361614.453775
357784.01673921
353988.11786899
350223.13715122
346492.63975271
342799.06916278
339144.14501914
335529.3885641
331954.23002239
328416.30497968
324910.8494566
321431.21006595
317967.39889268
314508.54218413
311042.26585351
307553.7877082
304023.35890606
300425.33116552
296725.45255863
292877.60241103
288818.43683352
284458.98265845
279671.16104589
274264.93597871
267953.18890841
260310.75814211
250749.40772957
238540.14820664
389712.51998271
387712.20684998
384408.08076714
380640.0610812
376669.49982922
372676.49151652
368713.19965314
364790.39015043
360904.30905185
357058.32259465
353246.84680538
349470.82252977
345732.70474925
342034.02564456
338375.78723403
334757.5878444
331179.46469625
327638.50656552
324129.15001553
320643.63892698
317171.76727024
313702.42055803
310222.86066873
306717.47830689
303165.39149514
299539.1009854
295801.86100216
291903.85034931
287776.10025303
283320.94568559
278395.97921197
272785.63142466
266151.4390187
257970.60201885
247389.28857395
233495.0312482
390585.45003151
388266.13658832
384625.51630794
380766.38147546
376827.41688097
372888.64612936
368942.81260247
365002.10922949
361091.43260828
357218.49259558
353382.33555576
349583.54253007
345823.95050486
342105.07479833
338428.45842731
334795.18400493
331204.97501148
327655.0184272
324139.27701006
320649.61928447
317175.05592892
313704.28139112
310224.41245673
306719.63575584
303168.92998569
299544.54316672
295809.60093585
291914.17230053
287789.13080585
283336.17234886
278411.26467464
272792.63283496
266113.61169606
257763.18320758
246647.69108242
231022.42609691
391803.82175228
389001.70388411
385171.1625285
381198.26431398
377178.9669757
373154.56256393
369139.50334874
365148.02512855
361196.5468416
357290.77535056
353430.28162498
349614.53647151
345843.70391423
342118.08665768
338437.91747733
334803.15539145
331213.05092771
327664.39460336
324150.2320291
320662.6653212
317189.24958945
313719.22944516
310240.06469144
306735.93578413
303186.3702871
299563.51065841
295830.56954443
291937.63811635
287815.42329195
283364.71919545
278439.54086585
272812.50322594
266080.0348239
257518.20644487
245634.90469756
227083.002095
393733.09225524
390076.81764727
385677.74596621
381429.40889877
377298.76309478
373233.68815093
369205.15536333
365215.107606
361267.1982433
357361.86659952
353500.75292949
349684.31905359
345912.91296287
342186.97659026
338506.98933652
334873.38462784
331286.41220428
327744.07660226
324232.67046235
320751.00224662
317281.35542892
313814.5136036
310338.49014414
306836.95466975
303290.5509716
299671.15072946
295942.08014761
292053.41268977
287935.52623729
283488.09418085
278559.51314927
272929.76034173
266147.52445657
257379.90862414
244633.84295261
221620.25359972
397358.0865266
390648.83689415
385797.73351397
381459.73796919
377323.88343527
373267.44495751
369249.31565593
365262.11963629
361312.14619422
357400.94023793
353531.24133446
349703.92877919
345919.55742819
342178.63500435
338481.72313526
334829.52358264
331223.0187902
327668.50212989
324181.2253134
320694.17507907
317216.93799716
313743.06863283
310260.70845934
306754.19573194
303202.99497247
299579.33605408
295846.26933818
291953.8485132
287832.50082438
283381.43847375
278438.92012326
272811.73293877
266004.59492376
257137.77073975
243921.63665556
216059.84363937
223834.04327698
209150.0744976
196874.82526951
186965.64528749
178045.97581341
168525.47675794
158008.29646432
146317.04081019
133617.73211873
120232.17899197
105831.6319699
93059.07273367
80555.388300963
69062.364862518
58990.568999697
50217.337151865
42757.592467408
36456.258509547
31160.8681073
26761.61957203
23113.095558427
20058.337189364
17498.919436548
15357.209241233
13553.956384312
12011.441037254
10683.375815864
9597.1057601132
8604.5823480888
7769.2704774098
7049.5216166892
6395.8616978069
5855.7638281065
5343.8805983961
4925.0263997564
4520.6611398046
4189.2126258987
3866.2926878986
3599.200871555
3339.3593699167
3120.5238483001
2910.6711461413
2727.6907175197
2558.2846194071
2401.9567141267
2263.2926695778
2129.6337517565
2013.838435656
1900.9470244151
1801.7052475825
1707.4630649048
1620.3084858458
1539.7446307599
1464.8727687362
1395.1881522157
1330.2011628895
1269.4885237337
1212.6885065936
1159.4866572871
1109.594258106
1062.7384482473
1018.6768042773
977.20181599166
938.12810560928
901.279798439
866.48903540282
833.60303847443
802.04471312434
1071.1640377367
4723.2571137731
5525.9685244423
5533.313974121
5509.1273773765
5492.0138577172
5485.0595408743
5488.863701139
5504.7556539835
5533.3732295622
5574.287532294
5625.6446844577
5683.505673516
5742.1660330071
5795.230392413
5836.9524738218
5864.7700329977
5876.1709914118
5877.2451880472
5871.6326039035
5861.1152595966
5846.8737868139
5829.9091872264
5811.2670601507
5791.7863560285
5772.0157520129
5752.3829853293
5732.687642573
5715.0026502312
5695.5083014281
5675.7601797355
5655.8001161341
5635.524270509
5615.0028972205
5594.5008700876
5574.1187527451
5549.7030425371
5532.4561890284
5517.4156203322
5504.9915932169
5495.2729894736
5488.5558360934
5485.6397766101
5485.917989448
5488.7977539654
5494.863548684
5503.9662479328
5516.0346147525
5531.727169397
5550.9641140196
5571.5971391263
5592.6240329339
5616.4566360181
5640.3171333404
5664.8376725015
5690.1651022536
5714.939218332
5738.2915860019
5759.9514901331
5780.0704032179
5798.7140527859
5815.9516254758
5831.9618299119
5847.4347482488
5862.7241718061
5878.6862932693
5894.8170054776
5914.1637322806
5932.880627846
5954.7846325487
6013.3844422103
5997.7527491272
216284.52808933
200781.13536041
189138.0287999
180001.55444725
171092.63385063
161033.63710464
150078.96857773
138239.48645746
125738.04678681
112813.43022326
99813.731605133
87029.407550224
75594.337172497
65098.656986689
55709.978631261
47578.064770922
40605.514946013
34705.882015055
29760.950239474
25625.521597871
22171.517325091
19286.602510969
16865.752130366
14824.841394313
13099.252071584
11633.482613458
10379.378845266
9302.3924865583
8375.2075238366
7567.3831888048
6866.7629793637
6251.6718675868
5712.0286727894
5234.5123264061
4811.7685291115
4435.3168642984
4099.2855551332
3798.0633204691
3527.6033845519
3283.4140357192
3063.1932536839
2863.0098136964
2681.7366618088
2515.8652541824
2365.0930105797
2226.3849900951
2099.687246781
1982.7213196877
1875.2865946707
1775.8824408648
1684.0493775396
1598.8301988198
1519.6733299054
1446.1644051531
1377.6866772136
1313.8258246132
1254.1464263458
1198.3090060611
1145.9826407514
1096.8892717784
1050.7695930046
1007.3972153646
966.56305604435
928.08003922238
891.77702907866
857.4989905397
825.106714515
795.70002759652
1726.0773119028
5173.9375741737
5540.1632465289
5524.4032589787
5501.9505938307
5487.3976245026
5483.1193404238
5489.5465015006
5508.2454388795
5539.5884983691
5582.8789662155
5635.81440564
5693.9703370459
5751.3806716805
5801.8078720365
5839.6756087224
5859.2433875056
5870.2656785839
5871.7448887183
5866.7317217462
5856.9584703114
5843.4735594625
5827.1637915226
5809.061955573
5790.0530815433
5770.7161081437
5751.4573427494
5732.2176591294
5714.6114746525
5695.4151042318
5675.8825133589
5656.1459008131
5636.1109085442
5615.8308530839
5595.5297666263
5575.2931737588
5551.1390037267
5533.94402799
5518.8824646553
5506.3751687132
5496.5804518372
5489.802715672
5486.7164324771
5486.7690683337
5489.4753441542
5495.4044452489
5504.4427830501
5516.3989985054
5532.0046793244
5551.1020729028
5571.5312833197
5592.604897828
5616.371178283
5640.1756780207
5664.8240883207
5690.1680679258
5714.9255638199
5738.3292601448
5760.1061224124
5780.3791378597
5799.2193091355
5816.7043602874
5833.0487369537
5848.8196313214
5864.2272131344
5880.2669647024
5896.422370866
5915.6883991006
5934.4523744084
5955.9358140017
6012.2650210989
5997.1898685284
209761.29096701
191483.68315094
180910.71876613
170409.00362679
161250.74296918
151445.73484805
140737.72284767
129452.95608226
117825.48251448
105655.0447676
94377.078044896
83148.671136739
72551.318317202
62831.019550279
54079.189029005
46376.250249485
39725.763036339
34077.195702139
29308.552490996
25287.323784598
21915.842617723
19093.710110069
16716.762762958
14709.244468135
13009.74863722
11561.985682612
10322.592989155
9256.815728734
8337.1001415892
7538.3672248869
6840.7479116616
6231.1726842383
5693.4869351003
5219.8526985759
4798.6021737788
4424.6147663358
4089.6260296951
3790.2778905846
3520.3495161204
3277.7177998963
3057.7163534803
2858.8036539743
2677.5198372329
2512.6746474132
2361.8378346371
2223.8014734932
2097.1213317617
1980.5306372319
1873.2663584087
1774.0211928628
1682.396918107
1597.3344681447
1518.4034011876
1444.9362687398
1376.5375956198
1312.7485861741
1253.1525779384
1197.3922558066
1145.1360859644
1096.1056940403
1050.046673564
1006.7314351698
965.94787080476
927.50929610972
891.24767322563
857.01000911481
824.65536639041
795.40212020099
1756.4962946232
5183.4170424037
5540.330524846
5524.6631147207
5502.5046711784
5488.1719870187
5484.0781722906
5490.6341766641
5509.3827544694
5540.697117588
5583.8758978771
5636.6176634771
5694.5230675327
5751.6731321441
5801.8592795233
5839.4791884283
5859.0451027159
5869.7799844598
5871.0934050032
5866.0103662641
5856.1842405388
5842.6816881995
5826.4057189841
5808.3616421395
5789.4154858076
5770.1597489681
5750.9888879201
5732.1151059256
5714.3099230304
5695.3690397139
5676.1085028996
5656.600761664
5636.7952920081
5616.7666866385
5596.6942400228
5576.6765414181
5553.0336223928
5535.9068857999
5520.842323246
5508.2639318133
5498.4680231517
5491.6717107746
5488.1319063015
5487.7735339788
5490.2581714807
5495.8459702441
5504.5684880232
5516.3099559654
5531.7406564174
5550.4881321426
5570.4838772714
5591.4774202077
5615.0491201238
5638.8341982267
5663.5009110404
5688.6447640478
5713.1715562028
5736.5952528916
5758.5208175277
5779.012062688
5798.1232590068
5815.9351490948
5832.635779811
5848.7205351295
5864.4344516911
5880.6447257725
5897.3813181609
5916.2301849182
5934.8171210648
5958.087495643
6009.9975563063
5995.2491788928
197525.74640528
176228.93384118
166006.90707276
155603.05822553
145799.81504322
136503.73208009
126733.90415572
116903.37683297
106892.99844662
96658.993400656
87410.525163684
77855.52626278
68547.546808443
59840.963614681
51842.145465712
44746.987353245
38550.343867002
33208.694461222
28661.466204266
24819.550295725
21571.920019778
18822.671536379
16509.755676232
14552.124023775
12884.656913962
11461.472056174
10243.212119293
9193.3452824781
8284.025069299
7495.2911421868
6805.5818831052
6200.8721570645
5668.6920036771
5198.2565221255
4780.8374655678
4408.9560667795
4076.761066464
3778.7326047886
3510.847778001
3269.2201879873
3050.5773480137
2852.3966647355
2672.0479786723
2507.8260071371
2357.4856526179
2220.0263041329
2093.6365734891
1977.5575109305
1870.4251845077
1771.5698273763
1680.0881979934
1595.2853896419
1516.5505198034
1443.2462380908
1374.9813802784
1311.2910325408
1251.8000866152
1196.1352361864
1143.9774783153
1095.0407433934
1049.0670304735
1005.8254774137
965.10854184728
926.73303509565
890.53127517143
856.34879933005
824.04162496873
795.01624444675
1804.2382206584
5194.7822567454
5540.4958534266
5525.0639689563
5503.3075771719
5489.2976197102
5485.4657439743
5492.1950888894
5511.0164607264
5542.2885540802
5585.3045359113
5637.76606047
5695.3095394255
5752.0771711351
5801.9214614194
5839.2805552308
5858.771909792
5869.3512207688
5870.5508381149
5865.3647354726
5855.4299752559
5841.8578416744
5825.5260467853
5807.4477832389
5788.5103885378
5769.3178102132
5750.2592602721
5731.5881817325
5713.8002224028
5695.2236210384
5676.3950962814
5657.3042527434
5637.9157170371
5618.3097082179
5598.6361496858
5579.039997969
5555.8441383427
5538.9101456108
5523.8970425341
5511.2488143716
5501.3320200746
5494.3711762303
5490.522952544
5489.7020968247
5491.7719306774
5496.8416926598
5505.1167311584
5516.4925511682
5531.5997518371
5549.805856193
5569.3022480902
5590.2406904301
5613.3996018748
5636.9533664658
5661.5845800704
5686.6053817161
5711.108899812
5734.6324279743
5756.8013789613
5777.6243530879
5797.171807957
5815.5172966772
5832.7545811844
5849.3567781353
5865.5124838667
5882.1003809788
5898.9848508456
5917.9150661083
5936.653781967
5959.8777119615
6011.9369706536
5996.7057504352
171065.47336151
151330.58168707
139997.42332082
131104.24946892
123361.54204053
116000.8317126
109144.0661108
102087.38357143
94917.298666232
87549.931397687
79712.722822217
71703.042541354
63803.440579607
56244.095691527
49201.709682572
42782.659441727
37094.567072253
32142.013006875
27872.077273053
24221.746499645
21120.218734497
18492.10937729
16249.063584292
14345.574695369
12724.199607816
11336.04717043
10140.626567152
9110.2868981903
8217.2199572307
7439.450962267
6759.71382132
6162.5647705943
5636.5842186536
5170.7894904456
4757.7469080896
4389.1901255865
4059.8479900871
3764.2020811835
3498.4587582883
3258.3348035588
3041.2938461818
2844.1820548101
2665.0089537147
2501.4509779443
2351.9970442268
2215.0399434518
2089.2551451594
1973.5732642361
1866.8473871097
1768.3723244199
1677.146974296
1592.6279450835
1514.0975500996
1441.0568036052
1372.9748071557
1309.4314360008
1250.0679981175
1194.5257306546
1142.4947256312
1093.6764113651
1047.8088987004
1004.6618498448
964.0337860696
925.74058255485
889.6125743375
855.49658880596
823.25386765037
794.51932100668
1868.5592011698
5209.7586552006
5540.8111933819
5525.6546492952
5504.369709359
5490.7733123592
5487.2689034789
5494.2133369999
5513.1201166744
5544.3301699813
5587.130247653
5639.2284118109
5696.3083364354
5752.5907640061
5801.9910044027
5839.033413926
5858.418347163
5868.8288566005
5869.8248816534
5864.4393194453
5854.3340515687
5840.6570258836
5824.2720850469
5806.1797628351
5787.2729558969
5768.1686742949
5749.2696747904
5730.8393138105
5713.1538554467
5695.0091712765
5676.685184477
5658.1054939287
5639.2338332156
5620.1481163799
5600.979647469
5581.9240802464
5559.2463185308
5542.6320613176
5527.7446995655
5515.0589382142
5504.979728021
5497.7469691354
5493.517654768
5492.1660619157
5493.6358492877
5498.0141274155
5505.7116281231
5516.6748473519
5531.3548836031
5548.7986186823
5567.7148766368
5588.5132565305
5611.2372912814
5634.5790900839
5659.0735359451
5683.9237884896
5708.3709227178
5731.9804459828
5754.4232977453
5775.6650598762
5795.7791118873
5814.8420964593
5832.7296905284
5849.8693879109
5866.5084923917
5883.5070141019
5900.5774790649
5919.5699505925
5938.0277202792
5961.1865107101
6012.87572829
5997.6691535109
103572.9253215
99972.298885541
98722.78226562
98592.291294063
97279.331838239
94910.492473253
91651.191866654
87823.639983406
82969.209182297
77571.886888681
71522.912016761
65185.17092675
58708.743756042
52310.125934578
46214.370995712
40559.623976195
35441.580347622
30903.58214496
26944.849715218
23525.941997603
20590.742493024
18079.4496728
15940.109653861
14102.869066559
12530.344414862
11180.828845821
10019.01811693
9010.3129186947
8134.7664909688
7371.8701228914
6703.9671104902
6115.7218914393
5597.1388185056
5137.9282997535
4729.3659525388
4365.1267234584
4039.2633966829
3746.696694914
3483.1033731011
3245.2066666719
3029.8516550643
2834.2387382257
2656.2253343705
2493.7403559745
2345.2162910613
2208.9551100342
2083.8585244154
1968.6857689528
1862.522182585
1764.4129444231
1673.5679650121
1589.3607486251
1511.117696244
1438.3493531336
1370.4906737086
1307.1554676503
1247.9630646391
1192.5827543366
1140.6958193099
1092.0082019644
1046.2687107061
1003.2464137003
962.73100894314
924.53298717689
888.48848774385
854.4504732216
822.28747917535
793.9285479671
1949.6071756636
5229.3589418037
5541.3514238288
5526.4863431213
5505.711836706
5492.6054067573
5489.4878744133
5496.6863342514
5515.6864237444
5546.8098720406
5589.3359089506
5640.9819451672
5697.4886614644
5753.1710475955
5802.0323977796
5838.6728520075
5857.9268101257
5868.0923991925
5868.8478723626
5863.2357667925
5852.9332896436
5839.1296044483
5822.6753435841
5804.5576788124
5785.6850111625
5766.6901486339
5747.9820581843
5729.8212421352
5712.3474278062
5694.688018941
5676.9437471065
5658.97194446
5640.7229132921
5622.261246381
5603.699429114
5585.3219592119
5563.1822827963
5546.9844156209
5532.2965019951
5519.5977958976
5509.3274206389
5501.7491746982
5497.0443183073
5495.170524137
5495.9313708193
5499.5455025458
5506.5902004491
5517.0366102582
5531.112452778
5547.736536693
5566.0259273196
5586.5553949323
5608.7766567283
5631.8877432395
5656.2042722166
5680.9232405251
5705.4127096017
5729.2357226229
5752.0661988238
5773.8221016362
5794.5303831189
5814.258275465
5832.9422454017
5850.7945717257
5868.0611746522
5885.5717119683
5902.7515491952
5921.8567665105
5939.9168470384
5963.1371394162
6014.5787388154
5999.0568383634
10106.062113578
46061.459017689
60028.664327123
68517.236295383
73751.722547173
76077.197341964
76056.96027439
74609.007785243
72069.068451938
68639.133884761
64527.075477916
59841.465361095
54780.007975293
49541.876237842
44338.538049911
39358.434775106
34721.240427647
30516.151608679
26774.782506044
23492.565204362
20640.218808582
18177.884827948
16056.947924362
14238.339647193
12667.941025194
11310.538746185
10140.463075649
9126.3887005149
8243.1230201673
7469.8126612579
6793.5188661052
6199.0308755954
5673.0594256999
5206.8126110953
4792.5848974765
4423.2924054
4092.2261782185
3795.2976054737
3527.8868038043
3286.4470835991
3067.6545670888
2869.1726718518
2688.5065156138
2523.6080948301
2372.7640790069
2234.5062477364
2107.576612847
1990.7076807266
1882.9652022334
1783.4075611692
1691.3009087479
1605.899956913
1526.5496471154
1452.7477422648
1383.9888738666
1319.8426568493
1259.8737588863
1203.7551026328
1151.1898832935
1101.8940366614
1055.6003046626
1012.0623125287
971.07022819296
932.44170849805
896.00547413396
861.59267568122
829.04657649552
797.75817420181
1202.5533254959
4899.7073048699
5533.7249384964
5533.1069045742
5511.7569013409
5497.0362103626
5491.8621663629
5496.6756360459
5512.8037845528
5540.853217669
5580.3940678286
5629.5909145566
5684.7038927806
5740.4515047458
5790.8857465161
5830.4994486407
5857.209023379
5867.1146736413
5867.5870101543
5861.6923091936
5851.1555445236
5837.2050798859
5820.6832527374
5802.5556576192
5783.7420584757
5764.8873237407
5746.4073020267
5728.5565152353
5711.3814119439
5694.2387336628
5677.1214416514
5659.8333282797
5642.2691983982
5624.4993821198
5606.5868481683
5588.8559218426
5569.7499420323
5554.1088082256
5539.8125074561
5527.2021342339
5516.7040275394
5508.595051443
5503.0856152049
5500.3971169489
5499.9109846516
5502.3010478593
5508.0983448657
5517.5865448343
5530.7310316986
5546.0513241008
5563.3831870324
5583.2371789494
5604.6372966984
5627.3907143154
5651.4041879294
5675.9743683071
5700.6126835132
5724.8620778381
5748.3998006097
5771.0945637006
5792.897149852
5813.5821811594
5833.158513333
5852.0521697733
5870.2820583318
5888.5831495276
5905.8570442797
5925.0840390226
5942.5798973091
5965.683005909
6016.6365691008
6001.1974848319
7948.8130536543
14676.694352643
25087.985087867
33701.026437052
40447.702517782
45375.088758397
48639.551975101
50589.672540641
50758.022625932
50031.777918127
48513.222204385
46228.501973879
43385.584691845
40142.227820303
36679.811070554
33176.516078808
29772.468468408
26565.847174159
23625.356995103
20978.659792667
18626.569612743
16556.244772988
14743.298732251
13160.274444583
11781.662660869
10582.615703983
9534.4350773278
8614.5064860464
7810.1448366893
7103.640720379
6481.2832263411
5929.2994206455
5440.1388138336
5005.1771661302
4617.0699039728
4268.8115324045
3956.4656259548
3675.3481758001
3421.6781012305
3191.7289412113
2983.1062143359
2793.3530130167
2620.3494341087
2462.0778947401
2317.0501237011
2183.9863324535
2061.5824164493
1948.7593010086
1844.5250010053
1748.16927544
1658.8823811201
1576.0146850728
1498.9449393445
1427.1774975041
1360.2843687257
1297.8212316355
1239.4147388954
1184.7078506717
1133.4212005212
1085.287127632
1040.0566410639
997.50578466172
957.42790830925
919.64044778015
883.96954852864
850.25735400529
818.34402878251
792.57277679764
2304.6073329442
5307.0191702015
5544.8290138764
5530.2110237473
5511.3627127569
5500.1821364072
5498.5326655098
5506.672916958
5525.9454083091
5556.6145042196
5597.9325100141
5647.6659886094
5701.7809901738
5754.9513833854
5801.5435106571
5836.458463151
5854.9812169657
5864.2552903879
5864.0564766297
5857.4688042551
5846.3957345902
5832.1270307717
5815.4949757465
5797.4035266038
5778.7866642141
5760.306945157
5742.3845262335
5725.2597683304
5708.8850205535
5692.8495322423
5677.0795962336
5661.2792369744
5645.2304797983
5628.9654254146
5612.5411110959
5596.2214868274
5578.4889218407
5563.7518769509
5550.137103845
5537.8457529521
5527.2375095369
5518.5994865811
5512.1204131633
5508.3411320858
5506.4560162236
5507.3095302659
5511.3689615082
5519.4371011937
5530.9011854609
5544.212312779
5560.3006267795
5579.1220503323
5599.4577356962
5621.6775887066
5645.2773747934
5669.6895717589
5694.6473999495
5719.6330030949
5744.2342036576
5768.3356836819
5791.6731734609
5814.1191817315
5835.3568545934
5855.675396981
5874.9422261493
5893.8405290418
5910.8858144191
5929.8072980891
5946.5110686146
5969.3723605995
6018.7044430691
6005.8228753107
7689.4434142355
8436.3331680422
12979.80429637
18442.266413536
23496.729739698
27789.614168343
31256.732825311
33850.921406558
35667.349473582
36540.133061589
36531.617131131
35804.627656338
34559.773057869
32799.79436142
30667.99134165
28324.742929186
25902.025574414
23504.19338337
21211.765333901
19076.52593587
17126.034421893
15368.235689732
13798.978362196
12406.502273881
11174.888111756
10088.698697562
9130.9595476725
8286.0811867441
7540.4127879994
6879.0430573187
6292.127873041
5771.1288419099
5306.8251298159
4892.54914839
4520.3695042069
4186.0993554718
3885.3533228596
3614.0540084988
3368.2550225257
3145.0967183592
2942.3696322644
2757.5978305305
2588.7732469957
2434.0117134923
2292.1758917411
2161.8034232352
2041.7892121838
1930.9568286983
1828.5252540804
1733.7303877047
1645.8251966101
1564.1562970676
1488.1333127457
1417.338992462
1351.2922479911
1289.5917628923
1231.8566196693
1177.7640464398
1127.0434662669
1079.4141355372
1034.634518118
992.48762240136
952.77859955234
915.33497628514
879.98193003443
846.56302794139
814.93599315675
792.62324521899
2630.2248178987
5361.1935936421
5547.4309198142
5533.2911102693
5516.342386211
5506.8287237259
5506.3574843171
5515.2103172098
5534.6003699342
5564.7517844458
5604.8992580796
5652.8658729173
5704.8070209929
5755.6879463494
5800.22154065
5833.5478608802
5851.399704334
5859.9245950398
5858.9601707119
5851.5624817363
5839.9042696637
5825.3268269128
5808.6571571722
5790.7212559081
5772.4327315444
5754.4629454726
5737.2171375157
5720.9219610871
5705.5201678748
5690.6442921235
5676.2538369985
5661.9144080596
5647.4502908467
5632.7286977325
5617.8390768282
5603.0440895086
5586.5818186686
5572.7933441574
5559.9871013077
5548.1675051184
5537.6300046441
5528.656362565
5521.4031017382
5516.6350475273
5513.570948221
5513.1814307347
5515.5583650133
5522.1245844926
5531.7708182416
5543.3088773399
5558.2143034862
5575.7392482295
5595.1618170222
5616.8865569308
5640.210568603
5664.6979090828
5690.2526668191
5716.2288552577
5741.9859058065
5767.4524472311
5792.266288458
5816.0053173717
5838.4349026115
5859.8127617889
5879.4416477514
5898.1396199363
5914.3415879948
5932.1776343303
5947.9024031284
5969.7257882801
6019.9353456877
6016.2740174414
7008.1422460058
6995.2072583409
8444.2871601764
11606.890011004
15086.716897656
18364.533835097
21274.058648866
23717.949499844
25667.669415209
27046.042946354
27787.783496121
27846.327908251
27403.898664274
26601.930546258
25409.781697307
23930.723023428
22285.90861162
20558.793615962
18829.040849401
17157.139502819
15582.795519091
14126.811088661
12797.549273976
11596.013431388
10516.409067412
9550.2275236012
8688.4111758993
7920.3097113737
7235.4804094292
6624.6685896807
6079.5148088701
5592.0793958135
5154.7056660801
4761.7843965704
4408.6572421751
4090.5030766792
3803.176733618
3542.2734864181
3305.5709220095
3090.52502343
2894.5220354587
2715.5165868334
2551.3223328395
2400.8987504682
2262.7128763171
2135.5755361015
2018.2363260434
1909.7922596635
1809.5214601702
1716.5698822893
1630.3009703311
1550.021304405
1475.2910100693
1405.6449021293
1340.625941795
1279.834355967
1222.8981557277
1169.5303742599
1119.4627717078
1072.4319783458
1028.1965005885
986.53399747371
947.26006225337
910.21258048915
875.22476649081
842.13593683775
810.81178216378
793.56794733578
3053.4628220556
5414.310697303
5550.8918024662
5536.9558948897
5522.2416169701
5514.6008320757
5515.3656682047
5524.9206371324
5544.3106800572
5573.7165523554
5612.3606517277
5658.1397707324
5707.4320769685
5755.5584904614
5797.6054950727
5829.023778999
5846.0934657072
5853.8284501042
5852.0704376093
5843.8622740469
5831.6337527728
5816.8035788345
5800.1997082826
5782.5667371354
5764.7606487919
5747.4276166882
5730.9562433672
5715.5522976636
5701.1773208078
5687.5124578584
5674.4091160849
5661.4989607918
5648.4352924136
5635.2155579313
5621.7907794733
5608.3767839089
5593.1281725876
5580.2294422193
5568.2922974708
5557.0764769517
5546.8097871162
5537.8019602484
5530.1396312276
5524.6801162413
5520.6923402561
5519.2378965998
5520.2609407418
5525.31577959
5533.3007077031
5543.3238182274
5557.145761665
5573.5100878058
5592.2313607598
5613.5994851113
5636.8295835617
5661.589195848
5687.7853341332
5714.7028844325
5741.6289699446
5767.9088902002
5793.1675421064
5817.0804844687
5839.7485411232
5861.4852579492
5881.3576537227
5900.5077721716
5916.672108997
5933.5329310832
5948.4479200799
5970.9688997807
6014.176018585
6030.0374527544
6365.6984763208
6365.5856008162
6593.780771666
8179.5730503302
10491.286305415
12892.530803631
15181.903580844
17247.366217831
18994.210628981
20336.137577362
21337.928032422
21842.262569395
21921.117230225
21659.59171461
21065.246541455
20188.318444936
19095.350207306
17879.27901138
16605.118153756
15323.332400963
14077.58485787
12892.639616574
11785.288284461
10764.112289613
9831.4144397148
8984.6077129589
8219.1180938157
7529.2816156168
6908.3613887152
6349.651417114
5846.8867359879
5394.200614424
4986.2225752896
4618.106573084
4285.1939073656
3983.4078489768
3709.8688268705
3461.3687922407
3235.1780449534
3028.9587597271
2840.0517989334
2667.1270834144
2508.6495637204
2363.0262748784
2229.1044310437
2105.3937375565
1991.167183694
1885.5616626155
1787.6855051859
1696.8856036237
1612.3836747315
1533.7667393172
1460.5324216459
1392.2043367496
1328.3551641165
1268.5697789003
1212.5721201508
1160.0593976765
1110.7438497734
1064.389817265
1020.7527204541
979.64202250245
940.88402014525
904.28993667018
869.70980752319
836.99632609033
805.93307717277
811.44390808132
3568.5049190035
5465.1264349962
5555.1572088751
5541.5367579994
5529.0604342337
5523.3482657671
5525.2937437911
5535.4406303592
5554.6391991117
5583.0208447079
5619.7917828051
5662.9538288207
5709.1557954123
5754.1096283609
5793.3051465793
5822.5600700439
5838.7009988685
5845.7696641838
5843.2815916171
5834.3997649024
5821.670250127
5806.6743256811
5790.2474211568
5773.0726289245
5755.8939407251
5739.3118212023
5723.6906075252
5709.2090549381
5695.8458441696
5683.357468594
5671.4375688669
5659.8450334345
5648.1204023556
5636.1381697258
5624.0365117843
5611.8849426799
5597.6966606121
5585.658803952
5574.5736559768
5564.070916544
5554.2532342485
5545.4419838191
5537.644598761
5531.7679560321
5527.1150512806
5524.7803607054
5524.8922892444
5528.5599787389
5535.2618180276
5544.0300109171
5556.8043093325
5572.3632465668
5590.6791250708
5611.9411647047
5635.2307364818
5660.4647320248
5686.7566767361
5713.5693435241
5740.5849081529
5767.301931899
5793.2254216264
5817.7482223479
5840.6490813094
5861.9330257121
5879.9883118886
5898.3260074776
5915.0390478198
5932.4582075668
5948.563375305
5972.9839821931
6008.1848513089
6042.0754744355
5844.686847689
5822.5806790026
5782.7577032143
6372.6358020719
7807.5784412901
9540.6860584153
11301.451124196
12970.642279522
14454.488354829
15753.200440566
16713.139234115
17423.811346484
17705.465754991
17697.652702953
17490.50423941
17013.700148825
16327.380625931
15502.818165757
14584.929448708
13621.652284673
12651.160935211
11702.016186526
10793.638378176
9938.2757212101
9142.5205422446
8408.8313433881
7736.2974275932
7122.8882943599
6565.3345603882
6059.1701822442
5599.9031465189
5183.2783081634
4805.3522928046
4462.3180350291
4150.5435085944
3866.9455520998
3608.7098451519
3372.9949132868
3157.3569550157
2960.1661341277
2779.5106867318
2613.7494036529
2461.4153416358
2320.8630540135
2191.2412192924
2071.6367473892
1960.9814033556
1858.5010454857
1763.2384788612
1674.6331193533
1592.2789029687
1515.5342604322
1443.9701645621
1377.076477109
1314.4669544463
1255.8840610705
1200.9484002603
1149.3887424702
1100.9251064328
1055.3077423331
1012.3607178263
971.88205617173
933.68031167721
897.60409747431
863.4867390246
831.18433352126
800.6046162742
856.41125406732
4092.5316644745
5504.5429454201
5559.5940520321
5546.9315333925
5536.6617067196
5532.8187074785
5535.8038714742