/*--------------------------------*- C++ -*----------------------------------*\
| =========                 |                                                 |
| \\      /  F ield         | OpenFOAM: The Open Source CFD Toolbox           |
|  \\    /   O peration     | Version:  2312                                  |
|   \\  /    A nd           | Website:  www.openfoam.com                      |
|    \\/     M anipulation  |                                                 |
\*---------------------------------------------------------------------------*/
FoamFile
{
    version     2.0;
    format      ascii;
    arch        "LSB;label=32;scalar=64";
    class       volScalarField;
    location    "0.00012";
    object      rho;
}
// * * * * * * * * * * * * * * * * * * * * * * * * * * * * * * * * * * * * * //

dimensions      [1 -3 0 0 0 0 0];

internalField   nonuniform List<scalar> 
109340
(
662.48298827105
662.47793958921
662.46833517621
662.45671835285
662.44389216869
662.43052812552
662.41688597915
662.40309636559
662.38930555535
662.37518113306
662.3600830511
662.34340018643
662.32440087613
662.30219635461
662.27572660855
662.24373738893
662.2047335771
662.15692261786
662.09813003455
662.02568806125
661.93627375907
661.82571640378
661.68872618872
661.51852711432
661.30633266431
661.04061282564
660.70600862543
660.28168625335
659.73872904574
659.03581048139
658.11162938837
656.87083071806
655.15604807981
652.68916746065
648.94133783748
642.82905687827
662.48374521019
662.47726433705
662.46648830619
662.45408951674
662.440893849
662.42748436828
662.41402935527
662.40051704999
662.38674692728
662.37238780289
662.35693022527
662.33974254542
662.32005133317
662.2969235928
662.26925069043
662.23571626178
662.19476127315
662.14450804969
662.082671225
662.00643627147
661.91229222188
661.79582021501
661.65140197842
661.47182089421
661.24769305321
660.96666140131
660.61219919596
660.16177390407
659.58390577385
658.83322546688
657.84167995415
656.50178318995
654.63208170077
651.90126443498
647.64080077594
640.40366865721
662.48656477001
662.47906355173
662.4672011518
662.45450785584
662.4414219573
662.42820119045
662.41481497658
662.4012612335
662.38744285415
662.37304370922
662.35756886086
662.34038332601
662.32070918566
662.2976111705
662.26998082742
662.23650687583
662.19562954716
662.14547349595
662.08375428354
662.00765948207
661.91367738886
661.79738916124
661.65317655302
661.47382091987
661.24993608359
660.96916011614
660.614959881
660.16479628861
659.58718576393
658.8367497476
657.8453950301
656.50536936534
654.63323107706
651.88680288982
647.54375904793
639.85771859509
662.49049029376
662.48144896445
662.46898753172
662.45593621714
662.44259695899
662.42909979346
662.41548837983
662.40177881787
662.3878561507
662.37339952632
662.3579150457
662.3407623852
662.32115607682
662.29815470879
662.2706426636
662.23730118076
662.19656440978
662.14654987552
662.08496097286
662.00897403003
661.91504960739
661.79873760024
661.65437352044
661.47466991553
661.25014782204
660.9683082027
660.61242434699
660.15968044015
659.57819360275
658.82198876627
657.82202651603
656.46890204572
654.57439112418
651.77827891756
647.27085305402
638.74746556785
662.49668302027
662.48492860528
662.47064593404
662.45670314617
662.44300094196
662.42937128898
662.4157174857
662.40202342464
662.38814449636
662.37374805804
662.35834678277
662.34129702286
662.32180023561
662.29889468809
662.27143451289
662.23805730651
662.19713782401
662.146712795
662.08432973653
662.00703410914
661.9110300199
661.79154689905
661.64247437995
661.45589429342
661.22146712052
660.92547978915
660.54950774409
660.06833659539
659.44665062401
658.6334538665
657.55201469498
656.08124446632
654.01056210855
650.92912435859
645.85279946368
635.32412553556
662.50823426969
662.48673675043
662.47096509294
662.45669690297
662.44294583169
662.42931519745
662.41566838401
662.40192899655
662.38786983225
662.37302272376
662.35671256854
662.33804671468
662.31590957416
662.28894121313
662.25550053488
662.21361008094
662.16087783611
662.09442082787
662.01079465657
661.90507579044
661.77133224834
661.60190437381
661.3868483213
661.11317001138
660.76375757177
660.31584802985
659.73879918397
658.99069764129
658.01296671963
656.72129034258
654.98893612359
652.61877992175
649.26563481911
644.25634773816
635.93361112627
617.33199208354
632.31377633504
614.69066444113
587.6457074699
550.92384844162
506.17821765994
455.17550060124
400.09217259903
343.34738897838
287.55999452491
235.28624057863
187.47920935484
148.22661001655
115.65228974478
89.716369119674
69.720791592224
54.389387619665
42.762737733065
33.925815814382
27.177112826791
22.01862232987
18.046597307295
14.941421544655
12.493624327723
10.552218673989
8.9946948450056
7.721633302902
6.6732003500036
5.8384023832975
5.1069395364601
4.5114129619927
4.0072580532605
3.5674189554832
3.2071249106667
2.8787058681003
2.6113689453538
2.3622989541258
2.1587650829778
1.9668760250561
1.8083401563501
1.6587605028122
1.5327222540775
1.4152670440718
1.3127141128343
1.2200435010622
1.1347649434277
1.060309943389
0.98933520761773
0.92829259451136
0.86965209853203
0.81829639194896
0.7701583296353
0.7259583918111
0.68544213976488
0.64807939257905
0.61357314921221
0.58162877555077
0.55200023362706
0.52447215401075
0.49886007422319
0.47499555467199
0.45272361893376
0.43190667548031
0.41242657647449
0.39417799685509
0.37706295565867
0.36098962637504
0.34587513570036
0.33146347051377
0.43500504107965
1.8530732936535
2.1328620350645
2.1055315013745
2.068954125813
2.0373368520235
2.011010490904
1.9893039143964
1.9718066566758
1.9577939566677
1.9460619373421
1.934750826576
1.9212525396585
1.9029614232177
1.8789617525924
1.8516762170818
1.8227988341587
1.8042234895296
1.791926407804
1.7839785269841
1.7780978173646
1.7728451860881
1.7675237810992
1.7619526865754
1.756176694725
1.7502930054863
1.7444132837832
1.7384763377263
1.7331155730542
1.7271859779215
1.7211610964137
1.7150640905956
1.708870908339
1.7026087582131
1.6963622424685
1.6901675697738
1.6827823595054
1.6775923535641
1.6730924507892
1.6694061776727
1.6665548114927
1.6646339289521
1.6638866917018
1.6641224708269
1.6651614700758
1.6671794274637
1.6701279789852
1.6739849507445
1.6789469752151
1.6849812558061
1.6914355942741
1.6980172381873
1.7054467246067
1.7128788397571
1.7205064322168
1.7283703426394
1.7360572041012
1.7433067818738
1.7500399176134
1.7563021496515
1.7621126860995
1.7674924170223
1.7724950028254
1.7773288761652
1.7821008262672
1.7870725734288
1.7920904142579
1.7980228509788
1.8034466206542
1.8083147706338
1.8160893665126
1.7597095765427
627.20045731962
604.64213069953
571.17742618648
528.367523792
478.67102594069
424.1048356918
367.61980566297
311.78004975194
258.96520390072
210.94042561428
168.81745914146
133.05131461696
104.52549594151
81.777231875963
63.950274365354
50.238917139385
39.725215325902
31.682519272724
25.522893353493
20.774424448527
17.087085839074
14.201046645058
11.917584774753
10.092181919604
8.6207374203695
7.4235517318967
6.4390163406911
5.6235583090445
4.9438128166899
4.3697601680498
3.885246123014
3.4708155280675
3.1158532127487
2.8086457382291
2.5423624147505
2.3097144524879
2.1059037274606
1.9262228551574
1.7675367839126
1.6263794937361
1.5009134150515
1.3883928492035
1.2877926836986
1.1968846607203
1.1151692919829
1.0408635212196
0.97365978151572
0.91228402433684
0.85641223653203
0.80522296345554
0.75833360825018
0.71520631683234
0.67547190105364
0.63885959652113
0.60501228137977
0.5736769349986
0.54460135784794
0.51758343427505
0.49243238244813
0.4689863595272
0.44709719025442
0.42663533891126
0.40748283848664
0.38953454433921
0.37269520717287
0.35687907822844
0.342009452281
0.32851565009783
0.69203930099129
2.0205893341042
2.1303791343888
2.0949405544651
2.0596808735762
2.0294932789184
2.004417794066
1.9837285706997
1.9670907847667
1.9536711188726
1.9421393724556
1.9304531610332
1.915905499428
1.8961299317519
1.8709465166473
1.8435473657246
1.8212726417343
1.8025434068524
1.790333257706
1.7825400837538
1.7768681904658
1.7718370579382
1.7667123178559
1.7613071258411
1.7556778671708
1.7499295630193
1.7441669502095
1.7383713732639
1.7330368397897
1.7271985467512
1.721239578797
1.7152095506018
1.7090877317363
1.7028961351785
1.6967073967717
1.6905536941096
1.6832429663961
1.6780645105731
1.6735548807645
1.6698410647897
1.6669659849814
1.6650258213117
1.6642266552901
1.6643945574648
1.6653822471327
1.6673608449936
1.6702922168716
1.674117965961
1.6790565420922
1.6850517086948
1.6914489428963
1.6980492715772
1.7054624243939
1.7128819722339
1.7205525128382
1.7284251912945
1.7361104978632
1.7433788822963
1.7501498935578
1.7564605102798
1.7623319416207
1.767787491964
1.7728916481406
1.7778163077342
1.7826245958783
1.7876197083627
1.7926449265555
1.7985515509321
1.8039929467639
1.8087359752303
1.8157745096494
1.759073451785
624.40813395827
595.96578099181
555.18905043421
504.07688162234
448.82995084451
391.7729108409
335.58411684012
282.54530160252
234.19706770874
190.81856703297
154.34731045386
123.32979192109
97.81879772753
77.307067025869
61.047093153213
48.323242864291
38.458844784316
30.851789440203
24.970587651307
20.393776447811
16.819735273938
14.01167252306
11.779872072722
9.9908371082855
8.5456388001484
7.366235802803
6.3953248157674
5.5896457953715
4.9166700031775
4.3494583623237
3.8678289739949
3.4574279604956
3.1041281384402
2.7996053969582
2.5344251331591
2.3034409469336
2.1003363401144
1.9218498300391
1.7635281600515
1.6232978770838
1.4980023784527
1.3861880287914
1.2856311304866
1.1952549581018
1.1135509012927
1.0395748568877
0.97241876442838
0.9112195643326
0.85545980079995
0.80434680777307
0.75756934260983
0.71451725364833
0.67489219278632
0.63830533062972
0.60449762398833
0.57319873829706
0.54416322171383
0.51718210882364
0.4920640938266
0.46864754649791
0.44678633297226
0.42635055806133
0.40722099564002
0.38929276305819
0.37247195325431
0.35667369299882
0.34182060340902
0.32838953045558
0.70398494833047
2.0240540041068
2.1302439164341
2.0948664940209
2.059732481828
2.0296365670876
2.0046404245635
1.984015750716
1.9674235967225
1.9540357258071
1.9425264318855
1.9308609368796
1.91634415326
1.8966125606768
1.8714545819261
1.8439973152275
1.8216068791272
1.8026771704212
1.7903125303525
1.782425353962
1.776696333294
1.7716418409046
1.7665245244986
1.7611422240415
1.7555407451003
1.749826163498
1.7440987741868
1.7384209531007
1.7330319908771
1.7272734881654
1.7213980642177
1.7154359646401
1.7093799918932
1.7032590774365
1.6971329100079
1.6910386897248
1.6838722452423
1.6787063705087
1.6741885719899
1.6704480911148
1.6675707770411
1.6656224627702
1.6646836390627
1.6647297146817
1.6656530902243
1.6675324893461
1.6703733234258
1.6741401496018
1.6790324314215
1.68492927427
1.6912047565585
1.6977901894047
1.7051529154115
1.7125755431454
1.7202606382622
1.7280803096734
1.73570321327
1.7429840878546
1.7498050447473
1.7561852977966
1.7621409009508
1.7676965563626
1.7729087458601
1.7779282548979
1.7828281504636
1.7878732497951
1.7930739210875
1.7988507630654
1.8042446865082
1.8095338295966
1.8151266011554
1.7574666889199
618.1697607307
576.30590050984
520.57106446181
457.87901047261
396.16654453593
339.18487248319
287.36295097218
241.47170255936
201.07856227578
165.67969460759
136.38274834134
110.90221977192
89.380779013984
71.663205262426
57.273484886815
45.833923508622
36.816300644579
29.742385699726
24.209752263305
19.878162847304
16.4631023308
13.749849887488
11.590327380224
9.8532550703689
8.4413462325165
7.2860462068044
6.3341432592652
5.542315414118
4.8784761462951
4.3193689834568
3.8438239014147
3.4374259904698
3.0880585889444
2.7860098353722
2.5234169242246
2.2939871992845
2.0926638285755
1.915136253264
1.7580538865046
1.6185142885869
1.4940164878439
1.3826923474534
1.2826651401577
1.1926821104888
1.111263488284
1.0376244419179
0.97063948725117
0.9097188485471
0.8540484230935
0.80313816408256
0.75644930300298
0.71353037385249
0.6740108125579
0.63750797014883
0.60377138805469
0.57252543805158
0.54354419741821
0.51661181133783
0.49154250902848
0.46817161281901
0.4463515233048
0.42595117204896
0.40685335500482
0.38895479294127
0.37216179876695
0.3563889422531
0.34155764371432
0.32821999649671
0.72274643267347
2.0281316195457
2.1300158872595
2.0947669349004
2.0598059897774
2.029844577168
2.0049612748613
1.9844254161859
1.9678994400995
1.9545569915824
1.9430793845401
1.9314434008843
1.9169710589382
1.8973011816414
1.8721831838207
1.8446742391551
1.8221205121884
1.8029788513106
1.790421283772
1.7823905691208
1.7765645325607
1.7714603037086
1.766320627138
1.7609355416656
1.7553496230828
1.7496678676148
1.7439875546921
1.7383822013024
1.7330068260862
1.7273632481174
1.7216203003969
1.7157828507772
1.7098482475784
1.7038475410571
1.6978326883692
1.6918557606871
1.6848092103123
1.6796896885564
1.6751769826483
1.6714072632899
1.668488954544
1.6664868019817
1.6654528161744
1.665359743535
1.6661615925853
1.6678900565136
1.6706032255321
1.674268696832
1.6790731174248
1.6848176838647
1.6909565809832
1.6975385992455
1.7047893439634
1.7121550806642
1.7198416799388
1.7276354711566
1.7352615939081
1.7425808944458
1.7494812324816
1.7559650458219
1.7620536877172
1.7677703021107
1.7731431032374
1.7783161492443
1.7833459687307
1.7885016042545
1.7937425803724
1.7995431535846
1.804985752095
1.8102621327897
1.8157683058944
1.7565163619304
597.29577371268
520.44002492669
438.66647490816
369.12415866336
312.73821256791
266.26830147053
227.70481995315
194.47032029722
165.52868334708
140.11383766037
117.3478253715
97.275746324634
79.912224681175
65.189815201373
52.945610540246
42.916433100324
34.84370796872
28.408924163388
23.295005294057
19.234714051409
16.007185490953
13.431859947222
11.354035189162
9.6756344054183
8.3089646349684
7.186332101837
6.2558696517426
5.4810606142985
4.8305831315237
4.2805851482638
3.8127741225105
3.4121090011086
3.0673423930788
2.7686753182081
2.5091355409439
2.2819740604438
2.0825808767637
1.9065974973967
1.750889117916
1.6123112615612
1.4887966225905
1.3781367221796
1.2788052948646
1.189241314615
1.1083266595199
1.0349990909164
0.9683510148164
0.90767112610051
0.85222484118524
0.80152926194671
0.7549846839552
0.712221806324
0.67281621276729
0.63644980093348
0.60281156395614
0.57164440152089
0.54273194111609
0.51586386552843
0.49085908142673
0.46754754068968
0.44578028823308
0.42542665566269
0.40637217016245
0.38851330624994
0.37175567903829
0.35601450346198
0.34121342675514
0.32799631256067
0.74800122773055
2.0335000760981
2.1297540724022
2.094658179692
2.0599034372525
2.0301154620916
2.0053746366562
1.9849506507404
1.9685074514582
1.9552215910462
1.9437838051658
1.9321867541962
1.9177751433209
1.8981910676937
1.8731284268262
1.8455642430043
1.8228141239525
1.8034049342237
1.7905735361637
1.7823299057675
1.7763639980596
1.7711874773356
1.7660227441247
1.7606422109423
1.7550821187851
1.7494460882367
1.7438306573753
1.738313180325
1.7329801950486
1.7274743537502
1.7218869514145
1.7162027383
1.7104188523762
1.7045660968078
1.6986919604845
1.6928650534266
1.6859556968084
1.6809169010962
1.6764280411326
1.6726354174666
1.6696610062159
1.6675714230387
1.6664194693054
1.6661656375506
1.6667909133786
1.6683175905632
1.6708663260032
1.6744192362597
1.6791072575504
1.6846365209673
1.6906180891968
1.6971745130692
1.7043103997479
1.7116283998149
1.7192882872402
1.7270437174221
1.7346637143799
1.7420174667736
1.7490049876169
1.7556161644101
1.7618736322881
1.7678017362106
1.7733659492133
1.7786951042333
1.7838638014358
1.7891344559566
1.7944209970836
1.8002363112129
1.8055918742656
1.8108491563924
1.8161022991301
1.7549996660577
449.00859102764
325.09118096285
272.82715614653
240.94846330063
214.63955292426
191.46480451015
170.31056463603
150.99205696621
132.42201040137
115.06543763869
98.713105390775
83.759339943156
70.294150178511
58.438905726045
48.269700143868
39.720875530866
32.656580187871
26.896593664624
22.242411047432
18.49537080381
15.478564296111
13.04410572942
11.076154109598
9.4677425056881
8.1504062618823
7.0644540308524
6.163329343777
5.4076971042456
4.7720227617229
4.2338765337006
3.7752222470117
3.3813361504343
3.042024892772
2.7479718655872
2.4916490115401
2.2673995975623
2.0703239951046
1.8963197790519
1.7420309317082
1.6048253949157
1.4823655316458
1.3726095441993
1.2739926075568
1.1850586380761
1.104692670001
1.031774387507
0.96552265229013
0.9051388152433
0.85000278701881
0.79952036332281
0.75318470986042
0.71059727859567
0.67134735183504
0.63512779617399
0.60160930947541
0.57055244145888
0.54173126833348
0.51494783325306
0.49001807491255
0.46677384813996
0.4450712008859
0.42477929402115
0.40578016396286
0.38796820105701
0.37125164054784
0.35554840058642
0.3407852430682
0.32772108170631
0.77979161217057
2.0405571119201
2.1294848384609
2.0945559799155
2.0600295645418
2.0304493526652
2.0058789042221
1.9855887716528
1.9692430399818
1.9560228333094
1.9446306660777
1.9330792673767
1.9187412551855
1.8992631867439
1.87427590058
1.8466480587454
1.8236739116732
1.80392405302
1.7907539164452
1.7822475836404
1.7761077604163
1.7708387427745
1.7656390965931
1.7602596979121
1.7547296920601
1.7491500931656
1.7436129115505
1.7381959518858
1.7329417576632
1.7275924740134
1.7221850830998
1.7166840726219
1.7110826521995
1.7054081679917
1.6997030502872
1.6940649787511
1.6872953898116
1.6823625805023
1.677915961697
1.6741042531171
1.6710611716808
1.6688609825621
1.6675612490962
1.6671488652995
1.6675649833426
1.6688689208021
1.6712326411142
1.6746440930477
1.6791652002687
1.6844660200093
1.6902790669176
1.6967737161964
1.7037765985157
1.7110437815057
1.7186659636593
1.7263949525149
1.7340364468431
1.7414591546132
1.7485626375974
1.7553244939627
1.7617533449859
1.7678723970864
1.7736662736571
1.7791961694015
1.7845367210012
1.789941937443
1.7952388101382
1.8010808090666
1.8062987245139
1.8115721389996
1.8165956783438
1.7530462133951
15.286723382003
103.80779927213
127.55252700509
136.51482583274
138.09214662963
134.0423895792
126.28323880908
116.78548522352
106.35225135631
95.464921506464
84.508916026538
73.743499967912
63.498343662556
54.02114682762
45.512344753452
38.089223002086
31.751913032332
26.445069262791
22.059811632517
18.46569748246
15.531552041178
13.139208153081
11.183952889302
9.5846709201059
8.2639502928336
7.168031253019
6.2571351242318
5.4940387647228
4.8500788706547
4.3027083048699
3.8365532904043
3.4368527312392
3.0914989789937
2.7919700261958
2.5311951752337
2.3030776382944
2.1022646340865
1.9251447431802
1.7681580969233
1.6285259194217
1.5037970831271
1.3921463656562
1.2918154812791
1.2013495801542
1.1195550466202
1.0454076530081
0.97804845175549
0.91665408047759
0.86059610885709
0.80927658211976
0.76221378373111
0.71895016552479
0.67908084033919
0.6422913226911
0.60827506111734
0.57677231918678
0.54753088118506
0.52035356671853
0.49506454650667
0.4714986750576
0.44950424449654
0.42894293488338
0.40969629210694
0.39166103584692
0.37474163112327
0.35884644115751
0.34389149793077
0.329605488664
0.48640066722366
1.9195949469571
2.1336951430898
2.1036045685958
2.0682902906349
2.0376914548257
2.012144782036
1.9909788581627
1.9738284642042
1.9600067846606
1.9483687342231
1.9371343126992
1.9238181996497
1.9058910258774
1.8822561649547
1.8548425023278
1.8246777847902
1.8045349978205
1.7909591854687
1.7821297203304
1.7757765367859
1.7703932136898
1.7651524298606
1.7597775680273
1.7542874955379
1.7487773388915
1.7433346718278
1.7380333600808
1.7328879746883
1.7277078306743
1.7224970934148
1.7172034845914
1.7118038613337
1.7063277054951
1.7008026433231
1.6953398070934
1.6895622985638
1.6847614057508
1.6803993624536
1.6765850215798
1.6734504288118
1.6710771871785
1.6695249905129
1.6688652470159
1.6689104067974
1.6698582146446
1.6718667501447
1.6750148594463
1.6792845026447
1.6842237620464
1.6897830784565
1.6961080399625
1.7028952195932
1.7100811430434
1.7176296920551
1.7253236304996
1.7330107213105
1.7405538902117
1.7478630546337
1.7548965637346
1.7616360507992
1.7680167340097
1.7740397297008
1.7798369327095
1.7854156291888
1.7910012709619
1.7962632704161
1.8020993294146
1.8070901503675
1.812313825773
1.8169461488284
1.7490297049228
6.8288182631641
18.243389854184
32.542626956054
44.471633314479
53.507327846933
59.535640600264
62.680779128526
63.490184042785
61.76369060525
58.757894230879
54.77720448495
50.049301624627
44.944259595743
39.726805943151
34.647821650299
29.908692792691
25.632272079762
21.871336638214
18.633482348614
15.886163554599
13.575248489022
11.641866898684
10.026757473084
8.6766403419528
7.5469292613634
6.5997072798551
5.7998593045517
5.1203607423683
4.5432410865718
4.0499768748675
3.626347331715
3.2596490169083
2.9417892081357
2.6649460572468
2.4226944086043
2.2093526145814
2.021264122648
1.8547102786415
1.7067048610582
1.5745096654238
1.4562165276508
1.3500234191012
1.254400830771
1.1679667641813
1.0896602477393
1.018583918275
0.95387424967785
0.89481870818561
0.84077763829577
0.79126976101877
0.74579351194269
0.7039386382058
0.66532786511912
0.629651987697
0.59664621306027
0.5660481374681
0.53763602806136
0.51120370253644
0.48658464961115
0.46362399300094
0.44217938908688
0.42212398587189
0.40334209352988
0.38573162382795
0.3691972089549
0.35365272713866
0.33901408181719
0.32698871442417
0.9188374389199
2.0683597387225
2.1287422052262
2.0941523706377
2.0605167509358
2.0317741366803
2.0078698554451
1.9880964217579
1.9721109024517
1.9591220043792
1.94788217648
1.9364905308179
1.9224360209763
1.9033895253494
1.8787469162746
1.8509300317298
1.8271065456255
1.8060126920382
1.7914346876653
1.7817790373694
1.7748827830974
1.769205822615
1.7638610767084
1.7585029709321
1.7531180136328
1.7477840408604
1.7425734982205
1.7375469286763
1.7326914208558
1.7278829409484
1.7231027987618
1.7182679797397
1.7133206598874
1.7082798193576
1.7031722504813
1.69809163659
1.692704187465
1.6881171619522
1.6839021435347
1.6801300751277
1.6769169838616
1.674352967597
1.6724891927719
1.6714914530484
1.671118379004
1.6716218097571
1.6731377546939
1.6758977556322
1.6797071355733
1.6840916642965
1.6893282005286
1.6953868206067
1.7018882666847
1.7089332713194
1.7163565516072
1.7239886154674
1.731752478942
1.7394827153324
1.7470523843002
1.754422539588
1.7615126127606
1.7682862172815
1.7746499656263
1.7806952494758
1.7863865197735
1.7919363539297
1.7969033038607
1.8024302495971
1.8069953597537
1.812041002431
1.8159960674805
1.742166586596
5.4405385487773
8.0331064865481
12.985445830673
18.982608441352
24.622295010718
29.424654078255
33.164949150692
35.728989594661
37.189033685889
37.394076946792
36.545666644945
34.877027954289
32.649838493971
29.973480986297
27.056852280265
24.095214345095
21.233547265138
18.569726608442
16.162173169096
14.033416835219
12.181193412827
10.58645358501
9.2222474897409
8.059023052497
7.0677800188586
6.223215144264
5.5021314313953
4.8848180593846
4.3549364618476
3.8972744685652
3.5009946585142
3.1570995738669
2.8571398035322
2.594784960394
2.3636261815568
2.1596961519356
1.9792648234998
1.8190568903761
1.6761042709258
1.5481760900665
1.4335122379447
1.3303436186373
1.2372343191143
1.1528906156421
1.0764427660359
1.0069206055521
0.9435703350244
0.88564376005373
0.83260775815655
0.78396360543171
0.73924283310304
0.698040285259
0.65999455686917
0.62483602596478
0.59227805487233
0.56207958227886
0.5340177351923
0.50790205368174
0.48357174179589
0.46086690844505
0.43964970089511
0.4197970194038
0.40119880667333
0.38375785515998
0.36737884730473
0.35197671302698
0.33747470939868
0.32682731914353
1.045947791071
2.0871513868802
2.1277718781351
2.0935943315774
2.0608358726119
2.0328360283853
2.0094889027163
1.9901350711937
1.9744256946498
1.9615976677089
1.9504495154391
1.9391615115617
1.9253278313588
1.9066525303739
1.8823635924165
1.8544868895457
1.8300469234632
1.8078231030477
1.7920061415024
1.7812861919189
1.7736828724989
1.767617782785
1.7621341350822
1.7568032619767
1.7515552902004
1.7464434014832
1.7415135374055
1.7368108348652
1.7323113070566
1.7279068581177
1.7235833136428
1.7192137325182
1.7147518614301
1.7101668832042
1.7054963606052
1.7008340283427
1.6958002675823
1.6914299480643
1.6873858838559
1.6836848886423
1.6804290490467
1.6777125215133
1.675584859119
1.6742695924015
1.673539833227
1.673683624537
1.6747242404238
1.6770765092859
1.6803898129955
1.6842957432083
1.6892245905209
1.6949268809829
1.7011639402112
1.7080454730071
1.7153581337495
1.7229587637707
1.7307959390978
1.7386638928708
1.7463642254887
1.7538723396668
1.7610796890165
1.7678587833714
1.7741467341401
1.780028960817
1.7853044999767
1.7902298599839
1.7943485816499
1.7989035199067
1.8027353020854
1.8070235224716
1.8114847388002
1.7356319281878
4.3491569184586
5.6964133606001
7.212461311915
10.194283087231
13.520102076463
16.69404355951
19.525979405562
21.842459355446
23.583197098008
24.677665666962
25.029620926512
24.670849291297
23.81134230156
22.581476789206
21.012686143631
19.242485546247
17.40164934479
15.5774770159
13.842207997806
12.241712997778
10.7984714763
9.5169392995103
8.3912235208834
7.4098296450591
6.5576032632798
5.8189964080661
5.1796128261369
4.6255672293403
4.1444949544634
3.7259360169408
3.3609407844068
3.0416452093372
2.7610605825103
2.5138719071025
2.2957197399529
2.1025283556815
1.9308755020139
1.7774708689137
1.6403248742016
1.5174369360739
1.4069094498206
1.3072346933194
1.2169311612933
1.1351384153362
1.0608200452026
0.993155120286
0.9313378397586
0.87475928635212
0.82292268544338
0.77529636183888
0.73146952305326
0.69102385492317
0.65367027157326
0.6191210703906
0.5871034963436
0.55738002410521
0.52973349045312
0.50399126498321
0.47999467986799
0.45759276110995
0.4366487858479
0.41703827652306
0.39865656424913
0.38141138002856
0.36521139663215
0.34997041679502
0.33561541130915
0.32692532240924
1.2108044462721
2.1049948249404
2.1266593203517
2.09282119297
2.0610994426357
2.0339508627665
2.0112145755986
1.992314066852
1.9768852838208
1.9641996295459
1.9531119852126
1.9419008050439
1.9282904913946
1.9100503810115
1.8862360280854
1.8584301344094
1.8334292792659
1.8099773244152
1.7927126380219
1.7807199630941
1.7722361431682
1.7656739540507
1.7600002297946
1.7546947493071
1.7496072011364
1.7447500119889
1.7401369497923
1.7357897908668
1.7316816021586
1.727711088655
1.7238356617942
1.7199403366044
1.7159266478309
1.7118009648643
1.7075588264176
1.7032801634289
1.6985865409871
1.6944124113731
1.6905478854856
1.686942232104
1.6836842155951
1.6808841384492
1.6785775957768
1.6770245581054
1.6760010514582
1.6758327403712
1.6764932370813
1.6784356145172
1.681300485656
1.6848020254864
1.6894402164064
1.6947966577915
1.7008001586691
1.7075183658496
1.7146693457597
1.722123738096
1.7298227856068
1.7375289037603
1.7450156347974
1.7520726650222
1.758583666117
1.7644551284805
1.7697313692862
1.7745170837043
1.7785505570842
1.7821931182591
1.7848114769164
1.7874901595597
1.7896105348381
1.7928399562937
1.7961915133268
1.7326004179577
3.5405018832853
4.6553402611993
5.0500789704546
6.4319505402996
8.4096820095911
10.489440789989
12.490642019623
14.291316199357
15.780672350876
16.872771996615
17.611949793178
17.845203486947
17.675537125989
17.192257176344
16.410499168923
15.395000267879
14.229298988317
13.004281893253
11.780038443404
10.599958021977
9.4969805710461
8.4859468409264
7.5732928934632
6.758870561161
6.0376865286405
5.4018629919063
4.8428514773124
4.3521183016939
3.9212264833454
3.5424903410323
3.2091367954734
2.9151894892836
2.6554404814673
2.4253883996578
2.2209930589879
2.038816282328
1.8762694208421
1.730800827208
1.6002687719876
1.4828614203185
1.3767323525799
1.2807751300021
1.193857224266
1.1148857235778
1.0430308892204
0.97735296002524
0.91730649248476
0.86231316552761
0.81180958960111
0.76536469743043
0.72251151672385
0.68296365299468
0.64640862310217
0.61255793745003
0.58115570002597
0.55196054048828
0.52479985056904
0.49949571943701
0.47588303538992
0.4538243082178
0.43318265459921
0.41384830444744
0.39572190212276
0.37870088389121
0.36270170390782
0.34764425727517
0.33342291087925
0.33368556112542
1.4108351117981
2.1213869140798
2.1253621250296
2.0919392481332
2.0612866354389
2.0350409608419
2.0129276174695
1.9944771562038
1.9793049752237
1.9667199428274
1.9556381237559
1.9444565999354
1.9310602167003
1.9133139263945
1.8901194660815
1.8625924350732
1.8371616623318
1.8125192298812
1.7936609355435
1.7802277658622
1.7706780797179
1.7634876305788
1.7575458716763
1.7522381931758
1.7473149077665
1.7427256255502
1.7384486341758
1.7344732745128
1.7307653678075
1.7272380611495
1.7237952068188
1.7203622465901
1.7167984176449
1.7130729936924
1.7092356995924
1.7053202869595
1.7009361882494
1.6969555224043
1.6932639292063
1.6897763338262
1.6865516469828
1.6837131012468
1.6812828343159
1.6795473486573
1.6782941941727
1.6778545101148
1.6782600153265
1.679823738197
1.6823495695754
1.6855107173979
1.6898374759734
1.6949192208968
1.7006993224091
1.707152431145
1.7139305088066
1.7209440471522
1.7278513170579
1.7344335411023
1.7405473879935
1.7460193902924
1.7506953355614
1.75440783129
1.7571091939264
1.7588368185869
1.7591819255541
1.7592286515352
1.758517020972
1.7576635799817
1.7563814724646
1.7570147840341
1.7589419225481
1.7314470882985
2.9173508941088
3.9309890085249
4.0811289888858
4.6136690150752
5.7545763571761
7.133519365881
8.5436973443094
9.888822147145
11.076191009968
12.089739071164
12.808653796271
13.289441607019
13.384687151419
13.229190263279
12.902401326363
12.355243552277
11.645780270422
10.844106013286
9.9948147363887
9.1394844780371
8.3084421531288
7.5225563835104
6.7938845273614
6.1278501959389
5.5255545049767
4.9849836934527
4.5020297502381
4.0721015609653
3.6901999077924
3.3510220531366
3.0496359266063
2.7816037744734
2.5429894523373
2.3302287178864
2.1401107275016
1.9699319188053
1.8173173180196
1.6800384744221
1.5562070865526
1.4444459634174
1.3433355731099
1.2516674277665
1.168383442974
1.092403002311
1.0230670000692
0.95972465318736
0.90168883433355
0.8484366558015
0.79938752919498
0.75416382126775
0.71247269925168
0.6739314491145
0.63826596803359
0.60517783974459
0.57443282238984
0.54586170165625
0.5192491005975
0.49443335603686