/*--------------------------------*- C++ -*----------------------------------*\
| =========                 |                                                 |
| \\      /  F ield         | OpenFOAM: The Open Source CFD Toolbox           |
|  \\    /   O peration     | Version:  2312                                  |
|   \\  /    A nd           | Website:  www.openfoam.com                      |
|    \\/     M anipulation  |                                                 |
\*---------------------------------------------------------------------------*/
FoamFile
{
    version     2.0;
    format      ascii;
    arch        "LSB;label=32;scalar=64";
    class       volScalarField;
    location    "0.00012";
    object      rhoHat;
}
// * * * * * * * * * * * * * * * * * * * * * * * * * * * * * * * * * * * * * //

dimensions      [1 -3 0 0 0 0 0];

internalField   nonuniform List<scalar> 
109340
(
661.22288271437
661.21806522722
661.20884507358
661.19759560542
661.18505104544
661.17184188123
661.15821018501
661.1442471495
661.12994883196
661.11467957702
661.09734071931
661.07671894618
661.05133490676
661.01939834152
660.97877852621
660.92695660408
660.86093885224
660.77714272289
660.67123022939
660.53788401852
660.3704894696
660.16074288194
659.89811397382
659.56911993333
659.15629439809
658.63674016375
657.97999473187
657.1447987083
656.07398889198
654.68604826958
652.86037881358
650.40999552672
647.02755938652
642.17279245038
634.82631274852
622.92651406554
661.22360322954
661.21741934289
661.20706371265
661.19503508077
661.18209978222
661.16881360405
661.15533627967
661.14160745459
661.12723759909
661.11155080748
661.09354423673
661.07194787585
661.04520245189
661.01143220684
660.96841150206
660.91350368941
660.84358511513
660.75490486704
660.64290601435
660.50198172949
660.32514271726
660.10359104709
659.82614298995
659.4784413166
659.04183578663
658.49179379459
657.79554766558
656.90849238305
655.7684298133
654.28592423485
652.32719779793
649.68168130126
645.99543623619
640.62588959087
632.28742220388
618.23750432658
661.2262831851
661.21913938472
661.20775155463
661.19544289745
661.18262011145
661.16952749168
661.15612851547
661.14237746966
661.12799460147
661.11231939981
661.09436232736
661.07284789827
661.04620993351
661.01256816371
660.96969545899
660.91496028981
660.84523858407
660.75678374421
660.64504228754
660.5044128371
660.32790724337
660.10672819257
659.82969240374
659.48243915075
659.04631394399
658.49677504512
657.8010421087
656.91449696426
655.77493381393
654.29289995802
652.33454211164
649.68878283222
645.99784808146
640.59810728763
632.09999368848
617.18962033899
661.2300038877
661.22141588433
661.20947353046
661.19683430377
661.18377700726
661.17042179833
661.15680704011
661.14291650941
661.12846355077
661.11278500894
661.09489163097
661.07350098982
661.04703745466
661.01361255677
660.97098925298
660.91652482882
660.84708460997
660.75890903353
660.64742333299
660.50700277471
660.33060857981
660.10937893309
659.83203682386
659.4840839485
659.04667863669
658.4950060704
657.79590031094
656.90419366999
655.7568906305
654.26336567774
652.28791569428
649.61625684847
645.88140172183
640.38492348182
631.56912131975
615.05739733855
661.23584876605
661.22472855562
661.21106981746
661.19758065659
661.18417446544
661.17069185503
661.15703785383
661.14317355744
661.12879637194
661.11323742898
661.09551359147
661.07433236988
661.04809125727
661.01486053022
660.97234161884
660.91780266512
660.84798650653
660.75896750719
660.64588161581
660.50281923083
660.32224620141
660.09465451306
659.80787424157
659.44614967863
658.98891969731
658.40895389974
657.66971357996
656.72127973216
655.49388141874
653.88702982856
651.75000747358
648.8458610756
644.76471274771
638.71169202945
628.79867432851
608.48149425823
661.24667082965
661.22644780662
661.21137904933
661.19757686512
661.1841219338
661.17063655865
661.15698672529
661.1430443368
661.12833218246
661.11190591583
661.09240219023
661.06802791129
661.03654436176
660.99522354378
660.94077431987
660.86923190525
660.77580131482
660.65468810629
660.49894631478
660.29895318163
660.04281491781
659.71524893286
659.2964449462
658.76054552731
658.07354659038
657.19029515705
656.05014097081
654.57035058135
652.63569412914
650.08101642644
646.65941267076
641.9892751775
635.40801849071
625.6364794502
609.56740991036
574.41860197591
602.70119607809
569.52620342409
520.41508784234
457.26202744096
385.83062314727
311.81528804136
240.7388335275
177.13842098196
124.12163872864
82.995087204537
52.619973118021
32.843335866629
19.95939065548
11.990140605139
7.2279235530377
4.3906701329
2.7092921998082
1.7022522617154
1.090540287856
0.71468994327368
0.47936118540255
0.32811442825852
0.22909606407406
0.163208956393
0.11844119752021
0.087211555162655
0.065048244174299
0.049729940971828
0.038040598939023
0.029622581802285
0.02337448907848
0.018497194150304
0.014945646746009
0.012027789330715
0.0098931815688728
0.0080883493927248
0.0067516046787044
0.0055995660042887
0.0047317244687595
0.0039772963082709
0.0033954127874618
0.0028914120151804
0.0024879880336703
0.002146416738064
0.0018573736517755
0.001620153843525
0.0014103885623001
0.0012408864910658
0.0010886295808757
0.00096344683424276
0.00085298724807004
0.00075762215044206
0.00067514241516076
0.00060332132441743
0.00054058406619195
0.0004855875511286
0.00043722166486471
0.00039456636359669
0.00035685161730326
0.00032342088241544
0.00029370894187619
0.00026723663742823
0.00024360030116866
0.00022245427642242
0.00020349703217082
0.00018646483362683
0.00017112988157925
0.00015712332524748
0.00027067018551769
0.004900932106243
0.0064831826251113
0.0063114207165897
0.0060879791196364
0.0058976779578934
0.0057408494701159
0.0056122965318974
0.0055086029095901
0.0054248917445336
0.0053538594263196
0.0052848352568358
0.0052033758196612
0.005095662359303
0.0049579530478192
0.004805032474956
0.0046467737552891
0.0045465691851247
0.0044811354403365
0.0044395079390325
0.0044093710250124
0.0043830097377826
0.0043566630756282
0.0043292791058374
0.0043010078836063
0.0042723038803523
0.0042437032747045
0.0042149107238085
0.0041889911480828
0.0041603899072606
0.004131432829626
0.0041022189540407
0.0040726374774767
0.0040428294751174
0.0040132060370655
0.0039839382929903
0.0039491574626953
0.0039247939977567
0.0039037304532843
0.0038865142205431
0.0038732227177383
0.0038642727618565
0.0038607750799349
0.0038618549675731
0.0038666671614336
0.0038760223656318
0.0038897160248277
0.0039076577767918
0.0039307962489232
0.0039590587465368
0.0039894412063985
0.0040205214328515
0.0040557494342393
0.0040911743157883
0.0041277021269517
0.0041655528023057
0.004202748481184
0.0042379996250848
0.0042708747874223
0.0043015649985036
0.0043301398596483
0.0043566794501895
0.004381428519032
0.0044054056029634
0.0044291328590531
0.0044539030440354
0.0044789576827127
0.0045086727879335
0.0045359241098615
0.0045603708280895
0.0045994078895282
0.0043167499944352
592.99081983021
551.03543034081
491.60215227308
420.503623132
344.9420783968
270.60206323199
203.15686485892
145.98697027695
100.60413922175
66.665370731194
42.638537290838
26.443413728267
16.29312677079
9.9556239577531
6.07735957965
3.7440213044651
2.3368245233018
1.4838518899184
0.96138144056822
0.63592809402033
0.42957105462706
0.29629333146644
0.20838794038174
0.14924957731185
0.10876915635461
0.080564783012019
0.060548378298399
0.046134661784258
0.035621713178871
0.027804080743185
0.021960304571267
0.017511377992681
0.014100752724085
0.011449206911886
0.0093738412244897
0.007731790438176
0.0064228553229975
0.0053704218372814
0.0045190278438259
0.0038239780006046
0.0032547594773555
0.0027836119596998
0.0023935071459364
0.0020664810289379
0.0017930353860829
0.0015612952050135
0.0013655726676872
0.0011982801015084
0.0010555667843992
0.00093274475808802
0.00082694832420849
0.00073526372180632
0.00065558560019585
0.00058622170077294
0.00052555770995311
0.0004723587591311
0.00042554305091236
0.00038423720158665
0.00034768658048184
0.00031526420475847
0.00028643158070885
0.00026073342781557
0.00023777754597981
0.0002172282548718
0.0001987957102299
0.00018222977804094
0.00016731457342228
0.00015433222824385
0.00068514168468936
0.0058241174266151
0.0064662724028657
0.0062464757204657
0.0060320297881726
0.0058509432208935
0.005701905642874
0.0055795097448739
0.0054808653721476
0.0054005497034733
0.0053306264585331
0.0052594962809962
0.0051723017405565
0.0050567401815758
0.0049132502249585
0.0047606656955461
0.0046390451083069
0.0045381427306173
0.0044731986030468
0.0044323695531423
0.0044032878341482
0.0043780369813451
0.0043526752163932
0.0043261192736994
0.0042985776923263
0.0042705431192842
0.0042425186447812
0.0042144143200973
0.0041886235580584
0.0041604641308268
0.0041318207721748
0.004102925278084
0.0040736803795094
0.0040442032465204
0.0040148480448445
0.0039857656889033
0.0039513258459485
0.0039270128402382
0.0039058993794385
0.0038885500908743
0.0038751415460954
0.0038660970439419
0.0038623572700551
0.0038631225091701
0.0038676967202158
0.0038768693679279
0.0038904853097761
0.0039082847045315
0.0039313188044463
0.0039594043619813
0.0039895180679144
0.0040206859738992
0.0040558414496217
0.004091207593399
0.0041279414658832
0.0041658366682977
0.0042030264630886
0.0042383686227434
0.0042714292092849
0.0043023581006685
0.0043312335528123
0.0043581491669744
0.0043834037216575
0.0044078329691428
0.0044317432965104
0.0044566365453376
0.0044817374389796
0.0045113303898729
0.0045386745379632
0.0045624956323986
0.0045978012011354
0.0043136081846986
587.73183429806
535.32726314769
464.42290718016
382.66733322052
303.18970892027
230.8323114305
169.21819695614
119.833638929
82.236554889186
54.523669691626
35.62270597708
22.709280544939
14.262936610251
8.8933858532752
5.5362031042373
3.4629119821925
2.1896594455074
1.4067604536277
0.92005980283196
0.61274546761187
0.41618102920187
0.28841243261289
0.20358050715659
0.14625540262363
0.10687558134156
0.079320800287616
0.059725108265906
0.04557895730001
0.035229654281568
0.027545472842744
0.021763450386525
0.017375662995628
0.013994891657712
0.011375049441822
0.0093155272678991
0.0076894838238619
0.0063890395695911
0.0053458443141123
0.0044986075407363
0.0038093670347825
0.0032421505473812
0.0027747134775666
0.0023854563598864
0.0020608464077547
0.0017878114785717
0.0015574542210053
0.0013620743210141
0.0011955109847591
0.0010532016429664
0.00093072113340609
0.00082527334737337
0.00073384831520629
0.00065445907581674
0.00058520258959871
0.00052466298071718
0.00047157026584899
0.00042485778302093
0.00038364080515563
0.00034716618511732
0.00031480841187231
0.00028603309642544
0.00026038518989357
0.00023747183787431
0.00021695848276942
0.00019855745055142
0.00018201995523104
0.00016712973033389
0.00015421374207836
0.0007089892730644
0.0058440087879212
0.0064653894140729
0.0062459777436197
0.0060322795828402
0.0058517215125375
0.0057031293091248
0.0055810884032725
0.0054826921033848
0.0054025499824917
0.0053327532426142
0.0052617443592555
0.005174727249027
0.00505940631719
0.0049160403303539
0.0047631228188318
0.0046408591534983
0.0045389051165958
0.0044731573390211
0.0044318436639037
0.0044024688428248
0.0043770989107124
0.0043517737409691
0.0043253334122351
0.0042979319023611
0.0042700653867751
0.0042422155515343
0.0042146844520607
0.0041886282059984
0.0041608557761754
0.0041326092362606
0.0041040352114756
0.0040751006789279
0.0040459543820979
0.0040168894387309
0.0039880769648668
0.0039543053251325
0.0039300436610836
0.0039088857856762
0.0038914045489788
0.0038779741822834
0.0038688844497585
0.0038645014829002
0.0038646920389576
0.0038689653819448
0.0038776773004887
0.003890874060164
0.0039084015413131
0.0039312239865876
0.0039588532499382
0.0039883906403069
0.0040194834409304
0.0040544010758055
0.0040897789860366
0.004126574617989
0.0041642112483826
0.0042010904255418
0.0042364820264471
0.0042697759773254
0.0043010367520153
0.0043303194602136
0.0043577234088066
0.0043835089205928
0.0044084051964737
0.0044327712866039
0.0044579155982356
0.0044838958165438
0.0045128443243092
0.0045399484227659
0.0045665270267785
0.0045945052576077
0.0043056883697352
576.06045265842
500.55904617569
408.22305958783
315.63313720424
236.09321684655
172.90745495946
123.98793346736
87.455223459911
60.572765558362
41.070853448972
27.792025778353
18.350539879758
11.901068754571
7.6382158224919
4.8706899038374
3.1141030015294
2.0059592055188
1.3070428545027
0.86464022064499
0.58203623260962
0.39865105129381
0.27769364694574
0.19705691162822
0.14223931743442
0.10427284617775
0.077597079472466
0.058583396246253
0.04480702472169
0.034682990844606
0.027163775385051
0.021493415204551
0.017174296022278
0.013849958445569
0.011264400761418
0.009234523694619
0.0076262507713842
0.006342305898432
0.005308411850065
0.0044706553609919
0.0037868455497987
0.0032248983623058
0.0027606609178987
0.0023744600205404
0.0020519281408888
0.0017804725334336
0.0015515788679927
0.0013570875130944
0.0011915575377643
0.0010497200275114
0.00092792020016064
0.000822826475252
0.00073181954618917
0.00065274434109519
0.00058373869012607
0.00052339966681025
0.00047046047328025
0.0004238895791886
0.00038279342800107
0.00034642921192202
0.00031416819578722
0.0002854757266606
0.00025989682085886
0.00023704261924068
0.00021658139672226
0.00019822645301271
0.00018172904672309
0.00016687236578489
0.00015405456683487
0.00074726149252324
0.0058674682744875
0.0064639156925299
0.0062453028141731
0.0060326343733701
0.0058528516261407
0.0057048943177394
0.0055833401339984
0.00548530389083
0.0054054100799772
0.0053357922764576
0.005264956615135
0.0051781953325498
0.0050632131172557
0.0049200440568933
0.004766812596565
0.0046436423924983
0.0045405557684874
0.0044737947110116
0.0044317370726024
0.0044018636653342
0.0043762401619858
0.0043508042237679
0.0043243538571058
0.0042970339135349
0.0042693328716621
0.0042417166701925
0.0042145394388717
0.0041885490676545
0.0041613315857285
0.0041337177715761
0.0041057344879853
0.0040773719704346
0.0040487879202438
0.0040202382011127
0.0039919637907069
0.0039587400953194
0.0039346818103279
0.0039135341149183
0.0038959040941138
0.0038822719655507
0.0038729228302885
0.00386809340294
0.0038676373249991
0.0038713439853557
0.0038793565072293
0.0038919619244637
0.003909020472862
0.0039314399321675
0.0039583622710946
0.0039872508126551
0.0040183259083608
0.0040527132161199
0.0040878148846284
0.00412461076579
0.0041621139711203
0.0041989956546036
0.0042345610283319
0.0042682311994311
0.0042999914338655
0.0043299231474903
0.0043581155989822
0.0043846925194022
0.0044103499664478
0.0044353640856722
0.0044610636328803
0.0044872539945555
0.004516327908523
0.0045436841661102
0.0045702069407327
0.0045977490562858
0.0043009737329178
537.81739531348
408.09475608733
289.69367107614
204.94034766435
146.96979491071
106.43653298421
77.759938074884
56.657630390259
41.002378335144
29.342961177134
20.555892499955
14.105992378097
9.5059255688986
6.3164331882241
4.1600227470282
2.7289583627921
1.7960278068956
1.1920552571377
0.80029997238844
0.54483036850111
0.37679654167034
0.26494897556123
0.1890742106922
0.13713857120502
0.10101576403448
0.075479725076952
0.057139373991722
0.043818276662957
0.034002879563375
0.026676468397919
0.021146197802086
0.016921497618778
0.01366397364604
0.011124276848033
0.0091298283433661
0.0075463776045801
0.0062810634854968
0.005261065987479
0.0044341237046885
0.0037578026951739
0.003202304067446
0.0027424493323478
0.0023601342105393
0.0020400658496476
0.0017710458081484
0.001543704515788
0.001350682471759
0.0011861737983884
0.0010452338671109
0.00092418929381988
0.0008196357157868
0.00072912841603534
0.00065042569434415
0.00058179708780226
0.0005217313687369
0.00046900977042952
0.00042262004216842
0.00038168300563679
0.00034546417984888
0.00031332924772864
0.00028474388433486
0.00025925578857472
0.00023648111172109
0.00021608903902937
0.00019779322619623
0.00018134664606267
0.0001665355620516
0.00015384337188634
0.0008003557503794
0.0058984467485179
0.0064622039116076
0.0062445474732797
0.006033105471873
0.0058543229179806
0.0057071670663735
0.0055862263766437
0.0054886406183605
0.0054090566257396
0.0053396645662935
0.0052690579592241
0.0051826462949121
0.0050681355894209
0.0049252420272077
0.004771664869196
0.0046473997940033
0.0045428795248224
0.0044746834861185
0.0044315258499426
0.0044009351293282
0.0043749437506486
0.0043493830998447
0.0043229597311656
0.0042957733423363
0.0042683025843415
0.0042410078233182
0.0042142602841777
0.0041884761421223
0.0041619229505911
0.0041350527776163
0.0041077966354444
0.0040801447170282
0.0040522527435543
0.0040243547611889
0.0039967714867419
0.0039641724658974
0.0039404750928296
0.0039194211385325
0.0039016688742142
0.0038877624745663
0.0038779949400984
0.0038726097299693
0.0038714090156213
0.0038742921722901
0.0038813689301036
0.0038932106875171
0.0039097478015477
0.0039316342691336
0.0039575545713186
0.0039856971385204
0.0040166503887356
0.0040504914329909
0.0040853582609044
0.0041220185789881
0.0041593254005214
0.0041961613339747
0.0042318746756438
0.0042659508332556
0.0042983196181541
0.0043290708964878
0.0043583008985211
0.0043858145205482
0.0044122448098434
0.0044379503927356
0.0044642271703024
0.0044906487471759
0.004519801782275
0.0045467228675073
0.0045731514868592
0.0045993994376861
0.0042934510522989
303.76526950514
158.98926702228
111.85813758203
87.165225808028
69.108032556104
54.941428488142
43.432379714629
34.105577137314
26.205877696121
19.765048649827
14.529557709343
10.447874786192
7.348931389997
5.0720422293643
3.4553886489022
2.336366778127
1.5768677041684
1.0680776062363
0.72935567207546
0.50360041915315
0.3522301145487
0.24981817340762
0.17989879467524
0.1312872120084
0.09718323877965
0.072932020971517
0.055455255677032
0.042648960047103
0.033180417994067
0.026095517923375
0.020730166534772
0.016616643588689
0.013438532873034
0.010957961289509
0.0090025733749388
0.0074499732912092
0.0062070890755384
0.0052043121938334
0.0043892074502849
0.0037228823208673
0.0031745916316821
0.0027204326816965
0.0023423308288553
0.0020257014747858
0.0017594028269736
0.0015340722942245
0.001342773523028
0.001179542608467
0.0010397727684236
0.00091954500610847
0.00081572137282371
0.00072579339089529
0.00064758089444095
0.00057937420202803
0.00051964597967935
0.00046721414296691
0.00042105820784766
0.00038032479381012
0.00034427803890175
0.00031229035735131
0.00028383639205554
0.00025846541156282
0.00023579092112236
0.00021548166282759
0.00019725600835052
0.00018087102440068
0.00016611688569729
0.00015358506104407
0.00086977055943593
0.0059393110351609
0.0064604111848947
0.006243803306357
0.0060337201992207
0.0058561360547369
0.005709937987822
0.0055897325109082
0.0054926774191018
0.0054134534143131
0.0053443212758879
0.0052739850720753
0.0051879988591035
0.0050740729239991
0.004931559490734
0.0047775819842004
0.0046520640769072
0.0045457195616674
0.0044757472919996
0.0044312309409258
0.0043997474098481
0.0043732850070102
0.0043475500993333
0.004321137589826
0.0042941071371989
0.0042669209366513
0.0042400143879486
0.0042137595078593
0.0041883585277533
0.0041625603595488
0.0041365513604412
0.0041101655532214
0.004083374554708
0.0040563166044814
0.0040292019890924
0.0040024903124207
0.0039705244480612
0.0039473034279736
0.0039264262286338
0.0039085667980343
0.0038943258795567
0.0038840313160622
0.0038779481057509
0.0038760103518956
0.0038779184286224
0.0038839632736405
0.0038949455944604
0.003910827723355
0.0039319468874317
0.0039568008472426
0.0039841473782103
0.0040148110499028
0.0040480216513463
0.0040826366336204
0.0041191066770427
0.0041562703495233
0.0041931906526367
0.0042292172945462
0.004263837820601
0.0042969255014818
0.0043285017951642
0.0043586676478879
0.0043873115636515
0.0044147341641101
0.0044412931801219
0.0044682428967562
0.0044947186484066
0.0045240090412573
0.004550235336455
0.0045767475941874
0.0046018128110914
0.0042837435144762
0.34837739623759
16.147948550637
24.375441832518
27.90965835641
28.543949082174
26.87795410674
23.839966351462
20.373288690522
16.881545923921
13.589645198318
10.638723150733
8.0920068394395
5.9926871255027
4.3318945219641
3.070667639361
2.1477414001524
1.4904212461716
1.0323975926033
0.71738994295384
0.50198258417618
0.35465710973253
0.2534893835424
0.1834322065021
0.13456272206745
0.099920516247572
0.075094905525944
0.057162966070423
0.044027132736385
0.034279016383485
0.026954240422216
0.021411881023655
0.017168855950999
0.013880914577585
0.011313001084127
0.0092917246424502
0.0076871474928781
0.0064008289533168
0.0053643122610447
0.0045223515057529
0.0038340554801788
0.0032673919262862
0.0027987062593726
0.0024085651181582
0.0020819804310026
0.0018072313044999
0.0015750278662958
0.0013779605343179
0.001209853620043
0.0010659403344901
0.00094220313165705
0.00083546404646495
0.00074301587025161
0.00066263826398283
0.00059256219872927
0.000531264936801
0.00047749113261553
0.00043015279175984
0.00038837910168066
0.00035142997416254
0.00031866628148164
0.0002895381567114
0.00026357453373094
0.00024037963189549
0.00021961724743313
0.00020099468128099
0.00018425346838469
0.0001691692669829
0.00015536404492317
0.00033844217701584
0.0052581767432858
0.0064876310915021
0.0062992924081846
0.0060835301738513
0.0058992303472687
0.0057468768268727
0.0056213536381309
0.0055195880230876
0.0054369580611635
0.0053665171216013
0.0052980456314053
0.0052177576875243
0.0051121866943011
0.0049765058657234
0.0048228138939728
0.0046575241835689
0.0045490718895222
0.0044769720903386
0.0044307846981066
0.0043982058438827
0.0043711610818493
0.0043452200616136
0.0043188354953363
0.00429201065278
0.004265174312952
0.0042387368501462
0.0042130493083439
0.0041881776290318
0.0041631956508914
0.0041381279565766
0.0041127291599037
0.0040868908653793
0.0040607615915156
0.0040344817460558
0.0040085729076946
0.0039812817959644
0.0039586435782131
0.0039381274619521
0.0039202250557329
0.0039055327937267
0.0038944131704042
0.0038871387497312
0.0038840410105483
0.003884227486824
0.0038886219126653
0.003897952414792
0.0039126150929676
0.0039325735515043
0.0039557477110976
0.0039819006040276
0.0040117648153104
0.0040439488256043
0.0040781642440362
0.0041142664547271
0.0041512340801693
0.00418833815171
0.0042249105642531
0.0042604963235453
0.0042948793053694
0.0043279521920199
0.0043593738053229
0.0043891384062673
0.0044178741646037
0.0044456054982873
0.0044734483014386
0.004499741356583
0.004528991755063
0.0045540577791807
0.0045803021238082
0.0046033500172462
0.0042637746304357
0.068796546512534
0.49476206139505
1.5757959840573
2.9442116082448
4.2630300019295
5.2776898561737
5.8488688557256
5.9986271860084
5.673942258914
5.1318946765774
4.4567808096417
3.7174937489565
2.9949686857392
2.3375706565317
1.7760954675998
1.3219022809253
0.96973297820616
0.70516579755805
0.51119676449239
0.37110923003242
0.27066557769579
0.1988241906016
0.14731522022439
0.1101920945269
0.083277330997017
0.063619781636077
0.049085530789625
0.038222026508873
0.030064607188116
0.023870228389255
0.019122021735452
0.015438149642449
0.012564616028591
0.010303593344565
0.0085095650419031
0.0070721329089776
0.0059154475825935
0.0049776638231975
0.0042124270718928
0.0035830863862931
0.0030632229351093
0.0026313404814167
0.0022706148646618
0.0019674978505275
0.0017116934086412
0.0014949731508547
0.001310464238593
0.001152714126764
0.0010172512745046
0.00090060637505696
0.00079973760222496
0.00071221317791414
0.00063598325370617
0.00056939603098738
0.0005110811800797
0.00045984321628489
0.00041469690178442
0.00037479728814194
0.00033945603314517
0.00030807740142619
0.0002801493614204
0.00025523504629926
0.00023295813153318
0.00021299759581483
0.00019507302407124
0.00017894246779465
0.00016439029351756
0.0001528974957471
0.0012072105799498
0.0061014060278461
0.0064552596339893
0.0062408148484248
0.0060360527994838
0.0058633104793149
0.005720861503244
0.0056035023772585
0.0055084127510339
0.0054304632584294
0.0053622134984763
0.0052928446969851
0.00520851809436
0.0050969986214544
0.0049562681382811
0.0048010577067266
0.0046707850400454
0.0045572237400029
0.0044798646002697
0.0044294022359201
0.0043940332615566
0.0043654898202306
0.0043390243909411
0.0043127331123496
0.004286445978873
0.0042604958194259
0.0042352111336528
0.0042108734172588
0.0041874136335647
0.0041642273974529
0.0041412258336675
0.0041180122668885
0.0040943137831404
0.004070226148696
0.0040458864157829
0.0040217400432192
0.0039962364868884
0.0039745476338016
0.0039546679725528
0.0039369153463971
0.0039218175516422
0.0039097792154079
0.0039010326645628
0.0038963440771274
0.0038945868817284
0.0038969182191033
0.0039039630638038
0.0039168349218777
0.0039346684391273
0.0039552560529352
0.0039798948696517
0.0040085096498612
0.00403933005432
0.0040728519808086
0.0041083226462801
0.0041449470432808
0.0041823644057095
0.0042197837705029
0.0042565784921438
0.0042925434602754
0.004327274256068
0.0043605730602965
0.0043919622401434
0.0044218727843941
0.0044501118014948
0.0044777190482732
0.0045024717838547
0.0045300952191354
0.0045529347330659
0.0045781942847769
0.0045977330126954
0.0042293840769232
0.043432213736579
0.095422443670348
0.24964059480829
0.53385441581128
0.89863729177383
1.2837626063149
1.631091577343
1.8929718820984
2.0504408271389
2.0723569893996
1.9784450979562
1.8008000511547
1.5770785557953
1.3280510926631
1.0812042217113
0.85662484455433
0.66455213267508
0.50772761773105
0.38418853785652
0.28932978457391
0.21775557308554
0.1642933851661
0.12454681371636
0.095011463035684
0.073003404670342
0.056544113358818
0.044158695522746
0.034774639087619
0.027615685422071
0.022098101623395
0.017818496050808
0.014478826285969
0.011849527433157
0.0097663988655565
0.0080983190876665
0.0067567601185718
0.0056713680477529
0.0047875067645875
0.0040622325855342
0.0034638440511037
0.0029681334926919
0.0025549342451161
0.0022086888195245
0.0019168705447954
0.0016702855451498
0.0014608253763486
0.0012822161367368
0.001129123349755
0.00099751684160776
0.00088399986424792
0.00078570771256048
0.00070029086539836
0.00062579748197611
0.00056069279156568
0.00050360262967786
0.00045339867124394
0.00040911693823109
0.00036995716700283
0.00033525253692013
0.00030441319131752
0.00027694358498198
0.00025242055382885
0.00023048173128609
0.00021081707332282
0.00019315062931802
0.00017724537792996
0.00016289622916005
0.00015274019061329
0.0015638796100044
0.0062120193402495
0.00644879659193
0.0062369610178572
0.0060374505275598
0.0058690174256566
0.0057297146548034
0.0056146794043637
0.0055211039542455
0.0054440504587374
0.0053763532333708
0.0053076441828386
0.0052246403027756
0.0051152244818351
0.0049763780332863
0.004820685090289
0.0046869292788925
0.0045672812825996
0.004483410467661
0.0044274347747211
0.0043884294006185
0.0043579001039926
0.0043307272618256
0.0043045768512191
0.0042789838707422
0.0042541477747475
0.0042302573881012
0.0042075138127116
0.0041857910628302
0.004164561749088
0.0041437570302731
0.0041227654601732
0.0041013702757848
0.0040794278869327
0.0040571257963311
0.0040349142513956
0.0040110313557122
0.0039903066612905
0.0039711755411038
0.0039537041205002
0.0039383617295576
0.0039255767312298
0.0039155744450727
0.0039093872296749
0.0039059560623402
0.0039066220911694
0.0039114662582198
0.0039224549065011
0.0039379918232296
0.0039563426543192
0.0039795473674868
0.0040064832014735
0.0040360338503445
0.004068747836673
0.0041036477547802
0.0041400630930486
0.0041777565603933
0.0042157522017394
0.0042530816865671
0.0042896120909002
0.0043247935109425
0.0043579904787541
0.0043888615468337
0.0044178048588788
0.0044438090095533
0.0044681116929317
0.0044884188484799
0.0045109371628795
0.0045298539318515
0.0045510344918449
0.0045729042217519
0.0041955906825986
0.027634350280937
0.047797738969715
0.07672225670072
0.15339298518172
0.26996192638361
0.41176446732565
0.56348407474804
0.70521662808396
0.82208641731272
0.90005876072496
0.92561583352142
0.89905120887756
0.83697806870579
0.75229840626402
0.65094472525856
0.54545437690267
0.44570036061802
0.35682900619848
0.28149063464679
0.21994645469578
0.1709747643972
0.13267098552152
0.1030411045984
0.080271646638258
0.062810303246318
0.04941318774299
0.039116458409522
0.031169180200225
0.02500240318608
0.020191351203334
0.016416661706284
0.013435691222556
0.011063324706273
0.0091647972120565
0.0076381407121895
0.0064026086163294
0.0053965373677243
0.0045704003184679
0.0038900938653388
0.0033272157710558
0.0028586377833533
0.0024666569023721
0.0021365627221515
0.0018581035252103
0.0016220008143952
0.0014210304339
0.001249082011439
0.0011014537782135
0.0009743727241287
0.00086450128817628
0.00076921971170851
0.00068624085936653
0.00061382554074429
0.00055045242961804
0.0004948152911195
0.00044582599357601
0.00040255950753765
0.00036426492448571
0.00033029638145188
0.00030009049904178
0.00027316466335803
0.00024910412506057
0.0002275615146794
0.00020823941667042
0.00019087174929949
0.00017522478840232
0.0001611012810655
0.0001528376359381
0.0020951062637606
0.0063178310876819
0.0064413512670232
0.0062317253713915
0.0060384268492975
0.0058749455374976
0.005739107146308
0.0056265945270626
0.005534568716292
0.0054583220789062
0.0053910245909883
0.0053228565893182
0.0052412300046225
0.0051343167151405
0.0049980537603962
0.0048425903843607
0.0047056184626444
0.0045793244738037
0.0044878267346158
0.004425245370582
0.0043817063690048
0.0043486276897502
0.0043204791740701
0.0042944511787488
0.0042696629528856
0.0042461001204408
0.0042237828182263
0.0042027916307159
0.0041829827637425
0.0041638602540361
0.0041452181053319
0.0041265026987836
0.004107238973623
0.0040874665477433
0.0040671717468632
0.004046739977337
0.0040244243484715
0.0040045706582501
0.0039862309071566
0.0039691536135467
0.0039537515634891
0.0039405340271947
0.0039296647328371
0.0039223483473121
0.0039175330579411
0.0039167417429273
0.0039198313480835
0.0039289227994883
0.0039423818206425
0.0039588434100641
0.0039806888313851
0.0040059844934197
0.0040344019649752
0.0040662958305622
0.0041003522457546
0.0041359620436803
0.0041728595509838