/*--------------------------------*- C++ -*----------------------------------*\
| =========                 |                                                 |
| \\      /  F ield         | OpenFOAM: The Open Source CFD Toolbox           |
|  \\    /   O peration     | Version:  2312                                  |
|   \\  /    A nd           | Website:  www.openfoam.com                      |
|    \\/     M anipulation  |                                                 |
\*---------------------------------------------------------------------------*/
FoamFile
{
    version     2.0;
    format      ascii;
    arch        "LSB;label=32;scalar=64";
    class       volScalarField;
    location    "0.00012";
    object      T;
}
// * * * * * * * * * * * * * * * * * * * * * * * * * * * * * * * * * * * * * //

dimensions      [0 0 0 1 0 0 0];

internalField   nonuniform List<scalar> 
109340
(
372.99991018533
372.99864893757
372.99643513279
372.99361411595
372.99059523817
372.9875736332
372.9846214819
372.98177495595
372.97899524416
372.97620377079
372.97340705009
372.97060809546
372.96780380626
372.96498652725
372.96214577948
372.95926816794
372.95633659481
372.9533297521
372.95022071492
372.9469757722
372.94355288867
372.93990077574
372.93595589631
372.93163768183
372.92684303806
372.92143809108
372.91524670522
372.90803355859
372.89947774782
372.88913033805
372.87634240178
372.86013619625
372.83896272445
372.81022721524
372.76927811814
372.70735591106
372.99970875623
372.99803410244
372.9954798939
372.99260233751
372.9896494775
372.98671783944
372.98382812972
372.98097013421
372.97813843094
372.97532128266
372.97251093192
372.96970268602
372.96689003866
372.96406410863
372.96121329799
372.95832330125
372.9553765523
372.95235042647
372.9492163167
372.9459386494
372.94247346636
372.93876684056
372.93475176678
372.93034289347
372.9254305444
372.91987171761
372.91347761738
372.90599479807
372.89707561603
372.88623010606
372.87274299953
372.8555211743
372.8327956188
372.80151443762
372.75592106631
372.68455948752
372.99974838748
372.9977677862
372.99511617588
372.99228757609
372.98939038803
372.98647805897
372.9835629312
372.98066225642
372.97778941271
372.9749415233
372.97210992679
372.96928726186
372.96646547934
372.963634978
372.96078415985
372.95789882709
372.95496145355
372.95194965863
372.94883499514
372.94558228919
372.94214756662
372.93847743134
372.9345054054
372.93014627684
372.92529031924
372.91979430371
372.9134693771
372.90606202111
372.89722448537
372.88646649052
372.87307194124
372.85594345232
372.83328503974
372.80192920324
372.75564964206
372.68077785742
372.99970943045
372.99741022601
372.99462658913
372.9917052351
372.98874358501
372.98576859665
372.98279665789
372.97984302835
372.97691962554
372.97403059691
372.97117217534
372.96833785866
372.96551920265
372.96270675112
372.95989079681
372.9570576586
372.95419063262
372.95126804214
372.94826205298
372.94513896825
372.94185525112
372.9383576406
372.9345786759
372.9304318587
372.92580544311
372.92055383898
372.91448523975
372.9073424662
372.89877307277
372.88827998092
372.87513659292
372.85822805145
372.83570005557
372.80419456415
372.75670703124
372.67542201607
372.99949578763
372.99644134098
372.99302560266
372.98968344228
372.98641941791
372.98323092792
372.98012948785
372.97714318787
372.9742917374
372.97156996262
372.96898104265
372.96652448585
372.96419290437
372.96197748312
372.95986846417
372.95785356989
372.95591731569
372.95403951272
372.95218993244
372.95033808894
372.94840578374
372.94631633977
372.94398442407
372.94130691538
372.9381567766
372.93436930141
372.92972958918
372.92395114185
372.91664104063
372.90724569927
372.89495360845
372.87853326705
372.85589576854
372.82318854546
372.77183014346
372.67538880215
373.00336151666
373.01758337819
373.03289779255
373.04809672114
373.0627484471
373.07661567805
373.08957130669
373.10156108476
373.11257442715
373.12262039973
373.1317220727
373.13990609757
373.14719848563
373.15362304443
373.15919856268
373.16393808146
373.16784863655
373.17093439616
373.17324571905
373.17489954894
373.17588653899
373.17615473506
373.17562669455
373.17417798186
373.17168653594
373.16793300622
373.16262969099
373.15538159572
373.14563407635
373.13259102072
373.11506516002
373.09125125214
373.05802285193
373.00953718469
372.93225327421
372.77608337598
372.60908616256
372.45426107922
372.21729669637
371.87853446348
371.42714209598
370.85250428011
370.14099198437
369.27944438649
368.25564991175
367.06450788062
365.70254528911
364.19461295819
362.57225404925
360.87065247551
359.1257758105
357.37381768396
355.64382824393
353.95737834025
352.32886356015
350.76776281689
349.27937220198
347.86409961796
346.52099335088
345.24791136724
344.04124300867
342.89650612618
341.80820772096
340.77912218845
339.79684272928
338.86069405218
337.97287877208
337.11885384643
336.31014804833
335.52835803253
334.78690943919
334.06797361989
333.38480293254
332.72057170322
332.08815061669
331.4720271354
330.88394237144
330.31071780055
329.76117587113
329.22677109336
328.71058889827
328.21083936942
327.72432507716
327.25488652121
326.79600775714
326.35278453263
325.92014181283
325.49977012524
325.09051010959
324.69194126006
324.30341837056
323.9245390017
323.55480995787
323.19385654666
322.84128811598
322.49676002221
322.15992023317
321.83045707596
321.50808190319
321.19252772944
320.88353299028
320.58085550914
320.28422542608
319.99214213134
321.13381465053
321.55459060246
320.64896341918
319.73561140732
318.85040636559
317.99347289076
317.15558226265
316.32097791238
315.46840480078
314.56968200533
313.58868367776
312.48306315183
311.21306074098
309.75947464616
308.14529844992
306.45141033569
304.62536874745
303.26507756435
302.25587130237
301.59165205382
301.19815553682
300.98814020835
300.8859488784
300.83710317612
300.80972641035
300.78882386936
300.768637204
300.7473216123
300.72453990325
300.7002165398
300.6745683834
300.64798992662
300.62079623091
300.59336216339
300.56610555657
300.53929154212
300.50725703784
300.48374499017
300.46221331497
300.44314068148
300.42661100058
300.41281115455
300.4020291774
300.39404078014
300.38854574506
300.38544813975
300.38440093723
300.38515508862
300.38761364234
300.39141327496
300.39558641051
300.3997971705
300.40462316158
300.40900580014
300.41303384708
300.41666010918
300.41950330082
300.42129250568
300.42199083004
300.42165323866
300.42035065608
300.41814973781
300.41519032099
300.41167608527
300.40780053525
300.40372904751
300.39954806103
300.4037476084
300.4401461884
300.67452767287
302.02847182018
309.74864342675
372.56579525295
372.37278618194
372.07866282501
371.67098985717
371.14398805188
370.48770952275
369.69450380821
368.75614778083
367.66771851829
366.42943802272
365.04553662384
363.53228501457
361.92169388557
360.24401582961
358.52919693581
356.80912195302
355.1105986522
353.45450909796
351.85551566752
350.32229493854
348.85944630486
347.4683679804
346.14787684598
344.89540428374
343.70801774338
342.58152849669
341.51185211775
340.49524994406
339.52840282251
338.60693548319
337.72859337849
336.88953850037
336.08738695393
335.31930089682
334.58304668964
333.87644258498
333.19744548447
332.54435067729
331.91544529709
331.30918003866
330.72427968542
330.15924994094
329.61321432545
329.08467777864
328.57313786039
328.07712289051
327.59633660257
327.12944259822
326.67619988032
326.23546232495
325.80697202214
325.38984997776
324.98367639287
324.58799327795
324.20223609439
323.8259818179
323.45877099732
323.10022153772
322.74994278991
322.40759415412
322.07284224439
321.74538611705
321.42493420654
321.11121679418
320.80397551167
320.50296839459
320.20797388382
319.90560021554
321.70584440552
321.33281019125
320.41379682285
319.5071861482
318.63004949648
317.7794838407
316.94461114262
316.10836614026
315.24802799162
314.33357970179
313.32710773851
312.18583736587
310.87319238085
309.37842507064
307.73751277306
306.04635345207
304.63597535999
303.27494111234
302.26436254581
301.59851202553
301.20354903236
300.99244440669
300.88960372293
300.84049058587
300.81309289717
300.7922932855
300.77224690992
300.75108181698
300.72839375492
300.70416531816
300.67859018255
300.65204397507
300.62485173291
300.59739036363
300.57007578034
300.54318773421
300.51104277499
300.48735838036
300.46563705532
300.44636188508
300.42965508821
300.41568570389
300.40469850503
300.39649636855
300.39081554782
300.38753058549
300.38629664301
300.3868494424
300.38908495024
300.39260414409
300.39646210168
300.40037586694
300.40481292204
300.40876875775
300.41235771802
300.41547151043
300.41775432441
300.4189649642
300.41907066231
300.41812483683
300.41620160672
300.41337373978
300.40979314269
300.40565176652
300.40112211257
300.39636405761
300.39139241548
300.39482680226
300.43032367657
300.66369348475
302.02425193451
309.81864985831
372.5462871745
372.31172137227
371.95308291455
371.46213767429
370.85013056003
370.1117163402
369.24783216893
368.25674387029
367.13826228424
365.89192856306
364.52654656569
363.05391913049
361.4906024968
359.86260751626
358.1987976443
356.52573833014
354.86949718923
353.25063635638
351.68328399686
350.17618766854
348.73473249804
347.3612728404
346.05519978377
344.81451011972
343.63657990795
342.51797989383
341.45539159606
340.44479322661
339.48278625584
338.56607731151
337.69112377094
336.85555439792
336.05604815779
335.29066042565
334.5565202619
333.85200084471
333.17470217539
332.52331817586
331.89573657045
331.29095107579
330.70707684456
330.14335654817
329.59809443528
329.07072795056
328.55979860902
328.06475627205
327.5845085094
327.11838698327
326.66568425936
326.22556797067
325.79761219072
325.38101084211
324.97534995592
324.58002676864
324.1946535969
323.81874923257
323.45188671336
323.09366028376
322.74368804014
322.40162629539
322.06714948719
321.73995344165
321.41974479408
321.10625377168
320.7992234034
320.49842103685
320.20362413984
319.90163994528
321.71205570985
321.32446407725
320.40623825395
319.50059184882
318.62426816274
317.77442165914
316.94031642355
316.10502965379
315.2459761147
314.33330943803
313.3293129551
312.19139723213
310.88303886312
309.39325430638
307.75740083544
306.07030011725
304.65867560309
303.29665208441
302.28317723944
301.61373383441
301.21552488601
301.00199339616
300.89770368761
300.84798436478
300.82052498791
300.7999403125
300.78018897635
300.75932900665
300.7368574897
300.71281986482
300.68738906985
300.66089510062
300.6336779552
300.60612715341
300.57866075731
300.55160497256
300.51918064644
300.49511929213
300.47298638755
300.45328204307
300.43619855362
300.42185316397
300.41038866664
300.40176460084
300.39570829368
300.39201363663
300.39036396268
300.39047987901
300.39223626241
300.39515572405
300.39833064003
300.40156573108
300.40513154487
300.40814231238
300.41076098203
300.41272728226
300.41375732901
300.41367336549
300.41244534608
300.41012286241
300.4067899067
300.40252809441
300.39749719297
300.3918768414
300.38584182273
300.37953717614
300.37286203102
300.37437501757
300.40790604138
300.63904166115
302.01405601115
309.97124466412
372.50706053964
372.17732016077
371.67994755653
371.03951936313
370.28627347435
369.43290766325
368.48787411852
367.45326832298
366.32598618109
365.10305001078
363.79114412345
362.38810812905
360.90239267288
359.35191039158
357.76000313821
356.15216532063
354.55237747945
352.98137699844
351.45427761295
349.98136488435
348.56855093195
347.2179328165
345.93106129621
344.70653412536
343.54177345076
342.43405034579
341.38041525215
340.37773828551
339.42238919044
338.51146258182
337.64168502114
336.81028381439
336.01480641702
335.25261425605
334.52164589034
333.81962037989
333.14489161773
332.49546593617
331.87000316445
331.26681802312
330.68467718661
330.12226038993
329.57842816057
329.05217007787
328.54235374914
328.04831387895
327.56894278588
327.10374843368
326.65171466083
326.21242271227
325.78505611359
325.36914298174
324.96406163616
324.56929429118
324.18441566474
323.80896441156
323.44253819549
323.08472205054
322.73514840926
322.39346520669
322.05934581206
321.73248274373
321.41258995268
321.09939953112
320.79264826392
320.49211461014
320.19757397695
319.89629046822
321.72315665864
321.31234992915
320.39533682211
319.49107144284
318.61589871393
317.76708361413
316.93408336652
316.1001739551
315.24296719527
314.33286125286
313.33242584926
312.19934112873
310.89716255766
309.41456813129
307.78602221691
306.10481732394
304.69289847419
303.32966517111
302.31191031254
301.63705633109
301.23390714374
301.01665470193
300.9101129508
300.85942639586
300.83183408093
300.81154880694
300.79222595565
300.77178929807
300.7496665789
300.72590504713
300.70066554286
300.67424307406
300.64698194527
300.61928577534
300.59158529632
300.56426487133
300.53137936142
300.50677844633
300.48404262123
300.46369819302
300.44600000735
300.43104724319
300.41895017712
300.40966450122
300.40298688818
300.39863886705
300.39633770491
300.39578005505
300.39677980771
300.39875254819
300.4008795358
300.40302584915
300.4052357687
300.40677605968
300.40779157496
300.40795703566
300.40704699489
300.40491034156
300.40154074145
300.39700542057
300.39141049069
300.38484717171
300.37747461595
300.36947160671
300.36102385775
300.35225983402
300.34309511265
300.34077677974
300.37180821161
300.59984723398
301.98991270711
310.16322813679
372.40205418354
371.79660846405
370.99512704093
370.12128299714
369.21952289107
368.28999315549
367.32549363989
366.31315096458
365.23767203187
364.09268639534
362.86621540454
361.55721146096
360.16935520297
358.71487829886
357.2133409927
355.6869872132
354.15802917977
352.64703992931
351.17017471408
349.73891452345
348.3606195521
347.03970563847
345.77651506048
344.57165374488
343.42367852218
342.33017694555
341.28818887578
340.29520237689
339.34844241917
338.44464282262
337.58114432784
336.75516800618
335.96438334529
335.20630274727
334.47899105787
333.78024663927
333.10838181084
332.46159983337
331.83848204137
331.23739032351
330.65721025917
330.09650158165
329.5543212804
329.02941857237
328.52102090315
328.02810348381
327.54991898927
327.08567819213
326.63462972119
326.19620859714
325.76963956656
325.3544856923
324.95008521529
324.55601782619
324.17173904386
323.79684706152
323.4309361689
323.07361653873
322.72452321083
322.38329468038
322.04960206587
321.72314173869
321.40363535204
321.09081187268
320.78439822699
320.48418647841
320.18995762189
319.88971125515
321.7396698294
321.29677100324
320.38119782546
319.47863127687
318.60492325082
317.75744976542
316.92589062267
316.09377171358
315.23896136677
314.33217733252
313.33636509643
312.20955962565
310.91542470183
309.44220425331
307.82320873842
306.14977533393
304.73853238278
303.37392209133
302.35060298423
301.66857697609
301.25880854423
301.03652353539
300.92689093867
300.87483106139
300.84699593448
300.82706632118
300.80828353736
300.78838451333
300.76671735579
300.74330233399
300.71828718609
300.69193925617
300.66460364681
300.63669463357
300.60865672357
300.58095948301
300.5474618238
300.52214381663
300.49860885419
300.47741054996
300.45886306284
300.44306834483
300.43011900015
300.41995027002
300.4123994425
300.40714856345
300.40395099725
300.40246327652
300.40239412148
300.40302559526
300.40369532928
300.40428328384
300.40460360294
300.40408079811
300.40278997678
300.40039455091
300.39672515203
300.39166378353
300.38524004063
300.37755070705
300.3687092957
300.35884213997
300.34810445055
300.33664840795
300.32468373887
300.31230608151
300.29953368496
300.29160797971
300.31903725677
300.54207724434
301.94700025162
310.39769591975
371.79378736884
370.24933617846
369.19612845468
368.32302612925
367.48361147209
366.64637751858
365.78606043288
364.88909901807
363.93204276886
362.90173589173
361.78961437979
360.5948906948
359.32020291308
357.97434613665
356.57378306872
355.13933617012
353.6914935283
352.24995880242
350.8319480053
349.44992716704
348.11272365875
346.82553665091
345.59155004351
344.41048866657
343.28219270035
342.20539618138
341.17790804009
340.19684704519
339.26020911053
338.36528549661
337.50941613278
336.68997172751
335.90485985509
335.1518918196
334.42885720334
333.73404669922
333.06562529925
332.42199686843
331.80154428855
331.20302377858
330.62504989989
330.06642042249
329.52603102875
329.00285173378
328.49598820331
328.00446083907
327.52758304882
327.06449957863
326.61460489917
326.17714145517
325.75154055826
325.33723414546
324.93366015867
324.54035320899
324.15677768977
323.78255174357
323.41725116788
323.0605139019
322.71196164956
322.37124799619
322.03805230847
321.71206871738
321.39300951379
321.08060382049
320.77458519712
320.47475040357
320.18087579547
319.88233070714
321.75785887437
321.27795459154
320.36390329688
319.46325671304
318.59130571893
317.74548451053
316.91570292544
316.08578157776
315.23390338941
314.3311812741
313.34102608436
312.22191440412
310.93765243668
309.47596428914
307.86876175243
306.20501903413
304.7954952051
303.42944710567
302.39939525528
301.7084989047
301.29044440692
301.06178681052
300.94816789983
300.89426428922
300.86602470299
300.84646102547
300.8283076263
300.8090415924
300.78791826982
300.76490639442
300.74013855005
300.71385779917
300.68640753861
300.65821058959
300.62971405665
300.60148128828
300.56729479442
300.54105187305
300.51651273064
300.49424239258
300.47459847535
300.4577169917
300.44366965066
300.43239913654
300.4237150848
300.41730112833
300.4129321091
300.41021126211
300.40870650751
300.40759051382
300.40635713551
300.40482266238
300.40262054716
300.39932815436
300.39492128079
300.38909010188
300.38171587602
300.37271248877
300.36216388715
300.35019107525
300.33689782133
300.32245710359
300.30705138098
300.29078649539
300.27391947661
300.25651686008
300.23869102282
300.22328324989
300.24546937136
300.46067200522
301.87963721522
310.68115973274
362.98164385011
366.59018712357
366.33250201657
365.91560002008
365.42901946675
364.85666394113
364.20228013215
363.47534643671
362.6795580064
361.80945911052
360.85401443344
359.80880626979
358.67783682737
357.46674767528
356.18808385314
354.86054625087
353.50415434322
352.13814299678
350.78049768856
349.44594232624
348.14516932262
346.88580540956
345.67206223808
344.50662803311
343.38955332205
342.32005008381
341.29752085772
340.31989131866
339.38511001245
338.49047346907
337.63427279228
336.81412791484
336.02760894329
335.27277743934
334.54783034292
333.85094873867
333.180205712
332.53424859558
331.91149449671
331.3106246282
330.73024872399
330.1693344229
329.6266810306
329.10128981261
328.59219795374
328.09857629031
327.61963583261
327.15455430538
326.70269145767
326.26333555496
325.83593934099
325.41986287846
325.01457762466
324.61960327498
324.23446293226
323.8587261646
323.49193913073
323.13375224181
322.78380773919
322.44176600066
322.10728925095
321.78006072224
321.45979640344
321.14623279034
320.83914611626
320.53829122904
320.24336082451
319.95212302378
321.32176181442
321.47597423653
320.57163113486
319.66695958427
318.78977759309
317.94008855912
317.10964845206
316.28401159269
315.443230266
314.56075273996
313.60239456081
312.52781528445
311.29832768467
309.89330056829
308.33063866146
306.68197755116
304.86369555471
303.49628747049
302.45847481276
301.75708405374
301.32909174732
301.09268942044
300.97412459742
300.91782906232
300.8889616925
300.86972602654
300.85225641142
300.83370194818
300.81318892936
300.79062105887
300.76610921469
300.73987654367
300.71225989313
300.68369065847
300.65460754816
300.62547062879
300.60334501075
300.57529677609
300.54888777598
300.52463131628
300.50292377376
300.48398300346
300.46784346033
300.45450549134
300.44364263263
300.43502476776
300.42836179562
300.42318471809
300.41882552779
300.41436148104
300.40941087916
300.40359585717
300.39639406612
300.3875357393
300.37685450713
300.36411881278
300.34929193267
300.33234573305
300.31350557064
300.29284473989
300.27046963502
300.24656072334
300.2213694371
300.19510450103
300.16805860807
300.14018266032
300.11164555591
300.08164907374
300.09227990996
300.28938408688
301.7245824115
311.18267288708
353.84491620482
359.05728010471
359.88744924681
360.28078104971
360.44438771854
360.42174276976
360.21546822239
359.85600303974
359.36538303581
358.76119039688
358.0497769632
357.24060042621
356.33820224947
355.34572554261
354.27437087312
353.14063079113
351.96250900925
350.75841428782
349.54551857715
348.33910335474
347.15122923337
345.99069164861
344.86330320317
343.77293481773
342.72158188869
341.71009666019
340.73820201202
339.80464885861
338.90886904826
338.04922614266
337.22399919859
336.43114202241
335.66919353515
334.93660455684
334.23165690075
333.55257662374
332.89816564358
332.26704462786
331.6578739811
331.06928765488
330.50027100666
329.94976309304
329.41675527399
328.90022293442
328.39936219456
327.91341276482
327.44158650134
326.98316324686
326.53745859781
326.1039331693
325.68195422257
325.27099371697
324.87050880983
324.48005518783
324.09920677613
323.72751818438
323.36460069753
323.0100635698
322.66358355038
322.32482806244
321.99348218747
321.66924996114
321.35184968014
321.0410183339
320.73649952191
320.43806737709
320.14529167157
319.86119679652
321.81274769388
321.20276189401
320.29253645985
319.39890024454
318.53398963537
317.69501684112
316.87259477749
316.05164652804
315.21162919079
314.32528513784
313.3579570631
312.26997947181
311.02585850885
309.61138059392
308.052977583
306.43031393422
305.03328528461
303.66408644152
302.6084550007
301.88155104207
301.42883001834
301.1726995387
301.04107237625
300.97800976653
300.94688982193
300.92795898252
300.91185739808
300.89486031762
300.87568522825
300.85406584079
300.83003672967
300.80379716963
300.77565705559
300.74606769226
300.71550246252
300.68443963885
300.662934604
300.63191360733
300.60225270609
300.57451575961
300.54915122807
300.52647785338
300.50655696471
300.48940712134
300.47460781777
300.4618823991
300.45082222402
300.44084728083
300.43088039447
300.41997432179
300.40757198407
300.39301269233
300.37566342704
300.35531480362
300.33167532683
300.30469155042
300.27441791774
300.24083169944
300.20410629902
300.16453598525
300.1223517396
300.07778081844
300.03122500372
299.98289028668
299.93315599994
299.8818932218
299.8292887661
299.77137710112
299.75020002653
299.90231089337
301.31276357106
311.75553260025
349.44986727958
354.04425768418
355.07796337655
355.72797443684
356.15432450399
356.41981551781
356.51933099233
356.47139061121
356.27002037435
355.92999731702
355.47019146156
354.89794652093
354.21580548772
353.4360339404
352.57097705459
351.63171800784
350.63292048661
349.59145461912
348.52386036315
347.44474518688
346.36700540071
345.30167734335
344.25651179732
343.23692453261
342.24646883306
341.28742057726
340.36093693009
339.46708222307
338.6056799528
337.77568390584
336.97598234597
336.20591622918
335.46403917381
334.7492151999
334.05974529918
333.39453616327
332.75256493401
332.13252818123
331.53317707498
330.95340345618
330.39239719315
329.84909225301
329.3225625202
328.81186926268
328.31638855975
327.83532075756
327.36796647153
326.91358911751
326.47163468241
326.04154356674
325.6227415314
325.21469137401
324.81690093231
324.4289754263
324.05046194436
323.68095598554
323.32005916913
322.96742619981
322.6227345534
322.28565034479
321.95586791798
321.63310073215
321.31708747338
321.00758203636
320.70434240079
320.40713809629
320.11570591953
319.85594733886
321.83549360403
321.13430159436
320.22761278314
319.34008281705
318.48134660123
317.64848222892
316.83262047721
316.01955413656
315.18982808173
314.31760930131
313.36995387263
312.3088885333
311.09968791136
309.72670271539
308.21186310848
306.62707687109
305.24580062932
303.87750376316
302.802398733
302.04495051998
301.56135464844
301.27970304878
301.13030057948
301.05718190909
301.02186260365
301.00228068994
300.98720682215
300.97171565022
300.95390482187
300.93320598621
300.90954188713
300.88306789196
300.85409726087
300.82307717354
300.79053915629
300.75702827996
300.73496627252
300.7001807699
300.6663858976
300.6341922969
300.6041031797
300.57650430212
300.55156651888
300.52929170687
300.50920331279
300.49091147241
300.47375139926
300.45700492145
300.43917245254
300.41889023479
300.3954233942
300.3676851576
300.3349706492
300.29701269404
300.25345479378
300.20418245734
300.14930233245
300.08898017727
300.02343976944
299.95324659387
299.87875091527
299.80021552793
299.71829072928
299.63301551141
299.54466349946
299.4532310286
299.35984915107
299.26235105026
299.16907680937
299.24730817707
300.50976809845
311.58579859737
346.74498960289
350.43001462192
351.45640144658
352.15202127986
352.6663056551
353.05018982911
353.30191522197
353.41799317672
353.41195980795
353.27014186504
352.99812294209
352.6115542902
352.12253784609
351.52996733888
350.84212830392
350.07496106838
349.23967075189
348.34982921282
347.42140515357
346.46821203278
345.50278573862
344.53575194781
343.57641018488
342.63179318811
341.70668684588
340.80442381786
339.92731833422
339.07668580811
338.25301195152
337.45624335777
336.68613332
335.94208208467
335.22300821426
334.5280640368
333.85670210472
333.20770596831
332.58019214858
331.97288448436
331.38499137334
330.81579413444
330.26423735214
329.72950831042
329.2106025051
328.7070015522
328.21795886238
327.74277364799
327.28073271228
326.83123952287
326.39382206345
325.96787236446
325.55288361382
325.14832223323
324.75380035374
324.36890763288
323.9932121381
323.62631475243
323.26784049887
322.91747158447
322.57489790338
322.23980480284
321.91188868346
321.5908674594
321.27649328625
320.968565461
320.66682585021
320.37101895303
320.08086613973
319.86752987009
321.82457115236
321.05088871266
320.14875567852
319.26816627146
318.41658165664
317.59092280123
316.78283422085
315.97904542565
315.16131713168
314.30546654289
313.3805655052
312.35068028478
311.18216544491
309.85800323762
308.39521456177
306.85702635385
305.49876406887
304.13607816956
303.04175561321
302.25060229562
301.73066544645
301.41770653696
301.24531705119
301.15803905384
301.11574956648
301.09385496494
301.07895140766
301.06456143017
301.04792259955
301.02799145482
301.00447946011
300.97748799027
300.94730474964
300.91441348032
300.87936745098
300.84275943961
300.81928438036
300.77995138907
300.74115983963
300.7035418675
300.66765266772
300.633941351
300.60260919772
300.57376595581
300.5468338155
300.52123150197
300.49597373518
300.47001620226
300.44135058921
300.40797834188
300.36869403901
300.32188343752
300.26661001567
300.20228508456
300.12834832004
300.04479228029
299.95217552047
299.85054825419
299.73975809762
299.62088331837
299.49449065413
299.360799393
299.22096553636
299.07522251768
298.92429777548
298.76780382322
298.60724542627
298.4391259928
298.25583027011
298.20116010961
299.04709053011
308.75216237675
345.17372656274
347.55881111162
348.59840685987
349.26411908035
349.79535952538
350.22003493418
350.53837497732
350.75784487206
350.84768650391
350.83675392391
350.71063992278
350.46291264334
350.11560313694
349.67888525045
349.14709032277
348.52587172524
347.83177857447
347.07865147579
346.27831365181
345.44257692473
344.58441965244
343.71453620469
342.84149606751
341.97301323905
341.11503718234
340.27189878937
339.44674438256
338.64181404118
337.85845088486
337.097360085
336.35882224114
335.64270275139
334.94866244589
334.27633348604
333.62497722166
332.99370468362
332.38209720859
331.78939218773
331.21468236346
330.65737074583
330.11639256552
329.59116906796
329.08120394091
328.5857143686
328.10411766739
327.63559947704
327.17970888434
326.73598720323
326.30380674485
325.88269720633
325.47209454189
325.0716524768
324.68097699351
324.29962747741
323.92721299397
323.56334073994
323.20771325564
322.86001224232
322.51991217837
322.18712577196
321.86136624618
321.54238660812
321.22996979017
320.92385614777
320.62379324575
320.32959829705
320.04065171524
319.96831155078
321.77993341109
320.95324495424
320.05590505292
319.18288791731
318.33928907952
317.521799718
316.72256694087
315.92928720956
315.12504296072
314.28746914167
313.38789641601
312.39276307386
311.26984305404
310.0009811526
308.59815350388
307.11533851305
305.78836079365
304.43817685726
303.32748561327
302.50167577339
301.94108373455
301.59136076231
301.3904821636
301.28420335412
301.23129904001
301.2046103869
301.18836047001
301.17420371114
301.15822583474
301.13871962854
301.11505369896
301.08720811911
301.05541570934
301.02016354184
300.98207245923
300.9417408585
300.91612396936
300.8715456962
300.8269738528
300.78305852543
300.7403692835
300.6993993322
300.66034339869
300.62336014914
300.58780842305
300.55289700663
300.51729125956
300.47932460414
300.43616998721
300.38505779633
300.32393999203
300.250400676
300.16263269349
300.05970303711
299.94109616093
299.80674067808
299.65823580003
299.49677038277
299.32421922506
299.14042684716
298.94438281407
298.73520250887
298.51510245118
298.28271176703
298.03910640798
297.7843153517
297.52026055943
297.24400784009
296.95762084311
296.67394587814
296.72531871928
300.39679078325
344.40640818831
345.14894087115
346.24601271648
346.86894050439
347.38037208609
347.81049342156
348.1560254259
348.42267118401
348.5810411173
348.64422767513
348.62111510533
348.48426021666
348.24083603813
347.91016005587
347.50531117817
347.01360571652
346.44193458183
345.80658815082
345.12019239254
344.39271889996
343.63432657129
342.85591477141
342.06649801934
341.27323114168
340.48245060624
339.69926138824
338.92736453663
338.16969978788
337.42833143275
336.70455747674
335.99921731987
335.31276761584
334.64532601359
333.99671925958
333.36665315236
332.75483298939
332.16079301859
331.58382906307
331.02321460677
330.478716308
329.9496269373
329.43528965808
328.93525876585
328.44868314702
327.97511115251
327.51421771847
327.06534404905
326.62804663688
326.20173083274
325.78593320887
325.38040986751
324.98467940429
324.59835021781
324.22100158937
323.85226681411
323.4919115808
323.13955835003
322.79489510572
322.45762327833
322.12746056218
321.80418940313
321.48754864066
321.17728436912
320.87315461499
320.57496028741
320.28248037312
319.9947814051
320.24026658827
321.69318141467
320.83915655797
319.94832746016
319.08383782793
318.24908200578
317.44065159626