/*--------------------------------*- C++ -*----------------------------------*\
| =========                 |                                                 |
| \\      /  F ield         | OpenFOAM: The Open Source CFD Toolbox           |
|  \\    /   O peration     | Version:  2312                                  |
|   \\  /    A nd           | Website:  www.openfoam.com                      |
|    \\/     M anipulation  |                                                 |
\*---------------------------------------------------------------------------*/
FoamFile
{
    version     2.0;
    format      ascii;
    arch        "LSB;label=32;scalar=64";
    class       volScalarField;
    location    "0.00012";
    object      TpSat;
}
// * * * * * * * * * * * * * * * * * * * * * * * * * * * * * * * * * * * * * //

dimensions      [0 0 0 1 0 0 0];

internalField   nonuniform List<scalar> 
109340
(
372.99991018048
372.99864893757
372.99643513279
372.99361411595
372.99059523817
372.9875736332
372.9846214819
372.98177495595
372.97899524416
372.97620377079
372.97340705009
372.97060809546
372.96780380626
372.96498652725
372.96214577948
372.95926816794
372.95633659481
372.9533297521
372.95022071492
372.9469757722
372.94355288867
372.93990077574
372.93595589631
372.93163768183
372.92684303806
372.92143809108
372.91524670522
372.90803355859
372.89947774782
372.88913033805
372.87634240178
372.86013619625
372.83896272445
372.81022721524
372.76927811814
372.70735591106
372.99970875623
372.99803410244
372.9954798939
372.99260233751
372.9896494775
372.98671783944
372.98382812972
372.98097013421
372.97813843094
372.97532128266
372.97251093192
372.96970268602
372.96689003866
372.96406410863
372.96121329799
372.95832330125
372.9553765523
372.95235042647
372.9492163167
372.9459386494
372.94247346636
372.93876684056
372.93475176678
372.93034289347
372.9254305444
372.91987171761
372.91347761738
372.90599479807
372.89707561603
372.88623010606
372.87274299953
372.8555211743
372.8327956188
372.80151443762
372.75592106631
372.68455948752
372.99974838748
372.9977677862
372.99511617588
372.99228757609
372.98939038803
372.98647805897
372.9835629312
372.98066225642
372.97778941271
372.9749415233
372.97210992679
372.96928726186
372.96646547934
372.963634978
372.96078415985
372.95789882709
372.95496145355
372.95194965863
372.94883499514
372.94558228919
372.94214756662
372.93847743134
372.9345054054
372.93014627684
372.92529031924
372.91979430371
372.9134693771
372.90606202111
372.89722448537
372.88646649052
372.87307194124
372.85594345232
372.83328503974
372.80192920324
372.75564964206
372.68077785742
372.99970943045
372.99741022601
372.99462658913
372.9917052351
372.98874358501
372.98576859665
372.98279665789
372.97984302835
372.97691962554
372.97403059691
372.97117217534
372.96833785866
372.96551920265
372.96270675112
372.95989079681
372.9570576586
372.95419063262
372.95126804214
372.94826205298
372.94513896825
372.94185525112
372.9383576406
372.9345786759
372.9304318587
372.92580544311
372.92055383898
372.91448523975
372.9073424662
372.89877307277
372.88827998092
372.87513659292
372.85822805145
372.83570005557
372.80419456415
372.75670703124
372.67542201607
372.99949578763
372.99644134098
372.99302560266
372.98968344228
372.98641941791
372.98323092792
372.98012948785
372.97714318787
372.9742917374
372.97156996262
372.96898104265
372.96652448585
372.96419290437
372.96197748312
372.95986846417
372.95785356989
372.95591731569
372.95403951272
372.95218993244
372.95033808894
372.94840578374
372.94631633977
372.94398442407
372.94130691538
372.9381567766
372.93436930141
372.92972958918
372.92395114185
372.91664104063
372.90724569927
372.89495360845
372.87853326705
372.85589576854
372.82318854546
372.77183014346
372.67538880215
373.00336151666
373.01758337819
373.03289779255
373.04809672114
373.0627484471
373.07661567805
373.08957130669
373.10156108476
373.11257442715
373.12262039973
373.1317220727
373.13990609757
373.14719848563
373.15362304443
373.15919856268
373.16393808146
373.16784863655
373.17093439616
373.17324571905
373.17489954894
373.17588653899
373.17615473506
373.17562669455
373.17417798186
373.17168653594
373.16793300622
373.16262969099
373.15538159572
373.14563407635
373.13259102072
373.11506516002
373.09125125214
373.05802285193
373.00953718469
372.93225327421
372.77608337598
372.60908616256
372.45426107922
372.21729668857
371.87853456123
371.427141757
370.85250382117
370.14099213303
369.27944453112
368.25565022939
367.06450890655
365.70254932275
364.19459407673
362.57226065298
360.87064981901
359.12577851682
357.37381698801
355.64382567548
353.95738019159
352.32886284488
350.7677609439
349.27937193398
347.86410182379
346.52100541274
345.24796196819
344.04127549102
342.89629262871
341.80824343546
340.77929075574
339.79631367483
338.86140000797
337.97247725949
337.1192418951
336.30982365829
335.52857051023
334.78668052691
334.06813063809
333.38457819185
332.72077412853
332.08787543266
331.47240132668
330.88357920758
330.311371854
329.76076083844
329.22762576165
328.71011866961
328.21100975991
327.72395263712
327.25483180352
326.79593854953
326.3526544727
325.92021050917
325.49974589804
325.09051337223
324.69193139671
324.30341554256
323.92453086676
323.55480495408
323.19385074098
322.84128485191
322.49675783419
322.15992033062
321.83045852032
321.50808476429
321.19253128388
320.88353702962
320.5808595853
320.28422989105
319.99214855037
321.13304586811
321.55457398141
320.64896240384
319.73560872663
318.85040228587
317.9934683969
317.15557813776
316.32097464072
315.46840277469
314.569681271
313.58868402894
312.48306420249
311.21306204746
309.7594758218
308.14529919925
306.45141052654
304.62536850689
303.26507727516
302.25587108823
301.59165193923
301.19815544549
300.98814011265
300.88594872219
300.83710290046
300.80972595655
300.78882319743
300.76863629681
300.74732045407
300.72453860669
300.7002150786
300.67456673829
300.6479881819
300.62079443965
300.59336036141
300.56610377997
300.53928982428
300.50725541851
300.48374353997
300.46221200488
300.44313955441
300.42661000242
300.41281022648
300.40202843663
300.39404019741
300.38854525603
300.38544777477
300.38440066252
300.38515487482
300.38761352879
300.39141333725
300.39558655546
300.3997972823
300.4046233474
300.40900602314
300.4130340522
300.41666040907
300.41950365485
300.4212928784
300.42199116418
300.4216535198
300.42035086936
300.41814985646
300.41519032099
300.41167599028
300.4078003588
300.40372884673
300.39954785001
300.4037474548
300.44014596399
300.67452720398
302.02846863052
309.74865468186
372.56579525295
372.37278618194
372.07866306743
371.67099339462
371.14398746094
370.48770884603
369.69450387045
368.7561478892
367.66771856418
366.4294379616
365.04553169679
363.53228854784
361.92169220474
360.24401508934
358.52919814545
356.80912127607
355.11059902827
353.45450910563
351.85551462428
350.32229550131
348.8594458204
347.46836688516
346.14787567118
344.89540262712
343.70802124121
342.58153169623
341.51183710259
340.49526325747
339.52839993431
338.60692778245
337.72861152819
336.88951263199
336.08741923054
335.31927306365
334.58308042588
333.87641263479
333.19748023585
332.54432008417
331.91547524238
331.30914632264
330.72429782379
330.15922023329
329.61321963761
329.08466375358
328.57313835942
328.07713304016
327.59633004082
327.12946630537
326.67618126899
326.23547080751
325.80695764588
325.38985432892
324.98367084951
324.58798851953
324.20223128313
323.82597602649
323.4587658874
323.10021693283
322.74993979637
322.40759256669
322.07284247674
321.74538769238
321.42493698154
321.11122022244
320.80397929818
320.5029722872
320.20797778168
319.90557968129
321.70524210568
321.33280462534
320.41379458122
319.50718221942
318.63004476784
317.77947908716
316.94460709477
316.10836309282
315.24802628512
314.33357931134
313.32710839922
312.18583864637
310.87319381668
309.37842625769
307.73751343391
306.04635352745
304.63597512819
303.27494082532
302.2643623269
301.59851193449
301.20354898523
300.99244437536
300.8896036493
300.84049040221
300.81309254974
300.79229273467
300.77224613792
300.75108081928
300.72839260586
300.70416402231
300.67858870846
300.65204239943
300.62485011389
300.59738872964
300.57007416377
300.54318614065
300.51104133135
300.48735706057
300.46563584862
300.44636079791
300.42965411122
300.41568480104
300.40469779578
300.3964957875
300.39081505108
300.38753021621
300.38629635565
300.3868492135
300.38908482056
300.39260418271
300.39646221824
300.40037596979
300.40481310407
300.4087689648
300.41235794652
300.41547180274
300.41775469751
300.41896532575
300.41907099673
300.41812514132
300.41620185839
300.41337390751
300.40979322308
300.40565177701
300.40112206214
300.39636398262
300.39139237641
300.39482684207
300.43032368334
300.66369328015
302.0242490648
309.81866129571
372.5462871745
372.31172137227
371.95308286653
371.46213503077
370.85013385569
370.11171737636
369.24783224731
368.25674376505
367.13826226456
365.89192871837
364.52654715888
363.05391904561
361.4906015638
359.86260895531
358.19879691363
356.52573766258
354.86949837237
353.25063620865
351.6832830246
350.1761884342
348.73473194435
347.36127212904
346.05520027293
344.81450883851
343.63657890822
342.51798364971
341.45539228558
340.44478361971
339.48280065924
338.56606307158
337.69113057636
336.85555176312
336.05604936731
335.29066363269
334.55651610002
333.85200625283
333.17469890501
332.5233220807
331.895735405
331.2909491295
330.70708162903
330.14334652651
329.5981053669
329.07071031946
328.55981295565
328.06473490869
327.58451964314
327.11836890084
326.66568953081
326.22556082052
325.79761137304
325.38100911223
324.9753442022
324.58002572035
324.19464816076
323.81874533595
323.451881967
323.09365642646
322.74368500128
322.40162466495
322.06714928181
321.73995455745
321.41974698845
321.10625662496
320.79922657285
320.49842421745
320.20362735947
319.90161717422
321.71147291683
321.32445884595
320.4062359748
319.50058791975
318.62426348182
317.77441697518
316.94031244848
316.1050266717
315.24597445926
314.33330908536
313.32931364193
312.19139853041
310.88304031267
309.39325550688
307.7574015119
306.07030020978
304.65867539221
303.29665179994
302.2831770202
301.61373375053
301.21552484532
301.00199337052
300.89770361602
300.84798418392
300.82052464483
300.79993976825
300.78018821755
300.75932803871
300.73685636972
300.7128185898
300.68738764249
300.66089357899
300.63367638879
300.60612557399
300.57865919017
300.55160341462
300.51917925421
300.49511799635
300.47298518756
300.45328095195
300.4361975807
300.42185231271
300.41038796095
300.401763992
300.39570782097
300.39201327446
300.39036367354
300.39047964591
300.39223612899
300.39515574604
300.39833071672
300.40156580937
300.40513170571
300.40814251019
300.41076119345
300.41272755115
300.41375764337
300.41367367943
300.41244564248
300.41012313719
300.40679013469
300.40252824863
300.39749727736
300.39187685983
300.3858417864
300.37953710008
300.3728620248
300.3743750659
300.40790609634
300.6390414919
302.0140532825
309.97125643202
372.50706053964
372.17732016077
371.67994753473
371.03949928393
370.28627204442
369.43290883454
368.48787437132
367.45326808998
366.32598590648
365.10304989623
363.79114410054
362.38810779862
360.90239296593
359.35191037512
357.760002771
356.15216637025
354.55237734647
352.98137632345
351.45427779337
349.98136540464
348.56855015402
347.21793253825
345.93106160489
344.70653358791
343.54177256455
342.43405026079
341.3804184263
340.37773581497
339.42238731085
338.51146714992
337.64167706595
336.81029430218
336.01479631502
335.25262427954
334.52163588455
333.81963230853
333.14488223052
332.4954776192
331.86999188536
331.2668286449
330.68466520545
330.12226792364
329.57841795761
329.05217364689
328.54235036945
328.04831157057
327.56894627645
327.10373942795
326.65172148733
326.21241153507
325.7850613144
325.36913613492
324.96406272752
324.5692913314
324.18441240582
323.8089617133
323.44253428654
323.0847189014
322.73514534788
322.39346340715
322.05934502845
321.73248322448
321.41259134225
321.09940157573
320.79265060675
320.49211691878
320.19757611454
319.89626222704
321.72260868213
321.31234477267
320.39533445823
319.49106752256
318.61589411959
317.76707903981
316.93407952178
316.10017107024
315.24296561719
314.3328609553
313.33242657171
312.19934244912
310.89716402301
309.41456934782
307.7860229138
306.10481744023
304.69289829312
303.32966490326
302.31191010008
301.63705625252
301.23390710329
301.01665467098
300.91011287319
300.85942620714
300.83183372991
300.8115482577
300.79222519728
300.77178834157
300.74966546872
300.72590378868
300.70066415182
300.67424159573
300.64698042257
300.61928424088
300.59158377067
300.56426335925
300.53137802359
300.50677719079
300.48404144897
300.46369711888
300.44599905215
300.43104642387
300.41894949958
300.40966390458
300.40298643414
300.39863851032
300.3963374115
300.3957798193
300.39677967744
300.39875254819
300.40087957546
300.40302590448
300.4052358925
300.40677620673
300.40779174453
300.4079572679
300.40704725273
300.4049106031
300.40154097961
300.39700562958
300.39141066711
300.38484730441
300.37747468383
300.36947160671
300.36102381393
300.35225976182
300.34309509914
300.34077682039
300.37180825789
300.59984704755
301.98990994608
310.16323968756
372.40205418354
371.79660845623
370.99512710571
370.12128170658
369.21952787634
368.28999351295
367.32549450134
366.31315092445
365.23767179764
364.09268632349
362.86621534866
361.5572114385
360.16935526072
358.71487809196
357.21334124144
355.68698765809
354.15802854095
352.64704013181
351.17017459961
349.73891339517
348.36061817413
347.0397061256
345.77651495603
344.57165291505
343.42367859469
342.3301770343
341.28818890776
340.29520419334
339.3484389954
338.44464556677
337.58114216469
336.75516863733
335.96438316802
335.2063016732
334.47899409015
333.78024687969
333.10838467962
332.46159946839
331.83848268791
331.23739118548
330.65720697907
330.09650360384
329.5543148111
329.02942352855
328.52101351609
328.02810931513
327.54991279969
327.08568130726
326.63462711493
326.19620713162
325.76964093107
325.35448203218
324.95008750439
324.55601425199
324.17173919842
323.79684434388
323.43093376402
323.07361372
322.72452032488
322.38329255721
322.04960068237
321.7231414402
321.40363579736
321.09081293499
320.78439958898
320.48418797176
320.18995890812
319.88968983483
321.73916617683
321.29676564628
320.38119539378
319.47862738663
318.60491878387
317.75744533988
316.925886886
316.09376895559
315.23895988985
314.33217710684
313.33636586472
312.20956097366
310.91542618636
309.44220548952
307.82320946088
306.14977548168
304.73853224159
303.37392184396
302.35060278804
301.66857690598
301.25880850272
301.03652349807
300.9268908505
300.87483085938
300.84699556992
300.82706576173
300.80828277638
300.78838356492
300.76671625483
300.74330109748
300.71828583533
300.69193782684
300.66460217798
300.63669315756
300.60865526134
300.58095804058
300.547460553
300.52214262721
300.49860774308
300.4774095289
300.45886214912
300.44306755974
300.43011836544
300.4199497061
300.41239900701
300.4071481987
300.40395069277
300.4024630399
300.4023940009
300.40302555537
300.40369532374
300.40428331661
300.40460368981
300.40408090888
300.40279010885
300.40039472937
300.39672535388
300.39166397982
300.3852402231
300.37755084307
300.36870938739
300.35884222771
300.34810448986
300.33664839772
300.32468368137
300.31230600225
300.29953367052
300.29160800594
300.31903729134
300.54207705553
301.94699752144
310.39770705356
371.7937873597
370.24933612751
369.19612828659
368.32302576464
367.48361192941
366.64637992028
365.78605961466
364.88909860542
363.93204271162
362.90173571454
361.78961435863
360.59489084032
359.32020273346
357.974346023
356.57378333188
355.1393359951
353.69149336307
352.2499592591
350.83194755605
349.44992646447
348.11272389205
346.82553577439
345.59154822051
344.41048702865
343.28219295373
342.20539595353
341.17790747285
340.19684795022
339.26020907893
338.36528391044
337.50941830432
336.68996801189
335.90486263585
335.1518887428
334.42886202664
333.73404403826
333.06562986087
332.42199324708
331.80154883394
331.20301910054
330.62505233825
330.0664151608
329.52603235059
329.00284940516
328.49598818466
328.00446238616
327.52758093099
327.06450326667
326.6146010168
326.17714509321
325.75153796393
325.33723601892
324.93366020619
324.54035290188
324.15677849441
323.78254995024
323.41725050468
323.06051143435
322.71195939086
322.37124570267
322.03805060043
321.7120677206
321.39300908826
321.08060388265
320.77458549782
320.47475112585
320.18087661952
319.88229814518
321.75740512061
321.2779487986
320.36390087371
319.46325290465
318.59130142078
317.74548027106
316.91569934276
316.08577897506
315.23390203638
314.33118113609
313.3410269083
312.22191578554
310.93765394472
309.47596554976
307.86876250826
306.20501922075
304.79549511358
303.42944688483
302.3993950747
301.70849884389
301.29044436299
301.06178676446
300.94816779912
300.89426407249
300.86602432362
300.84646045675
300.82830686312
300.80904065109
300.78791718357
300.76490518497
300.74013724384
300.71385642453
300.6864061316
300.65820918242
300.62971267205
300.60147992773
300.56729361201
300.54105077353
300.51651170533
300.49424144664
300.47459762015
300.45771624467
300.44366904431
300.43239862122
300.4237146642
300.41730074327
300.41293179226
300.41021102542
300.40870637005
300.40759043231
300.40635707618
300.40482266238
300.40262057829
300.39932821004
300.39492136235
300.38909022531
300.38171602548
300.37271263216
300.36216402373
300.35019119186
300.33689790534
300.32245715402
300.30705140675
300.29078649539
300.27391943999
300.25651681434
300.2386910306
300.22328330095
300.24546944901
300.46067183782
301.87963460914
310.68117039361
362.98164385953
366.59018732602
366.33250192725
365.91560117121
365.42901978144
364.85666543881
364.20228043698
363.47534591905
362.67955770077
361.80945894831
360.85401413374
359.8088064849
358.67783684095
357.46674755437
356.18808380902
354.86054614399
353.50415428807
352.13814314914
350.78049739114
349.44594192141
348.14516947891
346.8858046344
345.67206127453
344.50662836872
343.38955372808
342.32005020057
341.29752091337
340.31989243587
339.38511036971
338.4904728318
337.63427355439
336.81412569481
336.02761004341
335.27277686686
334.54783225925
333.85094784531
333.1802071777
332.53424775129
331.91149654133
331.31062155406
330.73024897627
330.16932955562
329.62668163621
329.10128607963
328.59219913546
328.09857501862
327.61963651415
327.15455581991
326.70269060352
326.26333823784
325.83593767512
325.4198659199
325.01457757849
324.61960499992
324.23446393629
323.85872608755
323.49193953163
323.13375058292
322.78380631341
322.44176380231
322.10728737753
321.78005923183
321.45979540997
321.14623222899
320.83914560843
320.53829051046
320.24336011715
319.95212178812
321.32088931708
321.47595965018
320.57162819394
319.66695612728
318.78977352986
317.94008448516
317.10964491913
316.28400889388
315.44322875167
314.56075242791
313.60239525196
312.52781661375
311.29832922849
309.89330194942
308.33063959785
306.68197791438
304.86369552237
303.49628728465
302.45847465522
301.75708400336
301.32909170197
301.0926893656
300.97412448408
300.91782883111
300.88896130062
300.8697254505
300.85225564879
300.83370101715
300.81318786439
300.79061988265
300.76610795734
300.73987523046
300.7122585548
300.68368932988
300.65460624656
300.62546936564
300.60334403197
300.57529586157
300.54888692166
300.52463052166
300.5029230438
300.48398235191
300.46784290494
300.45450506122
300.44364220388
300.43502439479
300.4283614758
300.42318446441
300.41882535882
300.41436136217
300.40941077728
300.40359580038
300.39639405917
300.38753575541
300.37685455006
300.3641188821
300.34929202541
300.33234582172
300.3135056708
300.29284483561
300.27046975727
300.2465608084
300.2213695036
300.19510454948
300.16805864539
300.14018270006
300.11164564016
300.08164920658
300.0922800877
300.28938402095
301.72457998739
311.18268223684
353.84491619935
359.05727924882
359.88744930817
360.28078121748
360.4443878779
360.42174286453
360.21546761389
359.85600310219
359.36538266305
358.76119013039
358.0497774551
357.24060016877
356.33820334967
355.34572409251
354.27437049861
353.14063221452
351.96250930995
350.75841418916
349.54551851244
348.3391034886
347.15122864119
345.99069152003
344.86330339532
343.77293452945
342.72158099175
341.71009738868
340.73820292195
339.8046493228
338.90886889006
338.04922660865
337.22399971964
336.43114219845
335.66919369946
334.93660525381
334.2316580206
333.55257781934
332.89816737416
332.26704621272
331.65787378945
331.06928718014
330.50026899307
329.94976182254
329.41675157962
328.9002214261
328.399359206
327.91341216059
327.44158514407
326.98316278095
326.53745851721
326.10393250358
325.68195561698
325.27099374379
324.87051090877
324.48005627583
324.09920820903
323.7275197949
323.36460117045
323.01006426815
322.66358273637
322.3248270941
321.99348072531
321.6692483797
321.35184815777
321.041016574
320.73649740932
320.43806374245
320.14528787656
319.86112769093
321.81245794411
321.20275751269
320.29253440232
319.39889706322
318.53398607246
317.6950133545
316.87259187891
316.05164455668
315.21162833629
314.32528535497
313.35795811604
312.26998099666
311.02586012393
309.61138196757
308.05297848578
306.43031429417
305.0332853999
303.6640863481
302.60845489376
301.88155101343
301.42882997385
301.17269946926
301.04107224173
300.97800951437
300.94688941528
300.92795840465
300.91185665203
300.8948594248
300.87568422354
300.85406475294
300.8300355864
300.80379599822
300.77565587709
300.74606653657
300.71550135265
300.68443857014
300.66293381606
300.63191288243
300.60225203663
300.57451514334
300.54915066306
300.5264773325
300.5065565025
300.48940674493
300.47460750159
300.46188203905
300.45082191338
300.4408470281
300.4308802118
300.41997415507
300.40757182551
300.39301257585
300.37566333499
300.35531472956
300.33167527244
300.30469150588
300.27441788568
300.24083167497
300.20410627677
300.16453603378
300.12235177616
300.07778087358
300.0312250592
299.98289033914
299.93315604656
299.88189324264
299.82928879774
299.77137716486
299.75020013229
299.90231077085
301.31276123259
311.75554040324
349.44986731356
354.0442574579
355.07796017926
355.72797756253
356.1543239841
356.41981676544
356.51933021525
356.47139005977
356.27001869404
355.93000000466
355.47019525312
354.89796028303
354.2158084865
353.43603348875
352.57097341929
351.63171941525
350.63291984773
349.59145394888
348.52386037839
347.44474500997
346.36700489854
345.30167730358
344.25651123747
343.23692406895
342.24646885917
341.28742111079
340.36093666302
339.46708150176
338.60567932494
337.77568377651
336.97598191964
336.20591544093
335.46403879789
334.7492147451
334.05974392815
333.39453622191
332.75256502003
332.13252766738
331.53317705686
330.95340312669
330.39239757564
329.84909140112
329.32256176888
328.81186754672
328.31638732832
327.83531881443
327.36796456499
326.91358754409
326.47163320933
326.0415432042
325.62274082912
325.2146919316
324.81690122984
324.42897608531
324.05046314699
323.68095704533
323.32006107054
322.96742745634
322.6227356324
322.28565070953
321.95586752812
321.63310011104
321.31708641063
321.00758080223
320.70434133021
320.40713712038
320.11570705965
319.85589799857
321.83529086028
321.13429821936
320.22761089558
319.34008016673
318.48134366158
317.64847937344
316.83261816466
316.01955269242
315.18982764583
314.31760982017
313.36995512598
312.3088901924
311.09968963399
309.72670420367
308.21186415531
306.62707739935
305.24580093318
303.87750380078
302.8023987267
302.04495051998
301.5613546153
301.27970297414
301.13030043618
301.05718165498
301.02186220516
301.00228013864
300.98720612271
300.97171482663
300.95390390759
300.93320501662
300.90954088236
300.88306687444
300.85409625539
300.82307620216
300.79053823537
300.75702742386
300.73496566547
300.70018022203
300.66638540009
300.634191846
300.60410276899
300.5765039229
300.55156616354
300.52929139239
300.50920304092
300.49091121848
300.47375110558
300.45700468542
300.43917225391
300.41889003862
300.39542320845
300.36768500596
300.33497049844
300.2970125545
300.25345466441
300.20418232404
300.14930222111
300.08898010996
300.02343971962
299.95324660598
299.87875093294
299.80021556783
299.7182907815
299.63301556006
299.54466349946
299.45323095834
299.35984905815
299.26235095336
299.16907672351
299.24730794693
300.50976612031
311.58580542467
346.74498962543
350.43001328801
351.45640176839
352.15202119268
352.66630567373
353.05019055463
353.30191557639
353.41799066894
353.4119657259
353.27013741478
352.99814067297
352.61148061335
352.12253141621
351.5299717469
350.84212191479
350.07495947713
349.23967125357
348.34983022455
347.4214077843
346.46821281861
345.50278444605
344.53575100512
343.57640901251
342.63179197002
341.7066865449
340.80442402707
339.9273185476
339.07668646413
338.25301286536
337.45624348952
336.68613204803
335.94208131687
335.22300943128
334.52806470207
333.85670238815
333.20770663545
332.58019181478
331.97288307978
331.38498986702
330.81579290119
330.26423661985
329.72950765887
329.21060167681
328.70700125282
328.21795807885
327.74277200719
327.28073098688
326.83123810972
326.39382143319
325.96787187408
325.55288382503
325.14832253374
324.75380045318
324.36890785576
323.99321244113
323.6263160191
323.26784207868
322.91747373364
322.57490003686
322.23980634312
321.91188988421
321.59086811659
321.27649367674
320.96856554156
320.66682547205
320.37101838173
320.08086532749
319.86732106135
321.82444234002
321.05088553223
320.14875402658
319.26816414174
318.41657940465
317.59092065763
316.78283257158
315.97904456342
315.16131715541
314.30546739373
313.38056698432
312.3506821035
311.18216730251
309.85800487187
308.39521578926
306.85702709527
305.49876460392
304.13607837724
303.04175574205
302.2506023375
301.73066544042
301.41770647379
301.2453169185
301.15803882144
301.11574920997
301.09385447488
301.07895079072
301.06456070969
301.04792180877
301.02799062697
301.00447861724
300.97748714229
300.94730391505
300.91441269203
300.87936671891
300.84275876086
300.81928395002
300.77995098685
300.74115948493
300.70354154793
300.66765237852
300.6339410833
300.60260894515
300.57376572713
300.5468336176
300.52123132103
300.4959735048
300.47001600698
300.44135040113
300.40797812737
300.36869387219
300.32188326313
300.26660982705
300.20228490401
300.12834815368
300.04479211908
299.95217540143
299.8505481771
299.73975809762
299.62088330953
299.49449066678
299.36079943269
299.22096554137
299.07522253227
298.92429771659
298.7678036894
298.60724525594
298.43912577779
298.25583001895
298.20115984459
299.04708900861
308.75216737719
345.17372659721
347.55881174089
348.59840631576
349.26411862195
349.79535967946
350.22003494436
350.53837525471
350.75784693597
350.84768084422
350.8367634793
350.71066153515
350.4627633843
350.11562060162
349.67887246903
349.1471055121
348.52586623751
347.83177888459
347.07864998222
346.27831584268
345.44257679209
344.58441834648
343.71453726628
342.84149795499
341.97301459172
341.11503687728
340.27189749418
339.44674346998
338.6418139062
337.85845111869
337.09736010343
336.35882251816
335.64270318721
334.94866251773
334.27633329074
333.62497733434
332.9937061167
332.38209761751
331.78939200302
331.21468233431
330.65736982932
330.11639130531
329.59116832356
329.08120365075
328.58571375884
328.10411605402
327.63559736943
327.17970695442
326.73598618385
326.30380670937
325.88269780634
325.47209570044
325.07165320137
324.68097731729
324.29962731564
323.92721313735
323.56334108468
323.20771483559
322.8600145519
322.5199146823
322.18712848521
321.8613685129
321.54238844909
321.22997133875
320.92385775655
320.62379489377
320.32959969703
320.04065601224
319.96790038474
321.77985950941
320.95324257509
320.05590377089
319.18288637563
318.33928754739
317.52179834385
316.72256600105
315.92928695049
315.1250434527
314.28747033132
313.3878981296
312.39276506503
311.26984506975
310.00098296053
308.59815494486
307.11533950472
305.78836160897
304.43817728449
303.3274859098
302.50167588897
301.94108377685
301.59136073209
301.39048206562
301.28420317141
301.23129875597
301.20460999187
301.18835996929
301.17420312418
301.15822519208
301.13871896095
301.1150530278
301.08720745553
301.05541505521
301.02016291081
300.98207188758
300.94174034117
300.91612367872
300.87154541876
300.82697360988
300.78305831125
300.74036909529
300.69939916202
300.66034323933
300.62336000284
300.58780827463
300.5528968865
300.51729111753
300.47932444384
300.43616982959
300.38505760432
300.3239398226
300.25040050932
300.1626325084
300.05970286205
299.94109600438
299.80674055874
299.65823572138
299.49677035447
299.32421924247
299.14042687435
298.94438287847
298.73520254727
298.51510245118
298.28271169788
298.0391062575
297.78431513493
297.5202603128
297.24400756076
296.95762060576
296.67394571841
296.72531814622
300.39679432896
344.40640792761
345.14893993699
346.2460117392
346.86894133549
347.38037063007
347.81049348863
348.1560252315
348.42267088198
348.5810485621
348.64419218694
348.62117594208
348.48443893173
348.24072227923
347.91013117117
347.5052683142
347.01365549464
346.44194071071
345.80659427739
345.12019125514
344.39271691978
343.63432483798
342.85591333949
342.06649759226
341.27323155606
340.48245120227
339.69926181843
338.92736507577
338.16969997978
337.42833097352
336.70455727837
335.99921740332
335.31276764645
334.64532576836
333.99671915519
333.36665347557
332.75483288698
332.16079301859
331.58382869811
331.02321460677
330.4787164357
329.94962717887
329.43529008747
328.93525825374
328.44868190029
327.97510868244
327.51421476917
327.06534232206
326.62804629343
326.20173031919
325.78593390018
325.38041121646
324.98468028726
324.59835002917
324.221001828
323.85226650741
323.49191197848
323.1395594118
322.79489697413
322.45762611449
322.1274635543
321.80419250981
321.48755138756
321.1772866621
320.87315659516
320.57496164236
320.28248086868
319.99478288125
320.23962573812
321.69313833343
320.83915517873
319.94832671061
319.0838369211
318.24908119406
317.44065098822
316.65122808679
315.86951106393
315.07997876906