/*--------------------------------*- C++ -*----------------------------------*\
| =========                 |                                                 |
| \\      /  F ield         | OpenFOAM: The Open Source CFD Toolbox           |
|  \\    /   O peration     | Version:  2312                                  |
|   \\  /    A nd           | Website:  www.openfoam.com                      |
|    \\/     M anipulation  |                                                 |
\*---------------------------------------------------------------------------*/
FoamFile
{
    version     2.0;
    format      ascii;
    arch        "LSB;label=32;scalar=64";
    class       volScalarField;
    location    "0.00012";
    object      Y.Liq;
}
// * * * * * * * * * * * * * * * * * * * * * * * * * * * * * * * * * * * * * //

dimensions      [0 0 0 0 0 0 0];

internalField   nonuniform List<scalar> 
109340
(
0.99999
0.99999
0.99999
0.99999
0.99998999999996
0.99998999999891
0.99998999996883
0.99998999939355
0.99998999589741
0.99998998484426
0.99998995957229
0.99998991152035
0.99998983032063
0.99998970379439
0.99998951783335
0.99998925615355
0.99998889986382
0.99998842681614
0.99998781067156
0.99998701961291
0.99998601460202
0.99998474714074
0.99998315635832
0.9999811651499
0.99997867484149
0.9999755577387
0.99997164639814
0.99996671766631
0.99996046799886
0.99995247353604
0.9999421222039
0.99992849120764
0.99991011116704
0.99988448419797
0.99984704341911
0.99978877464577
0.99999
0.99999
0.99999
0.99999
0.99998999999994
0.99998999999823
0.99998999994955
0.99998999910713
0.99998999458148
0.99998998121697
0.99998995184458
0.99998989742688
0.99998980712707
0.99998966828037
0.999989466249
0.9999891841274
0.99998880227995
0.99998829762591
0.99998764261405
0.99998680382821
0.99998574013486
0.99998440028437
0.99998271979917
0.99998061681193
0.99997798628453
0.99997469187669
0.99997055416254
0.99996533294314
0.99995869960058
0.99995019184195
0.99993913551282
0.99992450062219
0.99990461504253
0.99987655446694
0.9998347149138
0.99976738771334
0.99999
0.99999
0.99999
0.99999
0.99998999999997
0.99998999999923
0.99998999997412
0.99998999931471
0.99998999524222
0.99998998259967
0.99998995418258
0.99998990091152
0.99998981190849
0.99998967447228
0.99998947393667
0.99998919338466
0.99998881318133
0.99998831026487
0.99998765711263
0.999986820345
0.99998575885069
0.99998442137514
0.99998274342954
0.99998064310849
0.99997801532359
0.99997472365636
0.99997058856772
0.99996536973327
0.99995873843845
0.99995023230603
0.99993917702032
0.99992454147193
0.99990464303343
0.99987649290511
0.99983414995398
0.99976409888562
0.99999
0.99999
0.99999
0.99999
0.99998999999999
0.99998999999984
0.99998999999256
0.99998999951842
0.99998999594539
0.99998998412625
0.99998995682065
0.9999899049056
0.99998981746089
0.99998968174337
0.99998948303902
0.99998920437276
0.99998882603957
0.99998832489099
0.99998767328288
0.99998683766492
0.99998577664555
0.99998443853398
0.99998275823032
0.99998065296729
0.99997801646629
0.99997471064245
0.9999705536229
0.99996530181233
0.99995862189605
0.99995004491362
0.99993888662445
0.99992410013727
0.99990396665536
0.99987537492985
0.99983183601512
0.99975657142239
0.99999
0.99999
0.99999
0.99999
0.99999
0.99998999999999
0.99998999999915
0.99998999965144
0.99998999652564
0.9999899855632
0.99998995950229
0.99998990910322
0.9999898232294
0.99998968882505
0.99998949072486
0.99998921131339
0.99998883001234
0.99998832250998
0.99998765947179
0.99998680528232
0.99998571557389
0.9999843345371
0.99998259150691
0.99998039603376
0.99997763137213
0.99997414500946
0.99996973516901
0.99996413062346
0.99995695929636
0.99994769689274
0.99993557748589
0.99991943098099
0.99989732873875
0.99986572808124
0.99981689141694
0.99972728717774
0.99999
0.99999
0.99999
0.99999
0.99999
0.99999
0.99998999999129
0.99998999917895
0.9999899937303
0.99998997651118
0.99998993747996
0.99998986385566
0.99998974011885
0.99998954784249
0.99998926531989
0.99998886695322
0.99998832234917
0.99998759519044
0.99998664223393
0.99998540703439
0.99998381748174
0.99998178250963
0.99997918537137
0.99997587524277
0.99997165591747
0.99996626990141
0.99995937563961
0.99995051354495
0.99993905319393
0.99992410661961
0.99990437572204
0.99987788573593
0.99984136038402
0.99978874056753
0.9997064056316
0.99954744866392
0.9996928136769
0.99953426627229
0.99928345690545
0.99891873119627
0.99842940445323
0.99780548914583
0.99703313207783
0.99609911204767
0.99499148102702
0.99370641813694
0.99224414411258
0.99062675214821
0.98889633914939
0.98709040777717
0.98524813914397
0.98340918480595
0.98160439058009
0.9798560710869
0.97817865115523
0.97658025161683
0.97506503652576
0.97363295150713
0.97228149636847
0.97100704388373
0.9698050488196
0.96867088664756
0.96759951517007
0.96658704209435
0.96562846324623
0.96471899556185
0.96385659594028
0.96303558028604
0.96225479979162
0.96150956031513
0.96079866041794
0.96011846702559
0.95946775004207
0.95884362869339
0.95824506808207
0.95766959413332
0.95711647223632
0.9565835000096
0.95607018277033
0.95557458609956
0.95509630952578
0.95463380491296
0.9541865570065
0.9537534878437
0.95333389292647
0.95292709412481
0.95253231225009
0.95214903282077
0.95177661875372
0.95141454905655
0.95106231268548
0.95071944194432
0.95038549731453
0.95006007060073
0.94974277759019
0.94943326223313
0.94913119036502
0.94883624738856
0.94854813668343
0.94826657745707
0.94799130309472
0.94772206109508
0.94745860687713
0.9472005014413
0.94649271986767
0.94478786280131
0.94373268253758
0.94276026964032
0.94183815437748
0.94095679927593
0.94009849075175
0.9392400029746
0.93835431000151
0.93740920189464
0.93636505921198
0.93517200473863
0.93377312979802
0.93212651163717
0.93025780096866
0.92832358260863
0.92639966400633
0.92516166078336
0.92438201271442
0.92395044968476
0.92373629043523
0.92364315391887
0.92360969350326
0.92360087697974
0.92359961963088
0.92359914460212
0.923597184591
0.92359326095589
0.92358754697553
0.92358036037044
0.92357208569985
0.92356311341172
0.92355383221444
0.92354465046186
0.92353593154853
0.92352800892116
0.92351981647268
0.92351487663986
0.9235114714891
0.92350968147242
0.92350931582097
0.92351061784418
0.92351368048623
0.92351829593536
0.92352424565036
0.92353131535687
0.92353930368525
0.92354801652873
0.92355728336035
0.92356695492761
0.9235768851645
0.92358691442506
0.92359690043245
0.92360673366789
0.9236163163284
0.92362557339677
0.92363443147563
0.92364283946572
0.92365075617276
0.92365816334198
0.92366505609346
0.9236714475397
0.92367734842947
0.92368279189785
0.92368779479058
0.92369241139545
0.92369664362997
0.92370045178927
0.92369914082546
0.92368371138851
0.92360857496621
0.92331928971531
0.99965071325626
0.99945061431315
0.99913644813683
0.99869519336063
0.99812258859158
0.99741055250222
0.99655054070398
0.99553483459005
0.99435974817901
0.99302740038729
0.99154396840126
0.98992923114651
0.98821707462714
0.98644290659298
0.98463953367039
0.98284058339312
0.9810750588027
0.97936390239484
0.97772141111873
0.97615568282945
0.97467030363109
0.97326538600347
0.97193883986004
0.97068715901201
0.96950628148613
0.9683912291091
0.96733742867786
0.96634035942466
0.96539586313005
0.9644998762532
0.96364874275393
0.96283906251914
0.96206770624973
0.96133189366315
0.96062896933132
0.95995663886867
0.95931269972579
0.95869525607029
0.95810246802403
0.9575327485767
0.95698456321257
0.95645658528662
0.95594753226752
0.95545627943534
0.95498176086648
0.9545230169577
0.9540791536602
0.95364934206001
0.95323282780091
0.95282889156914
0.95243688705298
0.95205619514353
0.95168625677653
0.95132653655076
0.95097654235455
0.95063581063037
0.95030391143476
0.94998044154513
0.94966502400587
0.94935730765942
0.9490569628018
0.94876367856634
0.94847716258314
0.94819713858914
0.94792334571316
0.94765554041155
0.94739349849274
0.94713396516612
0.94593873092254
0.94450311533729
0.94348026927759
0.94252141139572
0.94161100878625
0.94073758532173
0.9398818458627
0.93901977588565
0.93812324932138
0.93715863007107
0.93608408032983
0.93484739544196
0.93339240020826
0.93168770705075
0.92978568255569
0.92787778125188
0.92640979954025
0.92516943683874
0.92438751980281
0.92395418589327
0.92373888151458
0.92364513442616
0.92361146571955
0.92360269763743
0.92360161631084
0.92360135390984
0.92359960576054
0.92359586300939
0.92359028313968
0.92358318172241
0.92357494015575
0.92356595020878
0.92355660250885
0.92354731163129
0.92353845335132
0.92353036916647
0.92352194672004
0.92351681541907
0.92351323126478
0.92351128933428
0.92351081910263
0.92351201078428
0.92351500153278
0.92351958272159
0.92352553417924
0.92353263795323
0.9235406875942
0.92354948396373
0.92355885118153
0.92356863316757
0.92357867538157
0.92358881210245
0.92359889755303
0.92360881478317
0.92361845883837
0.9236277499602
0.92363661077299
0.92364498969252
0.92365284529708
0.92366016076693
0.92366693569476
0.92367318789406
0.92367893090435
0.92368420207052
0.92368902307034
0.92369344970295
0.92369748911702
0.92370103083922
0.92369959975965
0.92368401542885
0.92360835875606
0.92331597731732
0.99963318072823
0.99938925754108
0.99900184488179
0.99847083799092
0.99780590649438
0.9970043612876
0.99606807503376
0.99499610501019
0.99378963443761
0.99245012624815
0.99098719863964
0.98941660746212
0.98775728663385
0.98603808859951
0.98429060854652
0.98254329152845
0.98082399035423
0.97915308282525
0.97754465191249
0.97600720396503
0.97454497953286
0.97315908622399
0.97184817390279
0.97060933295126
0.96943879710292
0.96833248685334
0.96728633042555
0.96629579208397
0.9653568182217
0.9644656512983
0.96361864614338
0.96281256660255
0.96204437427889
0.9613112905415
0.96061079116817
0.95994055098978
0.95929848778617
0.95868266873786
0.95809134305604
0.95752288752394
0.95697583406143
0.95644883150834
0.95594064125867
0.95545014205153
0.95497628314801
0.95451812750996
0.95407477272603
0.95364542148726
0.95322929923939
0.9528257181049
0.95243401430838
0.95205359179138
0.95168388297646
0.95132436581536
0.95097455059783
0.95063397701302
0.95030221727261
0.94997886978469
0.94966355966673
0.94935593695665
0.94905567331509
0.94876245898418
0.94847600286291
0.94819603029108
0.94792228200779
0.94765451510156
0.94739250636351
0.94713282774277
0.94592160207008
0.94449520262717
0.94347355785035
0.94251540514668
0.94160545310821
0.94073239410912
0.93987713761986
0.93901582857775
0.93812050084588
0.93715770016665
0.9360858411665
0.93485303417141
0.93340331254451
0.9317049296114
0.92980871253891
0.92790350684292
0.9264313418619
0.92518659472854
0.92439976806213
0.92396251157491
0.92374464853068
0.92364952326011
0.92361536938107
0.92360669058203
0.92360598440819
0.92360617986028
0.92360489295104
0.92360154595734
0.92359626231392
0.92358935066726
0.92358118575112
0.92357216051084
0.92356267115339
0.92355314268139
0.92354397967356
0.92353554435516
0.92352661933004
0.92352106549889
0.9235170848579
0.92351480412375
0.92351409908361
0.92351504861753
0.92351787736882
0.92352237877447
0.92352832973925
0.92353550354783
0.92354368238824
0.92355265673341
0.92356223790937
0.9235722544598
0.92358253406442
0.92359289653329
0.92360318653866
0.92361327065926
0.92362302853224
0.92363237074862
0.92364121045294
0.92364949525332
0.92365718272929
0.92366426014694
0.92367073852873
0.92367664466806
0.92368200019755
0.92368685023815
0.92369122349275
0.92369517576801
0.92369873528595
0.92370165272949
0.92369993326744
0.92368397780335
0.92360718214211
0.92330826009718
0.99959463272001
0.99924785847298
0.99870847919741
0.99801401467304
0.99719615091644
0.99627074778882
0.9952477713916
0.99413056325568
0.9929172204854
0.99160515701395
0.99020122761572
0.98870689842053
0.98713227941167
0.9854976264816
0.9838287209331
0.98215190403158
0.98049325351937
0.97887403625563
0.97730891040974
0.97580767773893
0.97437558549929
0.97301443756816
0.9717239008213
0.97050194513382
0.96934545999308
0.96825079092381
0.96721413847963
0.96623187106868
0.96530002358493
0.96441494230744
0.96357324595341
0.96277176540348
0.96200761725467
0.96127808706366
0.96058073788197
0.95991329648799
0.95927373637683
0.95866015978409
0.95807086102709
0.95750423229732
0.95695883881676
0.95643332554384
0.9559264917038
0.95543720652632
0.95496445984552
0.95450729998194
0.95406486018247
0.95363633110411
0.95322096255414
0.95281806268768
0.95242697712796
0.95204711461292
0.95167790941144
0.95131884757944
0.95096944304401
0.950629243526
0.9502978241194
0.94997478706196
0.94965975954745
0.94935239330116
0.94905236185867
0.94875935741428
0.94847309088381
0.94819328965613
0.94791969610031
0.94765206897321
0.9473901868245
0.94713035497423
0.94589696455664
0.94448339352087
0.94346377551931
0.94250667027531
0.94159737007283
0.94072484599918
0.93987029112019
0.93901007753324
0.93811647250674
0.93715628666474
0.93608829929121
0.93486107553384
0.9334189537374
0.93172968244981
0.92984188090323
0.92794063206604
0.92646385549682
0.9252127814829
0.92441857396078
0.92397531981682
0.9237535066874
0.92365622484427
0.92362127963841
0.9236126968876
0.9236125302741
0.92361340924107
0.92361281402154
0.92361006628033
0.92360523890515
0.92359862420775
0.92359058734097
0.92358152116472
0.92357183153114
0.92356195218575
0.92355233215464
0.9235433754573
0.92353369747785
0.92352749870459
0.92352290864026
0.92352010009456
0.92351902203655
0.92351960537054
0.92352217678389
0.92352654601151
0.9235324850884
0.92353975431513
0.92354811777944
0.92355734877025
0.92356723929403
0.92357759375747
0.92358821267281
0.92359889226857
0.92360945655968
0.92361974762488
0.92362962591053
0.92363898434628
0.92364771975003
0.92365577917726
0.92366311695744
0.92366973152018
0.92367565060535
0.92368090092449
0.92368553772148
0.92368961120243
0.92369317510029
0.92369631037734
0.92369904665088
0.92370092884862
0.92369866162658
0.92368199255447
0.92360359839797
0.92329555067342
0.99946713336348
0.99882230290883
0.99796062278739
0.99701951546066
0.99604520100917
0.99504070197045
0.99399816026082
0.99290640608153
0.99174987492345
0.99052252506983
0.98921394805956
0.9878237214092
0.98635654972687
0.98482629465177
0.98325477123137
0.98166623183285
0.98008343038264
0.97852804740737
0.9770164635757
0.97555966862944
0.97416432037636
0.97283371503611
0.97156842779201
0.97036733897013
0.96922822191857
0.96814811822065
0.96712373708934
0.96615163148174
0.96522857095455
0.9643510081181
0.96351578656158
0.96271991769807
0.96196063417802
0.96123537764829
0.96054177735551
0.95987767496472
0.95924107299445
0.95863015556444
0.95804323736833
0.95747877274099
0.95693532927081
0.95641159556867
0.9559063766729
0.95541857222182
0.95494718031249
0.95449126310813
0.95404996838826
0.95362249056553
0.95320809695271
0.95280609225485
0.95241583771792
0.9520367379122
0.95166823693919
0.95130982161178
0.9509610124211
0.95062136342239
0.9502904534925
0.94996788922611
0.94965329947021
0.94934633767182
0.9490466790049
0.94875401773784
0.94846806691936
0.94818855624099
0.94791523000557
0.94764784814474
0.9473861911008
0.94712615863397
0.94586429174134
0.94446792615336
0.94345093402136
0.94249514624221
0.94158670272421
0.94071489800984
0.93986127022124
0.93900248366087
0.93811111345507
0.93715431961997
0.93609135788415
0.93487138670688
0.93343915031516
0.93176176680824
0.92988502248872
0.92798912765208
0.92650739033748
0.92524810260603
0.92444408012537
0.92399273087456
0.92376552591199
0.92366525024715
0.9236291507797
0.9236206175734
0.92362112459821
0.92362293355669
0.92362321220392
0.92362126557069
0.92361705935498
0.9236108587578
0.923603014893
0.9235939183897
0.92358398477806
0.92357365988105
0.9235634366902
0.9235538009313
0.92354314386084
0.92353607627332
0.92353065940911
0.92352712178108
0.92352550579301
0.9235256083748
0.92352781222101
0.92353198217159
0.92353788400476
0.92354526045622
0.92355385019115
0.92356340177791
0.92357367936185
0.92358445282528
0.92359548512501
0.92360653860803
0.92361740352321
0.92362789043331
0.92363783040761
0.92364709221709
0.92365554413556
0.92366313750082
0.92366978965344
0.92367555616865
0.9236804870635
0.92368462421201
0.92368807950504
0.92369095508527
0.9236932739019
0.92369507380092
0.92369640876692
0.9236966788812
0.9236933795858
0.92367546751162
0.92359490974365
0.92327477520352
0.99859879618937
0.99703616326881
0.99596111004211
0.99504751183001
0.99415909787058
0.99326611987696
0.9923441994012
0.99138036194982
0.99035382474179
0.98925235201568
0.98806934675016
0.9868042001555
0.98546050812948
0.98404828900376
0.98258582856167
0.98109582012154
0.97959983993269
0.97811870099153
0.9766694253982
0.97526450671339
0.97391230784291
0.97261752873761
0.97138205912964
0.97020582683516
0.96908747361275
0.96802480787817
0.9670151105912
0.96605543339703
0.96514291600964
0.96427437043787
0.96344690076037
0.96265773521985
0.96190426212647
0.96118407589296
0.96049493494482
0.95983477550757
0.95920166758191
0.95859385667436
0.95800971406684
0.95744774503975
0.95690654817944
0.95638485134904
0.95588147711275
0.95539535974484
0.95492550717461
0.95447100795299
0.95403101439528
0.95360473997857
0.95319145768936
0.95279048390389
0.95240118803245
0.95202297665305
0.95165530301792
0.95129765510157
0.95094956109686
0.95061057863361
0.95028029244674
0.94995831279191
0.94964427075859
0.94933782131212
0.94903864060489
0.9487464247395
0.94846088893641
0.94818176524192
0.94790879962578
0.94764175222526
0.94738040381507
0.94711999211133
0.94582367537346
0.94444895390536
0.94343497251432
0.94248072289432
0.94157335954639
0.9407024810827
0.93985001736136
0.9389929890664
0.93810435473507
0.93715170936017
0.93609489621979
0.93488380428333
0.93346369060596
0.93180094426367
0.9299379495969
0.9280489700874
0.92656207210707
0.92529277509248
0.92447652832505
0.92401494420314
0.92378083212063
0.92367664426698
0.92363895217141
0.92363035190495
0.92363163185699
0.92363456512715
0.92363591280786
0.92363496735951
0.92363155409818
0.92362589803925
0.92361833020175
0.92360923550078
0.92359903699224
0.92358819581961
0.92357723022775
0.92356674925785
0.9235549424731
0.92354677746182
0.92354031206199
0.9235358356646
0.92353346027422
0.9235329947687
0.92353469709733
0.92353858189507
0.92354440356851
0.92355188267032
0.92356072412296
0.92357064242618
0.92358136370142
0.92359261059837
0.92360409471135
0.92361553491925
0.92362666857142
0.92363727250444
0.92364712504092
0.92365604551986
0.9236638581041
0.92367054124731
0.92367598392901
0.92368035041493
0.92368368344144
0.92368619070108
0.92368792238854
0.92368888722695
0.92368914392084
0.92368876680807
0.92368783223196
0.92368586684276
0.9236804713206
0.92366049860357
0.92357704292374
0.92324142265277
0.98756681410554
0.99285997240174
0.99274087967255
0.99237741845445
0.99190109316161
0.99131261093806
0.99062912781263
0.98986406046026
0.98901982329516
0.98809428246524
0.98707961378073
0.98597409700447
0.98478372273977
0.98351540456794
0.98218261209226
0.98080532597415
0.97940504133711
0.97800176309334
0.97661479860557
0.97525850441504
0.97394336768444
0.97267638917708
0.97146141600484
0.97030005251494
0.96919226751246
0.96813684264932
0.96713187662392
0.96617502869261
0.96526386361553
0.96439560094176
0.96356756360674
0.96277721454998
0.96202212056038
0.96129998246185
0.9606086610388
0.95994617430853
0.959310664129
0.95870040421228
0.95811379573899
0.95754936833133
0.95700575280593
0.95648168558289
0.95597599720525
0.9554876246726
0.95501558276739
0.9545589638731
0.95411691896815
0.9536886645088
0.95327346892802
0.95287065161777
0.95247957861383
0.95209965602137
0.95173033472119
0.95137109895467
0.95102147343893
0.9506810135757
0.95034930403148
0.95002595382981
0.9497105919774
0.94940286924901
0.94910245779166
0.94880905043578
0.94852235939099
0.94824211477744
0.94796806252258
0.94769996338609
0.94743758812882
0.94718000428511
0.94631991001221
0.94469945783342
0.94366160607299
0.94269678490506
0.94177978048046
0.94090238251904
0.94004864873879
0.93919698424439
0.93832195566105
0.9373931307005
0.93637323568577
0.93521546326443
0.93386563116683
0.93228051419868
0.93047422496518
0.92857922500938
0.92662805410677
0.92534708676937
0.92451624582256
0.92404223080672
0.92379960403706
0.92369048573081
0.92365066799964
0.92364180824006
0.92364390675202
0.92364811937412
0.92365077040495
0.92365097480786
0.92364853344526
0.9236435676214
0.92363638019091
0.92362734531968
0.92361688980797
0.92360549081239
0.92359367087661
0.92358204533294
0.92357668232683
0.92356646892425
0.9235580425781
0.92355177546378
0.92354788657501
0.92354634101786
0.92354706658979
0.92355034775676
0.92355594716329
0.92356354605324
0.92357278366535
0.92358330525107
0.92359475846124
0.9236067676602
0.92361894047317
0.92363091122635
0.92364229167291
0.92365268510506
0.92366175423424
0.92366928853747
0.9236750956029
0.92367923042425
0.92368203461881
0.92368348088003
0.92368345811674
0.92368213054046
0.92367957314308
0.92367588567122
0.9236712053716
0.92366562944863
0.92365927270739
0.92365176614456
0.92364103233577
0.92361589279806
0.92352648124195
0.92316141967579
0.97725123260493
0.98477249216358
0.98576030098405
0.98627918597633
0.98651680674954
0.98653760016235
0.98635554162033
0.98599349920922
0.98549255070898
0.98486823978902
0.98412666595515
0.98327987548527
0.9823368686552
0.98130446434482
0.9801953453123
0.97902683547544
0.97781842296371
0.97658911492913
0.97535604376248
0.9741356322734
0.97293980412707
0.97177688190465
0.97065253733061
0.96956997814369
0.96853068717854
0.96753499719302
0.96658224482004
0.96567123601928
0.96480033754283
0.96396761985313
0.96317110203602
0.96240879313734
0.96167874169952
0.96097905360462
0.96030790907117
0.9596636038608
0.95904452073497
0.95844915006349
0.95787607483821
0.95732397901843
0.95679163725654
0.95627791407843
0.9557817528492
0.95530217384137
0.95483827279094
0.9543892043589
0.95395418395578
0.95353247275282
0.95312338158575
0.95272626732676
0.95234053257728
0.95196562136041
0.95160101300051
0.95124622048891
0.95090078699078
0.95056428806837
0.95023632575001
0.94991652536028
0.9496045318647
0.94930000862427
0.94900263922459
0.94871212668529
0.94842819336133
0.94815057881674
0.94787903570941
0.94761332788555
0.94735322981192
0.94708904272388
0.94566582070814
0.94436940509381
0.94336625900991
0.94241842809204
0.94151597843869
0.94064936889693
0.93980196643098
0.93895222906899
0.93807471195183
0.93713882579398
0.93610682230595
0.93493158376276
0.9335606265883
0.93195791816961
0.93015291892502
0.92829603252126
0.92679459655112
0.92548603972407
0.92461928922114
0.92411348374698
0.92384856414353
0.92372605282779
0.9236799244503
0.92366964384596
0.92367319520935
0.92368025777218
0.92368606139049
0.92368910277071
0.92368911647389
0.92368603080324
0.92368001085125
0.92367138702994
0.92366057709945
0.9236480783086
0.92363445597029
0.92362040366017
0.92361407554588
0.9236004659086
0.92358859568733
0.92357904346418
0.92357223977327
0.92356840622204
0.92356737626068
0.92356928794711
0.9235742007596
0.92358172735453
0.92359138109052
0.92360265689706
0.92361502914289
0.92362789704261
0.92364062015606
0.92365256175286
0.92366302476552
0.92367138924795
0.92367711928544
0.92368030112157
0.9236811156389
0.92367925265426
0.92367464886231
0.92366719925073
0.92365700304376
0.92364422058488
0.92362910543726
0.92361186595284
0.92359280261742
0.92357206675975
0.92355004010991
0.92352629930788
0.92349965706647
0.92345879032457
0.92335575701571
0.92294057226978
0.97197156439975
0.9795245076348
0.98071290483316
0.98145767444171
0.98196549699123
0.98229701162994
0.98244146117431
0.98241700713119
0.98223133857913
0.98188443715684
0.98141899797208
0.98083590908618
0.98013308043416
0.97932949365501
0.97843944873354
0.97747644221672
0.97645712485853
0.97539915218965
0.97431926940177
0.97323213366076
0.9721511153184
0.97108698001273
0.97004742297253
0.96903765543759
0.96806083517382
0.96711879718674
0.96621237548777
0.96534133544806
0.96450494645122
0.96370216313452
0.96293169769083
0.96219211882824
0.96148197685285
0.96079981262861
0.96014416521155
0.95951359326143
0.95890673413647
0.95832227250171
0.95775894504965
0.95721557890044
0.95669108024923
0.95618442745694
0.95569465169607
0.95522085186533
0.95476219227679
0.95431789321287
0.95388721788686
0.95346947447999
0.95306401553924
0.95267023319313
0.95228756164943
0.95191547408026
0.9515534797188
0.95120111345071
0.95085793712918
0.95052353846095
0.95019753046949
0.94987955007418
0.94956925436788
0.94926631971032
0.94897044022095
0.94868132783962
0.94839871180089
0.94812233788473
0.9478519655185
0.94758736329391
0.94732830490522
0.94705840649272
0.9455348329133
0.94429589448065
0.9433016490722
0.94235967921694
0.94146192945682
0.94059949528027
0.93975686350079
0.93891368785422
0.93804591014579
0.93712453975672
0.93611392405571
0.93496957671151
0.93364119239651
0.93209133638168
0.9303394266474
0.92851570191914
0.92700829092251
0.92566826629266
0.92475730700535
0.92421020352654
0.92391517535311
0.9237736459418
0.92371756162407
0.92370391597722
0.92370808176498
0.92371797830984
0.92372740029078
0.92373404737731
0.92373713634357
0.92373664843322
0.92373248340899
0.92372485543735
0.92371414100179
0.92370083071941
0.92368552195769
0.92366896455969
0.92366116406055
0.92364350173933
0.92362733066761
0.92361347365583
0.92360263795995
0.92359532361907
0.92359173974703
0.92359153485405
0.92359510368841
0.92360208851705
0.92361183781574
0.92362360868713
0.92363655934693
0.92364967933818
0.92366196199913
0.9236722623806
0.92367935603972
0.92368260878828
0.92368200511074
0.92367699885258
0.92366664044409
0.92365066696479
0.92362898456479
0.92360164651707
0.92356880429795
0.92353068120108
0.92348775772097
0.92344036431723
0.92338907823828
0.92333412253799
0.92327651738912
0.92321545511568
0.92315191874414
0.92307349257717
0.92294338338364
0.92247283271235
0.96774247839458
0.97572555994158
0.97697629313261
0.97775379500298
0.9783377961875
0.97877014607442
0.97907886345911
0.97922966685327
0.97923625907456
0.97911828824474
0.97884177244225
0.97845478455393
0.9779703768354
0.9773694733644
0.9766680840142
0.97588676888459
0.97503916344325
0.97413977088126
0.97320489365124
0.97224911228449
0.97128483625643
0.97032253087429
0.96937166474603
0.9684387908197
0.9675286373708
0.96664442898037
0.96578816248166
0.96496076521392
0.9641624759122
0.96339309160592
0.96265196789955
0.9619382058697
0.96125084032188
0.96058880558228
0.95995099512623
0.9593362836982
0.95874353923792
0.95817169164126
0.95761969738244
0.95708653709879
0.95657124293041
0.95607291279948
0.95559070113939
0.95512378390118
0.9546713887253
0.95423279894375
0.95380734377042
0.95339437631487
0.95299329080591
0.95260352638369
0.95222455217203
0.95185587274551
0.95149702260625
0.95114756388669
0.95080708304133
0.95047518672692
0.95015150440753
0.9498356871802
0.9495274064819
0.94922635229456
0.9489322317559
0.94864476847139
0.94836370139693
0.9480887844142
0.94781978693591
0.94755648791085
0.94729867509017
0.94701533897126
0.94538710085149
0.94420662549507
0.94322180527422
0.94228643884924
0.94139425691944
0.94053695752531
0.93970018115667
0.93886489304095
0.93800858700195
0.93710411641728
0.93611824290651
0.93500955749134
0.9337305123578
0.93224282504594
0.93055567447483
0.92877674565256
0.92726987798886
0.92589747628889
0.92493503325283
0.92433750869613
0.92400357749842
0.92383620006076
0.92376528777189
0.92374522426066
0.92374829512022
0.92376035702509
0.92377346907937
0.92378419185037
0.92379114286959
0.92379384439194
0.92379233219897
0.92378647298278
0.92377655425168
0.92376302044012
0.92374646085252
0.92372763747506
0.92371833629597
0.92369630634625
0.92367518679922
0.92365607895474
0.92364003334412
0.92362791840005
0.92362028853865
0.92361718727401
0.92361841685012
0.92362406543567
0.92363328833259
0.92364497541252
0.9236577603642
0.923670035985
0.92368006621789
0.92368581574067
0.92368620410644
0.92368023239105
0.92366587648032
0.92364186790205
0.92360712794005
0.9235609072488
0.9235027849795
0.92343263868603
0.92335053163131
0.92325677781177
0.92315221034893
0.9230372905626
0.92291312293926
0.9227802147864
0.92264095034542
0.92249335479595
0.92234299924118
0.92217526708884
0.92198011470978
0.92144495265753
0.96379970437066
0.97270447456834
0.97402920288412
0.97480495805502
0.97539432777853
0.97586246489575
0.97622345895151
0.97647072438225
0.97659205384336
0.97659805699904
0.97649336631302
0.97624665466318
0.97589898173482
0.97546869203998
0.97493687450744
0.97431093054344
0.97361194829301
0.9728560839122
0.97205468554408
0.97122057487732
0.97036712486573
0.96950506718039
0.9686427724122
0.96778825763216
0.96694695873916
0.96612295425363
0.96531929623799
0.96453803268333
0.9637802823663
0.96304655835764
0.96233692810465
0.96165110664451
0.96098854762673
0.9603485768291
0.95973047014101
0.95913340386867
0.95855648199488
0.95799883118189
0.95745960243173
0.95693794953414
0.95643307242042
0.9559441779129
0.95547052417528
0.95501140679374
0.95456613231565
0.95413405601544
0.95371456742776
0.95330708841735
0.95291105648991
0.95252594723879
0.95215127599542
0.95178657819437
0.95143141167603
0.95108536173938
0.95074803945668
0.95041907452571
0.95009811456882
0.94978482900303
0.9494789069087
0.949180053861
0.94888799135774
0.94860245513926
0.94832319568051
0.94804997864015
0.94778258224581
0.94752080139961
0.94726446035889
0.94694019857879
0.94522560111067
0.94410120870422
0.9431261525847
0.94219811812064
0.94131230782583
0.94046103440086
0.9396311277288
0.9388049590038
0.93796167871866
0.937076163869
0.93611781994496
0.93504868669232
0.93382454818507
0.93240709194767
0.93079591099842
0.92907509108515
0.92757871183837
0.92617708735505
0.92515828241569
0.92450193905726
0.92411951322866
0.92391823499315
0.9238263037136
0.92379536804909
0.92379468327348
0.92380735339881
0.92382361702645
0.92383849932467
0.92384977787752
0.92385644481762
0.92385819856283
0.92385495909802
0.92384668561759
0.92383373463236
0.92381664022658
0.92379611526635
0.9237858067784
0.92375954983324
0.92373322334476
0.92370819705343
0.92368587716728
0.92366757246846
0.92365431531735
0.92364668056416
0.92364447513757
0.92364757442152
0.92365525861938
0.92366588825228
0.92367731168061
0.92368695026174
0.9236917152144
0.92368928361363