/*--------------------------------*- C++ -*----------------------------------*\
| =========                 |                                                 |
| \\      /  F ield         | OpenFOAM: The Open Source CFD Toolbox           |
|  \\    /   O peration     | Version:  2312                                  |
|   \\  /    A nd           | Website:  www.openfoam.com                      |
|    \\/     M anipulation  |                                                 |
\*---------------------------------------------------------------------------*/
FoamFile
{
    version     2.0;
    format      ascii;
    arch        "LSB;label=32;scalar=64";
    class       volScalarField;
    location    "0.00012";
    object      Ybar.Liq;
}
// * * * * * * * * * * * * * * * * * * * * * * * * * * * * * * * * * * * * * //

dimensions      [0 0 0 0 0 0 0];

internalField   nonuniform List<scalar> 
109340
(
0.99909178605374
0.99908814797544
0.99908118481182
0.99907268916221
0.99906321521898
0.99905323906881
0.99904294348946
0.9990323970698
0.99902159568192
0.99901005682502
0.99899694703167
0.99898134521696
0.99896212831451
0.9989379373179
0.99890715480459
0.9988678686677
0.99881780616769
0.99875424719548
0.99867389743892
0.99857271779844
0.99844568213541
0.99828647823504
0.99808709722281
0.99783727825468
0.99752371880391
0.99712896395388
0.9966297652625
0.99599459053601
0.99517967901124
0.99412249635555
0.99273029121843
0.99085879591242
0.98826991454107
0.98454276456384
0.97887668272774
0.96963059071355
0.99909233063072
0.99908766073802
0.99907984012214
0.99907075586651
0.99906098662004
0.99905095215608
0.99904077310251
0.999030403494
0.99901954758141
0.99900769210606
0.99899407575126
0.99897773435015
0.99895748419603
0.99893190140112
0.99889929649929
0.99885766796745
0.99880464435342
0.99873737760561
0.99865240696089
0.9985454731439
0.99841126483663
0.99824309337476
0.99803245172173
0.99776841172226
0.99743676623585
0.99701880887946
0.99648952409975
0.99581480973892
0.99494702819677
0.99381753087526
0.99232335688164
0.99030189930929
0.98747866074036
0.98335234864341
0.9769112805126
0.96596399825674
0.99909435525503
0.99908896052621
0.99908036021181
0.99907106434329
0.99906138003892
0.99905149179366
0.99904137198131
0.99903098573205
0.99902012026884
0.99900827395381
0.99899469550805
0.99897841661218
0.99895824832518
0.9989327633364
0.99890027104303
0.99885877379001
0.99880589981804
0.99873880435737
0.99865402928212
0.99854731947887
0.99841336454135
0.99824547631633
0.99803514816581
0.99777144936109
0.99744016964456
0.99702259584808
0.99649370298876
0.99581937917392
0.99495198134208
0.99382284852647
0.99232896318081
0.99030733141955
0.9874805173835
0.98333099492482
0.97676620156885
0.96514343574751
0.99909716623544
0.99909068081757
0.99908166173291
0.99907211623933
0.9990622548458
0.99905216829232
0.99904188553364
0.99903139405896
0.9990204759528
0.99900862757793
0.9989950978487
0.99897891318118
0.99895887747572
0.99893355721
0.99890125427096
0.9988599625305
0.99880730219199
0.99874041865599
0.99865583766336
0.99854928637258
0.99841541597137
0.99824748930881
0.99803692850786
0.99777269820139
0.99744044558393
0.99702124927624
0.99648978975958
0.99581153442088
0.9949382337567
0.99380032283198
0.99229335207946
0.99025183374472
0.98739117591687
0.98316680832431
0.97635481338299
0.96347121771508
0.9991015821878
0.99909318463852
0.99908286960073
0.99907268248595
0.99906255785988
0.99905237530626
0.99904206305598
0.99903159150558
0.9990207307902
0.99900897301276
0.99899557169137
0.99897954557657
0.9989596781558
0.99893450458137
0.99890228002592
0.99886093067471
0.99880798371278
0.99874045840316
0.99865466089835
0.99854610176929
0.99840905584173
0.9982362945254
0.99801856039856
0.99774386034018
0.99739653017872
0.99695580358273
0.99639377990598
0.99567228115827
0.99473784230016
0.99351327341863
0.99188245673655
0.9896621433728
0.98653393949398
0.98187677462682
0.97420371804626
0.95829285233592
0.99910975347114
0.99909445867382
0.99908305638818
0.9990726110097
0.99906242851986
0.99905222384859
0.99904189588857
0.99903134752081
0.99902021628343
0.99900778508082
0.99899301872904
0.99897455589184
0.9989506970245
0.99891937119302
0.99887807990159
0.99882381299303
0.99875292943211
0.99866102810158
0.99854283120071
0.99839102631217
0.99819656880204
0.99794782988406
0.99762972339012
0.99722253783175
0.99670031763999
0.99602854073035
0.99516074031098
0.99403336526868
0.99255761290052
0.99060568550241
0.98798556656706
0.9843985018846
0.97932194764451
0.97173706919548
0.95913726428291
0.93100002428812
0.95371394793075
0.92702105999155
0.88603996556469
0.83038949082314
0.76259061768209
0.68534046067177
0.60195352911598
0.51611110365779
0.43178694568521
0.35285147950067
0.28075144912369
0.22162404876771
0.17261881244347
0.13366897827048
0.10368610684979
0.080737349174445
0.063363489683602
0.050180729877172
0.040130516095805
0.032460746240827
0.026564080227134
0.021961281658366
0.01833804364324
0.015467927143168
0.013168711120883
0.011293420111163
0.009748024563794
0.0085188523032037
0.0074469928621948
0.006568476969478
0.0058321762346323
0.0051859459984459
0.0046596876146256
0.0041785403956431
0.0037882579957233
0.0034241137538579
0.0031273389248701
0.002847133030848
0.0026164058353321
0.0023980559393892
0.0022150653979582
0.0020435001492541
0.0018950803540283
0.0017597390327849
0.0016365621819274
0.0015281153876006
0.0014254302582383
0.001336732006596
0.0012517659562443
0.0011773472230166
0.0011075727598147
0.001043614769704
0.00098497885388096
0.00093093893619209
0.00088104548823519
0.00083487689270821
0.0007920698257714
0.00075231295367454
0.0007153359504151
0.00068089430631368
0.00064876197890111
0.00061873907176082
0.00059065342691034
0.00056435184401269
0.0005396917466582
0.00051653973254134
0.00049477531282001
0.00047403069816794
0.0006219324780425
0.0026440556635954
0.0030393684259188
0.0029972954651737
0.0029423253208552
0.0028946225572892
0.0028545780397158
0.0028211511128144
0.0027936533859003
0.0027709529328957
0.0027512229973034
0.0027316936215583
0.0027085366999832
0.0026779981001548
0.0026389221553709
0.0025952120198574
0.0025494784016359
0.0025201601539625
0.0025009095544504
0.0024886881752698
0.0024799410529101
0.0024723931019172
0.0024649068200014
0.0024571364656422
0.002449098936353
0.0024409123397837
0.0024327258787716
0.0024244540336643
0.00241698057591
0.0024087059498574
0.0024002981538722
0.0023917851922038
0.002383134041082
0.0023743851528136
0.002365659071144
0.0023570070821036
0.002346685609291
0.0023394295709739
0.0023331393019343
0.0023279866356427
0.002324002091341
0.0023213171670177
0.0023202702711748
0.002320600579383
0.0023220534632856
0.002324869722886
0.0023289829630337
0.0023343591391393
0.0023412719117373
0.0023496860173835
0.002358697384533
0.0023678802568015
0.0023782442082426
0.0023886206920847
0.0023992727551803
0.0024102602771803
0.0024210089872243
0.0024311521198264
0.0024405738699256
0.0024493368932913
0.0024574679511273
0.0024649959421178
0.0024719954101517
0.0024787574187759
0.002485430424108
0.0024923769386413
0.0024993830638297
0.0025076654360131
0.0025152304845058
0.0025219772577661
0.0025326392057467
0.0024531659242883
0.94598003286775
0.91181005062584
0.86109959131277
0.79622471590028
0.72094080166177
0.63831852030967
0.55284163313747
0.46840453686954
0.38861188412881
0.3161315228008
0.25263581035198
0.19879223543507
0.15590780166352
0.12176166728724
0.095046780650399
0.074533748205517
0.058831156587997
0.046839416796155
0.037670423174657
0.030613254509786
0.025141615213453
0.020865278997322
0.017486550986176
0.014789222444757
0.012617637593981
0.010852969436777
0.0094035413569201
0.008204092266397
0.0072054733859978
0.0063629473337943
0.0056523894196947
0.0050453471264766
0.0045256244270197
0.0040764245157999
0.0036871612401689
0.0033475092707197
0.0030500049440762
0.0027880546652486
0.0025567348333327
0.0023512136950674
0.0021685522348829
0.0020049120068502
0.0018586306212626
0.0017265539865539
0.001607871534971
0.001500014372898
0.0014025218435535
0.0013135114494948
0.0012325455744486
0.0011583766499465
0.0010904820044323
0.0010280502766342
0.00097056218906815
0.00091760925266442
0.0008686751568887
0.0008233900596372
0.00078138632611017
0.00074236942738022
0.00070606139367549
0.00067222660076952
0.00064064926489745
0.00061114089974753
0.00058352980926238
0.0005576630631773
0.00053340210962244
0.00051062226671313
0.00048921201257482
0.00046978511902114
0.00098920361227722
0.0028819139499767
0.0030349971944567
0.0029814577172198
0.0029284217831022
0.0028827960134037
0.0028445525138305
0.0028125697063625
0.0027862689516696
0.0027643607153097
0.0027448363440155
0.0027246653385671
0.0026998879917428
0.0026671245543045
0.0026263335904351
0.0025825844161732
0.0025473712239854
0.0025178342189721
0.0024987012142891
0.0024866915582038
0.0024782332444041
0.0024709928034709
0.0024637807864467
0.0024562420067514
0.0024484095650874
0.0024404122001349
0.0024323894796272
0.0024243146600832
0.002416878090003
0.0024087310979326
0.00240041453748
0.0023919947493277
0.0023834427096641
0.0023747919359767
0.0023661461911634
0.0023575505848136
0.0023473324651116
0.0023400932049364
0.0023337895711314
0.0023285983031969
0.0023245795646629
0.0023218667758862
0.0023207473078536
0.0023209829896064
0.002322364194244
0.0023251253845744
0.0023292149949982
0.0023345482363982
0.002341429510704
0.0023497907057176
0.0023587223883022
0.0023679311395957
0.0023782737569467
0.0023886330986984
0.0023993450991926
0.0024103452458766
0.0024210919160899
0.0024312607965285
0.0024407350489927
0.0024495653457239
0.002457780800512
0.0024654140316691
0.0024725546927727
0.0024794421386834
0.0024861644294457
0.0024931430811872
0.0025001597154238
0.0025084052158425
0.0025159936133219
0.0025225651838441
0.0025321965327314
0.0024522683407874
0.94176770490014
0.89869224480832
0.83690106434635
0.75947380393282
0.67579502455438
0.58942959558409
0.50443312745466
0.42426395877263
0.35125001308653
0.28581446698134
0.23085300148262
0.18417476582884
0.14583752458679
0.11505910443146
0.090700393479093
0.071670262961365
0.05694127421715
0.045601554231315
0.036848642949668
0.030047794665892
0.024745085587333
0.020584797138771
0.017282865934597
0.014639538385331
0.012506890336662
0.010768528672742
0.0093391471332637
0.0081543448540765
0.0071655668725872
0.0063331750735067
0.0056269105512279
0.0050256892114889
0.0045085499467415
0.0040631580262061
0.003675639937011
0.003338310446185
0.003041942916798
0.002781649463753
0.0025509369497969
0.0023467055220036
0.0021643378604901
0.0020016967850967
0.0018554955034882
0.0017241930030369
0.0016055230328085
0.0014981643150491
0.0014007209989956
0.0013119901939742
0.0012311616979671
0.0011571174875661
0.0010893754364217
0.0010270588946423
0.00096972675171501
0.00091681026681585
0.00086793451058954
0.00082270175919106
0.0007807562372621
0.0007417924606938
0.00070553226469129
0.00067174001093659
0.00064020304424585
0.0006107322534422
0.00058315421780061
0.00055731635810976
0.0005330820734547
0.00051032793960352
0.00048894145340944
0.00046960447028637
0.001006262744526
0.0028868190638
0.0030347792110002
0.0029813294042384
0.0029284738054455
0.0028829798107185
0.0028448506216227
0.0028129616734191
0.0027867291614201
0.0027648712353714
0.0027453864213133
0.0027252557747602
0.0027005367036053
0.0026678521643853
0.0026271116422025
0.0025832865073512
0.0025478987567737
0.0025180689541313
0.0024987061590916
0.0024865551689759
0.00247801044539
0.0024707338900737
0.0024635308084374
0.0024560241779076
0.0024482313981588
0.0024402820372594
0.0024323095178795
0.0024243997772189
0.0024168872171792
0.0024088524752659
0.0024006516376638
0.0023923262765362
0.0023838659642523
0.0023753134824454
0.0023667547056464
0.0023582406084221
0.0023482232018347
0.0023410014123066
0.0023346864350596
0.0023294572241392
0.0023254331175706
0.002322707437201
0.002321394997946
0.0023214579243772
0.0023227485428427
0.0023253712366563
0.0023293351231073
0.0023345871261328
0.0023414055541704
0.0023496317611281
0.0023583939989362
0.0023675822349851
0.002377856934293
0.0023882217828864
0.0023989537710446
0.0024098810076757
0.0024205402834303
0.0024307255828458
0.0024402684260782
0.0024491946296935
0.0024575265344159
0.0024652982641453
0.0024725885256717
0.0024796066911341
0.0024864557894145
0.0024935032268827
0.0025007634447676
0.0025088270096054
0.0025163472312187
0.002523679460886
0.0025312871987458
0.0024500052397933
0.93235190619336
0.86895705567416
0.78451713618909
0.68959522392489
0.59616581597791
0.50995400901409
0.43160977565137
0.36228561283786
0.30132302278205
0.24795564189291
0.20382632598918
0.16549977411252
0.13317437468676
0.1066018178802
0.085054388241388
0.067951406588584
0.054491264535378
0.043949379037054
0.035717326656679
0.029282171257422
0.02421623524311
0.020197163459985
0.017002618320888
0.014436346313293
0.01235306879529
0.010650432468978
0.0092491081143124
0.0080847316812579
0.0071095464310173
0.0062889777719317
0.0055917616412498
0.004996377387516
0.0044850581616702
0.0040432783213761
0.0036595671403406
0.0033245090835696
0.0030307581370711
0.0027718611499408
0.0025429723690796
0.0023397355122735
0.0021585526292089
0.0019966054245006
0.0018512002395607
0.0017204466566061
0.0016022144414062
0.001495327357528
0.0013981472673916
0.0013098128674955
0.0012291197119835
0.0011553704298117
0.0010877552828385
0.0010256347580945
0.00096845251548443
0.00091566019601019
0.00086688663517442
0.00082173108329291
0.00077986431012399
0.00074097119873574
0.00070478160528093
0.00067105537111069
0.00063957787596711
0.00061015826086662
0.00058262608042656
0.00055683102522253
0.00053263684022872
0.0005099193145722
0.00048856425236539
0.00046936144252453
0.0010330520399144
0.0028925894824781
0.0030344176388816
0.002981154552559
0.0029285473933982
0.0028832466521153
0.0028452804664513
0.0028135204776866
0.0027873868680125
0.0027656009131513
0.0027461721728572
0.0027260992102164
0.0027014640665743
0.0026688910033551
0.0026282279581459
0.0025843384338619
0.0025487072307251
0.0025185622767598
0.0024989094606202
0.0024865423965549
0.0024778519202386
0.0024705004068978
0.0024632641982271
0.0024557539893221
0.0024479842487529
0.0024400822156641
0.0024321768712644
0.0024243691969331
0.0024168760741261
0.0024090022389955
0.0024009857553288
0.0023928335649472
0.0023845419735944
0.0023761563748002
0.0023677516983699
0.0023593994618897
0.0023495485557868
0.0023423905125771
0.0023360815109357
0.002330810224108
0.0023267275070343
0.0023239250482625
0.0023224789454845
0.0023223475550359
0.0023234676315359
0.0023258800014628
0.0023296663031369
0.0023347778789187
0.0023414761816219
0.0023494928314093
0.0023580642147327
0.002367248979254
0.0023773699972568
0.0023876566243842
0.0023983914462469
0.0024092827175177
0.002419945293189
0.0024301827293222
0.002439834835131
0.0024489042984521
0.0024574206776703
0.0024654149579536
0.0024729271422789
0.0024801573780836
0.002487185606504
0.0024943851422161
0.0025017002896178
0.002509794307371
0.0025173807514164
0.002524693569651
0.0025321758039795
0.0024486458675653
0.90081500067233
0.78443843003205
0.66063390421088
0.55539334041808
0.47009879784397
0.3998543648887
0.34159169897607
0.29142074182035
0.24776689148486
0.20947028806058
0.17520731188082
0.14503779838578
0.11897468924296
0.09690740832723
0.078581972209134
0.063595044366767
0.051550372507532
0.041964248358066
0.034357598883526
0.028327213988809
0.02354055287377
0.019726421117549
0.016653344411302
0.014174156808031
0.012157873744743
0.010503565436352
0.0091339805358967
0.0079947009151147
0.0070392346804453
0.0062321056505116
0.0055462465304479
0.0049593356313668
0.0044547340165992
0.0040179623800823
0.0036386894785494
0.0033069925463473
0.0030160386893244
0.0027594292682215
0.0025325248021851
0.0023307151681529
0.0021509513750839
0.0019899863738456
0.0018455880242763
0.001715449787894
0.0015979529385957
0.0014915156107967
0.0013948331041669
0.0013068410476724
0.0012264822269777
0.0011530381662287
0.001085637860605
0.0010237416748704
0.00096672604849071
0.00091413179838661
0.00086550014429928
0.00082045978299189
0.00077869259318031
0.00073989302553592
0.00070379689963465
0.00067015665952675
0.00063875563999536
0.00060940361652143
0.00058193407479677
0.00055619635829827
0.00053205323265512
0.00050938140899705
0.00048806993773525
0.00046903857190655
0.0010691039172718
0.0029001917565954
0.0030339952437388
0.0029809561037781
0.0029286452011143
0.0028835938232678
0.0028458335503083
0.0028142362419732
0.0027882265815945
0.0027665307071446
0.0027471729378606
0.002727175797339
0.0027026540054544
0.0026702338882321
0.0026296767711995
0.002585720795937
0.0025497978657453
0.0025192545548334
0.0024991919725643
0.0024865064259931
0.0024776065725091
0.0024701464306519
0.0024628722911271
0.0024553685627531
0.0024476364745878
0.0024398002852515
0.0024319872574529
0.0024243035303356
0.0024168704253529
0.0024091892848073
0.0024013895090103
0.0023934503889867
0.0023853682373988
0.0023771878690716
0.0023689777974339
0.0023608330519014
0.0023511720399194
0.0023441251242168
0.002337847651359
0.0023325428491889
0.0023283803337941
0.0023254538026757
0.0023238414385838
0.0023234864419906
0.0023243589253613
0.0023264900997111
0.0023300472170189
0.0023350027015678
0.0023415421921945
0.0023492618186719
0.002357614017718
0.0023667651839954
0.0023767284732903
0.0023869496039332
0.0023976483420824
0.0024084860898398
0.0024191387158857
0.002429421503541
0.0024391918715928
0.002448435997384
0.0024571853550817
0.0024654724553116
0.0024732470559745
0.0024806920551043
0.0024879109498122
0.0024952679354633
0.0025026430435197
0.0025107538128457
0.0025182154320868
0.002525498102095
0.0025326185131215
0.0024464750106211
0.67670411690999
0.4891864247953
0.41010075363494
0.36185083573509
0.3220539958655
0.28702498820873
0.25507938399879
0.22592834133143
0.19793970332771
0.17180722068882
0.14721749877702
0.12475835778129
0.10456168734479
0.086804302797488
0.071593912455643
0.058826014511299
0.048290978215201
0.039713853455792
0.032793603147125
0.027230192408004
0.022757282948277
0.019152746390868
0.016242687727341
0.013867321562131
0.011924146039673
0.010324122075899
0.0089978629694451
0.0078869163727855
0.0069532733993965
0.0061636276123124
0.0054912212161662
0.0049143011816253
0.0044177029626383
0.0039877075231826
0.0036131539448161
0.0032857281764011
0.0029981641891768
0.0027444534270956
0.0025196213752746
0.0023198230289211
0.0021415919839917
0.0019819547530889
0.0018385899962367
0.0017093790673724
0.0015926737360736
0.0014868393167187
0.0013907296041104
0.0013031709573481
0.0012232633525086
0.0011501279746078
0.0010830341127307
0.0010213903453292
0.00096460309198433
0.00091222055688109
0.00086376350589776
0.00081888306421616
0.00077724825467115
0.00073857169701772
0.0007025843018957
0.00066904174609462
0.00063773426622846
0.00060847155778125
0.00058108205273576
0.00055541215876511
0.00053132840378215
0.00050871135922132
0.00048745455722385
0.00046864311658306
0.0011144777449938
0.0029101915001145
0.0030335487954565
0.0029807557426206
0.0029287737129109
0.0028840213482144
0.0028465073220863
0.0028151050702859
0.0027892417149534
0.002767651025604
0.0027483757514438
0.0027284686586681
0.0027040847198365
0.0026718535388903
0.0026314374131889
0.0025874066864367
0.0025511520994783
0.0025201024896483
0.0024995326800421
0.0024864533975627
0.0024772926051469
0.0024696932327099
0.0024623662313192
0.0024548638853377
0.0024471755805942
0.002439420646787
0.002431719031087
0.0024241773776838
0.0024168553631984
0.002409393286282
0.00240184443155
0.002394160184264
0.0023863315292996
0.0023783981928868
0.0023704216640612
0.0023625379340325
0.0023530699293596
0.0023461687906305
0.0023399480614784
0.002334614781533
0.0023303548854358
0.0023272722113101
0.0023254512005898
0.0023248750682565
0.0023254546069156
0.0023272757946698
0.0023305749564585
0.002335334279484
0.0023416449971839
0.0023490484519907
0.0023571665922068
0.0023662347389409
0.0023760156849938
0.0023861665293996
0.0023968134054119
0.0024076131214445
0.0024182931965378
0.0024286684302706
0.0024385959847869
0.0024480453770218
0.0024570282315119
0.0024655784408425
0.0024736690998231
0.0024813891789532
0.002488842420436
0.0024963817030434
0.0025037655193212
0.0025119077192288
0.0025191706736675
0.0025264707730162
0.0025332586805088
0.0024436623785483
0.02279014602799
0.15557493658341
0.19113106973939
0.20448102199674
0.20674203282883
0.2005586018413
0.18881938965862
0.17448454351595
0.15876239732591
0.14237796000027
0.12591018983224
0.10974922926587
0.094389233882603
0.080199455430199
0.067476902717179
0.056393073024153
0.046943969644685
0.039042553800353
0.03252257922699
0.02718633470808
0.022835914515265
0.019293545188893
0.016402092410161
0.014039924937773
0.012091560475341
0.010476695108781
0.0091359043150718
0.0080138280487946
0.0070678884824357
0.006264612336653
0.0055811291345065
0.0049956001165604
0.0044901014182412
0.0040520373350641
0.003670936993261
0.003337813042147
0.0030447674965638
0.0027864758438315
0.0025576900110089
0.0023543302060942
0.0021727805124679
0.0020103668824362
0.0018644956607813
0.0017330451835248
0.0016142524888552
0.001506625077114
0.0014088968412433
0.0013198666034226
0.0012386135222231
0.0011642604802725
0.0010961069049336
0.0010334791574624
0.00097579133401531
0.00092257983991893
0.00087339964285702
0.00082787085099194
0.00078562587379738
0.00074637774173572
0.00070986914167247
0.00067586011247577
0.00064412947172122
0.00061447621354727
0.00058672795714284
0.00056073442700259
0.00053635672017451
0.00051346171426764
0.00049192743257319
0.00047136434139096
0.00069538526975516
0.002738599818789
0.0030402968646366
0.0029943137184074
0.0029411591729899
0.0028949200321056
0.0028560006678937
0.0028233620886428
0.0027963894191785
0.0027740091290133
0.0027544852872961
0.0027351690107512
0.002712411194177
0.0026825576855138
0.0026441616941636
0.0026003664114543
0.0025527393792749
0.0025211052549726
0.0024999280932252
0.0024863646903273
0.0024768835683289
0.0024691118076343
0.0024617217964741
0.0024542249974092
0.0024465942790381
0.0024389391116362
0.0024313721088665
0.0024239939767294
0.002416825273426
0.0024096000767036
0.0024023254655626
0.0023949300812197
0.0023873817389479
0.0023797231536607
0.002371995228572
0.002364351906348
0.002356282939536
0.0023495614126123
0.0023434544917944
0.0023381140176353
0.0023337236785637
0.002330397214105
0.0023282206911141
0.002327296993673
0.0023273599618909
0.0023286857369732
0.0023314895181396
0.0023358838368624
0.0023418485314156
0.0023487537936973
0.0023565207875521
0.0023653565734489
0.0023748402085882
0.002384879137936
0.0023954238327053
0.0024061713512675
0.0024169083707782
0.0024274431201896
0.0024376484536615
0.0024474668299467
0.0024568722348027
0.0024657730799627
0.0024741732571568
0.0024822544331721
0.0024900267098695
0.0024978046380849
0.0025051259177661
0.0025132448910162
0.0025201754676522
0.0025273914299365
0.0025336131055399
0.002437852396932
0.010074659249633
0.027121091788999
0.048425734787767
0.066210183473849
0.079680434981131
0.08865822325956
0.093323940695236
0.094493849410014
0.091877671081438
0.087351248326335
0.081372510171925
0.074285786191053
0.066645202804045
0.058847409070648
0.051266440083585
0.044201937714195
0.037835562760869
0.032243877323479
0.027436078791579
0.023361875232858
0.019939180491075
0.017079155202194
0.014692810250761
0.012700318592437
0.01103495438811
0.0096400767810617
0.0084634573485251
0.0074648955047799
0.0066175811142621
0.0058940365720566
0.005273178300064
0.004736218624766
0.0042711460772038
0.0038663982457796
0.0035124863948909
0.0032010382866112
0.0029266430577385
0.0026838256128834
0.0024681879465549
0.0022757044330564
0.00210356581667
0.0019491221728909
0.0018101306824639
0.0016845607563502
0.0015708596732056
0.0014677066720927
0.0013738409926795
0.0012882168664341
0.0012098998117086
0.0011381843068525
0.001072336750429
0.0010117593073113
0.00095589927124721
0.00090430679805074
0.00085659376896763
0.00081237818729086
0.00077133683382411
0.00073316891557397
0.00069763216137194
0.00066450037992459
0.00063356667447348
0.00060464629870138
0.00057757103095802
0.00055219244380164
0.00052837191964016
0.00050598443728027
0.0004849077511092
0.00046758531161086
0.0013128777358036
0.0029495126137552
0.003032228989251
0.0029799441414435
0.0029292507912445
0.0028857062014716
0.0028491561701793
0.0028185093148222
0.002793190115485
0.0027719767656826
0.0027529900020418
0.0027334123950545
0.0027095672255028
0.0026781076593869
0.0026383253900438
0.002594100007469
0.0025565998178118
0.0025235518293637
0.0025008742346322
0.0024860720603299
0.002475773537438
0.0024675566913811
0.0024600047982074
0.0024525272001031
0.0024450462454595
0.0024376432529971
0.0024304068769758
0.0024234176917052
0.0024166576446232
0.0024099537572434
0.0024032809925392
0.0023965246787309
0.0023896050646642
0.0023825494499919
0.0023753976239787
0.0023682807936268
0.0023607517200719
0.0023543195133255
0.0023484093182137
0.0023431203493339
0.0023386146758602
0.0023350178835715
0.0023324033754379
0.0023310038001735
0.0023304843770649
0.00233119135059
0.0023333098029037
0.0023371675545879
0.002342497855899
0.0023486346669039
0.0023559548654214
0.0023644245045343
0.0023735103445412
0.0023833496169427
0.0023937129994837
0.0024043631819225
0.0024151923593669
0.0024259702928925
0.002436518142259
0.0024467801957439
0.0024566452831918
0.0024660623692705
0.0024749022725118
0.0024832924187986
0.0024911837311877
0.0024988712677655
0.0025057389615508
0.0025133817365746
0.0025196734180099
0.0025265966834879
0.0025318347024611
0.0024277081464801
0.007983240665761
0.011878914079049
0.019225240700214
0.028124841150266
0.03649916797477
0.043632113996723
0.04918525658208
0.052986163099104
0.055140802266382
0.05542493990135
0.054141744814651
0.051638576746689
0.048307316231629
0.044311451342646
0.039963682762674
0.035554426706251
0.03129946328962
0.027343427808839
0.023772225819221
0.020618279578418
0.01787721229964
0.01551986739947
0.013505551403564
0.011789855139178
0.010329364930116
0.0090862552617465
0.0080259473091994
0.0071190854429428
0.0063413702932901
0.0056702523398204
0.0050896421642106
0.0045861900201899
0.0041474009717811
0.0037639086240858
0.0034262692778814
0.0031286073899208
0.0028654231290235
0.0026318888948306
0.0024236390892536
0.0022373908992256
0.0020705502000074
0.001920521787004
0.001785195280196
0.0016626755482379
0.0015516812591199
0.001450793329906
0.0013589056605874
0.0012749247928033
0.0011980692580623
0.0011276087934005
0.0010628596043082
0.0010032289017161
0.00094819003152404
0.00089734779826663
0.000850284394973
0.00080664826847047
0.00076611430270022
0.00072840534310011
0.00069328647054683
0.00066052516297753
0.00062992061259919
0.00060129359547247
0.00057448407299779
0.00054935053762872
0.00052575450791259
0.00050357246946421
0.00048269284759082
0.00046733716250029
0.0014941848549774
0.0029760130928966
0.0030306071941594
0.0029789313369763
0.0029295060840506
0.002887033913578
0.0028512916457683
0.0028212611288907
0.0027963631445723
0.0027754212687943
0.0027566277227207
0.0027372866540534
0.0027138742771731
0.0026830830839384
0.0026439367390279
0.0025997037659013
0.0025613086375069
0.0025265827119169
0.0025020496280136
0.0024856492024455
0.0024742829195967
0.0024654737824766
0.0024577013235443
0.0024502520930062
0.0024429628776327
0.0024358759673945
0.0024290391120243
0.0024225093470007
0.0024162518498001
0.0024101161938736
0.0024040832834301
0.0023979764266197
0.0023917324107625
0.0023853088775079
0.0023787601690124
0.0023722186158046
0.0023651776522316
0.0023590369854999
0.0023533546518545
0.0023481546063205
0.0023435805386095
0.0023397643471841
0.002336777182826
0.0023349300528047
0.0023339097683764
0.0023341176479932
0.0023355767387536
0.0023388701298664
0.0023435142113862
0.0023489849598628
0.002355879277928
0.0023638520949261
0.0023725628716217
0.0023821632032059
0.0023923573664968
0.0024029423886208
0.00241384317934
0.0024247742808875
0.0024354577247461
0.0024458587455848
0.0024558248355132
0.0024651817031135
0.002473840581492
0.002481921016905
0.002489146137027
0.002495869426168
0.002501457136578
0.0025076416872515
0.0025128080841911
0.0025185685415829
0.0025244289760808
0.0024173777277833
0.0063540785094896
0.0083909939503415
0.010637706296161
0.015047432500163
0.019968262630726
0.024666593477741
0.028859838944274
0.032288489564526
0.034861547316498
0.036475165697149
0.03698418478675
0.036442421872396
0.035153195149322
0.033317293306938
0.030980698576552
0.028348169872094
0.0256141002064
0.022908033717019
0.020336759998056
0.017967823363957
0.015833907122615
0.013941047104633
0.012280056025633
0.010833472353941
0.0095785203379422
0.0084919304602415
0.0075521891283685
0.0067386080570179
0.0060328034933272
0.0054192369535652
0.0048846251698158
0.0044173135631397
0.0040069717806671
0.003645740216181
0.0033271648140678
0.0030452312842366
0.0027948956126221
0.002571318958176
0.0023715600103852
0.0021926736545088
0.0020318727023354
0.0018869417750732
0.0017557098271927
0.0016369072541156
0.0015290162443112
0.0014308324645629
0.0013411768231163
0.001259157225189
0.001184045256909
0.0011150645809528
0.0010516137938902
0.00099308298034267
0.00093904869940111
0.00088909061754506
0.00084281099956895
0.00079986329574121
0.0007599314199506
0.00072276328655889
0.00068812772982612
0.00065580488034356
0.00062559563665053
0.00059731901568942
0.00057082259912379
0.00054597213153149
0.00052263491786195
0.00050068576167154
0.00048001861255889
0.00046747557656608
0.0017293057138405
0.0030011103991749
0.0030287294192452
0.0029775653638944
0.0029296379499227
0.0028883958414224
0.0028535418634863
0.0028241798937378
0.0027997153584534
0.0027790265546923
0.0027603927154952
0.0027412649755408
0.0027183091591216
0.0026883034651166
0.0026499957033862
0.0026059688284954
0.0025667711159643
0.0025302236616766
0.0025035210831007
0.002485204767538
0.0024725044303142
0.0024629322334671
0.0024548545965555
0.0024474228050073
0.0024403533766839
0.0024336263008988
0.0024272396540051
0.0024212148572142
0.0024155113656744