/*--------------------------------*- C++ -*----------------------------------*\
| =========                 |                                                 |
| \\      /  F ield         | OpenFOAM: The Open Source CFD Toolbox           |
|  \\    /   O peration     | Version:  2312                                  |
|   \\  /    A nd           | Website:  www.openfoam.com                      |
|    \\/     M anipulation  |                                                 |
\*---------------------------------------------------------------------------*/
FoamFile
{
    version     2.0;
    format      ascii;
    arch        "LSB;label=32;scalar=64";
    class       volScalarField;
    location    "0.00012";
    object      yPlus;
}
// * * * * * * * * * * * * * * * * * * * * * * * * * * * * * * * * * * * * * //

dimensions      [0 0 0 0 0 0 0];

internalField   uniform 0;

boundaryField
{
    inlet
    {
        type            calculated;
        value           uniform 0;
    }
    outlet
    {
        type            calculated;
        value           uniform 0;
    }
    nozzleWalls
    {
        type            calculated;
        value           nonuniform List<scalar> 
144
(
35.086745370502
34.672920743742
34.24251671737
33.817978798892
33.40568590572
33.007762623643
32.624959707444
32.25720684337
31.904511346052
31.566857790805
31.244339407825
30.937151044966
30.64558441268
30.370034710287
30.111003037756
29.869069412425
29.644845224536
29.438337926673
29.24660396304
29.067486669564
28.90070894771
28.746285432261
28.604293174194
28.474845181421
28.358197151709
28.254797028892
28.165393083461
28.09119476402
28.034141722258
27.99741486444
27.98674630146
28.01108943536
28.089880936268
28.270735473586
28.721760080552
30.877862019189
35.325689238671
34.988091246139
34.565503068021
34.135451195957
33.713641269801
33.304810275634
32.910630774354
32.531617766454
32.167622647101
31.818686046815
31.484803248701
31.16609533522
30.862781076826
30.575177168864
30.303706785446
30.048892553639
29.811330625122
29.591607045814
29.389150869306
29.200664407874
29.024636211501
28.860942667059
28.709618004288
28.570748140621
28.444469717563
28.331081583976
28.231096168406
28.14535721211
28.075226432789
28.022890983713
27.99198438787
27.989038801672
28.024552180449
28.122424981023
28.345024341294
28.944301455259
35.178464901457
34.779634480832
34.350009842976
33.923097657361
33.507464527095
33.105833032876
32.719230398321
32.347735975808
31.991276007343
31.649857732465
31.323540992697
31.01249657509
30.716991529389
30.43739426693
30.174181861875
29.927915836149
29.699211802028
29.488421129704
29.29332345716
29.111107706178
28.941247056207
28.78372967784
28.638620311841
28.5060196294
28.386139000203
28.279370120597
28.186375677372
28.10822860097
28.046651793319
28.004445234056
27.98653065433
28.000922359113
28.063304212195
28.210862616272
28.560219336763
29.830356938423
35.260867194356
34.88504985618
34.457779434654
34.028945725139
33.610125589843
33.204854861478
32.814447359165
32.439208129991
32.07897968591
31.733801098309
31.403696758469
31.088813066046
30.78939284
30.505778400967
30.238419516048
29.987860198084
29.754708857332
29.539476394347
29.340831691051
29.155499858714
28.982556261627
28.821949224001
28.673729067541
28.537988767671
28.414898979364
28.304802370651
28.208283398614
28.126293344317
28.060364002721
28.012967207821
27.988256255768
27.993677324253
28.041768325433
28.162185479719
28.438820303634
29.280044937126
)
;
    }
    tipWalls
    {
        type            calculated;
        value           nonuniform List<scalar> 
304
(
9.2154015504316
3.0167968220454
4.5517063600642
4.8701220869683
4.7568308087821
4.4705392082446
4.0510917857041
3.3726477306018
2.347708334614
1.288023319215
0.35771204064762
0.56746388750461
0.56921689551904
0.50989230330401
0.44683822881523
0.39492990457144
0.35511788482148
0.324470728421
0.29970668867582
0.27873043443103
0.26038285246628
0.24396139445973
0.22913202798637
0.21566246753792
0.2035228061746
0.19261544972256
0.18282767332877
0.1740437394709
0.16614949041346
0.15903530866591
0.15259779634033
0.14674814284767
0.14142009918382
0.1365670632395
0.13214748571206
0.12811161604042
0.12440070461208
0.12095445523663
0.11771594807488
0.11463127402359
0.11166347863864
0.1087919927293
0.10601913778981
0.10336686497873
0.10085743327504
0.098510678715832
0.096336612958778
0.094338737516216
0.092506824745256
0.090832221127419
0.089298961921294
0.087879545363853
0.086543493353981
0.085255884126916
0.083985873279109
0.082710435882078
0.081409782405363
0.080063578028565
0.078666247136585
0.077239477874991
0.075825826826321
0.074476380324416
0.073245420855586
0.072273294567931
0.072749880953932
0.1408573235397
0.13913912962609
0.13691960127066
0.13493956073105
0.13319660349094
0.13170751413048
0.1305117012258
0.12965597118989
0.12915135648475
0.12914474823751
0.13033694527378
0.13473949457942
0.24669079631085
0.245390013602
0.2422481927984
0.23881122579626
0.23530265090423
0.23208180078509
0.22917012793176
0.22659313002779
0.22438609414478
0.22257948771825
0.22117257039419
0.22013978415386
0.2194583230834
0.21933603301093
0.22003636758746
0.22165409342585
0.22443278125612
0.2278810012266
0.23004631470818
0.22167954610633
1.5809212665199
4.0296100793529
4.7961814895353
4.8435190492811
4.6274723885661
4.2819177284866
3.7545490459777
2.9026188523057
1.7832674683411
0.83515404899757
0.45473507449943
0.58438270880842
0.54404776188519
0.47704338137888
0.41933262543953
0.37360545771985
0.3388705467697
0.31156417031957
0.28883900393911
0.26927328496425
0.25195216525903
0.23637136550683
0.2222266043082
0.20943296677813
0.19792182833523
0.18758889627598
0.17831745656572
0.16999236233167
0.16250156884194
0.15573798693657
0.14960419697772
0.14402215896765
0.13893671501996
0.13430593427981
0.13008512601932
0.12621936638855
0.12264809264769
0.11931282176228
0.11615715762977
0.11313434258327
0.11021675481508
0.10739176329928
0.10467653377663
0.1020929449239
0.099662719216369
0.097402051150738
0.095313579786354
0.093402765273562
0.091650861767339
0.090049263827269
0.088577097516912
0.087203100800243
0.085895880098371
0.084620232014153
0.083350035585383
0.082064623281128
0.080743302809835
0.079370562566953
0.077954298258109
0.076527783381032
0.075139929551162
0.073841908020079
0.072705283044672
0.072079186991894
0.072624843141099
0.14032637500371
0.13800447613945
0.13589968571864
0.13403795907674
0.13241853178747
0.13106901974302
0.13003984171376
0.12935436667275
0.1290373801993
0.12952564314338
0.13186528605498
0.13494841275261
22.549507785199
2.1386566733353
4.3300410047561
4.8490230406942
4.8064224273714
4.5521028851058
4.1733387181233
3.5764626913135
2.6324304481314
1.5230657135449
0.59973718376927
0.52769511156935
0.57956141545735
0.52759020611087
0.46103929764947
0.40695449742855
0.36407698796742
0.33145129271512
0.30550727533168
0.28370419153634
0.2647675431324
0.24790303660659
0.23270948727602
0.2189015579755
0.20643849436492
0.1952326309975
0.18517598941231
0.17615193784965
0.16804571696427
0.16074654296194
0.15414894198272
0.14815947841442
0.142705981159
0.13773798687879
0.1332142659361
0.12908773535108
0.12530131450472
0.12179432920357
0.11850923413033
0.11539037462368
0.11239578102315
0.10950159230033
0.10670187069827
0.10401740380695
0.10147023443504
0.099081290188229
0.096863927523094
0.094818971373812
0.092949677853397
0.091237013889022
0.089670291255485
0.088225488895028
0.086871479356318
0.085575137632092
0.084303076254542
0.083030845439068
0.081738507016539
0.080405142094738
0.079019608580786
0.077596889377992
0.076175174949278
0.074804960021098
0.073538156336803
0.072470562621185
0.072209102990969
3.2882985795504
3.6228718968591
4.7001701778066
4.8657638773257
4.6960783328493
4.3805007937695
3.9125504533712
3.1498428188447
2.0580950166725
1.0646962215188
0.34738692446308
0.58173058436584
0.55686096497779
0.49397959661891
0.43263029175381
0.38378901897541
0.34674912583872
0.31786719040047
0.29415820239712
0.27392304730533
0.25611071387333
0.24011942505933
0.22563737062541
0.21250703464855
0.20068469972306
0.19006816509288
0.18054208994946
0.17199112518038
0.16430200052971
0.15736629493162
0.15108327636735
0.14536930352264
0.14016388124969
0.13542328415797
0.13110473639267
0.12715581275584
0.12351659774358
0.12012759089715
0.11693215223659
0.11387939531714
0.11093728184601
0.10808855633781
0.10534390441934
0.10272526295566
0.10025483798692
0.097950935036616
0.095820262022081
0.093866138019462
0.09207399163903
0.090436413716715
0.088934752795572
0.087538928616288
0.086218524609348
0.084937708865188
0.08366828932208
0.082388481383395
0.081078130169604
0.07971865801235
0.078310989607591
0.076882831732329
0.075480483457634
0.07415504352104
0.072966255487289
0.07212309188559
0.074283100972771
)
;
    }
    wedge1
    {
        type            wedge;
    }
    wedge2
    {
        type            wedge;
    }
    defaultFaces
    {
        type            empty;
    }
}


// ************************************************************************* //
