/*--------------------------------*- C++ -*----------------------------------*\
| =========                 |                                                 |
| \\      /  F ield         | OpenFOAM: The Open Source CFD Toolbox           |
|  \\    /   O peration     | Version:  2312                                  |
|   \\  /    A nd           | Website:  www.openfoam.com                      |
|    \\/     M anipulation  |                                                 |
\*---------------------------------------------------------------------------*/
FoamFile
{
    version     2.0;
    format      ascii;
    arch        "LSB;label=32;scalar=64";
    class       volScalarField;
    location    "0.003";
    object      cSound;
}
// * * * * * * * * * * * * * * * * * * * * * * * * * * * * * * * * * * * * * //

dimensions      [0 1 -1 0 0 0 0];

internalField   nonuniform List<scalar> 
8000
(
1471.301712
1471.301705
1471.301706
1471.301701
1471.301708
1471.301705
1471.301716
1471.301724
1471.301721
1471.301724
1471.301714
1471.301711
1471.301714
1471.301715
1471.301711
1471.301715
1471.301722
1471.301723
1471.301718
1471.301715
1471.301716
1471.301711
1471.301711
1471.301711
1471.301711
1471.301714
1471.301714
1471.301712
1471.301712
1471.301711
1471.301711
1471.301715
1471.301715
1471.301712
1471.301714
1471.301714
1471.301714
1471.301702
1471.301704
1471.301703
1471.301709
1471.301714
1471.301709
1471.301714
1471.301715
1471.301715
1471.301711
1471.301715
1471.301721
1471.301712
1471.301712
1471.301722
1471.301718
1471.301711
1471.301711
1471.301716
1471.301714
1471.301715
1471.301714
1471.301721
1471.301709
1471.301716
1471.301714
1471.301722
1471.301719
1471.301712
1471.301722
1471.301722
1471.301722
1471.301719
1471.301709
1471.301709
1471.301712
1471.301709
1471.301716
1471.301711
1471.301706
1471.301712
1471.301714
1471.301718
1471.301722
1471.301714
1471.301712
1471.301711
1471.301708
1471.301712
1471.301721
1471.301714
1471.301714
1471.301711
1471.301722
1471.301716
1471.301719
1471.301709
1471.301709
1471.301716
1471.301722
1471.301722
1471.301719
1471.301722
1471.301716
1471.301716
1471.301708
1471.301714
1471.301716
1471.301712
1471.301712
1471.301714
1471.301714
1471.301712
1471.301712
1471.301712
1471.301721
1471.301714
1471.301714
1471.301711
1471.301712
1471.301714
1471.301711
1471.301711
1471.301721
1471.301721
1471.301722
1471.301718
1471.301722
1471.301719
1471.301721
1471.301714
1471.301712
1471.301715
1471.301709
1471.301711
1471.301714
1471.301715
1471.301714
1471.301711
1471.301719
1471.301722
1471.301722
1471.301719
1471.301716
1471.301722
1471.301714
1471.301722
1471.301721
1471.301719
1471.301721
1471.301715
1471.301716
1471.301718
1471.301712
1471.301714
1471.301709
1471.301711
1471.301714
1471.301714
1471.301714
1471.301719
1471.301715
1471.301715
1471.301711
1471.301719
1471.301709
1471.301712
1471.301712
1471.301709
1471.301711
1471.301708
1471.301712
1471.301714
1471.301708
1471.301718
1471.301709
1471.301714
1471.301711
1471.301714
1471.301718
1471.301709
1471.301716
1471.301716
1471.301711
1471.301712
1471.301708
1471.301711
1471.301708
1471.301714
1471.301709
1471.301712
1471.301714
1471.301722
1471.301712
1471.301713
1471.301711
1471.301715
1471.301716
1471.301709
1471.301711
1471.301712
1471.301721
1471.301722
1471.301722
1471.301721
1471.301722
1471.301722
1471.301721
1471.301715
1471.301722
1471.301722
1471.301718
1471.301721
1471.301721
1471.301722
1471.301718
1471.301722
1471.301721
1471.301706
1471.301708
1471.301715
1471.301715
1471.301709
1471.301712
1471.301711
1471.301709
1471.301711
1471.301722
1471.301722
1471.301715
1471.301722
1471.301711
1471.301712
1471.301714
1471.301722
1471.301722
1471.301722
1471.301722
1471.301722
1471.301721
1471.301722
1471.301706
1471.301712
1471.301709
1471.301712
1471.301712
1471.301714
1471.301712
1471.301709
1471.301722
1471.301722
1471.301712
1471.301711
1471.301722
1471.301715
1471.301718
1471.301722
1471.301714
1471.301714
1471.301722
1471.301712
1471.301712
1471.301714
1471.301722
1471.301721
1471.301715
1471.301712
1471.301715
1471.301708
1471.301711
1471.301711
1471.301711
1471.301714
1471.301716
1471.301712
1471.301714
1471.301712
1471.301714
1471.301712
1471.301709
1471.301712
1471.301715
1471.301712
1471.301711
1471.301716
1471.301708
1471.301714
1471.301708
1471.301709
1471.301716
1471.301715
1471.301712
1471.301709
1471.301713
1471.301718
1471.301716
1471.301722
1471.301715
1471.301718
1471.301721
1471.301721
1471.301712
1471.301712
1471.301721
1471.301722
1471.301722
1471.301718
1471.301718
1471.301713
1471.301706
1471.301715
1471.301712
1471.30171
1471.301713
1471.301713
1471.301712
1471.301706
1471.30172
1471.301717
1471.30171
1471.30171
1471.301721
1471.301721
1471.30171
1471.301711
1471.301717
1471.301712
1471.301715
1471.301714
1471.301721
1471.301721
1471.301721
1471.301721
1471.30172
1471.30172
1471.30172
1471.301719
1471.301708
1471.301711
1471.301711
1471.301706
1471.301705
1471.301706
1471.301709
1471.30171
1471.301718
1471.301717
1471.301706
1471.301709
1471.301706
1471.301707
1471.301704
1471.301705
1471.301705
1471.301707
1471.30171
1471.301706
1471.301715
1471.301714
1471.301714
1471.301713
1471.301711
1471.301709
1471.301712
1471.301699
1471.301705
1471.301698
1471.301707
1471.301708
1471.301707
1471.301707
1471.301706
1471.301696
1471.301691
1471.301696
1471.301697
1471.301699
1471.301697
1471.301685
1471.301687
1471.301686
1471.301678
1471.301683
1471.301682
1471.301682
1471.301679
1471.301672
1471.301674
1471.301679
1471.301674
1471.301664
1471.301663
1471.30166
1471.301656
1471.301654
1471.301654
1471.301653
1471.301644
1471.301647
1471.301646
1471.30165
1471.301647
1471.301643
1471.301639
1471.301635
1471.301618
1471.301616
1471.30162
1471.301616
1471.301612
1471.301607
1471.301602
1471.301596
1471.30159
1471.30158
1471.301566
1471.301564
1471.301564
1471.30155
1471.301538
1471.301536
1471.301532
1471.301521
1471.301517
1471.301508
1471.301498
1471.301489
1471.301478
1471.301468
1471.301454
1471.30144
1471.301434
1471.301422
1471.301405
1471.30139
1471.301382
1471.301368
1471.301352
1471.301339
1471.301321
1471.301307
1471.30129
1471.301273
1471.30125
1471.301236
1471.301211
1471.301186
1471.30117
1471.301155
1471.301133
1471.301104
1471.301087
1471.30106
1471.301038
1471.30101
1471.300975
1471.300949
1471.300921
1471.3009
1471.30087
1471.300836
1471.300797
1471.300774
1471.30074
1471.300704
1471.300669
1471.300632
1471.300594
1471.300555
1471.300515
1471.300473
1471.30043
1471.300385
1471.300337
1471.300295
1471.300246
1471.300199
1471.300145
1471.300097
1471.300042
1471.299982
1471.299933
1471.299868
1471.299805
1471.299749
1471.299693
1471.299635
1471.299569
1471.299504
1471.299437
1471.299365
1471.299295
1471.299224
1471.299148
1471.299072
1471.298996
1471.29891
1471.298832
1471.298755
1471.29867
1471.298584
1471.298496
1471.298405
1471.298314
1471.29822
1471.298125
1471.298018
1471.297929
1471.297828
1471.297724
1471.297621
1471.29751
1471.297398
1471.297295
1471.297182
1471.297056
1471.296945
1471.296826
1471.296709
1471.29659
1471.296466
1471.296336
1471.296211
1471.296082
1471.295949
1471.295809
1471.295679
1471.295532
1471.295401
1471.29526
1471.295116
1471.294963
1471.294817
1471.294666
1471.294513
1471.294363
1471.294216
1471.294059
1471.293898
1471.29373
1471.293579
1471.293416
1471.293251
1471.293067
1471.292905
1471.292744
1471.292577
1471.292388
1471.292222
1471.29204
1471.29187
1471.291696
1471.291513
1471.291342
1471.291158
1471.290958
1471.290779
1471.290599
1471.290412
1471.290231
1471.290044
1471.289863
1471.289678
1471.289487
1471.2893
1471.28911
1471.28892
1471.28873
1471.288539
1471.288349
1471.288159
1471.287968
1471.28777
1471.287587
1471.287382
1471.287187
1471.287001
1471.286812
1471.286638
1471.286438
1471.286252
1471.286066
1471.285879
1471.285708
1471.285538
1471.285358
1471.285179
1471.285002
1471.284821
1471.284635
1471.28447
1471.284306
1471.284142
1471.283968
1471.283803
1471.283656
1471.283501
1471.283346
1471.283181
1471.283035
1471.282896
1471.282756
1471.282614
1471.282481
1471.282345
1471.28222
1471.282095
1471.281974
1471.281857
1471.281745
1471.281621
1471.281531
1471.281432
1471.281337
1471.281247
1471.281133
1471.281082
1471.280992
1471.280937
1471.280867
1471.280811
1471.280757
1471.280693
1471.280648
1471.280601
1471.2806
1471.280573
1471.280555
1471.280545
1471.280539
1471.280539
1471.280538
1471.280531
1471.28057
1471.280585
1471.280635
1471.280675
1471.280722
1471.280769
1471.280811
1471.280875
1471.280958
1471.281031
1471.281147
1471.281251
1471.281331
1471.281468
1471.28159
1471.281704
1471.281832
1471.281968
1471.282124
1471.282307
1471.282476
1471.282651
1471.282835
1471.283025
1471.283217
1471.283427
1471.283646
1471.283865
1471.284095
1471.284339
1471.284587
1471.284839
1471.285097
1471.285371
1471.285651
1471.285938
1471.286232
1471.286535
1471.286831
1471.287146
1471.287477
1471.287814
1471.288152
1471.288503
1471.288852
1471.289218
1471.289584
1471.289944
1471.290334
1471.290727
1471.291124
1471.291518
1471.291928
1471.292346
1471.292758
1471.293186
1471.293619
1471.294055
1471.294492
1471.294942
1471.29539
1471.295853
1471.296312
1471.296781
1471.297253
1471.297724
1471.298204
1471.298685
1471.299168
1471.29966
1471.300147
1471.30064
1471.301142
1471.301636
1471.302144
1471.302648
1471.303151
1471.303659
1471.304169
1471.304679
1471.305187
1471.305698
1471.30621
1471.306722
1471.307232
1471.307742
1471.308252
1471.308762
1471.309267
1471.309772
1471.310277
1471.310775
1471.311275
1471.31177
1471.312267
1471.312761
1471.313251
1471.313736
1471.314213
1471.31469
1471.315167
1471.31564
1471.316101
1471.316564
1471.317017
1471.317461
1471.317906
1471.31835
1471.318782
1471.319209
1471.319628
1471.320047
1471.320452
1471.320846
1471.321241
1471.321627
1471.322011
1471.322382
1471.322749
1471.323106
1471.323457
1471.323796
1471.32413
1471.324454
1471.324773
1471.32508
1471.325378
1471.32567
1471.325953
1471.326227
1471.326496
1471.326753
1471.327
1471.327237
1471.327468
1471.327687
1471.3279
1471.328103
1471.328301
1471.328488
1471.328665
1471.328831
1471.328991
1471.329139
1471.329282
1471.329417
1471.329541
1471.329656
1471.329756
1471.329853
1471.329948
1471.33003
1471.330105
1471.330173
1471.330231
1471.330282
1471.330321
1471.33035
1471.330376
1471.330396
1471.330409
1471.330411
1471.330409
1471.330401
1471.330385
1471.330368
1471.330341
1471.330308
1471.33027
1471.330225
1471.330174
1471.330118
1471.330056
1471.329989
1471.329916
1471.329838
1471.329755
1471.329668
1471.32958
1471.329486
1471.329384
1471.329282
1471.329176
1471.329066
1471.328953
1471.328835
1471.328718
1471.3286
1471.328477
1471.32835
1471.328221
1471.328088
1471.327956
1471.327823
1471.327689
1471.327553
1471.327414
1471.327277
1471.32714
1471.327001
1471.32686
1471.32672
1471.326578
1471.326436
1471.326299
1471.326159
1471.32602
1471.325882
1471.325742
1471.325606
1471.325471
1471.325338
1471.325205
1471.325073
1471.324941
1471.324812
1471.324682
1471.324559
1471.324434
1471.324312
1471.324192
1471.324073
1471.323958
1471.323845
1471.323735
1471.323627
1471.32352
1471.323414
1471.323313
1471.323214
1471.323118
1471.323022
1471.32293
1471.322843
1471.322756
1471.322671
1471.322587
1471.322512
1471.322436
1471.322361
1471.322291
1471.322221
1471.322155
1471.322091
1471.322029
1471.32197
1471.321913
1471.321858
1471.321804
1471.32175
1471.321705
1471.321659
1471.321613
1471.321573
1471.321533
1471.321495
1471.321459
1471.321423
1471.321389
1471.321356
1471.321326
1471.321296
1471.321269
1471.321244
1471.321219
1471.321194
1471.321168
1471.321145
1471.321122
1471.3211
1471.321081
1471.321059
1471.321042
1471.32102
1471.320997
1471.320982
1471.320962
1471.320942
1471.320924
1471.320905
1471.320887
1471.320867
1471.320845
1471.320824
1471.320802
1471.320779
1471.320752
1471.320728
1471.320705
1471.320678
1471.32065
1471.32062
1471.32059
1471.320559
1471.320526
1471.320493
1471.320456
1471.320418
1471.320378
1471.320337
1471.320297
1471.320252
1471.320204
1471.320155
1471.320105
1471.320052
1471.319998
1471.319941
1471.319881
1471.319818
1471.319754
1471.319687
1471.319618
1471.319547
1471.319474
1471.319398
1471.319317
1471.319237
1471.319151
1471.319065
1471.318976
1471.318886
1471.318787
1471.318695
1471.318595
1471.318493
1471.318387
1471.31828
1471.31817
1471.318059
1471.317942
1471.317829
1471.317708
1471.317585
1471.317457
1471.317326
1471.317193
1471.317061
1471.316924
1471.316793
1471.316653
1471.316512
1471.316367
1471.316219
1471.31607
1471.315917
1471.315762
1471.315608
1471.31545
1471.31529
1471.315129
1471.314965
1471.314799
1471.31463
1471.31446
1471.314288
1471.314116
1471.313942
1471.313765
1471.313588
1471.313409
1471.313227
1471.313043
1471.31286
1471.312673
1471.312489
1471.312301
1471.312114
1471.311924
1471.311735
1471.311543
1471.31135
1471.311158
1471.310965
1471.310769
1471.310573
1471.310378
1471.310183
1471.309987
1471.30979
1471.309593
1471.309395
1471.309194
1471.308998
1471.3088
1471.308601
1471.308403
1471.308204
1471.308009
1471.307812
1471.307614
1471.307417
1471.307219
1471.307021
1471.306824
1471.306631
1471.306436
1471.306241
1471.306045
1471.305851
1471.305664
1471.305473
1471.305273
1471.305088
1471.304901
1471.304715
1471.304529
1471.304343
1471.304158
1471.303966
1471.303788
1471.303609
1471.303429
1471.303251
1471.303075
1471.3029
1471.302725
1471.302554
1471.302381
1471.30221
1471.30204
1471.301872
1471.301706
1471.301541
1471.301381
1471.301221
1471.301062
1471.300905
1471.300749
1471.30059
1471.300441
1471.300292
1471.300142
1471.299998
1471.299852
1471.299709
1471.299568
1471.299428
1471.29929
1471.299154
1471.29902
1471.298889
1471.29876
1471.298633
1471.298506
1471.298379
1471.298261
1471.298138
1471.298019
1471.297906
1471.297789
1471.297679
1471.297571
1471.297463
1471.297354
1471.297255
1471.297152
1471.297052
1471.296954
1471.296859
1471.296765
1471.29667
1471.296582
1471.296496
1471.29641
1471.296325
1471.296243
1471.29616
1471.296087
1471.296011
1471.295938
1471.295866
1471.295798
1471.295728
1471.295663
1471.295601
1471.295537
1471.295479
1471.295417
1471.295364
1471.295303
1471.295258
1471.295205
1471.295158
1471.295111
1471.295062
1471.295019
1471.294979
1471.294939
1471.294903
1471.294867
1471.29483
1471.294798
1471.294767
1471.294736
1471.294706
1471.294683
1471.294656
1471.294634
1471.294613
1471.294592
1471.294573
1471.294554
1471.294538
1471.294525
1471.29451
1471.2945
1471.294491
1471.294482
1471.29447
1471.294467
1471.294462
1471.294458
1471.294455
1471.294447
1471.294453
1471.294449
1471.294451
1471.294453
1471.29446
1471.294465
1471.29447
1471.294474
1471.294483
1471.29449
1471.2945
1471.294509
1471.294523
1471.294527
1471.294545
1471.29456
1471.294571
1471.294587
1471.294602
1471.294617
1471.294631
1471.294649
1471.294666
1471.294669
1471.294703
1471.294722
1471.294741
1471.294758
1471.294779
1471.294798
1471.294818
1471.294838
1471.294858
1471.294875
1471.2949
1471.294921
1471.294942
1471.294963
1471.294982
1471.295004
1471.295027
1471.295048
1471.29507
1471.29509
1471.295111
1471.295132
1471.295151
1471.295173
1471.295193
1471.295212
1471.295226
1471.29525
1471.295268
1471.295285
1471.295303
1471.295322
1471.295338
1471.295347
1471.295363
1471.295384
1471.295401
1471.295417
1471.295432
1471.295446
1471.295459
1471.295472
1471.295482
1471.295494
1471.295505
1471.295514
1471.295523
1471.29553
1471.295535
1471.295539
1471.295548
1471.295553
1471.295558
1471.295563
1471.295567
1471.295568
1471.29557
1471.295572
1471.295572
1471.295571
1471.295569
1471.295565
1471.295563
1471.295559
1471.295552
1471.295548
1471.295542
1471.295535
1471.295526
1471.295513
1471.295504
1471.295491
1471.295481
1471.29547
1471.295457
1471.295443
1471.295429
1471.295413
1471.295395
1471.295379
1471.295361
1471.295342
1471.295322
1471.295299
1471.29528
1471.295258
1471.295235
1471.295208
1471.295185
1471.295161
1471.295135
1471.295099
1471.295075
1471.29504
1471.295024
1471.294993
1471.294961
1471.294932
1471.294903
1471.294869
1471.294839
1471.294805
1471.294771
1471.294734
1471.294701
1471.294666
1471.294628
1471.294594
1471.294558
1471.294521
1471.294483
1471.29444
1471.294405
1471.294364
1471.294324
1471.294286
1471.294245
1471.294207
1471.294155
1471.294118
1471.294083
1471.294041
1471.294001
1471.293956
1471.293914
1471.293851
1471.293822
1471.293785
1471.29374
1471.293699
1471.293654
1471.293613
1471.293568
1471.29352
1471.293481
1471.293439
1471.293392
1471.29335
1471.293305
1471.293258
1471.293217
1471.293174
1471.293131
1471.293088
1471.293046
1471.293002
1471.292958
1471.292914
1471.292866
1471.292825
1471.292783
1471.292743
1471.292702
1471.292659
1471.292614
1471.29258
1471.292539
1471.292496
1471.292457
1471.292414
1471.292372
1471.292336
1471.292297
1471.29225
1471.292218
1471.292183
1471.292145
1471.292109
1471.29207
1471.292025
1471.291998
1471.291964
1471.291929
1471.291894
1471.29186
1471.291826
1471.291792
1471.291755
1471.291712
1471.291677
1471.291659
1471.291633
1471.291601
1471.291574
1471.291541
1471.291505
1471.291473
1471.291462
1471.291435
1471.291408
1471.291381
1471.291353
1471.291329
1471.291305
1471.291284
1471.291261
1471.291239
1471.291206
1471.291188
1471.291171
1471.291155
1471.291133
1471.291116
1471.291096
1471.291074
1471.291063
1471.291047
1471.291032
1471.291017
1471.291003
1471.290989
1471.290971
1471.29096
1471.29095
1471.290937
1471.290928
1471.290918
1471.290908
1471.290899
1471.290888
1471.290883
1471.290876
1471.290867
1471.290861
1471.290858
1471.290853
1471.290848
1471.29084
1471.290841
1471.290838
1471.290828
1471.290831
1471.290835
1471.290835
1471.290831
1471.290837
1471.290836
1471.29084
1471.29084
1471.290837
1471.290849
1471.290852
1471.290857
1471.290857
1471.290868
1471.290873
1471.29088
1471.29089
1471.290894
1471.2909
1471.290902
1471.290907
1471.290929
1471.290942
1471.290955
1471.290966
1471.290972
1471.290984
1471.291002
1471.291015
1471.29102
1471.291023
1471.291059
1471.291072
1471.29108
1471.291103
1471.291122
1471.291141
1471.291152
1471.291174
1471.291194
1471.291212
1471.291231
1471.291248
1471.291268
1471.291286
1471.291304
1471.291316
1471.291342
1471.291374
1471.291396
1471.291418
1471.29144
1471.291457
1471.291487
1471.291508
1471.291534
1471.291558
1471.291582
1471.291606
1471.291629
1471.291656
1471.291681
1471.291707
1471.291733
1471.291759
1471.291786
1471.291804
1471.29184
1471.291865
1471.291893
1471.291923
1471.291947
1471.291979
1471.292007
1471.292034
1471.292062
1471.292093
1471.29212
1471.292151
1471.29218
1471.29221
1471.292237
1471.292267
1471.292299
1471.292328
1471.292358
1471.292388
1471.292419
1471.292449
1471.29248
1471.292511
1471.292542
1471.292573
1471.292604
1471.292636
1471.292667
1471.292699
1471.29273
1471.292762
1471.292793
1471.292824
1471.292853
1471.292884
1471.292917
1471.292949
1471.292979
1471.293013
1471.293045
1471.293078
1471.293108
1471.293142
1471.293172
1471.293202
1471.293238
1471.29327
1471.293296
1471.293334
1471.293364
1471.293398
1471.29343
1471.293462
1471.293494
1471.293527
1471.293555
1471.293589
1471.293619
1471.293655
1471.293685
1471.293717
1471.293751
1471.293771
1471.293815
1471.293847
1471.293879
1471.293911
1471.293943
1471.293971
1471.293993
1471.294037
1471.294063
1471.294095
1471.294123
1471.294158
1471.29419
1471.294224
1471.294262
1471.294294
1471.294324
1471.294358
1471.29439
1471.294421
1471.294445
1471.294482
1471.294515
1471.294547
1471.294578
1471.29461
1471.294634
1471.294672
1471.294704
1471.294736
1471.294769
1471.294799
1471.294832
1471.294864
1471.294892
1471.294925
1471.294959
1471.294989
1471.295023
1471.295055
1471.295087
1471.295117
1471.295139
1471.295181
1471.295215
1471.295246
1471.295276
1471.295308
1471.295331
1471.295365
1471.295406
1471.295429
1471.295471
1471.295502
1471.295535
1471.295569
1471.295602
1471.295635
1471.295667
1471.295698
1471.295733
1471.295765
1471.295798
1471.295831
1471.295863
1471.295898
1471.295929
1471.295963
1471.295996
1471.296029
1471.296063
1471.296088
1471.29612
1471.296154
1471.296195
1471.296235
1471.296257
1471.296295
1471.296328
1471.29637
1471.2964
1471.296433
1471.296464
1471.296467
1471.296466
1471.296478
1471.296498
1471.296527
1471.296565
1471.29663
1471.296679
1471.296719
1471.296768
1471.296798
1471.296846
1471.296892
1471.296933
1471.296967
1471.297003
1471.297058
1471.297107
1471.297152
1471.297199
1471.297246
1471.297284
1471.297319
1471.297367
1471.297403
1471.297443
1471.297471
1471.297497
1471.297527
1471.297556
1471.2976
1471.297646
1471.2977
1471.297766
1471.297807
1471.29786
1471.2979
1471.297944
1471.297971
1471.298013
1471.298055
1471.298098
1471.298141
1471.298187
1471.29823
1471.298276
1471.298311
1471.29836
1471.298405
1471.298449
1471.298485
1471.298516
1471.298557
1471.298596
1471.298618
1471.298668
1471.298716
1471.298756
1471.298766
1471.298775
1471.298807
1471.298867
1471.298918
1471.298961
1471.299007
1471.299055
1471.299098
1471.299148
1471.299203
1471.29925
1471.299297
1471.299338
1471.299383
1471.299424
1471.299475
1471.299527
1471.299573
1471.299624
1471.299666
1471.299712
1471.299763
1471.299812
1471.29986
1471.299916
1471.299955
1471.300008
1471.30005
1471.300101
1471.300151
1471.300194
1471.300244
1471.300295
1471.30034
1471.300401
1471.300463
1471.300516
1471.300588
1471.30065
1471.3007
1471.300748
1471.300797
1471.30085
1471.300893
1471.300939
1471.300987
1471.301034
1471.301074
1471.301114
1471.301162
1471.301213
1471.301262
1471.301285
1471.301297
1471.301338
1471.301393
1471.301452
1471.301517
1471.301589
1471.301658
1471.301727
1471.301798
1471.301843
1471.301892
1471.301936
1471.301987
1471.302032
1471.302076
1471.302128
1471.302175
1471.30222
1471.302261
1471.302305
1471.302353
1471.302401
1471.302451
1471.302495
1471.302539
1471.302581
1471.302625
1471.302665
1471.30271
1471.302756
1471.302803
1471.302856
1471.302899
1471.302939
1471.302985
1471.303033
1471.303078
1471.303121
1471.303159
1471.303207
1471.30325
1471.30329
1471.303322
1471.303366
1471.303412
1471.303451
1471.303494
1471.303545
1471.303585
1471.303624
1471.303662
1471.303701
1471.303728
1471.303762
1471.303808
1471.303844
1471.303873
1471.303916
1471.303949
1471.303982
1471.304021
1471.30406
1471.3041
1471.304136
1471.304177
1471.304217
1471.304254
1471.304289
1471.304326
1471.304361
1471.304385
1471.304423
1471.304462
1471.304504
1471.30454
1471.30458
1471.304624
1471.304658
1471.304694
1471.304741
1471.304772
1471.304822
1471.304863
1471.304911
1471.304945
1471.304977
1471.305013
1471.305049
1471.30508
1471.305109
1471.305139
1471.305165
1471.305196
1471.305223
1471.305251
1471.305285
1471.305319
1471.305358
1471.305401
1471.305436
1471.305469
1471.305496
1471.305513
1471.305539
1471.305554
1471.305566
1471.305577
1471.305596
1471.305612
1471.305617
1471.30564
1471.305656
1471.305681
1471.305707
1471.305757
1471.30581
1471.305864
1471.30592
1471.305956
1471.305988
1471.306011
1471.306054
1471.306104
1471.306129
1471.306158
1471.306183
1471.306205
1471.306238
1471.306261
1471.306286
1471.30631
1471.30634
1471.306362
1471.306388
1471.306416
1471.30644
1471.306462
1471.306481
1471.306502
1471.306531
1471.306553
1471.306568
1471.306589
1471.306604
1471.30663
1471.306651
1471.306688
1471.306714
1471.306733
1471.306757
1471.306785
1471.306806
1471.306819
1471.306838
1471.30686
1471.306883
1471.306906
1471.306931
1471.306954
1471.306974
1471.306989
1471.307006
1471.307013
1471.307011
1471.307019
1471.307037
1471.307067
1471.307099
1471.307115
1471.30714
1471.30717
1471.307204
1471.307227
1471.307249
1471.307264
1471.30728
1471.307301
1471.307313
1471.307328
1471.30734
1471.307353
1471.307365
1471.307375
1471.307397
1471.307412
1471.307428
1471.30745
1471.307465
1471.307483
1471.307504
1471.307518
1471.307538
1471.307557
1471.307573
1471.3076
1471.307628
1471.307652
1471.307675
1471.307695
1471.307714
1471.307732
1471.307748
1471.30776
1471.307771
1471.307783
1471.307788
1471.307795
1471.307819
1471.307847
1471.307874
1471.307895
1471.307914
1471.307928
1471.307944
1471.307957
1471.307974
1471.30799
1471.307993
1471.307996
1471.308008
1471.308024
1471.308039
1471.308067
1471.308092
1471.308113
1471.308126
1471.308144
1471.308158
1471.308174
1471.308187
1471.308204
1471.308216
1471.308222
1471.308231
1471.308241
1471.30824
1471.308253
1471.308268
1471.308282
1471.308294
1471.308302
1471.308306
1471.30832
1471.308329
1471.308345
1471.308367
1471.308387
1471.3084
1471.308413
1471.308428
1471.308436
1471.308443
1471.308449
1471.308448
1471.308446
1471.308447
1471.308445
1471.308446
1471.308446
1471.30845
1471.308449
1471.308439
1471.308448
1471.308461
1471.308488
1471.308527
1471.308564
1471.308586
1471.308594
1471.308612
1471.308618
1471.308622
1471.308627
1471.308631
1471.308603
1471.308586
1471.308584
1471.3086
1471.308607
1471.308614
1471.308636
1471.308661
1471.308694
1471.308715
1471.308739
1471.308744
1471.308749
1471.30875
1471.308743
1471.308746
1471.308747
1471.308748
1471.308755
1471.308753
1471.308753
1471.308755
1471.308754
1471.308756
1471.30876
1471.308757
1471.308758
1471.308758
1471.308755
1471.308744
1471.308741
1471.308731
1471.308722
1471.308707
1471.308703
1471.308696
1471.308691
1471.308694
1471.308684
1471.30868
1471.308673
1471.308671
1471.308661
1471.308648
1471.308639
1471.308631
1471.308628
1471.30862
1471.308612
1471.308606
1471.308597
1471.308595
1471.308586
1471.308576
1471.308556
1471.308532
1471.308513
1471.308505
1471.308505
1471.308514
1471.308532
1471.308551
1471.308555
1471.30855
1471.308538
1471.308534
1471.308521
1471.308511
1471.308504
1471.308503
1471.308492
1471.308477
1471.308473
1471.30846
1471.308448
1471.308441
1471.308438
1471.308429
1471.308419
1471.30841
1471.308401
1471.308389
1471.308379
1471.308373
1471.30836
1471.308347
1471.30834
1471.308328
1471.308327
1471.308309
1471.308302
1471.308294
1471.308274
1471.308242
1471.308216
1471.308188
1471.30816
1471.308122
1471.308097
1471.30809
1471.308088
1471.30809
1471.308085
1471.308073
1471.308075
1471.308093
1471.308102
1471.3081
1471.308099
1471.308104
1471.308103
1471.308093
1471.308088
1471.308082
1471.308075
1471.30807
1471.308059
1471.308057
1471.308045
1471.308029
1471.308014
1471.308012
1471.30801
1471.308013
1471.308008
1471.308009
1471.308001
1471.307984
1471.307953
1471.307931
1471.307926
1471.307915
1471.307911
1471.307909
1471.307899
1471.30791
1471.307911
1471.307903
1471.3079
1471.307892
1471.307889
1471.307887
1471.307882
1471.307886
1471.307882
1471.307875
1471.30787
1471.307862
1471.307857
1471.307837
1471.307798
1471.307756
1471.307734
1471.30773
1471.307731
1471.307736
1471.307758
1471.307772
1471.307792
1471.3078
1471.307811
1471.30783
1471.307833
1471.30783
1471.307819
1471.307808
1471.307798
1471.307794
1471.307793
1471.307779
1471.307776
1471.307772
1471.307761
1471.307748
1471.307742
1471.30774
1471.30773
1471.307718
1471.307693
1471.307678
1471.307668
1471.307659
1471.307654
1471.307646
1471.307644
1471.307645
1471.307634
1471.307623
1471.307603
1471.307589
1471.307571
1471.307558
1471.307551
1471.307548
1471.30754
1471.307543
1471.30753
1471.30752
1471.307516
1471.307504
1471.307491
1471.307477
1471.307445
1471.307401
1471.307364
1471.307337
1471.307326
1471.307321
1471.307333
1471.307349
1471.307349
1471.307336
1471.307322
1471.307307
1471.307297
1471.307276
1471.307257
1471.307241
1471.307219
1471.307195
1471.307179
1471.307162
1471.307154
1471.307136
1471.307119
1471.307101
1471.307073
1471.307049
1471.307021
1471.307007
1471.306988
1471.306966
1471.306949
1471.306929
1471.306911
1471.306896
1471.306891
1471.306888
1471.306874
1471.306855
1471.306836
1471.306817
1471.306789
1471.306755
1471.306724
1471.306698
1471.306655
1471.306622
1471.306586
1471.306553
1471.306539
1471.306539
1471.306523
1471.306498
1471.306485
1471.30647
1471.306455
1471.306436
1471.306412
1471.306389
1471.306359
1471.306329
1471.306288
1471.306261
1471.306246
1471.306243
1471.306237
1471.306218
1471.306195
1471.306166
1471.306135
1471.306114
1471.306097
1471.30609
1471.306076
1471.306055
1471.306022
1471.306001
1471.305965
1471.305942
1471.305935
1471.305933
1471.30593
1471.305914
1471.305897
1471.305881
1471.305862
1471.305842
1471.305821
1471.305798
1471.305777
1471.305761
1471.305737
1471.305718
1471.305694
1471.305674
1471.305653
1471.305637
1471.305615
1471.305593
1471.305575
1471.305551
1471.305529
1471.305508
1471.305489
1471.305468
1471.30545
1471.305428
1471.30541
1471.305392
1471.305375
1471.305356
1471.305334
1471.305317
1471.305287
1471.305266
1471.305245
1471.305227
1471.305208
1471.30519
1471.305177
1471.305152
1471.305135
1471.305115
1471.305096
1471.305081
1471.305058
1471.305039
1471.305021
1471.305002
1471.304986
1471.304965
1471.304953
1471.304937
1471.304893
1471.304855
1471.304816
1471.3048
1471.30479
1471.304775
1471.30477
1471.304769
1471.304759
1471.304746
1471.304729
1471.304714
1471.304695
1471.304677
1471.304661
1471.304638
1471.304628
1471.304601
1471.304583
1471.304562
1471.304518
1471.304479
1471.304455
1471.304426
1471.304403
1471.30439
1471.304378
1471.304359
1471.304349
1471.304328
1471.304297
1471.304265
1471.304236
1471.30422
1471.304205
1471.304189
1471.304186
1471.304173
1471.304154
1471.304138
1471.304117
1471.304087
1471.304066
1471.304049
1471.304019
1471.304005
1471.303986
1471.30397
1471.303974
1471.303972
1471.303955
1471.303941
1471.303916
1471.303902
1471.303883
1471.303874
1471.303857
1471.303847
1471.30383
1471.303818
1471.303793
1471.303776
1471.303758
1471.303759
1471.30374
1471.303726
1471.303709
1471.303689
1471.30367
1471.303634
1471.303617
1471.303589
1471.303561
1471.303537
1471.303518
1471.303502
1471.303483
1471.303453
1471.303406
1471.303381
1471.303365
1471.303346
1471.303347
1471.303334
1471.303324
1471.303321
1471.303312
1471.303304
1471.303305
1471.303297
1471.303283
1471.303261
1471.303237
1471.303211
1471.303188
1471.303179
1471.303167
1471.303148
1471.303126
1471.303113
1471.303098
1471.303079
1471.303068
1471.303049
1471.303028
1471.303013
1471.302995
1471.302975
1471.302954
1471.302917
1471.302889
1471.302862