/*--------------------------------*- C++ -*----------------------------------*\
| =========                 |                                                 |
| \\      /  F ield         | OpenFOAM: The Open Source CFD Toolbox           |
|  \\    /   O peration     | Version:  2312                                  |
|   \\  /    A nd           | Website:  www.openfoam.com                      |
|    \\/     M anipulation  |                                                 |
\*---------------------------------------------------------------------------*/
FoamFile
{
    version     2.0;
    format      ascii;
    arch        "LSB;label=32;scalar=64";
    class       volScalarField;
    location    "0.003";
    object      minKappa;
}
// * * * * * * * * * * * * * * * * * * * * * * * * * * * * * * * * * * * * * //

dimensions      [0 0 0 0 0 0 0];

internalField   nonuniform List<scalar> 
8000
(
0.1331735845
0.1331735845
0.1331735848
0.1331735848
0.1331735847
0.1331735847
0.1331735835
0.1331735832
0.1331735832
0.005735412629
0.005735412629
0.1331735843
0.133173584
0.133173584
0.133173584
0.1331735837
0.1331735832
0.005735412639
0.005735412639
0.1331735839
0.1331735839
0.1331735839
0.1331735844
0.1331735844
0.1331735844
0.1331735841
0.1331735841
0.1331735841
0.1331735843
0.1331735843
0.1331735844
0.133173584
0.133173584
0.133173584
0.1331735841
0.1331735841
0.1331735841
0.1331735841
0.1331735851
0.1331735851
0.1331735843
0.1331735841
0.1331735841
0.133173584
0.133173584
0.133173584
0.133173584
0.1331735837
0.1331735835
0.1331735835
0.1331735843
0.005735412648
0.005735412648
0.1331735839
0.1331735844
0.1331735839
0.1331735839
0.133173584
0.133173584
0.1331735835
0.1331735835
0.1331735839
0.1331735839
0.005735412648
0.005735412648
0.1331735837
0.005735412648
0.005735412648
0.005735412648
0.1331735833
0.1331735837
0.1331735846
0.1331735843
0.1331735843
0.1331735839
0.1331735839
0.1331735846
0.1331735841
0.133173584
0.1331735835
0.005735412648
0.005735412648
0.1331735841
0.1331735843
0.1331735844
0.133173584
0.1331735835
0.1331735835
0.1331735841
0.1331735841
0.005735412648
0.005735412648
0.1331735836
0.1331735836
0.1331735846
0.1331735836
0.005735412648
0.005735412648
0.1331735833
0.1331735833
0.1331735833
0.1331735839
0.1331735839
0.133173584
0.1331735839
0.1331735839
0.1331735843
0.1331735841
0.1331735841
0.1331735841
0.1331735843
0.1331735843
0.1331735835
0.1331735835
0.1331735841
0.1331735841
0.1331735841
0.1331735841
0.1331735841
0.1331735844
0.1331735835
0.1331735835
0.005735412647
0.005735412647
0.1331735833
0.1331735833
0.1331735835
0.1331735835
0.1331735841
0.133173584
0.133173584
0.1331735843
0.133173584
0.133173584
0.133173584
0.1331735841
0.1331735835
0.005735412646
0.005735412645
0.005735412645
0.1331735837
0.005735412645
0.005735412645
0.005735412644
0.005735412644
0.1331735835
0.1331735835
0.1331735835
0.1331735837
0.1331735837
0.1331735837
0.1331735841
0.1331735841
0.1331735843
0.1331735841
0.1331735841
0.1331735841
0.1331735836
0.1331735836
0.133173584
0.133173584
0.1331735836
0.1331735836
0.1331735843
0.1331735843
0.1331735843
0.1331735844
0.1331735844
0.1331735841
0.1331735841
0.1331735841
0.1331735837
0.1331735837
0.1331735841
0.1331735841
0.133173584
0.1331735837
0.1331735837
0.1331735838
0.1331735838
0.1331735838
0.1331735842
0.1331735842
0.1331735844
0.1331735844
0.1331735841
0.1331735841
0.1331735841
0.1331735839
0.005735412572
0.005735412572
0.1331735841
0.1331735841
0.1331735838
0.1331735838
0.1331735838
0.1331735842
0.1331735841
0.1331735833
0.005735412568
0.005735412568
0.1331735833
0.1331735833
0.005735412576
0.005735412576
0.1331735834
0.1331735833
0.005735412589
0.005735412589
0.1331735834
0.1331735834
0.005735412607
0.005735412607
0.1331735833
0.1331735833
0.1331735834
0.1331735845
0.133173584
0.133173584
0.133173584
0.1331735843
0.1331735843
0.1331735844
0.1331735843
0.1331735833
0.005735412662
0.005735412662
0.005735412666
0.005735412666
0.1331735842
0.133173584
0.00573541267
0.00573541267
0.00573541267
0.00573541267
0.1331735833
0.1331735833
0.005735412667
0.005735412667
0.1331735843
0.1331735843
0.1331735843
0.1331735843
0.1331735842
0.1331735842
0.1331735843
0.005735412655
0.005735412653
0.005735412653
0.1331735843
0.00573541265
0.00573541265
0.1331735836
0.005735412648
0.005735412648
0.1331735841
0.1331735833
0.1331735833
0.1331735843
0.133173584
0.005735412651
0.005735412651
0.1331735835
0.1331735842
0.133173584
0.133173584
0.1331735844
0.1331735844
0.1331735844
0.133173584
0.1331735839
0.1331735839
0.1331735842
0.1331735842
0.1331735842
0.1331735842
0.1331735843
0.1331735842
0.1331735841
0.1331735841
0.1331735843
0.1331735839
0.1331735839
0.1331735842
0.1331735842
0.1331735845
0.133173584
0.133173584
0.1331735841
0.1331735845
0.133173584
0.1331735839
0.1331735839
0.005735412798
0.005735412798
0.1331735838
0.1331735837
0.1331735837
0.1331735837
0.1331735845
0.1331735836
0.005735412899
0.005735412899
0.005735412915
0.133173584
0.1331735841
0.1331735846
0.1331735844
0.1331735844
0.1331735847
0.1331735846
0.1331735846
0.1331735846
0.1331735848
0.1331735841
0.1331735841
0.1331735845
0.1331735851
0.005735413351
0.005735413351
0.005735413394
0.1331735851
0.1331735847
0.1331735847
0.133173585
0.133173585
0.005735413773
0.005735413773
0.005735413841
0.005735413912
0.005735413988
0.005735414069
0.005735414154
0.1331735851
0.1331735853
0.1331735863
0.1331735863
0.1331735864
0.1331735869
0.1331735871
0.133173587
0.133173587
0.005735415499
0.005735415499
0.1331735868
0.1331735879
0.1331735879
0.1331735884
0.1331735885
0.1331735891
0.1331735892
0.1331735893
0.1331735893
0.1331735895
0.1331735897
0.005735418617
0.005735418617
0.005735419321
0.005735419321
0.1331735914
0.005735420526
0.005735420526
0.1331735937
0.1331735937
0.1331735943
0.1331735943
0.1331735949
0.1331735956
0.1331735963
0.133173597
0.1331735987
0.1331735997
0.1331735999
0.1331736005
0.1331736012
0.1331736023
0.1331736043
0.1331736051
0.1331736062
0.1331736079
0.1331736084
0.1331736096
0.1331736109
0.1331736124
0.1331736145
0.1331736153
0.1331736165
0.1331736186
0.1331736211
0.1331736228
0.1331736247
0.1331736269
0.133173629
0.1331736308
0.1331736331
0.1331736361
0.1331736379
0.005735465458
0.005735465458
0.005735468033
0.005735470723
0.00573547353
0.005735476458
0.1331736595
0.1331736627
0.1331736657
0.005735493112
0.005735493112
0.005735496882
0.00573550081
0.005735504902
0.005735509167
0.1331736971
0.1331737028
0.005735528046
0.005735528046
0.1331737194
0.1331737257
0.1331737312
0.1331737377
0.005735562591
0.005735562591
0.005735569171
0.005735576008
0.00573558311
0.005735590478
0.1331737913
0.1331738006
0.005735622863
0.005735622863
0.005735631731
0.1331738397
0.00573566035
0.00573566035
0.1331738725
0.00573569219
0.00573569219
0.00573571536
0.00573571536
0.005735727562
0.1331739506
0.005735766755
0.005735766755
0.1331739967
0.1331740132
0.005735825535
0.005735825535
0.005735841481
0.005735874965
0.005735874965
0.005735910657
0.005735910657
0.1331741629
0.1331741854
0.1331742075
0.005736010329
0.005736010329
0.005736032167
0.1331743036
0.005736101761
0.005736101761
0.005736126372
0.005736177797
0.005736177797
0.005736232271
0.005736232271
0.005736260682
0.005736289905
0.005736319975
0.1331746353
0.1331746711
0.133174708
0.1331747451
0.005736518558
0.005736518558
0.005736592106
0.005736592106
0.1331749488
0.1331749934
0.1331750379
0.133175085
0.1331751327
0.1331751806
0.005736926467
0.005736926467
0.005737020745
0.005737020745
0.005737069579
0.1331754975
0.00573722298
0.00573722298
0.1331756734
0.005737387099
0.005737387099
0.1331758621
0.133175927
0.005737623172
0.005737623172
0.005737685356
0.005737748832
0.005737813604
0.005737879673
0.005737947094
0.005738015844
0.1331765818
0.1331766609
0.1331767425
0.1331768258
0.1331769103
0.1331769971
0.005738614629
0.005738614629
0.005738695688
0.1331773581
0.1331774515
0.1331775473
0.1331776439
0.1331777425
0.1331778428
0.005739394487
0.005739394487
0.005739583154
0.005739583154
0.005739777363
0.005739777363
0.005739977061
0.005739977061
0.005740078943
0.005740182191
0.1331790494
0.1331791679
0.1331792883
0.1331794101
0.005740829232
0.005740829232
0.005740941558
0.1331799104
0.005741285779
0.005741285779
0.005741402891
0.1331804327
0.1331805683
0.1331807024
0.005742005186
0.005742005186
0.1331811157
0.1331812546
0.133181396
0.133181537
0.1331816796
0.005742890029
0.005742890029
0.1331821134
0.1331822615
0.133182408
0.1331825557
0.1331827045
0.1331828533
0.1331830031
0.005744081282
0.005744081282
0.005744351377
0.005744351377
0.005744622579
0.005744622579
0.1331840628
0.1331842152
0.005745166566
0.005745166566
0.1331846728
0.1331848259
0.1331849773
0.1331851309
0.1331852826
0.1331854334
0.133185584
0.1331857326
0.1331858832
0.1331860317
0.1331861795
0.1331863265
0.00574703455
0.00574703455
0.005747162582
0.005747289516
0.005747415277
0.1331871823
0.1331873212
0.1331874569
0.1331875911
0.1331877241
0.1331878561
0.1331879856
0.00574848063
0.00574848063
0.1331883592
0.1331884809
0.1331885983
0.005749006608
0.005749006608
0.005749200747
0.005749200747
0.1331891487
0.005749472338
0.005749472338
0.005749557297
0.00574971836
0.00574971836
0.005749867009
0.005749867009
0.005749936503
0.005750002679
0.00575006547
0.005750180361
0.005750180361
0.005750280524
0.005750280524
0.00575036532
0.00575036532
0.1331903907
0.1331904284
0.1331904603
0.1331904882
0.1331905073
0.1331905248
0.005750538635
0.005750538635
0.005750540569
0.1331905368
0.1331905255
0.1331905055
0.133190483
0.005750456609
0.005750425875
0.005750425875
0.1331903327
0.1331902826
0.1331902255
0.1331901615
0.1331900933
0.1331900154
0.005749994439
0.005749994439
0.005749833312
0.005749744552
0.005749744552
0.1331894386
0.1331893206
0.1331891954
0.005749217381
0.005749095115
0.005748967123
0.005748833409
0.005748833409
0.1331883139
0.1331881444
0.005748241911
0.005748241911
0.1331875993
0.005747738412
0.005747559246
0.005747559246
0.1331867832
0.133186563
0.005746786261
0.005746786261
0.005746366327
0.005746366327
0.1331853716
0.1331851151
0.1331848513
0.005745221716
0.005745221716
0.005744726868
0.005744726868
0.005744211652
0.005744211652
0.1331828514
0.1331825423
0.005743122634
0.005742838621
0.005742838621
0.1331812582
0.1331809246
0.1331805873
0.1331802441
0.1331798969
0.00574072952
0.00574072952
0.1331788296
0.1331784663
0.005739438847
0.005739438847
0.1331773518
0.1331769735
0.1331765923
0.005737753006
0.005737407629
0.005737407629
0.005736709717
0.005736709717
0.1331742464
0.005735647405
0.005735647405
0.133173043
0.133172639
0.1331722338
0.1331718273
0.005733483015
0.005733119054
0.005733119054
0.1331701941
0.1331697848
0.005731660238
0.005731295693
0.005730931572
0.005730568024
0.005730568024
0.1331673388
0.1331669345
0.005729123548
0.005729123548
0.1331657313
0.1331653343
0.133164939
0.1331645462
0.005727005229
0.005727005229
0.1331633856
0.1331630048
0.133162627
0.005725307979
0.005725307979
0.005724651409
0.005724651409
0.1331607976
0.133160444
0.005723383169
0.005723076369
0.005723076369
0.1331590776
0.1331587484
0.1331584251
0.1331581076
0.133157795
0.1331574882
0.00572078976
0.00572078976
0.005720269066
0.005720016935
0.005720016935
0.133155774
0.1331555103
0.1331552533
0.005718842263
0.005718624991
0.005718624991
0.00571820849
0.005718009482
0.005718009482
0.005717630087
0.005717630087
0.1331532467
0.1331530589
0.005716946995
0.005716946995
0.133152538
0.1331523782
0.1331522258
0.005716235986
0.005716112865
0.005716112865
0.005715885617
0.005715781378
0.005715781378
0.133151358
0.1331512622
0.1331511734
0.1331510917
0.1331510163
0.133150947
0.1331508848
0.005715119704
0.00571507583
0.00571507583
0.1331507004
0.1331506702
0.1331506464
0.1331506281
0.1331506155
0.1331506089
0.1331506081
0.1331506081
0.133150612
0.1331506211
0.1331506357
0.1331506548
0.1331506793
0.005715042608
0.005715042608
0.005715115757
0.005715115757
0.005715204609
0.005715204609
0.005715254455
0.0057153079
0.00571536477
0.005715424872
0.00571548819
0.005715554482
0.005715623689
0.1331514748
0.005715847308
0.005715847308
0.005715926717
0.005716008358
0.1331519195
0.005716265316
0.005716265316
0.005716354601
0.005716445429
0.005716537739
0.005716726194
0.005716726194
0.005716822063
0.00571691891
0.133152956
0.005717213834
0.005717213834
0.005717313272
0.005717413029
0.005717613132
0.005717613132
0.1331537372
0.005717913155
0.005717913155
0.1331540729
0.00571821045
0.00571821045
0.005718405826
0.005718405826
0.005718502375
0.005718598073
0.005718692845
0.005718786612
0.1331550445
0.1331551472
0.005719150132
0.005719150132
0.005719237807
0.005719324095
0.005719408916
0.005719573993
0.005719573993
0.005719654169
0.005719732713
0.005719809608
0.1331561721
0.005720030046
0.005720030046
0.005720168204
0.005720168204
0.1331565644
0.005720361926
0.005720361926
0.005720422876
0.1331568419
0.005720594853
0.005720594853
0.005720648548
0.1331570866
0.1331571428
0.1331571971
0.005720890513
0.005720890513
0.005720933746
0.1331573947
0.005721053535
0.005721053535
0.1331575238
0.1331575637
0.005721191496
0.005721191496
0.1331576721
0.00572128005
0.00572128005
0.005721306948
0.005721332646
0.005721357188
0.005721380591
0.1331578744
0.1331578983
0.005721464312
0.005721464312
0.005721500977
0.005721500977
0.1331580035
0.005721550931
0.005721550931
0.1331580578
0.00572159623
0.00572159623
0.005721624704
0.005721624704
0.1331581388
0.005721666192
0.005721666192
0.005721679928
0.005721693719
0.005721721717
0.005721721717
0.005721736054
0.005721750704
0.005721781212
0.005721781212
0.005721797173
0.1331583348
0.1331583543
0.005721867092
0.005721867092
0.005721886391
0.005721906522
0.1331584626
0.1331584873
0.133158513
0.005722021608
0.005722021608
0.1331585975
0.1331586283
0.1331586606
0.005722165339
0.005722165339
0.005722232131
0.005722232131
0.005722267688
0.005722304717
0.005722343276
0.005722425061
0.005722425061
0.005722468378
0.005722513372
0.005722608362
0.005722608362
0.1331592821
0.005722763833
0.005722763833
0.005722819196
0.005722935367
0.005722935367
0.1331596609
0.1331597312
0.005723189675
0.005723189675
0.1331599546
0.1331600329
0.1331601136
0.1331601964
0.005723627046
0.005723627046
0.005723787725
0.005723787725
0.005723955864
0.005723955864
0.005724042688
0.005724131318
0.1331610351
0.1331611388
0.1331612444
0.1331613517
0.1331614611
0.1331615718
0.005724903955
0.005724903955
0.005725008198
0.00572511407
0.133162156
0.1331622784
0.005725553208
0.005725553208
0.005725781788
0.005725781788
0.00572589823
0.005726016039
0.005726135212
0.005726255705
0.1331634522
0.005726624661
0.005726624661
0.005726750034
0.1331640119
0.005727132798
0.005727132798
0.005727262481
0.005727524695
0.005727524695
0.005727790438
0.005727790438
0.005728059412
0.005728059412
0.005728331303
0.005728331303
0.005728468233
0.005728743842
0.005728743842
0.005728882429
0.133166417
0.1331665735
0.005729441068
0.005729441068
0.00572958158
0.005729722358
0.005729863349
0.005730004532
0.005730287248
0.005730287248
0.1331679949
0.1331681536
0.1331683122
0.005730994242
0.005730994242
0.005731135351
0.00573141698
0.00573141698
0.1331692605
0.1331694178
0.00573197674
0.00573197674
0.1331698866
0.133170042
0.133170197
0.1331703513
0.1331705044
0.1331706575
0.1331708106
0.1331709615
0.005733342521
0.005733342521
0.005733475551
0.1331715595
0.133171707
0.1331718543
0.005734128641
0.005734128641
0.005734256647
0.005734509828
0.005734509828
0.005734634983
0.005734882231
0.005734882231
0.005735125354
0.005735125354
0.005735245286
0.005735364106
0.005735481794
0.005735713713
0.005735713713
0.005735827903
0.005735940886
0.005736052656
0.005736163209
0.1331745479
0.1331746686
0.1331747883
0.005736696905
0.005736696905
0.00573679976
0.1331752525
0.005737100315
0.005737100315
0.005737197798
0.005737293917
0.005737388655
0.005737481994
0.005737573964
0.1331761083
0.1331762084
0.005737927748
0.005737927748
0.133176499
0.005738178178
0.005738178178
0.133176775
0.1331768635
0.1331769506
0.1331770361
0.00573864016
0.00573864016
0.005738712102
0.00573878263
0.005738919256
0.005738919256
0.005738985415
0.1331776624
0.005739175272
0.005739175272
0.1331778702
0.1331779364
0.1331780009
0.1331780641
0.1331781251
0.1331781848
0.133178243
0.1331782996
0.1331783544
0.1331784081
0.1331784599
0.1331785101
0.005739892248
0.005739892248
0.005739972547
0.005739972547
0.1331787398
0.1331787804
0.005740117232
0.005740117232
0.1331788955
0.1331789313
0.1331789653
0.1331789978
0.005740295741
0.005740295741
0.005740321153
0.00574036836
0.00574036836
0.1331791646
0.1331791879
0.005740448753
0.005740448753
0.005740482164
0.005740482164
0.1331792846
0.1331793003
0.1331793148
0.1331793283
0.005740556761
0.005740556761
0.005740573536
0.005740573536
0.005740580491
0.005740586505
0.005740595798
0.005740595798
0.005740599121
0.1331794017
0.1331794035
0.005740604071
0.005740604071
0.1331794023
0.1331793999
0.005740596814
0.00574059323
0.005740588948
0.005740588948
0.00574057843
0.00574057843
0.005740565417
0.005740565417
0.00574055008
0.00574055008
0.1331793242
0.00574052313
0.00574052313
0.005740502723
0.005740491855
0.005740491855
0.1331792531
0.005740456852
0.005740456852
0.1331792126
0.005740418667
0.005740405343
0.005740391759
0.005740391759
0.005740363891
0.005740363891
0.1331791031
0.00574032064
0.005740305922
0.005740305922
0.00574027615
0.00574027615
0.1331790031
0.005740230988
0.005740230988
0.1331789525
0.005740185703
0.00574017068
0.00574017068
0.1331788851
0.1331788685
0.1331788521
0.133178836
0.005740082705
0.005740082705
0.005740054665
0.005740054665
0.00574002751
0.005740014304
0.005740014304
0.1331787147
0.005739976375
0.005739964352
0.005739964352
0.1331786622
0.1331786492
0.1331786372
0.005739909534
0.005739909534
0.005739890341
0.005739890341
0.005739872878
0.005739872878
0.005739857238
0.005739850121
0.00573984349
0.005739837366
0.005739831743
0.005739831743
0.1331785281
0.1331785232
0.005739814495
0.005739811519
0.005739809095
0.00573980723
0.00573980723
0.1331785088
0.005739805031
0.005739805031
0.00573980541
0.005739806362
0.1331785116
0.005739812668
0.005739812668
0.005739815929
0.005739824246
0.005739824246
0.005739829301
0.005739834935
0.005739841166
0.133178557
0.1331785652
0.1331785743
0.005739881291
0.005739881291
0.005739901512
0.005739901512
0.005739912512
0.005739924091
0.005739948993
0.005739948993
0.1331786848
0.005739990666
0.005739990666
0.005740021248
0.005740021248
0.005740037363
0.005740054023
0.1331788073
0.00574010721
0.00574010721
0.00574012598
0.1331788909
0.1331789127
0.005740206072
0.005740206072
0.1331789822
0.1331790067
0.005740293751
0.005740293751
0.00574034027
0.00574034027
0.1331791355
0.1331791628
0.005740438243
0.005740438243
0.005740463692
0.1331792762
0.005740542178
0.005740542178
0.005740569026
0.005740596201
0.1331794268
0.1331794576
0.1331794893
0.133179521
0.1331795529
0.005740794318
0.005740794318
0.1331796516
0.1331796841
0.133179717
0.005740942825
0.005740942825
0.00574100348
0.00574100348
0.1331798885
0.005741095464
0.005741095464
0.005741157316
0.005741157316
0.005741219491
0.005741219491
0.1331801296
0.1331801649
0.005741344425
0.005741344425
0.1331802698
0.005741438289
0.005741438289
0.00574150074
0.00574150074
0.005741531892
0.005741562984
0.005741594005
0.005741655803
0.005741655803
0.005741686561
0.1331806527
0.1331806874
0.1331807213
0.005741838407
0.005741838407
0.00574186832
0.1331808555
0.005741956979
0.005741956979
0.005741986148
0.1331809868
0.1331810188
0.133181051
0.005742128717
0.005742128717
0.1331811453
0.1331811769
0.005742238294
0.005742238294
0.005742265004
0.005742291427
0.1331813259
0.1331813556
0.005742394109
0.005742394109
0.005742418999
0.133181467
0.1331814942
0.005742515222
0.005742515222
0.1331815741
0.1331816005
0.133181626
0.005742627609
0.005742627609
0.005742669969
0.005742669969
0.1331817446
0.133181768
0.005742750089
0.005742750089
0.005742769143
0.00574280605
0.00574280605
0.1331818938
0.1331819133
0.1331819324
0.005742891106
0.005742891106
0.00574290687
0.1331820047
0.1331820211
0.005742965692
0.005742965692
0.00574299255
0.00574299255
0.1331820972
0.1331821115
0.005743041047
0.005743041047
0.005743052089
0.1331821612
0.005743082596
0.005743082596
0.1331821944
0.005743109188
0.005743109188
0.00574312473
0.00574312473
0.005743131854
0.005743138546
0.0057431448
0.005743156009
0.005743156009
0.005743160966
0.1331822767
0.005743173261
0.005743173261
0.005743176508
0.1331822921
0.00574318372
0.00574318372
0.1331822988
0.1331823009
0.133182301
0.133182301
0.1331823009
0.1331822996
0.1331822984
0.005743183196
0.005743183196
0.1331822922
0.005743175933
0.005743172737
0.005743169148
0.005743169148
0.00574316082
0.00574316082
0.1331822605
0.005743145508
0.005743145508
0.1331822412
0.1331822347
0.1331822272
0.1331822176
0.1331822088
0.005743097059
0.005743088725
0.005743088725
0.1331821713
0.1331821604
0.1331821496
0.1331821396
0.1331821286
0.005743020997
0.005743020997
0.1331820906
0.1331820768
0.1331820632
0.005742963043
0.005742963043
0.1331820212
0.005742924703
0.005742911349
0.005742911349
0.1331819609
0.133181945
0.133181929
0.1331819127
0.1331818967
0.1331818791
0.005742794837
0.005742794837
0.005742763183
0.005742746997
0.005742746997
0.005742713945
0.005742713945
0.005742680005
0.005742680005
0.005742645219
0.005742645219
0.1331816535
0.133181633
0.1331816125
0.005742554759
0.005742554759
0.005742517267
0.005742498261
0.005742498261
0.005742459749
0.005742459749
0.1331814415
0.1331814191
0.1331813971
0.005742360745
0.005742360745
0.1331813288
0.1331813058
0.005742279033
0.005742279033
0.005742237425
0.005742237425
0.005742195359
0.005742195359
0.1331811413
0.005742131471
0.005742131471
0.0057420884
0.005742066729
0.005742044971
0.005742023133
0.005742001219
0.005741979231
0.00574195717
0.00574193504
0.00574193504
0.005741890591
0.00574186828
0.005741845916
0.005741823502
0.005741823502
0.005741778535
0.005741755985
0.005741755985
0.1331806457
0.005741688104
0.005741665406
0.005741665406
0.00574161992
0.005741597138
0.005741574332
0.005741574332
0.005741528663
0.005741528663
0.1331803902
0.005741460051
0.005741460051
0.1331803135
0.005741391347
0.005741391347
0.005741345514
0.005741322591
0.005741299667
0.005741276741
0.005741276741
0.1331801076
0.1331800817
0.1331800562
0.005741162179
0.005741162179
0.1331799791
0.1331799533
0.1331799288
0.005741047794
0.005741024943
0.005741002105
0.005740979278
0.005740979278
0.1331797746
0.1331797498
0.1331797231
0.1331796981
0.1331796726
0.1331796475
0.1331796216
0.1331795961
0.1331795703
0.005740728952
0.005740706259
0.005740706259
0.005740660907
0.005740638247
0.005740615594
0.005740615594
0.1331793666
0.005740547675
0.005740547675
0.005740502414
0.005740479785
0.005740479785
0.1331792145
0.1331791891
0.1331791637
0.00574036664
0.00574036664
0.005740321361
0.005740321361
0.133179037
0.1331790112
0.0057402307
0.0057402307
0.1331789349
0.005740162565
0.00574013982
0.00574013982
0.1331788338
0.1331788072
0.1331787816
0.133178756
0.1331787305
0.1331787048
0.1331786799
0.1331786538
0.1331786273
0.1331786023
0.005739864809
0.005739864809
0.1331785237
0.00573979522
0.00573979522
0.005739748594
0.005739725203
0.005739725203
0.005739678257
0.005739654696
0.005739631075
0.005739607391
0.005739607391
0.005739559822
0.005739559822
0.1331781801
0.1331781531
0.1331781262
0.1331780991
0.1331780727
0.1331780456
0.1331780182
0.1331779897
0.133177962
0.1331779355
0.1331779073
0.1331778796
0.133177851
0.1331778233
0.1331777953
0.1331777676
0.1331777435
0.1331777181
0.1331776913
0.1331776635
0.1331776349
0.1331776057
0.1331775732
0.1331775433
0.1331775135
0.133177483
0.133177454
0.1331774228
0.1331773922
0.133177362
0.1331773322
0.1331773019
0.1331772693
0.1331772378
0.1331772064
0.1331771745
0.1331771432
0.1331771121
0.1331770811
0.1331770488
0.1331770175
0.1331769857
0.1331769554
0.1331769246
0.1331768934
0.1331768616
0.1331768287
0.1331767955
0.133176761
0.1331767263
0.1331766932
0.005738155509
0.005738155509
0.005738095845
0.005738095845
0.1331765259
0.133176492
0.1331764579
0.1331764236
0.1331763889
0.1331763544
0.1331763195
0.1331762854
0.1331762499
0.1331762148
0.1331761796
0.1331761454
0.133176111
0.1331760757
0.1331760408
0.1331760068
0.1331759702
0.1331759339
0.1331758985
0.1331758669
0.1331758328
0.133175797
0.1331757589
0.1331757218
0.1331756852
0.1331756482
0.133175611
0.1331755741
0.1331755364
0.1331754984
0.133175461
0.1331754234
0.1331753865
0.133175349
0.1331753116
0.1331752734
0.1331752351
0.1331751973
0.1331751589
0.1331751215
0.1331750834
0.1331750448
0.1331750064
0.133174968
0.1331749289
0.1331748914
0.1331748525
0.1331748146
0.1331747757
0.133174737
0.133174699
0.1331746603
0.1331746213
0.133174583
0.1331745426
0.133174503
0.1331744639
0.1331744226
0.1331743833
0.1331743445
0.1331743058
0.1331742672
0.1331742282
0.1331741901
0.1331741517
0.1331741131
0.1331740749
0.1331740372
0.1331739993
0.1331739609
0.1331739221
0.1331738838
0.1331738491
0.1331738133
0.1331737756
0.1331737363
0.133173697
0.1331736571
0.1331736166
0.1331735768
0.1331735369
0.1331734981
0.1331734606
0.1331734229
0.1331733857
0.1331733479
0.1331733107
0.1331732737
0.1331732359
0.1331731989
0.1331731621
0.1331731258
0.1331730892
0.1331730523
0.1331730155
0.1331729788
0.1331729426
0.1331729065
0.1331728707
0.1331728348
0.1331727994
0.1331727636
0.1331727277
0.1331726919
0.1331726559
0.1331726207
0.133172586
0.1331725506
0.1331725153
0.005734429136
0.005734398248
0.005734398248
0.005734336827
0.005734336827
0.1331723091
0.133172276
0.1331722419
0.133172208
0.1331721747
0.133172141
0.005734096008
0.005734096008
0.1331720414
0.1331720088
0.1331719764
0.1331719452
0.1331719132
0.1331718804
0.133171849
0.1331718178
0.1331717857
0.1331717551
0.1331717238
0.1331716925
0.1331716613
0.1331716301
0.1331715995
0.1331715685
0.1331715378
0.1331715076
0.1331714776
0.1331714476
0.1331714179
0.1331713893
0.1331713594
0.1331713298
0.1331713001
0.1331712709
0.1331712415
0.133171212
0.1331711836
0.1331711551
0.1331711256
0.1331710978
0.1331710681
0.1331710396
0.1331710111
0.1331709836
0.1331709565
0.1331709289
0.1331709019
0.1331708754
0.133170849
0.1331708228
0.1331707971
0.1331707712
0.1331707457
0.13317072
0.1331706941
0.1331706684
0.1331706419
0.1331706158
0.1331705905
0.1331705656
0.1331705413
0.1331705182
0.1331704943
0.133170472
0.1331704497
0.1331704273
0.1331704046
0.1331703824
0.1331703608
0.1331703383
0.1331703164
0.1331702937
0.133170271
0.1331702453
0.1331702204
0.1331701955
0.1331701716
0.1331701491
0.1331701271
0.1331701058
0.1331700819
0.1331700593
0.1331700382
0.1331700169
0.1331699962
0.1331699758
0.1331699545
0.1331699343
0.1331699142
0.1331698942
0.1331698737
0.1331698541
0.1331698342
0.1331698144
0.133169795
0.1331697761
0.1331697574
0.1331697385
0.1331697192
0.1331697006
0.133169683
0.1331696647
0.1331696471
0.1331696286
0.1331696106
0.1331695911
0.1331695731
0.1331695558
0.1331695379
0.1331695199
0.1331695027
0.1331694864
0.1331694694
0.1331694522
0.1331694352
0.1331694182
0.1331694012
0.1331693845
0.133169368
0.1331693524
0.1331693365
0.1331693221
0.133169308
0.1331692927
0.1331692769
0.1331692596
0.1331692433
0.133169228
0.1331692117
0.1331691949
0.1331691785
0.1331691629
0.1331691476
0.133169133
0.1331691181
0.1331691029
0.1331690887
0.1331690743
0.1331690603
0.1331690461
0.1331690321
0.133169018
0.1331690031
0.133168989
0.1331689748
0.1331689601
0.1331689461
0.1331689319
0.1331689174
0.1331689037
0.1331688894
0.1331688753
0.1331688615
0.1331688463
0.1331688316
0.1331688172
0.1331688031
0.1331687893
0.1331687754
0.1331687619
0.1331687485
0.1331687357
0.1331687229
0.13316871
0.133168698
0.1331686852
0.133168671
0.1331686565
0.1331686428
0.1331686293
0.1331686162
0.1331686035
0.1331685906
0.1331685782
0.1331685653
0.1331685526
0.1331685418
0.13316853
0.1331685177
0.1331685052
0.1331684928
0.1331684789
0.1331684659
0.1331684535
0.1331684416
0.1331684293
0.1331684175
0.1331684055
0.133168394
0.1331683821
0.1331683708
0.1331683602
0.1331683494
0.1331683384
0.1331683285
0.1331683174
0.1331683063
0.1331682954
0.1331682848
0.1331682748
0.1331682649
0.1331682543
0.1331682445
0.1331682337
0.1331682227
0.1331682123
0.1331682026
0.1331681928
0.133168183
0.1331681743
0.1331681655
0.1331681569
0.1331681495
0.133168142
0.1331681343
0.133168127
0.1331681196
0.1331681123
0.1331681051
0.1331680987
0.1331680924
0.1331680851
0.1331680774
0.133168068
0.1331680579
0.1331680493
0.1331680422
0.1331680361
0.1331680291
0.1331680235
0.1331680182
0.133168013
0.1331680083
0.1331680076
0.1331680043
0.1331680002
0.1331679948
0.1331679906
0.1331679866
0.1331679808
0.1331679753
0.1331679696
0.133167965
0.1331679611
0.1331679585
0.005730394297
0.005730394297
0.1331679535
0.1331679519
0.1331679508
0.1331679497
0.1331679484
0.1331679481
0.1331679478
0.1331679476
0.1331679476
0.1331679477
0.1331679477
0.1331679479
0.1331679489
0.005730389353
0.005730389353
0.1331679522
0.1331679547
0.1331679566
0.1331679596
0.1331679625
0.1331679659
0.1331679686
0.1331679718
0.1331679749
0.1331679775
0.1331679815
0.1331679851
0.1331679892
0.1331679929
0.1331679979
0.1331680028
0.1331680076
0.1331680124
0.1331680171
0.1331680222
0.1331680277
0.1331680329
0.1331680386
0.1331680438
0.1331680497
0.133168056
0.1331680637
0.1331680713
0.1331680781
0.1331680844
0.1331680898
0.1331680942
0.1331680981
0.1331681028
0.1331681089
0.1331681157
0.133168123
0.1331681296
0.1331681371
0.1331681444
0.1331681514
0.133168158
0.1331681654
0.1331681733
0.1331681803
0.1331681881
0.1331681957
0.005730620449
0.005730620449
0.00573063378
0.00573063378
0.005730640444
0.1331682397
0.1331682474
0.005730666996
0.005730666996
0.1331682699
0.1331682775
0.1331682846
0.005730699665
0.005730699665
0.1331683068
0.1331683136
0.1331683207
0.1331683294
0.1331683389
0.1331683474
0.1331683562
0.1331683649
0.1331683744
0.1331683818
0.1331683883
0.1331683939
0.1331683997
0.133168406
0.1331684126
0.1331684176
0.1331684211
0.133168426
0.1331684315
0.1331684369
0.1331684417
0.1331684472
0.1331684532
0.1331684586
0.1331684641
0.1331684696
0.133168475
0.1331684807
0.1331684856
0.1331684917
0.1331684977
0.1331685033
0.1331685078