/*--------------------------------*- C++ -*----------------------------------*\
| =========                 |                                                 |
| \\      /  F ield         | OpenFOAM: The Open Source CFD Toolbox           |
|  \\    /   O peration     | Version:  2312                                  |
|   \\  /    A nd           | Website:  www.openfoam.com                      |
|    \\/     M anipulation  |                                                 |
\*---------------------------------------------------------------------------*/
FoamFile
{
    version     2.0;
    format      ascii;
    arch        "LSB;label=32;scalar=64";
    class       volScalarField;
    location    "0.003";
    object      p;
}
// * * * * * * * * * * * * * * * * * * * * * * * * * * * * * * * * * * * * * //

dimensions      [1 -1 -2 0 0 0 0];

internalField   nonuniform List<scalar> 
8000
(
99998.71611
99997.75317
99997.50481
99997.57114
99997.5903
99997.58426
99997.58138
99997.58029
99997.57903
99997.57735
99997.57582
99997.57471
99997.57415
99997.57453
99997.57648
99997.58036
99997.58594
99997.59283
99997.60075
99997.60881
99997.61618
99997.62237
99997.62688
99997.62965
99997.63071
99997.63029
99997.62856
99997.62577
99997.62225
99997.61862
99997.61541
99997.61219
99997.60903
99997.60639
99997.60454
99997.60294
99997.60134
99997.60044
99997.59966
99997.59902
99997.59835
99997.59755
99997.5972
99997.59679
99997.59661
99997.59649
99997.59651
99997.59656
99997.59657
99997.59649
99997.59628
99997.59614
99997.59594
99997.59594
99997.59616
99997.59618
99997.59594
99997.59587
99997.59596
99997.59591
99997.59603
99997.59615
99997.59615
99997.59627
99997.59635
99997.59645
99997.59646
99997.59651
99997.59659
99997.59662
99997.59678
99997.59663
99997.59666
99997.59672
99997.59664
99997.59666
99997.59667
99997.59657
99997.59662
99997.59653
99997.59631
99997.59617
99997.59627
99997.59617
99997.59592
99997.59606
99997.5962
99997.5962
99997.59633
99997.59622
99997.5962
99997.59624
99997.59604
99997.59595
99997.59598
99997.59602
99997.59605
99997.59625
99997.59635
99997.59638
99997.59637
99997.59643
99997.59653
99997.59643
99997.59623
99997.59621
99997.59631
99997.5963
99997.59618
99997.59642
99997.59629
99997.59606
99997.59597
99997.59594
99997.596
99997.59618
99997.59598
99997.59591
99997.59589
99997.59552
99997.59545
99997.59539
99997.59519
99997.59509
99997.59489
99997.59471
99997.59453
99997.59431
99997.59433
99997.59388
99997.59378
99997.59356
99997.59332
99997.59293
99997.59252
99997.59227
99997.59197
99997.59174
99997.59143
99997.59115
99997.59057
99997.59002
99997.58947
99997.5887
99997.58811
99997.58736
99997.58639
99997.58539
99997.58454
99997.58359
99997.58245
99997.58109
99997.57979
99997.57826
99997.57658
99997.5747
99997.57286
99997.57094
99997.56875
99997.56648
99997.56437
99997.56165
99997.55875
99997.55564
99997.55217
99997.54854
99997.5447
99997.54073
99997.53663
99997.53209
99997.52767
99997.52254
99997.51699
99997.51123
99997.50534
99997.49926
99997.49295
99997.48653
99997.47989
99997.47305
99997.46637
99997.45967
99997.45287
99997.44588
99997.43907
99997.43239
99997.4259
99997.41963
99997.41386
99997.40847
99997.4038
99997.39984
99997.39626
99997.39338
99997.39119
99997.38978
99997.38923
99997.38972
99997.39107
99997.39326
99997.39646
99997.40077
99997.40587
99997.41191
99997.41886
99997.42651
99997.43543
99997.44502
99997.45527
99997.4658
99997.47713
99997.48863
99997.50043
99997.51221
99997.52406
99997.53577
99997.54733
99997.5589
99997.57
99997.58069
99997.59051
99997.6001
99997.60878
99997.61674
99997.62381
99997.62996
99997.63536
99997.63984
99997.64336
99997.64631
99997.64833
99997.64944
99997.64986
99997.64956
99997.64863
99997.64701
99997.64468
99997.64187
99997.63834
99997.6345
99997.63025
99997.62577
99997.62101
99997.61638
99997.61145
99997.60665
99997.60155
99997.59668
99997.59174
99997.58714
99997.58269
99997.57857
99997.57472
99997.5709
99997.56735
99997.56387
99997.5609
99997.55829
99997.55576
99997.55338
99997.55125
99997.54928
99997.54759
99997.54594
99997.54448
99997.5431
99997.54175
99997.54009
99997.53867
99997.53706
99997.53543
99997.53376
99997.53194
99997.52979
99997.52731
99997.52449
99997.5212
99997.5174
99997.51316
99997.50846
99997.50317
99997.49717
99997.49088
99997.48413
99997.47645
99997.46781
99997.45862
99997.44854
99997.43758
99997.42588
99997.41287
99997.39896
99997.38386
99997.36754
99997.3498
99997.33063
99997.31024
99997.28816
99997.26447
99997.23853
99997.21085
99997.18116
99997.14923
99997.115
99997.07845
99997.03909
99996.99673
99996.95116
99996.902
99996.84945
99996.79331
99996.7331
99996.66832
99996.59919
99996.5252
99996.44626
99996.36228
99996.27229
99996.1763
99996.07391
99995.9648
99995.84862
99995.72466
99995.59258
99995.45253
99995.30378
99995.14548
99994.9774
99994.79911
99994.6096
99994.40886
99994.19647
99993.97094
99993.73227
99993.47946
99993.21163
99992.92817
99992.62855
99992.3116
99991.97622
99991.62181
99991.24721
99990.85126
99990.43313
99989.99161
99989.52537
99989.03297
99988.51326
99987.96505
99987.38631
99986.77576
99986.13189
99985.45268
99984.73664
99983.98131
99983.18535
99982.34803
99981.46507
99980.53512
99979.55468
99978.52371
99977.43684
99976.29448
99975.09104
99973.82455
99972.4929
99971.09318
99969.61953
99968.07164
99966.4447
99964.73496
99962.93856
99961.0508
99959.06868
99956.98872
99954.80324
99952.51129
99950.10591
99947.58202
99944.93518
99942.15952
99939.24949
99936.19917
99933.00277
99929.65368
99926.14542
99922.47142
99918.62445
99914.59744
99910.38301
99905.97286
99901.35912
99896.53367
99891.48774
99886.2128
99880.69982
99874.93865
99868.91653
99862.62246
99856.0565
99849.20268
99842.05091
99834.58112
99826.79345
99818.66616
99810.18679
99801.34597
99792.13131
99782.52623
99772.51764
99762.09146
99751.23928
99739.93864
99728.17084
99715.91677
99703.16706
99689.91687
99676.1196
99661.7768
99646.86117
99631.35139
99615.2422
99598.50959
99581.12138
99563.07194
99544.3284
99524.8592
99504.67281
99483.72726
99461.98107
99439.43928
99416.07847
99391.84934
99366.73156
99340.70819
99313.75833
99285.82927
99256.93558
99227.00539
99196.03152
99164.00042
99130.84311
99096.53315
99061.07246
99024.42862
98986.51844
98947.37348
98906.93603
98865.1455
98822.00087
98777.44752
98731.47043
98684.04608
98635.0811
98584.58611
98532.51935
98478.80437
98423.47708
98366.47183
98307.71301
98247.18559
98184.84928
98120.70362
98054.63802
97986.65538
97916.77828
97844.81281
97770.7773
97694.7659
97616.58808
97536.22266
97453.68531
97368.92996
97281.80224
97192.37922
97100.64161
97006.39886
96909.74126
96810.67199
96709.00414
96604.80028
96497.97859
96388.50287
96276.38707
96161.45915
96043.75815
95923.33724
95800.09494
95673.84449
95544.76206
95412.71202
95277.6871
95139.72137
94998.61464
94854.43944
94707.16208
94556.71873
94403.10106
94246.24964
94086.181
93922.88366
93756.22264
93586.30052
93413.0768
93236.52317
93056.55376
92873.18022
92686.34968
92496.12082
92302.47499
92105.30699
91904.70792
91700.69545
91493.20649
91282.14013
91067.61329
90849.60315
90628.08043
90403.07333
90174.57928
89942.51587
89707.01618
89468.13159
89225.77039
88979.92719
88730.79025
88478.12964
88222.10424
87962.83395
87700.15081
87434.14363
87164.90821
86892.45577
86616.7975
86338.01752
86056.20128
85771.23785
85483.33989
85192.45686
84898.64546
84602.01668
84302.70674
84000.57249
83695.79463
83388.52284
83078.77327
82766.54471
82451.98761
82135.1847
81816.21408
81495.14592
81172.11024
80847.17528
80520.4423
80192.02472
79862.02252
79530.54675
79197.70662
78863.60929
78528.36773
78192.14863
77855.0627
77517.21037
77178.71366
76839.73827
76500.39786
76160.85055
75821.22804
75481.71563
75142.41207
74803.52387
74465.19894
74127.60753
73790.90428
73455.25599
73120.83464
72787.81162
72456.36261
72126.66626
71798.91955
71473.2671
71149.82355
70828.92689
70510.694
70195.30023
69883.04685
69574.10744
69268.56594
68966.62297
68668.53242
68374.49449
68084.70289
67799.25144
67518.47377
67242.62361
66971.88633
66706.56185
66446.52003
66192.22115
65943.88587
65701.43101
65465.53649
65236.06731
65013.53519
64797.93697
64589.53256
64388.52264
64195.11653
64009.64949
63831.95036
63662.6498
63501.79207
63349.7461
63206.3416
63072.12855
62947.17029
62831.58994
62725.66966
62629.83174
62544.02676
62468.6534
62403.46376
62349.01448
62305.26305
62272.33448
62250.54156
62239.7949
62240.35402
62251.36869
62273.78826
62308.29019
62354.86991
62413.16767
62483.72601
62566.85393
62662.47597
62770.72724
62892.04785
63026.24385
63173.531
63334.05025
63507.90389
63695.3662
63896.48301
64111.20417
64339.27212
64581.52675
64837.63616
65107.64594
65391.65542
65689.92511
66002.44258
66329.03964
66669.54773
67024.23217
67393.29316
67776.84095
68174.25373
68585.99961
69011.99899
69451.89255
69906.27657
70374.41491
70856.761
71353.40516
71863.4607
72387.47964
72925.18038
73476.50819
74041.49661
74619.73739
75211.38662
75816.14624
76433.40684
77063.74363
77706.98028
78362.26164
79029.89775
79709.83
80401.57271
81104.72628
81819.08819
82544.92478
83281.74933
84029.14068
84787.04451
85555.06457
86332.8068
87120.08929
87916.51979
88722.02611
89536.41704
90358.98791
91189.43346
92027.66915
92873.23546
93725.5362
94584.47006
95449.73162
96320.90067
97197.57593
98079.28472
98965.67652
99856.22258
100750.764
101648.8778
102549.9048
103453.6587
104359.6727
105267.5317
106176.7806
107086.7904
107997.4511
108908.2138
109818.4873
110728.0738
111636.3548
112542.8529
113447.0763
114348.6971
115247.3015
116142.334
117033.3876
117920.1045
118802.0181
119678.7487
120549.8489
121414.6794
122272.9096
123124.1783
123968.198
124804.4915
125632.5429
126452.1007
127262.7328
128063.9109
128855.6111
129637.2758
130408.6293
131169.1453
131918.3341
132656.426
133382.5541
134096.7538
134798.4497
135487.7691
136164.6037
136827.7961
137477.3941
138113.7633
138736.0111
139344.2171
139938.0218
140517.4028
141082.0098
141631.8602
142167.1252
142686.9063
143191.024
143680.2095
144153.8206
144611.3329
145053.2345
145479.513
145890.0745
146284.7361
146663.5982
147026.8145
147373.5271
147704.2192
148019.5762
148319.2713
148602.9199
148871.1062
149123.2024
149359.7525
149580.8365
149786.766
149977.184
150152.7199
150313.5356
150459.4711
150590.6715
150707.3611
150809.8212
150898.1459
150972.4171
151033.0511
151080.4167
151114.618
151135.9617
151145.0394
151142.4533
151128.4766
151102.5679
151064.7703
151015.9183
150956.2628
150885.6156
150804.204
150712.8409
150611.5526
150500.9028
150381.0987
150251.8852
150114.2975
149968.2799
149814.1269
149652.3772
149483.4327
149307.4278
149124.4375
148935.0575
148739.7548
148538.6925
148332.0992
148120.6967
147904.3511
147683.4831
147458.7894
147230.1524
146997.916
146762.6282
146524.5743
146283.9011
146041.0206
145796.3564
145550.049
145302.3078
145053.6365
144804.2586
144554.4425
144304.4752
144054.5128
143804.9707
143556.0887
143308.0724
143061.1592
142815.6695
142571.7873
142329.7167
142089.6185
141851.7609
141616.3751
141383.5812
141153.6767
140926.7009
140702.8404
140482.2543
140265.0597
140051.551
139841.7271
139635.6013
139433.4863
139235.3832
139041.3255
138851.5287
138665.9743
138484.7168
138307.7992
138135.4499
137967.5578
137804.0981
137645.1
137490.6336
137340.6885
137195.4163
137054.6078
136918.3517
136786.605
136659.2571
136536.4313
136417.8626
136303.615
136193.6646
136087.8855
135986.2979
135888.6629
135795.0549
135705.325
135619.3202
135537.1043
135458.3751
135383.04
135311.0072
135242.2326
135176.5095
135113.7549
135053.9098
134996.6758
134942.0498
134889.8358
134839.9304
134792.1863
134746.3558
134702.3671
134660.0706
134619.2493
134579.8299
134541.6808
134504.5302
134468.2363
134432.6736
134397.7255
134363.1937
134328.8171
134294.5537
134260.2499
134225.7225
134190.8104
134155.3579
134119.1812
134082.1741
134044.146
134004.9863
133964.5237
133922.6142
133879.1116
133833.8094
133786.6359
133737.4517
133686.0856
133632.4479
133576.3854
133517.7158
133456.3757
133392.2491
133325.2284
133255.1618
133181.8904
133105.312
133025.3839
132942.0104
132855.0319
132764.4016
132669.9711
132571.8504
132469.6995
132363.5717
132253.2989
132138.9292
132020.326
131897.4447
131770.2273
131638.685
131502.652
131362.0871
131217.0666
131067.5698
130913.4841
130754.7786
130591.4965
130423.517
130250.9435
130073.6048
129891.6409
129705.0594
129513.7753
129317.8199
129117.1953
128911.9188
128702.1745
128487.7177
128268.8097
128045.2979
127817.2961
127584.8628
127347.991
127106.7729
126861.2708
126611.439
126357.4411
126099.3695
125837.2138
125571.0246
125300.749
125026.6589
124748.7659
124467.1311
124181.803
123892.9596
123600.6706
123304.9023
123005.8002
122703.479
122397.9622
122089.4566
121777.9624
121463.5599
121146.4683
120826.6133
120504.2423
120179.3386
119852.0822
119522.6301
119190.9041
118857.1558
118521.406
118183.8251
117844.4993
117503.5583
117160.9418
116816.9416
116471.6629
116125.1337
115777.4662
115428.7774
115079.1775
114728.7898
114377.6938
114026.0143
113673.7975
113321.2122
112968.3405
112615.2944
112262.1724
111909.0249
111556.0179
111203.2344
110850.7845
110498.7628
110147.262
109796.376
109446.2048
109096.8462
108748.3522
108400.8324
108054.4349
107709.2038
107365.2059
107022.4975
106681.2485
106341.5329
106003.3673
105666.8253
105332.0134
104999.0184
104667.9207
104338.8015
104011.6829
103686.6237
103363.7224
103043.0811
102724.7453
102408.6918
102095.0715
101783.9963
101475.3754
101169.3283
100865.9715
100565.2791
100267.3265
99972.16586
99679.85358
99390.4789
99103.93562
98820.37512
98539.85466
98262.33688
97987.977
97716.80529
97448.70718
97183.78369
96922.12448
96663.77599
96408.7432
96156.99623
95908.5342
95663.57797
95421.94805
95183.72141
94949.00969
94717.64329
94489.8358
94265.51462
94044.74383
93827.51178
93613.78365
93403.62247
93197.00034
92994.01187
92794.6191
92598.63573
92406.52779
92217.93829
92032.89232
91851.47363
91673.65981
91499.50199
91328.97352
91162.06965
90998.71059
90838.96227
90682.7776
90530.22321
90381.28678
90235.90166
90094.09862
89955.80684
89821.05824
89689.85891
89562.1493
89437.96015
89317.23508
89199.97475
89086.22381
88975.7966
88868.7433
88765.18189
88664.9987
88568.02656
88474.38003
88384.14553
88297.12512
88213.42085
88132.90882
88055.50865
87981.2757
87910.15481
87842.14744
87777.25306
87715.41645
87656.47313
87600.44989
87547.45241
87497.35561
87450.01888
87405.53887
87363.82257
87324.86304
87288.66562
87255.09047
87224.06327
87195.64578
87169.79156
87146.47835
87125.53891
87106.98894
87090.79336
87076.95501
87065.39259
87056.01661
87048.81908
87043.73664
87040.68535
87039.57456
87040.41797
87043.11047
87047.5957
87053.87167
87061.99001
87071.77864
87083.20089
87096.25074
87110.88074
87127.05565
87144.67994
87163.72587
87184.16654
87205.9384
87229.01988
87253.31535
87278.7401
87305.30803
87332.9556
87361.57246
87391.13623
87421.60533
87452.92075
87485.04124
87517.92053
87551.48064
87585.66854
87620.45191
87655.76254
87691.541
87727.76488
87764.3441
87801.25275
87838.43249
87875.81904
87913.3614
87951.00298
87988.71892
88026.4378
88064.10183
88101.66715
88139.08279
88176.30167
88213.27079
88249.94375
88286.27302
88322.21955
88357.72721
88392.75182
88427.25463
88461.18028
88494.49407
88527.15594
88559.11058
88590.32479
88620.78011
88650.38914
88679.14997
88707.04357
88734.01729
88759.98537
88784.99134
88808.97438
88831.90205
88853.70863
88874.39432
88893.96124
88912.35568
88929.54249
88945.49596
88960.21388
88973.62427
88985.72278
88996.54419
89005.99832
89014.13108
89020.86714
89026.22957
89030.19443
89032.74779
89033.91007
89033.67367
89031.98791
89028.95941
89024.48158
89018.46504
89011.02615
89002.12638
88991.77312
88979.94806
88966.63801
88951.79514
88935.51773
88917.71658
88898.39928
88877.58035
88855.31654
88831.5382
88806.28146
88779.56782
88751.40125
88721.77161
88690.66008
88658.15426
88624.2327
88588.84461
88552.07507
88513.90527
88474.34376
88433.41039
88391.13257
88347.52187
88302.60799
88256.40678
88208.92183
88160.1731
88110.1744
88058.94079
88006.52646
87952.97018
87898.23988
87842.36308
87785.39636
87727.35833
87668.24862
87608.11799
87546.98713
87484.86886
87421.81731
87357.82047
87292.90596
87227.14227
87160.54367
87093.10876
87024.921
86955.96636
86886.28277
86815.91434
86744.87403
86673.21822
86600.93053
86528.06393
86454.65026
86380.72119
86306.30858
86231.44162
86156.14142
86080.45609
86004.40331
85928.00945
85851.31542
85774.35483
85697.14415
85619.71335
85542.10264
85464.3328
85386.43599
85308.44593
85230.38742
85152.30034
85074.19498
84996.12015
84918.08652
84840.14237
84762.30521
84684.60109
84607.063
84529.71588
84452.58332
84375.70128
84299.09051
84222.77007
84146.77331
84071.1286
83995.85076
83920.97252
83846.52029
83772.50167
83698.95299
83625.89898
83553.34457
83481.33627
83409.88188
83338.99736
83268.70722
83199.03329
83130.01532
83061.64566
82993.93598
82926.90547
82860.58461
82794.99791
82730.18243
82666.10685
82602.80659
82540.3026
82478.62638
82417.74266
82357.70402
82298.51502
82240.21246
82182.788
82126.24342
82070.58788
82015.84414
81962.03416
81909.14489
81857.22334
81806.28068
81756.29354
81707.27373
81659.2028
81612.15468
81566.11678
81521.10219
81477.1076
81434.11426
81392.12429
81351.20142
81311.31736
81272.50634
81234.76329
81198.03032
81162.35775
81127.75909
81094.22845
81061.81129
81030.46542
81000.18462
80970.96764
80942.85038
80915.82808
80889.88015
80865.0325
80841.27259
80818.60194
80797.00277
80776.5178
80757.0972
80738.74509
80721.50121
80705.37051
80690.32276
80676.28703
80663.36925
80651.53307
80640.74645
80631.03581
80622.39102
80614.81144
80608.30195
80602.84361
80598.43283
80595.05843
80592.71356
80591.37931
80591.0471
80591.6593
80593.2888
80595.91329
80599.51304
80604.09027
80609.62771
80616.12206
80623.66246
80632.16748
80641.57709
80651.95452
80663.27341
80675.52772
80688.74688
80702.88635
80717.90828
80733.8659
80750.72298
80768.46455
80787.08796
80806.57151
80826.93584
80848.16784
80870.25487
80893.18376
80916.94477
80941.50132
80966.901
80993.10872
81020.11386
81047.88725
81076.4469
81105.76852
81135.83539
81166.64789
81198.17911
81230.46319
81263.45596
81297.14044
81331.52256
81366.57887
81402.29071
81438.67385
81475.70747
81513.37693
81551.67315
81590.58886
81630.09914
81670.19961
81710.8829
81752.12946
81793.95303
81836.32241
81879.20454
81922.62056
81966.56652
82011.01333
82055.93525
82101.34141
82147.22651
82193.57331
82240.35258
82287.57406
82335.215
82383.28334
82431.75118
82480.61309
82529.86243
82579.48594
82629.4684
82679.80399
82730.48114
82781.49071
82832.8086
82884.45791
82936.39887
82988.62397
83041.12423
83093.89765
83146.94966
83200.24871
83253.77629
83307.53929
83361.5323
83415.73577
83470.14217
83524.74546
83579.55084
83634.5309
83689.67998
83744.99313
83800.46173
83856.07753
83911.82883
83967.72238
84023.74313
84079.87906
84136.12258
84192.46439
84248.90689
84305.44203
84362.05622
84418.75479
84475.52079
84532.34822
84589.23858
84646.18041
84703.17163
84760.2097
84817.28185
84874.3865
84931.52108
84988.68106
85045.85957
85103.05006
85160.25217
85217.46426
85274.67729
85331.89195
85389.10259
85446.30849
85503.50473
85560.68862
85617.85751
85675.00942
85732.1417
85789.25296
85846.34253
85903.4083
85960.44772
86017.46029
86074.44506
86131.40108
86188.32765
86245.2248
86302.09295
86358.93157
86415.74069
86472.51976
86529.2689
86585.99011
86642.68397
86699.35129
86755.99268
86812.60967
86869.20359
86925.77598
86982.32862
87038.86269
87095.38097
87151.88554
87208.37845
87264.86158
87321.33857
87377.81131
87434.28342
87490.7563
87547.23422
87603.71941
87660.21553
87716.72545
87773.25321
87829.80177
87886.37457
87942.97635
87999.61013
88056.27934
88112.98894
88169.74148
88226.54238
88283.39612
88340.30699
88397.27996
88454.31636
88511.42337
88568.60668
88625.86821
88683.21181
88740.64719
88798.17519
88855.80061
88913.5311
88971.37127
89029.32312
89087.39614
89145.58905
89203.90996
89262.36795
89320.96151
89379.69763
89438.58686
89497.62738
89556.83024
89616.1984
89675.73444
89735.44199
89795.33156
89855.40732
89915.67052
89976.13239
90036.79122
90097.65601
90158.73118
90220.02297
90281.53091
90343.26162
90405.22531
90467.42208
90529.85752
90592.5358
90655.46145
90718.63848
90782.07155
90845.76498
90909.72262
90973.94825
91038.44622
91103.22004
91168.2735
91233.60968
91299.23208
91365.14438
91431.34979
91497.85113
91564.65134
91631.75304
91699.15945
91766.87231
91834.89462
91903.22828
91971.87557
92040.83826
92110.11802
92179.71673
92249.63588
92319.87633
92390.43949
92461.32674
92532.53814
92604.07458
92675.93681
92748.12487
92820.63885
92893.47859
92966.64387
93040.1341
93113.95214
93188.09433
93262.55262
93337.33442
93412.44107
93487.86512
93563.60567
93639.66177
93716.03135
93792.71216
93869.7016
93946.99722
94024.5962
94102.4957
94180.69248
94259.18297
94337.96419
94417.03241
94496.38352
94576.01375
94655.91901
94736.09506
94816.5371
94897.2408
94978.20131
95059.41387
95140.87298
95222.5738
95304.51082
95386.67858
95469.07141
95551.68358
95634.50917
95717.54228
95800.77677
95884.20625
95967.82467
96051.6252
96135.60153
96219.74659
96304.05395
96388.51702
96473.12836
96557.88113
96642.76849
96727.78329
96812.91801
96898.16565
96983.51899
97068.97028
97154.51241
97240.13801
97325.83935
97411.60896
97497.43952
97583.32315
97669.25237
97755.21998
97841.21816
97927.2393
98013.27587
98099.32018
98185.36446
98271.40018
98357.4201
98443.41618
98529.38074
98615.30665
98701.18628
98787.01179
98872.77647
98958.47282
99044.09349
99129.63161
99215.08022
99300.43249
99385.68159
99470.82074
99555.84301
99640.7424
99725.51226
99810.14627
99894.63814
99978.98141
100063.1699
100147.1979
100231.0595
100314.7487
100398.2605
100481.5887
100564.7276
100647.6725
100730.4184
100812.9601
100895.2917
100977.4093
101059.3076
101140.9818
101222.4268
101303.6384
101384.6137
101465.3474
101545.8329
101626.0697
101706.0527
101785.7778
101865.2404
101944.437
102023.3676
102102.0286
102180.4048
102258.5043
102336.3295
102413.8653
102491.1108
102568.06
102644.7161
102721.0902
102797.1512
102872.9031
102948.357
103023.5034
103098.3398
103172.864
103247.0786
103320.9751
103394.5458
103467.7984
103540.7287
103613.3344
103685.6133
103757.5635
103829.1827
103900.4696
103971.4225
104042.0399
104112.3202
104182.2617
104251.863
104321.122
104390.0382
104458.6099
104526.836
104594.7148
104662.2453
104729.4261
104796.2563
104862.7347
104928.8602
104994.6315
105060.0481
105125.1082
105189.8115
105254.1569
105318.1435
105381.7706
105445.0371
105507.9425
105570.4861
105632.6668
105694.4842
105755.938
105817.0274
105877.7517
105938.1104
105998.1032
106057.7298
106116.9894
106175.8822
106234.4078
106292.5655
106350.3557
106407.7782
106464.8328
106521.5194
106577.838
106633.7889
106689.3726
106744.5886
106799.4375
106853.92
106908.036
106961.786
107015.1704
107068.1903
107120.846
107173.1385
107225.0687
107276.637
107327.8446
107378.6925
107429.1819
107479.3139
107529.0898
107578.5109
107627.5786
107676.2946
107724.6603
107772.6775
107820.3475
107867.6725
107914.6544
107961.2954
108007.5975
108053.5627
108099.1926
108144.4898
108189.4579
108234.0993
108278.4127
108322.4061
108366.0917
108409.4483
108452.4866
108495.2144
108537.6351
108579.7523
108621.5688
108663.0867
108704.3094
108745.2403
108785.8829
108826.2405
108866.3165
108906.1144
108945.638
108984.8906
109023.8764
109062.5989
109101.0622
109139.2697
109177.2253
109214.9332
109252.397
109289.6215
109326.612
109363.367
109399.8942
109436.1976
109472.2814
109508.1498
109543.8064
109579.2551
109614.5001
109649.5447
109684.3931
109719.0494
109753.5174
109787.801
109821.9035
109855.8289
109889.5811
109923.1633
109956.5792
109989.8325
110022.9262
110055.8638
110088.6486
110121.2836
110153.7719
110186.1166
110218.3204
110250.386
110282.3161
110314.1128
110345.7787
110377.3159
110408.7269
110440.0134
110471.1773
110502.2201
110533.1432
110563.9482
110594.6362
110625.2081
110655.6649
110686.0073
110716.2358
110746.3505
110776.3517
110806.2394
110836.0136
110865.6736
110895.2188
110924.6485
110953.9616
110983.1569
111012.2331
111041.1887
111070.0215
111098.7297
111127.3112
111155.7635
111184.084
111212.2701
111240.3187
111268.2265
111295.9901
111323.6057
111351.0695
111378.378
111405.5265
111432.5107
111459.326
111485.9676
111512.4306
111538.71
111564.8006
111590.6969
111616.3931
111641.8838
111667.1627
111692.2238
111717.061
111741.6677
111766.0376
111790.1643
111814.0411
111837.6613
111861.0174
111884.103
111906.9106
111929.4334
111951.6638
111973.5949
111995.2195
112016.5301
112037.5194
112058.18
112078.5042
112098.4849
112118.1148
112137.3864
112156.2923
112174.8253
112192.9782
112210.7439
112228.1151
112245.085
112261.6469
112277.7937
112293.5192
112308.8163
112323.6792
112338.1013
112352.0767
112365.5993
112378.6636
112391.2641
112403.3953
112415.0526
112426.2307
112436.925
112447.1316
112456.8461
112466.0648
112474.7838
112483.0004
112490.7117
112497.9147
112504.6048
112510.7849
112516.4633
112521.6113
112526.2376
112530.3479
112533.9442
112537.0203
112539.5806
112541.6256
112543.1575
112544.1812
112544.7077
112544.7599
112544.3469
112543.4367
112542.012
112540.1288
112537.7651
112534.8876
112531.5411
112527.712
112523.4063
112518.6347
112513.3975
112507.7007
112501.5489
112494.9483
112487.9052
112480.4263
112472.5188
112464.1907
112455.45
112446.305
112436.7642
112426.8365
112416.5308
112405.8563
112394.8229
112383.4403
112371.7186
112359.6683
112347.2996
112334.6234
112321.6502
112308.3912
112294.8573
112281.0606
112267.0121
112252.7235
112238.2063
112223.4723
112208.5335
112193.4014
112178.0882
112162.606
112146.9659
112131.1787
112115.2575
112099.2146
112083.061
112066.8083
112050.4674
112034.0513
112017.57
112001.0359
111984.4589
111967.8503
111951.2242
111934.5886
111917.9507
111901.3266
111884.7204
111868.1473
111851.6156
111835.135
111818.7127
111802.3592
111786.0824
111769.8903
111753.7905
111737.7902
111721.8964
111706.1159
111690.4545
111674.9183
111659.5127
111644.2429
111629.1137
111614.1293
111599.2933
111584.6099
111570.0822
111555.7129
111541.5049
111527.4601
111513.5802
111499.8664
111486.32
111472.9412
111459.7306
111446.6879
111433.8128
111421.1039
111408.5601
111396.1801
111383.962
111371.9036
111360.002
111348.2542
111336.6571
111325.2071
111313.9003
111302.7323
111291.6991
111280.7953
111270.016
111259.356
111248.8098
111238.3717
111228.0354
111217.7947
111207.6435
111197.5744
111187.5808
111177.6559
111167.792
111157.9818
111148.2179
111138.4924
111128.7973
111119.125
111109.4669
111099.8154
111090.1627
111080.5011
111070.8222
111061.1179
111051.3803
111041.6003
111031.7697
111021.8802
111011.923
111001.8898
110991.7719
110981.5603
110971.2471
110960.8236
110950.2813
110939.6117
110928.806
110917.8562
110906.7542
110895.4919
110884.0589
110872.4496
110860.6583
110848.6724
110836.4862
110824.0927
110811.4826
110798.6494
110785.5876
110772.2881
110758.7462
110744.952
110730.8999
110716.5864
110702.0046
110687.1447
110672.0042
110656.5762
110640.8556
110624.8372
110608.516
110591.8872
110574.9458
110557.6877
110540.1088
110522.2048
110503.9721
110485.4071
110466.5065
110447.2674
110427.6868
110407.7619
110387.4906
110366.8708
110345.901
110324.575
110302.8936
110280.864
110258.4754
110235.7312
110212.6292
110189.1676
110165.3492
110141.1728
110116.6392
110091.7489
110066.5027
110040.9018
110014.9474
109988.6413
109961.9854
109934.9782
109907.6258
109879.9356
109851.8988
109823.5242
109794.8155
109765.774
109736.4038
109706.7082
109676.6915
109646.3573
109615.7097
109584.7532
109553.4923
109521.9319
109490.0768
109457.9317
109425.5022
109392.793
109359.8098
109326.5582
109293.044
109259.2731
109225.2514
109190.9849
109156.4803
109121.7436
109086.7815
109051.6006
109016.2069
108980.6076
108944.8094
108908.8191
108872.6437
108836.2902
108799.7658
108763.0771
108726.2314
108689.2362
108652.0984
108614.8252
108577.4241
108539.902
108502.2666
108464.5247
108426.6835
108388.75
108350.7318
108312.636
108274.4693
108236.2392
108197.9524
108159.616
108121.2367
108082.8215
108044.3772
108005.91
107967.4266
107928.9339
107890.4379
107851.946
107813.4644
107774.9992
107736.5566
107698.1421
107659.7618
107621.4212
107583.1256
107544.8801
107506.69
107468.56
107430.4951
107392.4994
107354.578
107316.7345
107278.973
107241.2976
107203.7115
107166.2184
107128.8218
107091.525
107054.3306
107017.2413
106980.2596
106943.3874
106906.6262
106869.9799
106833.4513
106797.0399
106760.7474
106724.5748
106688.5237
106652.5948
106616.7891
106581.1069
106545.5486
106510.1138
106474.8004
106439.6133
106404.5517
106369.6158
106334.8022
106300.1087
106265.5357
106231.0826
106196.7483
106162.5313
106128.4304
106094.4439
106060.5701
106026.8071
105993.153
105959.6058
105926.1632
105892.8225
105859.5818
105826.4388
105793.3899
105760.4324
105727.566
105694.7866
105662.0915
105629.4764
105596.9396
105564.478
105532.0881
105499.7671
105467.5117
105435.3187
105403.1853
105371.1082
105339.0836
105307.1085
105275.1808
105243.2968
105211.4527
105179.6443
105147.8713
105116.1289
105084.4132
105052.722
105021.0522
104989.4009
104957.765
104926.1414
104894.5275
104862.9202
104831.3172
104799.7153
104768.1125
104736.5062
104704.8942
104673.274
104641.6431
104609.9994
104578.341
104546.6659
104514.9715
104483.2562
104451.5181
104419.7558
104387.9674
104356.1514
104324.3061
104292.4301
104260.5226
104228.5817
104196.607
104164.5971
104132.5513
104100.4687
104068.3489
104036.1916
104003.9956
103971.761
103939.4872
103907.1745
103874.8229
103842.4319
103810.0021
103777.534
103745.0274
103712.4831
103679.9015
103647.2836
103614.63
103581.9414
103549.219
103516.4638
103483.6767
103450.8591
103418.0125
103385.1383
103352.2379
103319.3127
103286.3643
103253.395
103220.4062
103187.3998
103154.3776
103121.3415
103088.2941
103055.2368
103022.1724
102989.1029
102956.0304
102922.9576
102889.8873
102856.8218
102823.7635
102790.715
102757.679
102724.6578
102691.6545
102658.6714
102625.7114
102592.7769
102559.8707
102526.9955
102494.1538
102461.3483
102428.5821
102395.8563
102363.176
102330.5417
102297.9568
102265.4251
102232.9481
102200.5276
102168.1674
102135.8686
102103.6342
102071.4669
102039.369