/*--------------------------------*- C++ -*----------------------------------*\
| =========                 |                                                 |
| \\      /  F ield         | OpenFOAM: The Open Source CFD Toolbox           |
|  \\    /   O peration     | Version:  2312                                  |
|   \\  /    A nd           | Website:  www.openfoam.com                      |
|    \\/     M anipulation  |                                                 |
\*---------------------------------------------------------------------------*/
FoamFile
{
    version     2.0;
    format      ascii;
    arch        "LSB;label=32;scalar=64";
    class       surfaceScalarField;
    location    "0.003";
    object      phi;
}
// * * * * * * * * * * * * * * * * * * * * * * * * * * * * * * * * * * * * * //

dimensions      [1 0 -1 0 0 0 0];

oriented        oriented;

internalField   nonuniform List<scalar> 
7999
(
4.000192903
4.000192903
4.000192902
4.000192902
4.000192902
4.000192902
4.000192901
4.000192901
4.0001929
4.0001929
4.0001929
4.000192899
4.000192899
4.0001929
4.000192901
4.000192902
4.000192904
4.000192906
4.000192908
4.00019291
4.000192912
4.000192913
4.000192914
4.000192915
4.000192915
4.000192915
4.000192914
4.000192913
4.000192912
4.000192911
4.00019291
4.00019291
4.000192909
4.000192908
4.000192908
4.000192907
4.000192907
4.000192906
4.000192906
4.000192906
4.000192906
4.000192906
4.000192906
4.000192906
4.000192906
4.000192906
4.000192906
4.000192906
4.000192906
4.000192906
4.000192906
4.000192906
4.000192906
4.000192906
4.000192906
4.000192906
4.000192906
4.000192906
4.000192906
4.000192906
4.000192906
4.000192906
4.000192906
4.000192906
4.000192906
4.000192906
4.000192906
4.000192906
4.000192906
4.000192906
4.000192906
4.000192906
4.000192906
4.000192906
4.000192906
4.000192906
4.000192906
4.000192906
4.000192906
4.000192906
4.000192906
4.000192906
4.000192906
4.000192906
4.000192906
4.000192906
4.000192906
4.000192906
4.000192906
4.000192906
4.000192906
4.000192906
4.000192906
4.000192906
4.000192906
4.000192906
4.000192906
4.000192906
4.000192906
4.000192906
4.000192906
4.000192906
4.000192906
4.000192906
4.000192906
4.000192906
4.000192906
4.000192906
4.000192905
4.000192905
4.000192906
4.000192905
4.000192905
4.000192905
4.000192905
4.000192905
4.000192905
4.000192905
4.000192905
4.000192905
4.000192905
4.000192905
4.000192905
4.000192905
4.000192905
4.000192905
4.000192905
4.000192905
4.000192905
4.000192905
4.000192905
4.000192905
4.000192905
4.000192905
4.000192904
4.000192904
4.000192904
4.000192904
4.000192904
4.000192904
4.000192904
4.000192904
4.000192903
4.000192903
4.000192903
4.000192903
4.000192903
4.000192902
4.000192902
4.000192902
4.000192901
4.000192901
4.000192901
4.0001929
4.0001929
4.000192899
4.000192899
4.000192898
4.000192897
4.000192896
4.000192896
4.000192895
4.000192894
4.000192893
4.000192892
4.000192891
4.00019289
4.000192889
4.000192888
4.000192886
4.000192885
4.000192884
4.000192882
4.00019288
4.000192879
4.000192877
4.000192875
4.000192873
4.000192872
4.00019287
4.000192868
4.000192866
4.000192864
4.000192862
4.00019286
4.000192858
4.000192856
4.000192855
4.000192853
4.000192852
4.000192851
4.00019285
4.000192849
4.000192848
4.000192847
4.000192847
4.000192847
4.000192847
4.000192848
4.000192849
4.00019285
4.000192851
4.000192852
4.000192854
4.000192856
4.000192859
4.000192861
4.000192864
4.000192867
4.00019287
4.000192873
4.000192876
4.00019288
4.000192883
4.000192887
4.00019289
4.000192893
4.000192896
4.000192899
4.000192902
4.000192905
4.000192908
4.00019291
4.000192912
4.000192914
4.000192916
4.000192917
4.000192919
4.00019292
4.00019292
4.000192921
4.000192921
4.000192921
4.000192921
4.000192921
4.000192921
4.00019292
4.000192919
4.000192919
4.000192918
4.000192917
4.000192916
4.000192915
4.000192914
4.000192913
4.000192912
4.000192911
4.00019291
4.000192909
4.000192908
4.000192907
4.000192907
4.000192906
4.000192906
4.000192906
4.000192906
4.000192906
4.000192906
4.000192906
4.000192907
4.000192908
4.000192908
4.000192909
4.00019291
4.000192911
4.000192913
4.000192914
4.000192916
4.000192917
4.000192919
4.000192921
4.000192923
4.000192925
4.000192927
4.00019293
4.000192932
4.000192935
4.000192938
4.000192941
4.000192944
4.000192947
4.00019295
4.000192954
4.000192958
4.000192962
4.000192966
4.000192971
4.000192975
4.00019298
4.000192986
4.000192991
4.000192997
4.000193003
4.00019301
4.000193017
4.000193025
4.000193032
4.000193041
4.00019305
4.000193059
4.000193069
4.00019308
4.000193091
4.000193103
4.000193116
4.000193129
4.000193143
4.000193158
4.000193174
4.000193191
4.000193208
4.000193227
4.000193247
4.000193268
4.00019329
4.000193313
4.000193338
4.000193365
4.000193392
4.000193422
4.000193453
4.000193486
4.000193521
4.000193558
4.000193597
4.000193639
4.000193683
4.00019373
4.000193779
4.000193832
4.000193887
4.000193946
4.000194008
4.000194074
4.000194144
4.000194218
4.000194296
4.000194379
4.000194467
4.00019456
4.000194659
4.000194763
4.000194873
4.000194989
4.000195112
4.000195243
4.00019538
4.000195526
4.00019568
4.000195842
4.000196013
4.000196194
4.000196385
4.000196587
4.000196799
4.000197024
4.00019726
4.000197509
4.000197772
4.000198048
4.00019834
4.000198647
4.00019897
4.00019931
4.000199668
4.000200045
4.000200441
4.000200857
4.000201295
4.000201755
4.00020224
4.000202748
4.000203282
4.000203843
4.000204432
4.00020505
4.000205699
4.00020638
4.000207094
4.000207843
4.000208628
4.000209451
4.000210314
4.000211218
4.000212166
4.000213158
4.000214197
4.000215284
4.000216423
4.000217615
4.000218861
4.000220165
4.000221529
4.000222955
4.000224445
4.000226003
4.000227631
4.000229331
4.000231107
4.000232962
4.000234898
4.000236917
4.000239025
4.000241225
4.000243518
4.000245909
4.000248404
4.000251005
4.000253714
4.000256536
4.000259477
4.00026254
4.000265728
4.000269046
4.000272499
4.000276093
4.000279831
4.000283719
4.00028776
4.00029196
4.000296326
4.000300864
4.00030558
4.000310478
4.00031556
4.000320835
4.000326315
4.000332002
4.000337897
4.000344014
4.000350358
4.000356935
4.000363753
4.000370816
4.000378132
4.000385714
4.000393567
4.000401695
4.000410111
4.00041882
4.000427826
4.000437143
4.000446778
4.000456742
4.000467039
4.000477686
4.000488683
4.000500042
4.000511778
4.000523891
4.000536396
4.000549304
4.000562623
4.000576363
4.000590534
4.000605143
4.000620205
4.000635731
4.000651726
4.000668206
4.000685181
4.00070266
4.000720648
4.000739164
4.000758221
4.000777818
4.000797973
4.000818711
4.000840016
4.000861915
4.000884425
4.000907549
4.000931296
4.000955681
4.000980719
4.001006408
4.001032767
4.001059821
4.00108756
4.001116003
4.001145165
4.001175047
4.001205666
4.001237025
4.001269147
4.001302049
4.001335731
4.001370192
4.001405457
4.001441532
4.00147843
4.001516163
4.001554729
4.001594145
4.001634415
4.001675552
4.001717555
4.001760444
4.001804224
4.001848896
4.001894466
4.001940967
4.001988387
4.002036733
4.002086
4.002136196
4.002187327
4.00223941
4.002292448
4.002346436
4.002401379
4.002457284
4.002514157
4.002571991
4.002630789
4.002690553
4.002751282
4.00281298
4.002875641
4.002939259
4.003003837
4.003069381
4.003135881
4.00320333
4.003271732
4.003341067
4.003411335
4.003482545
4.003554673
4.003627711
4.003701655
4.003776493
4.00385222
4.003928822
4.004006287
4.004084585
4.004163726
4.004243696
4.004324471
4.004406043
4.004488383
4.004571476
4.004655317
4.004739882
4.00482514
4.004911076
4.00499767
4.0050849
4.00517274
4.005261167
4.005350159
4.005439688
4.005529721
4.005620237
4.005711205
4.005802596
4.00589438
4.005986525
4.006078999
4.006171768
4.006264798
4.006358052
4.006451494
4.006545097
4.00663882
4.006732611
4.006826445
4.006920284
4.007014077
4.007107782
4.007201352
4.007294746
4.007387918
4.007480821
4.007573408
4.007665632
4.007757445
4.007848799
4.007939644
4.008029929
4.008119605
4.008208624
4.008296927
4.008384471
4.008471205
4.008557062
4.008641992
4.008725936
4.008808849
4.008890673
4.008971351
4.009050822
4.009129055
4.009205972
4.00928151
4.0093556
4.009428199
4.00949927
4.009568731
4.009636525
4.009702624
4.009766915
4.009829372
4.009889937
4.009948533
4.010005122
4.010059612
4.010111964
4.010162138
4.010210065
4.010255707
4.010299014
4.010339869
4.010378256
4.010414116
4.010447334
4.010477929
4.010505812
4.010530942
4.010553284
4.010572725
4.010589257
4.010602815
4.010613398
4.010620917
4.01062535
4.01062669
4.010624942
4.010620224
4.010612352
4.010601159
4.010586636
4.010568763
4.010547571
4.010522908
4.010494687
4.010462977
4.010427673
4.010388756
4.010346195
4.010299959
4.010250019
4.010196354
4.010138887
4.010077677
4.010012706
4.009943868
4.009871139
4.009794529
4.009714086
4.009629769
4.009541495
4.009449273
4.009353176
4.009253202
4.009149264
4.009041316
4.008929478
4.00881375
4.008694064
4.008570497
4.008442973
4.008311608
4.008176422
4.008037363
4.007894455
4.007747742
4.007597284
4.00744309
4.007285154
4.007123541
4.006958297
4.00678942
4.006617019
4.00644109
4.006261676
4.006078911
4.005892766
4.005703293
4.005510572
4.005314696
4.005115704
4.00491366
4.004708606
4.00450066
4.00428985
4.004076287
4.003860023
4.00364116
4.003419786
4.003195983
4.002969838
4.002741427
4.00251089
4.002278259
4.002043585
4.00180709
4.001568873
4.001328981
4.001087515
4.000844594
4.000600323
4.000354813
4.000108176
3.999860506
3.999611938
3.999362593
3.999112561
3.998861982
3.998610949
3.998359578
3.998108012
3.997856373
3.99760476
3.997353318
3.997102175
3.996851433
3.996601228
3.996351699
3.996102955
3.995855112
3.995608306
3.995362664
3.995118298
3.994875326
3.99463386
3.994394012
3.994155935
3.993919707
3.99368545
3.993453291
3.993223349
3.992995709
3.992770483
3.992547761
3.992327642
3.99211025
3.991895696
3.991684079
3.991475477
3.991269964
3.991067653
3.99086862
3.990672918
3.99048069
3.990291986
3.99010687
3.9899254
3.989747722
3.989573821
3.989403828
3.989237768
3.989075629
3.98891755
3.98876357
3.98861369
3.988467956
3.988326398
3.988189126
3.988056151
3.987927463
3.987803121
3.98768312
3.987567498
3.987456257
3.987349416
3.987246968
3.987148846
3.987055156
3.986965834
3.986880902
3.986800334
3.986724136
3.986652245
3.986584674
3.986521401
3.98646246
3.986407678
3.986357058
3.98631061
3.986268323
3.986230069
3.986195843
3.986165596
3.986139295
3.986116864
3.986098181
3.986083244
3.986072
3.986064375
3.986060273
3.98605955
3.986062035
3.986067646
3.986076515
3.98608858
3.986103672
3.986121699
3.986142665
3.986166509
3.986193126
3.986222489
3.986254424
3.986288803
3.986325665
3.986364884
3.986406335
3.986450015
3.986495761
3.986543498
3.98659312
3.986644562
3.986697726
3.986752502
3.986808811
3.986866577
3.986925694
3.986986077
3.98704766
3.98711031
3.987173971
3.987238556
3.987303951
3.987370084
3.987436892
3.987504256
3.987572082
3.987640321
3.987708919
3.987777728
3.987846694
3.987915744
3.98798481
3.988053824
3.988122691
3.988191346
3.98825972
3.988327753
3.988395374
3.988462515
3.988529117
3.988595132
3.988660503
3.98872518
3.988789111
3.988852229
3.988914513
3.988975914
3.989036385
3.989095903
3.98915441
3.98921187
3.98926827
3.989323578
3.989377761
3.989430802
3.989482686
3.989533368
3.989582847
3.989631123
3.989678146
3.98972393
3.989768479
3.98981177
3.989853807
3.989894606
3.989934146
3.989972436
3.990009476
3.99004529
3.990079867
3.990113223
3.990145393
3.990176373
3.990206194
3.990234864
3.990262388
3.990288817
3.99031417
3.990338465
3.990361726
3.990383975
3.990405271
3.990425622
3.990445059
3.990463615
3.990481341
3.990498268
3.990514408
3.99052983
3.990544565
3.990558665
3.990572158
3.990585073
3.990597454
3.990609357
3.990620825
3.990631898
3.99064261
3.990653009
3.990663145
3.990673049
3.990682791
3.990692399
3.990701917
3.990711396
3.990720869
3.990730383
3.990739982
3.990749707
3.990759603
3.990769711
3.990780078
3.990790747
3.990801754
3.990813144
3.990824952
3.990837212
3.990849978
3.990863287
3.990877173
3.990891673
3.990906821
3.990922665
3.990939233
3.99095656
3.990974679
3.990993621
3.991013418
3.991034104
3.991055705
3.991078252
3.991101767
3.991126289
3.991151836
3.991178433
3.991206096
3.991234848
3.991264724
3.991295757
3.991327931
3.991361275
3.991395812
3.991431554
3.991468514
3.991506704
3.991546135
3.991586827
3.991628758
3.991671963
3.991716467
3.991762241
3.991809303
3.991857653
3.991907286
3.991958208
3.992010418
3.992063914
3.992118688
3.992174754
3.992232113
3.992290741
3.992350622
3.99241175
3.992474119
3.99253773
3.992602572
3.992668623
3.992735875
3.992804301
3.992873903
3.992944677
3.993016579
3.993089601
3.993163714
3.993238913
3.993315178
3.993392494
3.993470825
3.993550158
3.993630479
3.993711737
3.993793934
3.993877037
3.99396101
3.994045855
3.994131529
3.994218008
3.994305277
3.994393282
3.994482017
3.994571459
3.994661572
3.994752317
3.994843666
3.994935612
3.995028111
3.99512114
3.995214677
3.995308676
3.995403119
3.995497979
3.995593219
3.995688809
3.995784723
3.995880932
3.995977409
3.996074124
3.996171041
3.996268141
3.996365387
3.996462764
3.99656023
3.996657761
3.996755328
3.996852907
3.996950465
3.997047973
3.997145407
3.997242738
3.997339938
3.997436982
3.997533842
3.997630495
3.997726909
3.997823064
3.997918935
3.998014497
3.998109726
3.998204598
3.998299096
3.998393184
3.998486846
3.998580063
3.998672819
3.998765089
3.998856846
3.998948064
3.99903873
3.999128836
3.999218362
3.999307286
3.999395576
3.999483218
3.999570212
3.999656543
3.999742167
3.999827081
3.999911289
3.999994755
4.000077469
4.000159419
4.000240591
4.000320978
4.00040056
4.000479321
4.000557248
4.000634337
4.000710585
4.000785974
4.00086048
4.000934099
4.001006839
4.00107869
4.001149631
4.001219646
4.001288745
4.001356923
4.001424157
4.001490452
4.001555796
4.001620176
4.001683613
4.001746073
4.001807562
4.001868079
4.001927621
4.001986187
4.002043758
4.002100341
4.002155933
4.002210525
4.002264146
4.002316747
4.002368365
4.002418985
4.002468599
4.002517244
4.002564869
4.002611477
4.00265711
4.002701763
4.002745407
4.002788055
4.002829718
4.002870388
4.002910072
4.002948777
4.002986507
4.003023252
4.003059023
4.003093826
4.003127651
4.003160526
4.003192463
4.003223442
4.003253471
4.003282564
4.003310732
4.003337948
4.003364251
4.00338965
4.003414141
4.003437737
4.003460441
4.00348226
4.003503204
4.003523275
4.003542485
4.003560859
4.003578386
4.00359507
4.003610945
4.003626006
4.00364026
4.003653718
4.003666392
4.003678292
4.003689436
4.003699828
4.00370947
4.003718381
4.00372658
4.003734081
4.003740885
4.003747002
4.003752456
4.003757256
4.003761401
4.003764917
4.003767812
4.003770103
4.003771799
4.003772919
4.003773487
4.003773519
4.00377302
4.003772016
4.003770512
4.003768509
4.003766036
4.00376308
4.00375968
4.003755821
4.00375154
4.00374685
4.003741757
4.003736281
4.003730437
4.003724238
4.003717692
4.003710808
4.003703613
4.003696117
4.003688335
4.003680283
4.00367197
4.003663415
4.003654633
4.00364564
4.003636452
4.003627083
4.003617548
4.003607859
4.003598028
4.003588079
4.00357802
4.003567868
4.003557635
4.003547336
4.003536987
4.0035266
4.003516189
4.003505769
4.003495354
4.003484959
4.003474599
4.003464287
4.003454037
4.003443863
4.003433778
4.003423795
4.003413926
4.003404186
4.003394585
4.003385136
4.003375852
4.003366742
4.00335782
4.003349094
4.003340581
4.003332285
4.00332422
4.0033164
4.003308831
4.00330152
4.003294486
4.003287726
4.003281254
4.003275081
4.003269214
4.003263659
4.003258426
4.003253516
4.003248941
4.003244714
4.003240833
4.003237313
4.003234151
4.00323135
4.003228926
4.003226875
4.003225208
4.003223928
4.003223036
4.003222531
4.003222414
4.003222678
4.003223333
4.003224385
4.003225828
4.003227679
4.00322993
4.00323259
4.003235668
4.003239156
4.003243042
4.003247336
4.003252045
4.003257168
4.003262702
4.003268649
4.003275004
4.003281773
4.003288953
4.003296543
4.003304532
4.003312917
4.003321706
4.003330891
4.003340474
4.003350445
4.003360799
4.00337154
4.003382656
4.003394147
4.003406007
4.003418237
4.003430827
4.003443772
4.003457071
4.003470712
4.003484693
4.003499011
4.003513657
4.003528621
4.003543899
4.003559489
4.003575384
4.003591572
4.003608051
4.00362481
4.003641839
4.003659135
4.00367669
4.003694494
4.003712543
4.00373083
4.003749348
4.003768088
4.003787037
4.003806188
4.003825539
4.003845077
4.003864795
4.003884682
4.003904735
4.003924945
4.003945301
4.003965795
4.003986419
4.004007164
4.004028025
4.004048989
4.004070051
4.004091201
4.00411243
4.004133729
4.004155092
4.004176513
4.004197979
4.004219484
4.004241021
4.004262578
4.00428415
4.004305729
4.004327306
4.004348873
4.004370423
4.004391947
4.004413437
4.004434886
4.004456285
4.004477629
4.004498908
4.004520116
4.004541245
4.00456229
4.004583241
4.004604092
4.004624839
4.004645475
4.004665989
4.004686378
4.004706634
4.004726752
4.004746727
4.004766552
4.004786222
4.00480573
4.004825071
4.004844239
4.004863228
4.004882034
4.004900651
4.004919075
4.004937301
4.004955325
4.004973139
4.004990737
4.005008121
4.005025287
4.005042222
4.005058931
4.005075408
4.005091648
4.005107645
4.005123399
4.005138906
4.005154161
4.005169159
4.005183899
4.00519838
4.0052126
4.005226552
4.005240235
4.005253647
4.005266786
4.005279647
4.005292233
4.005304538
4.005316557
4.00532829
4.005339739
4.0053509
4.005361773
4.005372358
4.005382647
4.005392642
4.005402341
4.005411746
4.005420861
4.005429674
4.005438185
4.005446398
4.005454312
4.00546193
4.005469245
4.005476257
4.005482972
4.005489383
4.005495496
4.005501311
4.00550682
4.005512029
4.005516942
4.005521558
4.005525872
4.005529885
4.005533605
4.005537025
4.005540145
4.005542971
4.005545505
4.005547743
4.005549691
4.005551349
4.005552711
4.005553784
4.005554573
4.005555079
4.005555306
4.005555252
4.005554939
4.005554358
4.005553494
4.005552357
4.005550953
4.005549281
4.005547342
4.005545135
4.005542658
4.005539918
4.005536915
4.005533654
4.005530138
4.005526363
4.005522334
4.005518055
4.005513522
4.005508743
4.005503717
4.005498447
4.00549294
4.005487192
4.005481206
4.005474987
4.005468537
4.005461859
4.005454954
4.005447826
4.005440479
4.005432913
4.00542513
4.005417134
4.005408929
4.005400518
4.005391901
4.005383085
4.005374071
4.005364859
4.005355457
4.005345866
4.005336087
4.005326125
4.005315982
4.005305662
4.005295169
4.005284503
4.005273669
4.005262669
4.005251506
4.005240185
4.005228712
4.005217084
4.005205304
4.005193379
4.005181308
4.005169097
4.00515675
4.005144268
4.005131655
4.005118914
4.005106046
4.005093057
4.005079948
4.005066724
4.005053387
4.005039941
4.005026386
4.005012727
4.004998968
4.004985109
4.004971154
4.004957107
4.004942972
4.004928751
4.004914444
4.004900053
4.004885585
4.00487104
4.004856423
4.004841733
4.004826974
4.00481215
4.004797265
4.004782317
4.004767311
4.004752249
4.004737135
4.00472197
4.004706756
4.004691495
4.004676189
4.004660843
4.004645457
4.004630033
4.004614573
4.00459908
4.004583555
4.004567999
4.004552416
4.004536809
4.004521176
4.004505522
4.004489847
4.004474153
4.004458441
4.004442714
4.004426972
4.004411218
4.004395453
4.004379678
4.004363895
4.004348104
4.004332307
4.004316505
4.0043007
4.004284892
4.004269083
4.004253273
4.004237463
4.004221655
4.004205848
4.004190045
4.004174245
4.004158449
4.004142658
4.004126873
4.004111093
4.00409532
4.004079554
4.004063795
4.004048043
4.004032299
4.004016563
4.004000836
4.003985116
4.003969404
4.003953701
4.003938006
4.003922319
4.00390664
4.003890969
4.003875306
4.00385965
4.003844
4.003828358
4.003812721
4.003797091
4.003781465
4.003765845
4.003750228
4.003734615
4.003719006
4.003703398
4.003687792
4.003672186
4.003656581
4.003640975
4.003625368
4.003609758
4.003594145
4.003578528
4.003562905
4.003547276
4.003531641
4.003515997
4.003500344
4.00348468
4.003469005
4.003453317
4.003437616
4.0034219
4.003406167
4.003390417
4.003374649
4.00335886
4.00334305
4.003327218
4.003311362
4.00329548
4.003279572
4.003263636
4.00324767
4.003231674
4.003215646
4.003199584
4.003183487
4.003167354
4.003151183
4.003134973
4.003118722
4.003102429
4.003086093
4.003069711
4.003053283
4.003036808
4.003020283
4.003003708
4.002987081
4.002970401
4.002953666
4.002936874
4.002920025
4.002903117
4.002886149
4.002869119
4.002852028
4.002834871
4.00281765
4.002800362
4.002783007
4.002765582
4.002748088
4.002730522
4.002712884
4.002695172
4.002677385
4.002659523
4.002641585
4.002623569
4.002605474
4.002587299
4.002569045
4.002550709
4.002532291
4.00251379
4.002495205
4.002476536
4.002457782
4.002438942
4.002420016
4.002401004
4.002381903
4.002362716
4.002343439
4.002324075
4.002304621
4.002285078
4.002265446
4.002245724
4.002225912
4.00220601
4.002186018
4.002165936
4.002145764
4.002125502
4.002105151
4.00208471
4.002064179
4.002043559
4.002022852
4.002002055
4.001981171
4.0019602
4.001939141
4.001917996
4.001896766
4.001875451
4.001854051
4.001832568
4.001811003
4.001789356
4.001767628
4.00174582
4.001723934
4.00170197
4.001679929
4.001657813
4.001635623
4.001613359
4.001591024
4.001568619
4.001546145
4.001523604
4.001500996
4.001478324
4.001455589
4.001432792
4.001409936
4.001387021
4.00136405
4.001341024
4.001317945
4.001294815
4.001271635
4.001248407
4.001225134
4.001201817
4.001178458
4.001155059
4.001131621
4.001108148
4.00108464
4.0010611
4.00103753
4.001013931
4.000990307
4.000966658
4.000942988
4.000919297
4.000895589
4.000871865
4.000848127
4.000824378
4.000800619
4.000776853
4.000753081
4.000729306
4.00070553
4.000681755
4.000657983
4.000634217
4.000610459
4.00058671
4.000562973
4.00053925
4.000515542
4.000491853
4.000468183
4.000444535
4.000420911
4.000397313
4.000373742
4.000350201
4.000326691
4.000303214
4.000279772
4.000256367
4.000233001
4.000209674
4.00018639
4.000163149
4.000139953
4.000116804
4.000093704
4.000070653
4.000047654
4.000024708
4.000001816
3.99997898
3.999956201
3.999933481
3.999910821
3.999888222
3.999865686
3.999843214
3.999820806
3.999798465
3.999776192
3.999753986
3.999731851
3.999709786
3.999687794
3.999665874
3.999644028
3.999622256
3.999600561
3.999578942
3.9995574
3.999535937
3.999514554
3.99949325
3.999472027
3.999450886
3.999429827
3.999408852
3.999387961
3.999367154
3.999346433
3.999325797
3.999305249
3.999284787
3.999264412
3.999244127
3.999223931
3.999203824
3.999183807
3.999163881
3.999144046
3.999124302
3.99910465
3.999085091
3.999065624
3.999046251
3.999026972
3.999007787
3.998988697
3.998969701
3.998950801
3.998931997
3.998913289
3.998894677
3.998876162
3.998857744
3.998839424
3.998821201
3.998803076
3.998785049
3.998767121
3.998749292
3.998731561
3.99871393
3.998696399
3.998678967
3.998661635
3.998644403
3.998627272
3.998610241
3.998593311
3.998576482
3.998559753
3.998543126
3.998526599
3.998510175
3.998493851
3.998477629
3.998461508
3.998445489
3.998429572
3.998413756
3.998398042
3.998382429
3.998366918
3.998351509
3.998336201
3.998320995
3.998305889
3.998290886
3.998275983
3.998261181
3.99824648
3.99823188
3.99821738
3.998202981
3.998188681
3.998174481
3.998160381
3.99814638
3.998132478
3.998118674
3.998104969
3.998091361
3.998077851
3.998064438
3.998051121
3.9980379
3.998024775
3.998011745
3.997998809
3.997985967
3.997973219
3.997960563
3.997948
3.997935528
3.997923147
3.997910856
3.997898654
3.997886541
3.997874516
3.997862579
3.997850728
3.997838962
3.99782728
3.997815683
3.997804168
3.997792736
3.997781385
3.997770114
3.997758922
3.997747809
3.997736773
3.997725814
3.997714929
3.997704119
3.997693383
3.997682718
3.997672125
3.997661602
3.997651147
3.997640761
3.997630442
3.997620188
3.997609999
3.997599874
3.997589811
3.997579809
3.997569868
3.997559986
3.997550162
3.997540395
3.997530683
3.997521027
3.997511424
3.997501874
3.997492375
3.997482927
3.997473528
3.997464178
3.997454875
3.997445619
3.997436408
3.997427242
3.997418119
3.997409039
3.997400001
3.997391003
3.997382046
3.997373129
3.99736425
3.997355409
3.997346605
3.997337837
3.997329106
3.997320409
3.997311747
3.99730312
3.997294526
3.997285965
3.997277438
3.997268942
3.997260479
3.997252048
3.997243649
3.997235281
3.997226944
3.997218639
3.997210366
3.997202123
3.997193912
3.997185733
3.997177586
3.99716947
3.997161387
3.997153337
3.99714532
3.997137336
3.997129387
3.997121472
3.997113593
3.99710575
3.997097943
3.997090174
3.997082443
3.997074752
3.997067101
3.997059492
3.997051925
3.997044401
3.997036923
3.99702949
3.997022105
3.997014768
3.997007481
3.997000246
3.996993063
3.996985935
3.996978863
3.996971849
3.996964894
3.996958
3.996951169
3.996944403
3.996937702
3.99693107
3.996924508
3.996918018
3.996911601
3.996905261
3.996898998
3.996892815
3.996886713
3.996880695
3.996874763
3.996868919
3.996863164
3.996857502
3.996851933
3.996846461
3.996841086
3.996835811
3.996830638
3.996825569
3.996820606
3.996815752
3.996811007
3.996806373
3.996801854
3.99679745
3.996793163
3.996788996
3.99678495
3.996781026
3.996777226
3.996773552
3.996770006
3.996766588
3.996763301
3.996760145
3.996757123
3.996754234
3.996751481
3.996748865
3.996746386
3.996744045
3.996741844
3.996739783
3.996737862
3.996736084
3.996734447
3.996732951
3.996731599
3.99673039
3.996729325
3.996728402
3.996727622
3.996726985
3.996726491
3.996726138
3.996725926
3.996725851
3.996725907
3.996726092
3.996726413
3.996726872
3.996727464
3.996728189
3.996729048
3.996730039
3.996731162
3.996732416
3.9967338
3.996735312
3.99673695
3.996738714
3.9967406
3.996742607
3.996744733
3.996746977
3.996749335
3.996751806
3.996754388
3.996757078
3.996759873
3.996762772
3.996765771
3.996768868
3.99677206
3.996775344
3.996778718
3.996782179
3.996785722
3.996789347
3.996793049
3.996796825
3.996800672
3.996804587
3.996808567
3.996812609
3.996816709
3.996820864
3.99682507
3.996829326
3.996833626
3.996837969
3.99684235
3.996846766
3.996851215
3.996855693
3.996860197
3.996864723
3.996869269
3.996873831
3.996878406
3.996882992
3.996887584
3.996892181
3.996896779
3.996901375
3.996905967
3.996910552
3.996915127
3.996919689
3.996924236
3.996928765
3.996933274
3.99693776
3.996942222
3.996946658
3.996951065
3.996955442
3.996959787
3.996964098
3.996968373
3.996972612
3.996976812
3.996980973
3.996985094
3.996989173
3.996993209
3.996997202
3.99700115
3.997005054
3.997008912
3.997012724
3.997016491
3.99702021
3.997023884
3.997027511
3.997031092
3.997034626
3.997038115
3.997041558
3.997044956
3.99704831
3.99705162
3.997054887
3.997058112
3.997061295
3.997064439
3.997067543
3.99707061
3.99707364
3.997076634
3.997079595
3.997082524
3.997085422
3.997088291
3.997091133
3.997093948
3.997096741
3.997099511
3.997102262
3.997104994
3.997107711
3.997110414
3.997113105
3.997115786
3.997118461
3.99712113
3.997123796
3.997126462
3.997129129
3.9971318
3.997134477
3.997137163
3.997139859
3.997142567
3.997145291
3.997148033
3.997150794
3.997153578
3.997156387
3.997159222
3.997162087
3.997164984
3.997167914
3.997170881
3.997173887
3.997176934
3.997180024
3.99718316
3.997186343
3.997189577
3.997192862
3.997196202
3.997199598
3.997203053
3.997206569
3.997210147
3.99721379
3.997217498
3.997221276
3.997225124
3.997229043
3.997233036
3.997237104
3.99724125
3.997245474
3.997249778
3.997254164
3.997258633
3.997263186
3.997267825
3.997272551
3.997277364
3.997282268
3.997287261
3.997292346
3.997297523
3.997302794
3.997308158
3.997313617
3.997319172
3.997324822
3.997330569
3.997336413
3.997342355
3.997348397
3.997354535
3.997360771
3.997367106
3.99737354
3.997380073
3.997386705
3.997393436
3.997400265
3.997407192
3.997414218
3.997421342
3.997428563
3.997435881
3.997443295
3.997450805
3.997458411
3.997466111
3.997473905
3.997481793
3.997489772
3.997497842
3.997506003
3.997514253
3.997522591
3.997531017
3.997539528
3.997548124
3.997556803
3.997565565
3.997574407
3.997583328
3.997592328
3.997601403
3.997610554
3.997619778
3.997629074
3.997638439
3.997647873
3.997657374
3.99766694
3.997676569
3.997686259
3.997696009
3.997705817
3.99771568
3.997725597
3.997735567
3.997745587
3.997755655
3.997765769
3.997775928
3.997786128
3.99779637
3.997806649
3.997816965
3.997827316
3.997837699
3.997848112
3.997858554
3.997869022
3.997879514
3.997890029
3.997900565
3.997911119
3.997921689
3.997932275
3.997942873
3.997953482
3.9979641
3.997974725
3.997985356
3.99799599
3.998006626
3.998017262
3.998027897
3.998038527
3.998049152
3.998059771
3.99807038
3.99808098
3.998091568
3.998102143
3.998112703
3.998123248
3.998133775
3.998144283
3.998154772
3.998165239
3.998175685
3.998186108
3.998196506
3.998206879
3.998217226
3.998227546
3.998237837
3.998248101
3.998258335
3.998268539
3.998278712
3.998288854
3.998298964
3.998309042
3.998319087
3.998329099
3.998339077
3.998349022
3.998358933
3.99836881
3.998378653
3.998388462
3.998398236
3.998407976
3.998417681
3.998427352
3.99843699
3.998446594
3.998456164
3.998465701
3.998475204
3.998484675
3.998494114
3.998503521
3.998512896
3.998522241
3.998531555
3.99854084
3.998550095
3.998559322
3.998568521
3.998577693
3.998586838
3.998595957
3.998605051
3.998614121
3.998623167
3.99863219
3.998641192
3.998650172
3.998659132
3.998668072
3.998676994
3.998685898
3.998694785
3.998703656
3.998712513
3.998721355
3.998730183
3.998739
3.998747804
3.998756598
3.998765383
3.998774158
3.998782926
3.998791686
3.99880044
3.998809188
3.998817932
3.998826671
3.998835408
3.998844143
3.998852876
3.998861608
3.998870341
3.998879074
3.998887808
3.998896544
3.998905283
3.998914025
3.998922771
3.998931521
3.998940277
3.998949038
3.998957804
3.998966578
3.998975358
3.998984146
3.998992942
3.999001745
3.999010558
3.999019379
3.99902821
3.999037051
3.999045901
3.999054761
3.999063631
3.999072512
3.999081403
3.999090305
3.999099218
3.999108141
3.999117075
3.99912602
3.999134976
3.999143942
3.999152919
3.999161907
3.999170905
3.999179913
3.999188931
3.999197958
3.999206996
3.999216042
3.999225097
3.999234161
3.999243233
3.999252313
3.999261401
3.999270495
3.999279596
3.999288703
3.999297816
3.999306934
3.999316056
3.999325182
3.999334312
3.999343445
3.999352581
3.999361718
3.999370856
3.999379994
3.999389132
3.99939827
3.999407406
3.999416539
3.999425669
3.999434796
3.999443918
3.999453034
3.999462145
3.999471249
3.999480346
3.999489434
3.999498514
3.999507584
3.999516643
3.999525691
3.999534728
3.999543751
3.999552762
3.999561759
3.999570741
3.999579707
3.999588657
3.99959759
3.999606506